<event>
 4    1  0.1956390E-002  0.9118800E+02  0.7818608E-02  0.1130116E+00
         25   -1    0    0    0    0  0.00000000000E+00  0.00000000000E+00  0.99999998245E-14  0.12500000000E+03  0.12500000000E+03 0.  0.
        -11    1    1    0    0    0 -0.25561114071E+02  0.28700200421E+02 -0.73944561243E+01  0.39137578340E+02  0.51100000000E-03 0. -1.
         11    1    1    0    0    0 -0.22544083778E+02  0.81009966481E+01 -0.38413148423E+01  0.24261441838E+02  0.51100000000E-03 0.  1.
         22    1    1    0    0    0  0.48105197849E+02 -0.36801197069E+02  0.11235770967E+02  0.61600979822E+02  0.00000000000E+00 0. -1.
</event>
<event>
 4    1  0.1956390E-002  0.9118800E+02  0.7818608E-02  0.1130116E+00
         25   -1    0    0    0    0  0.00000000000E+00  0.00000000000E+00  0.99999998245E-14  0.12500000000E+03  0.12500000000E+03 0.  0.
        -11    1    1    0    0    0 -0.59701179194E+02 -0.11254136800E+02  0.10845525608E+02  0.61713141374E+02  0.51100000000E-03 0.  1.
         11    1    1    0    0    0 -0.76004964295E+00 -0.14414941920E+00  0.14390386372E+00  0.78686917459E+00  0.51100000000E-03 0. -1.
         22    1    1    0    0    0  0.60461228837E+02  0.11398286220E+02 -0.10989429472E+02  0.62499989451E+02  0.00000000000E+00 0.  1.
</event>
<event>
 4    1  0.1956390E-002  0.9118800E+02  0.7818608E-02  0.1130116E+00
         25   -1    0    0    0    0  0.00000000000E+00  0.00000000000E+00  0.99999998245E-14  0.12500000000E+03  0.12500000000E+03 0.  0.
        -11    1    1    0    0    0  0.28758027377E+02  0.12247923777E+02 -0.53943877258E+02  0.62345630716E+02  0.51100000000E-03 0. -1.
         11    1    1    0    0    0 -0.31535837153E+00  0.50795054766E+00  0.48010941230E+00  0.76679199934E+00  0.51100000000E-03 0.  1.
         22    1    1    0    0    0 -0.28442669005E+02 -0.12755874325E+02  0.53463767846E+02  0.61887577285E+02  0.00000000000E+00 0. -1.
</event>
<event>
 4    1  0.1956390E-002  0.9118800E+02  0.7818608E-02  0.1130116E+00
         25   -1    0    0    0    0  0.00000000000E+00  0.00000000000E+00  0.99999998245E-14  0.12500000000E+03  0.12500000000E+03 0.  0.
        -11    1    1    0    0    0  0.17300320301E+02 -0.21873934927E+02  0.12468964274E+02  0.30549061885E+02  0.51100000000E-03 0. -1.
         11    1    1    0    0    0  0.19759556145E+02 -0.16372852789E+02  0.19594712928E+02  0.32287197811E+02  0.51100000000E-03 0.  1.
         22    1    1    0    0    0 -0.37059876447E+02  0.38246787716E+02 -0.32063677202E+02  0.62163740304E+02  0.00000000000E+00 0.  1.
</event>
<event>
 4    1  0.1956390E-002  0.9118800E+02  0.7818608E-02  0.1130116E+00
         25   -1    0    0    0    0  0.00000000000E+00  0.00000000000E+00  0.99999998245E-14  0.12500000000E+03  0.12500000000E+03 0.  0.
        -11    1    1    0    0    0 -0.14468933796E+02  0.31772208594E+02 -0.10507208387E+02  0.36458534152E+02  0.51100000000E-03 0. -1.
         11    1    1    0    0    0 -0.11139614323E+02  0.22803142251E+02 -0.59170715938E+01  0.26059279351E+02  0.51100000000E-03 0.  1.
         22    1    1    0    0    0  0.25608548119E+02 -0.54575350845E+02  0.16424279981E+02  0.62482186497E+02  0.00000000000E+00 0. -1.
</event>
<event>
 4    1  0.1956390E-002  0.9118800E+02  0.7818608E-02  0.1130116E+00
         25   -1    0    0    0    0  0.00000000000E+00  0.00000000000E+00  0.99999998245E-14  0.12500000000E+03  0.12500000000E+03 0.  0.
        -11    1    1    0    0    0 -0.12811232501E+02 -0.63779125525E+01  0.67553546290E+01  0.15825304520E+02  0.51100000000E-03 0.  1.
         11    1    1    0    0    0 -0.37783128670E+02 -0.18870718990E+02  0.19871063412E+02  0.46674704163E+02  0.51100000000E-03 0. -1.
         22    1    1    0    0    0  0.50594361171E+02  0.25248631542E+02 -0.26626418041E+02  0.62499991318E+02  0.00000000000E+00 0. -1.
</event>
<event>
 4    1  0.1956390E-002  0.9118800E+02  0.7818608E-02  0.1130116E+00
         25   -1    0    0    0    0  0.00000000000E+00  0.00000000000E+00  0.99999998245E-14  0.12500000000E+03  0.12500000000E+03 0.  0.
        -11    1    1    0    0    0 -0.18744271028E+02 -0.36753173576E+02  0.11156352494E+02  0.42738830886E+02  0.51100000000E-03 0. -1.
         11    1    1    0    0    0 -0.90795978001E+01 -0.16893167333E+02  0.47746889190E+01  0.19764003979E+02  0.51100000000E-03 0.  1.
         22    1    1    0    0    0  0.27823868828E+02  0.53646340908E+02 -0.15931041413E+02  0.62497165135E+02  0.00000000000E+00 0. -1.
</event>
<event>
 4    1  0.1956390E-002  0.9118800E+02  0.7818608E-02  0.1130116E+00
         25   -1    0    0    0    0  0.00000000000E+00  0.00000000000E+00  0.99999998245E-14  0.12500000000E+03  0.12500000000E+03 0.  0.
        -11    1    1    0    0    0 -0.61665340961E+01 -0.10124376948E+01 -0.13719831235E+02  0.15075972348E+02  0.51100000000E-03 0.  1.
         11    1    1    0    0    0 -0.23674527606E+02 -0.33468654780E+02 -0.26753204145E+02  0.48952712309E+02  0.51100000000E-03 0. -1.
         22    1    1    0    0    0  0.29841061702E+02  0.34481092475E+02  0.40473035380E+02  0.60971315343E+02  0.00000000000E+00 0. -1.
</event>
<event>
 4    1  0.1956390E-002  0.9118800E+02  0.7818608E-02  0.1130116E+00
         25   -1    0    0    0    0  0.00000000000E+00  0.00000000000E+00  0.99999998245E-14  0.12500000000E+03  0.12500000000E+03 0.  0.
        -11    1    1    0    0    0  0.30641860957E+02  0.44161516562E+01 -0.41964547838E+02  0.52148339512E+02  0.51100000000E-03 0.  1.
         11    1    1    0    0    0  0.58443987004E+01  0.12549363952E+01 -0.84566582453E+01  0.10356009389E+02  0.51100000000E-03 0. -1.
         22    1    1    0    0    0 -0.36486259657E+02 -0.56710880514E+01  0.50421206083E+02  0.62495651099E+02  0.00000000000E+00 0.  1.
</event>
<event>
 4    1  0.1956390E-002  0.9118800E+02  0.7818608E-02  0.1130116E+00
         25   -1    0    0    0    0  0.00000000000E+00  0.00000000000E+00  0.99999998245E-14  0.12500000000E+03  0.12500000000E+03 0.  0.
        -11    1    1    0    0    0  0.20552380542E+02  0.38112364039E+02 -0.14194864815E+02  0.45568046106E+02  0.51100000000E-03 0. -1.
         11    1    1    0    0    0  0.77347811241E+01  0.14271158213E+02 -0.48249164530E+01  0.16934361955E+02  0.51100000000E-03 0.  1.
         22    1    1    0    0    0 -0.28287161666E+02 -0.52383522252E+02  0.19019781268E+02  0.62497591939E+02  0.00000000000E+00 0. -1.
</event>
<event>
 4    1  0.1956390E-002  0.9118800E+02  0.7818608E-02  0.1130116E+00
         25   -1    0    0    0    0  0.00000000000E+00  0.00000000000E+00  0.99999998245E-14  0.12500000000E+03  0.12500000000E+03 0.  0.
        -11    1    1    0    0    0  0.19235179855E+02 -0.12975655638E+01 -0.15040438337E+02  0.24451801694E+02  0.51100000000E-03 0. -1.
         11    1    1    0    0    0  0.29998836131E+02 -0.18887328906E+01 -0.23327521810E+02  0.38048268755E+02  0.51100000000E-03 0.  1.
         22    1    1    0    0    0 -0.49234015986E+02  0.31862984544E+01  0.38367960148E+02  0.62499929551E+02  0.00000000000E+00 0.  1.
</event>
<event>
 4    1  0.1956390E-002  0.9118800E+02  0.7818608E-02  0.1130116E+00
         25   -1    0    0    0    0  0.00000000000E+00  0.00000000000E+00  0.99999998245E-14  0.12500000000E+03  0.12500000000E+03 0.  0.
        -11    1    1    0    0    0  0.10248599694E+02  0.16636389713E+02 -0.43447535776E+02  0.47639181601E+02  0.51100000000E-03 0. -1.
         11    1    1    0    0    0  0.21371186477E+01  0.62287373600E+01 -0.13354201943E+02  0.14889565307E+02  0.51100000000E-03 0.  1.
         22    1    1    0    0    0 -0.12385718341E+02 -0.22865127073E+02  0.56801737720E+02  0.62471253092E+02  0.00000000000E+00 0. -1.
</event>
<event>
 4    1  0.1956390E-002  0.9118800E+02  0.7818608E-02  0.1130116E+00
         25   -1    0    0    0    0  0.00000000000E+00  0.00000000000E+00  0.99999998245E-14  0.12500000000E+03  0.12500000000E+03 0.  0.
        -11    1    1    0    0    0 -0.15139963963E+02  0.17009636562E+01  0.12672804561E+02  0.19816956423E+02  0.51100000000E-03 0.  1.
         11    1    1    0    0    0 -0.35010388796E+02  0.13010914361E+02  0.21157026357E+02  0.42925877751E+02  0.51100000000E-03 0. -1.
         22    1    1    0    0    0  0.50150352760E+02 -0.14711878017E+02 -0.33829830918E+02  0.62257165826E+02  0.00000000000E+00 0. -1.
</event>
<event>
 4    1  0.1956390E-002  0.9118800E+02  0.7818608E-02  0.1130116E+00
         25   -1    0    0    0    0  0.00000000000E+00  0.00000000000E+00  0.99999998245E-14  0.12500000000E+03  0.12500000000E+03 0.  0.
        -11    1    1    0    0    0 -0.91922387457E+01 -0.14748316017E+02  0.91223531086E+01  0.19627210831E+02  0.51100000000E-03 0. -1.
         11    1    1    0    0    0  0.30246596233E-01 -0.31359192377E+02  0.30609935480E+02  0.43822003740E+02  0.51100000000E-03 0.  1.
         22    1    1    0    0    0  0.91619921494E+01  0.46107508394E+02 -0.39732288589E+02  0.61550785429E+02  0.00000000000E+00 0.  1.
</event>
<event>
 4    1  0.1956390E-002  0.9118800E+02  0.7818608E-02  0.1130116E+00
         25   -1    0    0    0    0  0.00000000000E+00  0.00000000000E+00  0.99999998245E-14  0.12500000000E+03  0.12500000000E+03 0.  0.
        -11    1    1    0    0    0  0.30846823623E+01 -0.15993692974E+02 -0.35563001021E+01  0.16672154956E+02  0.51100000000E-03 0. -1.
         11    1    1    0    0    0  0.66953727139E+01 -0.43846326456E+02 -0.11563551098E+02  0.45837147312E+02  0.51100000000E-03 0.  1.
         22    1    1    0    0    0 -0.97800550762E+01  0.59840019430E+02  0.15119851200E+02  0.62490697731E+02  0.00000000000E+00 0.  1.
</event>
<event>
 4    1  0.1956390E-002  0.9118800E+02  0.7818608E-02  0.1130116E+00
         25   -1    0    0    0    0  0.00000000000E+00  0.00000000000E+00  0.99999998245E-14  0.12500000000E+03  0.12500000000E+03 0.  0.
        -11    1    1    0    0    0  0.25884531930E+02 -0.17988260809E+02  0.12923663175E+02  0.34067691297E+02  0.51100000000E-03 0. -1.
         11    1    1    0    0    0  0.21606367419E+02 -0.15012642836E+02  0.10778758625E+02  0.28432309011E+02  0.51100000000E-03 0.  1.
         22    1    1    0    0    0 -0.47490899349E+02  0.33000903645E+02 -0.23702421800E+02  0.62499999692E+02  0.00000000000E+00 0.  1.
</event>
<event>
 4    1  0.1956390E-002  0.9118800E+02  0.7818608E-02  0.1130116E+00
         25   -1    0    0    0    0  0.00000000000E+00  0.00000000000E+00  0.99999998245E-14  0.12500000000E+03  0.12500000000E+03 0.  0.
        -11    1    1    0    0    0  0.20347516828E+02  0.75775968191E+01  0.33463109060E+02  0.39890112595E+02  0.51100000000E-03 0. -1.
         11    1    1    0    0    0  0.98484422034E+01  0.78810341997E+01  0.18897718589E+02  0.22720613593E+02  0.51100000000E-03 0.  1.
         22    1    1    0    0    0 -0.30195959032E+02 -0.15458631019E+02 -0.52360827649E+02  0.62389273813E+02  0.00000000000E+00 0. -1.
</event>
<event>
 4    1  0.1956390E-002  0.9118800E+02  0.7818608E-02  0.1130116E+00
         25   -1    0    0    0    0  0.00000000000E+00  0.00000000000E+00  0.99999998245E-14  0.12500000000E+03  0.12500000000E+03 0.  0.
        -11    1    1    0    0    0 -0.60846822892E+01  0.17053304525E+02 -0.34268838240E+02  0.38758119515E+02  0.51100000000E-03 0. -1.
         11    1    1    0    0    0 -0.62989186897E+01  0.24787378979E+02  0.34076916287E+02  0.42606651560E+02  0.51100000000E-03 0.  1.
         22    1    1    0    0    0  0.12383600979E+02 -0.41840683504E+02  0.19192195295E+00  0.43635228925E+02  0.00000000000E+00 0.  1.
</event>
<event>
 4    1  0.1956390E-002  0.9118800E+02  0.7818608E-02  0.1130116E+00
         25   -1    0    0    0    0  0.00000000000E+00  0.00000000000E+00  0.99999998245E-14  0.12500000000E+03  0.12500000000E+03 0.  0.
        -11    1    1    0    0    0  0.42042110705E+02 -0.33058175502E+02  0.15742990038E+02  0.55751446400E+02  0.51100000000E-03 0.  1.
         11    1    1    0    0    0  0.83304636901E+00 -0.21850868115E+01  0.84031740148E+01  0.87224941623E+01  0.51100000000E-03 0. -1.
         22    1    1    0    0    0 -0.42875157074E+02  0.35243262314E+02 -0.24146164053E+02  0.60526059438E+02  0.00000000000E+00 0.  1.
</event>
<event>
 4    1  0.1956390E-002  0.9118800E+02  0.7818608E-02  0.1130116E+00
         25   -1    0    0    0    0  0.00000000000E+00  0.00000000000E+00  0.99999998245E-14  0.12500000000E+03  0.12500000000E+03 0.  0.
        -11    1    1    0    0    0  0.32478342243E+00  0.65139797494E+00 -0.17836501854E+00  0.74941172542E+00  0.51100000000E-03 0.  1.
         11    1    1    0    0    0  0.22248873397E+02  0.13940653293E+02  0.56246291939E+02  0.62072534497E+02  0.51100000000E-03 0. -1.
         22    1    1    0    0    0 -0.22573656819E+02 -0.14592051268E+02 -0.56067926921E+02  0.62178053778E+02  0.00000000000E+00 0. -1.
</event>
<event>
 4    1  0.1956390E-002  0.9118800E+02  0.7818608E-02  0.1130116E+00
         25   -1    0    0    0    0  0.00000000000E+00  0.00000000000E+00  0.99999998245E-14  0.12500000000E+03  0.12500000000E+03 0.  0.
        -11    1    1    0    0    0 -0.10136140477E+02  0.83985755051E+01 -0.69786154649E+01  0.14898942525E+02  0.51100000000E-03 0.  1.
         11    1    1    0    0    0 -0.32410738474E+02  0.26798265622E+02 -0.22299280071E+02  0.47601059869E+02  0.51100000000E-03 0. -1.
         22    1    1    0    0    0  0.42546878951E+02 -0.35196841127E+02  0.29277895535E+02  0.62499997606E+02  0.00000000000E+00 0. -1.
</event>
<event>
 4    1  0.1956390E-002  0.9118800E+02  0.7818608E-02  0.1130116E+00
         25   -1    0    0    0    0  0.00000000000E+00  0.00000000000E+00  0.99999998245E-14  0.12500000000E+03  0.12500000000E+03 0.  0.
        -11    1    1    0    0    0  0.38301598279E+02 -0.31384707625E+02  0.34425158900E+02  0.60308406288E+02  0.51100000000E-03 0.  1.
         11    1    1    0    0    0  0.14641814145E+01 -0.20429846191E+01 -0.28802432222E+00  0.25299351059E+01  0.51100000000E-03 0. -1.
         22    1    1    0    0    0 -0.39765779694E+02  0.33427692245E+02 -0.34137134578E+02  0.62161658606E+02  0.00000000000E+00 0.  1.
</event>
<event>
 4    1  0.1956390E-002  0.9118800E+02  0.7818608E-02  0.1130116E+00
         25   -1    0    0    0    0  0.00000000000E+00  0.00000000000E+00  0.99999998245E-14  0.12500000000E+03  0.12500000000E+03 0.  0.
        -11    1    1    0    0    0  0.14791350204E+02 -0.16633374433E+01 -0.31884190189E+01  0.15222245183E+02  0.51100000000E-03 0. -1.
         11    1    1    0    0    0 -0.33944055785E+02 -0.32125772975E+02 -0.32584695735E+02  0.56973911651E+02  0.51100000000E-03 0.  1.
         22    1    1    0    0    0  0.19152705581E+02  0.33789110418E+02  0.35773114754E+02  0.52803843166E+02  0.00000000000E+00 0.  1.
</event>
<event>
 4    1  0.1956390E-002  0.9118800E+02  0.7818608E-02  0.1130116E+00
         25   -1    0    0    0    0  0.00000000000E+00  0.00000000000E+00  0.99999998245E-14  0.12500000000E+03  0.12500000000E+03 0.  0.
        -11    1    1    0    0    0 -0.53088395076E+02  0.41119477635E+01 -0.31158044567E+02  0.61693675103E+02  0.51100000000E-03 0.  1.
         11    1    1    0    0    0 -0.68806266627E+00  0.77337960856E-01 -0.41359360560E+00  0.80651802498E+00  0.51100000000E-03 0. -1.
         22    1    1    0    0    0  0.53776457742E+02 -0.41892857243E+01  0.31571638173E+02  0.62499806872E+02  0.00000000000E+00 0.  1.
</event>
<event>
 4    1  0.1956390E-002  0.9118800E+02  0.7818608E-02  0.1130116E+00
         25   -1    0    0    0    0  0.00000000000E+00  0.00000000000E+00  0.99999998245E-14  0.12500000000E+03  0.12500000000E+03 0.  0.
        -11    1    1    0    0    0  0.10430264874E+01  0.61637107267E+01 -0.61150651195E+01  0.87448988475E+01  0.51100000000E-03 0. -1.
         11    1    1    0    0    0  0.63751878826E+01  0.37709400811E+02 -0.37775305728E+02  0.53755145364E+02  0.51100000000E-03 0.  1.
         22    1    1    0    0    0 -0.74182143701E+01 -0.43873111537E+02  0.43890370847E+02  0.62499955788E+02  0.00000000000E+00 0.  1.
</event>
<event>
 4    1  0.1956390E-002  0.9118800E+02  0.7818608E-02  0.1130116E+00
         25   -1    0    0    0    0  0.00000000000E+00  0.00000000000E+00  0.99999998245E-14  0.12500000000E+03  0.12500000000E+03 0.  0.
        -11    1    1    0    0    0  0.31355895418E+02 -0.22469043584E+02  0.20747251507E+02  0.43800668287E+02  0.51100000000E-03 0. -1.
         11    1    1    0    0    0  0.13911133883E+02 -0.99943601734E+01  0.75504932632E+01  0.18719423868E+02  0.51100000000E-03 0.  1.
         22    1    1    0    0    0 -0.45267029301E+02  0.32463403757E+02 -0.28297744770E+02  0.62479907845E+02  0.00000000000E+00 0. -1.
</event>
<event>
 4    1  0.1956390E-002  0.9118800E+02  0.7818608E-02  0.1130116E+00
         25   -1    0    0    0    0  0.00000000000E+00  0.00000000000E+00  0.99999998245E-14  0.12500000000E+03  0.12500000000E+03 0.  0.
        -11    1    1    0    0    0  0.26466811932E+01  0.38683714299E+01  0.26535877292E+02  0.26946651049E+02  0.51100000000E-03 0.  1.
         11    1    1    0    0    0  0.34917018069E+01  0.51043242678E+01  0.35011348360E+02  0.35553348956E+02  0.51100000000E-03 0.  1.
         22    1    1    0    0    0 -0.61383830001E+01 -0.89726956977E+01 -0.61547225652E+02  0.62499999995E+02  0.00000000000E+00 0.  1.
</event>
<event>
 4    1  0.1956390E-002  0.9118800E+02  0.7818608E-02  0.1130116E+00
         25   -1    0    0    0    0  0.00000000000E+00  0.00000000000E+00  0.99999998245E-14  0.12500000000E+03  0.12500000000E+03 0.  0.
        -11    1    1    0    0    0 -0.42739460795E+02  0.13303532343E+02  0.12606712419E+01  0.44779847857E+02  0.51100000000E-03 0.  1.
         11    1    1    0    0    0  0.13372100860E+01  0.10560267770E+02 -0.24772008714E+02  0.26962192088E+02  0.51100000000E-03 0. -1.
         22    1    1    0    0    0  0.41402250709E+02 -0.23863800113E+02  0.23511337472E+02  0.53257960056E+02  0.00000000000E+00 0.  1.
</event>
<event>
 4    1  0.1956390E-002  0.9118800E+02  0.7818608E-02  0.1130116E+00
         25   -1    0    0    0    0  0.00000000000E+00  0.00000000000E+00  0.99999998245E-14  0.12500000000E+03  0.12500000000E+03 0.  0.
        -11    1    1    0    0    0 -0.41298096749E+01 -0.67007886766E+00  0.35981767371E+01  0.55182614774E+01  0.51100000000E-03 0. -1.
         11    1    1    0    0    0 -0.42723086129E+02 -0.69529953654E+01  0.37058238333E+02  0.56981744985E+02  0.51100000000E-03 0.  1.
         22    1    1    0    0    0  0.46852895804E+02  0.76230742331E+01 -0.40656415070E+02  0.62499993538E+02  0.00000000000E+00 0.  1.
</event>
<event>
 4    1  0.1956390E-002  0.9118800E+02  0.7818608E-02  0.1130116E+00
         25   -1    0    0    0    0  0.00000000000E+00  0.00000000000E+00  0.99999998245E-14  0.12500000000E+03  0.12500000000E+03 0.  0.
        -11    1    1    0    0    0  0.45777510289E+02 -0.23905939052E+02 -0.30127396446E+02  0.59789082508E+02  0.51100000000E-03 0.  1.
         11    1    1    0    0    0  0.20817792836E+01 -0.10838696745E+01 -0.13566705691E+01  0.27109285772E+01  0.51100000000E-03 0. -1.
         22    1    1    0    0    0 -0.47859289573E+02  0.24989808726E+02  0.31484067015E+02  0.62499988915E+02  0.00000000000E+00 0.  1.
</event>
<event>
 4    1  0.1956390E-002  0.9118800E+02  0.7818608E-02  0.1130116E+00
         25   -1    0    0    0    0  0.00000000000E+00  0.00000000000E+00  0.99999998245E-14  0.12500000000E+03  0.12500000000E+03 0.  0.
        -11    1    1    0    0    0 -0.31872600074E+02  0.45600695712E+02 -0.17447993196E+02  0.58307105499E+02  0.51100000000E-03 0.  1.
         11    1    1    0    0    0 -0.22895169055E+01  0.32797878369E+01 -0.12575671378E+01  0.41928953342E+01  0.51100000000E-03 0. -1.
         22    1    1    0    0    0  0.34162116979E+02 -0.48880483549E+02  0.18705560334E+02  0.62499999167E+02  0.00000000000E+00 0.  1.
</event>
<event>
 4    1  0.1956390E-002  0.9118800E+02  0.7818608E-02  0.1130116E+00
         25   -1    0    0    0    0  0.00000000000E+00  0.00000000000E+00  0.99999998245E-14  0.12500000000E+03  0.12500000000E+03 0.  0.
        -11    1    1    0    0    0  0.18605808182E+01 -0.81910081115E+01 -0.47024413908E+01  0.96263871810E+01  0.51100000000E-03 0.  1.
         11    1    1    0    0    0  0.29293905262E+02 -0.29466605841E+02 -0.33473846640E+02  0.53356463099E+02  0.51100000000E-03 0. -1.
         22    1    1    0    0    0 -0.31154486080E+02  0.37657613953E+02  0.38176288031E+02  0.62017149720E+02  0.00000000000E+00 0. -1.
</event>
<event>
 4    1  0.1956390E-002  0.9118800E+02  0.7818608E-02  0.1130116E+00
         25   -1    0    0    0    0  0.00000000000E+00  0.00000000000E+00  0.99999998245E-14  0.12500000000E+03  0.12500000000E+03 0.  0.
        -11    1    1    0    0    0 -0.39241949116E+02  0.20995865622E+02  0.34482300329E+02  0.56300852391E+02  0.51100000000E-03 0.  1.
         11    1    1    0    0    0 -0.44653597449E+01  0.24194815585E+01  0.35603253756E+01  0.62023580762E+01  0.51100000000E-03 0. -1.
         22    1    1    0    0    0  0.43707308861E+02 -0.23415347181E+02 -0.38042625704E+02  0.62496789533E+02  0.00000000000E+00 0.  1.
</event>
<event>
 4    1  0.1956390E-002  0.9118800E+02  0.7818608E-02  0.1130116E+00
         25   -1    0    0    0    0  0.00000000000E+00  0.00000000000E+00  0.99999998245E-14  0.12500000000E+03  0.12500000000E+03 0.  0.
        -11    1    1    0    0    0  0.90695899068E+01  0.94450776835E+01  0.57749115773E+01  0.14311413540E+02  0.51100000000E-03 0. -1.
         11    1    1    0    0    0  0.30534426574E+02  0.31825063252E+02  0.19415307541E+02  0.48188588113E+02  0.51100000000E-03 0.  1.
         22    1    1    0    0    0 -0.39604016480E+02 -0.41270140935E+02 -0.25190219118E+02  0.62499998347E+02  0.00000000000E+00 0.  1.
</event>
<event>
 4    1  0.1956390E-002  0.9118800E+02  0.7818608E-02  0.1130116E+00
         25   -1    0    0    0    0  0.00000000000E+00  0.00000000000E+00  0.99999998245E-14  0.12500000000E+03  0.12500000000E+03 0.  0.
        -11    1    1    0    0    0 -0.19030771850E+02 -0.16346124240E+01  0.14864443052E+02  0.24203179594E+02  0.51100000000E-03 0.  1.
         11    1    1    0    0    0 -0.29503060805E+02 -0.38997649397E+01  0.24113935366E+02  0.38303010881E+02  0.51100000000E-03 0. -1.
         22    1    1    0    0    0  0.48533832654E+02  0.55343773636E+01 -0.38978378417E+02  0.62493809525E+02  0.00000000000E+00 0. -1.
</event>
<event>
 4    1  0.1956390E-002  0.9118800E+02  0.7818608E-02  0.1130116E+00
         25   -1    0    0    0    0  0.00000000000E+00  0.00000000000E+00  0.99999998245E-14  0.12500000000E+03  0.12500000000E+03 0.  0.
        -11    1    1    0    0    0  0.21866677431E+02 -0.10496660874E+02 -0.49263991609E+01  0.24750775348E+02  0.51100000000E-03 0.  1.
         11    1    1    0    0    0  0.33088546402E+02 -0.16560390489E+02 -0.74819422582E+01  0.37750203925E+02  0.51100000000E-03 0. -1.
         22    1    1    0    0    0 -0.54955223834E+02  0.27057051363E+02  0.12408341419E+02  0.62499020727E+02  0.00000000000E+00 0. -1.
</event>
<event>
 4    1  0.1956390E-002  0.9118800E+02  0.7818608E-02  0.1130116E+00
         25   -1    0    0    0    0  0.00000000000E+00  0.00000000000E+00  0.99999998245E-14  0.12500000000E+03  0.12500000000E+03 0.  0.
        -11    1    1    0    0    0  0.45580232959E+02  0.14795457877E+02  0.61891230333E+01  0.48319441786E+02  0.51100000000E-03 0. -1.
         11    1    1    0    0    0  0.14663668699E+02 -0.37354093801E+01 -0.14870731579E+00  0.15132698936E+02  0.51100000000E-03 0.  1.
         22    1    1    0    0    0 -0.60243901658E+02 -0.11060048497E+02 -0.60404157175E+01  0.61547859278E+02  0.00000000000E+00 0. -1.
</event>
<event>
 4    1  0.1956390E-002  0.9118800E+02  0.7818608E-02  0.1130116E+00
         25   -1    0    0    0    0  0.00000000000E+00  0.00000000000E+00  0.99999998245E-14  0.12500000000E+03  0.12500000000E+03 0.  0.
        -11    1    1    0    0    0 -0.20837579902E+01 -0.12443902419E+01  0.66528921584E+00  0.25165779220E+01  0.51100000000E-03 0.  1.
         11    1    1    0    0    0 -0.49429867359E+02 -0.30047304424E+02  0.15870185435E+02  0.59983456689E+02  0.51100000000E-03 0. -1.
         22    1    1    0    0    0  0.51513625349E+02  0.31291694666E+02 -0.16535474651E+02  0.62499965389E+02  0.00000000000E+00 0. -1.
</event>
<event>
 4    1  0.1956390E-002  0.9118800E+02  0.7818608E-02  0.1130116E+00
         25   -1    0    0    0    0  0.00000000000E+00  0.00000000000E+00  0.99999998245E-14  0.12500000000E+03  0.12500000000E+03 0.  0.
        -11    1    1    0    0    0  0.36871414976E+02  0.36747232540E+01  0.70201919135E+01  0.37713232799E+02  0.51100000000E-03 0. -1.
         11    1    1    0    0    0  0.21143662189E+02  0.10097704173E+02  0.96997932478E+01  0.25359496637E+02  0.51100000000E-03 0.  1.
         22    1    1    0    0    0 -0.58015077166E+02 -0.13772427427E+02 -0.16719985161E+02  0.61927270565E+02  0.00000000000E+00 0.  1.
</event>
<event>
 4    1  0.1956390E-002  0.9118800E+02  0.7818608E-02  0.1130116E+00
         25   -1    0    0    0    0  0.00000000000E+00  0.00000000000E+00  0.99999998245E-14  0.12500000000E+03  0.12500000000E+03 0.  0.
        -11    1    1    0    0    0  0.18706270805E+02  0.22145494947E+02  0.67194224603E+01  0.29757320988E+02  0.51100000000E-03 0.  1.
         11    1    1    0    0    0  0.20476904744E+02  0.24462017887E+02  0.73752273651E+01  0.32742753793E+02  0.51100000000E-03 0. -1.
         22    1    1    0    0    0 -0.39183175549E+02 -0.46607512834E+02 -0.14094649825E+02  0.62499925219E+02  0.00000000000E+00 0.  1.
</event>
<event>
 4    1  0.1956390E-002  0.9118800E+02  0.7818608E-02  0.1130116E+00
         25   -1    0    0    0    0  0.00000000000E+00  0.00000000000E+00  0.99999998245E-14  0.12500000000E+03  0.12500000000E+03 0.  0.
        -11    1    1    0    0    0  0.52392123049E+01  0.90419725846E+01  0.80131231697E+01  0.13168779632E+02  0.51100000000E-03 0.  1.
         11    1    1    0    0    0  0.19600023107E+02  0.33882376938E+02  0.30023208008E+02  0.49331221271E+02  0.51100000000E-03 0. -1.
         22    1    1    0    0    0 -0.24839235412E+02 -0.42924349522E+02 -0.38036331177E+02  0.62499999097E+02  0.00000000000E+00 0. -1.
</event>
<event>
 4    1  0.1956390E-002  0.9118800E+02  0.7818608E-02  0.1130116E+00
         25   -1    0    0    0    0  0.00000000000E+00  0.00000000000E+00  0.99999998245E-14  0.12500000000E+03  0.12500000000E+03 0.  0.
        -11    1    1    0    0    0 -0.24805682962E+02  0.23641621340E+02 -0.20851391826E+02  0.40112700085E+02  0.51100000000E-03 0.  1.
         11    1    1    0    0    0 -0.14136814235E+02  0.11819849725E+02 -0.12754111480E+02  0.22410393217E+02  0.51100000000E-03 0. -1.
         22    1    1    0    0    0  0.38942497196E+02 -0.35461471065E+02  0.33605503306E+02  0.62476906698E+02  0.00000000000E+00 0.  1.
</event>
<event>
 4    1  0.1956390E-002  0.9118800E+02  0.7818608E-02  0.1130116E+00
         25   -1    0    0    0    0  0.00000000000E+00  0.00000000000E+00  0.99999998245E-14  0.12500000000E+03  0.12500000000E+03 0.  0.
        -11    1    1    0    0    0 -0.18257409826E+02 -0.29298247888E+02 -0.15434814032E+02  0.37814730296E+02  0.51100000000E-03 0. -1.
         11    1    1    0    0    0 -0.12031653196E+02 -0.19110902616E+02 -0.99690850441E+01  0.24685419468E+02  0.51100000000E-03 0.  1.
         22    1    1    0    0    0  0.30289063022E+02  0.48409150505E+02  0.25403899076E+02  0.62499850236E+02  0.00000000000E+00 0.  1.
</event>
<event>
 4    1  0.1956390E-002  0.9118800E+02  0.7818608E-02  0.1130116E+00
         25   -1    0    0    0    0  0.00000000000E+00  0.00000000000E+00  0.99999998245E-14  0.12500000000E+03  0.12500000000E+03 0.  0.
        -11    1    1    0    0    0  0.53672464399E+02  0.61775073860E+01 -0.98976908183E+01  0.54925943924E+02  0.51100000000E-03 0. -1.
         11    1    1    0    0    0  0.74138486506E+01  0.65514116220E+00 -0.14106593046E+01  0.75752440020E+01  0.51100000000E-03 0.  1.
         22    1    1    0    0    0 -0.61086313049E+02 -0.68326485482E+01  0.11308350123E+02  0.62498812074E+02  0.00000000000E+00 0. -1.
</event>
<event>
 4    1  0.1956390E-002  0.9118800E+02  0.7818608E-02  0.1130116E+00
         25   -1    0    0    0    0  0.00000000000E+00  0.00000000000E+00  0.99999998245E-14  0.12500000000E+03  0.12500000000E+03 0.  0.
        -11    1    1    0    0    0  0.31736361427E+02  0.34075073567E+02  0.32606503006E+02  0.56846207558E+02  0.51100000000E-03 0.  1.
         11    1    1    0    0    0  0.24058494043E+01  0.21016106911E+01  0.49036949272E+01  0.58524441949E+01  0.51100000000E-03 0. -1.
         22    1    1    0    0    0 -0.34142210832E+02 -0.36176684258E+02 -0.37510197933E+02  0.62301348247E+02  0.00000000000E+00 0.  1.
</event>
<event>
 4    1  0.1956390E-002  0.9118800E+02  0.7818608E-02  0.1130116E+00
         25   -1    0    0    0    0  0.00000000000E+00  0.00000000000E+00  0.99999998245E-14  0.12500000000E+03  0.12500000000E+03 0.  0.
        -11    1    1    0    0    0  0.36134943616E+02 -0.21393750448E+02  0.13718878350E+02  0.44177305620E+02  0.51100000000E-03 0.  1.
         11    1    1    0    0    0  0.15005108376E+02 -0.89043013245E+01  0.55933021802E+01  0.18322796975E+02  0.51100000000E-03 0. -1.
         22    1    1    0    0    0 -0.51140051992E+02  0.30298051772E+02 -0.19312180530E+02  0.62499897406E+02  0.00000000000E+00 0.  1.
</event>
<event>
 4    1  0.1956390E-002  0.9118800E+02  0.7818608E-02  0.1130116E+00
         25   -1    0    0    0    0  0.00000000000E+00  0.00000000000E+00  0.99999998245E-14  0.12500000000E+03  0.12500000000E+03 0.  0.
        -11    1    1    0    0    0  0.15981980164E+02  0.15197267192E+01  0.47376010233E+00  0.16061061863E+02  0.51100000000E-03 0.  1.
         11    1    1    0    0    0  0.46150521630E+02  0.48173533848E+01  0.18854904486E+01  0.46439558728E+02  0.51100000000E-03 0. -1.
         22    1    1    0    0    0 -0.62132501794E+02 -0.63370801041E+01 -0.23592505510E+01  0.62499379409E+02  0.00000000000E+00 0.  1.
</event>
<event>
 4    1  0.1956390E-002  0.9118800E+02  0.7818608E-02  0.1130116E+00
         25   -1    0    0    0    0  0.00000000000E+00  0.00000000000E+00  0.99999998245E-14  0.12500000000E+03  0.12500000000E+03 0.  0.
        -11    1    1    0    0    0  0.37976008283E+01  0.20145000577E+02 -0.10734403409E+02  0.23140229841E+02  0.51100000000E-03 0. -1.
         11    1    1    0    0    0  0.64591785954E+01  0.34264541981E+02 -0.18259564126E+02  0.39359770168E+02  0.51100000000E-03 0. -1.
         22    1    1    0    0    0 -0.10256779424E+02 -0.54409542558E+02  0.28993967536E+02  0.62499999991E+02  0.00000000000E+00 0. -1.
</event>
<event>
 4    1  0.1956390E-002  0.9118800E+02  0.7818608E-02  0.1130116E+00
         25   -1    0    0    0    0  0.00000000000E+00  0.00000000000E+00  0.99999998245E-14  0.12500000000E+03  0.12500000000E+03 0.  0.
        -11    1    1    0    0    0  0.32339548793E+02 -0.20178284254E+01  0.48537595363E+02  0.58359371241E+02  0.51100000000E-03 0.  1.
         11    1    1    0    0    0  0.22952842833E+01 -0.14481470373E+00  0.34431826661E+01  0.41406289828E+01  0.51100000000E-03 0. -1.
         22    1    1    0    0    0 -0.34634833077E+02  0.21626431292E+01 -0.51980778029E+02  0.62499999777E+02  0.00000000000E+00 0.  1.
</event>
<event>
 4    1  0.1956390E-002  0.9118800E+02  0.7818608E-02  0.1130116E+00
         25   -1    0    0    0    0  0.00000000000E+00  0.00000000000E+00  0.99999998245E-14  0.12500000000E+03  0.12500000000E+03 0.  0.
        -11    1    1    0    0    0  0.48537630983E+00 -0.16250381817E+02 -0.24324583315E+00  0.16259448581E+02  0.51100000000E-03 0.  1.
         11    1    1    0    0    0  0.13822170588E+01 -0.46214764386E+02 -0.68820541586E+00  0.46240551448E+02  0.51100000000E-03 0. -1.
         22    1    1    0    0    0 -0.18675933686E+01  0.62465146202E+02  0.93145124902E+00  0.62499999972E+02  0.00000000000E+00 0. -1.
</event>
<event>
 4    1  0.1956390E-002  0.9118800E+02  0.7818608E-02  0.1130116E+00
         25   -1    0    0    0    0  0.00000000000E+00  0.00000000000E+00  0.99999998245E-14  0.12500000000E+03  0.12500000000E+03 0.  0.
        -11    1    1    0    0    0 -0.73040634250E+01  0.17381933341E+01 -0.27415353141E+01  0.79929140319E+01  0.51100000000E-03 0. -1.
         11    1    1    0    0    0 -0.49807608582E+02  0.11851699944E+02 -0.18701918622E+02  0.54507086004E+02  0.51100000000E-03 0.  1.
         22    1    1    0    0    0  0.57111672007E+02 -0.13589893278E+02  0.21443453937E+02  0.62499999964E+02  0.00000000000E+00 0.  1.
</event>
<event>
 4    1  0.1956390E-002  0.9118800E+02  0.7818608E-02  0.1130116E+00
         25   -1    0    0    0    0  0.00000000000E+00  0.00000000000E+00  0.99999998245E-14  0.12500000000E+03  0.12500000000E+03 0.  0.
        -11    1    1    0    0    0  0.43497808034E+02 -0.24209409916E+02 -0.26686890292E+02  0.56483138598E+02  0.51100000000E-03 0.  1.
         11    1    1    0    0    0  0.46747028539E+01 -0.21351077272E+01 -0.31501751436E+01  0.60278632595E+01  0.51100000000E-03 0. -1.
         22    1    1    0    0    0 -0.48172510887E+02  0.26344517643E+02  0.29837065435E+02  0.62488998142E+02  0.00000000000E+00 0.  1.
</event>
<event>
 4    1  0.1956390E-002  0.9118800E+02  0.7818608E-02  0.1130116E+00
         25   -1    0    0    0    0  0.00000000000E+00  0.00000000000E+00  0.99999998245E-14  0.12500000000E+03  0.12500000000E+03 0.  0.
        -11    1    1    0    0    0 -0.56278844001E+01 -0.32893333204E+02 -0.33270297484E+01  0.33536749683E+02  0.51100000000E-03 0.  1.
         11    1    1    0    0    0  0.22677998567E+02  0.27330513902E+02  0.38255772813E+02  0.52199164389E+02  0.51100000000E-03 0. -1.
         22    1    1    0    0    0 -0.17050114167E+02  0.55628193020E+01 -0.34928743065E+02  0.39264085928E+02  0.00000000000E+00 0.  1.
</event>
<event>
 4    1  0.1956390E-002  0.9118800E+02  0.7818608E-02  0.1130116E+00
         25   -1    0    0    0    0  0.00000000000E+00  0.00000000000E+00  0.99999998245E-14  0.12500000000E+03  0.12500000000E+03 0.  0.
        -11    1    1    0    0    0  0.52569027142E+02 -0.28421503125E+02 -0.12733750065E+02  0.61101823586E+02  0.51100000000E-03 0. -1.
         11    1    1    0    0    0  0.13092103543E+01 -0.47311648296E+00 -0.20412318317E+00  0.14069603738E+01  0.51100000000E-03 0.  1.
         22    1    1    0    0    0 -0.53878237496E+02  0.28894619608E+02  0.12937873248E+02  0.62491216040E+02  0.00000000000E+00 0. -1.
</event>
<event>
 4    1  0.1956390E-002  0.9118800E+02  0.7818608E-02  0.1130116E+00
         25   -1    0    0    0    0  0.00000000000E+00  0.00000000000E+00  0.99999998245E-14  0.12500000000E+03  0.12500000000E+03 0.  0.
        -11    1    1    0    0    0 -0.10360146263E+02 -0.17110044762E+01 -0.22100468009E+01  0.10730539317E+02  0.51100000000E-03 0.  1.
         11    1    1    0    0    0 -0.49975600410E+02 -0.82120354503E+01 -0.10727507736E+02  0.51769465760E+02  0.51100000000E-03 0. -1.
         22    1    1    0    0    0  0.60335746673E+02  0.99230399264E+01  0.12937554537E+02  0.62499994923E+02  0.00000000000E+00 0. -1.
</event>
<event>
 4    1  0.1956390E-002  0.9118800E+02  0.7818608E-02  0.1130116E+00
         25   -1    0    0    0    0  0.00000000000E+00  0.00000000000E+00  0.99999998245E-14  0.12500000000E+03  0.12500000000E+03 0.  0.
        -11    1    1    0    0    0  0.16348967334E+02 -0.28632775436E+02 -0.13770921293E+01  0.33000317348E+02  0.51100000000E-03 0. -1.
         11    1    1    0    0    0  0.14581047164E+02 -0.25615178131E+02 -0.12196005221E+01  0.29499690045E+02  0.51100000000E-03 0.  1.
         22    1    1    0    0    0 -0.30930014498E+02  0.54247953568E+02  0.25966926514E+01  0.62499992607E+02  0.00000000000E+00 0. -1.
</event>
<event>
 4    1  0.1956390E-002  0.9118800E+02  0.7818608E-02  0.1130116E+00
         25   -1    0    0    0    0  0.00000000000E+00  0.00000000000E+00  0.99999998245E-14  0.12500000000E+03  0.12500000000E+03 0.  0.
        -11    1    1    0    0    0 -0.55236337215E+01 -0.17577505118E+01 -0.61104496126E+02  0.61378820968E+02  0.51100000000E-03 0. -1.
         11    1    1    0    0    0 -0.10079739258E+00 -0.31579707084E-01 -0.11161922073E+01  0.11211791547E+01  0.51100000000E-03 0.  1.
         22    1    1    0    0    0  0.56244311141E+01  0.17893302189E+01  0.62220688333E+02  0.62499999877E+02  0.00000000000E+00 0. -1.
</event>
<event>
 4    1  0.1956390E-002  0.9118800E+02  0.7818608E-02  0.1130116E+00
         25   -1    0    0    0    0  0.00000000000E+00  0.00000000000E+00  0.99999998245E-14  0.12500000000E+03  0.12500000000E+03 0.  0.
        -11    1    1    0    0    0  0.11312031284E+02 -0.12194682898E+02 -0.58093893709E+02  0.60428245294E+02  0.51100000000E-03 0.  1.
         11    1    1    0    0    0  0.38913102147E+00 -0.43716746813E+00 -0.19874141100E+01  0.20717995687E+01  0.51100000000E-03 0. -1.
         22    1    1    0    0    0 -0.11701162305E+02  0.12631850367E+02  0.60081307819E+02  0.62499955138E+02  0.00000000000E+00 0.  1.
</event>
<event>
 4    1  0.1956390E-002  0.9118800E+02  0.7818608E-02  0.1130116E+00
         25   -1    0    0    0    0  0.00000000000E+00  0.00000000000E+00  0.99999998245E-14  0.12500000000E+03  0.12500000000E+03 0.  0.
        -11    1    1    0    0    0  0.27696858729E+02 -0.86140763541E+01  0.64968446139E+01  0.29724186870E+02  0.51100000000E-03 0. -1.
         11    1    1    0    0    0  0.30532467339E+02 -0.94569626444E+01  0.72519301638E+01  0.32775847748E+02  0.51100000000E-03 0.  1.
         22    1    1    0    0    0 -0.58229326068E+02  0.18071038999E+02 -0.13748774778E+02  0.62499965382E+02  0.00000000000E+00 0.  1.
</event>
<event>
 4    1  0.1956390E-002  0.9118800E+02  0.7818608E-02  0.1130116E+00
         25   -1    0    0    0    0  0.00000000000E+00  0.00000000000E+00  0.99999998245E-14  0.12500000000E+03  0.12500000000E+03 0.  0.
        -11    1    1    0    0    0  0.14849933372E+02  0.20766199323E+02  0.79950200925E+01  0.26752119580E+02  0.51100000000E-03 0. -1.
         11    1    1    0    0    0  0.75156831486E+00  0.35215468632E+02  0.11335096295E+02  0.37002412005E+02  0.51100000000E-03 0.  1.
         22    1    1    0    0    0 -0.15601501687E+02 -0.55981667955E+02 -0.19330116387E+02  0.61245468415E+02  0.00000000000E+00 0. -1.
</event>
<event>
 4    1  0.1956390E-002  0.9118800E+02  0.7818608E-02  0.1130116E+00
         25   -1    0    0    0    0  0.00000000000E+00  0.00000000000E+00  0.99999998245E-14  0.12500000000E+03  0.12500000000E+03 0.  0.
        -11    1    1    0    0    0 -0.58648925326E+02 -0.17233189698E+02  0.34928164227E+01  0.61228090252E+02  0.51100000000E-03 0. -1.
         11    1    1    0    0    0 -0.64785960619E+00 -0.13709914902E+01 -0.28099823407E+00  0.15421737918E+01  0.51100000000E-03 0.  1.
         22    1    1    0    0    0  0.59296784933E+02  0.18604181189E+02 -0.32118181887E+01  0.62229735956E+02  0.00000000000E+00 0. -1.
</event>
<event>
 4    1  0.1956390E-002  0.9118800E+02  0.7818608E-02  0.1130116E+00
         25   -1    0    0    0    0  0.00000000000E+00  0.00000000000E+00  0.99999998245E-14  0.12500000000E+03  0.12500000000E+03 0.  0.
        -11    1    1    0    0    0 -0.14380043595E+02  0.19738935467E+02  0.40161408730E+02  0.47003723029E+02  0.51100000000E-03 0. -1.
         11    1    1    0    0    0 -0.99081700781E+01  0.72425439056E+01  0.10169576949E+02  0.15938838481E+02  0.51100000000E-03 0.  1.
         22    1    1    0    0    0  0.24288213673E+02 -0.26981479373E+02 -0.50330985679E+02  0.62057438490E+02  0.00000000000E+00 0. -1.
</event>
<event>
 4    1  0.1956390E-002  0.9118800E+02  0.7818608E-02  0.1130116E+00
         25   -1    0    0    0    0  0.00000000000E+00  0.00000000000E+00  0.99999998245E-14  0.12500000000E+03  0.12500000000E+03 0.  0.
        -11    1    1    0    0    0 -0.20397215021E+01 -0.14792624205E+01  0.24522180068E+01  0.35159713493E+01  0.51100000000E-03 0. -1.
         11    1    1    0    0    0 -0.34223582140E+02 -0.24815742979E+02  0.41134425546E+02  0.58984028681E+02  0.51100000000E-03 0. -1.
         22    1    1    0    0    0  0.36263303643E+02  0.26295005400E+02 -0.43586643553E+02  0.62499999970E+02  0.00000000000E+00 0. -1.
</event>
<event>
 4    1  0.1956390E-002  0.9118800E+02  0.7818608E-02  0.1130116E+00
         25   -1    0    0    0    0  0.00000000000E+00  0.00000000000E+00  0.99999998245E-14  0.12500000000E+03  0.12500000000E+03 0.  0.
        -11    1    1    0    0    0  0.80437170056E+01  0.33794119060E+02 -0.22143834231E+02  0.41195791787E+02  0.51100000000E-03 0. -1.
         11    1    1    0    0    0  0.41619948349E+01  0.17476972831E+02 -0.11450000425E+02  0.21304208277E+02  0.51100000000E-03 0.  1.
         22    1    1    0    0    0 -0.12205711840E+02 -0.51271091890E+02  0.33593834655E+02  0.62499999936E+02  0.00000000000E+00 0.  1.
</event>
<event>
 4    1  0.1956390E-002  0.9118800E+02  0.7818608E-02  0.1130116E+00
         25   -1    0    0    0    0  0.00000000000E+00  0.00000000000E+00  0.99999998245E-14  0.12500000000E+03  0.12500000000E+03 0.  0.
        -11    1    1    0    0    0 -0.20289428066E+02  0.15334864402E+02  0.23491288368E+02  0.34621663549E+02  0.51100000000E-03 0. -1.
         11    1    1    0    0    0 -0.16343061481E+02  0.12348447079E+02  0.18910892482E+02  0.27878336725E+02  0.51100000000E-03 0.  1.
         22    1    1    0    0    0  0.36632489547E+02 -0.27683311480E+02 -0.42402180850E+02  0.62499999726E+02  0.00000000000E+00 0. -1.
</event>
<event>
 4    1  0.1956390E-002  0.9118800E+02  0.7818608E-02  0.1130116E+00
         25   -1    0    0    0    0  0.00000000000E+00  0.00000000000E+00  0.99999998245E-14  0.12500000000E+03  0.12500000000E+03 0.  0.
        -11    1    1    0    0    0 -0.37755578593E+02  0.24649320008E+02 -0.31764716586E+02  0.55154962712E+02  0.51100000000E-03 0. -1.
         11    1    1    0    0    0 -0.50216679215E+01  0.32846627782E+01 -0.42359708097E+01  0.73450396351E+01  0.51100000000E-03 0.  1.
         22    1    1    0    0    0  0.42777246514E+02 -0.27933982786E+02  0.36000687395E+02  0.62499997653E+02  0.00000000000E+00 0. -1.
</event>
<event>
 4    1  0.1956390E-002  0.9118800E+02  0.7818608E-02  0.1130116E+00
         25   -1    0    0    0    0  0.00000000000E+00  0.00000000000E+00  0.99999998245E-14  0.12500000000E+03  0.12500000000E+03 0.  0.
        -11    1    1    0    0    0  0.17572033123E+02 -0.15343755057E+01 -0.24903983832E+01  0.17813835652E+02  0.51100000000E-03 0. -1.
         11    1    1    0    0    0  0.44086155116E+02 -0.36911138583E+01 -0.62963316691E+01  0.44686208020E+02  0.51100000000E-03 0.  1.
         22    1    1    0    0    0 -0.61658188239E+02  0.52254893640E+01  0.87867300523E+01  0.62499956328E+02  0.00000000000E+00 0.  1.
</event>
<event>
 4    1  0.1956390E-002  0.9118800E+02  0.7818608E-02  0.1130116E+00
         25   -1    0    0    0    0  0.00000000000E+00  0.00000000000E+00  0.99999998245E-14  0.12500000000E+03  0.12500000000E+03 0.  0.
        -11    1    1    0    0    0  0.19237598585E+02 -0.14802745746E+02 -0.39971770020E+01  0.24600485873E+02  0.51100000000E-03 0.  1.
         11    1    1    0    0    0 -0.93128267113E+01 -0.13602314956E+02 -0.42178559171E+02  0.45285566878E+02  0.51100000000E-03 0. -1.
         22    1    1    0    0    0 -0.99247718742E+01  0.28405060701E+02  0.46175736173E+02  0.55113947248E+02  0.00000000000E+00 0. -1.
</event>
<event>
 4    1  0.1956390E-002  0.9118800E+02  0.7818608E-02  0.1130116E+00
         25   -1    0    0    0    0  0.00000000000E+00  0.00000000000E+00  0.99999998245E-14  0.12500000000E+03  0.12500000000E+03 0.  0.
        -11    1    1    0    0    0 -0.16791040181E+02  0.37084932522E+02 -0.19092298445E+02  0.44963842259E+02  0.51100000000E-03 0.  1.
         11    1    1    0    0    0 -0.64624917601E+01  0.14444339682E+02 -0.75578680719E+01  0.17536365605E+02  0.51100000000E-03 0. -1.
         22    1    1    0    0    0  0.23253531941E+02 -0.51529272204E+02  0.26650166517E+02  0.62499792135E+02  0.00000000000E+00 0. -1.
</event>
<event>
 4    1  0.1956390E-002  0.9118800E+02  0.7818608E-02  0.1130116E+00
         25   -1    0    0    0    0  0.00000000000E+00  0.00000000000E+00  0.99999998245E-14  0.12500000000E+03  0.12500000000E+03 0.  0.
        -11    1    1    0    0    0  0.45528462512E+02 -0.13626295431E+02 -0.77795808749E+01  0.48156398378E+02  0.51100000000E-03 0. -1.
         11    1    1    0    0    0  0.14757383102E+02  0.16190503231E+01  0.33162040152E+01  0.15211800988E+02  0.51100000000E-03 0.  1.
         22    1    1    0    0    0 -0.60285845614E+02  0.12007245108E+02  0.44633768598E+01  0.61631800634E+02  0.00000000000E+00 0. -1.
</event>
<event>
 4    1  0.1956390E-002  0.9118800E+02  0.7818608E-02  0.1130116E+00
         25   -1    0    0    0    0  0.00000000000E+00  0.00000000000E+00  0.99999998245E-14  0.12500000000E+03  0.12500000000E+03 0.  0.
        -11    1    1    0    0    0 -0.12642536212E+02 -0.26185212322E+02 -0.48504593631E+02  0.56552583228E+02  0.51100000000E-03 0. -1.
         11    1    1    0    0    0 -0.46114509015E+01 -0.30204002644E+00 -0.46802693525E+01  0.65773573012E+01  0.51100000000E-03 0.  1.
         22    1    1    0    0    0  0.17253987114E+02  0.26487252348E+02  0.53184862984E+02  0.61870059470E+02  0.00000000000E+00 0. -1.
</event>
<event>
 4    1  0.1956390E-002  0.9118800E+02  0.7818608E-02  0.1130116E+00
         25   -1    0    0    0    0  0.00000000000E+00  0.00000000000E+00  0.99999998245E-14  0.12500000000E+03  0.12500000000E+03 0.  0.
        -11    1    1    0    0    0 -0.20709448147E+02  0.57770102454E+02 -0.25688217830E+01  0.61423650378E+02  0.51100000000E-03 0.  1.
         11    1    1    0    0    0 -0.50831366815E+00  0.95606537511E+00  0.49344164832E-01  0.10839183062E+01  0.51100000000E-03 0. -1.
         22    1    1    0    0    0  0.21217761815E+02 -0.58726167829E+02  0.25194776182E+01  0.62492431316E+02  0.00000000000E+00 0.  1.
</event>
<event>
 4    1  0.1956390E-002  0.9118800E+02  0.7818608E-02  0.1130116E+00
         25   -1    0    0    0    0  0.00000000000E+00  0.00000000000E+00  0.99999998245E-14  0.12500000000E+03  0.12500000000E+03 0.  0.
        -11    1    1    0    0    0  0.43353702351E+02  0.10919757294E+02 -0.11015129159E+02  0.46044735612E+02  0.51100000000E-03 0.  1.
         11    1    1    0    0    0  0.15493591549E+02  0.39024307605E+01 -0.39364172921E+01  0.16455264394E+02  0.51100000000E-03 0.  1.
         22    1    1    0    0    0 -0.58847293900E+02 -0.14822188054E+02  0.14951546451E+02  0.62499999994E+02  0.00000000000E+00 0.  1.
</event>
<event>
 4    1  0.1956390E-002  0.9118800E+02  0.7818608E-02  0.1130116E+00
         25   -1    0    0    0    0  0.00000000000E+00  0.00000000000E+00  0.99999998245E-14  0.12500000000E+03  0.12500000000E+03 0.  0.
        -11    1    1    0    0    0  0.30697817398E+01 -0.10834899352E+01 -0.19657463379E+01  0.38028501542E+01  0.51100000000E-03 0.  1.
         11    1    1    0    0    0  0.46693933752E+02 -0.16559414893E+02 -0.31478123778E+02  0.58697614498E+02  0.51100000000E-03 0. -1.
         22    1    1    0    0    0 -0.49763715492E+02  0.17642904828E+02  0.33443870116E+02  0.62499535348E+02  0.00000000000E+00 0. -1.
</event>
<event>
 4    1  0.1956390E-002  0.9118800E+02  0.7818608E-02  0.1130116E+00
         25   -1    0    0    0    0  0.00000000000E+00  0.00000000000E+00  0.99999998245E-14  0.12500000000E+03  0.12500000000E+03 0.  0.
        -11    1    1    0    0    0  0.79818871072E+00 -0.53168480594E+02 -0.26898993464E+02  0.59590941288E+02  0.51100000000E-03 0.  1.
         11    1    1    0    0    0  0.92218222762E-01 -0.25794343976E+01 -0.13425816402E+01  0.29093833941E+01  0.51100000000E-03 0. -1.
         22    1    1    0    0    0 -0.89040693348E+00  0.55747914992E+02  0.28241575105E+02  0.62499675318E+02  0.00000000000E+00 0.  1.
</event>
<event>
 4    1  0.1956390E-002  0.9118800E+02  0.7818608E-02  0.1130116E+00
         25   -1    0    0    0    0  0.00000000000E+00  0.00000000000E+00  0.99999998245E-14  0.12500000000E+03  0.12500000000E+03 0.  0.
        -11    1    1    0    0    0  0.14958102896E+01  0.21307869707E+02  0.15907997894E+02  0.26633196525E+02  0.51100000000E-03 0. -1.
         11    1    1    0    0    0  0.18620347628E+01  0.28690622945E+02  0.21443264900E+02  0.35866873690E+02  0.51100000000E-03 0.  1.
         22    1    1    0    0    0 -0.33578450525E+01 -0.49998492652E+02 -0.37351262794E+02  0.62499929785E+02  0.00000000000E+00 0.  1.
</event>
<event>
 4    1  0.1956390E-002  0.9118800E+02  0.7818608E-02  0.1130116E+00
         25   -1    0    0    0    0  0.00000000000E+00  0.00000000000E+00  0.99999998245E-14  0.12500000000E+03  0.12500000000E+03 0.  0.
        -11    1    1    0    0    0 -0.79174252307E+01 -0.47164494009E+02 -0.38087917151E+02  0.61138077747E+02  0.51100000000E-03 0.  1.
         11    1    1    0    0    0 -0.18484565565E+00 -0.10390796824E+01 -0.86090299029E+00  0.13619870494E+01  0.51100000000E-03 0. -1.
         22    1    1    0    0    0  0.81022708864E+01  0.48203573691E+02  0.38948820141E+02  0.62499935204E+02  0.00000000000E+00 0.  1.
</event>
<event>
 4    1  0.1956390E-002  0.9118800E+02  0.7818608E-02  0.1130116E+00
         25   -1    0    0    0    0  0.00000000000E+00  0.00000000000E+00  0.99999998245E-14  0.12500000000E+03  0.12500000000E+03 0.  0.
        -11    1    1    0    0    0  0.18320031299E+02 -0.43252548363E+02 -0.16340050497E+02  0.49733326223E+02  0.51100000000E-03 0.  1.
         11    1    1    0    0    0  0.49912847473E+01 -0.10999511833E+02 -0.41381659196E+01  0.12768187085E+02  0.51100000000E-03 0. -1.
         22    1    1    0    0    0 -0.23311316046E+02  0.54252060196E+02  0.20478216416E+02  0.62498486693E+02  0.00000000000E+00 0. -1.
</event>
<event>
 4    1  0.1956390E-002  0.9118800E+02  0.7818608E-02  0.1130116E+00
         25   -1    0    0    0    0  0.00000000000E+00  0.00000000000E+00  0.99999998245E-14  0.12500000000E+03  0.12500000000E+03 0.  0.
        -11    1    1    0    0    0 -0.58566023286E+01 -0.66480811901E+01 -0.69948373598E+01  0.11288247176E+02  0.51100000000E-03 0.  1.
         11    1    1    0    0    0 -0.31015439317E+02 -0.70530898644E+01 -0.40850165451E+02  0.51772961769E+02  0.51100000000E-03 0. -1.
         22    1    1    0    0    0  0.36872041646E+02  0.13701171055E+02  0.47845002811E+02  0.61938791055E+02  0.00000000000E+00 0. -1.
</event>
<event>
 4    1  0.1956390E-002  0.9118800E+02  0.7818608E-02  0.1130116E+00
         25   -1    0    0    0    0  0.00000000000E+00  0.00000000000E+00  0.99999998245E-14  0.12500000000E+03  0.12500000000E+03 0.  0.
        -11    1    1    0    0    0  0.18573795318E+02  0.69674223575E+01  0.98075864287E+01  0.22129609094E+02  0.51100000000E-03 0.  1.
         11    1    1    0    0    0  0.33923919260E+02  0.12614440637E+02  0.17883343748E+02  0.40370414840E+02  0.51100000000E-03 0. -1.
         22    1    1    0    0    0 -0.52497714577E+02 -0.19581862994E+02 -0.27690930177E+02  0.62499976066E+02  0.00000000000E+00 0. -1.
</event>
<event>
 4    1  0.1956390E-002  0.9118800E+02  0.7818608E-02  0.1130116E+00
         25   -1    0    0    0    0  0.00000000000E+00  0.00000000000E+00  0.99999998245E-14  0.12500000000E+03  0.12500000000E+03 0.  0.
        -11    1    1    0    0    0 -0.15014200971E+01  0.11455755243E+01  0.11690970790E+01  0.22211244520E+01  0.51100000000E-03 0. -1.
         11    1    1    0    0    0 -0.41284590721E+02  0.30114386968E+02  0.31972991919E+02  0.60279067229E+02  0.51100000000E-03 0.  1.
         22    1    1    0    0    0  0.42786010818E+02 -0.31259962492E+02 -0.33142088998E+02  0.62499808319E+02  0.00000000000E+00 0.  1.
</event>
<event>
 4    1  0.1956390E-002  0.9118800E+02  0.7818608E-02  0.1130116E+00
         25   -1    0    0    0    0  0.00000000000E+00  0.00000000000E+00  0.99999998245E-14  0.12500000000E+03  0.12500000000E+03 0.  0.
        -11    1    1    0    0    0 -0.53707494650E+02  0.16263929504E+02  0.15584104981E+02  0.58239803509E+02  0.51100000000E-03 0.  1.
         11    1    1    0    0    0 -0.41560095098E+01  0.48976818078E+00  0.95200318982E+00  0.42916894401E+01  0.51100000000E-03 0. -1.
         22    1    1    0    0    0  0.57863504159E+02 -0.16753697685E+02 -0.16536108171E+02  0.62468507051E+02  0.00000000000E+00 0.  1.
</event>
<event>
 4    1  0.1956390E-002  0.9118800E+02  0.7818608E-02  0.1130116E+00
         25   -1    0    0    0    0  0.00000000000E+00  0.00000000000E+00  0.99999998245E-14  0.12500000000E+03  0.12500000000E+03 0.  0.
        -11    1    1    0    0    0 -0.12978708652E+02 -0.20740207090E+02 -0.37744972230E+02  0.44980951494E+02  0.51100000000E-03 0.  1.
         11    1    1    0    0    0 -0.74808807274E+01 -0.60118932955E+01 -0.14780851776E+02  0.17623280539E+02  0.51100000000E-03 0. -1.
         22    1    1    0    0    0  0.20459589380E+02  0.26752100385E+02  0.52525824007E+02  0.62395767967E+02  0.00000000000E+00 0.  1.
</event>
<event>
 4    1  0.1956390E-002  0.9118800E+02  0.7818608E-02  0.1130116E+00
         25   -1    0    0    0    0  0.00000000000E+00  0.00000000000E+00  0.99999998245E-14  0.12500000000E+03  0.12500000000E+03 0.  0.
        -11    1    1    0    0    0 -0.27274853486E+01  0.29135793154E+01  0.73237696054E+01  0.83406068273E+01  0.51100000000E-03 0. -1.
         11    1    1    0    0    0 -0.19046636183E+02  0.25301807641E+02  0.43977009724E+02  0.54193479352E+02  0.51100000000E-03 0.  1.
         22    1    1    0    0    0  0.21774121532E+02 -0.28215386957E+02 -0.51300779329E+02  0.62465913820E+02  0.00000000000E+00 0.  1.
</event>
<event>
 4    1  0.1956390E-002  0.9118800E+02  0.7818608E-02  0.1130116E+00
         25   -1    0    0    0    0  0.00000000000E+00  0.00000000000E+00  0.99999998245E-14  0.12500000000E+03  0.12500000000E+03 0.  0.
        -11    1    1    0    0    0 -0.35514473234E+02  0.43383941728E+02  0.67392871024E+01  0.56470011509E+02  0.51100000000E-03 0. -1.
         11    1    1    0    0    0 -0.27773043431E+01  0.54626266073E+01 -0.41522476591E+00  0.61421592891E+01  0.51100000000E-03 0.  1.
         22    1    1    0    0    0  0.38291777577E+02 -0.48846568335E+02 -0.63240623364E+01  0.62387829202E+02  0.00000000000E+00 0. -1.
</event>
<event>
 4    1  0.1956390E-002  0.9118800E+02  0.7818608E-02  0.1130116E+00
         25   -1    0    0    0    0  0.00000000000E+00  0.00000000000E+00  0.99999998245E-14  0.12500000000E+03  0.12500000000E+03 0.  0.
        -11    1    1    0    0    0 -0.19904332116E+01  0.12548836842E+01 -0.15671082609E+01  0.28270808254E+01  0.51100000000E-03 0.  1.
         11    1    1    0    0    0 -0.26284551596E+02  0.32764924274E+02 -0.42484490444E+02  0.59744036053E+02  0.51100000000E-03 0. -1.
         22    1    1    0    0    0  0.28274984807E+02 -0.34019807958E+02  0.44051598705E+02  0.62428883122E+02  0.00000000000E+00 0. -1.
</event>
<event>
 4    1  0.1956390E-002  0.9118800E+02  0.7818608E-02  0.1130116E+00
         25   -1    0    0    0    0  0.00000000000E+00  0.00000000000E+00  0.99999998245E-14  0.12500000000E+03  0.12500000000E+03 0.  0.
        -11    1    1    0    0    0  0.93774498127E+01 -0.30864390898E+02  0.40544653496E+01  0.32511319260E+02  0.51100000000E-03 0. -1.
         11    1    1    0    0    0 -0.67456541157E+01 -0.29435525776E+02  0.73101465927E+01  0.31070762312E+02  0.51100000000E-03 0.  1.
         22    1    1    0    0    0 -0.26317956970E+01  0.60299916674E+02 -0.11364611942E+02  0.61417918428E+02  0.00000000000E+00 0.  1.
</event>
<event>
 4    1  0.1956390E-002  0.9118800E+02  0.7818608E-02  0.1130116E+00
         25   -1    0    0    0    0  0.00000000000E+00  0.00000000000E+00  0.99999998245E-14  0.12500000000E+03  0.12500000000E+03 0.  0.
        -11    1    1    0    0    0 -0.44223477274E+02  0.23110086419E+02  0.32246632912E+02  0.59410751308E+02  0.51100000000E-03 0. -1.
         11    1    1    0    0    0 -0.22995559724E+01  0.12029254944E+01  0.16758493598E+01  0.30892488979E+01  0.51100000000E-03 0.  1.
         22    1    1    0    0    0  0.46523033247E+02 -0.24313011914E+02 -0.33922482272E+02  0.62499999794E+02  0.00000000000E+00 0. -1.
</event>
<event>
 4    1  0.1956390E-002  0.9118800E+02  0.7818608E-02  0.1130116E+00
         25   -1    0    0    0    0  0.00000000000E+00  0.00000000000E+00  0.99999998245E-14  0.12500000000E+03  0.12500000000E+03 0.  0.
        -11    1    1    0    0    0 -0.33368744149E+02  0.23538015570E+02 -0.13281070446E+01  0.40856763598E+02  0.51100000000E-03 0. -1.
         11    1    1    0    0    0 -0.17664997798E+02  0.12487281006E+02 -0.66777261514E+00  0.21643249633E+02  0.51100000000E-03 0.  1.
         22    1    1    0    0    0  0.51033741948E+02 -0.36025296576E+02  0.19958796597E+01  0.62499986770E+02  0.00000000000E+00 0.  1.
</event>
<event>
 4    1  0.1956390E-002  0.9118800E+02  0.7818608E-02  0.1130116E+00
         25   -1    0    0    0    0  0.00000000000E+00  0.00000000000E+00  0.99999998245E-14  0.12500000000E+03  0.12500000000E+03 0.  0.
        -11    1    1    0    0    0 -0.27005843168E+02  0.35767479870E+02  0.21321031919E+02  0.49630782624E+02  0.51100000000E-03 0.  1.
         11    1    1    0    0    0 -0.69849417111E+01  0.92991388105E+01  0.55094348477E+01  0.12869237193E+02  0.51100000000E-03 0. -1.
         22    1    1    0    0    0  0.33990784879E+02 -0.45066618681E+02 -0.26830466767E+02  0.62499980183E+02  0.00000000000E+00 0.  1.
</event>
<event>
 4    1  0.1956390E-002  0.9118800E+02  0.7818608E-02  0.1130116E+00
         25   -1    0    0    0    0  0.00000000000E+00  0.00000000000E+00  0.99999998245E-14  0.12500000000E+03  0.12500000000E+03 0.  0.
        -11    1    1    0    0    0  0.44103805063E+01  0.62445598427E+01 -0.66451690598E+01  0.10129375891E+02  0.51100000000E-03 0.  1.
         11    1    1    0    0    0  0.22786359534E+02  0.32289049747E+02 -0.34363954691E+02  0.52370624368E+02  0.51100000000E-03 0. -1.
         22    1    1    0    0    0 -0.27196740041E+02 -0.38533609590E+02  0.41009123751E+02  0.62499999741E+02  0.00000000000E+00 0. -1.
</event>
<event>
 4    1  0.1956390E-002  0.9118800E+02  0.7818608E-02  0.1130116E+00
         25   -1    0    0    0    0  0.00000000000E+00  0.00000000000E+00  0.99999998245E-14  0.12500000000E+03  0.12500000000E+03 0.  0.
        -11    1    1    0    0    0 -0.15905264990E+02 -0.35498242640E+02 -0.12162456561E+02  0.40755711683E+02  0.51100000000E-03 0.  1.
         11    1    1    0    0    0 -0.15143202607E+02 -0.11378731925E+02 -0.12658901324E+02  0.22782447376E+02  0.51100000000E-03 0. -1.
         22    1    1    0    0    0  0.31048467597E+02  0.46876974566E+02  0.24821357885E+02  0.61461840941E+02  0.00000000000E+00 0. -1.
</event>
<event>
 4    1  0.1956390E-002  0.9118800E+02  0.7818608E-02  0.1130116E+00
         25   -1    0    0    0    0  0.00000000000E+00  0.00000000000E+00  0.99999998245E-14  0.12500000000E+03  0.12500000000E+03 0.  0.
        -11    1    1    0    0    0 -0.12232557811E+02 -0.33917835726E+01 -0.56307650093E+02  0.57720803231E+02  0.51100000000E-03 0.  1.
         11    1    1    0    0    0  0.32337970007E+00  0.43020026531E+01 -0.39499552518E+01  0.58492690150E+01  0.51100000000E-03 0. -1.
         22    1    1    0    0    0  0.11909178111E+02 -0.91021908050E+00  0.60257605344E+02  0.61429927754E+02  0.00000000000E+00 0.  1.
</event>
<event>
 4    1  0.1956390E-002  0.9118800E+02  0.7818608E-02  0.1130116E+00
         25   -1    0    0    0    0  0.00000000000E+00  0.00000000000E+00  0.99999998245E-14  0.12500000000E+03  0.12500000000E+03 0.  0.
        -11    1    1    0    0    0 -0.98699129800E+01  0.22604139431E+02 -0.22954538027E+02  0.33693814239E+02  0.51100000000E-03 0. -1.
         11    1    1    0    0    0 -0.55061724568E+01  0.20629666545E+02 -0.19408387873E+02  0.28854576708E+02  0.51100000000E-03 0.  1.
         22    1    1    0    0    0  0.15376085437E+02 -0.43233805976E+02  0.42362925900E+02  0.62451609054E+02  0.00000000000E+00 0.  1.
</event>
<event>
 4    1  0.1956390E-002  0.9118800E+02  0.7818608E-02  0.1130116E+00
         25   -1    0    0    0    0  0.00000000000E+00  0.00000000000E+00  0.99999998245E-14  0.12500000000E+03  0.12500000000E+03 0.  0.
        -11    1    1    0    0    0 -0.45354336303E+01 -0.68434645709E+01  0.97568826954E+01  0.12751467592E+02  0.51100000000E-03 0. -1.
         11    1    1    0    0    0 -0.13879410685E+02 -0.40901915187E+02  0.25450749057E+02  0.50133275724E+02  0.51100000000E-03 0.  1.
         22    1    1    0    0    0  0.18414844315E+02  0.47745379758E+02 -0.35207631753E+02  0.62115256685E+02  0.00000000000E+00 0.  1.
</event>
<event>
 4    1  0.1956390E-002  0.9118800E+02  0.7818608E-02  0.1130116E+00
         25   -1    0    0    0    0  0.00000000000E+00  0.00000000000E+00  0.99999998245E-14  0.12500000000E+03  0.12500000000E+03 0.  0.
        -11    1    1    0    0    0 -0.18518889584E+02 -0.18758704243E+02  0.66983358437E+00  0.26368294097E+02  0.51100000000E-03 0. -1.
         11    1    1    0    0    0 -0.25248472226E+02 -0.25814716698E+02 -0.17752532148E+01  0.36152959383E+02  0.51100000000E-03 0.  1.
         22    1    1    0    0    0  0.43767361809E+02  0.44573420941E+02  0.11054196304E+01  0.62478746520E+02  0.00000000000E+00 0.  1.
</event>
<event>
 4    1  0.1956390E-002  0.9118800E+02  0.7818608E-02  0.1130116E+00
         25   -1    0    0    0    0  0.00000000000E+00  0.00000000000E+00  0.99999998245E-14  0.12500000000E+03  0.12500000000E+03 0.  0.
        -11    1    1    0    0    0 -0.37936774487E+02 -0.23381646370E+02  0.20826207085E+01  0.44612078574E+02  0.51100000000E-03 0. -1.
         11    1    1    0    0    0 -0.15211136459E+02 -0.93751236034E+01  0.84031409575E+00  0.17887921707E+02  0.51100000000E-03 0.  1.
         22    1    1    0    0    0  0.53147910946E+02  0.32756769973E+02 -0.29229348042E+01  0.62499999719E+02  0.00000000000E+00 0. -1.
</event>
<event>
 4    1  0.1956390E-002  0.9118800E+02  0.7818608E-02  0.1130116E+00
         25   -1    0    0    0    0  0.00000000000E+00  0.00000000000E+00  0.99999998245E-14  0.12500000000E+03  0.12500000000E+03 0.  0.
        -11    1    1    0    0    0  0.60417051651E+01 -0.33790338290E+02  0.28273913538E+02  0.44471376751E+02  0.51100000000E-03 0.  1.
         11    1    1    0    0    0  0.24044079139E+01 -0.13716272385E+02  0.11450538314E+02  0.18028647578E+02  0.51100000000E-03 0. -1.
         22    1    1    0    0    0 -0.84461130790E+01  0.47506610675E+02 -0.39724451852E+02  0.62499975671E+02  0.00000000000E+00 0.  1.
</event>
<event>
 4    1  0.1956390E-002  0.9118800E+02  0.7818608E-02  0.1130116E+00
         25   -1    0    0    0    0  0.00000000000E+00  0.00000000000E+00  0.99999998245E-14  0.12500000000E+03  0.12500000000E+03 0.  0.
        -11    1    1    0    0    0 -0.46660608510E+01 -0.50452149982E+02 -0.42533687688E+01  0.50845675409E+02  0.51100000000E-03 0.  1.
         11    1    1    0    0    0 -0.11286603630E+01 -0.11545646423E+02 -0.11214983613E+01  0.11654766595E+02  0.51100000000E-03 0. -1.
         22    1    1    0    0    0  0.57947212140E+01  0.61997796405E+02  0.53748671302E+01  0.62499557996E+02  0.00000000000E+00 0.  1.
</event>
<event>
 4    1  0.1956390E-002  0.9118800E+02  0.7818608E-02  0.1130116E+00
         25   -1    0    0    0    0  0.00000000000E+00  0.00000000000E+00  0.99999998245E-14  0.12500000000E+03  0.12500000000E+03 0.  0.
        -11    1    1    0    0    0 -0.48135772090E+00 -0.43643559110E+01 -0.48060655052E+01  0.65098059629E+01  0.51100000000E-03 0. -1.
         11    1    1    0    0    0 -0.13764496122E+02 -0.27532914057E+02 -0.46893861566E+02  0.56094179402E+02  0.51100000000E-03 0.  1.
         22    1    1    0    0    0  0.14245853843E+02  0.31897269968E+02  0.51699927072E+02  0.62396014635E+02  0.00000000000E+00 0.  1.
</event>
<event>
 4    1  0.1956390E-002  0.9118800E+02  0.7818608E-02  0.1130116E+00
         25   -1    0    0    0    0  0.00000000000E+00  0.00000000000E+00  0.99999998245E-14  0.12500000000E+03  0.12500000000E+03 0.  0.
        -11    1    1    0    0    0 -0.16093578753E+02 -0.23524655007E+02  0.14467699190E+02  0.31964464493E+02  0.51100000000E-03 0.  1.
         11    1    1    0    0    0 -0.19665425557E+02  0.20854234649E+01  0.27503677255E+02  0.33875215367E+02  0.51100000000E-03 0. -1.
         22    1    1    0    0    0  0.35759004309E+02  0.21439231542E+02 -0.41971376445E+02  0.59160320139E+02  0.00000000000E+00 0. -1.
</event>
<event>
 4    1  0.1956390E-002  0.9118800E+02  0.7818608E-02  0.1130116E+00
         25   -1    0    0    0    0  0.00000000000E+00  0.00000000000E+00  0.99999998245E-14  0.12500000000E+03  0.12500000000E+03 0.  0.
        -11    1    1    0    0    0 -0.42831617733E+02 -0.36631072630E+01 -0.10961578745E+02  0.44363521515E+02  0.51100000000E-03 0.  1.
         11    1    1    0    0    0 -0.17430193645E+02 -0.13833511462E+01 -0.48223152437E+01  0.18137806799E+02  0.51100000000E-03 0. -1.
         22    1    1    0    0    0  0.60261811378E+02  0.50464584092E+01  0.15783893988E+02  0.62498671686E+02  0.00000000000E+00 0. -1.
</event>
<event>
 4    1  0.1956390E-002  0.9118800E+02  0.7818608E-02  0.1130116E+00
         25   -1    0    0    0    0  0.00000000000E+00  0.00000000000E+00  0.99999998245E-14  0.12500000000E+03  0.12500000000E+03 0.  0.
        -11    1    1    0    0    0  0.14417831583E+02  0.33711892089E+00 -0.24447829132E+02  0.28384570919E+02  0.51100000000E-03 0.  1.
         11    1    1    0    0    0  0.17255920838E+02  0.55699877250E+00 -0.29424348111E+02  0.34115528922E+02  0.51100000000E-03 0. -1.
         22    1    1    0    0    0 -0.31673752421E+02 -0.89411769339E+00  0.53872177244E+02  0.62499900159E+02  0.00000000000E+00 0. -1.
</event>
<event>
 4    1  0.1956390E-002  0.9118800E+02  0.7818608E-02  0.1130116E+00
         25   -1    0    0    0    0  0.00000000000E+00  0.00000000000E+00  0.99999998245E-14  0.12500000000E+03  0.12500000000E+03 0.  0.
        -11    1    1    0    0    0 -0.10558366653E+02  0.29861236094E+02  0.16470017487E+02  0.35699215730E+02  0.51100000000E-03 0. -1.
         11    1    1    0    0    0 -0.89844905020E+01  0.21643760565E+02  0.13027859444E+02  0.26812283807E+02  0.51100000000E-03 0.  1.
         22    1    1    0    0    0  0.19542857155E+02 -0.51504996660E+02 -0.29497876931E+02  0.62488500463E+02  0.00000000000E+00 0. -1.
</event>
<event>
 4    1  0.1956390E-002  0.9118800E+02  0.7818608E-02  0.1130116E+00
         25   -1    0    0    0    0  0.00000000000E+00  0.00000000000E+00  0.99999998245E-14  0.12500000000E+03  0.12500000000E+03 0.  0.
        -11    1    1    0    0    0  0.15886844867E+02 -0.14184591761E+02  0.79570919994E+01  0.22735650344E+02  0.51100000000E-03 0.  1.
         11    1    1    0    0    0  0.27785674125E+02 -0.24808460194E+02  0.13917619050E+02  0.39764349662E+02  0.51100000000E-03 0.  1.
         22    1    1    0    0    0 -0.43672518991E+02  0.38993051954E+02 -0.21874711049E+02  0.62499999994E+02  0.00000000000E+00 0.  1.
</event>
<event>
 4    1  0.1956390E-002  0.9118800E+02  0.7818608E-02  0.1130116E+00
         25   -1    0    0    0    0  0.00000000000E+00  0.00000000000E+00  0.99999998245E-14  0.12500000000E+03  0.12500000000E+03 0.  0.
        -11    1    1    0    0    0  0.26026225106E+02 -0.49716762176E+02  0.69191220632E+01  0.56541976309E+02  0.51100000000E-03 0.  1.
         11    1    1    0    0    0  0.27257195452E+01 -0.52467975460E+01  0.73470033693E+00  0.59580379635E+01  0.51100000000E-03 0. -1.
         22    1    1    0    0    0 -0.28751944651E+02  0.54963559722E+02 -0.76538224002E+01  0.62499985727E+02  0.00000000000E+00 0.  1.
</event>
<event>
 4    1  0.1956390E-002  0.9118800E+02  0.7818608E-02  0.1130116E+00
         25   -1    0    0    0    0  0.00000000000E+00  0.00000000000E+00  0.99999998245E-14  0.12500000000E+03  0.12500000000E+03 0.  0.
        -11    1    1    0    0    0 -0.18894779161E+01 -0.46827818313E+00 -0.43684779075E+00  0.19950557651E+01  0.51100000000E-03 0. -1.
         11    1    1    0    0    0 -0.57376910773E+02 -0.14200761316E+02 -0.12925885537E+02  0.60504958714E+02  0.51100000000E-03 0.  1.
         22    1    1    0    0    0  0.59266388689E+02  0.14669039499E+02  0.13362733328E+02  0.62499985521E+02  0.00000000000E+00 0.  1.
</event>
<event>
 4    1  0.1956390E-002  0.9118800E+02  0.7818608E-02  0.1130116E+00
         25   -1    0    0    0    0  0.00000000000E+00  0.00000000000E+00  0.99999998245E-14  0.12500000000E+03  0.12500000000E+03 0.  0.
        -11    1    1    0    0    0 -0.92609696130E+00  0.12272718152E+02 -0.18809601659E+01  0.12450513155E+02  0.51100000000E-03 0.  1.
         11    1    1    0    0    0  0.47246884362E+02  0.21492200279E+02 -0.12630694675E+02  0.53420194711E+02  0.51100000000E-03 0. -1.
         22    1    1    0    0    0 -0.46320787401E+02 -0.33764918431E+02  0.14511654841E+02  0.59129292134E+02  0.00000000000E+00 0. -1.
</event>
<event>
 4    1  0.1956390E-002  0.9118800E+02  0.7818608E-02  0.1130116E+00
         25   -1    0    0    0    0  0.00000000000E+00  0.00000000000E+00  0.99999998245E-14  0.12500000000E+03  0.12500000000E+03 0.  0.
        -11    1    1    0    0    0 -0.12277855751E+02 -0.68815101082E+01 -0.17862495767E+02  0.22741364922E+02  0.51100000000E-03 0.  1.
         11    1    1    0    0    0 -0.21672135449E+02 -0.11983572241E+02 -0.31104221952E+02  0.39758773649E+02  0.51100000000E-03 0. -1.
         22    1    1    0    0    0  0.33949991200E+02  0.18865082349E+02  0.48966717719E+02  0.62499861429E+02  0.00000000000E+00 0.  1.
</event>
<event>
 4    1  0.1956390E-002  0.9118800E+02  0.7818608E-02  0.1130116E+00
         25   -1    0    0    0    0  0.00000000000E+00  0.00000000000E+00  0.99999998245E-14  0.12500000000E+03  0.12500000000E+03 0.  0.
        -11    1    1    0    0    0 -0.36856258848E+02  0.89545375660E+01  0.40067183012E+02  0.55171973991E+02  0.51100000000E-03 0. -1.
         11    1    1    0    0    0 -0.48867625476E+01  0.13723729046E+01  0.52869143225E+01  0.73290735362E+01  0.51100000000E-03 0.  1.
         22    1    1    0    0    0  0.41743021396E+02 -0.10326910471E+02 -0.45354097334E+02  0.62498952472E+02  0.00000000000E+00 0. -1.
</event>
<event>
 4    1  0.1956390E-002  0.9118800E+02  0.7818608E-02  0.1130116E+00
         25   -1    0    0    0    0  0.00000000000E+00  0.00000000000E+00  0.99999998245E-14  0.12500000000E+03  0.12500000000E+03 0.  0.
        -11    1    1    0    0    0  0.35752605323E+01  0.26596436339E+02  0.30424468470E+02  0.40568475393E+02  0.51100000000E-03 0. -1.
         11    1    1    0    0    0  0.19333521878E+01  0.14380504385E+02  0.16445516646E+02  0.21931524687E+02  0.51100000000E-03 0.  1.
         22    1    1    0    0    0 -0.55086127200E+01 -0.40976940725E+02 -0.46869985116E+02  0.62499999920E+02  0.00000000000E+00 0. -1.
</event>
<event>
 4    1  0.1956390E-002  0.9118800E+02  0.7818608E-02  0.1130116E+00
         25   -1    0    0    0    0  0.00000000000E+00  0.00000000000E+00  0.99999998245E-14  0.12500000000E+03  0.12500000000E+03 0.  0.
        -11    1    1    0    0    0  0.62459739487E+01 -0.23562629073E+00 -0.21719606180E+02  0.22601084115E+02  0.51100000000E-03 0.  1.
         11    1    1    0    0    0  0.10912048489E+02 -0.54926890809E+00 -0.38373880968E+02  0.39898987949E+02  0.51100000000E-03 0. -1.
         22    1    1    0    0    0 -0.17158022437E+02  0.78489519882E+00  0.60093487148E+02  0.62499927936E+02  0.00000000000E+00 0.  1.
</event>
<event>
 4    1  0.1956390E-002  0.9118800E+02  0.7818608E-02  0.1130116E+00
         25   -1    0    0    0    0  0.00000000000E+00  0.00000000000E+00  0.99999998245E-14  0.12500000000E+03  0.12500000000E+03 0.  0.
        -11    1    1    0    0    0  0.59768999052E+01  0.22847892233E+02 -0.10380850845E+02  0.25797511052E+02  0.51100000000E-03 0. -1.
         11    1    1    0    0    0  0.82174237919E+01  0.32748648235E+02 -0.14392047564E+02  0.36703283890E+02  0.51100000000E-03 0.  1.
         22    1    1    0    0    0 -0.14194323697E+02 -0.55596540468E+02  0.24772898409E+02  0.62499205057E+02  0.00000000000E+00 0.  1.
</event>
<event>
 4    1  0.1956390E-002  0.9118800E+02  0.7818608E-02  0.1130116E+00
         25   -1    0    0    0    0  0.00000000000E+00  0.00000000000E+00  0.99999998245E-14  0.12500000000E+03  0.12500000000E+03 0.  0.
        -11    1    1    0    0    0 -0.45416495159E+02  0.41069023203E+02  0.12488283641E+02  0.62492238942E+02  0.51100000000E-03 0. -1.
         11    1    1    0    0    0  0.59959508528E-01 -0.78653153570E-01 -0.78916172468E-01  0.12652859213E+00  0.51100000000E-03 0.  1.
         22    1    1    0    0    0  0.45356535651E+02 -0.40990370049E+02 -0.12409367469E+02  0.62381232466E+02  0.00000000000E+00 0. -1.
</event>
<event>
 4    1  0.1956390E-002  0.9118800E+02  0.7818608E-02  0.1130116E+00
         25   -1    0    0    0    0  0.00000000000E+00  0.00000000000E+00  0.99999998245E-14  0.12500000000E+03  0.12500000000E+03 0.  0.
        -11    1    1    0    0    0  0.53226790328E+01 -0.58216046618E+01  0.13218693873E+02  0.15393370680E+02  0.51100000000E-03 0.  1.
         11    1    1    0    0    0  0.60144851824E+01 -0.14245267671E+02  0.44684845191E+02  0.47284638869E+02  0.51100000000E-03 0. -1.
         22    1    1    0    0    0 -0.11337164215E+02  0.20066872332E+02 -0.57903539064E+02  0.62321990451E+02  0.00000000000E+00 0. -1.
</event>
<event>
 4    1  0.1956390E-002  0.9118800E+02  0.7818608E-02  0.1130116E+00
         25   -1    0    0    0    0  0.00000000000E+00  0.00000000000E+00  0.99999998245E-14  0.12500000000E+03  0.12500000000E+03 0.  0.
        -11    1    1    0    0    0 -0.24193981628E+02  0.83758488724E+00  0.10413121308E+02  0.26353052785E+02  0.51100000000E-03 0. -1.
         11    1    1    0    0    0 -0.29451504483E+02  0.24379861534E+02  0.11605377676E+01  0.38250694280E+02  0.51100000000E-03 0.  1.
         22    1    1    0    0    0  0.53645486111E+02 -0.25217446421E+02 -0.11573659076E+02  0.60396252935E+02  0.00000000000E+00 0. -1.
</event>
<event>
 4    1  0.1956390E-002  0.9118800E+02  0.7818608E-02  0.1130116E+00
         25   -1    0    0    0    0  0.00000000000E+00  0.00000000000E+00  0.99999998245E-14  0.12500000000E+03  0.12500000000E+03 0.  0.
        -11    1    1    0    0    0 -0.35331621125E+01 -0.61634046900E+01  0.40667816323E+01  0.81859333611E+01  0.51100000000E-03 0.  1.
         11    1    1    0    0    0 -0.23513853584E+02 -0.40866377357E+02  0.26963978465E+02  0.54314070401E+02  0.51100000000E-03 0. -1.
         22    1    1    0    0    0  0.27047015696E+02  0.47029782047E+02 -0.31030760097E+02  0.62499996237E+02  0.00000000000E+00 0. -1.
</event>
<event>
 4    1  0.1956390E-002  0.9118800E+02  0.7818608E-02  0.1130116E+00
         25   -1    0    0    0    0  0.00000000000E+00  0.00000000000E+00  0.99999998245E-14  0.12500000000E+03  0.12500000000E+03 0.  0.
        -11    1    1    0    0    0  0.23071398760E+02  0.24729903094E+02 -0.43590473096E+02  0.55172338112E+02  0.51100000000E-03 0.  1.
         11    1    1    0    0    0  0.30587654167E+01  0.33538388680E+01 -0.57526585864E+01  0.73278483950E+01  0.51100000000E-03 0. -1.
         22    1    1    0    0    0 -0.26130164177E+02 -0.28083741961E+02  0.49343131682E+02  0.62499813493E+02  0.00000000000E+00 0.  1.
</event>
<event>
 4    1  0.1956390E-002  0.9118800E+02  0.7818608E-02  0.1130116E+00
         25   -1    0    0    0    0  0.00000000000E+00  0.00000000000E+00  0.99999998245E-14  0.12500000000E+03  0.12500000000E+03 0.  0.
        -11    1    1    0    0    0  0.75699599045E+01 -0.50797327371E+02  0.33468595427E+02  0.61301057422E+02  0.51100000000E-03 0.  1.
         11    1    1    0    0    0  0.14680571073E+00 -0.98765384281E+00  0.66370891054E+00  0.11989669758E+01  0.51100000000E-03 0. -1.
         22    1    1    0    0    0 -0.77167656153E+01  0.51784981213E+02 -0.34132304338E+02  0.62499975602E+02  0.00000000000E+00 0.  1.
</event>
<event>
 4    1  0.1956390E-002  0.9118800E+02  0.7818608E-02  0.1130116E+00
         25   -1    0    0    0    0  0.00000000000E+00  0.00000000000E+00  0.99999998245E-14  0.12500000000E+03  0.12500000000E+03 0.  0.
        -11    1    1    0    0    0 -0.20510781014E+02 -0.66136645067E+01 -0.64856843542E+01  0.22505483728E+02  0.51100000000E-03 0. -1.
         11    1    1    0    0    0 -0.58049804145E+01 -0.37387112386E+02 -0.22077270774E+02  0.43805249175E+02  0.51100000000E-03 0.  1.
         22    1    1    0    0    0  0.26315761429E+02  0.44000776893E+02  0.28562955128E+02  0.58689267097E+02  0.00000000000E+00 0. -1.
</event>
<event>
 4    1  0.1956390E-002  0.9118800E+02  0.7818608E-02  0.1130116E+00
         25   -1    0    0    0    0  0.00000000000E+00  0.00000000000E+00  0.99999998245E-14  0.12500000000E+03  0.12500000000E+03 0.  0.
        -11    1    1    0    0    0  0.20770834521E+01  0.53678355279E+02  0.18469268286E+02  0.56804876308E+02  0.51100000000E-03 0. -1.
         11    1    1    0    0    0  0.20827271168E+00  0.53817287673E+01  0.18514998561E+01  0.56951237059E+01  0.51100000000E-03 0. -1.
         22    1    1    0    0    0 -0.22853561638E+01 -0.59060084046E+02 -0.20320768142E+02  0.62499999986E+02  0.00000000000E+00 0. -1.
</event>
<event>
 4    1  0.1956390E-002  0.9118800E+02  0.7818608E-02  0.1130116E+00
         25   -1    0    0    0    0  0.00000000000E+00  0.00000000000E+00  0.99999998245E-14  0.12500000000E+03  0.12500000000E+03 0.  0.
        -11    1    1    0    0    0  0.77714821757E+01 -0.38723949257E+02  0.59745049503E+01  0.39945398870E+02  0.51100000000E-03 0. -1.
         11    1    1    0    0    0  0.45247086710E+01 -0.21830950050E+02  0.34137250858E+01  0.22554753110E+02  0.51100000000E-03 0.  1.
         22    1    1    0    0    0 -0.12296190847E+02  0.60554899306E+02 -0.93882300361E+01  0.62499848020E+02  0.00000000000E+00 0.  1.
</event>
<event>
 4    1  0.1956390E-002  0.9118800E+02  0.7818608E-02  0.1130116E+00
         25   -1    0    0    0    0  0.00000000000E+00  0.00000000000E+00  0.99999998245E-14  0.12500000000E+03  0.12500000000E+03 0.  0.
        -11    1    1    0    0    0  0.21627211985E+02  0.28561163580E+01 -0.42607057987E+02  0.47867056411E+02  0.51100000000E-03 0. -1.
         11    1    1    0    0    0  0.66111638293E+01  0.87517851114E+00 -0.13024961230E+02  0.14632943651E+02  0.51100000000E-03 0.  1.
         22    1    1    0    0    0 -0.28238375814E+02 -0.37312948691E+01  0.55632019217E+02  0.62499999937E+02  0.00000000000E+00 0. -1.
</event>
<event>
 4    1  0.1956390E-002  0.9118800E+02  0.7818608E-02  0.1130116E+00
         25   -1    0    0    0    0  0.00000000000E+00  0.00000000000E+00  0.99999998245E-14  0.12500000000E+03  0.12500000000E+03 0.  0.
        -11    1    1    0    0    0 -0.13345680354E+02 -0.13251823992E+02  0.20900466469E+02  0.28116676940E+02  0.51100000000E-03 0.  1.
         11    1    1    0    0    0 -0.15950311577E+02 -0.16710447284E+02  0.25468635435E+02  0.34384631437E+02  0.51100000000E-03 0. -1.
         22    1    1    0    0    0  0.29295991930E+02  0.29962271277E+02 -0.46369101905E+02  0.62498691624E+02  0.00000000000E+00 0. -1.
</event>
<event>
 4    1  0.1956390E-002  0.9118800E+02  0.7818608E-02  0.1130116E+00
         25   -1    0    0    0    0  0.00000000000E+00  0.00000000000E+00  0.99999998245E-14  0.12500000000E+03  0.12500000000E+03 0.  0.
        -11    1    1    0    0    0 -0.12613818533E+01  0.49676995107E+01  0.45001036731E+01  0.68205612627E+01  0.51100000000E-03 0.  1.
         11    1    1    0    0    0 -0.10305763297E+02  0.40556226303E+02  0.36731235423E+02  0.55679438800E+02  0.51100000000E-03 0.  1.
         22    1    1    0    0    0  0.11567145151E+02 -0.45523925814E+02 -0.41231339097E+02  0.62499999937E+02  0.00000000000E+00 0.  1.
</event>
<event>
 4    1  0.1956390E-002  0.9118800E+02  0.7818608E-02  0.1130116E+00
         25   -1    0    0    0    0  0.00000000000E+00  0.00000000000E+00  0.99999998245E-14  0.12500000000E+03  0.12500000000E+03 0.  0.
        -11    1    1    0    0    0 -0.16885196219E+02 -0.15699022384E+02  0.49644540014E+02  0.54737094449E+02  0.51100000000E-03 0.  1.
         11    1    1    0    0    0 -0.45127415487E+01  0.34531523177E+00  0.66894485463E+01  0.80766825498E+01  0.51100000000E-03 0. -1.
         22    1    1    0    0    0  0.21397937768E+02  0.15353707152E+02 -0.56333988561E+02  0.62186223002E+02  0.00000000000E+00 0.  1.
</event>
<event>
 4    1  0.1956390E-002  0.9118800E+02  0.7818608E-02  0.1130116E+00
         25   -1    0    0    0    0  0.00000000000E+00  0.00000000000E+00  0.99999998245E-14  0.12500000000E+03  0.12500000000E+03 0.  0.
        -11    1    1    0    0    0  0.13474751855E+02 -0.50754134740E+01 -0.25113585432E+02  0.28948591209E+02  0.51100000000E-03 0. -1.
         11    1    1    0    0    0  0.17325166494E+02 -0.52659840930E+01 -0.28261882647E+02  0.33565249791E+02  0.51100000000E-03 0.  1.
         22    1    1    0    0    0 -0.30799918349E+02  0.10341397567E+02  0.53375468079E+02  0.62486159000E+02  0.00000000000E+00 0. -1.
</event>
<event>
 4    1  0.1956390E-002  0.9118800E+02  0.7818608E-02  0.1130116E+00
         25   -1    0    0    0    0  0.00000000000E+00  0.00000000000E+00  0.99999998245E-14  0.12500000000E+03  0.12500000000E+03 0.  0.
        -11    1    1    0    0    0 -0.78859679309E+01 -0.42923185324E+01 -0.10250324208E+02  0.13626504879E+02  0.51100000000E-03 0.  1.
         11    1    1    0    0    0 -0.28281883666E+02 -0.15422767300E+02 -0.36754481709E+02  0.48873496098E+02  0.51100000000E-03 0. -1.
         22    1    1    0    0    0  0.36167851597E+02  0.19715085833E+02  0.47004805917E+02  0.62499999023E+02  0.00000000000E+00 0. -1.
</event>
<event>
 4    1  0.1956390E-002  0.9118800E+02  0.7818608E-02  0.1130116E+00
         25   -1    0    0    0    0  0.00000000000E+00  0.00000000000E+00  0.99999998245E-14  0.12500000000E+03  0.12500000000E+03 0.  0.
        -11    1    1    0    0    0 -0.22942259073E+02  0.30596617079E+02 -0.15364017117E+02  0.41213508104E+02  0.51100000000E-03 0.  1.
         11    1    1    0    0    0 -0.11849620958E+02  0.15802803564E+02 -0.79355289576E+01  0.21286491901E+02  0.51100000000E-03 0.  1.
         22    1    1    0    0    0  0.34791880031E+02 -0.46399420643E+02  0.23299546075E+02  0.62499999995E+02  0.00000000000E+00 0.  1.
</event>
<event>
 4    1  0.1956390E-002  0.9118800E+02  0.7818608E-02  0.1130116E+00
         25   -1    0    0    0    0  0.00000000000E+00  0.00000000000E+00  0.99999998245E-14  0.12500000000E+03  0.12500000000E+03 0.  0.
        -11    1    1    0    0    0  0.57835366809E+01  0.64450729080E+01 -0.14497596480E+01  0.87800947961E+01  0.51100000000E-03 0.  1.
         11    1    1    0    0    0  0.36338291243E+02  0.37258961803E+02 -0.13377200037E+02  0.53736869337E+02  0.51100000000E-03 0. -1.
         22    1    1    0    0    0 -0.42121827924E+02 -0.43704034711E+02  0.14826959685E+02  0.62483035867E+02  0.00000000000E+00 0. -1.
</event>
<event>
 4    1  0.1956390E-002  0.9118800E+02  0.7818608E-02  0.1130116E+00
         25   -1    0    0    0    0  0.00000000000E+00  0.00000000000E+00  0.99999998245E-14  0.12500000000E+03  0.12500000000E+03 0.  0.
        -11    1    1    0    0    0  0.54944581525E+01 -0.26506327382E+02 -0.40872223630E+02  0.49023597648E+02  0.51100000000E-03 0. -1.
         11    1    1    0    0    0  0.15065078848E+01 -0.74514428824E+01 -0.11128120367E+02  0.13476966654E+02  0.51100000000E-03 0.  1.
         22    1    1    0    0    0 -0.70009660373E+01  0.33957770264E+02  0.52000343997E+02  0.62499435698E+02  0.00000000000E+00 0. -1.
</event>
<event>
 4    1  0.1956390E-002  0.9118800E+02  0.7818608E-02  0.1130116E+00
         25   -1    0    0    0    0  0.00000000000E+00  0.00000000000E+00  0.99999998245E-14  0.12500000000E+03  0.12500000000E+03 0.  0.
        -11    1    1    0    0    0 -0.33471302002E+02 -0.20802692543E+02 -0.33304312174E+02  0.51597066626E+02  0.51100000000E-03 0.  1.
         11    1    1    0    0    0 -0.70737836776E+01 -0.43940147509E+01 -0.70376257812E+01  0.10902933461E+02  0.51100000000E-03 0. -1.
         22    1    1    0    0    0  0.40545085680E+02  0.25196707294E+02  0.40341937955E+02  0.62499999914E+02  0.00000000000E+00 0.  1.
</event>
<event>
 4    1  0.1956390E-002  0.9118800E+02  0.7818608E-02  0.1130116E+00
         25   -1    0    0    0    0  0.00000000000E+00  0.00000000000E+00  0.99999998245E-14  0.12500000000E+03  0.12500000000E+03 0.  0.
        -11    1    1    0    0    0 -0.94849479040E+00  0.10175837165E+02  0.91772245756E+00  0.10261068129E+02  0.51100000000E-03 0.  1.
         11    1    1    0    0    0 -0.48234251332E+01  0.51805392622E+02  0.46735287876E+01  0.52238931903E+02  0.51100000000E-03 0. -1.
         22    1    1    0    0    0  0.57719199236E+01 -0.61981229787E+02 -0.55912512452E+01  0.62499999968E+02  0.00000000000E+00 0. -1.
</event>
<event>
 4    1  0.1956390E-002  0.9118800E+02  0.7818608E-02  0.1130116E+00
         25   -1    0    0    0    0  0.00000000000E+00  0.00000000000E+00  0.99999998245E-14  0.12500000000E+03  0.12500000000E+03 0.  0.
        -11    1    1    0    0    0  0.13818253154E+01 -0.79732999727E+00  0.32149576893E+02  0.32189135916E+02  0.51100000000E-03 0.  1.
         11    1    1    0    0    0  0.14980205558E+01 -0.85739664012E+00  0.30261893932E+02  0.30311077500E+02  0.51100000000E-03 0. -1.
         22    1    1    0    0    0 -0.28798458712E+01  0.16547266374E+01 -0.62411470825E+02  0.62499786584E+02  0.00000000000E+00 0. -1.
</event>
<event>
 4    1  0.1956390E-002  0.9118800E+02  0.7818608E-02  0.1130116E+00
         25   -1    0    0    0    0  0.00000000000E+00  0.00000000000E+00  0.99999998245E-14  0.12500000000E+03  0.12500000000E+03 0.  0.
        -11    1    1    0    0    0  0.11059274813E+02  0.12403957760E+02 -0.36804234892E+00  0.16622309796E+02  0.51100000000E-03 0. -1.
         11    1    1    0    0    0  0.27726534737E+02  0.72263171748E+01 -0.39900064153E+02  0.49122250642E+02  0.51100000000E-03 0.  1.
         22    1    1    0    0    0 -0.38785809550E+02 -0.19630274935E+02  0.40268106502E+02  0.59255439562E+02  0.00000000000E+00 0. -1.
</event>
<event>
 4    1  0.1956390E-002  0.9118800E+02  0.7818608E-02  0.1130116E+00
         25   -1    0    0    0    0  0.00000000000E+00  0.00000000000E+00  0.99999998245E-14  0.12500000000E+03  0.12500000000E+03 0.  0.
        -11    1    1    0    0    0 -0.38618557468E+01 -0.86395894674E+01  0.83020171792E+00  0.94997721619E+01  0.51100000000E-03 0. -1.
         11    1    1    0    0    0 -0.21745308114E+02 -0.48121834484E+02  0.45231819774E+01  0.53000269382E+02  0.51100000000E-03 0.  1.
         22    1    1    0    0    0  0.25607163861E+02  0.56761423952E+02 -0.53533836953E+01  0.62499958456E+02  0.00000000000E+00 0.  1.
</event>
<event>
 4    1  0.1956390E-002  0.9118800E+02  0.7818608E-02  0.1130116E+00
         25   -1    0    0    0    0  0.00000000000E+00  0.00000000000E+00  0.99999998245E-14  0.12500000000E+03  0.12500000000E+03 0.  0.
        -11    1    1    0    0    0  0.33422586175E+02  0.12633577263E+02 -0.10317934431E+02  0.37190540629E+02  0.51100000000E-03 0.  1.
         11    1    1    0    0    0  0.23185652043E+02  0.89587541697E+01 -0.49145783680E+01  0.25337458786E+02  0.51100000000E-03 0. -1.
         22    1    1    0    0    0 -0.56608238218E+02 -0.21592331433E+02  0.15232512799E+02  0.62472000585E+02  0.00000000000E+00 0.  1.
</event>
<event>
 4    1  0.1956390E-002  0.9118800E+02  0.7818608E-02  0.1130116E+00
         25   -1    0    0    0    0  0.00000000000E+00  0.00000000000E+00  0.99999998245E-14  0.12500000000E+03  0.12500000000E+03 0.  0.
        -11    1    1    0    0    0  0.19948325776E+02  0.33629901792E+02  0.92675383421E+01  0.40184490329E+02  0.51100000000E-03 0.  1.
         11    1    1    0    0    0  0.11079118052E+02  0.18675875297E+02  0.51426454534E+01  0.22315509796E+02  0.51100000000E-03 0. -1.
         22    1    1    0    0    0 -0.31027443828E+02 -0.52305777089E+02 -0.14410183795E+02  0.62499999875E+02  0.00000000000E+00 0.  1.
</event>
<event>
 4    1  0.1956390E-002  0.9118800E+02  0.7818608E-02  0.1130116E+00
         25   -1    0    0    0    0  0.00000000000E+00  0.00000000000E+00  0.99999998245E-14  0.12500000000E+03  0.12500000000E+03 0.  0.
        -11    1    1    0    0    0  0.38256415282E+01 -0.92735929894E+01 -0.32924313999E+01  0.10558179996E+02  0.51100000000E-03 0.  1.
         11    1    1    0    0    0  0.18246694497E+02 -0.45932797451E+02 -0.15975889104E+02  0.51942206101E+02  0.51100000000E-03 0. -1.
         22    1    1    0    0    0 -0.22072336026E+02  0.55206390440E+02  0.19268320504E+02  0.62499613903E+02  0.00000000000E+00 0. -1.
</event>
<event>
 4    1  0.1956390E-002  0.9118800E+02  0.7818608E-02  0.1130116E+00
         25   -1    0    0    0    0  0.00000000000E+00  0.00000000000E+00  0.99999998245E-14  0.12500000000E+03  0.12500000000E+03 0.  0.
        -11    1    1    0    0    0 -0.71963253048E+01 -0.33386225666E+01 -0.12011729114E+02  0.14394969090E+02  0.51100000000E-03 0. -1.
         11    1    1    0    0    0 -0.19957686911E+02 -0.84267026805E+01 -0.42994187427E+02  0.48143729993E+02  0.51100000000E-03 0.  1.
         22    1    1    0    0    0  0.27154012215E+02  0.11765325247E+02  0.55005916542E+02  0.62461300916E+02  0.00000000000E+00 0.  1.
</event>
<event>
 4    1  0.1956390E-002  0.9118800E+02  0.7818608E-02  0.1130116E+00
         25   -1    0    0    0    0  0.00000000000E+00  0.00000000000E+00  0.99999998245E-14  0.12500000000E+03  0.12500000000E+03 0.  0.
        -11    1    1    0    0    0  0.12961180995E+01  0.38029691219E+02  0.48071121922E+02  0.61308809313E+02  0.51100000000E-03 0. -1.
         11    1    1    0    0    0 -0.15425730604E+00  0.31552252406E+00  0.11979720475E+01  0.12483937950E+01  0.51100000000E-03 0.  1.
         22    1    1    0    0    0 -0.11418607935E+01 -0.38345213743E+02 -0.49269093970E+02  0.62442796892E+02  0.00000000000E+00 0. -1.
</event>
<event>
 4    1  0.1956390E-002  0.9118800E+02  0.7818608E-02  0.1130116E+00
         25   -1    0    0    0    0  0.00000000000E+00  0.00000000000E+00  0.99999998245E-14  0.12500000000E+03  0.12500000000E+03 0.  0.
        -11    1    1    0    0    0  0.13816226903E+02 -0.25482483709E+02 -0.31009523015E+02  0.42448034344E+02  0.51100000000E-03 0.  1.
         11    1    1    0    0    0  0.10342166966E+02 -0.72456442133E+01 -0.16001814824E+02  0.20384255089E+02  0.51100000000E-03 0. -1.
         22    1    1    0    0    0 -0.24158393869E+02  0.32728127922E+02  0.47011337839E+02  0.62167710566E+02  0.00000000000E+00 0.  1.
</event>
<event>
 4    1  0.1956390E-002  0.9118800E+02  0.7818608E-02  0.1130116E+00
         25   -1    0    0    0    0  0.00000000000E+00  0.00000000000E+00  0.99999998245E-14  0.12500000000E+03  0.12500000000E+03 0.  0.
        -11    1    1    0    0    0 -0.30237864904E+02  0.52527742526E+01 -0.16009123077E+02  0.34615200899E+02  0.51100000000E-03 0. -1.
         11    1    1    0    0    0 -0.24355489134E+02  0.42363826614E+01 -0.12900590921E+02  0.27884799361E+02  0.51100000000E-03 0.  1.
         22    1    1    0    0    0  0.54593354038E+02 -0.94891569140E+01  0.28909713998E+02  0.62499999740E+02  0.00000000000E+00 0. -1.
</event>
<event>
 4    1  0.1956390E-002  0.9118800E+02  0.7818608E-02  0.1130116E+00
         25   -1    0    0    0    0  0.00000000000E+00  0.00000000000E+00  0.99999998245E-14  0.12500000000E+03  0.12500000000E+03 0.  0.
        -11    1    1    0    0    0 -0.84123390128E+00  0.16362950364E+01 -0.14832497571E+01  0.23632955858E+01  0.51100000000E-03 0.  1.
         11    1    1    0    0    0  0.56952605461E+02  0.19455346366E+02 -0.11573599410E+02  0.61286686765E+02  0.51100000000E-03 0. -1.
         22    1    1    0    0    0 -0.56111371560E+02 -0.21091641403E+02  0.13056849167E+02  0.61350017649E+02  0.00000000000E+00 0. -1.
</event>
<event>
 4    1  0.1956390E-002  0.9118800E+02  0.7818608E-02  0.1130116E+00
         25   -1    0    0    0    0  0.00000000000E+00  0.00000000000E+00  0.99999998245E-14  0.12500000000E+03  0.12500000000E+03 0.  0.
        -11    1    1    0    0    0  0.42194881887E+01  0.68948544609E+01 -0.28182154784E+01  0.85606914064E+01  0.51100000000E-03 0. -1.
         11    1    1    0    0    0  0.26811147378E+02  0.43287326299E+02 -0.17799551206E+02  0.53939357293E+02  0.51100000000E-03 0.  1.
         22    1    1    0    0    0 -0.31030635566E+02 -0.50182180760E+02  0.20617766684E+02  0.62499951300E+02  0.00000000000E+00 0.  1.
</event>
<event>
 4    1  0.1956390E-002  0.9118800E+02  0.7818608E-02  0.1130116E+00
         25   -1    0    0    0    0  0.00000000000E+00  0.00000000000E+00  0.99999998245E-14  0.12500000000E+03  0.12500000000E+03 0.  0.
        -11    1    1    0    0    0  0.97681316827E+00  0.96608699778E+01  0.53912651724E+02  0.54780111253E+02  0.51100000000E-03 0.  1.
         11    1    1    0    0    0  0.44127450177E+00  0.17651863484E+01  0.75100797313E+01  0.77273477897E+01  0.51100000000E-03 0. -1.
         22    1    1    0    0    0 -0.14180876700E+01 -0.11426056326E+02 -0.61422731456E+02  0.62492540957E+02  0.00000000000E+00 0.  1.
</event>
<event>
 4    1  0.1956390E-002  0.9118800E+02  0.7818608E-02  0.1130116E+00
         25   -1    0    0    0    0  0.00000000000E+00  0.00000000000E+00  0.99999998245E-14  0.12500000000E+03  0.12500000000E+03 0.  0.
        -11    1    1    0    0    0  0.10946207624E+02  0.59607816704E+00  0.11218729014E+02  0.15685491751E+02  0.51100000000E-03 0. -1.
         11    1    1    0    0    0  0.32654443920E+02  0.18172824719E+01  0.33496017575E+02  0.46814510752E+02  0.51100000000E-03 0.  1.
         22    1    1    0    0    0 -0.43600651544E+02 -0.24133606389E+01 -0.44714746589E+02  0.62499997497E+02  0.00000000000E+00 0. -1.
</event>
<event>
 4    1  0.1956390E-002  0.9118800E+02  0.7818608E-02  0.1130116E+00
         25   -1    0    0    0    0  0.00000000000E+00  0.00000000000E+00  0.99999998245E-14  0.12500000000E+03  0.12500000000E+03 0.  0.
        -11    1    1    0    0    0 -0.20861283919E+02 -0.73962687436E+01  0.88537735806E+01  0.23838776499E+02  0.51100000000E-03 0.  1.
         11    1    1    0    0    0 -0.33997853974E+02 -0.11911950627E+02  0.14034534588E+02  0.38661567531E+02  0.51100000000E-03 0. -1.
         22    1    1    0    0    0  0.54859137893E+02  0.19308219371E+02 -0.22888308168E+02  0.62499655971E+02  0.00000000000E+00 0.  1.
</event>
<event>
 4    1  0.1956390E-002  0.9118800E+02  0.7818608E-02  0.1130116E+00
         25   -1    0    0    0    0  0.00000000000E+00  0.00000000000E+00  0.99999998245E-14  0.12500000000E+03  0.12500000000E+03 0.  0.
        -11    1    1    0    0    0  0.14118213759E+01 -0.55203267363E+01  0.11618057921E+02  0.12940112711E+02  0.51100000000E-03 0. -1.
         11    1    1    0    0    0  0.57542387920E+01 -0.20400360009E+02  0.44799279646E+02  0.49560684112E+02  0.51100000000E-03 0.  1.
         22    1    1    0    0    0 -0.71660601679E+01  0.25920686746E+02 -0.56417337566E+02  0.62499203177E+02  0.00000000000E+00 0.  1.
</event>
<event>
 4    1  0.1956390E-002  0.9118800E+02  0.7818608E-02  0.1130116E+00
         25   -1    0    0    0    0  0.00000000000E+00  0.00000000000E+00  0.99999998245E-14  0.12500000000E+03  0.12500000000E+03 0.  0.
        -11    1    1    0    0    0  0.14469811966E+02 -0.74686375174E+01  0.12640932076E+02  0.20614295251E+02  0.51100000000E-03 0. -1.
         11    1    1    0    0    0  0.23483904746E+02 -0.16875341840E+02  0.30465938283E+02  0.42005289430E+02  0.51100000000E-03 0.  1.
         22    1    1    0    0    0 -0.37953716712E+02  0.24343979357E+02 -0.43106870359E+02  0.62380415319E+02  0.00000000000E+00 0.  1.
</event>
<event>
 4    1  0.1956390E-002  0.9118800E+02  0.7818608E-02  0.1130116E+00
         25   -1    0    0    0    0  0.00000000000E+00  0.00000000000E+00  0.99999998245E-14  0.12500000000E+03  0.12500000000E+03 0.  0.
        -11    1    1    0    0    0 -0.41781856601E+02  0.41155103100E+00 -0.35655631257E+02  0.54929199483E+02  0.51100000000E-03 0. -1.
         11    1    1    0    0    0 -0.53726841940E+01  0.20479689954E+00 -0.53447085635E+01  0.75811336296E+01  0.51100000000E-03 0.  1.
         22    1    1    0    0    0  0.47154540795E+02 -0.61634793054E+00  0.41000339820E+02  0.62489666888E+02  0.00000000000E+00 0. -1.
</event>
<event>
 4    1  0.1956390E-002  0.9118800E+02  0.7818608E-02  0.1130116E+00
         25   -1    0    0    0    0  0.00000000000E+00  0.00000000000E+00  0.99999998245E-14  0.12500000000E+03  0.12500000000E+03 0.  0.
        -11    1    1    0    0    0  0.82626197143E-01  0.52178811154E+01 -0.72706042785E+01  0.89495696689E+01  0.51100000000E-03 0.  1.
         11    1    1    0    0    0  0.47971306685E+00  0.31251042274E+02 -0.43483225852E+02  0.53550431358E+02  0.51100000000E-03 0. -1.
         22    1    1    0    0    0 -0.56233926399E+00 -0.36468923390E+02  0.50753830131E+02  0.62499998973E+02  0.00000000000E+00 0. -1.
</event>
<event>
 4    1  0.1956390E-002  0.9118800E+02  0.7818608E-02  0.1130116E+00
         25   -1    0    0    0    0  0.00000000000E+00  0.00000000000E+00  0.99999998245E-14  0.12500000000E+03  0.12500000000E+03 0.  0.
        -11    1    1    0    0    0  0.16842723185E+01  0.15734308641E+01 -0.23925654761E+00  0.23172617210E+01  0.51100000000E-03 0.  1.
         11    1    1    0    0    0  0.43766780665E+02  0.40843857595E+02 -0.61814427707E+01  0.60182738621E+02  0.51100000000E-03 0. -1.
         22    1    1    0    0    0 -0.45451052983E+02 -0.42417288459E+02  0.64206993183E+01  0.62499999658E+02  0.00000000000E+00 0. -1.
</event>
<event>
 4    1  0.1956390E-002  0.9118800E+02  0.7818608E-02  0.1130116E+00
         25   -1    0    0    0    0  0.00000000000E+00  0.00000000000E+00  0.99999998245E-14  0.12500000000E+03  0.12500000000E+03 0.  0.
        -11    1    1    0    0    0 -0.34941120590E+00  0.13360275502E+00  0.28145251649E+00  0.46813851275E+00  0.51100000000E-03 0.  1.
         11    1    1    0    0    0 -0.46522356171E+02  0.17665226288E+02  0.37034611616E+02  0.62031865209E+02  0.51100000000E-03 0. -1.
         22    1    1    0    0    0  0.46871767377E+02 -0.17798829043E+02 -0.37316064133E+02  0.62499996278E+02  0.00000000000E+00 0. -1.
</event>
<event>
 4    1  0.1956390E-002  0.9118800E+02  0.7818608E-02  0.1130116E+00
         25   -1    0    0    0    0  0.00000000000E+00  0.00000000000E+00  0.99999998245E-14  0.12500000000E+03  0.12500000000E+03 0.  0.
        -11    1    1    0    0    0 -0.12670365959E+02 -0.20971537651E+02 -0.13216250712E+02  0.27839052572E+02  0.51100000000E-03 0.  1.
         11    1    1    0    0    0 -0.28018310620E+02 -0.18584439958E+02 -0.11123948349E+02  0.35413971334E+02  0.51100000000E-03 0. -1.
         22    1    1    0    0    0  0.40688676579E+02  0.39555977608E+02  0.24340199061E+02  0.61746976093E+02  0.00000000000E+00 0. -1.
</event>
<event>
 4    1  0.1956390E-002  0.9118800E+02  0.7818608E-02  0.1130116E+00
         25   -1    0    0    0    0  0.00000000000E+00  0.00000000000E+00  0.99999998245E-14  0.12500000000E+03  0.12500000000E+03 0.  0.
        -11    1    1    0    0    0 -0.98306993349E+01  0.25430250599E+01  0.76503845596E+01  0.12713693800E+02  0.51100000000E-03 0. -1.
         11    1    1    0    0    0 -0.38829457520E+02  0.16874531785E+02  0.26314074493E+02  0.49848842624E+02  0.51100000000E-03 0.  1.
         22    1    1    0    0    0  0.48660156855E+02 -0.19417556845E+02 -0.33964459053E+02  0.62437463576E+02  0.00000000000E+00 0.  1.
</event>
<event>
 4    1  0.1956390E-002  0.9118800E+02  0.7818608E-02  0.1130116E+00
         25   -1    0    0    0    0  0.00000000000E+00  0.00000000000E+00  0.99999998245E-14  0.12500000000E+03  0.12500000000E+03 0.  0.
        -11    1    1    0    0    0 -0.18151031058E+02 -0.11509508388E+02 -0.34971155351E+01  0.21775181495E+02  0.51100000000E-03 0. -1.
         11    1    1    0    0    0 -0.35427309791E+02  0.13067580869E+02  0.25199670810E+02  0.45396909124E+02  0.51100000000E-03 0.  1.
         22    1    1    0    0    0  0.53578340849E+02 -0.15580724808E+01 -0.21702555275E+02  0.57827909381E+02  0.00000000000E+00 0.  1.
</event>
<event>
 4    1  0.1956390E-002  0.9118800E+02  0.7818608E-02  0.1130116E+00
         25   -1    0    0    0    0  0.00000000000E+00  0.00000000000E+00  0.99999998245E-14  0.12500000000E+03  0.12500000000E+03 0.  0.
        -11    1    1    0    0    0  0.49869943127E+02  0.22980662114E+02 -0.26871236525E+02  0.61132523352E+02  0.51100000000E-03 0.  1.
         11    1    1    0    0    0  0.12722069732E+01  0.26090233183E+00 -0.48342332808E+00  0.13857413123E+01  0.51100000000E-03 0. -1.
         22    1    1    0    0    0 -0.51142150101E+02 -0.23241564446E+02  0.27354659854E+02  0.62481735335E+02  0.00000000000E+00 0.  1.
</event>
<event>
 4    1  0.1956390E-002  0.9118800E+02  0.7818608E-02  0.1130116E+00
         25   -1    0    0    0    0  0.00000000000E+00  0.00000000000E+00  0.99999998245E-14  0.12500000000E+03  0.12500000000E+03 0.  0.
        -11    1    1    0    0    0  0.44662794944E+00 -0.10831125972E+01  0.10547716994E+01  0.15764368121E+01  0.51100000000E-03 0. -1.
         11    1    1    0    0    0  0.17923580645E+02 -0.41777894933E+02  0.40559086023E+02  0.60923613709E+02  0.51100000000E-03 0.  1.
         22    1    1    0    0    0 -0.18370208595E+02  0.42861007530E+02 -0.41613857722E+02  0.62499949478E+02  0.00000000000E+00 0.  1.
</event>
<event>
 4    1  0.1956390E-002  0.9118800E+02  0.7818608E-02  0.1130116E+00
         25   -1    0    0    0    0  0.00000000000E+00  0.00000000000E+00  0.99999998245E-14  0.12500000000E+03  0.12500000000E+03 0.  0.
        -11    1    1    0    0    0 -0.26107598955E+01  0.63856963242E+01 -0.16878039579E+02  0.18233524209E+02  0.51100000000E-03 0. -1.
         11    1    1    0    0    0 -0.63364449965E+01  0.15501996716E+02 -0.40976315628E+02  0.44266475804E+02  0.51100000000E-03 0. -1.
         22    1    1    0    0    0  0.89472048920E+01 -0.21887693040E+02  0.57854355207E+02  0.62499999987E+02  0.00000000000E+00 0. -1.
</event>
<event>
 4    1  0.1956390E-002  0.9118800E+02  0.7818608E-02  0.1130116E+00
         25   -1    0    0    0    0  0.00000000000E+00  0.00000000000E+00  0.99999998245E-14  0.12500000000E+03  0.12500000000E+03 0.  0.
        -11    1    1    0    0    0  0.53948602859E+02 -0.77761613499E+01  0.64707488931E+01  0.54888897122E+02  0.51100000000E-03 0. -1.
         11    1    1    0    0    0  0.72638335477E+01 -0.66267546061E+00  0.24164933966E+01  0.76838699346E+01  0.51100000000E-03 0.  1.
         22    1    1    0    0    0 -0.61212436406E+02  0.84388368105E+01 -0.88872422897E+01  0.62427232944E+02  0.00000000000E+00 0. -1.
</event>
<event>
 4    1  0.1956390E-002  0.9118800E+02  0.7818608E-02  0.1130116E+00
         25   -1    0    0    0    0  0.00000000000E+00  0.00000000000E+00  0.99999998245E-14  0.12500000000E+03  0.12500000000E+03 0.  0.
        -11    1    1    0    0    0  0.10918729474E+02 -0.14507194701E+01 -0.10714582861E+01  0.11066673549E+02  0.51100000000E-03 0.  1.
         11    1    1    0    0    0  0.50745823825E+02 -0.67364002981E+01 -0.49869182220E+01  0.51433326534E+02  0.51100000000E-03 0. -1.
         22    1    1    0    0    0 -0.61664553300E+02  0.81871197682E+01  0.60583765081E+01  0.62499999918E+02  0.00000000000E+00 0. -1.
</event>
<event>
 4    1  0.1956390E-002  0.9118800E+02  0.7818608E-02  0.1130116E+00
         25   -1    0    0    0    0  0.00000000000E+00  0.00000000000E+00  0.99999998245E-14  0.12500000000E+03  0.12500000000E+03 0.  0.
        -11    1    1    0    0    0  0.16251463260E+02  0.26929661524E+02  0.41766295754E+02  0.52285181353E+02  0.51100000000E-03 0. -1.
         11    1    1    0    0    0  0.31785752536E+01  0.52600147940E+01  0.81591316737E+01  0.10214818951E+02  0.51100000000E-03 0.  1.
         22    1    1    0    0    0 -0.19430038513E+02 -0.32189676318E+02 -0.49925427428E+02  0.62499999695E+02  0.00000000000E+00 0. -1.
</event>
<event>
 4    1  0.1956390E-002  0.9118800E+02  0.7818608E-02  0.1130116E+00
         25   -1    0    0    0    0  0.00000000000E+00  0.00000000000E+00  0.99999998245E-14  0.12500000000E+03  0.12500000000E+03 0.  0.
        -11    1    1    0    0    0  0.18631648082E+02  0.21881380960E+02 -0.73011881712E+01  0.29651989679E+02  0.51100000000E-03 0. -1.
         11    1    1    0    0    0 -0.53885627391E+02 -0.78625047732E+01  0.15321320671E+02  0.56570510763E+02  0.51100000000E-03 0.  1.
         22    1    1    0    0    0  0.35253979309E+02 -0.14018876187E+02 -0.80201324993E+01  0.38777499558E+02  0.00000000000E+00 0.  1.
</event>
<event>
 4    1  0.1956390E-002  0.9118800E+02  0.7818608E-02  0.1130116E+00
         25   -1    0    0    0    0  0.00000000000E+00  0.00000000000E+00  0.99999998245E-14  0.12500000000E+03  0.12500000000E+03 0.  0.
        -11    1    1    0    0    0 -0.10370894135E+02 -0.45715259368E+02 -0.23750715036E+02  0.52550326824E+02  0.51100000000E-03 0. -1.
         11    1    1    0    0    0 -0.19641665589E+01 -0.86555125578E+01 -0.44966819382E+01  0.99496731918E+01  0.51100000000E-03 0.  1.
         22    1    1    0    0    0  0.12335060694E+02  0.54370771926E+02  0.28247396975E+02  0.62499999984E+02  0.00000000000E+00 0. -1.
</event>
<event>
 4    1  0.1956390E-002  0.9118800E+02  0.7818608E-02  0.1130116E+00
         25   -1    0    0    0    0  0.00000000000E+00  0.00000000000E+00  0.99999998245E-14  0.12500000000E+03  0.12500000000E+03 0.  0.
        -11    1    1    0    0    0  0.54763418801E+01 -0.20790607204E+01  0.77829131338E+01  0.97409727941E+01  0.51100000000E-03 0.  1.
         11    1    1    0    0    0  0.51742031976E+02  0.16998498175E+01  0.14644080437E+02  0.53801268149E+02  0.51100000000E-03 0. -1.
         22    1    1    0    0    0 -0.57218373856E+02  0.37921090291E+00 -0.22426993571E+02  0.61457759056E+02  0.00000000000E+00 0. -1.
</event>
<event>
 4    1  0.1956390E-002  0.9118800E+02  0.7818608E-02  0.1130116E+00
         25   -1    0    0    0    0  0.00000000000E+00  0.00000000000E+00  0.99999998245E-14  0.12500000000E+03  0.12500000000E+03 0.  0.
        -11    1    1    0    0    0  0.28773612656E+00  0.52557336863E+00 -0.26273427730E+01  0.26948005033E+01  0.51100000000E-03 0.  1.
         11    1    1    0    0    0  0.14609914756E+02  0.12667619238E+02 -0.56606414674E+02  0.59818093992E+02  0.51100000000E-03 0. -1.
         22    1    1    0    0    0 -0.14897650882E+02 -0.13193192606E+02  0.59233757448E+02  0.62487105504E+02  0.00000000000E+00 0. -1.
</event>
<event>
 4    1  0.1956390E-002  0.9118800E+02  0.7818608E-02  0.1130116E+00
         25   -1    0    0    0    0  0.00000000000E+00  0.00000000000E+00  0.99999998245E-14  0.12500000000E+03  0.12500000000E+03 0.  0.
        -11    1    1    0    0    0 -0.21093187802E+02  0.43535685006E+02 -0.24518903993E+02  0.54235183174E+02  0.51100000000E-03 0. -1.
         11    1    1    0    0    0 -0.32209135981E+01  0.66315494004E+01 -0.37357044079E+01  0.82648181795E+01  0.51100000000E-03 0.  1.
         22    1    1    0    0    0  0.24314101400E+02 -0.50167234407E+02  0.28254608401E+02  0.62499998647E+02  0.00000000000E+00 0. -1.
</event>
<event>
 4    1  0.1956390E-002  0.9118800E+02  0.7818608E-02  0.1130116E+00
         25   -1    0    0    0    0  0.00000000000E+00  0.00000000000E+00  0.99999998245E-14  0.12500000000E+03  0.12500000000E+03 0.  0.
        -11    1    1    0    0    0  0.27541655993E+01  0.10811855848E+01 -0.41079047285E+01  0.50625361171E+01  0.51100000000E-03 0. -1.
         11    1    1    0    0    0  0.31375283760E+02  0.12240824962E+02 -0.46527593660E+02  0.57437472078E+02  0.51100000000E-03 0.  1.
         22    1    1    0    0    0 -0.34129449359E+02 -0.13322010546E+02  0.50635498388E+02  0.62499991804E+02  0.00000000000E+00 0.  1.
</event>
<event>
 4    1  0.1956390E-002  0.9118800E+02  0.7818608E-02  0.1130116E+00
         25   -1    0    0    0    0  0.00000000000E+00  0.00000000000E+00  0.99999998245E-14  0.12500000000E+03  0.12500000000E+03 0.  0.
        -11    1    1    0    0    0  0.51387576138E+01  0.34152070044E+02 -0.55342082956E+01  0.34977109369E+02  0.51100000000E-03 0.  1.
         11    1    1    0    0    0  0.33574543797E+01  0.26952060721E+02 -0.44677131896E+01  0.27525379896E+02  0.51100000000E-03 0. -1.
         22    1    1    0    0    0 -0.84962119935E+01 -0.61104130764E+02  0.10001921485E+02  0.62497510735E+02  0.00000000000E+00 0. -1.
</event>
<event>
 4    1  0.1956390E-002  0.9118800E+02  0.7818608E-02  0.1130116E+00
         25   -1    0    0    0    0  0.00000000000E+00  0.00000000000E+00  0.99999998245E-14  0.12500000000E+03  0.12500000000E+03 0.  0.
        -11    1    1    0    0    0 -0.96818537539E+01 -0.23642207008E+02 -0.94066764771E+01  0.27224580932E+02  0.51100000000E-03 0. -1.
         11    1    1    0    0    0 -0.87346061413E+01 -0.28576613487E+02 -0.19132665379E+02  0.35482038662E+02  0.51100000000E-03 0.  1.
         22    1    1    0    0    0  0.18416459895E+02  0.52218820494E+02  0.28539341856E+02  0.62293380407E+02  0.00000000000E+00 0. -1.
</event>
<event>
 4    1  0.1956390E-002  0.9118800E+02  0.7818608E-02  0.1130116E+00
         25   -1    0    0    0    0  0.00000000000E+00  0.00000000000E+00  0.99999998245E-14  0.12500000000E+03  0.12500000000E+03 0.  0.
        -11    1    1    0    0    0 -0.28751847072E+02  0.20420313794E+02 -0.41747369818E+00  0.35268005473E+02  0.51100000000E-03 0.  1.
         11    1    1    0    0    0 -0.13350941140E+02  0.24276360839E+02 -0.47555927597E+01  0.28110584976E+02  0.51100000000E-03 0. -1.
         22    1    1    0    0    0  0.42102788212E+02 -0.44696674633E+02  0.51730664579E+01  0.61621409551E+02  0.00000000000E+00 0.  1.
</event>
<event>
 4    1  0.1956390E-002  0.9118800E+02  0.7818608E-02  0.1130116E+00
         25   -1    0    0    0    0  0.00000000000E+00  0.00000000000E+00  0.99999998245E-14  0.12500000000E+03  0.12500000000E+03 0.  0.
        -11    1    1    0    0    0 -0.11653893015E+00  0.37183642293E+00 -0.19029724553E-01  0.39013592400E+00  0.51100000000E-03 0.  1.
         11    1    1    0    0    0 -0.17804108387E+02  0.59466206197E+02  0.21222858517E+01  0.62110547030E+02  0.51100000000E-03 0. -1.
         22    1    1    0    0    0  0.17920647318E+02 -0.59838042620E+02 -0.21032561271E+01  0.62499317046E+02  0.00000000000E+00 0. -1.
</event>
<event>
 4    1  0.1956390E-002  0.9118800E+02  0.7818608E-02  0.1130116E+00
         25   -1    0    0    0    0  0.00000000000E+00  0.00000000000E+00  0.99999998245E-14  0.12500000000E+03  0.12500000000E+03 0.  0.
        -11    1    1    0    0    0 -0.31800705167E+02 -0.21360184120E+02  0.14712757879E+01  0.38336757394E+02  0.51100000000E-03 0. -1.
         11    1    1    0    0    0 -0.20042697150E+02 -0.13464318639E+02  0.92989811362E+00  0.24163242668E+02  0.51100000000E-03 0.  1.
         22    1    1    0    0    0  0.51843402317E+02  0.34824502759E+02 -0.24011739015E+01  0.62499999939E+02  0.00000000000E+00 0. -1.
</event>
<event>
 4    1  0.1956390E-002  0.9118800E+02  0.7818608E-02  0.1130116E+00
         25   -1    0    0    0    0  0.00000000000E+00  0.00000000000E+00  0.99999998245E-14  0.12500000000E+03  0.12500000000E+03 0.  0.
        -11    1    1    0    0    0  0.20634070902E+00 -0.48015091567E+01 -0.14083847141E+02  0.14881257246E+02  0.51100000000E-03 0.  1.
         11    1    1    0    0    0 -0.37774260356E+00 -0.14955778025E+02 -0.45209260525E+02  0.47620323637E+02  0.51100000000E-03 0. -1.
         22    1    1    0    0    0  0.17140189454E+00  0.19757287182E+02  0.59293107666E+02  0.62498419117E+02  0.00000000000E+00 0. -1.
</event>
<event>
 4    1  0.1956390E-002  0.9118800E+02  0.7818608E-02  0.1130116E+00
         25   -1    0    0    0    0  0.00000000000E+00  0.00000000000E+00  0.99999998245E-14  0.12500000000E+03  0.12500000000E+03 0.  0.
        -11    1    1    0    0    0  0.19622964226E+01 -0.28767711460E+02  0.46759666620E+02  0.54935400723E+02  0.51100000000E-03 0. -1.
         11    1    1    0    0    0  0.51807260443E+01  0.12225134235E+02  0.58096133476E+01  0.14492944384E+02  0.51100000000E-03 0.  1.
         22    1    1    0    0    0 -0.71430224669E+01  0.16542577226E+02 -0.52569279968E+02  0.55571654893E+02  0.00000000000E+00 0. -1.
</event>
<event>
 4    1  0.1956390E-002  0.9118800E+02  0.7818608E-02  0.1130116E+00
         25   -1    0    0    0    0  0.00000000000E+00  0.00000000000E+00  0.99999998245E-14  0.12500000000E+03  0.12500000000E+03 0.  0.
        -11    1    1    0    0    0 -0.14969127118E+02 -0.22510695205E+02 -0.43082305679E+02  0.50861490621E+02  0.51100000000E-03 0. -1.
         11    1    1    0    0    0 -0.33485007391E+01 -0.50478468124E+01 -0.99383612567E+01  0.11638910575E+02  0.51100000000E-03 0.  1.
         22    1    1    0    0    0  0.18317627857E+02  0.27558542018E+02  0.53020666935E+02  0.62499598804E+02  0.00000000000E+00 0. -1.
</event>
<event>
 4    1  0.1956390E-002  0.9118800E+02  0.7818608E-02  0.1130116E+00
         25   -1    0    0    0    0  0.00000000000E+00  0.00000000000E+00  0.99999998245E-14  0.12500000000E+03  0.12500000000E+03 0.  0.
        -11    1    1    0    0    0  0.21414664635E+02 -0.16214850906E+02  0.31301625161E+02  0.41246830051E+02  0.51100000000E-03 0. -1.
         11    1    1    0    0    0  0.11033663799E+02 -0.83555765327E+01  0.16128851076E+02  0.21253169959E+02  0.51100000000E-03 0.  1.
         22    1    1    0    0    0 -0.32448328434E+02  0.24570427438E+02 -0.47430476237E+02  0.62499999990E+02  0.00000000000E+00 0.  1.
</event>
<event>
 4    1  0.1956390E-002  0.9118800E+02  0.7818608E-02  0.1130116E+00
         25   -1    0    0    0    0  0.00000000000E+00  0.00000000000E+00  0.99999998245E-14  0.12500000000E+03  0.12500000000E+03 0.  0.
        -11    1    1    0    0    0 -0.37554254950E+01  0.13427272968E+02 -0.13435925830E+02  0.19362824773E+02  0.51100000000E-03 0.  1.
         11    1    1    0    0    0 -0.83303824222E+01  0.30054852213E+02 -0.29801550922E+02  0.43137244354E+02  0.51100000000E-03 0. -1.
         22    1    1    0    0    0  0.12085807917E+02 -0.43482125181E+02  0.43237476752E+02  0.62499930873E+02  0.00000000000E+00 0. -1.
</event>
<event>
 4    1  0.1956390E-002  0.9118800E+02  0.7818608E-02  0.1130116E+00
         25   -1    0    0    0    0  0.00000000000E+00  0.00000000000E+00  0.99999998245E-14  0.12500000000E+03  0.12500000000E+03 0.  0.
        -11    1    1    0    0    0 -0.17597644348E+02 -0.10761648018E+02  0.46149867750E+02  0.50549979706E+02  0.51100000000E-03 0.  1.
         11    1    1    0    0    0 -0.63308479707E+01 -0.27841249796E+01  0.98664582066E+01  0.12048982768E+02  0.51100000000E-03 0. -1.
         22    1    1    0    0    0  0.23928492319E+02  0.13545772997E+02 -0.56016325956E+02  0.62401037527E+02  0.00000000000E+00 0.  1.
</event>
<event>
 4    1  0.1956390E-002  0.9118800E+02  0.7818608E-02  0.1130116E+00
         25   -1    0    0    0    0  0.00000000000E+00  0.00000000000E+00  0.99999998245E-14  0.12500000000E+03  0.12500000000E+03 0.  0.
        -11    1    1    0    0    0 -0.11468702474E+02  0.56742030388E+02  0.57123387353E+01  0.58170610819E+02  0.51100000000E-03 0. -1.
         11    1    1    0    0    0 -0.86952771867E+00  0.42052670843E+01  0.55838011159E+00  0.43303739231E+01  0.51100000000E-03 0.  1.
         22    1    1    0    0    0  0.12338230192E+02 -0.60947297472E+02 -0.62707188469E+01  0.62499015258E+02  0.00000000000E+00 0. -1.
</event>
<event>
 4    1  0.1956390E-002  0.9118800E+02  0.7818608E-02  0.1130116E+00
         25   -1    0    0    0    0  0.00000000000E+00  0.00000000000E+00  0.99999998245E-14  0.12500000000E+03  0.12500000000E+03 0.  0.
        -11    1    1    0    0    0 -0.25900601214E+01  0.13354951281E+02 -0.12423395715E+02  0.18422917697E+02  0.51100000000E-03 0.  1.
         11    1    1    0    0    0 -0.11247750469E+02  0.32385867853E+02 -0.27780906788E+02  0.44126353911E+02  0.51100000000E-03 0. -1.
         22    1    1    0    0    0  0.13837810591E+02 -0.45740819134E+02  0.40204302502E+02  0.62450728392E+02  0.00000000000E+00 0. -1.
</event>
<event>
 4    1  0.1956390E-002  0.9118800E+02  0.7818608E-02  0.1130116E+00
         25   -1    0    0    0    0  0.00000000000E+00  0.00000000000E+00  0.99999998245E-14  0.12500000000E+03  0.12500000000E+03 0.  0.
        -11    1    1    0    0    0  0.43093542852E+01 -0.26644710894E+02  0.19274058552E+02  0.33166255235E+02  0.51100000000E-03 0.  1.
         11    1    1    0    0    0  0.38150553783E+01 -0.23565286034E+02  0.17046736702E+02  0.29333744831E+02  0.51100000000E-03 0. -1.
         22    1    1    0    0    0 -0.81244096635E+01  0.50209996928E+02 -0.36320795253E+02  0.62499999934E+02  0.00000000000E+00 0.  1.
</event>
<event>
 4    1  0.1956390E-002  0.9118800E+02  0.7818608E-02  0.1130116E+00
         25   -1    0    0    0    0  0.00000000000E+00  0.00000000000E+00  0.99999998245E-14  0.12500000000E+03  0.12500000000E+03 0.  0.
        -11    1    1    0    0    0  0.10980887361E+02 -0.26078341504E+02 -0.34934206989E+02  0.44956185348E+02  0.51100000000E-03 0. -1.
         11    1    1    0    0    0  0.42831374694E+01 -0.10177520267E+02 -0.13632983855E+02  0.17543814705E+02  0.51100000000E-03 0.  1.
         22    1    1    0    0    0 -0.15264024831E+02  0.36255861771E+02  0.48567190844E+02  0.62499999946E+02  0.00000000000E+00 0.  1.
</event>
<event>
 4    1  0.1956390E-002  0.9118800E+02  0.7818608E-02  0.1130116E+00
         25   -1    0    0    0    0  0.00000000000E+00  0.00000000000E+00  0.99999998245E-14  0.12500000000E+03  0.12500000000E+03 0.  0.
        -11    1    1    0    0    0 -0.31050293688E+02  0.12097295561E+02  0.82358161967E+01  0.34326286818E+02  0.51100000000E-03 0. -1.
         11    1    1    0    0    0 -0.25490444344E+02  0.10013389609E+02  0.66132623230E+01  0.28173852472E+02  0.51100000000E-03 0.  1.
         22    1    1    0    0    0  0.56540738032E+02 -0.22110685170E+02 -0.14849078520E+02  0.62499860710E+02  0.00000000000E+00 0.  1.
</event>
<event>
 4    1  0.1956390E-002  0.9118800E+02  0.7818608E-02  0.1130116E+00
         25   -1    0    0    0    0  0.00000000000E+00  0.00000000000E+00  0.99999998245E-14  0.12500000000E+03  0.12500000000E+03 0.  0.
        -11    1    1    0    0    0  0.86748004532E+01 -0.30155046437E+00 -0.84408063932E+01  0.12107448468E+02  0.51100000000E-03 0. -1.
         11    1    1    0    0    0  0.36061363394E+02 -0.12518762700E+01 -0.35176988438E+02  0.50392555401E+02  0.51100000000E-03 0.  1.
         22    1    1    0    0    0 -0.44736163847E+02  0.15534267344E+01  0.43617794831E+02  0.62499996131E+02  0.00000000000E+00 0.  1.
</event>
<event>
 4    1  0.1956390E-002  0.9118800E+02  0.7818608E-02  0.1130116E+00
         25   -1    0    0    0    0  0.00000000000E+00  0.00000000000E+00  0.99999998245E-14  0.12500000000E+03  0.12500000000E+03 0.  0.
        -11    1    1    0    0    0 -0.96677432015E+01 -0.20614577526E+02 -0.67282488137E+01  0.23742270269E+02  0.51100000000E-03 0. -1.
         11    1    1    0    0    0 -0.15781807092E+02 -0.33652378522E+02 -0.10982422270E+02  0.38757729738E+02  0.51100000000E-03 0.  1.
         22    1    1    0    0    0  0.25449550293E+02  0.54266956048E+02  0.17710671084E+02  0.62499999993E+02  0.00000000000E+00 0. -1.
</event>
<event>
 4    1  0.1956390E-002  0.9118800E+02  0.7818608E-02  0.1130116E+00
         25   -1    0    0    0    0  0.00000000000E+00  0.00000000000E+00  0.99999998245E-14  0.12500000000E+03  0.12500000000E+03 0.  0.
        -11    1    1    0    0    0  0.41977512641E+01  0.19691307619E+02  0.20890232423E+02  0.29013281827E+02  0.51100000000E-03 0. -1.
         11    1    1    0    0    0  0.47390423092E+01  0.22727846492E+02  0.24131918087E+02  0.33486758562E+02  0.51100000000E-03 0.  1.
         22    1    1    0    0    0 -0.89367935733E+01 -0.42419154111E+02 -0.45022150510E+02  0.62499959611E+02  0.00000000000E+00 0.  1.
</event>
<event>
 4    1  0.1956390E-002  0.9118800E+02  0.7818608E-02  0.1130116E+00
         25   -1    0    0    0    0  0.00000000000E+00  0.00000000000E+00  0.99999998245E-14  0.12500000000E+03  0.12500000000E+03 0.  0.
        -11    1    1    0    0    0  0.53519152444E+01  0.25036924166E+01 -0.29908966823E+01  0.66224569251E+01  0.51100000000E-03 0.  1.
         11    1    1    0    0    0  0.45144567820E+02  0.21147355853E+02 -0.25239991946E+02  0.55877543404E+02  0.51100000000E-03 0. -1.
         22    1    1    0    0    0 -0.50496483064E+02 -0.23651048269E+02  0.28230888628E+02  0.62499999671E+02  0.00000000000E+00 0. -1.
</event>
<event>
 4    1  0.1956390E-002  0.9118800E+02  0.7818608E-02  0.1130116E+00
         25   -1    0    0    0    0  0.00000000000E+00  0.00000000000E+00  0.99999998245E-14  0.12500000000E+03  0.12500000000E+03 0.  0.
        -11    1    1    0    0    0 -0.22429696665E+02 -0.26355896621E+02  0.26351153645E+02  0.43498366381E+02  0.51100000000E-03 0. -1.
         11    1    1    0    0    0 -0.97545139754E+01 -0.11100615063E+02  0.11950521824E+02  0.19004977501E+02  0.51100000000E-03 0.  1.
         22    1    1    0    0    0  0.32184210641E+02  0.37456511684E+02 -0.38301675469E+02  0.62496656117E+02  0.00000000000E+00 0. -1.
</event>
<event>
 4    1  0.1956390E-002  0.9118800E+02  0.7818608E-02  0.1130116E+00
         25   -1    0    0    0    0  0.00000000000E+00  0.00000000000E+00  0.99999998245E-14  0.12500000000E+03  0.12500000000E+03 0.  0.
        -11    1    1    0    0    0  0.22288023055E+01 -0.66620568710E+01  0.21534597116E+02  0.22651477538E+02  0.51100000000E-03 0.  1.
         11    1    1    0    0    0  0.38802265411E+01 -0.11709894911E+02  0.37890991982E+02  0.39848526579E+02  0.51100000000E-03 0. -1.
         22    1    1    0    0    0 -0.61090288465E+01  0.18371951782E+02 -0.59425589098E+02  0.62499995883E+02  0.00000000000E+00 0. -1.
</event>
<event>
 4    1  0.1956390E-002  0.9118800E+02  0.7818608E-02  0.1130116E+00
         25   -1    0    0    0    0  0.00000000000E+00  0.00000000000E+00  0.99999998245E-14  0.12500000000E+03  0.12500000000E+03 0.  0.
        -11    1    1    0    0    0 -0.11600981029E+02 -0.12400623180E+02 -0.36151708326E+02  0.39941259760E+02  0.51100000000E-03 0.  1.
         11    1    1    0    0    0 -0.64298564840E+01 -0.71804274776E+01 -0.20396324930E+02  0.22559070550E+02  0.51100000000E-03 0. -1.
         22    1    1    0    0    0  0.18030837513E+02  0.19581050658E+02  0.56548033256E+02  0.62499669690E+02  0.00000000000E+00 0.  1.
</event>
<event>
 4    1  0.1956390E-002  0.9118800E+02  0.7818608E-02  0.1130116E+00
         25   -1    0    0    0    0  0.00000000000E+00  0.00000000000E+00  0.99999998245E-14  0.12500000000E+03  0.12500000000E+03 0.  0.
        -11    1    1    0    0    0 -0.97033955770E+01  0.21917936171E+02 -0.34309432127E+02  0.41853183211E+02  0.51100000000E-03 0. -1.
         11    1    1    0    0    0 -0.49005518449E+01  0.11032444717E+02 -0.16750866511E+02  0.20647560969E+02  0.51100000000E-03 0.  1.
         22    1    1    0    0    0  0.14603947422E+02 -0.32950380888E+02  0.51060298639E+02  0.62499255820E+02  0.00000000000E+00 0. -1.
</event>
<event>
 4    1  0.1956390E-002  0.9118800E+02  0.7818608E-02  0.1130116E+00
         25   -1    0    0    0    0  0.00000000000E+00  0.00000000000E+00  0.99999998245E-14  0.12500000000E+03  0.12500000000E+03 0.  0.
        -11    1    1    0    0    0 -0.23056040020E+02  0.39909398621E+02  0.28527429566E+02  0.54204753644E+02  0.51100000000E-03 0. -1.
         11    1    1    0    0    0 -0.34824600440E+01  0.61040944311E+01  0.44074130146E+01  0.82953472817E+01  0.51100000000E-03 0.  1.
         22    1    1    0    0    0  0.26538500064E+02 -0.46013493052E+02 -0.32934842580E+02  0.62499899074E+02  0.00000000000E+00 0. -1.
</event>
<event>
 4    1  0.1956390E-002  0.9118800E+02  0.7818608E-02  0.1130116E+00
         25   -1    0    0    0    0  0.00000000000E+00  0.00000000000E+00  0.99999998245E-14  0.12500000000E+03  0.12500000000E+03 0.  0.
        -11    1    1    0    0    0  0.19764107909E+02  0.36081718570E+01  0.24171867004E+01  0.20235653125E+02  0.51100000000E-03 0.  1.
         11    1    1    0    0    0  0.22356595863E+02 -0.39612857085E+02  0.12889252361E+02  0.47277147245E+02  0.51100000000E-03 0. -1.
         22    1    1    0    0    0 -0.42120703772E+02  0.36004685228E+02 -0.15306439061E+02  0.57487199630E+02  0.00000000000E+00 0. -1.
</event>
<event>
 4    1  0.1956390E-002  0.9118800E+02  0.7818608E-02  0.1130116E+00
         25   -1    0    0    0    0  0.00000000000E+00  0.00000000000E+00  0.99999998245E-14  0.12500000000E+03  0.12500000000E+03 0.  0.
        -11    1    1    0    0    0  0.11679475706E+02 -0.62180917719E+01 -0.22865987993E+02  0.26418331234E+02  0.51100000000E-03 0. -1.
         11    1    1    0    0    0  0.15820275244E+02 -0.19731867073E+01 -0.32512449817E+02  0.36210964748E+02  0.51100000000E-03 0.  1.
         22    1    1    0    0    0 -0.27499750950E+02  0.81912784792E+01  0.55378437810E+02  0.62370704018E+02  0.00000000000E+00 0. -1.
</event>
<event>
 4    1  0.1956390E-002  0.9118800E+02  0.7818608E-02  0.1130116E+00
         25   -1    0    0    0    0  0.00000000000E+00  0.00000000000E+00  0.99999998245E-14  0.12500000000E+03  0.12500000000E+03 0.  0.
        -11    1    1    0    0    0 -0.24641386658E+02 -0.32012772685E+02  0.37159024654E+02  0.54889057789E+02  0.51100000000E-03 0.  1.
         11    1    1    0    0    0 -0.35351145897E+01 -0.45080151386E+01  0.50123916643E+01  0.76120500596E+01  0.51100000000E-03 0. -1.
         22    1    1    0    0    0  0.28176501248E+02  0.36520787824E+02 -0.42171416318E+02  0.62498892151E+02  0.00000000000E+00 0.  1.
</event>
<event>
 4    1  0.1956390E-002  0.9118800E+02  0.7818608E-02  0.1130116E+00
         25   -1    0    0    0    0  0.00000000000E+00  0.00000000000E+00  0.99999998245E-14  0.12500000000E+03  0.12500000000E+03 0.  0.
        -11    1    1    0    0    0  0.18391609903E+02 -0.29127889333E+02  0.93790687845E+01  0.35702271403E+02  0.51100000000E-03 0. -1.
         11    1    1    0    0    0  0.24849570360E+02 -0.12510548483E+02 -0.90864494205E+01  0.29267362945E+02  0.51100000000E-03 0.  1.
         22    1    1    0    0    0 -0.43241180263E+02  0.41638437816E+02 -0.29261936399E+00  0.60030365652E+02  0.00000000000E+00 0.  1.
</event>
<event>
 4    1  0.1956390E-002  0.9118800E+02  0.7818608E-02  0.1130116E+00
         25   -1    0    0    0    0  0.00000000000E+00  0.00000000000E+00  0.99999998245E-14  0.12500000000E+03  0.12500000000E+03 0.  0.
        -11    1    1    0    0    0 -0.12681638579E+01 -0.59150957555E+02  0.12974186095E+02  0.60570401388E+02  0.51100000000E-03 0. -1.
         11    1    1    0    0    0 -0.48822344424E-01 -0.18846131684E+01  0.41138361330E+00  0.19296080312E+01  0.51100000000E-03 0.  1.
         22    1    1    0    0    0  0.13169862023E+01  0.61035570723E+02 -0.13385569708E+02  0.62499990581E+02  0.00000000000E+00 0. -1.
</event>
<event>
 4    1  0.1956390E-002  0.9118800E+02  0.7818608E-02  0.1130116E+00
         25   -1    0    0    0    0  0.00000000000E+00  0.00000000000E+00  0.99999998245E-14  0.12500000000E+03  0.12500000000E+03 0.  0.
        -11    1    1    0    0    0  0.38403726003E+02  0.38067957038E+01  0.36160608664E+02  0.52885985702E+02  0.51100000000E-03 0.  1.
         11    1    1    0    0    0  0.69786749317E+01  0.67306547816E+00  0.65783367707E+01  0.96140228765E+01  0.51100000000E-03 0. -1.
         22    1    1    0    0    0 -0.45382400935E+02 -0.44798611820E+01 -0.42738945435E+02  0.62499991422E+02  0.00000000000E+00 0.  1.
</event>
<event>
 4    1  0.1956390E-002  0.9118800E+02  0.7818608E-02  0.1130116E+00
         25   -1    0    0    0    0  0.00000000000E+00  0.00000000000E+00  0.99999998245E-14  0.12500000000E+03  0.12500000000E+03 0.  0.
        -11    1    1    0    0    0 -0.29438625634E+00 -0.17436746091E+01 -0.74758568259E+00  0.19198825548E+01  0.51100000000E-03 0. -1.
         11    1    1    0    0    0 -0.92668299479E+01 -0.55019456572E+02 -0.23599489487E+02  0.60580117556E+02  0.51100000000E-03 0. -1.
         22    1    1    0    0    0  0.95612162042E+01  0.56763131181E+02  0.24347075170E+02  0.62499999889E+02  0.00000000000E+00 0. -1.
</event>
<event>
 4    1  0.1956390E-002  0.9118800E+02  0.7818608E-02  0.1130116E+00
         25   -1    0    0    0    0  0.00000000000E+00  0.00000000000E+00  0.99999998245E-14  0.12500000000E+03  0.12500000000E+03 0.  0.
        -11    1    1    0    0    0 -0.71768596156E+01 -0.65595814421E+01 -0.80587992501E+01  0.12628525973E+02  0.51100000000E-03 0.  1.
         11    1    1    0    0    0 -0.28589542671E+02 -0.25757887503E+02 -0.31722903561E+02  0.49871568346E+02  0.51100000000E-03 0. -1.
         22    1    1    0    0    0  0.35766402287E+02  0.32317468945E+02  0.39781702811E+02  0.62499905680E+02  0.00000000000E+00 0. -1.
</event>
<event>
 4    1  0.1956390E-002  0.9118800E+02  0.7818608E-02  0.1130116E+00
         25   -1    0    0    0    0  0.00000000000E+00  0.00000000000E+00  0.99999998245E-14  0.12500000000E+03  0.12500000000E+03 0.  0.
        -11    1    1    0    0    0  0.40004794605E+02  0.67991440209E+01 -0.33896359872E+02  0.52873198916E+02  0.51100000000E-03 0. -1.
         11    1    1    0    0    0  0.72873999714E+01  0.12384377768E+01 -0.61672835235E+01  0.96268017944E+01  0.51100000000E-03 0.  1.
         22    1    1    0    0    0 -0.47292194576E+02 -0.80375817977E+01  0.40063643396E+02  0.62499999289E+02  0.00000000000E+00 0. -1.
</event>
<event>
 4    1  0.1956390E-002  0.9118800E+02  0.7818608E-02  0.1130116E+00
         25   -1    0    0    0    0  0.00000000000E+00  0.00000000000E+00  0.99999998245E-14  0.12500000000E+03  0.12500000000E+03 0.  0.
        -11    1    1    0    0    0  0.11507310195E+02 -0.22758061990E+01 -0.85016768960E+01  0.14487097434E+02  0.51100000000E-03 0. -1.
         11    1    1    0    0    0  0.33071204130E+02 -0.19773118976E+02 -0.28999793557E+02  0.48225188473E+02  0.51100000000E-03 0.  1.
         22    1    1    0    0    0 -0.44578514324E+02  0.22048925176E+02  0.37501470453E+02  0.62287714093E+02  0.00000000000E+00 0.  1.
</event>
<event>
 4    1  0.1956390E-002  0.9118800E+02  0.7818608E-02  0.1130116E+00
         25   -1    0    0    0    0  0.00000000000E+00  0.00000000000E+00  0.99999998245E-14  0.12500000000E+03  0.12500000000E+03 0.  0.
        -11    1    1    0    0    0 -0.70253468049E+01  0.49876861900E+01  0.50632160541E+01  0.99934312591E+01  0.51100000000E-03 0. -1.
         11    1    1    0    0    0 -0.36927852106E+02  0.26212635618E+02  0.26573884258E+02  0.52506569608E+02  0.51100000000E-03 0.  1.
         22    1    1    0    0    0  0.43953198911E+02 -0.31200321808E+02 -0.31637100312E+02  0.62499999133E+02  0.00000000000E+00 0.  1.
</event>
<event>
 4    1  0.1956390E-002  0.9118800E+02  0.7818608E-02  0.1130116E+00
         25   -1    0    0    0    0  0.00000000000E+00  0.00000000000E+00  0.99999998245E-14  0.12500000000E+03  0.12500000000E+03 0.  0.
        -11    1    1    0    0    0  0.68923404819E+01  0.18584509557E+02  0.54963500416E+02  0.58428372654E+02  0.51100000000E-03 0. -1.
         11    1    1    0    0    0  0.47903678022E+00  0.13084890760E+01  0.38257839810E+01  0.40716388874E+01  0.51100000000E-03 0.  1.
         22    1    1    0    0    0 -0.73713772621E+01 -0.19892998633E+02 -0.58789284397E+02  0.62499988458E+02  0.00000000000E+00 0. -1.
</event>
<event>
 4    1  0.1956390E-002  0.9118800E+02  0.7818608E-02  0.1130116E+00
         25   -1    0    0    0    0  0.00000000000E+00  0.00000000000E+00  0.99999998245E-14  0.12500000000E+03  0.12500000000E+03 0.  0.
        -11    1    1    0    0    0 -0.12439400682E+01  0.10058875194E+01  0.38354407445E+00  0.16450844699E+01  0.51100000000E-03 0.  1.
         11    1    1    0    0    0 -0.21238472225E+02  0.38393571433E+01  0.57313763634E+02  0.61242802580E+02  0.51100000000E-03 0. -1.
         22    1    1    0    0    0  0.22482412293E+02 -0.48452446626E+01 -0.57697307708E+02  0.62112112950E+02  0.00000000000E+00 0. -1.
</event>
<event>
 4    1  0.1956390E-002  0.9118800E+02  0.7818608E-02  0.1130116E+00
         25   -1    0    0    0    0  0.00000000000E+00  0.00000000000E+00  0.99999998245E-14  0.12500000000E+03  0.12500000000E+03 0.  0.
        -11    1    1    0    0    0 -0.35509641321E+01  0.45030255474E+01  0.44400094061E+01  0.72526043002E+01  0.51100000000E-03 0. -1.
         11    1    1    0    0    0 -0.12502223665E+02  0.36335465573E+02  0.39879409994E+02  0.55379951216E+02  0.51100000000E-03 0.  1.
         22    1    1    0    0    0  0.16053187797E+02 -0.40838491121E+02 -0.44319419400E+02  0.62367444484E+02  0.00000000000E+00 0.  1.
</event>
<event>
 4    1  0.1956390E-002  0.9118800E+02  0.7818608E-02  0.1130116E+00
         25   -1    0    0    0    0  0.00000000000E+00  0.00000000000E+00  0.99999998245E-14  0.12500000000E+03  0.12500000000E+03 0.  0.
        -11    1    1    0    0    0 -0.69666742741E+01 -0.52625055331E+01 -0.44071340237E+01  0.97801505863E+01  0.51100000000E-03 0.  1.
         11    1    1    0    0    0 -0.97553991694E+01 -0.93161250684E+01 -0.52466364237E+02  0.54172662624E+02  0.51100000000E-03 0. -1.
         22    1    1    0    0    0  0.16722073443E+02  0.14578630602E+02  0.56873498261E+02  0.61047186790E+02  0.00000000000E+00 0. -1.
</event>
<event>
 4    1  0.1956390E-002  0.9118800E+02  0.7818608E-02  0.1130116E+00
         25   -1    0    0    0    0  0.00000000000E+00  0.00000000000E+00  0.99999998245E-14  0.12500000000E+03  0.12500000000E+03 0.  0.
        -11    1    1    0    0    0 -0.29710461192E+02 -0.25008051927E+02  0.10195374842E+00  0.38834579439E+02  0.51100000000E-03 0.  1.
         11    1    1    0    0    0 -0.16703689482E+00 -0.26513319313E+02  0.18250108464E+01  0.26576581179E+02  0.51100000000E-03 0. -1.
         22    1    1    0    0    0  0.29877498087E+02  0.51521371239E+02 -0.19269645948E+01  0.59588839382E+02  0.00000000000E+00 0.  1.
</event>
<event>
 4    1  0.1956390E-002  0.9118800E+02  0.7818608E-02  0.1130116E+00
         25   -1    0    0    0    0  0.00000000000E+00  0.00000000000E+00  0.99999998245E-14  0.12500000000E+03  0.12500000000E+03 0.  0.
        -11    1    1    0    0    0  0.60172894060E+01 -0.20207574652E+02 -0.27579987133E+02  0.34716127889E+02  0.51100000000E-03 0. -1.
         11    1    1    0    0    0  0.16357755213E+02  0.48609876749E+00 -0.24972831154E+02  0.29857239385E+02  0.51100000000E-03 0.  1.
         22    1    1    0    0    0 -0.22375044619E+02  0.19721475884E+02  0.52552818286E+02  0.60426632726E+02  0.00000000000E+00 0.  1.
</event>
<event>
 4    1  0.1956390E-002  0.9118800E+02  0.7818608E-02  0.1130116E+00
         25   -1    0    0    0    0  0.00000000000E+00  0.00000000000E+00  0.99999998245E-14  0.12500000000E+03  0.12500000000E+03 0.  0.
        -11    1    1    0    0    0  0.20902145066E+02 -0.24396008382E+02  0.34762500177E+01  0.32313297693E+02  0.51100000000E-03 0. -1.
         11    1    1    0    0    0  0.31888811762E+02 -0.45305470327E+01  0.18001098045E+01  0.32259302032E+02  0.51100000000E-03 0.  1.
         22    1    1    0    0    0 -0.52790956829E+02  0.28926555414E+02 -0.52763598221E+01  0.60427400275E+02  0.00000000000E+00 0. -1.
</event>
<event>
 4    1  0.1956390E-002  0.9118800E+02  0.7818608E-02  0.1130116E+00
         25   -1    0    0    0    0  0.00000000000E+00  0.00000000000E+00  0.99999998245E-14  0.12500000000E+03  0.12500000000E+03 0.  0.
        -11    1    1    0    0    0 -0.49487974126E+01 -0.10304782477E+02 -0.90240633015E+01  0.14564094770E+02  0.51100000000E-03 0.  1.
         11    1    1    0    0    0 -0.16289877202E+02 -0.33916388707E+02 -0.29701338162E+02  0.47935905239E+02  0.51100000000E-03 0.  1.
         22    1    1    0    0    0  0.21238674615E+02  0.44221171185E+02  0.38725401464E+02  0.62499999991E+02  0.00000000000E+00 0.  1.
</event>
<event>
 4    1  0.1956390E-002  0.9118800E+02  0.7818608E-02  0.1130116E+00
         25   -1    0    0    0    0  0.00000000000E+00  0.00000000000E+00  0.99999998245E-14  0.12500000000E+03  0.12500000000E+03 0.  0.
        -11    1    1    0    0    0 -0.87473689907E+00 -0.43514013855E+01 -0.41909464222E+01  0.61044156833E+01  0.51100000000E-03 0.  1.
         11    1    1    0    0    0 -0.81762305198E+01 -0.40204803761E+02 -0.38693480219E+02  0.56395588504E+02  0.51100000000E-03 0. -1.
         22    1    1    0    0    0  0.90509674188E+01  0.44556205147E+02  0.42884426641E+02  0.62499995813E+02  0.00000000000E+00 0. -1.
</event>
<event>
 4    1  0.1956390E-002  0.9118800E+02  0.7818608E-02  0.1130116E+00
         25   -1    0    0    0    0  0.00000000000E+00  0.00000000000E+00  0.99999998245E-14  0.12500000000E+03  0.12500000000E+03 0.  0.
        -11    1    1    0    0    0 -0.54198905571E+01 -0.30485465788E+02 -0.29380193213E+02  0.42684125755E+02  0.51100000000E-03 0. -1.
         11    1    1    0    0    0  0.41975799785E+01 -0.87708743733E+01 -0.18190914568E+02  0.20626616010E+02  0.51100000000E-03 0.  1.
         22    1    1    0    0    0  0.12223105786E+01  0.39256340161E+02  0.47571107782E+02  0.61689258235E+02  0.00000000000E+00 0. -1.
</event>
<event>
 4    1  0.1956390E-002  0.9118800E+02  0.7818608E-02  0.1130116E+00
         25   -1    0    0    0    0  0.00000000000E+00  0.00000000000E+00  0.99999998245E-14  0.12500000000E+03  0.12500000000E+03 0.  0.
        -11    1    1    0    0    0 -0.18065124483E+01  0.21588316680E+01 -0.30538548759E+01  0.41533205102E+01  0.51100000000E-03 0.  1.
         11    1    1    0    0    0 -0.25191040377E+02  0.30744670037E+02 -0.42714398728E+02  0.58346748923E+02  0.51100000000E-03 0. -1.
         22    1    1    0    0    0  0.26997552825E+02 -0.32903501705E+02  0.45768253604E+02  0.62499930567E+02  0.00000000000E+00 0. -1.
</event>
<event>
 4    1  0.1956390E-002  0.9118800E+02  0.7818608E-02  0.1130116E+00
         25   -1    0    0    0    0  0.00000000000E+00  0.00000000000E+00  0.99999998245E-14  0.12500000000E+03  0.12500000000E+03 0.  0.
        -11    1    1    0    0    0 -0.15937907620E+02  0.11867468850E+02 -0.28642127272E+02  0.34860079907E+02  0.51100000000E-03 0.  1.
         11    1    1    0    0    0 -0.10821864262E+02  0.28104865750E+02 -0.61952975888E+01  0.30746998836E+02  0.51100000000E-03 0. -1.
         22    1    1    0    0    0  0.26759771881E+02 -0.39972334600E+02  0.34837424861E+02  0.59392921257E+02  0.00000000000E+00 0.  1.
</event>
<event>
 4    1  0.1956390E-002  0.9118800E+02  0.7818608E-02  0.1130116E+00
         25   -1    0    0    0    0  0.00000000000E+00  0.00000000000E+00  0.99999998245E-14  0.12500000000E+03  0.12500000000E+03 0.  0.
        -11    1    1    0    0    0 -0.51953091930E+01 -0.14650017093E+02  0.34360751746E+02  0.37713068017E+02  0.51100000000E-03 0.  1.
         11    1    1    0    0    0 -0.34139603626E+01 -0.96262704642E+01  0.22584769005E+02  0.24786932035E+02  0.51100000000E-03 0. -1.
         22    1    1    0    0    0  0.86092695556E+01  0.24276287558E+02 -0.56945520751E+02  0.62499999948E+02  0.00000000000E+00 0.  1.
</event>
<event>
 4    1  0.1956390E-002  0.9118800E+02  0.7818608E-02  0.1130116E+00
         25   -1    0    0    0    0  0.00000000000E+00  0.00000000000E+00  0.99999998245E-14  0.12500000000E+03  0.12500000000E+03 0.  0.
        -11    1    1    0    0    0 -0.36522729051E+00  0.52549669555E+00  0.11693250884E+01  0.13329888125E+01  0.51100000000E-03 0.  1.
         11    1    1    0    0    0 -0.17177663450E+02  0.24297418635E+02  0.53441269758E+02  0.61167033503E+02  0.51100000000E-03 0. -1.
         22    1    1    0    0    0  0.17542890741E+02 -0.24822915330E+02 -0.54610594847E+02  0.62499977684E+02  0.00000000000E+00 0. -1.
</event>
<event>
 4    1  0.1956390E-002  0.9118800E+02  0.7818608E-02  0.1130116E+00
         25   -1    0    0    0    0  0.00000000000E+00  0.00000000000E+00  0.99999998245E-14  0.12500000000E+03  0.12500000000E+03 0.  0.
        -11    1    1    0    0    0 -0.11594458185E+02 -0.15616522007E+01 -0.12793207087E+02  0.17335984715E+02  0.51100000000E-03 0. -1.
         11    1    1    0    0    0 -0.30201898111E+02 -0.40618467664E+01 -0.33333692259E+02  0.45164015416E+02  0.51100000000E-03 0.  1.
         22    1    1    0    0    0  0.41796356296E+02  0.56234989672E+01  0.46126899346E+02  0.62499999868E+02  0.00000000000E+00 0. -1.
</event>
<event>
 4    1  0.1956390E-002  0.9118800E+02  0.7818608E-02  0.1130116E+00
         25   -1    0    0    0    0  0.00000000000E+00  0.00000000000E+00  0.99999998245E-14  0.12500000000E+03  0.12500000000E+03 0.  0.
        -11    1    1    0    0    0  0.51931541217E+01  0.14737540599E+01  0.11730052918E+02  0.12912588527E+02  0.51100000000E-03 0.  1.
         11    1    1    0    0    0  0.19887823486E+02  0.59577578490E+01  0.45032216187E+02  0.49587507465E+02  0.51100000000E-03 0. -1.
         22    1    1    0    0    0 -0.25080977608E+02 -0.74315119089E+01 -0.56762269105E+02  0.62499904008E+02  0.00000000000E+00 0. -1.
</event>
<event>
 4    1  0.1956390E-002  0.9118800E+02  0.7818608E-02  0.1130116E+00
         25   -1    0    0    0    0  0.00000000000E+00  0.00000000000E+00  0.99999998245E-14  0.12500000000E+03  0.12500000000E+03 0.  0.
        -11    1    1    0    0    0  0.74726863911E+00 -0.34739317119E+01 -0.71997442665E+00  0.36256000047E+01  0.51100000000E-03 0.  1.
         11    1    1    0    0    0  0.31196504086E+02 -0.43969611761E+02 -0.24065393497E+02  0.59039747544E+02  0.51100000000E-03 0. -1.
         22    1    1    0    0    0 -0.31943772725E+02  0.47443543472E+02  0.24785367924E+02  0.62334652452E+02  0.00000000000E+00 0. -1.
</event>
<event>
 4    1  0.1956390E-002  0.9118800E+02  0.7818608E-02  0.1130116E+00
         25   -1    0    0    0    0  0.00000000000E+00  0.00000000000E+00  0.99999998245E-14  0.12500000000E+03  0.12500000000E+03 0.  0.
        -11    1    1    0    0    0 -0.94538630996E+01  0.19743364507E+02 -0.12482847708E+02  0.25199155873E+02  0.51100000000E-03 0. -1.
         11    1    1    0    0    0 -0.13994478707E+02  0.29220555975E+02 -0.18484227319E+02  0.37300844302E+02  0.51100000000E-03 0.  1.
         22    1    1    0    0    0  0.23448341807E+02 -0.48963920482E+02  0.30967075027E+02  0.62499999825E+02  0.00000000000E+00 0.  1.
</event>
<event>
 4    1  0.1956390E-002  0.9118800E+02  0.7818608E-02  0.1130116E+00
         25   -1    0    0    0    0  0.00000000000E+00  0.00000000000E+00  0.99999998245E-14  0.12500000000E+03  0.12500000000E+03 0.  0.
        -11    1    1    0    0    0 -0.31417237791E+02  0.21931016518E+02 -0.47212401714E+02  0.60803151167E+02  0.51100000000E-03 0.  1.
         11    1    1    0    0    0 -0.79577146738E+00  0.71482892001E+00 -0.13203792261E+01  0.16993040267E+01  0.51100000000E-03 0. -1.
         22    1    1    0    0    0  0.32213009258E+02 -0.22645845438E+02  0.48532780940E+02  0.62497544807E+02  0.00000000000E+00 0.  1.
</event>
<event>
 4    1  0.1956390E-002  0.9118800E+02  0.7818608E-02  0.1130116E+00
         25   -1    0    0    0    0  0.00000000000E+00  0.00000000000E+00  0.99999998245E-14  0.12500000000E+03  0.12500000000E+03 0.  0.
        -11    1    1    0    0    0 -0.84965708241E+00 -0.12491622719E+02  0.13969891483E+02  0.18759542201E+02  0.51100000000E-03 0. -1.
         11    1    1    0    0    0  0.37771519913E+02  0.16994040835E+02  0.28126427816E+02  0.50065767570E+02  0.51100000000E-03 0.  1.
         22    1    1    0    0    0 -0.36921862830E+02 -0.45024181167E+01 -0.42096319299E+02  0.56174690229E+02  0.00000000000E+00 0.  1.
</event>
<event>
 4    1  0.1956390E-002  0.9118800E+02  0.7818608E-02  0.1130116E+00
         25   -1    0    0    0    0  0.00000000000E+00  0.00000000000E+00  0.99999998245E-14  0.12500000000E+03  0.12500000000E+03 0.  0.
        -11    1    1    0    0    0 -0.95810099096E+01 -0.16096416707E+02  0.19051787247E+02  0.26718176945E+02  0.51100000000E-03 0.  1.
         11    1    1    0    0    0 -0.12851042210E+02 -0.21285558282E+02  0.25732090735E+02  0.35782185108E+02  0.51100000000E-03 0. -1.
         22    1    1    0    0    0  0.22432052120E+02  0.37381974989E+02 -0.44783877982E+02  0.62499637947E+02  0.00000000000E+00 0. -1.
</event>
<event>
 4    1  0.1956390E-002  0.9118800E+02  0.7818608E-02  0.1130116E+00
         25   -1    0    0    0    0  0.00000000000E+00  0.00000000000E+00  0.99999998245E-14  0.12500000000E+03  0.12500000000E+03 0.  0.
        -11    1    1    0    0    0 -0.50198270830E+01 -0.11069112396E+01  0.41640200078E+01  0.66153593494E+01  0.51100000000E-03 0. -1.
         11    1    1    0    0    0 -0.42780855061E+02 -0.79001860281E+01  0.35079878370E+02  0.55885708063E+02  0.51100000000E-03 0.  1.
         22    1    1    0    0    0  0.47800682144E+02  0.90070972678E+01 -0.39243898378E+02  0.62498932587E+02  0.00000000000E+00 0.  1.
</event>
<event>
 4    1  0.1956390E-002  0.9118800E+02  0.7818608E-02  0.1130116E+00
         25   -1    0    0    0    0  0.00000000000E+00  0.00000000000E+00  0.99999998245E-14  0.12500000000E+03  0.12500000000E+03 0.  0.
        -11    1    1    0    0    0 -0.20501833429E+02  0.42369251559E+01 -0.26829387438E+01  0.21106275590E+02  0.51100000000E-03 0.  1.
         11    1    1    0    0    0 -0.40171960911E+02  0.75790399299E+01 -0.65247041942E+01  0.41398068249E+02  0.51100000000E-03 0. -1.
         22    1    1    0    0    0  0.60673794340E+02 -0.11815965086E+02  0.92076429380E+01  0.62495656161E+02  0.00000000000E+00 0. -1.
</event>
<event>
 4    1  0.1956390E-002  0.9118800E+02  0.7818608E-02  0.1130116E+00
         25   -1    0    0    0    0  0.00000000000E+00  0.00000000000E+00  0.99999998245E-14  0.12500000000E+03  0.12500000000E+03 0.  0.
        -11    1    1    0    0    0 -0.60177748735E+02  0.75213119176E+00  0.40447110557E+01  0.60318213103E+02  0.51100000000E-03 0. -1.
         11    1    1    0    0    0 -0.21794613878E+01 -0.25765258052E+00 -0.21455681053E+00  0.22051012855E+01  0.51100000000E-03 0.  1.
         22    1    1    0    0    0  0.62357210123E+02 -0.49447861124E+00 -0.38301542451E+01  0.62476685611E+02  0.00000000000E+00 0. -1.
</event>
<event>
 4    1  0.1956390E-002  0.9118800E+02  0.7818608E-02  0.1130116E+00
         25   -1    0    0    0    0  0.00000000000E+00  0.00000000000E+00  0.99999998245E-14  0.12500000000E+03  0.12500000000E+03 0.  0.
        -11    1    1    0    0    0 -0.13509444455E+02  0.35771950476E+02 -0.10129393620E+02  0.39556821734E+02  0.51100000000E-03 0. -1.
         11    1    1    0    0    0 -0.78026550272E+01  0.20737885016E+02 -0.59540300775E+01  0.22943229390E+02  0.51100000000E-03 0.  1.
         22    1    1    0    0    0  0.21312099482E+02 -0.56509835492E+02  0.16083423698E+02  0.62499948876E+02  0.00000000000E+00 0. -1.
</event>
<event>
 4    1  0.1956390E-002  0.9118800E+02  0.7818608E-02  0.1130116E+00
         25   -1    0    0    0    0  0.00000000000E+00  0.00000000000E+00  0.99999998245E-14  0.12500000000E+03  0.12500000000E+03 0.  0.
        -11    1    1    0    0    0 -0.40050481102E+01  0.44577916231E+02 -0.36324570253E+02  0.57642913096E+02  0.51100000000E-03 0.  1.
         11    1    1    0    0    0 -0.33285420564E+00  0.37622006270E+01 -0.30539148064E+01  0.48570918651E+01  0.51100000000E-03 0. -1.
         22    1    1    0    0    0  0.43379023158E+01 -0.48340116858E+02  0.39378485059E+02  0.62499995039E+02  0.00000000000E+00 0.  1.
</event>
<event>
 4    1  0.1956390E-002  0.9118800E+02  0.7818608E-02  0.1130116E+00
         25   -1    0    0    0    0  0.00000000000E+00  0.00000000000E+00  0.99999998245E-14  0.12500000000E+03  0.12500000000E+03 0.  0.
        -11    1    1    0    0    0 -0.56620130944E+01 -0.85488323115E+01  0.34927941281E+01  0.10832383729E+02  0.51100000000E-03 0.  1.
         11    1    1    0    0    0 -0.39264161588E+02 -0.34589256898E+01  0.35829959990E+02  0.53267481499E+02  0.51100000000E-03 0. -1.
         22    1    1    0    0    0  0.44926174682E+02  0.12007758001E+02 -0.39322754118E+02  0.60900134772E+02  0.00000000000E+00 0. -1.
</event>
<event>
 4    1  0.1956390E-002  0.9118800E+02  0.7818608E-02  0.1130116E+00
         25   -1    0    0    0    0  0.00000000000E+00  0.00000000000E+00  0.99999998245E-14  0.12500000000E+03  0.12500000000E+03 0.  0.
        -11    1    1    0    0    0  0.53482046496E+01  0.42646897115E+01  0.66469731802E+01  0.95379832265E+01  0.51100000000E-03 0. -1.
         11    1    1    0    0    0  0.17743333932E+02  0.10513740216E+02 -0.55629179710E+02  0.59329337328E+02  0.51100000000E-03 0.  1.
         22    1    1    0    0    0 -0.23091538581E+02 -0.14778429927E+02  0.48982206530E+02  0.56132679445E+02  0.00000000000E+00 0.  1.
</event>
<event>
 4    1  0.1956390E-002  0.9118800E+02  0.7818608E-02  0.1130116E+00
         25   -1    0    0    0    0  0.00000000000E+00  0.00000000000E+00  0.99999998245E-14  0.12500000000E+03  0.12500000000E+03 0.  0.
        -11    1    1    0    0    0 -0.64783710264E+00  0.17567707850E+01 -0.14328725957E+01  0.23577660272E+01  0.51100000000E-03 0. -1.
         11    1    1    0    0    0  0.54010136994E+02  0.19545846792E+02 -0.20721791811E+02  0.61061671128E+02  0.51100000000E-03 0.  1.
         22    1    1    0    0    0 -0.53362299891E+02 -0.21302617577E+02  0.22154664406E+02  0.61580562844E+02  0.00000000000E+00 0.  1.
</event>
<event>
 4    1  0.1956390E-002  0.9118800E+02  0.7818608E-02  0.1130116E+00
         25   -1    0    0    0    0  0.00000000000E+00  0.00000000000E+00  0.99999998245E-14  0.12500000000E+03  0.12500000000E+03 0.  0.
        -11    1    1    0    0    0  0.76778888827E+00 -0.20020730200E+02 -0.76510822950E+01  0.21446636055E+02  0.51100000000E-03 0. -1.
         11    1    1    0    0    0 -0.39663044734E+02  0.31796117864E+02  0.28074038129E+02  0.58071523537E+02  0.51100000000E-03 0.  1.
         22    1    1    0    0    0  0.38895255846E+02 -0.11775387664E+02 -0.20422955834E+02  0.45481840408E+02  0.00000000000E+00 0.  1.
</event>
<event>
 4    1  0.1956390E-002  0.9118800E+02  0.7818608E-02  0.1130116E+00
         25   -1    0    0    0    0  0.00000000000E+00  0.00000000000E+00  0.99999998245E-14  0.12500000000E+03  0.12500000000E+03 0.  0.
        -11    1    1    0    0    0  0.75899573535E+01 -0.38529772241E+02 -0.16914871174E+02  0.42758200017E+02  0.51100000000E-03 0. -1.
         11    1    1    0    0    0  0.33177726025E+01 -0.17311569213E+02 -0.89191825608E+01  0.19754742759E+02  0.51100000000E-03 0.  1.
         22    1    1    0    0    0 -0.10907729956E+02  0.55841341454E+02  0.25834053735E+02  0.62487057224E+02  0.00000000000E+00 0. -1.
</event>
<event>
 4    1  0.1956390E-002  0.9118800E+02  0.7818608E-02  0.1130116E+00
         25   -1    0    0    0    0  0.00000000000E+00  0.00000000000E+00  0.99999998245E-14  0.12500000000E+03  0.12500000000E+03 0.  0.
        -11    1    1    0    0    0  0.21085373630E+01  0.26370920864E+02 -0.51021132721E+02  0.57471970398E+02  0.51100000000E-03 0.  1.
         11    1    1    0    0    0  0.16600823782E+00  0.22764402998E+01 -0.44801849079E+01  0.50281006596E+01  0.51100000000E-03 0. -1.
         22    1    1    0    0    0 -0.22745456009E+01 -0.28647361164E+02  0.55501317629E+02  0.62499928943E+02  0.00000000000E+00 0.  1.
</event>
<event>
 4    1  0.1956390E-002  0.9118800E+02  0.7818608E-02  0.1130116E+00
         25   -1    0    0    0    0  0.00000000000E+00  0.00000000000E+00  0.99999998245E-14  0.12500000000E+03  0.12500000000E+03 0.  0.
        -11    1    1    0    0    0 -0.20734486569E+02 -0.37097165383E+01  0.15991499120E+02  0.26446341419E+02  0.51100000000E-03 0.  1.
         11    1    1    0    0    0 -0.28251844218E+02 -0.51733118363E+01  0.21793103138E+02  0.36053698863E+02  0.51100000000E-03 0. -1.
         22    1    1    0    0    0  0.48986330787E+02  0.88830283747E+01 -0.37784602257E+02  0.62499959718E+02  0.00000000000E+00 0. -1.
</event>
<event>
 4    1  0.1956390E-002  0.9118800E+02  0.7818608E-02  0.1130116E+00
         25   -1    0    0    0    0  0.00000000000E+00  0.00000000000E+00  0.99999998245E-14  0.12500000000E+03  0.12500000000E+03 0.  0.
        -11    1    1    0    0    0 -0.21493123297E+01 -0.10279243639E+00 -0.44715939275E+01  0.49623847382E+01  0.51100000000E-03 0.  1.
         11    1    1    0    0    0 -0.28905048757E+02  0.26145260343E-01 -0.49758787362E+02  0.57545107934E+02  0.51100000000E-03 0. -1.
         22    1    1    0    0    0  0.31054361086E+02  0.76647176043E-01  0.54230381290E+02  0.62492507327E+02  0.00000000000E+00 0. -1.
</event>
<event>
 4    1  0.1956390E-002  0.9118800E+02  0.7818608E-02  0.1130116E+00
         25   -1    0    0    0    0  0.00000000000E+00  0.00000000000E+00  0.99999998245E-14  0.12500000000E+03  0.12500000000E+03 0.  0.
        -11    1    1    0    0    0  0.55368087008E+01  0.10006781786E+02 -0.15242363784E+02  0.19055749429E+02  0.51100000000E-03 0. -1.
         11    1    1    0    0    0  0.21065352201E+02  0.27666650952E+02 -0.26515502006E+02  0.43729446431E+02  0.51100000000E-03 0.  1.
         22    1    1    0    0    0 -0.26602160902E+02 -0.37673432739E+02  0.41757865790E+02  0.62214804141E+02  0.00000000000E+00 0.  1.
</event>
<event>
 4    1  0.1956390E-002  0.9118800E+02  0.7818608E-02  0.1130116E+00
         25   -1    0    0    0    0  0.00000000000E+00  0.00000000000E+00  0.99999998245E-14  0.12500000000E+03  0.12500000000E+03 0.  0.
        -11    1    1    0    0    0  0.96374263502E+01  0.19910655082E+01 -0.27687487339E+02  0.29384371423E+02  0.51100000000E-03 0. -1.
         11    1    1    0    0    0  0.10916260850E+02  0.22804379076E+01 -0.31181418298E+02  0.33115645779E+02  0.51100000000E-03 0.  1.
         22    1    1    0    0    0 -0.20553687200E+02 -0.42715034158E+01  0.58868905637E+02  0.62499982799E+02  0.00000000000E+00 0. -1.
</event>
<event>
 4    1  0.1956390E-002  0.9118800E+02  0.7818608E-02  0.1130116E+00
         25   -1    0    0    0    0  0.00000000000E+00  0.00000000000E+00  0.99999998245E-14  0.12500000000E+03  0.12500000000E+03 0.  0.
        -11    1    1    0    0    0  0.48904248515E+02 -0.15973555070E+01  0.20879199250E+02  0.53198853644E+02  0.51100000000E-03 0. -1.
         11    1    1    0    0    0  0.87556500553E+01 -0.67616375502E+00  0.30995110743E+01  0.93126566819E+01  0.51100000000E-03 0.  1.
         22    1    1    0    0    0 -0.57659898570E+02  0.22735192620E+01 -0.23978710325E+02  0.62488489674E+02  0.00000000000E+00 0. -1.
</event>
<event>
 4    1  0.1956390E-002  0.9118800E+02  0.7818608E-02  0.1130116E+00
         25   -1    0    0    0    0  0.00000000000E+00  0.00000000000E+00  0.99999998245E-14  0.12500000000E+03  0.12500000000E+03 0.  0.
        -11    1    1    0    0    0  0.20077051632E+02  0.35886233809E+02  0.25558134150E+02  0.48416195645E+02  0.51100000000E-03 0. -1.
         11    1    1    0    0    0  0.58184426109E+01  0.10488300726E+02  0.73822089464E+01  0.14083882125E+02  0.51100000000E-03 0.  1.
         22    1    1    0    0    0 -0.25895494243E+02 -0.46374534535E+02 -0.32940343097E+02  0.62499922230E+02  0.00000000000E+00 0. -1.
</event>
<event>
 4    1  0.1956390E-002  0.9118800E+02  0.7818608E-02  0.1130116E+00
         25   -1    0    0    0    0  0.00000000000E+00  0.00000000000E+00  0.99999998245E-14  0.12500000000E+03  0.12500000000E+03 0.  0.
        -11    1    1    0    0    0 -0.51946928167E+01  0.74788906298E+01  0.31154078823E+02  0.32457591810E+02  0.51100000000E-03 0. -1.
         11    1    1    0    0    0 -0.48005828305E+01  0.69373903171E+01  0.28833546170E+02  0.30042409439E+02  0.51100000000E-03 0.  1.
         22    1    1    0    0    0  0.99952756473E+01 -0.14416280947E+02 -0.59987624993E+02  0.62499998751E+02  0.00000000000E+00 0.  1.
</event>
<event>
 4    1  0.1956390E-002  0.9118800E+02  0.7818608E-02  0.1130116E+00
         25   -1    0    0    0    0  0.00000000000E+00  0.00000000000E+00  0.99999998245E-14  0.12500000000E+03  0.12500000000E+03 0.  0.
        -11    1    1    0    0    0 -0.94536871910E+01 -0.12326278999E+02  0.16683525013E+02  0.22795818972E+02  0.51100000000E-03 0. -1.
         11    1    1    0    0    0 -0.16463724201E+02 -0.21469530940E+02  0.29059026459E+02  0.39704181044E+02  0.51100000000E-03 0.  1.
         22    1    1    0    0    0  0.25917411392E+02  0.33795809939E+02 -0.45742551473E+02  0.62499999984E+02  0.00000000000E+00 0.  1.
</event>
<event>
 4    1  0.1956390E-002  0.9118800E+02  0.7818608E-02  0.1130116E+00
         25   -1    0    0    0    0  0.00000000000E+00  0.00000000000E+00  0.99999998245E-14  0.12500000000E+03  0.12500000000E+03 0.  0.
        -11    1    1    0    0    0 -0.27543640144E+02  0.99549644718E+01 -0.24834675391E+02  0.38399407964E+02  0.51100000000E-03 0.  1.
         11    1    1    0    0    0 -0.21381166016E+02  0.10755641099E+02 -0.66545095171E+01  0.24841911617E+02  0.51100000000E-03 0. -1.
         22    1    1    0    0    0  0.48924806159E+02 -0.20710605571E+02  0.31489184908E+02  0.61758680418E+02  0.00000000000E+00 0.  1.
</event>
<event>
 4    1  0.1956390E-002  0.9118800E+02  0.7818608E-02  0.1130116E+00
         25   -1    0    0    0    0  0.00000000000E+00  0.00000000000E+00  0.99999998245E-14  0.12500000000E+03  0.12500000000E+03 0.  0.
        -11    1    1    0    0    0 -0.22999936889E+02 -0.12258900185E+02  0.51465433287E+02  0.57688547861E+02  0.51100000000E-03 0.  1.
         11    1    1    0    0    0 -0.19130636932E+01 -0.10174708633E+01  0.42959331460E+01  0.48114552380E+01  0.51100000000E-03 0. -1.
         22    1    1    0    0    0  0.24913000582E+02  0.13276371048E+02 -0.55761366433E+02  0.62499996901E+02  0.00000000000E+00 0.  1.
</event>
<event>
 4    1  0.1956390E-002  0.9118800E+02  0.7818608E-02  0.1130116E+00
         25   -1    0    0    0    0  0.00000000000E+00  0.00000000000E+00  0.99999998245E-14  0.12500000000E+03  0.12500000000E+03 0.  0.
        -11    1    1    0    0    0  0.19886095662E+02  0.17198860219E+02 -0.35864864260E+02  0.44469608523E+02  0.51100000000E-03 0. -1.
         11    1    1    0    0    0  0.80619322764E+01  0.69731664737E+01 -0.14542187405E+02  0.18030391496E+02  0.51100000000E-03 0.  1.
         22    1    1    0    0    0 -0.27948027939E+02 -0.24172026693E+02  0.50407051665E+02  0.62499999981E+02  0.00000000000E+00 0.  1.
</event>
<event>
 4    1  0.1956390E-002  0.9118800E+02  0.7818608E-02  0.1130116E+00
         25   -1    0    0    0    0  0.00000000000E+00  0.00000000000E+00  0.99999998245E-14  0.12500000000E+03  0.12500000000E+03 0.  0.
        -11    1    1    0    0    0 -0.36756337536E+01 -0.27355994451E+01  0.18413559702E+01  0.49380542610E+01  0.51100000000E-03 0. -1.
         11    1    1    0    0    0 -0.43004541928E+02 -0.31674898074E+02  0.21463704135E+02  0.57561969997E+02  0.51100000000E-03 0.  1.
         22    1    1    0    0    0  0.46680175682E+02  0.34410497519E+02 -0.23305060106E+02  0.62499975742E+02  0.00000000000E+00 0.  1.
</event>
<event>
 4    1  0.1956390E-002  0.9118800E+02  0.7818608E-02  0.1130116E+00
         25   -1    0    0    0    0  0.00000000000E+00  0.00000000000E+00  0.99999998245E-14  0.12500000000E+03  0.12500000000E+03 0.  0.
        -11    1    1    0    0    0  0.23695334892E+02  0.39911305620E+02  0.20314266508E+02  0.50666069869E+02  0.51100000000E-03 0.  1.
         11    1    1    0    0    0  0.55212720377E+01  0.93203608920E+01  0.47632489340E+01  0.11833939020E+02  0.51100000000E-03 0. -1.
         22    1    1    0    0    0 -0.29216606930E+02 -0.49231666512E+02 -0.25077515442E+02  0.62499991110E+02  0.00000000000E+00 0.  1.
</event>
<event>
 4    1  0.1956390E-002  0.9118800E+02  0.7818608E-02  0.1130116E+00
         25   -1    0    0    0    0  0.00000000000E+00  0.00000000000E+00  0.99999998245E-14  0.12500000000E+03  0.12500000000E+03 0.  0.
        -11    1    1    0    0    0 -0.13135247332E+00  0.14019415292E+02 -0.98258142015E+01  0.17120393792E+02  0.51100000000E-03 0.  1.
         11    1    1    0    0    0 -0.35036765020E+00  0.37159531798E+02 -0.26045251001E+02  0.45379606222E+02  0.51100000000E-03 0. -1.
         22    1    1    0    0    0  0.48172012352E+00 -0.51178947090E+02  0.35871065202E+02  0.62499999986E+02  0.00000000000E+00 0. -1.
</event>
<event>
 4    1  0.1956390E-002  0.9118800E+02  0.7818608E-02  0.1130116E+00
         25   -1    0    0    0    0  0.00000000000E+00  0.00000000000E+00  0.99999998245E-14  0.12500000000E+03  0.12500000000E+03 0.  0.
        -11    1    1    0    0    0  0.20459190717E+02  0.26695179953E+02 -0.13087755151E+02  0.36090171137E+02  0.51100000000E-03 0.  1.
         11    1    1    0    0    0  0.14915748327E+02  0.19586802401E+02 -0.95581623104E+01  0.26409862618E+02  0.51100000000E-03 0. -1.
         22    1    1    0    0    0 -0.35374939045E+02 -0.46281982354E+02  0.22645917461E+02  0.62499966246E+02  0.00000000000E+00 0. -1.
</event>
<event>
 4    1  0.1956390E-002  0.9118800E+02  0.7818608E-02  0.1130116E+00
         25   -1    0    0    0    0  0.00000000000E+00  0.00000000000E+00  0.99999998245E-14  0.12500000000E+03  0.12500000000E+03 0.  0.
        -11    1    1    0    0    0  0.12712856286E+01  0.14864477036E+02 -0.79467409445E+01  0.16903240418E+02  0.51100000000E-03 0. -1.
         11    1    1    0    0    0  0.34526467975E+01  0.40115665721E+02 -0.21398069953E+02  0.45596763088E+02  0.51100000000E-03 0.  1.
         22    1    1    0    0    0 -0.47239324261E+01 -0.54980142757E+02  0.29344810898E+02  0.62499996494E+02  0.00000000000E+00 0.  1.
</event>
<event>
 4    1  0.1956390E-002  0.9118800E+02  0.7818608E-02  0.1130116E+00
         25   -1    0    0    0    0  0.00000000000E+00  0.00000000000E+00  0.99999998245E-14  0.12500000000E+03  0.12500000000E+03 0.  0.
        -11    1    1    0    0    0 -0.95330683281E+01 -0.57162730955E+02  0.34283512863E+01  0.58053516645E+02  0.51100000000E-03 0. -1.
         11    1    1    0    0    0 -0.15430664744E+00 -0.13123633850E+01 -0.74232168837E+01  0.75399109650E+01  0.51100000000E-03 0.  1.
         22    1    1    0    0    0  0.96873749755E+01  0.58475094340E+02  0.39948655974E+01  0.59406572390E+02  0.00000000000E+00 0. -1.
</event>
<event>
 4    1  0.1956390E-002  0.9118800E+02  0.7818608E-02  0.1130116E+00
         25   -1    0    0    0    0  0.00000000000E+00  0.00000000000E+00  0.99999998245E-14  0.12500000000E+03  0.12500000000E+03 0.  0.
        -11    1    1    0    0    0 -0.92898729705E+01  0.22994139156E+02  0.55399035267E+02  0.60696666170E+02  0.51100000000E-03 0.  1.
         11    1    1    0    0    0 -0.25654799638E+00  0.69260213106E+00  0.16452129124E+01  0.18033968988E+01  0.51100000000E-03 0. -1.
         22    1    1    0    0    0  0.95464209669E+01 -0.23686741287E+02 -0.57044248179E+02  0.62499936931E+02  0.00000000000E+00 0.  1.
</event>
<event>
 4    1  0.1956390E-002  0.9118800E+02  0.7818608E-02  0.1130116E+00
         25   -1    0    0    0    0  0.00000000000E+00  0.00000000000E+00  0.99999998245E-14  0.12500000000E+03  0.12500000000E+03 0.  0.
        -11    1    1    0    0    0  0.45141493427E+02  0.22497719804E+02  0.33110473494E+02  0.60334113737E+02  0.51100000000E-03 0. -1.
         11    1    1    0    0    0 -0.53479937256E+01  0.20030686184E+01  0.21732394850E+01  0.61103429445E+01  0.51100000000E-03 0.  1.
         22    1    1    0    0    0 -0.39793499701E+02 -0.24500788422E+02 -0.35283712979E+02  0.58555543319E+02  0.00000000000E+00 0. -1.
</event>
<event>
 4    1  0.1956390E-002  0.9118800E+02  0.7818608E-02  0.1130116E+00
         25   -1    0    0    0    0  0.00000000000E+00  0.00000000000E+00  0.99999998245E-14  0.12500000000E+03  0.12500000000E+03 0.  0.
        -11    1    1    0    0    0  0.27311303401E+02  0.37693606647E+01 -0.13802239426E+02  0.30832080480E+02  0.51100000000E-03 0. -1.
         11    1    1    0    0    0  0.28122729527E+02  0.32778572995E+01 -0.14188484143E+02  0.31669312387E+02  0.51100000000E-03 0.  1.
         22    1    1    0    0    0 -0.55434032928E+02 -0.70472179643E+01  0.27990723569E+02  0.62498607133E+02  0.00000000000E+00 0.  1.
</event>
<event>
 4    1  0.1956390E-002  0.9118800E+02  0.7818608E-02  0.1130116E+00
         25   -1    0    0    0    0  0.00000000000E+00  0.00000000000E+00  0.99999998245E-14  0.12500000000E+03  0.12500000000E+03 0.  0.
        -11    1    1    0    0    0 -0.83339201562E+01 -0.10947142079E+02 -0.11525099309E+01  0.13806607993E+02  0.51100000000E-03 0. -1.
         11    1    1    0    0    0 -0.29402094420E+02 -0.38584413183E+02 -0.42200794623E+01  0.48693420170E+02  0.51100000000E-03 0.  1.
         22    1    1    0    0    0  0.37736014577E+02  0.49531555262E+02  0.53725893932E+01  0.62499971837E+02  0.00000000000E+00 0.  1.
</event>
<event>
 4    1  0.1956390E-002  0.9118800E+02  0.7818608E-02  0.1130116E+00
         25   -1    0    0    0    0  0.00000000000E+00  0.00000000000E+00  0.99999998245E-14  0.12500000000E+03  0.12500000000E+03 0.  0.
        -11    1    1    0    0    0  0.21222460640E+02  0.29529472025E+02  0.30002897618E+02  0.47143996642E+02  0.51100000000E-03 0.  1.
         11    1    1    0    0    0 -0.35216102234E+01  0.16488758598E+02  0.47699418944E+01  0.17522364127E+02  0.51100000000E-03 0. -1.
         22    1    1    0    0    0 -0.17700850416E+02 -0.46018230623E+02 -0.34772839512E+02  0.60333639231E+02  0.00000000000E+00 0.  1.
</event>
<event>
 4    1  0.1956390E-002  0.9118800E+02  0.7818608E-02  0.1130116E+00
         25   -1    0    0    0    0  0.00000000000E+00  0.00000000000E+00  0.99999998245E-14  0.12500000000E+03  0.12500000000E+03 0.  0.
        -11    1    1    0    0    0 -0.30157332337E+02  0.24918736787E+02  0.33531753742E+02  0.51524621746E+02  0.51100000000E-03 0.  1.
         11    1    1    0    0    0  0.35838466700E+01  0.23710294874E+01  0.12796537836E+02  0.13498782116E+02  0.51100000000E-03 0. -1.
         22    1    1    0    0    0  0.26573485667E+02 -0.27289766275E+02 -0.46328291578E+02  0.59976596138E+02  0.00000000000E+00 0.  1.
</event>
<event>
 4    1  0.1956390E-002  0.9118800E+02  0.7818608E-02  0.1130116E+00
         25   -1    0    0    0    0  0.00000000000E+00  0.00000000000E+00  0.99999998245E-14  0.12500000000E+03  0.12500000000E+03 0.  0.
        -11    1    1    0    0    0  0.29986696796E+01  0.15966492227E+00  0.20752559077E+02  0.20968696222E+02  0.51100000000E-03 0.  1.
         11    1    1    0    0    0  0.43973682471E+01 -0.42284008815E+00  0.41301702602E+02  0.41537287818E+02  0.51100000000E-03 0. -1.
         22    1    1    0    0    0 -0.73960379267E+01  0.26317516588E+00 -0.62054261679E+02  0.62494015959E+02  0.00000000000E+00 0. -1.
</event>
<event>
 4    1  0.1956390E-002  0.9118800E+02  0.7818608E-02  0.1130116E+00
         25   -1    0    0    0    0  0.00000000000E+00  0.00000000000E+00  0.99999998245E-14  0.12500000000E+03  0.12500000000E+03 0.  0.
        -11    1    1    0    0    0 -0.19194245097E+02 -0.22612758592E+02 -0.80648588760E+01  0.30737564070E+02  0.51100000000E-03 0.  1.
         11    1    1    0    0    0 -0.19874096909E+02 -0.23365397120E+02 -0.82421647694E+01  0.31762474571E+02  0.51100000000E-03 0. -1.
         22    1    1    0    0    0  0.39068342006E+02  0.45978155712E+02  0.16307023645E+02  0.62499961359E+02  0.00000000000E+00 0.  1.
</event>
<event>
 4    1  0.1956390E-002  0.9118800E+02  0.7818608E-02  0.1130116E+00
         25   -1    0    0    0    0  0.00000000000E+00  0.00000000000E+00  0.99999998245E-14  0.12500000000E+03  0.12500000000E+03 0.  0.
        -11    1    1    0    0    0 -0.40800055573E+02 -0.29774573624E+02  0.88448120840E+01  0.51277680040E+02  0.51100000000E-03 0. -1.
         11    1    1    0    0    0 -0.86259325120E+01 -0.73674530263E+01 -0.75217440987E+00  0.11368898029E+02  0.51100000000E-03 0.  1.
         22    1    1    0    0    0  0.49425988085E+02  0.37142026650E+02 -0.80926376742E+01  0.62353421930E+02  0.00000000000E+00 0. -1.
</event>
<event>
 4    1  0.1956390E-002  0.9118800E+02  0.7818608E-02  0.1130116E+00
         25   -1    0    0    0    0  0.00000000000E+00  0.00000000000E+00  0.99999998245E-14  0.12500000000E+03  0.12500000000E+03 0.  0.
        -11    1    1    0    0    0  0.11599792059E+02 -0.20762276235E+01 -0.26506129584E+02  0.29007599052E+02  0.51100000000E-03 0.  1.
         11    1    1    0    0    0  0.13383353495E+02 -0.23990286079E+01 -0.30608356043E+02  0.33492401361E+02  0.51100000000E-03 0. -1.
         22    1    1    0    0    0 -0.24983145554E+02  0.44752562314E+01  0.57114485626E+02  0.62499999588E+02  0.00000000000E+00 0. -1.
</event>
<event>
 4    1  0.1956390E-002  0.9118800E+02  0.7818608E-02  0.1130116E+00
         25   -1    0    0    0    0  0.00000000000E+00  0.00000000000E+00  0.99999998245E-14  0.12500000000E+03  0.12500000000E+03 0.  0.
        -11    1    1    0    0    0 -0.25526213027E+02  0.14370871202E+01 -0.11369397134E+02  0.27980635488E+02  0.51100000000E-03 0. -1.
         11    1    1    0    0    0 -0.31735709098E+02  0.22041199131E+01 -0.13405757345E+02  0.34521409397E+02  0.51100000000E-03 0.  1.
         22    1    1    0    0    0  0.57261922124E+02 -0.36412070332E+01  0.24775154479E+02  0.62497955114E+02  0.00000000000E+00 0. -1.
</event>
<event>
 4    1  0.1956390E-002  0.9118800E+02  0.7818608E-02  0.1130116E+00
         25   -1    0    0    0    0  0.00000000000E+00  0.00000000000E+00  0.99999998245E-14  0.12500000000E+03  0.12500000000E+03 0.  0.
        -11    1    1    0    0    0  0.31506471731E+01  0.16981433051E+02 -0.21665421851E+02  0.27707149805E+02  0.51100000000E-03 0. -1.
         11    1    1    0    0    0 -0.22904756931E+01  0.35782494387E+02 -0.80251717627E+01  0.36742843732E+02  0.51100000000E-03 0.  1.
         22    1    1    0    0    0 -0.86017148001E+00 -0.52763927438E+02  0.29690593613E+02  0.60550006463E+02  0.00000000000E+00 0.  1.
</event>
<event>
 4    1  0.1956390E-002  0.9118800E+02  0.7818608E-02  0.1130116E+00
         25   -1    0    0    0    0  0.00000000000E+00  0.00000000000E+00  0.99999998245E-14  0.12500000000E+03  0.12500000000E+03 0.  0.
        -11    1    1    0    0    0  0.13424799540E+02  0.99663351475E+01 -0.28384378973E+02  0.32942769296E+02  0.51100000000E-03 0. -1.
         11    1    1    0    0    0  0.12044962096E+02  0.89862737718E+01 -0.25451841509E+02  0.29557240477E+02  0.51100000000E-03 0.  1.
         22    1    1    0    0    0 -0.25469761636E+02 -0.18952608919E+02  0.53836220481E+02  0.62499990227E+02  0.00000000000E+00 0. -1.
</event>
<event>
 4    1  0.1956390E-002  0.9118800E+02  0.7818608E-02  0.1130116E+00
         25   -1    0    0    0    0  0.00000000000E+00  0.00000000000E+00  0.99999998245E-14  0.12500000000E+03  0.12500000000E+03 0.  0.
        -11    1    1    0    0    0 -0.37615097418E+02 -0.22138795669E+02  0.21111391079E+02  0.48484148554E+02  0.51100000000E-03 0.  1.
         11    1    1    0    0    0 -0.11055850027E+02 -0.59180306025E+01  0.62691977955E+01  0.14019905395E+02  0.51100000000E-03 0. -1.
         22    1    1    0    0    0  0.48670947445E+02  0.28056826272E+02 -0.27380588874E+02  0.62495946051E+02  0.00000000000E+00 0.  1.
</event>
<event>
 4    1  0.1956390E-002  0.9118800E+02  0.7818608E-02  0.1130116E+00
         25   -1    0    0    0    0  0.00000000000E+00  0.00000000000E+00  0.99999998245E-14  0.12500000000E+03  0.12500000000E+03 0.  0.
        -11    1    1    0    0    0 -0.99117355187E+01 -0.18533273229E+01  0.33093672100E+02  0.34595786687E+02  0.51100000000E-03 0.  1.
         11    1    1    0    0    0 -0.79616770491E+01 -0.15091876102E+01  0.26701676936E+02  0.27904220114E+02  0.51100000000E-03 0. -1.
         22    1    1    0    0    0  0.17873412568E+02  0.33625149331E+01 -0.59795349037E+02  0.62499993199E+02  0.00000000000E+00 0.  1.
</event>
<event>
 4    1  0.1956390E-002  0.9118800E+02  0.7818608E-02  0.1130116E+00
         25   -1    0    0    0    0  0.00000000000E+00  0.00000000000E+00  0.99999998245E-14  0.12500000000E+03  0.12500000000E+03 0.  0.
        -11    1    1    0    0    0 -0.23054168869E+01 -0.36063702448E+01  0.29939166141E+01  0.52234462109E+01  0.51100000000E-03 0.  1.
         11    1    1    0    0    0 -0.26864696582E+02 -0.37979502328E+02  0.33416626346E+02  0.57278490170E+02  0.51100000000E-03 0. -1.
         22    1    1    0    0    0  0.29170113469E+02  0.41585872573E+02 -0.36410542960E+02  0.62498063619E+02  0.00000000000E+00 0. -1.
</event>
<event>
 4    1  0.1956390E-002  0.9118800E+02  0.7818608E-02  0.1130116E+00
         25   -1    0    0    0    0  0.00000000000E+00  0.00000000000E+00  0.99999998245E-14  0.12500000000E+03  0.12500000000E+03 0.  0.
        -11    1    1    0    0    0  0.34139960995E+01 -0.30488474239E+00  0.12492028389E+01  0.36481272000E+01  0.51100000000E-03 0.  1.
         11    1    1    0    0    0  0.55409228091E+02 -0.42289837654E+01  0.19378098429E+02  0.58852166998E+02  0.51100000000E-03 0. -1.
         22    1    1    0    0    0 -0.58823224190E+02  0.45338685078E+01 -0.20627301268E+02  0.62499705802E+02  0.00000000000E+00 0. -1.
</event>
<event>
 4    1  0.1956390E-002  0.9118800E+02  0.7818608E-02  0.1130116E+00
         25   -1    0    0    0    0  0.00000000000E+00  0.00000000000E+00  0.99999998245E-14  0.12500000000E+03  0.12500000000E+03 0.  0.
        -11    1    1    0    0    0 -0.71562302871E+01 -0.52297852153E+01 -0.28894011292E+02  0.30222941189E+02  0.51100000000E-03 0. -1.
         11    1    1    0    0    0 -0.51175822837E+01 -0.41851398470E+01 -0.31626932594E+02  0.32310492251E+02  0.51100000000E-03 0.  1.
         22    1    1    0    0    0  0.12273812571E+02  0.94149250623E+01  0.60520943886E+02  0.62466566560E+02  0.00000000000E+00 0.  1.
</event>
<event>
 4    1  0.1956390E-002  0.9118800E+02  0.7818608E-02  0.1130116E+00
         25   -1    0    0    0    0  0.00000000000E+00  0.00000000000E+00  0.99999998245E-14  0.12500000000E+03  0.12500000000E+03 0.  0.
        -11    1    1    0    0    0  0.47201561676E+02  0.39095592367E+01 -0.47479598418E+01  0.47600579839E+02  0.51100000000E-03 0. -1.
         11    1    1    0    0    0  0.14793596334E+02  0.22076857618E+01  0.90760541381E+00  0.14984929655E+02  0.51100000000E-03 0.  1.
         22    1    1    0    0    0 -0.61995158010E+02 -0.61172449985E+01  0.38403544280E+01  0.62414490506E+02  0.00000000000E+00 0. -1.
</event>
<event>
 4    1  0.1956390E-002  0.9118800E+02  0.7818608E-02  0.1130116E+00
         25   -1    0    0    0    0  0.00000000000E+00  0.00000000000E+00  0.99999998245E-14  0.12500000000E+03  0.12500000000E+03 0.  0.
        -11    1    1    0    0    0  0.10225164081E+01  0.12947910964E+01  0.50183310697E-01  0.16506187973E+01  0.51100000000E-03 0. -1.
         11    1    1    0    0    0  0.37653882518E+02  0.47774091968E+02  0.15714754436E+01  0.60849390033E+02  0.51100000000E-03 0.  1.
         22    1    1    0    0    0 -0.38676398926E+02 -0.49068883065E+02 -0.16216587543E+01  0.62499991170E+02  0.00000000000E+00 0.  1.
</event>
<event>
 4    1  0.1956390E-002  0.9118800E+02  0.7818608E-02  0.1130116E+00
         25   -1    0    0    0    0  0.00000000000E+00  0.00000000000E+00  0.99999998245E-14  0.12500000000E+03  0.12500000000E+03 0.  0.
        -11    1    1    0    0    0 -0.35477135932E+02  0.68657590748E+00 -0.13315020759E+02  0.37899714227E+02  0.51100000000E-03 0.  1.
         11    1    1    0    0    0 -0.23021519955E+02  0.41134351593E+00 -0.86611170167E+01  0.24600295380E+02  0.51100000000E-03 0. -1.
         22    1    1    0    0    0  0.58498655887E+02 -0.10979194234E+01  0.21976137775E+02  0.62499990393E+02  0.00000000000E+00 0. -1.
</event>
<event>
 4    1  0.1956390E-002  0.9118800E+02  0.7818608E-02  0.1130116E+00
         25   -1    0    0    0    0  0.00000000000E+00  0.00000000000E+00  0.99999998245E-14  0.12500000000E+03  0.12500000000E+03 0.  0.
        -11    1    1    0    0    0  0.19870028150E+02  0.80813810543E+01  0.55366664355E+02  0.59376714801E+02  0.51100000000E-03 0. -1.
         11    1    1    0    0    0  0.79059961451E+00  0.79130232604E+00  0.29323208455E+01  0.31384252299E+01  0.51100000000E-03 0.  1.
         22    1    1    0    0    0 -0.20660627765E+02 -0.88726833804E+01 -0.58298985201E+02  0.62484859970E+02  0.00000000000E+00 0. -1.
</event>
<event>
 4    1  0.1956390E-002  0.9118800E+02  0.7818608E-02  0.1130116E+00
         25   -1    0    0    0    0  0.00000000000E+00  0.00000000000E+00  0.99999998245E-14  0.12500000000E+03  0.12500000000E+03 0.  0.
        -11    1    1    0    0    0  0.12017498802E+02  0.16702169846E+02 -0.21713687452E+02  0.29914327304E+02  0.51100000000E-03 0. -1.
         11    1    1    0    0    0  0.13160438157E+02  0.18357951449E+02 -0.23486778508E+02  0.32585890794E+02  0.51100000000E-03 0.  1.
         22    1    1    0    0    0 -0.25177936959E+02 -0.35060121295E+02  0.45200465961E+02  0.62499781902E+02  0.00000000000E+00 0.  1.
</event>
<event>
 4    1  0.1956390E-002  0.9118800E+02  0.7818608E-02  0.1130116E+00
         25   -1    0    0    0    0  0.00000000000E+00  0.00000000000E+00  0.99999998245E-14  0.12500000000E+03  0.12500000000E+03 0.  0.
        -11    1    1    0    0    0  0.12431582699E+02  0.36870138515E+02 -0.91502364494E+01  0.39970966837E+02  0.51100000000E-03 0.  1.
         11    1    1    0    0    0  0.70090925426E+01  0.20781123548E+02 -0.51550814091E+01  0.22529033241E+02  0.51100000000E-03 0. -1.
         22    1    1    0    0    0 -0.19440675242E+02 -0.57651262063E+02  0.14305317858E+02  0.62499999922E+02  0.00000000000E+00 0. -1.
</event>
<event>
 4    1  0.1956390E-002  0.9118800E+02  0.7818608E-02  0.1130116E+00
         25   -1    0    0    0    0  0.00000000000E+00  0.00000000000E+00  0.99999998245E-14  0.12500000000E+03  0.12500000000E+03 0.  0.
        -11    1    1    0    0    0  0.46272917027E+02  0.84743075051E+01  0.23288487836E+02  0.52491431718E+02  0.51100000000E-03 0.  1.
         11    1    1    0    0    0  0.88700348075E+01  0.10780416513E+01  0.45229416213E+01  0.10014823636E+02  0.51100000000E-03 0. -1.
         22    1    1    0    0    0 -0.55142951834E+02 -0.95523491564E+01 -0.27811429458E+02  0.62493744646E+02  0.00000000000E+00 0. -1.
</event>
<event>
 4    1  0.1956390E-002  0.9118800E+02  0.7818608E-02  0.1130116E+00
         25   -1    0    0    0    0  0.00000000000E+00  0.00000000000E+00  0.99999998245E-14  0.12500000000E+03  0.12500000000E+03 0.  0.
        -11    1    1    0    0    0  0.20970620679E+02 -0.13212631132E+02  0.16972188916E+02  0.30039902629E+02  0.51100000000E-03 0. -1.
         11    1    1    0    0    0  0.22658850102E+02 -0.14305893425E+02  0.18318737684E+02  0.32460102052E+02  0.51100000000E-03 0.  1.
         22    1    1    0    0    0 -0.43629470782E+02  0.27518524557E+02 -0.35290926601E+02  0.62499995318E+02  0.00000000000E+00 0. -1.
</event>
<event>
 4    1  0.1956390E-002  0.9118800E+02  0.7818608E-02  0.1130116E+00
         25   -1    0    0    0    0  0.00000000000E+00  0.00000000000E+00  0.99999998245E-14  0.12500000000E+03  0.12500000000E+03 0.  0.
        -11    1    1    0    0    0  0.73635172707E+01  0.41974416603E+00 -0.30823781547E+01  0.79936616835E+01  0.51100000000E-03 0. -1.
         11    1    1    0    0    0  0.50294259380E+02  0.38732119075E+01 -0.20651901082E+02  0.54507020792E+02  0.51100000000E-03 0.  1.
         22    1    1    0    0    0 -0.57657776651E+02 -0.42929560735E+01  0.23734279237E+02  0.62499317525E+02  0.00000000000E+00 0.  1.
</event>
<event>
 4    1  0.1956390E-002  0.9118800E+02  0.7818608E-02  0.1130116E+00
         25   -1    0    0    0    0  0.00000000000E+00  0.00000000000E+00  0.99999998245E-14  0.12500000000E+03  0.12500000000E+03 0.  0.
        -11    1    1    0    0    0 -0.95142664302E+01 -0.67717881763E+01 -0.67831438737E+01  0.13505162786E+02  0.51100000000E-03 0.  1.
         11    1    1    0    0    0 -0.34460227921E+02 -0.24613804785E+02 -0.24640374747E+02  0.48994844242E+02  0.51100000000E-03 0. -1.
         22    1    1    0    0    0  0.43974494352E+02  0.31385592961E+02  0.31423518620E+02  0.62499992972E+02  0.00000000000E+00 0. -1.
</event>
<event>
 4    1  0.1956390E-002  0.9118800E+02  0.7818608E-02  0.1130116E+00
         25   -1    0    0    0    0  0.00000000000E+00  0.00000000000E+00  0.99999998245E-14  0.12500000000E+03  0.12500000000E+03 0.  0.
        -11    1    1    0    0    0 -0.49396274383E+02  0.33329343092E+02 -0.16686829211E+02  0.61881235470E+02  0.51100000000E-03 0.  1.
         11    1    1    0    0    0 -0.48913251307E+00  0.35925199442E+00 -0.12549763423E+00  0.61972778553E+00  0.51100000000E-03 0. -1.
         22    1    1    0    0    0  0.49885406896E+02 -0.33688595087E+02  0.16812326846E+02  0.62499036745E+02  0.00000000000E+00 0.  1.
</event>
<event>
 4    1  0.1956390E-002  0.9118800E+02  0.7818608E-02  0.1130116E+00
         25   -1    0    0    0    0  0.00000000000E+00  0.00000000000E+00  0.99999998245E-14  0.12500000000E+03  0.12500000000E+03 0.  0.
        -11    1    1    0    0    0 -0.24626270685E+02 -0.33578529275E+02 -0.37030838952E+02  0.55724804799E+02  0.51100000000E-03 0.  1.
         11    1    1    0    0    0 -0.51813643475E+01 -0.24369571064E+01 -0.40713040583E+01  0.70257251182E+01  0.51100000000E-03 0. -1.
         22    1    1    0    0    0  0.29807635033E+02  0.36015486381E+02  0.41102143010E+02  0.62249470083E+02  0.00000000000E+00 0.  1.
</event>
<event>
 4    1  0.1956390E-002  0.9118800E+02  0.7818608E-02  0.1130116E+00
         25   -1    0    0    0    0  0.00000000000E+00  0.00000000000E+00  0.99999998245E-14  0.12500000000E+03  0.12500000000E+03 0.  0.
        -11    1    1    0    0    0  0.17482217369E+02 -0.35723710721E+02  0.46830508725E+02  0.61440279780E+02  0.51100000000E-03 0. -1.
         11    1    1    0    0    0  0.30434948393E+00 -0.61630824512E+00  0.80656489725E+00  0.10597224429E+01  0.51100000000E-03 0.  1.
         22    1    1    0    0    0 -0.17786566853E+02  0.36340018966E+02 -0.47637073622E+02  0.62499997777E+02  0.00000000000E+00 0. -1.
</event>
<event>
 4    1  0.1956390E-002  0.9118800E+02  0.7818608E-02  0.1130116E+00
         25   -1    0    0    0    0  0.00000000000E+00  0.00000000000E+00  0.99999998245E-14  0.12500000000E+03  0.12500000000E+03 0.  0.
        -11    1    1    0    0    0 -0.35047485919E+00  0.42638681892E+01 -0.64237652171E+01  0.77180414865E+01  0.51100000000E-03 0. -1.
         11    1    1    0    0    0 -0.24816613837E+01  0.30269971820E+02 -0.45592029422E+02  0.54781958566E+02  0.51100000000E-03 0. -1.
         22    1    1    0    0    0  0.28321362429E+01 -0.34533840009E+02  0.52015794639E+02  0.62499999948E+02  0.00000000000E+00 0. -1.
</event>
<event>
 4    1  0.1956390E-002  0.9118800E+02  0.7818608E-02  0.1130116E+00
         25   -1    0    0    0    0  0.00000000000E+00  0.00000000000E+00  0.99999998245E-14  0.12500000000E+03  0.12500000000E+03 0.  0.
        -11    1    1    0    0    0 -0.89564177141E+01 -0.14458550638E+02 -0.26490156371E+02  0.31480080840E+02  0.51100000000E-03 0.  1.
         11    1    1    0    0    0 -0.85534108006E+01 -0.14340302869E+02 -0.26142905181E+02  0.31020261351E+02  0.51100000000E-03 0. -1.
         22    1    1    0    0    0  0.17509828515E+02  0.28798853507E+02  0.52633061553E+02  0.62499657810E+02  0.00000000000E+00 0.  1.
</event>
<event>
 4    1  0.1956390E-002  0.9118800E+02  0.7818608E-02  0.1130116E+00
         25   -1    0    0    0    0  0.00000000000E+00  0.00000000000E+00  0.99999998245E-14  0.12500000000E+03  0.12500000000E+03 0.  0.
        -11    1    1    0    0    0  0.66677515480E+01 -0.53489147720E+02 -0.18336285069E+02  0.56936518904E+02  0.51100000000E-03 0.  1.
         11    1    1    0    0    0  0.65051047211E+00 -0.52278702479E+01 -0.17884453041E+01  0.55634816500E+01  0.51100000000E-03 0. -1.
         22    1    1    0    0    0 -0.73182620201E+01  0.58717017968E+02  0.20124730374E+02  0.62499999445E+02  0.00000000000E+00 0.  1.
</event>
<event>
 4    1  0.1956390E-002  0.9118800E+02  0.7818608E-02  0.1130116E+00
         25   -1    0    0    0    0  0.00000000000E+00  0.00000000000E+00  0.99999998245E-14  0.12500000000E+03  0.12500000000E+03 0.  0.
        -11    1    1    0    0    0 -0.32136117592E+02  0.24502965546E+02  0.93826133470E+01  0.41486851024E+02  0.51100000000E-03 0.  1.
         11    1    1    0    0    0 -0.16278519067E+02  0.12409015998E+02  0.47516913519E+01  0.21013149027E+02  0.51100000000E-03 0. -1.
         22    1    1    0    0    0  0.48414636659E+02 -0.36911981544E+02 -0.14134304699E+02  0.62499999949E+02  0.00000000000E+00 0.  1.
</event>
<event>
 4    1  0.1956390E-002  0.9118800E+02  0.7818608E-02  0.1130116E+00
         25   -1    0    0    0    0  0.00000000000E+00  0.00000000000E+00  0.99999998245E-14  0.12500000000E+03  0.12500000000E+03 0.  0.
        -11    1    1    0    0    0 -0.46725374347E+02 -0.87121263057E+01 -0.33528329741E+02  0.58166232886E+02  0.51100000000E-03 0.  1.
         11    1    1    0    0    0 -0.35257832710E+01 -0.21525878583E+01 -0.17451296056E+01  0.44844464278E+01  0.51100000000E-03 0. -1.
         22    1    1    0    0    0  0.50251157618E+02  0.10864714164E+02  0.35273459346E+02  0.62349320687E+02  0.00000000000E+00 0.  1.
</event>
<event>
 4    1  0.1956390E-002  0.9118800E+02  0.7818608E-02  0.1130116E+00
         25   -1    0    0    0    0  0.00000000000E+00  0.00000000000E+00  0.99999998245E-14  0.12500000000E+03  0.12500000000E+03 0.  0.
        -11    1    1    0    0    0 -0.23349474206E+01  0.30269555144E+01  0.49667470358E+00  0.38550129916E+01  0.51100000000E-03 0. -1.
         11    1    1    0    0    0 -0.35496437870E+02  0.46064612220E+02  0.75689454136E+01  0.58644987300E+02  0.51100000000E-03 0.  1.
         22    1    1    0    0    0  0.37831385291E+02 -0.49091567735E+02 -0.80656201172E+01  0.62499999708E+02  0.00000000000E+00 0.  1.
</event>
<event>
 4    1  0.1956390E-002  0.9118800E+02  0.7818608E-02  0.1130116E+00
         25   -1    0    0    0    0  0.00000000000E+00  0.00000000000E+00  0.99999998245E-14  0.12500000000E+03  0.12500000000E+03 0.  0.
        -11    1    1    0    0    0 -0.26863816973E+02 -0.14176272521E+00 -0.50261713710E+02  0.56990566099E+02  0.51100000000E-03 0.  1.
         11    1    1    0    0    0 -0.24881167813E+01 -0.68899867864E-01 -0.49159603711E+01  0.55101850188E+01  0.51100000000E-03 0. -1.
         22    1    1    0    0    0  0.29351933754E+02  0.21066259308E+00  0.55177674081E+02  0.62499248882E+02  0.00000000000E+00 0.  1.
</event>
<event>
 4    1  0.1956390E-002  0.9118800E+02  0.7818608E-02  0.1130116E+00
         25   -1    0    0    0    0  0.00000000000E+00  0.00000000000E+00  0.99999998245E-14  0.12500000000E+03  0.12500000000E+03 0.  0.
        -11    1    1    0    0    0 -0.47592133102E+02 -0.13623625620E+02  0.16664173132E+02  0.52233217158E+02  0.51100000000E-03 0.  1.
         11    1    1    0    0    0 -0.93506878562E+01 -0.26848008790E+01  0.32807543403E+01  0.10266784718E+02  0.51100000000E-03 0. -1.
         22    1    1    0    0    0  0.56942820959E+02  0.16308426499E+02 -0.19944927473E+02  0.62499998124E+02  0.00000000000E+00 0.  1.
</event>
<event>
 4    1  0.1956390E-002  0.9118800E+02  0.7818608E-02  0.1130116E+00
         25   -1    0    0    0    0  0.00000000000E+00  0.00000000000E+00  0.99999998245E-14  0.12500000000E+03  0.12500000000E+03 0.  0.
        -11    1    1    0    0    0 -0.45774543138E+02 -0.23727097674E+02  0.19960133988E+02  0.55287348577E+02  0.51100000000E-03 0. -1.
         11    1    1    0    0    0 -0.57526249600E+01  0.95702086495E+01 -0.10727773015E+02  0.15484401883E+02  0.51100000000E-03 0.  1.
         22    1    1    0    0    0  0.51527168098E+02  0.14156889025E+02 -0.92323609727E+01  0.54228249541E+02  0.00000000000E+00 0. -1.
</event>
<event>
 4    1  0.1956390E-002  0.9118800E+02  0.7818608E-02  0.1130116E+00
         25   -1    0    0    0    0  0.00000000000E+00  0.00000000000E+00  0.99999998245E-14  0.12500000000E+03  0.12500000000E+03 0.  0.
        -11    1    1    0    0    0  0.63617690521E+01 -0.17975397324E+02  0.39180896558E+02  0.43574415312E+02  0.51100000000E-03 0.  1.
         11    1    1    0    0    0  0.29563156622E+01 -0.21945335986E+01  0.18892038491E+02  0.19247464732E+02  0.51100000000E-03 0. -1.
         22    1    1    0    0    0 -0.93180847143E+01  0.20169930923E+02 -0.58072935048E+02  0.62178119956E+02  0.00000000000E+00 0. -1.
</event>
<event>
 4    1  0.1956390E-002  0.9118800E+02  0.7818608E-02  0.1130116E+00
         25   -1    0    0    0    0  0.00000000000E+00  0.00000000000E+00  0.99999998245E-14  0.12500000000E+03  0.12500000000E+03 0.  0.
        -11    1    1    0    0    0  0.18306203611E+02  0.33959409459E+02  0.37095259276E+02  0.53520247033E+02  0.51100000000E-03 0.  1.
         11    1    1    0    0    0 -0.11223415544E+01  0.47965907934E+01  0.81203817926E+01  0.94977647119E+01  0.51100000000E-03 0. -1.
         22    1    1    0    0    0 -0.17183862056E+02 -0.38756000253E+02 -0.45215641069E+02  0.61981988255E+02  0.00000000000E+00 0.  1.
</event>
<event>
 4    1  0.1956390E-002  0.9118800E+02  0.7818608E-02  0.1130116E+00
         25   -1    0    0    0    0  0.00000000000E+00  0.00000000000E+00  0.99999998245E-14  0.12500000000E+03  0.12500000000E+03 0.  0.
        -11    1    1    0    0    0  0.27174075401E+01 -0.76311111691E+01 -0.14045170512E+02  0.16213728022E+02  0.51100000000E-03 0.  1.
         11    1    1    0    0    0  0.77292683051E+01 -0.21769272876E+02 -0.40109553785E+02  0.46286273723E+02  0.51100000000E-03 0. -1.
         22    1    1    0    0    0 -0.10446675845E+02  0.29400384045E+02  0.54154724296E+02  0.62499998255E+02  0.00000000000E+00 0. -1.
</event>
<event>
 4    1  0.1956390E-002  0.9118800E+02  0.7818608E-02  0.1130116E+00
         25   -1    0    0    0    0  0.00000000000E+00  0.00000000000E+00  0.99999998245E-14  0.12500000000E+03  0.12500000000E+03 0.  0.
        -11    1    1    0    0    0 -0.66315729941E+01 -0.91676256564E+01 -0.17910964155E+02  0.21185508202E+02  0.51100000000E-03 0.  1.
         11    1    1    0    0    0 -0.12858968561E+02 -0.17881816791E+02 -0.34953909840E+02  0.41314504203E+02  0.51100000000E-03 0. -1.
         22    1    1    0    0    0  0.19490541555E+02  0.27049442448E+02  0.52864873995E+02  0.62499987595E+02  0.00000000000E+00 0. -1.
</event>
<event>
 4    1  0.1956390E-002  0.9118800E+02  0.7818608E-02  0.1130116E+00
         25   -1    0    0    0    0  0.00000000000E+00  0.00000000000E+00  0.99999998245E-14  0.12500000000E+03  0.12500000000E+03 0.  0.
        -11    1    1    0    0    0  0.25204530960E+02 -0.39946998156E+02  0.32664094522E+02  0.57427990682E+02  0.51100000000E-03 0. -1.
         11    1    1    0    0    0  0.22285507988E+01 -0.35263235880E+01  0.28851145622E+01  0.50720097603E+01  0.51100000000E-03 0.  1.
         22    1    1    0    0    0 -0.27433081758E+02  0.43473321744E+02 -0.35549209085E+02  0.62499999558E+02  0.00000000000E+00 0. -1.
</event>
<event>
 4    1  0.1956390E-002  0.9118800E+02  0.7818608E-02  0.1130116E+00
         25   -1    0    0    0    0  0.00000000000E+00  0.00000000000E+00  0.99999998245E-14  0.12500000000E+03  0.12500000000E+03 0.  0.
        -11    1    1    0    0    0 -0.50995582595E+02 -0.19438010033E+02 -0.14372195086E+01  0.54593509490E+02  0.51100000000E-03 0. -1.
         11    1    1    0    0    0 -0.73779764743E+01 -0.28356545370E+01 -0.19344654495E+00  0.79065096810E+01  0.51100000000E-03 0.  1.
         22    1    1    0    0    0  0.58373559069E+02  0.22273664570E+02  0.16306660536E+01  0.62499980829E+02  0.00000000000E+00 0. -1.
</event>
<event>
 4    1  0.1956390E-002  0.9118800E+02  0.7818608E-02  0.1130116E+00
         25   -1    0    0    0    0  0.00000000000E+00  0.00000000000E+00  0.99999998245E-14  0.12500000000E+03  0.12500000000E+03 0.  0.
        -11    1    1    0    0    0 -0.21792496909E+02 -0.12379878888E+02  0.42266562272E+02  0.49138952058E+02  0.51100000000E-03 0. -1.
         11    1    1    0    0    0 -0.59263699592E+01 -0.33637731592E+01  0.11492639983E+02  0.13361048043E+02  0.51100000000E-03 0.  1.
         22    1    1    0    0    0  0.27718866868E+02  0.15743652047E+02 -0.53759202255E+02  0.62499999899E+02  0.00000000000E+00 0. -1.
</event>
<event>
 4    1  0.1956390E-002  0.9118800E+02  0.7818608E-02  0.1130116E+00
         25   -1    0    0    0    0  0.00000000000E+00  0.00000000000E+00  0.99999998245E-14  0.12500000000E+03  0.12500000000E+03 0.  0.
        -11    1    1    0    0    0 -0.51027301383E+01 -0.10261267154E+02 -0.21940401655E+01  0.11668130569E+02  0.51100000000E-03 0. -1.
         11    1    1    0    0    0 -0.22609517448E+02 -0.44462605519E+02 -0.97871914174E+01  0.50832102897E+02  0.51100000000E-03 0.  1.
         22    1    1    0    0    0  0.27712247586E+02  0.54723872673E+02  0.11981231583E+02  0.62499766534E+02  0.00000000000E+00 0.  1.
</event>
<event>
 4    1  0.1956390E-002  0.9118800E+02  0.7818608E-02  0.1130116E+00
         25   -1    0    0    0    0  0.00000000000E+00  0.00000000000E+00  0.99999998245E-14  0.12500000000E+03  0.12500000000E+03 0.  0.
        -11    1    1    0    0    0  0.60508154417E+01  0.53931588880E+01 -0.54480506332E-01  0.81056460993E+01  0.51100000000E-03 0. -1.
         11    1    1    0    0    0 -0.34384782227E+02  0.36023580276E+02  0.30309383503E+02  0.58298115864E+02  0.51100000000E-03 0.  1.
         22    1    1    0    0    0  0.28333966785E+02 -0.41416739164E+02 -0.30254902997E+02  0.58596238037E+02  0.00000000000E+00 0.  1.
</event>
<event>
 4    1  0.1956390E-002  0.9118800E+02  0.7818608E-02  0.1130116E+00
         25   -1    0    0    0    0  0.00000000000E+00  0.00000000000E+00  0.99999998245E-14  0.12500000000E+03  0.12500000000E+03 0.  0.
        -11    1    1    0    0    0  0.34513646894E+02  0.37482025809E+02  0.20931802295E+02  0.55083885377E+02  0.51100000000E-03 0.  1.
         11    1    1    0    0    0  0.42880381151E+01  0.54075696793E+01  0.27362117080E+01  0.74240107411E+01  0.51100000000E-03 0. -1.
         22    1    1    0    0    0 -0.38801685009E+02 -0.42889595488E+02 -0.23668014003E+02  0.62492103882E+02  0.00000000000E+00 0.  1.
</event>
<event>
 4    1  0.1956390E-002  0.9118800E+02  0.7818608E-02  0.1130116E+00
         25   -1    0    0    0    0  0.00000000000E+00  0.00000000000E+00  0.99999998245E-14  0.12500000000E+03  0.12500000000E+03 0.  0.
        -11    1    1    0    0    0  0.39861075114E+01 -0.36714861344E+01 -0.81218066253E+01  0.97638417976E+01  0.51100000000E-03 0.  1.
         11    1    1    0    0    0  0.21530288486E+02 -0.19832864685E+02 -0.43865778681E+02  0.52736158217E+02  0.51100000000E-03 0. -1.
         22    1    1    0    0    0 -0.25516395997E+02  0.23504350820E+02  0.51987585307E+02  0.62499999985E+02  0.00000000000E+00 0. -1.
</event>
<event>
 4    1  0.1956390E-002  0.9118800E+02  0.7818608E-02  0.1130116E+00
         25   -1    0    0    0    0  0.00000000000E+00  0.00000000000E+00  0.99999998245E-14  0.12500000000E+03  0.12500000000E+03 0.  0.
        -11    1    1    0    0    0 -0.91114481978E+00 -0.19092744645E+01  0.38341645120E+00  0.21500051859E+01  0.51100000000E-03 0. -1.
         11    1    1    0    0    0 -0.24714897869E+02 -0.54137410429E+02  0.10023159936E+02  0.60350220546E+02  0.51100000000E-03 0.  1.
         22    1    1    0    0    0  0.25626042689E+02  0.56046684893E+02 -0.10406576387E+02  0.62499774268E+02  0.00000000000E+00 0.  1.
</event>
<event>
 4    1  0.1956390E-002  0.9118800E+02  0.7818608E-02  0.1130116E+00
         25   -1    0    0    0    0  0.00000000000E+00  0.00000000000E+00  0.99999998245E-14  0.12500000000E+03  0.12500000000E+03 0.  0.
        -11    1    1    0    0    0 -0.27117911150E+01  0.25835625555E+01 -0.85386225542E+00  0.38415735763E+01  0.51100000000E-03 0. -1.
         11    1    1    0    0    0 -0.27809295160E+02  0.51690113053E+02 -0.29974386893E+01  0.58772521842E+02  0.51100000000E-03 0.  1.
         22    1    1    0    0    0  0.30521086275E+02 -0.54273675609E+02  0.38513009447E+01  0.62385904581E+02  0.00000000000E+00 0.  1.
</event>
<event>
 4    1  0.1956390E-002  0.9118800E+02  0.7818608E-02  0.1130116E+00
         25   -1    0    0    0    0  0.00000000000E+00  0.00000000000E+00  0.99999998245E-14  0.12500000000E+03  0.12500000000E+03 0.  0.
        -11    1    1    0    0    0 -0.21766199700E+01  0.85713324364E+00  0.42221232326E+01  0.48268702845E+01  0.51100000000E-03 0. -1.
         11    1    1    0    0    0 -0.25981489038E+02  0.10254853098E+02  0.50457805584E+02  0.57673130046E+02  0.51100000000E-03 0.  1.
         22    1    1    0    0    0  0.28158109008E+02 -0.11111986342E+02 -0.54679928816E+02  0.62499999670E+02  0.00000000000E+00 0.  1.
</event>
<event>
 4    1  0.1956390E-002  0.9118800E+02  0.7818608E-02  0.1130116E+00
         25   -1    0    0    0    0  0.00000000000E+00  0.00000000000E+00  0.99999998245E-14  0.12500000000E+03  0.12500000000E+03 0.  0.
        -11    1    1    0    0    0 -0.19163090679E+02  0.70377988597E+01 -0.51943025398E+02  0.55810684863E+02  0.51100000000E-03 0. -1.
         11    1    1    0    0    0 -0.22953208804E+01  0.86226377101E+00 -0.62237528554E+01  0.66893270679E+01  0.51100000000E-03 0.  1.
         22    1    1    0    0    0  0.21458411559E+02 -0.79000626307E+01  0.58166778253E+02  0.62499988069E+02  0.00000000000E+00 0. -1.
</event>
<event>
 4    1  0.1956390E-002  0.9118800E+02  0.7818608E-02  0.1130116E+00
         25   -1    0    0    0    0  0.00000000000E+00  0.00000000000E+00  0.99999998245E-14  0.12500000000E+03  0.12500000000E+03 0.  0.
        -11    1    1    0    0    0 -0.71971302261E+01  0.37484657493E+02 -0.56012628885E+01  0.38578133406E+02  0.51100000000E-03 0.  1.
         11    1    1    0    0    0 -0.44638947592E+01  0.23243496785E+02 -0.34740757958E+01  0.23921866610E+02  0.51100000000E-03 0. -1.
         22    1    1    0    0    0  0.11661024985E+02 -0.60728154278E+02  0.90753386844E+01  0.62499999984E+02  0.00000000000E+00 0.  1.
</event>
<event>
 4    1  0.1956390E-002  0.9118800E+02  0.7818608E-02  0.1130116E+00
         25   -1    0    0    0    0  0.00000000000E+00  0.00000000000E+00  0.99999998245E-14  0.12500000000E+03  0.12500000000E+03 0.  0.
        -11    1    1    0    0    0  0.25859960366E+02  0.92407538233E+01 -0.17983919857E+02  0.32826063654E+02  0.51100000000E-03 0.  1.
         11    1    1    0    0    0  0.22741997391E+02  0.95371106420E+01 -0.16519062338E+02  0.29682222719E+02  0.51100000000E-03 0. -1.
         22    1    1    0    0    0 -0.48601957757E+02 -0.18777864465E+02  0.34502982195E+02  0.62491713627E+02  0.00000000000E+00 0.  1.
</event>
<event>
 4    1  0.1956390E-002  0.9118800E+02  0.7818608E-02  0.1130116E+00
         25   -1    0    0    0    0  0.00000000000E+00  0.00000000000E+00  0.99999998245E-14  0.12500000000E+03  0.12500000000E+03 0.  0.
        -11    1    1    0    0    0 -0.10591856183E+02  0.54312529679E+01  0.45631054959E+02  0.47158022680E+02  0.51100000000E-03 0. -1.
         11    1    1    0    0    0 -0.33547202484E+01  0.12638421418E+01  0.14920643587E+02  0.15345261490E+02  0.51100000000E-03 0.  1.
         22    1    1    0    0    0  0.13946576432E+02 -0.66950951097E+01 -0.60551698546E+02  0.62496715829E+02  0.00000000000E+00 0.  1.
</event>
<event>
 4    1  0.1956390E-002  0.9118800E+02  0.7818608E-02  0.1130116E+00
         25   -1    0    0    0    0  0.00000000000E+00  0.00000000000E+00  0.99999998245E-14  0.12500000000E+03  0.12500000000E+03 0.  0.
        -11    1    1    0    0    0  0.23752396959E+02  0.20820957320E+02 -0.17026979817E+02  0.35883236573E+02  0.51100000000E-03 0. -1.
         11    1    1    0    0    0  0.17243254344E+02  0.11148669416E+02 -0.17274004057E+02  0.26833074117E+02  0.51100000000E-03 0.  1.
         22    1    1    0    0    0 -0.40995651303E+02 -0.31969626736E+02  0.34300983874E+02  0.62283689310E+02  0.00000000000E+00 0.  1.
</event>
<event>
 4    1  0.1956390E-002  0.9118800E+02  0.7818608E-02  0.1130116E+00
         25   -1    0    0    0    0  0.00000000000E+00  0.00000000000E+00  0.99999998245E-14  0.12500000000E+03  0.12500000000E+03 0.  0.
        -11    1    1    0    0    0  0.99046273022E+00  0.48709047791E+02  0.46561722104E+01  0.48941110460E+02  0.51100000000E-03 0.  1.
         11    1    1    0    0    0  0.66921138090E+00  0.13544220032E+02 -0.21753020762E+01  0.13734106433E+02  0.51100000000E-03 0. -1.
         22    1    1    0    0    0 -0.16596741111E+01 -0.62253267822E+02 -0.24808701342E+01  0.62324783107E+02  0.00000000000E+00 0.  1.
</event>
<event>
 4    1  0.1956390E-002  0.9118800E+02  0.7818608E-02  0.1130116E+00
         25   -1    0    0    0    0  0.00000000000E+00  0.00000000000E+00  0.99999998245E-14  0.12500000000E+03  0.12500000000E+03 0.  0.
        -11    1    1    0    0    0 -0.30492825858E+01 -0.10113207238E+02  0.49590835519E+01  0.11669087147E+02  0.51100000000E-03 0.  1.
         11    1    1    0    0    0 -0.17253528198E+02 -0.45539935782E+02  0.14773161133E+02  0.50890237536E+02  0.51100000000E-03 0. -1.
         22    1    1    0    0    0  0.20302810783E+02  0.55653143020E+02 -0.19732244685E+02  0.62440675317E+02  0.00000000000E+00 0. -1.
</event>
<event>
 4    1  0.1956390E-002  0.9118800E+02  0.7818608E-02  0.1130116E+00
         25   -1    0    0    0    0  0.00000000000E+00  0.00000000000E+00  0.99999998245E-14  0.12500000000E+03  0.12500000000E+03 0.  0.
        -11    1    1    0    0    0 -0.10697146620E+02  0.27474854170E+02  0.53979155562E+02  0.61506469521E+02  0.51100000000E-03 0. -1.
         11    1    1    0    0    0 -0.17323606968E+00  0.44326682470E+00  0.87212770182E+00  0.99353067548E+00  0.51100000000E-03 0.  1.
         22    1    1    0    0    0  0.10870382690E+02 -0.27918120995E+02 -0.54851283264E+02  0.62499999803E+02  0.00000000000E+00 0. -1.
</event>
<event>
 4    1  0.1956390E-002  0.9118800E+02  0.7818608E-02  0.1130116E+00
         25   -1    0    0    0    0  0.00000000000E+00  0.00000000000E+00  0.99999998245E-14  0.12500000000E+03  0.12500000000E+03 0.  0.
        -11    1    1    0    0    0 -0.18711723111E+02 -0.49094708657E+02  0.10543539378E+02  0.53587174051E+02  0.51100000000E-03 0.  1.
         11    1    1    0    0    0 -0.31209159209E+01 -0.81637332089E+01  0.17469583279E+01  0.89128289421E+01  0.51100000000E-03 0. -1.
         22    1    1    0    0    0  0.21832639032E+02  0.57258441866E+02 -0.12290497705E+02  0.62499997007E+02  0.00000000000E+00 0.  1.
</event>
<event>
 4    1  0.1956390E-002  0.9118800E+02  0.7818608E-02  0.1130116E+00
         25   -1    0    0    0    0  0.00000000000E+00  0.00000000000E+00  0.99999998245E-14  0.12500000000E+03  0.12500000000E+03 0.  0.
        -11    1    1    0    0    0  0.48550099217E+02 -0.11988213643E+02 -0.28392909378E+02  0.57506405761E+02  0.51100000000E-03 0. -1.
         11    1    1    0    0    0  0.42147034151E+01 -0.10360200150E+01 -0.24696033493E+01  0.49935962305E+01  0.51100000000E-03 0.  1.
         22    1    1    0    0    0 -0.52764802633E+02  0.13024233658E+02  0.30862512727E+02  0.62499998008E+02  0.00000000000E+00 0. -1.
</event>
<event>
 4    1  0.1956390E-002  0.9118800E+02  0.7818608E-02  0.1130116E+00
         25   -1    0    0    0    0  0.00000000000E+00  0.00000000000E+00  0.99999998245E-14  0.12500000000E+03  0.12500000000E+03 0.  0.
        -11    1    1    0    0    0  0.27082231596E+02 -0.13403577255E+01 -0.43625368623E+02  0.51365519707E+02  0.51100000000E-03 0.  1.
         11    1    1    0    0    0  0.58650912918E+01 -0.29341498824E+00 -0.94599832710E+01  0.11134481217E+02  0.51100000000E-03 0. -1.
         22    1    1    0    0    0 -0.32947322888E+02  0.16337727137E+01  0.53085351894E+02  0.62499999076E+02  0.00000000000E+00 0.  1.
</event>
<event>
 4    1  0.1956390E-002  0.9118800E+02  0.7818608E-02  0.1130116E+00
         25   -1    0    0    0    0  0.00000000000E+00  0.00000000000E+00  0.99999998245E-14  0.12500000000E+03  0.12500000000E+03 0.  0.
        -11    1    1    0    0    0  0.38706556884E+02 -0.16730498148E+02  0.68333709720E+01  0.42717702106E+02  0.51100000000E-03 0. -1.
         11    1    1    0    0    0  0.16484237258E+02  0.14360932862E+02  0.10679087226E+02  0.24331242773E+02  0.51100000000E-03 0.  1.
         22    1    1    0    0    0 -0.55190794141E+02  0.23695652868E+01 -0.17512458198E+02  0.57951055122E+02  0.00000000000E+00 0. -1.
</event>
<event>
 4    1  0.1956390E-002  0.9118800E+02  0.7818608E-02  0.1130116E+00
         25   -1    0    0    0    0  0.00000000000E+00  0.00000000000E+00  0.99999998245E-14  0.12500000000E+03  0.12500000000E+03 0.  0.
        -11    1    1    0    0    0  0.38328804523E+02 -0.41084585554E+02  0.25305324936E+02  0.61623046798E+02  0.51100000000E-03 0.  1.
         11    1    1    0    0    0  0.64366009245E+00 -0.71072323894E+00 -0.45381918737E+00  0.10608383255E+01  0.51100000000E-03 0. -1.
         22    1    1    0    0    0 -0.38972464615E+02  0.41795308793E+02 -0.24851505749E+02  0.62316114876E+02  0.00000000000E+00 0.  1.
</event>
<event>
 4    1  0.1956390E-002  0.9118800E+02  0.7818608E-02  0.1130116E+00
         25   -1    0    0    0    0  0.00000000000E+00  0.00000000000E+00  0.99999998245E-14  0.12500000000E+03  0.12500000000E+03 0.  0.
        -11    1    1    0    0    0  0.15945937024E+02  0.29872459733E+02  0.29331369089E+02  0.44799173776E+02  0.51100000000E-03 0.  1.
         11    1    1    0    0    0  0.63707639923E+01  0.12097318323E+02  0.11245561284E+02  0.17702948718E+02  0.51100000000E-03 0. -1.
         22    1    1    0    0    0 -0.22316701016E+02 -0.41969778056E+02 -0.40576930373E+02  0.62497877507E+02  0.00000000000E+00 0.  1.
</event>
<event>
 4    1  0.1956390E-002  0.9118800E+02  0.7818608E-02  0.1130116E+00
         25   -1    0    0    0    0  0.00000000000E+00  0.00000000000E+00  0.99999998245E-14  0.12500000000E+03  0.12500000000E+03 0.  0.
        -11    1    1    0    0    0 -0.44545881509E+00 -0.28715047835E+01 -0.46605236317E+01  0.54922175904E+01  0.51100000000E-03 0. -1.
         11    1    1    0    0    0  0.25054452943E+01 -0.36053450873E+02 -0.44141772411E+02  0.57049317681E+02  0.51100000000E-03 0.  1.
         22    1    1    0    0    0 -0.20599864792E+01  0.38924955657E+02  0.48802296043E+02  0.62458464729E+02  0.00000000000E+00 0.  1.
</event>
<event>
 4    1  0.1956390E-002  0.9118800E+02  0.7818608E-02  0.1130116E+00
         25   -1    0    0    0    0  0.00000000000E+00  0.00000000000E+00  0.99999998245E-14  0.12500000000E+03  0.12500000000E+03 0.  0.
        -11    1    1    0    0    0  0.21897657228E+01 -0.13753492364E+00 -0.21522853667E+02  0.21634398998E+02  0.51100000000E-03 0.  1.
         11    1    1    0    0    0  0.29500210405E+01 -0.24855058351E+00 -0.40761237548E+02  0.40868605166E+02  0.51100000000E-03 0. -1.
         22    1    1    0    0    0 -0.51397867633E+01  0.38608550716E+00  0.62284091215E+02  0.62496995836E+02  0.00000000000E+00 0.  1.
</event>
<event>
 4    1  0.1956390E-002  0.9118800E+02  0.7818608E-02  0.1130116E+00
         25   -1    0    0    0    0  0.00000000000E+00  0.00000000000E+00  0.99999998245E-14  0.12500000000E+03  0.12500000000E+03 0.  0.
        -11    1    1    0    0    0 -0.92098134882E+01 -0.37287495050E+01  0.88275335622E+01  0.13290958822E+02  0.51100000000E-03 0. -1.
         11    1    1    0    0    0 -0.34028724165E+02 -0.13721551572E+02  0.32791724661E+02  0.49209066769E+02  0.51100000000E-03 0.  1.
         22    1    1    0    0    0  0.43238537653E+02  0.17450301077E+02 -0.41619258223E+02  0.62499974409E+02  0.00000000000E+00 0.  1.
</event>
<event>
 4    1  0.1956390E-002  0.9118800E+02  0.7818608E-02  0.1130116E+00
         25   -1    0    0    0    0  0.00000000000E+00  0.00000000000E+00  0.99999998245E-14  0.12500000000E+03  0.12500000000E+03 0.  0.
        -11    1    1    0    0    0 -0.83940769490E+01 -0.37256837670E+02  0.12433389538E+02  0.40163685796E+02  0.51100000000E-03 0. -1.
         11    1    1    0    0    0 -0.46701488770E+01 -0.20720449933E+02  0.69111215805E+01  0.22336314327E+02  0.51100000000E-03 0.  1.
         22    1    1    0    0    0  0.13064225826E+02  0.57977287603E+02 -0.19344511118E+02  0.62499999877E+02  0.00000000000E+00 0. -1.
</event>
<event>
 4    1  0.1956390E-002  0.9118800E+02  0.7818608E-02  0.1130116E+00
         25   -1    0    0    0    0  0.00000000000E+00  0.00000000000E+00  0.99999998245E-14  0.12500000000E+03  0.12500000000E+03 0.  0.
        -11    1    1    0    0    0  0.18059634573E+02  0.26724197741E+02  0.34297196087E+00  0.32256019219E+02  0.51100000000E-03 0.  1.
         11    1    1    0    0    0  0.16935862965E+02  0.25055341331E+02  0.32371889162E+00  0.30243980852E+02  0.51100000000E-03 0.  1.
         22    1    1    0    0    0 -0.34995497539E+02 -0.51779539072E+02 -0.66669085250E+00  0.62499999929E+02  0.00000000000E+00 0.  1.
</event>
<event>
 4    1  0.1956390E-002  0.9118800E+02  0.7818608E-02  0.1130116E+00
         25   -1    0    0    0    0  0.00000000000E+00  0.00000000000E+00  0.99999998245E-14  0.12500000000E+03  0.12500000000E+03 0.  0.
        -11    1    1    0    0    0 -0.39288068712E+02 -0.22011172550E+02  0.25154254750E+02  0.51582754796E+02  0.51100000000E-03 0. -1.
         11    1    1    0    0    0 -0.83365593235E+01 -0.46366176695E+01  0.53094510835E+01  0.10917266867E+02  0.51100000000E-03 0.  1.
         22    1    1    0    0    0  0.47624628035E+02  0.26647790219E+02 -0.30463705833E+02  0.62499978337E+02  0.00000000000E+00 0. -1.
</event>
<event>
 4    1  0.1956390E-002  0.9118800E+02  0.7818608E-02  0.1130116E+00
         25   -1    0    0    0    0  0.00000000000E+00  0.00000000000E+00  0.99999998245E-14  0.12500000000E+03  0.12500000000E+03 0.  0.
        -11    1    1    0    0    0 -0.38716718037E+02 -0.41006686436E+02  0.62875118102E+01  0.56745620034E+02  0.51100000000E-03 0.  1.
         11    1    1    0    0    0 -0.39274623156E+01 -0.41568417619E+01  0.63921672844E+00  0.57543802412E+01  0.51100000000E-03 0. -1.
         22    1    1    0    0    0  0.42644180353E+02  0.45163528198E+02 -0.69267285386E+01  0.62499999724E+02  0.00000000000E+00 0.  1.
</event>
<event>
 4    1  0.1956390E-002  0.9118800E+02  0.7818608E-02  0.1130116E+00
         25   -1    0    0    0    0  0.00000000000E+00  0.00000000000E+00  0.99999998245E-14  0.12500000000E+03  0.12500000000E+03 0.  0.
        -11    1    1    0    0    0 -0.20408361805E+02  0.10162904775E+02 -0.92776742873E+01  0.24614245986E+02  0.51100000000E-03 0.  1.
         11    1    1    0    0    0 -0.31149040156E+02  0.15936893522E+02 -0.14530178795E+02  0.37886321725E+02  0.51100000000E-03 0. -1.
         22    1    1    0    0    0  0.51557401961E+02 -0.26099798296E+02  0.23807853082E+02  0.62499432289E+02  0.00000000000E+00 0. -1.
</event>
<event>
 4    1  0.1956390E-002  0.9118800E+02  0.7818608E-02  0.1130116E+00
         25   -1    0    0    0    0  0.00000000000E+00  0.00000000000E+00  0.99999998245E-14  0.12500000000E+03  0.12500000000E+03 0.  0.
        -11    1    1    0    0    0 -0.13879685645E+02 -0.25360173164E+02  0.37980448480E+02  0.47731525468E+02  0.51100000000E-03 0. -1.
         11    1    1    0    0    0 -0.42783703287E+01 -0.78114211060E+01  0.11780746496E+02  0.14768505023E+02  0.51100000000E-03 0.  1.
         22    1    1    0    0    0  0.18158055973E+02  0.33171594270E+02 -0.49761194976E+02  0.62499969509E+02  0.00000000000E+00 0.  1.
</event>
<event>
 4    1  0.1956390E-002  0.9118800E+02  0.7818608E-02  0.1130116E+00
         25   -1    0    0    0    0  0.00000000000E+00  0.00000000000E+00  0.99999998245E-14  0.12500000000E+03  0.12500000000E+03 0.  0.
        -11    1    1    0    0    0  0.65511241958E+01 -0.32211367231E+02  0.10845809783E+01  0.32888686859E+02  0.51100000000E-03 0. -1.
         11    1    1    0    0    0 -0.31455277744E+02  0.94922513738E+01  0.31290714078E+02  0.45372305671E+02  0.51100000000E-03 0.  1.
         22    1    1    0    0    0  0.24904153549E+02  0.22719115857E+02 -0.32375295057E+02  0.46739007470E+02  0.00000000000E+00 0.  1.
</event>
<event>
 4    1  0.1956390E-002  0.9118800E+02  0.7818608E-02  0.1130116E+00
         25   -1    0    0    0    0  0.00000000000E+00  0.00000000000E+00  0.99999998245E-14  0.12500000000E+03  0.12500000000E+03 0.  0.
        -11    1    1    0    0    0 -0.36023098432E+01  0.29775683861E+01 -0.75804943406E+01  0.89054165770E+01  0.51100000000E-03 0. -1.
         11    1    1    0    0    0 -0.21738609080E+02  0.17918002039E+02 -0.45593395957E+02  0.53594586266E+02  0.51100000000E-03 0.  1.
         22    1    1    0    0    0  0.25340918923E+02 -0.20895570426E+02  0.53173890298E+02  0.62499997157E+02  0.00000000000E+00 0.  1.
</event>
<event>
 4    1  0.1956390E-002  0.9118800E+02  0.7818608E-02  0.1130116E+00
         25   -1    0    0    0    0  0.00000000000E+00  0.00000000000E+00  0.99999998245E-14  0.12500000000E+03  0.12500000000E+03 0.  0.
        -11    1    1    0    0    0 -0.68351472439E+00  0.79385706205E+01 -0.10543102430E+02  0.13215335977E+02  0.51100000000E-03 0.  1.
         11    1    1    0    0    0  0.48608187573E+02  0.18089386449E+02 -0.11222400183E+02  0.53065281186E+02  0.51100000000E-03 0. -1.
         22    1    1    0    0    0 -0.47924672848E+02 -0.26027957069E+02  0.21765502613E+02  0.58719382837E+02  0.00000000000E+00 0. -1.
</event>
<event>
 4    1  0.1956390E-002  0.9118800E+02  0.7818608E-02  0.1130116E+00
         25   -1    0    0    0    0  0.00000000000E+00  0.00000000000E+00  0.99999998245E-14  0.12500000000E+03  0.12500000000E+03 0.  0.
        -11    1    1    0    0    0  0.97274718748E+01  0.49196067294E+02  0.18107807362E+02  0.53317627798E+02  0.51100000000E-03 0. -1.
         11    1    1    0    0    0 -0.13417087121E+01  0.89585684022E+01  0.25333342720E+01  0.94060572441E+01  0.51100000000E-03 0.  1.
         22    1    1    0    0    0 -0.83857631628E+01 -0.58154635696E+02 -0.20641141633E+02  0.62276314958E+02  0.00000000000E+00 0. -1.
</event>
<event>
 4    1  0.1956390E-002  0.9118800E+02  0.7818608E-02  0.1130116E+00
         25   -1    0    0    0    0  0.00000000000E+00  0.00000000000E+00  0.99999998245E-14  0.12500000000E+03  0.12500000000E+03 0.  0.
        -11    1    1    0    0    0  0.11829104022E+02  0.11904066551E+02 -0.15770026481E+02  0.23028856634E+02  0.51100000000E-03 0.  1.
         11    1    1    0    0    0  0.20131563897E+02  0.20553454612E+02 -0.27023225915E+02  0.39471243970E+02  0.51100000000E-03 0. -1.
         22    1    1    0    0    0 -0.31960667919E+02 -0.32457521163E+02  0.42793252396E+02  0.62499899396E+02  0.00000000000E+00 0. -1.
</event>
<event>
 4    1  0.1956390E-002  0.9118800E+02  0.7818608E-02  0.1130116E+00
         25   -1    0    0    0    0  0.00000000000E+00  0.00000000000E+00  0.99999998245E-14  0.12500000000E+03  0.12500000000E+03 0.  0.
        -11    1    1    0    0    0  0.24459956778E+02  0.55073341518E+02 -0.72953940965E+01  0.60700784236E+02  0.51100000000E-03 0.  1.
         11    1    1    0    0    0  0.74267226984E+00  0.15438020795E+01 -0.62152688654E+00  0.18224112853E+01  0.51100000000E-03 0. -1.
         22    1    1    0    0    0 -0.25202629048E+02 -0.56617143597E+02  0.79169209831E+01  0.62476804479E+02  0.00000000000E+00 0.  1.
</event>
<event>
 4    1  0.1956390E-002  0.9118800E+02  0.7818608E-02  0.1130116E+00
         25   -1    0    0    0    0  0.00000000000E+00  0.00000000000E+00  0.99999998245E-14  0.12500000000E+03  0.12500000000E+03 0.  0.
        -11    1    1    0    0    0  0.18346561337E+02 -0.24540145825E+02  0.13111020892E+02  0.33327375220E+02  0.51100000000E-03 0.  1.
         11    1    1    0    0    0  0.16070532177E+02 -0.21472814526E+02  0.11475988793E+02  0.29172625648E+02  0.51100000000E-03 0. -1.
         22    1    1    0    0    0 -0.34417093514E+02  0.46012960351E+02 -0.24587009686E+02  0.62499999132E+02  0.00000000000E+00 0. -1.
</event>
<event>
 4    1  0.1956390E-002  0.9118800E+02  0.7818608E-02  0.1130116E+00
         25   -1    0    0    0    0  0.00000000000E+00  0.00000000000E+00  0.99999998245E-14  0.12500000000E+03  0.12500000000E+03 0.  0.
        -11    1    1    0    0    0  0.31580344150E+00  0.20266724643E+02  0.20899223589E+02  0.29113869658E+02  0.51100000000E-03 0.  1.
         11    1    1    0    0    0  0.35974539471E+00  0.23240682543E+02  0.23966121062E+02  0.33386130366E+02  0.51100000000E-03 0. -1.
         22    1    1    0    0    0 -0.67554883620E+00 -0.43507407186E+02 -0.44865344651E+02  0.62499999976E+02  0.00000000000E+00 0. -1.
</event>
<event>
 4    1  0.1956390E-002  0.9118800E+02  0.7818608E-02  0.1130116E+00
         25   -1    0    0    0    0  0.00000000000E+00  0.00000000000E+00  0.99999998245E-14  0.12500000000E+03  0.12500000000E+03 0.  0.
        -11    1    1    0    0    0 -0.29168475130E+02  0.23134055405E+02 -0.73909066134E+00  0.37236147977E+02  0.51100000000E-03 0.  1.
         11    1    1    0    0    0 -0.19789110911E+02  0.15697389360E+02 -0.49526562441E+00  0.25263852273E+02  0.51100000000E-03 0. -1.
         22    1    1    0    0    0  0.48957586041E+02 -0.38831444764E+02  0.12343562858E+01  0.62499999751E+02  0.00000000000E+00 0.  1.
</event>
<event>
 4    1  0.1956390E-002  0.9118800E+02  0.7818608E-02  0.1130116E+00
         25   -1    0    0    0    0  0.00000000000E+00  0.00000000000E+00  0.99999998245E-14  0.12500000000E+03  0.12500000000E+03 0.  0.
        -11    1    1    0    0    0  0.20873226110E+02  0.24759537297E+02 -0.68211541235E+01  0.33094627951E+02  0.51100000000E-03 0. -1.
         11    1    1    0    0    0  0.18547694008E+02  0.21998331223E+02 -0.60607240889E+01  0.29405372066E+02  0.51100000000E-03 0.  1.
         22    1    1    0    0    0 -0.39420920118E+02 -0.46757868520E+02  0.12881878212E+02  0.62499999982E+02  0.00000000000E+00 0. -1.
</event>
<event>
 4    1  0.1956390E-002  0.9118800E+02  0.7818608E-02  0.1130116E+00
         25   -1    0    0    0    0  0.00000000000E+00  0.00000000000E+00  0.99999998245E-14  0.12500000000E+03  0.12500000000E+03 0.  0.
        -11    1    1    0    0    0  0.18943114018E+02  0.81659186349E+00  0.24129690638E+02  0.30687951406E+02  0.51100000000E-03 0. -1.
         11    1    1    0    0    0 -0.13252402878E+02  0.10497363825E+02  0.32311654071E+02  0.36467297931E+02  0.51100000000E-03 0.  1.
         22    1    1    0    0    0 -0.56907111404E+01 -0.11313955688E+02 -0.56441344709E+02  0.57844750662E+02  0.00000000000E+00 0. -1.
</event>
<event>
 4    1  0.1956390E-002  0.9118800E+02  0.7818608E-02  0.1130116E+00
         25   -1    0    0    0    0  0.00000000000E+00  0.00000000000E+00  0.99999998245E-14  0.12500000000E+03  0.12500000000E+03 0.  0.
        -11    1    1    0    0    0 -0.24185185777E+01 -0.16143185808E+01  0.34507844014E+01  0.45125569068E+01  0.51100000000E-03 0. -1.
         11    1    1    0    0    0 -0.30814746303E+02 -0.21142417307E+02  0.44339614240E+02  0.57987514092E+02  0.51100000000E-03 0.  1.
         22    1    1    0    0    0  0.33233264881E+02  0.22756735887E+02 -0.47790398641E+02  0.62499929002E+02  0.00000000000E+00 0.  1.
</event>
<event>
 4    1  0.1956390E-002  0.9118800E+02  0.7818608E-02  0.1130116E+00
         25   -1    0    0    0    0  0.00000000000E+00  0.00000000000E+00  0.99999998245E-14  0.12500000000E+03  0.12500000000E+03 0.  0.
        -11    1    1    0    0    0 -0.53578801541E+01 -0.18982423181E+02  0.81409287329E+01  0.21338087789E+02  0.51100000000E-03 0. -1.
         11    1    1    0    0    0 -0.10244572604E+02 -0.36624784217E+02  0.15747338500E+02  0.41161933347E+02  0.51100000000E-03 0.  1.
         22    1    1    0    0    0  0.15602452758E+02  0.55607207398E+02 -0.23888267232E+02  0.62499978864E+02  0.00000000000E+00 0.  1.
</event>
<event>
 4    1  0.1956390E-002  0.9118800E+02  0.7818608E-02  0.1130116E+00
         25   -1    0    0    0    0  0.00000000000E+00  0.00000000000E+00  0.99999998245E-14  0.12500000000E+03  0.12500000000E+03 0.  0.
        -11    1    1    0    0    0  0.25194074427E+02  0.26873141995E+01  0.23069659488E+02  0.34266196652E+02  0.51100000000E-03 0. -1.
         11    1    1    0    0    0  0.20761520754E+02  0.22090517281E+01  0.19005972978E+02  0.28233803546E+02  0.51100000000E-03 0.  1.
         22    1    1    0    0    0 -0.45955595181E+02 -0.48963659276E+01 -0.42075632467E+02  0.62499999802E+02  0.00000000000E+00 0. -1.
</event>
<event>
 4    1  0.1956390E-002  0.9118800E+02  0.7818608E-02  0.1130116E+00
         25   -1    0    0    0    0  0.00000000000E+00  0.00000000000E+00  0.99999998245E-14  0.12500000000E+03  0.12500000000E+03 0.  0.
        -11    1    1    0    0    0 -0.24551686334E+02  0.26206009339E+02 -0.30283519244E+02  0.46974799259E+02  0.51100000000E-03 0.  1.
         11    1    1    0    0    0 -0.81125035470E+01  0.86610617053E+01 -0.10010252567E+02  0.15525200816E+02  0.51100000000E-03 0. -1.
         22    1    1    0    0    0  0.32664189881E+02 -0.34867071045E+02  0.40293771811E+02  0.62499999925E+02  0.00000000000E+00 0.  1.
</event>
<event>
 4    1  0.1956390E-002  0.9118800E+02  0.7818608E-02  0.1130116E+00
         25   -1    0    0    0    0  0.00000000000E+00  0.00000000000E+00  0.99999998245E-14  0.12500000000E+03  0.12500000000E+03 0.  0.
        -11    1    1    0    0    0 -0.24363570559E+00  0.25649631972E+01  0.34002362404E+02  0.34099839353E+02  0.51100000000E-03 0.  1.
         11    1    1    0    0    0 -0.20440772415E+00  0.21345925000E+01  0.28319090001E+02  0.28400160675E+02  0.51100000000E-03 0. -1.
         22    1    1    0    0    0  0.44804342974E+00 -0.46995556972E+01 -0.62321452405E+02  0.62499999972E+02  0.00000000000E+00 0. -1.
</event>
<event>
 4    1  0.1956390E-002  0.9118800E+02  0.7818608E-02  0.1130116E+00
         25   -1    0    0    0    0  0.00000000000E+00  0.00000000000E+00  0.99999998245E-14  0.12500000000E+03  0.12500000000E+03 0.  0.
        -11    1    1    0    0    0  0.39147990384E+01  0.26027724866E+00  0.31871529793E+01  0.50548333436E+01  0.51100000000E-03 0.  1.
         11    1    1    0    0    0  0.44758975981E+02  0.24943449330E+01  0.35921786059E+02  0.57445299211E+02  0.51100000000E-03 0. -1.
         22    1    1    0    0    0 -0.48673775019E+02 -0.27546221817E+01 -0.39108939039E+02  0.62499867445E+02  0.00000000000E+00 0. -1.
</event>
<event>
 4    1  0.1956390E-002  0.9118800E+02  0.7818608E-02  0.1130116E+00
         25   -1    0    0    0    0  0.00000000000E+00  0.00000000000E+00  0.99999998245E-14  0.12500000000E+03  0.12500000000E+03 0.  0.
        -11    1    1    0    0    0  0.17481571491E+02 -0.11022394993E+02 -0.13649030606E+02  0.24766803789E+02  0.51100000000E-03 0. -1.
         11    1    1    0    0    0  0.26632074309E+02 -0.16794508248E+02 -0.20795942113E+02  0.37733196232E+02  0.51100000000E-03 0.  1.
         22    1    1    0    0    0 -0.44113645800E+02  0.27816903242E+02  0.34444972719E+02  0.62499999978E+02  0.00000000000E+00 0.  1.
</event>
<event>
 4    1  0.1956390E-002  0.9118800E+02  0.7818608E-02  0.1130116E+00
         25   -1    0    0    0    0  0.00000000000E+00  0.00000000000E+00  0.99999998245E-14  0.12500000000E+03  0.12500000000E+03 0.  0.
        -11    1    1    0    0    0 -0.16152877847E+02 -0.13310690290E+02 -0.22134991008E+02  0.30463876410E+02  0.51100000000E-03 0. -1.
         11    1    1    0    0    0 -0.16999518686E+02 -0.13996458751E+02 -0.23268622256E+02  0.32036124533E+02  0.51100000000E-03 0.  1.
         22    1    1    0    0    0  0.33152396533E+02  0.27307149041E+02  0.45403613265E+02  0.62499999057E+02  0.00000000000E+00 0. -1.
</event>
<event>
 4    1  0.1956390E-002  0.9118800E+02  0.7818608E-02  0.1130116E+00
         25   -1    0    0    0    0  0.00000000000E+00  0.00000000000E+00  0.99999998245E-14  0.12500000000E+03  0.12500000000E+03 0.  0.
        -11    1    1    0    0    0  0.19057060164E+02  0.14101025877E+02  0.10629850466E+02  0.25980842829E+02  0.51100000000E-03 0. -1.
         11    1    1    0    0    0  0.26380462863E+02  0.20047320816E+02  0.15359239521E+02  0.36520270148E+02  0.51100000000E-03 0.  1.
         22    1    1    0    0    0 -0.45437523028E+02 -0.34148346693E+02 -0.25989089987E+02  0.62498887023E+02  0.00000000000E+00 0.  1.
</event>
<event>
 4    1  0.1956390E-002  0.9118800E+02  0.7818608E-02  0.1130116E+00
         25   -1    0    0    0    0  0.00000000000E+00  0.00000000000E+00  0.99999998245E-14  0.12500000000E+03  0.12500000000E+03 0.  0.
        -11    1    1    0    0    0 -0.13039176206E+01  0.19969453698E+01 -0.60540886521E+01  0.65069179832E+01  0.51100000000E-03 0. -1.
         11    1    1    0    0    0 -0.11781020059E+02  0.17128961449E+02 -0.51990850909E+02  0.55993234702E+02  0.51100000000E-03 0.  1.
         22    1    1    0    0    0  0.13084937679E+02 -0.19125906819E+02  0.58044939561E+02  0.62499847315E+02  0.00000000000E+00 0.  1.
</event>
<event>
 4    1  0.1956390E-002  0.9118800E+02  0.7818608E-02  0.1130116E+00
         25   -1    0    0    0    0  0.00000000000E+00  0.00000000000E+00  0.99999998245E-14  0.12500000000E+03  0.12500000000E+03 0.  0.
        -11    1    1    0    0    0 -0.16922814448E+02 -0.58744815022E+01  0.21198105166E+02  0.27753393390E+02  0.51100000000E-03 0.  1.
         11    1    1    0    0    0  0.88604691840E+00 -0.40810949269E+02  0.53959496974E+01  0.41175659470E+02  0.51100000000E-03 0. -1.
         22    1    1    0    0    0  0.16036767529E+02  0.46685430772E+02 -0.26594054863E+02  0.56070947140E+02  0.00000000000E+00 0.  1.
</event>
<event>
 4    1  0.1956390E-002  0.9118800E+02  0.7818608E-02  0.1130116E+00
         25   -1    0    0    0    0  0.00000000000E+00  0.00000000000E+00  0.99999998245E-14  0.12500000000E+03  0.12500000000E+03 0.  0.
        -11    1    1    0    0    0  0.29107312263E+01  0.35462621162E+01 -0.57440592588E+01  0.73513637033E+01  0.51100000000E-03 0.  1.
         11    1    1    0    0    0  0.17436442453E+02  0.26937258905E+02 -0.44867105053E+02  0.55160697592E+02  0.51100000000E-03 0. -1.
         22    1    1    0    0    0 -0.20347173680E+02 -0.30483521021E+02  0.50611164312E+02  0.62487938705E+02  0.00000000000E+00 0. -1.
</event>
<event>
 4    1  0.1956390E-002  0.9118800E+02  0.7818608E-02  0.1130116E+00
         25   -1    0    0    0    0  0.00000000000E+00  0.00000000000E+00  0.99999998245E-14  0.12500000000E+03  0.12500000000E+03 0.  0.
        -11    1    1    0    0    0  0.27836773889E+02  0.27421738281E+02  0.17077756118E+02  0.42643727149E+02  0.51100000000E-03 0.  1.
         11    1    1    0    0    0  0.13010201968E+02  0.12671535272E+02  0.80277254075E+01  0.19856423064E+02  0.51100000000E-03 0. -1.
         22    1    1    0    0    0 -0.40846975857E+02 -0.40093273553E+02 -0.25105481525E+02  0.62499849787E+02  0.00000000000E+00 0.  1.
</event>
<event>
 4    1  0.1956390E-002  0.9118800E+02  0.7818608E-02  0.1130116E+00
         25   -1    0    0    0    0  0.00000000000E+00  0.00000000000E+00  0.99999998245E-14  0.12500000000E+03  0.12500000000E+03 0.  0.
        -11    1    1    0    0    0  0.17455954001E+02 -0.12520037392E+02 -0.48148436680E+02  0.52723179166E+02  0.51100000000E-03 0.  1.
         11    1    1    0    0    0  0.36037360109E+01 -0.30646663344E+01 -0.85760868966E+01  0.97943024099E+01  0.51100000000E-03 0. -1.
         22    1    1    0    0    0 -0.21059690012E+02  0.15584703726E+02  0.56724523577E+02  0.62482518424E+02  0.00000000000E+00 0.  1.
</event>
<event>
 4    1  0.1956390E-002  0.9118800E+02  0.7818608E-02  0.1130116E+00
         25   -1    0    0    0    0  0.00000000000E+00  0.00000000000E+00  0.99999998245E-14  0.12500000000E+03  0.12500000000E+03 0.  0.
        -11    1    1    0    0    0  0.11768661058E+02 -0.13453986732E+02 -0.11949971028E+02  0.21501463901E+02  0.51100000000E-03 0.  1.
         11    1    1    0    0    0  0.25990452407E+02 -0.16665129447E+02 -0.27337267718E+02  0.41237802589E+02  0.51100000000E-03 0. -1.
         22    1    1    0    0    0 -0.37759113465E+02  0.30119116178E+02  0.39287238746E+02  0.62260733510E+02  0.00000000000E+00 0. -1.
</event>
<event>
 4    1  0.1956390E-002  0.9118800E+02  0.7818608E-02  0.1130116E+00
         25   -1    0    0    0    0  0.00000000000E+00  0.00000000000E+00  0.99999998245E-14  0.12500000000E+03  0.12500000000E+03 0.  0.
        -11    1    1    0    0    0 -0.24125190889E+02 -0.99948263709E+01  0.49302108571E+00  0.26118278267E+02  0.51100000000E-03 0. -1.
         11    1    1    0    0    0 -0.33568234857E+02 -0.14011645447E+02  0.69212439800E+00  0.36381748666E+02  0.51100000000E-03 0.  1.
         22    1    1    0    0    0  0.57693425746E+02  0.24006471818E+02 -0.11851454837E+01  0.62499973066E+02  0.00000000000E+00 0.  1.
</event>
<event>
 4    1  0.1956390E-002  0.9118800E+02  0.7818608E-02  0.1130116E+00
         25   -1    0    0    0    0  0.00000000000E+00  0.00000000000E+00  0.99999998245E-14  0.12500000000E+03  0.12500000000E+03 0.  0.
        -11    1    1    0    0    0 -0.41627218222E+01 -0.41999765135E+00 -0.46160188659E+01  0.62299503552E+01  0.51100000000E-03 0. -1.
         11    1    1    0    0    0 -0.38261352128E+02 -0.34317199770E+01 -0.41117582974E+02  0.56270448714E+02  0.51100000000E-03 0.  1.
         22    1    1    0    0    0  0.42424073950E+02  0.38517176283E+01  0.45733601840E+02  0.62499600930E+02  0.00000000000E+00 0.  1.
</event>
<event>
 4    1  0.1956390E-002  0.9118800E+02  0.7818608E-02  0.1130116E+00
         25   -1    0    0    0    0  0.00000000000E+00  0.00000000000E+00  0.99999998245E-14  0.12500000000E+03  0.12500000000E+03 0.  0.
        -11    1    1    0    0    0  0.14578629233E+02 -0.41263294382E+01 -0.16821008658E+01  0.15244424834E+02  0.51100000000E-03 0.  1.
         11    1    1    0    0    0  0.25300765458E+02  0.25596259743E+02 -0.35950492628E+02  0.50869786377E+02  0.51100000000E-03 0. -1.
         22    1    1    0    0    0 -0.39879394691E+02 -0.21469930305E+02  0.37632593494E+02  0.58885788789E+02  0.00000000000E+00 0. -1.
</event>
<event>
 4    1  0.1956390E-002  0.9118800E+02  0.7818608E-02  0.1130116E+00
         25   -1    0    0    0    0  0.00000000000E+00  0.00000000000E+00  0.99999998245E-14  0.12500000000E+03  0.12500000000E+03 0.  0.
        -11    1    1    0    0    0 -0.28909753464E+02 -0.17379331477E+02  0.20253654500E+02  0.39344955570E+02  0.51100000000E-03 0. -1.
         11    1    1    0    0    0 -0.17011211341E+02 -0.10230235045E+02  0.11921286289E+02  0.23155044535E+02  0.51100000000E-03 0.  1.
         22    1    1    0    0    0  0.45920964805E+02  0.27609566522E+02 -0.32174940789E+02  0.62499999895E+02  0.00000000000E+00 0.  1.
</event>
<event>
 4    1  0.1956390E-002  0.9118800E+02  0.7818608E-02  0.1130116E+00
         25   -1    0    0    0    0  0.00000000000E+00  0.00000000000E+00  0.99999998245E-14  0.12500000000E+03  0.12500000000E+03 0.  0.
        -11    1    1    0    0    0  0.15646241760E+01 -0.31049519660E+01 -0.91589139112E+01  0.97966565632E+01  0.51100000000E-03 0. -1.
         11    1    1    0    0    0  0.90032687829E+01 -0.15794266938E+02 -0.49469379228E+02  0.52704242698E+02  0.51100000000E-03 0.  1.
         22    1    1    0    0    0 -0.10567892959E+02  0.18899218904E+02  0.58628293139E+02  0.62499100739E+02  0.00000000000E+00 0. -1.
</event>
<event>
 4    1  0.1956390E-002  0.9118800E+02  0.7818608E-02  0.1130116E+00
         25   -1    0    0    0    0  0.00000000000E+00  0.00000000000E+00  0.99999998245E-14  0.12500000000E+03  0.12500000000E+03 0.  0.
        -11    1    1    0    0    0 -0.46324628205E+02  0.95031202607E+00 -0.66613913105E+01  0.46810772326E+02  0.51100000000E-03 0. -1.
         11    1    1    0    0    0 -0.15526489440E+02  0.31770740465E+00 -0.22313792768E+01  0.15689227707E+02  0.51100000000E-03 0. -1.
         22    1    1    0    0    0  0.61851117645E+02 -0.12680194307E+01  0.88927705873E+01  0.62499999967E+02  0.00000000000E+00 0. -1.
</event>
<event>
 4    1  0.1956390E-002  0.9118800E+02  0.7818608E-02  0.1130116E+00
         25   -1    0    0    0    0  0.00000000000E+00  0.00000000000E+00  0.99999998245E-14  0.12500000000E+03  0.12500000000E+03 0.  0.
        -11    1    1    0    0    0 -0.55553174212E+01 -0.75640698637E+01  0.32566260474E+01  0.99338974239E+01  0.51100000000E-03 0.  1.
         11    1    1    0    0    0 -0.23699313529E+02 -0.33632900570E+02 -0.36155043356E+02  0.54772407496E+02  0.51100000000E-03 0. -1.
         22    1    1    0    0    0  0.29254630950E+02  0.41196970434E+02  0.32898417309E+02  0.60293695080E+02  0.00000000000E+00 0. -1.
</event>
<event>
 4    1  0.1956390E-002  0.9118800E+02  0.7818608E-02  0.1130116E+00
         25   -1    0    0    0    0  0.00000000000E+00  0.00000000000E+00  0.99999998245E-14  0.12500000000E+03  0.12500000000E+03 0.  0.
        -11    1    1    0    0    0 -0.50763924820E+00  0.13847216279E+02 -0.15756440148E+02  0.20982576169E+02  0.51100000000E-03 0.  1.
         11    1    1    0    0    0 -0.99993628208E+00  0.27399093165E+02 -0.31176694923E+02  0.41517423877E+02  0.51100000000E-03 0. -1.
         22    1    1    0    0    0  0.15075755303E+01 -0.41246309444E+02  0.46933135070E+02  0.62499999954E+02  0.00000000000E+00 0. -1.
</event>
<event>
 4    1  0.1956390E-002  0.9118800E+02  0.7818608E-02  0.1130116E+00
         25   -1    0    0    0    0  0.00000000000E+00  0.00000000000E+00  0.99999998245E-14  0.12500000000E+03  0.12500000000E+03 0.  0.
        -11    1    1    0    0    0 -0.36528896803E+00 -0.14657298495E+01 -0.23534404309E+01  0.27965124968E+01  0.51100000000E-03 0.  1.
         11    1    1    0    0    0 -0.77737066630E+01 -0.31313310614E+02 -0.50234972993E+02  0.59703487743E+02  0.51100000000E-03 0. -1.
         22    1    1    0    0    0  0.81389956310E+01  0.32779040463E+02  0.52588413424E+02  0.62499999760E+02  0.00000000000E+00 0. -1.
</event>
<event>
 4    1  0.1956390E-002  0.9118800E+02  0.7818608E-02  0.1130116E+00
         25   -1    0    0    0    0  0.00000000000E+00  0.00000000000E+00  0.99999998245E-14  0.12500000000E+03  0.12500000000E+03 0.  0.
        -11    1    1    0    0    0 -0.13219835231E+01 -0.75180667499E+00 -0.19535847912E+01  0.24757519079E+01  0.51100000000E-03 0.  1.
         11    1    1    0    0    0 -0.32033484181E+02 -0.18272866174E+02 -0.47358934350E+02  0.60024248517E+02  0.51100000000E-03 0.  1.
         22    1    1    0    0    0  0.33355467705E+02  0.19024672849E+02  0.49312519141E+02  0.62499999575E+02  0.00000000000E+00 0.  1.
</event>
<event>
 4    1  0.1956390E-002  0.9118800E+02  0.7818608E-02  0.1130116E+00
         25   -1    0    0    0    0  0.00000000000E+00  0.00000000000E+00  0.99999998245E-14  0.12500000000E+03  0.12500000000E+03 0.  0.
        -11    1    1    0    0    0 -0.69499840604E+01  0.19943967961E+02  0.72254128405E+00  0.21132586275E+02  0.51100000000E-03 0. -1.
         11    1    1    0    0    0 -0.13508955066E+02  0.39072959472E+02  0.14410887328E+01  0.41367436056E+02  0.51100000000E-03 0.  1.
         22    1    1    0    0    0  0.20458939127E+02 -0.59016927433E+02 -0.21636300168E+01  0.62499977669E+02  0.00000000000E+00 0.  1.
</event>
<event>
 4    1  0.1956390E-002  0.9118800E+02  0.7818608E-02  0.1130116E+00
         25   -1    0    0    0    0  0.00000000000E+00  0.00000000000E+00  0.99999998245E-14  0.12500000000E+03  0.12500000000E+03 0.  0.
        -11    1    1    0    0    0  0.15896998405E+02  0.32924713749E+02  0.50616441099E+02  0.62440174916E+02  0.51100000000E-03 0. -1.
         11    1    1    0    0    0  0.16869936161E-01  0.28250057692E-01  0.50042105831E-01  0.59892687222E-01  0.51100000000E-03 0.  1.
         22    1    1    0    0    0 -0.15913868341E+02 -0.32952963807E+02 -0.50666483205E+02  0.62499932397E+02  0.00000000000E+00 0. -1.
</event>
<event>
 4    1  0.1956390E-002  0.9118800E+02  0.7818608E-02  0.1130116E+00
         25   -1    0    0    0    0  0.00000000000E+00  0.00000000000E+00  0.99999998245E-14  0.12500000000E+03  0.12500000000E+03 0.  0.
        -11    1    1    0    0    0 -0.36086460244E+02 -0.98666710889E+01  0.32631236801E+02  0.49642536465E+02  0.51100000000E-03 0.  1.
         11    1    1    0    0    0 -0.81933044553E+01 -0.11233565865E+02  0.36170447268E+01  0.14366845609E+02  0.51100000000E-03 0. -1.
         22    1    1    0    0    0  0.44279764699E+02  0.21100236954E+02 -0.36248281527E+02  0.60990617926E+02  0.00000000000E+00 0.  1.
</event>
<event>
 4    1  0.1956390E-002  0.9118800E+02  0.7818608E-02  0.1130116E+00
         25   -1    0    0    0    0  0.00000000000E+00  0.00000000000E+00  0.99999998245E-14  0.12500000000E+03  0.12500000000E+03 0.  0.
        -11    1    1    0    0    0  0.15593556972E+02  0.45496473481E+02 -0.33628749970E+02  0.58685440639E+02  0.51100000000E-03 0.  1.
         11    1    1    0    0    0  0.97443118618E+00  0.30306273389E+01 -0.21031181627E+01  0.38154062000E+01  0.51100000000E-03 0. -1.
         22    1    1    0    0    0 -0.16567988158E+02 -0.48527100820E+02  0.35731868133E+02  0.62499153161E+02  0.00000000000E+00 0.  1.
</event>
<event>
 4    1  0.1956390E-002  0.9118800E+02  0.7818608E-02  0.1130116E+00
         25   -1    0    0    0    0  0.00000000000E+00  0.00000000000E+00  0.99999998245E-14  0.12500000000E+03  0.12500000000E+03 0.  0.
        -11    1    1    0    0    0  0.93144835573E+00  0.44673412782E+01 -0.84045387254E+00  0.46401613235E+01  0.51100000000E-03 0. -1.
         11    1    1    0    0    0  0.12332744548E+02  0.55584864763E+02 -0.10296023070E+02  0.57860019617E+02  0.51100000000E-03 0.  1.
         22    1    1    0    0    0 -0.13264192904E+02 -0.60052206041E+02  0.11136476942E+02  0.62499819059E+02  0.00000000000E+00 0.  1.
</event>
<event>
 4    1  0.1956390E-002  0.9118800E+02  0.7818608E-02  0.1130116E+00
         25   -1    0    0    0    0  0.00000000000E+00  0.00000000000E+00  0.99999998245E-14  0.12500000000E+03  0.12500000000E+03 0.  0.
        -11    1    1    0    0    0  0.17100768477E+02 -0.50699614276E+02  0.18913375169E+02  0.56750356217E+02  0.51100000000E-03 0.  1.
         11    1    1    0    0    0  0.17337736865E+01 -0.51402544280E+01  0.19053286061E+01  0.57496490449E+01  0.51100000000E-03 0. -1.
         22    1    1    0    0    0 -0.18834542164E+02  0.55839868704E+02 -0.20818703775E+02  0.62499994738E+02  0.00000000000E+00 0.  1.
</event>
<event>
 4    1  0.1956390E-002  0.9118800E+02  0.7818608E-02  0.1130116E+00
         25   -1    0    0    0    0  0.00000000000E+00  0.00000000000E+00  0.99999998245E-14  0.12500000000E+03  0.12500000000E+03 0.  0.
        -11    1    1    0    0    0  0.26964561600E+02 -0.18777522233E+02  0.71017221603E+01  0.33617218526E+02  0.51100000000E-03 0. -1.
         11    1    1    0    0    0  0.23166970874E+02 -0.16133227039E+02  0.61012713047E+01  0.28882781479E+02  0.51100000000E-03 0. -1.
         22    1    1    0    0    0 -0.50131532474E+02  0.34910749272E+02 -0.13202993465E+02  0.62499999995E+02  0.00000000000E+00 0. -1.
</event>
<event>
 4    1  0.1956390E-002  0.9118800E+02  0.7818608E-02  0.1130116E+00
         25   -1    0    0    0    0  0.00000000000E+00  0.00000000000E+00  0.99999998245E-14  0.12500000000E+03  0.12500000000E+03 0.  0.
        -11    1    1    0    0    0 -0.69626480943E+00 -0.93308591836E+01  0.10437619088E+02  0.14017617853E+02  0.51100000000E-03 0. -1.
         11    1    1    0    0    0 -0.24064391024E+01 -0.32277872630E+02  0.36095558931E+02  0.48482382217E+02  0.51100000000E-03 0.  1.
         22    1    1    0    0    0  0.31027039118E+01  0.41608731813E+02 -0.46533178019E+02  0.62499999930E+02  0.00000000000E+00 0.  1.
</event>
<event>
 4    1  0.1956390E-002  0.9118800E+02  0.7818608E-02  0.1130116E+00
         25   -1    0    0    0    0  0.00000000000E+00  0.00000000000E+00  0.99999998245E-14  0.12500000000E+03  0.12500000000E+03 0.  0.
        -11    1    1    0    0    0 -0.38121191891E+02  0.26901020930E+02 -0.22670215331E+02  0.51873199840E+02  0.51100000000E-03 0.  1.
         11    1    1    0    0    0 -0.78075460856E+01  0.55127312719E+01 -0.46455250725E+01  0.10626800338E+02  0.51100000000E-03 0. -1.
         22    1    1    0    0    0  0.45928737977E+02 -0.32413752202E+02  0.27315740403E+02  0.62499999822E+02  0.00000000000E+00 0.  1.
</event>
<event>
 4    1  0.1956390E-002  0.9118800E+02  0.7818608E-02  0.1130116E+00
         25   -1    0    0    0    0  0.00000000000E+00  0.00000000000E+00  0.99999998245E-14  0.12500000000E+03  0.12500000000E+03 0.  0.
        -11    1    1    0    0    0  0.29366574566E+02 -0.23471547024E+02  0.17129526953E+02  0.41312587856E+02  0.51100000000E-03 0. -1.
         11    1    1    0    0    0  0.15146760601E+02 -0.11895196026E+02  0.88315480321E+01  0.21187644657E+02  0.51100000000E-03 0.  1.
         22    1    1    0    0    0 -0.44513335167E+02  0.35366743050E+02 -0.25961074985E+02  0.62499767488E+02  0.00000000000E+00 0. -1.
</event>
<event>
 4    1  0.1956390E-002  0.9118800E+02  0.7818608E-02  0.1130116E+00
         25   -1    0    0    0    0  0.00000000000E+00  0.00000000000E+00  0.99999998245E-14  0.12500000000E+03  0.12500000000E+03 0.  0.
        -11    1    1    0    0    0 -0.20059609686E+02  0.27196980305E+02  0.36353259554E+02  0.49634898599E+02  0.51100000000E-03 0. -1.
         11    1    1    0    0    0 -0.51134691016E+01  0.69934529809E+01  0.95111601121E+01  0.12865384479E+02  0.51100000000E-03 0.  1.
         22    1    1    0    0    0  0.25173078788E+02 -0.34190433286E+02 -0.45864419666E+02  0.62499716922E+02  0.00000000000E+00 0. -1.
</event>
<event>
 4    1  0.1956390E-002  0.9118800E+02  0.7818608E-02  0.1130116E+00
         25   -1    0    0    0    0  0.00000000000E+00  0.00000000000E+00  0.99999998245E-14  0.12500000000E+03  0.12500000000E+03 0.  0.
        -11    1    1    0    0    0  0.88711960083E+01  0.28981730345E+01 -0.46802203845E+01  0.10440401748E+02  0.51100000000E-03 0. -1.
         11    1    1    0    0    0  0.42196247304E+02  0.10621092094E+02 -0.28649639344E+02  0.52097338882E+02  0.51100000000E-03 0.  1.
         22    1    1    0    0    0 -0.51067443312E+02 -0.13519265128E+02  0.33329859728E+02  0.62462259370E+02  0.00000000000E+00 0.  1.
</event>
<event>
 4    1  0.1956390E-002  0.9118800E+02  0.7818608E-02  0.1130116E+00
         25   -1    0    0    0    0  0.00000000000E+00  0.00000000000E+00  0.99999998245E-14  0.12500000000E+03  0.12500000000E+03 0.  0.
        -11    1    1    0    0    0 -0.37282260759E+02 -0.46196180501E+02  0.10362099547E+01  0.59372786624E+02  0.51100000000E-03 0. -1.
         11    1    1    0    0    0  0.29439287528E+00 -0.32774503413E+01 -0.19948337432E+01  0.38480787191E+01  0.51100000000E-03 0.  1.
         22    1    1    0    0    0  0.36987867884E+02  0.49473630842E+02  0.95862378850E+00  0.61779134656E+02  0.00000000000E+00 0. -1.
</event>
<event>
 4    1  0.1956390E-002  0.9118800E+02  0.7818608E-02  0.1130116E+00
         25   -1    0    0    0    0  0.00000000000E+00  0.00000000000E+00  0.99999998245E-14  0.12500000000E+03  0.12500000000E+03 0.  0.
        -11    1    1    0    0    0  0.15571119168E+01  0.14890490583E+02 -0.13734457443E+02  0.20317151101E+02  0.51100000000E-03 0.  1.
         11    1    1    0    0    0  0.32790503583E+01  0.30917047025E+02 -0.28509246335E+02  0.42182853090E+02  0.51100000000E-03 0. -1.
         22    1    1    0    0    0 -0.48361622751E+01 -0.45807537608E+02  0.42243703778E+02  0.62499995809E+02  0.00000000000E+00 0. -1.
</event>
<event>
 4    1  0.1956390E-002  0.9118800E+02  0.7818608E-02  0.1130116E+00
         25   -1    0    0    0    0  0.00000000000E+00  0.00000000000E+00  0.99999998245E-14  0.12500000000E+03  0.12500000000E+03 0.  0.
        -11    1    1    0    0    0  0.30607635645E+02  0.30817285648E+01  0.11063064537E+02  0.32691219126E+02  0.51100000000E-03 0.  1.
         11    1    1    0    0    0  0.27901951737E+02  0.28048150493E+01  0.10108296123E+02  0.29808783085E+02  0.51100000000E-03 0. -1.
         22    1    1    0    0    0 -0.58509587383E+02 -0.58865436141E+01 -0.21171360660E+02  0.62499997789E+02  0.00000000000E+00 0. -1.
</event>
<event>
 4    1  0.1956390E-002  0.9118800E+02  0.7818608E-02  0.1130116E+00
         25   -1    0    0    0    0  0.00000000000E+00  0.00000000000E+00  0.99999998245E-14  0.12500000000E+03  0.12500000000E+03 0.  0.
        -11    1    1    0    0    0  0.67353397522E+00 -0.29964182957E+00 -0.40624521976E+00  0.84170581648E+00  0.51100000000E-03 0. -1.
         11    1    1    0    0    0  0.49783807768E+02 -0.22419703618E+02 -0.28647613533E+02  0.61658384569E+02  0.51100000000E-03 0.  1.
         22    1    1    0    0    0 -0.50457341744E+02  0.22719345448E+02  0.29053858753E+02  0.62499909615E+02  0.00000000000E+00 0.  1.
</event>
<event>
 4    1  0.1956390E-002  0.9118800E+02  0.7818608E-02  0.1130116E+00
         25   -1    0    0    0    0  0.00000000000E+00  0.00000000000E+00  0.99999998245E-14  0.12500000000E+03  0.12500000000E+03 0.  0.
        -11    1    1    0    0    0  0.44723637075E+02 -0.78987026918E+01  0.10684823305E+02  0.46655746342E+02  0.51100000000E-03 0. -1.
         11    1    1    0    0    0  0.15403589326E+02 -0.16458768268E+01  0.33912205823E+01  0.15858116280E+02  0.51100000000E-03 0.  1.
         22    1    1    0    0    0 -0.60127226401E+02  0.95445795186E+01 -0.14076043887E+02  0.62486137378E+02  0.00000000000E+00 0. -1.
</event>
<event>
 4    1  0.1956390E-002  0.9118800E+02  0.7818608E-02  0.1130116E+00
         25   -1    0    0    0    0  0.00000000000E+00  0.00000000000E+00  0.99999998245E-14  0.12500000000E+03  0.12500000000E+03 0.  0.
        -11    1    1    0    0    0 -0.16790127798E+02  0.15890140219E+02 -0.46615346763E+01  0.23582511602E+02  0.51100000000E-03 0. -1.
         11    1    1    0    0    0 -0.27720469034E+02  0.26206546462E+02 -0.77047731184E+01  0.38917489771E+02  0.51100000000E-03 0.  1.
         22    1    1    0    0    0  0.44510596832E+02 -0.42096686682E+02  0.12366307795E+02  0.62499998627E+02  0.00000000000E+00 0.  1.
</event>
<event>
 4    1  0.1956390E-002  0.9118800E+02  0.7818608E-02  0.1130116E+00
         25   -1    0    0    0    0  0.00000000000E+00  0.00000000000E+00  0.99999998245E-14  0.12500000000E+03  0.12500000000E+03 0.  0.
        -11    1    1    0    0    0  0.12162679927E+02  0.25578768191E+02 -0.28892970488E+01  0.28470198505E+02  0.51100000000E-03 0.  1.
         11    1    1    0    0    0  0.13238949610E+02  0.31067896133E+02 -0.42580218307E+01  0.34038429856E+02  0.51100000000E-03 0. -1.
         22    1    1    0    0    0 -0.25401629537E+02 -0.56646664324E+02  0.71473188795E+01  0.62491371639E+02  0.00000000000E+00 0. -1.
</event>
<event>
 4    1  0.1956390E-002  0.9118800E+02  0.7818608E-02  0.1130116E+00
         25   -1    0    0    0    0  0.00000000000E+00  0.00000000000E+00  0.99999998245E-14  0.12500000000E+03  0.12500000000E+03 0.  0.
        -11    1    1    0    0    0 -0.35215695246E+02 -0.29836965173E+02 -0.37151637637E+01  0.46305422193E+02  0.51100000000E-03 0. -1.
         11    1    1    0    0    0 -0.12329104074E+02 -0.10413657237E+02 -0.13469813048E+01  0.16194610931E+02  0.51100000000E-03 0.  1.
         22    1    1    0    0    0  0.47544799320E+02  0.40250622410E+02  0.50621450685E+01  0.62499966876E+02  0.00000000000E+00 0.  1.
</event>
<event>
 4    1  0.1956390E-002  0.9118800E+02  0.7818608E-02  0.1130116E+00
         25   -1    0    0    0    0  0.00000000000E+00  0.00000000000E+00  0.99999998245E-14  0.12500000000E+03  0.12500000000E+03 0.  0.
        -11    1    1    0    0    0  0.51383228416E+01  0.11303412130E+01 -0.10335247800E+02  0.11597300558E+02  0.51100000000E-03 0. -1.
         11    1    1    0    0    0  0.22534048921E+02  0.49518120540E+01 -0.45373792652E+02  0.50902699960E+02  0.51100000000E-03 0.  1.
         22    1    1    0    0    0 -0.27672371762E+02 -0.60821532670E+01  0.55709040451E+02  0.62499999482E+02  0.00000000000E+00 0.  1.
</event>
<event>
 4    1  0.1956390E-002  0.9118800E+02  0.7818608E-02  0.1130116E+00
         25   -1    0    0    0    0  0.00000000000E+00  0.00000000000E+00  0.99999998245E-14  0.12500000000E+03  0.12500000000E+03 0.  0.
        -11    1    1    0    0    0 -0.30574371380E+02 -0.24746331329E+01  0.33309659908E+02  0.45281888630E+02  0.51100000000E-03 0. -1.
         11    1    1    0    0    0 -0.11620130964E+02 -0.96119453507E+00  0.12669340340E+02  0.17218116141E+02  0.51100000000E-03 0.  1.
         22    1    1    0    0    0  0.42194502343E+02  0.34358276680E+01 -0.45979000249E+02  0.62499995229E+02  0.00000000000E+00 0. -1.
</event>
<event>
 4    1  0.1956390E-002  0.9118800E+02  0.7818608E-02  0.1130116E+00
         25   -1    0    0    0    0  0.00000000000E+00  0.00000000000E+00  0.99999998245E-14  0.12500000000E+03  0.12500000000E+03 0.  0.
        -11    1    1    0    0    0  0.28423997824E+02  0.90963420874E+01  0.60550880709E+01  0.30452112956E+02  0.51100000000E-03 0. -1.
         11    1    1    0    0    0  0.29629337034E+02  0.10486530612E+02  0.62791103922E+01  0.32051398798E+02  0.51100000000E-03 0.  1.
         22    1    1    0    0    0 -0.58053334858E+02 -0.19582872699E+02 -0.12334198463E+02  0.62496488246E+02  0.00000000000E+00 0.  1.
</event>
<event>
 4    1  0.1956390E-002  0.9118800E+02  0.7818608E-02  0.1130116E+00
         25   -1    0    0    0    0  0.00000000000E+00  0.00000000000E+00  0.99999998245E-14  0.12500000000E+03  0.12500000000E+03 0.  0.
        -11    1    1    0    0    0  0.24635531183E+02 -0.91933581392E+01 -0.30542902654E+02  0.40302557404E+02  0.51100000000E-03 0.  1.
         11    1    1    0    0    0  0.13319777485E+02 -0.51687680517E+01 -0.16989006110E+02  0.22198174796E+02  0.51100000000E-03 0. -1.
         22    1    1    0    0    0 -0.37955308668E+02  0.14362126191E+02  0.47531908763E+02  0.62499267800E+02  0.00000000000E+00 0.  1.
</event>
<event>
 4    1  0.1956390E-002  0.9118800E+02  0.7818608E-02  0.1130116E+00
         25   -1    0    0    0    0  0.00000000000E+00  0.00000000000E+00  0.99999998245E-14  0.12500000000E+03  0.12500000000E+03 0.  0.
        -11    1    1    0    0    0 -0.11243167217E+02  0.20690190441E+02  0.15396515824E+01  0.23597951539E+02  0.51100000000E-03 0.  1.
         11    1    1    0    0    0 -0.18537602246E+02  0.34107315094E+02  0.25333260469E+01  0.38902048546E+02  0.51100000000E-03 0. -1.
         22    1    1    0    0    0  0.29780769462E+02 -0.54797505535E+02 -0.40729776293E+01  0.62499999916E+02  0.00000000000E+00 0.  1.
</event>
<event>
 4    1  0.1956390E-002  0.9118800E+02  0.7818608E-02  0.1130116E+00
         25   -1    0    0    0    0  0.00000000000E+00  0.00000000000E+00  0.99999998245E-14  0.12500000000E+03  0.12500000000E+03 0.  0.
        -11    1    1    0    0    0 -0.37134198118E+02 -0.86132973393E+01 -0.40030855176E+02  0.55277544512E+02  0.51100000000E-03 0.  1.
         11    1    1    0    0    0 -0.48522384162E+01 -0.11257951824E+01 -0.52299360339E+01  0.72224555119E+01  0.51100000000E-03 0. -1.
         22    1    1    0    0    0  0.41986436534E+02  0.97390925217E+01  0.45260791210E+02  0.62499999976E+02  0.00000000000E+00 0.  1.
</event>
<event>
 4    1  0.1956390E-002  0.9118800E+02  0.7818608E-02  0.1130116E+00
         25   -1    0    0    0    0  0.00000000000E+00  0.00000000000E+00  0.99999998245E-14  0.12500000000E+03  0.12500000000E+03 0.  0.
        -11    1    1    0    0    0  0.33896731140E+01 -0.39178892421E+02 -0.86502263290E+01  0.40265393466E+02  0.51100000000E-03 0. -1.
         11    1    1    0    0    0  0.19071819312E+01 -0.21632854582E+02 -0.47707864334E+01  0.22234615889E+02  0.51100000000E-03 0.  1.
         22    1    1    0    0    0 -0.52968550452E+01  0.60811747004E+02  0.13421012762E+02  0.62499990644E+02  0.00000000000E+00 0. -1.
</event>
<event>
 4    1  0.1956390E-002  0.9118800E+02  0.7818608E-02  0.1130116E+00
         25   -1    0    0    0    0  0.00000000000E+00  0.00000000000E+00  0.99999998245E-14  0.12500000000E+03  0.12500000000E+03 0.  0.
        -11    1    1    0    0    0 -0.37601886402E+00  0.82878120038E+00 -0.20546652633E+00  0.93299797361E+00  0.51100000000E-03 0.  1.
         11    1    1    0    0    0  0.13333323543E+02  0.60179608012E+02  0.20097092976E+01  0.61671725036E+02  0.51100000000E-03 0. -1.
         22    1    1    0    0    0 -0.12957304679E+02 -0.61008389212E+02 -0.18042427713E+01  0.62395276991E+02  0.00000000000E+00 0. -1.
</event>
<event>
 4    1  0.1956390E-002  0.9118800E+02  0.7818608E-02  0.1130116E+00
         25   -1    0    0    0    0  0.00000000000E+00  0.00000000000E+00  0.99999998245E-14  0.12500000000E+03  0.12500000000E+03 0.  0.
        -11    1    1    0    0    0 -0.47322252338E+02  0.21661302036E+02  0.29799810617E+02  0.59971962494E+02  0.51100000000E-03 0. -1.
         11    1    1    0    0    0 -0.19976841515E+01  0.90687011313E+00  0.12561213125E+01  0.25280420061E+01  0.51100000000E-03 0.  1.
         22    1    1    0    0    0  0.49319936490E+02 -0.22568172149E+02 -0.31055931930E+02  0.62499995500E+02  0.00000000000E+00 0. -1.
</event>
<event>
 4    1  0.1956390E-002  0.9118800E+02  0.7818608E-02  0.1130116E+00
         25   -1    0    0    0    0  0.00000000000E+00  0.00000000000E+00  0.99999998245E-14  0.12500000000E+03  0.12500000000E+03 0.  0.
        -11    1    1    0    0    0  0.27919685440E+01 -0.76201883969E+00  0.99992517913E+01  0.10409649260E+02  0.51100000000E-03 0.  1.
         11    1    1    0    0    0  0.11626845246E+02 -0.32608186743E+01  0.50676477332E+02  0.52095314798E+02  0.51100000000E-03 0. -1.
         22    1    1    0    0    0 -0.14418813790E+02  0.40228375140E+01 -0.60675729124E+02  0.62495035943E+02  0.00000000000E+00 0. -1.
</event>
<event>
 4    1  0.1956390E-002  0.9118800E+02  0.7818608E-02  0.1130116E+00
         25   -1    0    0    0    0  0.00000000000E+00  0.00000000000E+00  0.99999998245E-14  0.12500000000E+03  0.12500000000E+03 0.  0.
        -11    1    1    0    0    0  0.96312143500E+01  0.30400592510E+02  0.32890152657E+02  0.45811772034E+02  0.51100000000E-03 0. -1.
         11    1    1    0    0    0  0.35076035843E+01  0.11086988563E+02  0.11969647547E+02  0.16688231211E+02  0.51100000000E-03 0.  1.
         22    1    1    0    0    0 -0.13138817934E+02 -0.41487581073E+02 -0.44859800204E+02  0.62499996755E+02  0.00000000000E+00 0. -1.
</event>
<event>
 4    1  0.1956390E-002  0.9118800E+02  0.7818608E-02  0.1130116E+00
         25   -1    0    0    0    0  0.00000000000E+00  0.00000000000E+00  0.99999998245E-14  0.12500000000E+03  0.12500000000E+03 0.  0.
        -11    1    1    0    0    0  0.16937501140E+02  0.26318359601E+02 -0.19929528267E+02  0.37104192407E+02  0.51100000000E-03 0.  1.
         11    1    1    0    0    0  0.11578167846E+02  0.18024578144E+02 -0.13638466073E+02  0.25395809596E+02  0.51100000000E-03 0. -1.
         22    1    1    0    0    0 -0.28515668986E+02 -0.44342937746E+02  0.33567994340E+02  0.62499997997E+02  0.00000000000E+00 0. -1.
</event>
<event>
 4    1  0.1956390E-002  0.9118800E+02  0.7818608E-02  0.1130116E+00
         25   -1    0    0    0    0  0.00000000000E+00  0.00000000000E+00  0.99999998245E-14  0.12500000000E+03  0.12500000000E+03 0.  0.
        -11    1    1    0    0    0  0.20594181639E+00  0.25275698514E+00  0.13306863749E+01  0.13700454791E+01  0.51100000000E-03 0.  1.
         11    1    1    0    0    0  0.99935031062E+01  0.84513319332E+01  0.59713249341E+02  0.61130739100E+02  0.51100000000E-03 0. -1.
         22    1    1    0    0    0 -0.10199444923E+02 -0.87040889184E+01 -0.61043935716E+02  0.62499215421E+02  0.00000000000E+00 0. -1.
</event>
<event>
 4    1  0.1956390E-002  0.9118800E+02  0.7818608E-02  0.1130116E+00
         25   -1    0    0    0    0  0.00000000000E+00  0.00000000000E+00  0.99999998245E-14  0.12500000000E+03  0.12500000000E+03 0.  0.
        -11    1    1    0    0    0 -0.20624047796E+02 -0.58556836313E+01  0.34358787748E+02  0.40498971272E+02  0.51100000000E-03 0. -1.
         11    1    1    0    0    0 -0.11204532246E+02 -0.31805334587E+01  0.18665152807E+02  0.22001028738E+02  0.51100000000E-03 0.  1.
         22    1    1    0    0    0  0.31828580043E+02  0.90362170900E+01 -0.53023940555E+02  0.62499999991E+02  0.00000000000E+00 0. -1.
</event>
<event>
 4    1  0.1956390E-002  0.9118800E+02  0.7818608E-02  0.1130116E+00
         25   -1    0    0    0    0  0.00000000000E+00  0.00000000000E+00  0.99999998245E-14  0.12500000000E+03  0.12500000000E+03 0.  0.
        -11    1    1    0    0    0  0.31860781765E+02  0.46398739710E+02  0.15189781646E+02  0.58298215479E+02  0.51100000000E-03 0.  1.
         11    1    1    0    0    0  0.20292864394E+01  0.36553271645E+01 -0.27005189337E+01  0.49771701704E+01  0.51100000000E-03 0. -1.
         22    1    1    0    0    0 -0.33890068204E+02 -0.50054066875E+02 -0.12489262712E+02  0.61724614350E+02  0.00000000000E+00 0.  1.
</event>
<event>
 4    1  0.1956390E-002  0.9118800E+02  0.7818608E-02  0.1130116E+00
         25   -1    0    0    0    0  0.00000000000E+00  0.00000000000E+00  0.99999998245E-14  0.12500000000E+03  0.12500000000E+03 0.  0.
        -11    1    1    0    0    0 -0.24869435815E+02 -0.39512490075E+01 -0.20838831853E+01  0.25267444981E+02  0.51100000000E-03 0. -1.
         11    1    1    0    0    0 -0.36595308972E+02 -0.61373853691E+01 -0.30658778423E+01  0.37232831549E+02  0.51100000000E-03 0.  1.
         22    1    1    0    0    0  0.61464744787E+02  0.10088634377E+02  0.51497610277E+01  0.62499723471E+02  0.00000000000E+00 0.  1.
</event>
<event>
 4    1  0.1956390E-002  0.9118800E+02  0.7818608E-02  0.1130116E+00
         25   -1    0    0    0    0  0.00000000000E+00  0.00000000000E+00  0.99999998245E-14  0.12500000000E+03  0.12500000000E+03 0.  0.
        -11    1    1    0    0    0  0.93287497216E+01 -0.10135121084E+02  0.84097551909E+01  0.16139090228E+02  0.51100000000E-03 0.  1.
         11    1    1    0    0    0  0.26784482820E+02 -0.29222695907E+02  0.24040856697E+02  0.46360945493E+02  0.51100000000E-03 0. -1.
         22    1    1    0    0    0 -0.36113232542E+02  0.39357816991E+02 -0.32450611888E+02  0.62499964279E+02  0.00000000000E+00 0. -1.
</event>
<event>
 4    1  0.1956390E-002  0.9118800E+02  0.7818608E-02  0.1130116E+00
         25   -1    0    0    0    0  0.00000000000E+00  0.00000000000E+00  0.99999998245E-14  0.12500000000E+03  0.12500000000E+03 0.  0.
        -11    1    1    0    0    0 -0.45690733771E+02 -0.11461041092E+02  0.25793768980E+02  0.53705838918E+02  0.51100000000E-03 0.  1.
         11    1    1    0    0    0 -0.32319601056E+01 -0.10411731192E+02 -0.11467671515E+02  0.15822680012E+02  0.51100000000E-03 0. -1.
         22    1    1    0    0    0  0.48922693876E+02  0.21872772284E+02 -0.14326097465E+02  0.55471481070E+02  0.00000000000E+00 0.  1.
</event>
<event>
 4    1  0.1956390E-002  0.9118800E+02  0.7818608E-02  0.1130116E+00
         25   -1    0    0    0    0  0.00000000000E+00  0.00000000000E+00  0.99999998245E-14  0.12500000000E+03  0.12500000000E+03 0.  0.
        -11    1    1    0    0    0  0.16042235634E+02 -0.43038637856E+02 -0.32840472078E+02  0.56463920155E+02  0.51100000000E-03 0.  1.
         11    1    1    0    0    0  0.17329413257E+01 -0.45844131372E+01 -0.35234461638E+01  0.60361082314E+01  0.51100000000E-03 0. -1.
         22    1    1    0    0    0 -0.17775176960E+02  0.47623050993E+02  0.36363918242E+02  0.62499971614E+02  0.00000000000E+00 0.  1.
</event>
<event>
 4    1  0.1956390E-002  0.9118800E+02  0.7818608E-02  0.1130116E+00
         25   -1    0    0    0    0  0.00000000000E+00  0.00000000000E+00  0.99999998245E-14  0.12500000000E+03  0.12500000000E+03 0.  0.
        -11    1    1    0    0    0  0.44616948220E+02  0.64249949926E+01 -0.30025470447E+02  0.54161623913E+02  0.51100000000E-03 0.  1.
         11    1    1    0    0    0  0.68246090900E+01  0.10081352352E+01 -0.46839655084E+01  0.83385345852E+01  0.51100000000E-03 0. -1.
         22    1    1    0    0    0 -0.51441557310E+02 -0.74331302278E+01  0.34709435955E+02  0.62499841502E+02  0.00000000000E+00 0.  1.
</event>
<event>
 4    1  0.1956390E-002  0.9118800E+02  0.7818608E-02  0.1130116E+00
         25   -1    0    0    0    0  0.00000000000E+00  0.00000000000E+00  0.99999998245E-14  0.12500000000E+03  0.12500000000E+03 0.  0.
        -11    1    1    0    0    0 -0.16205914461E+02  0.13242087178E+02  0.54722065567E+01  0.21631680037E+02  0.51100000000E-03 0. -1.
         11    1    1    0    0    0 -0.30624395025E+02  0.25022063921E+02  0.10308369980E+02  0.40868322028E+02  0.51100000000E-03 0.  1.
         22    1    1    0    0    0  0.46830309486E+02 -0.38264151100E+02 -0.15780576537E+02  0.62499997934E+02  0.00000000000E+00 0.  1.
</event>
<event>
 4    1  0.1956390E-002  0.9118800E+02  0.7818608E-02  0.1130116E+00
         25   -1    0    0    0    0  0.00000000000E+00  0.00000000000E+00  0.99999998245E-14  0.12500000000E+03  0.12500000000E+03 0.  0.
        -11    1    1    0    0    0  0.53314076209E+01  0.35142542435E+02 -0.47540268859E+02  0.59359071417E+02  0.51100000000E-03 0. -1.
         11    1    1    0    0    0  0.25496913014E+00  0.18972085022E+01 -0.24904509099E+01  0.31411391809E+01  0.51100000000E-03 0.  1.
         22    1    1    0    0    0 -0.55863767511E+01 -0.37039750937E+02  0.50030719769E+02  0.62499789402E+02  0.00000000000E+00 0. -1.
</event>
<event>
 4    1  0.1956390E-002  0.9118800E+02  0.7818608E-02  0.1130116E+00
         25   -1    0    0    0    0  0.00000000000E+00  0.00000000000E+00  0.99999998245E-14  0.12500000000E+03  0.12500000000E+03 0.  0.
        -11    1    1    0    0    0  0.93179244511E+01 -0.46891936962E+02  0.28633206117E+02  0.55727353794E+02  0.51100000000E-03 0.  1.
         11    1    1    0    0    0 -0.89122768255E+01  0.37165108316E+02 -0.39308102164E+02  0.54825184453E+02  0.51100000000E-03 0. -1.
         22    1    1    0    0    0 -0.40564762559E+00  0.97268286460E+01  0.10674896046E+02  0.14447461753E+02  0.00000000000E+00 0. -1.
</event>
<event>
 4    1  0.1956390E-002  0.9118800E+02  0.7818608E-02  0.1130116E+00
         25   -1    0    0    0    0  0.00000000000E+00  0.00000000000E+00  0.99999998245E-14  0.12500000000E+03  0.12500000000E+03 0.  0.
        -11    1    1    0    0    0 -0.15196722188E+02 -0.26119474710E+02  0.24462192675E+02  0.38878865661E+02  0.51100000000E-03 0.  1.
         11    1    1    0    0    0 -0.92308035801E+01 -0.15870375225E+02  0.14862080767E+02  0.23621134383E+02  0.51100000000E-03 0.  1.
         22    1    1    0    0    0  0.24427525768E+02  0.41989849935E+02 -0.39324273442E+02  0.62499999956E+02  0.00000000000E+00 0.  1.
</event>
<event>
 4    1  0.1956390E-002  0.9118800E+02  0.7818608E-02  0.1130116E+00
         25   -1    0    0    0    0  0.00000000000E+00  0.00000000000E+00  0.99999998245E-14  0.12500000000E+03  0.12500000000E+03 0.  0.
        -11    1    1    0    0    0 -0.23497357117E+02 -0.20050234575E+01  0.17066032775E+02  0.29110056432E+02  0.51100000000E-03 0.  1.
         11    1    1    0    0    0 -0.27004344012E+02 -0.22790645217E+01  0.19505421570E+02  0.33389971571E+02  0.51100000000E-03 0. -1.
         22    1    1    0    0    0  0.50501701129E+02  0.42840879792E+01 -0.36571454345E+02  0.62499971997E+02  0.00000000000E+00 0.  1.
</event>
<event>
 4    1  0.1956390E-002  0.9118800E+02  0.7818608E-02  0.1130116E+00
         25   -1    0    0    0    0  0.00000000000E+00  0.00000000000E+00  0.99999998245E-14  0.12500000000E+03  0.12500000000E+03 0.  0.
        -11    1    1    0    0    0 -0.57889051455E+01  0.12415656798E+02  0.36811403108E+01  0.14184877538E+02  0.51100000000E-03 0.  1.
         11    1    1    0    0    0 -0.19393734448E+02  0.42337134315E+02  0.12877359571E+02  0.48315383343E+02  0.51100000000E-03 0. -1.
         22    1    1    0    0    0  0.25182639593E+02 -0.54752791113E+02 -0.16558499881E+02  0.62499739119E+02  0.00000000000E+00 0. -1.
</event>
<event>
 4    1  0.1956390E-002  0.9118800E+02  0.7818608E-02  0.1130116E+00
         25   -1    0    0    0    0  0.00000000000E+00  0.00000000000E+00  0.99999998245E-14  0.12500000000E+03  0.12500000000E+03 0.  0.
        -11    1    1    0    0    0 -0.35203903575E+01 -0.13819854897E+02  0.95478777185E+01  0.17162269862E+02  0.51100000000E-03 0. -1.
         11    1    1    0    0    0 -0.93211776845E+01 -0.36506968656E+02  0.25216398007E+02  0.45337730894E+02  0.51100000000E-03 0.  1.
         22    1    1    0    0    0  0.12841568042E+02  0.50326823553E+02 -0.34764275726E+02  0.62499999244E+02  0.00000000000E+00 0.  1.
</event>
<event>
 4    1  0.1956390E-002  0.9118800E+02  0.7818608E-02  0.1130116E+00
         25   -1    0    0    0    0  0.00000000000E+00  0.00000000000E+00  0.99999998245E-14  0.12500000000E+03  0.12500000000E+03 0.  0.
        -11    1    1    0    0    0  0.75361788128E+01 -0.33388697351E+02 -0.32856626814E+02  0.47446359478E+02  0.51100000000E-03 0. -1.
         11    1    1    0    0    0  0.23909968240E+01 -0.10593475433E+02 -0.10424658522E+02  0.15053640527E+02  0.51100000000E-03 0.  1.
         22    1    1    0    0    0 -0.99271756368E+01  0.43982172784E+02  0.43281285337E+02  0.62499999994E+02  0.00000000000E+00 0.  1.
</event>
<event>
 4    1  0.1956390E-002  0.9118800E+02  0.7818608E-02  0.1130116E+00
         25   -1    0    0    0    0  0.00000000000E+00  0.00000000000E+00  0.99999998245E-14  0.12500000000E+03  0.12500000000E+03 0.  0.
        -11    1    1    0    0    0  0.29284574466E+02 -0.18534323653E+02 -0.10431532526E+02  0.36192876731E+02  0.51100000000E-03 0.  1.
         11    1    1    0    0    0  0.22746160998E+02 -0.11693569396E+02 -0.63192829591E+01  0.26345032601E+02  0.51100000000E-03 0. -1.
         22    1    1    0    0    0 -0.52030735465E+02  0.30227893049E+02  0.16750815485E+02  0.62462090668E+02  0.00000000000E+00 0.  1.
</event>
<event>
 4    1  0.1956390E-002  0.9118800E+02  0.7818608E-02  0.1130116E+00
         25   -1    0    0    0    0  0.00000000000E+00  0.00000000000E+00  0.99999998245E-14  0.12500000000E+03  0.12500000000E+03 0.  0.
        -11    1    1    0    0    0  0.28315542527E+02  0.10662293720E+02  0.26090521697E+02  0.39952093545E+02  0.51100000000E-03 0.  1.
         11    1    1    0    0    0  0.15980351603E+02  0.60180228381E+01  0.14724803880E+02  0.22547906461E+02  0.51100000000E-03 0. -1.
         22    1    1    0    0    0 -0.44295894130E+02 -0.16680316559E+02 -0.40815325577E+02  0.62499999993E+02  0.00000000000E+00 0.  1.
</event>
<event>
 4    1  0.1956390E-002  0.9118800E+02  0.7818608E-02  0.1130116E+00
         25   -1    0    0    0    0  0.00000000000E+00  0.00000000000E+00  0.99999998245E-14  0.12500000000E+03  0.12500000000E+03 0.  0.
        -11    1    1    0    0    0 -0.17001256888E+01 -0.47418279945E+02  0.69845824391E-01  0.47448799553E+02  0.51100000000E-03 0. -1.
         11    1    1    0    0    0 -0.53988636038E+00 -0.15041498394E+02  0.21993842391E-01  0.15051200457E+02  0.51100000000E-03 0. -1.
         22    1    1    0    0    0  0.22400120492E+01  0.62459778339E+02 -0.91839666782E-01  0.62499999990E+02  0.00000000000E+00 0. -1.
</event>
<event>
 4    1  0.1956390E-002  0.9118800E+02  0.7818608E-02  0.1130116E+00
         25   -1    0    0    0    0  0.00000000000E+00  0.00000000000E+00  0.99999998245E-14  0.12500000000E+03  0.12500000000E+03 0.  0.
        -11    1    1    0    0    0  0.40100340185E+01  0.90410407937E+01 -0.45819059846E+01  0.10900213492E+02  0.51100000000E-03 0. -1.
         11    1    1    0    0    0  0.19433742843E+02  0.46259697568E+02 -0.12390246202E+02  0.51683151812E+02  0.51100000000E-03 0.  1.
         22    1    1    0    0    0 -0.23443776861E+02 -0.55300738362E+02  0.16972152187E+02  0.62416634696E+02  0.00000000000E+00 0.  1.
</event>
<event>
 4    1  0.1956390E-002  0.9118800E+02  0.7818608E-02  0.1130116E+00
         25   -1    0    0    0    0  0.00000000000E+00  0.00000000000E+00  0.99999998245E-14  0.12500000000E+03  0.12500000000E+03 0.  0.
        -11    1    1    0    0    0  0.15651212311E+01  0.12210124691E+01  0.44477501152E+02  0.44521776524E+02  0.51100000000E-03 0. -1.
         11    1    1    0    0    0  0.49326062738E+01 -0.13233657760E+02  0.14321572860E+02  0.20113869638E+02  0.51100000000E-03 0.  1.
         22    1    1    0    0    0 -0.64977275049E+01  0.12012645291E+02 -0.58799074012E+02  0.60364353838E+02  0.00000000000E+00 0. -1.
</event>
<event>
 4    1  0.1956390E-002  0.9118800E+02  0.7818608E-02  0.1130116E+00
         25   -1    0    0    0    0  0.00000000000E+00  0.00000000000E+00  0.99999998245E-14  0.12500000000E+03  0.12500000000E+03 0.  0.
        -11    1    1    0    0    0  0.13231772574E+01 -0.18918511202E+02 -0.11901771992E+01  0.19002036370E+02  0.51100000000E-03 0.  1.
         11    1    1    0    0    0  0.41693289901E+02 -0.21414732503E+02  0.33486625432E+01  0.46990794120E+02  0.51100000000E-03 0. -1.
         22    1    1    0    0    0 -0.43016467159E+02  0.40333243705E+02 -0.21584853440E+01  0.59007169510E+02  0.00000000000E+00 0. -1.
</event>
<event>
 4    1  0.1956390E-002  0.9118800E+02  0.7818608E-02  0.1130116E+00
         25   -1    0    0    0    0  0.00000000000E+00  0.00000000000E+00  0.99999998245E-14  0.12500000000E+03  0.12500000000E+03 0.  0.
        -11    1    1    0    0    0  0.79799620902E+01 -0.60946956648E+01 -0.24286288670E+01  0.10330699330E+02  0.51100000000E-03 0. -1.
         11    1    1    0    0    0  0.22193360655E+02 -0.36885840900E+02  0.32696030546E+02  0.54056830556E+02  0.51100000000E-03 0.  1.
         22    1    1    0    0    0 -0.30173322745E+02  0.42980536565E+02 -0.30267401679E+02  0.60612470114E+02  0.00000000000E+00 0.  1.
</event>
<event>
 4    1  0.1956390E-002  0.9118800E+02  0.7818608E-02  0.1130116E+00
         25   -1    0    0    0    0  0.00000000000E+00  0.00000000000E+00  0.99999998245E-14  0.12500000000E+03  0.12500000000E+03 0.  0.
        -11    1    1    0    0    0  0.36186734558E+02  0.96221348805E+01  0.71289323304E+00  0.37450947313E+02  0.51100000000E-03 0.  1.
         11    1    1    0    0    0  0.19824308780E+02  0.31333922528E+01  0.18176705249E+02  0.27077924211E+02  0.51100000000E-03 0. -1.
         22    1    1    0    0    0 -0.56011043338E+02 -0.12755527133E+02 -0.18889598482E+02  0.60471128475E+02  0.00000000000E+00 0.  1.
</event>
<event>
 4    1  0.1956390E-002  0.9118800E+02  0.7818608E-02  0.1130116E+00
         25   -1    0    0    0    0  0.00000000000E+00  0.00000000000E+00  0.99999998245E-14  0.12500000000E+03  0.12500000000E+03 0.  0.
        -11    1    1    0    0    0  0.39849568990E+01 -0.14705401109E+02 -0.26619033216E+02  0.30670859670E+02  0.51100000000E-03 0.  1.
         11    1    1    0    0    0  0.56490659307E+01 -0.19078630882E+02 -0.24961430890E+02  0.31921452576E+02  0.51100000000E-03 0. -1.
         22    1    1    0    0    0 -0.96340228297E+01  0.33784031991E+02  0.51580464106E+02  0.62407687754E+02  0.00000000000E+00 0. -1.
</event>
<event>
 4    1  0.1956390E-002  0.9118800E+02  0.7818608E-02  0.1130116E+00
         25   -1    0    0    0    0  0.00000000000E+00  0.00000000000E+00  0.99999998245E-14  0.12500000000E+03  0.12500000000E+03 0.  0.
        -11    1    1    0    0    0  0.21338059347E+02 -0.24959023130E+01 -0.11798326883E+01  0.21515908312E+02  0.51100000000E-03 0.  1.
         11    1    1    0    0    0  0.40644947726E+02 -0.47580151031E+01 -0.22461724995E+01  0.40984091725E+02  0.51100000000E-03 0. -1.
         22    1    1    0    0    0 -0.61983007074E+02  0.72539174161E+01  0.34260051877E+01  0.62499999962E+02  0.00000000000E+00 0.  1.
</event>
<event>
 4    1  0.1956390E-002  0.9118800E+02  0.7818608E-02  0.1130116E+00
         25   -1    0    0    0    0  0.00000000000E+00  0.00000000000E+00  0.99999998245E-14  0.12500000000E+03  0.12500000000E+03 0.  0.
        -11    1    1    0    0    0 -0.19337963686E+02 -0.34739228625E+02  0.21317324434E+02  0.45113181735E+02  0.51100000000E-03 0. -1.
         11    1    1    0    0    0 -0.67619074661E+01 -0.13682896967E+02  0.83406006762E+01  0.17392834211E+02  0.51100000000E-03 0.  1.
         22    1    1    0    0    0  0.26099871152E+02  0.48422125592E+02 -0.29657925111E+02  0.62493984054E+02  0.00000000000E+00 0. -1.
</event>
<event>
 4    1  0.1956390E-002  0.9118800E+02  0.7818608E-02  0.1130116E+00
         25   -1    0    0    0    0  0.00000000000E+00  0.00000000000E+00  0.99999998245E-14  0.12500000000E+03  0.12500000000E+03 0.  0.
        -11    1    1    0    0    0  0.54388319099E+00  0.12548774054E+02 -0.16978920044E+02  0.21119925788E+02  0.51100000000E-03 0. -1.
         11    1    1    0    0    0  0.10677106869E+01  0.24592832202E+02 -0.33262037682E+02  0.41380074345E+02  0.51100000000E-03 0.  1.
         22    1    1    0    0    0 -0.16115938779E+01 -0.37141606256E+02  0.50240957726E+02  0.62499999866E+02  0.00000000000E+00 0.  1.
</event>
<event>
 4    1  0.1956390E-002  0.9118800E+02  0.7818608E-02  0.1130116E+00
         25   -1    0    0    0    0  0.00000000000E+00  0.00000000000E+00  0.99999998245E-14  0.12500000000E+03  0.12500000000E+03 0.  0.
        -11    1    1    0    0    0  0.13091194811E+01 -0.10758618440E+01  0.54858681063E+01  0.57416044503E+01  0.51100000000E-03 0. -1.
         11    1    1    0    0    0  0.15764801510E+02 -0.52110877132E+01  0.54291335730E+02  0.56773528492E+02  0.51100000000E-03 0.  1.
         22    1    1    0    0    0 -0.17073920991E+02  0.62869495573E+01 -0.59777203836E+02  0.62484867058E+02  0.00000000000E+00 0.  1.
</event>
<event>
 4    1  0.1956390E-002  0.9118800E+02  0.7818608E-02  0.1130116E+00
         25   -1    0    0    0    0  0.00000000000E+00  0.00000000000E+00  0.99999998245E-14  0.12500000000E+03  0.12500000000E+03 0.  0.
        -11    1    1    0    0    0 -0.19650114055E+02  0.10504463221E+02 -0.21657954386E+02  0.31073102813E+02  0.51100000000E-03 0. -1.
         11    1    1    0    0    0 -0.19110133146E+02  0.14617709530E+02 -0.20334743338E+02  0.31502006406E+02  0.51100000000E-03 0.  1.
         22    1    1    0    0    0  0.38760247202E+02 -0.25122172751E+02  0.41992697724E+02  0.62424890781E+02  0.00000000000E+00 0. -1.
</event>
<event>
 4    1  0.1956390E-002  0.9118800E+02  0.7818608E-02  0.1130116E+00
         25   -1    0    0    0    0  0.00000000000E+00  0.00000000000E+00  0.99999998245E-14  0.12500000000E+03  0.12500000000E+03 0.  0.
        -11    1    1    0    0    0 -0.84653528281E+00 -0.12088043400E+01  0.12980554385E+00  0.14814451248E+01  0.51100000000E-03 0. -1.
         11    1    1    0    0    0 -0.35055239990E+02 -0.49694729530E+02  0.49829849582E+01  0.61018572035E+02  0.51100000000E-03 0.  1.
         22    1    1    0    0    0  0.35901775273E+02  0.50903533870E+02 -0.51127905020E+01  0.62499982840E+02  0.00000000000E+00 0.  1.
</event>
<event>
 4    1  0.1956390E-002  0.9118800E+02  0.7818608E-02  0.1130116E+00
         25   -1    0    0    0    0  0.00000000000E+00  0.00000000000E+00  0.99999998245E-14  0.12500000000E+03  0.12500000000E+03 0.  0.
        -11    1    1    0    0    0 -0.44330450051E+02 -0.13987114965E+02 -0.16971996725E+02  0.49486127954E+02  0.51100000000E-03 0.  1.
         11    1    1    0    0    0 -0.11659372019E+02 -0.36744606429E+01 -0.44629872656E+01  0.13013872310E+02  0.51100000000E-03 0. -1.
         22    1    1    0    0    0  0.55989822070E+02  0.17661575608E+02  0.21434983991E+02  0.62499999737E+02  0.00000000000E+00 0.  1.
</event>
<event>
 4    1  0.1956390E-002  0.9118800E+02  0.7818608E-02  0.1130116E+00
         25   -1    0    0    0    0  0.00000000000E+00  0.00000000000E+00  0.99999998245E-14  0.12500000000E+03  0.12500000000E+03 0.  0.
        -11    1    1    0    0    0 -0.14755439654E+01 -0.26938350156E+01  0.41151973694E+01  0.51350585913E+01  0.51100000000E-03 0. -1.
         11    1    1    0    0    0 -0.51437140600E+01 -0.57779490558E+02 -0.95471734054E+01  0.58788398887E+02  0.51100000000E-03 0.  1.
         22    1    1    0    0    0  0.66192580253E+01  0.60473325573E+02  0.54319760360E+01  0.61076542521E+02  0.00000000000E+00 0.  1.
</event>
<event>
 4    1  0.1956390E-002  0.9118800E+02  0.7818608E-02  0.1130116E+00
         25   -1    0    0    0    0  0.00000000000E+00  0.00000000000E+00  0.99999998245E-14  0.12500000000E+03  0.12500000000E+03 0.  0.
        -11    1    1    0    0    0 -0.57764236329E+00 -0.32708661837E+01 -0.12591816314E+01  0.35521507476E+01  0.51100000000E-03 0.  1.
         11    1    1    0    0    0 -0.96343811517E+01 -0.54244647647E+02 -0.20965354121E+02  0.58947851294E+02  0.51100000000E-03 0. -1.
         22    1    1    0    0    0  0.10212023515E+02  0.57515513830E+02  0.22224535752E+02  0.62499997959E+02  0.00000000000E+00 0. -1.
</event>
<event>
 4    1  0.1956390E-002  0.9118800E+02  0.7818608E-02  0.1130116E+00
         25   -1    0    0    0    0  0.00000000000E+00  0.00000000000E+00  0.99999998245E-14  0.12500000000E+03  0.12500000000E+03 0.  0.
        -11    1    1    0    0    0 -0.14230746014E+01 -0.17049140537E+02 -0.10564291934E+02  0.20107277258E+02  0.51100000000E-03 0. -1.
         11    1    1    0    0    0 -0.28623986000E+02 -0.33165770350E+02 -0.56429150019E+01  0.44171748748E+02  0.51100000000E-03 0.  1.
         22    1    1    0    0    0  0.30047060602E+02  0.50214910887E+02  0.16207206936E+02  0.60720973995E+02  0.00000000000E+00 0.  1.
</event>
<event>
 4    1  0.1956390E-002  0.9118800E+02  0.7818608E-02  0.1130116E+00
         25   -1    0    0    0    0  0.00000000000E+00  0.00000000000E+00  0.99999998245E-14  0.12500000000E+03  0.12500000000E+03 0.  0.
        -11    1    1    0    0    0 -0.15694564123E+02 -0.40286142305E+02  0.40832698309E+02  0.59469335428E+02  0.51100000000E-03 0.  1.
         11    1    1    0    0    0 -0.52141244861E+00 -0.15880706585E+01  0.25786926987E+01  0.30730271157E+01  0.51100000000E-03 0. -1.
         22    1    1    0    0    0  0.16215976572E+02  0.41874212963E+02 -0.43411391007E+02  0.62457637457E+02  0.00000000000E+00 0.  1.
</event>
<event>
 4    1  0.1956390E-002  0.9118800E+02  0.7818608E-02  0.1130116E+00
         25   -1    0    0    0    0  0.00000000000E+00  0.00000000000E+00  0.99999998245E-14  0.12500000000E+03  0.12500000000E+03 0.  0.
        -11    1    1    0    0    0  0.79846490710E+01  0.38680296736E+02 -0.40670232296E+01  0.39704667919E+02  0.51100000000E-03 0. -1.
         11    1    1    0    0    0  0.45889362658E+01  0.22206251121E+02 -0.23347906258E+01  0.22795332251E+02  0.51100000000E-03 0. -1.
         22    1    1    0    0    0 -0.12573585337E+02 -0.60886547857E+02  0.64018138554E+01  0.62499999830E+02  0.00000000000E+00 0. -1.
</event>
<event>
 4    1  0.1956390E-002  0.9118800E+02  0.7818608E-02  0.1130116E+00
         25   -1    0    0    0    0  0.00000000000E+00  0.00000000000E+00  0.99999998245E-14  0.12500000000E+03  0.12500000000E+03 0.  0.
        -11    1    1    0    0    0  0.40993694956E+02 -0.20558603106E+02  0.23415489835E+02  0.51491983378E+02  0.51100000000E-03 0.  1.
         11    1    1    0    0    0  0.87635619221E+01 -0.43949043657E+01  0.50061190506E+01  0.11008016631E+02  0.51100000000E-03 0.  1.
         22    1    1    0    0    0 -0.49757256878E+02  0.24953507471E+02 -0.28421608885E+02  0.62499999990E+02  0.00000000000E+00 0.  1.
</event>
<event>
 4    1  0.1956390E-002  0.9118800E+02  0.7818608E-02  0.1130116E+00
         25   -1    0    0    0    0  0.00000000000E+00  0.00000000000E+00  0.99999998245E-14  0.12500000000E+03  0.12500000000E+03 0.  0.
        -11    1    1    0    0    0 -0.11410924833E+02  0.47763197544E+01 -0.30415918921E+02  0.32835203061E+02  0.51100000000E-03 0.  1.
         11    1    1    0    0    0 -0.10328901670E+02  0.54765896425E+01 -0.27270622091E+02  0.29670963472E+02  0.51100000000E-03 0. -1.
         22    1    1    0    0    0  0.21739826503E+02 -0.10252909397E+02  0.57686541013E+02  0.62493833468E+02  0.00000000000E+00 0.  1.
</event>
<event>
 4    1  0.1956390E-002  0.9118800E+02  0.7818608E-02  0.1130116E+00
         25   -1    0    0    0    0  0.00000000000E+00  0.00000000000E+00  0.99999998245E-14  0.12500000000E+03  0.12500000000E+03 0.  0.
        -11    1    1    0    0    0  0.56525637604E+01  0.64807575049E+01 -0.13478864877E+02  0.15988480026E+02  0.51100000000E-03 0. -1.
         11    1    1    0    0    0  0.36713599397E+02  0.53439616232E+01 -0.29587015168E+02  0.47453532781E+02  0.51100000000E-03 0.  1.
         22    1    1    0    0    0 -0.42366163158E+02 -0.11824719128E+02  0.43065880046E+02  0.61557987193E+02  0.00000000000E+00 0.  1.
</event>
<event>
 4    1  0.1956390E-002  0.9118800E+02  0.7818608E-02  0.1130116E+00
         25   -1    0    0    0    0  0.00000000000E+00  0.00000000000E+00  0.99999998245E-14  0.12500000000E+03  0.12500000000E+03 0.  0.
        -11    1    1    0    0    0  0.31303191032E+02  0.21405441756E+02 -0.44826666496E+02  0.58715523799E+02  0.51100000000E-03 0.  1.
         11    1    1    0    0    0  0.19999921497E+01  0.13678140739E+01 -0.29071874613E+01  0.37845241624E+01  0.51100000000E-03 0. -1.
         22    1    1    0    0    0 -0.33303183182E+02 -0.22773255830E+02  0.47733853958E+02  0.62499952038E+02  0.00000000000E+00 0.  1.
</event>
<event>
 4    1  0.1956390E-002  0.9118800E+02  0.7818608E-02  0.1130116E+00
         25   -1    0    0    0    0  0.00000000000E+00  0.00000000000E+00  0.99999998245E-14  0.12500000000E+03  0.12500000000E+03 0.  0.
        -11    1    1    0    0    0  0.29671485158E+02 -0.39842870736E+02  0.40291297151E+01  0.49840598576E+02  0.51100000000E-03 0.  1.
         11    1    1    0    0    0  0.75370261710E+01 -0.10119584756E+02  0.10235650268E+01  0.12659401438E+02  0.51100000000E-03 0.  1.
         22    1    1    0    0    0 -0.37208511329E+02  0.49962455492E+02 -0.50526947419E+01  0.62499999986E+02  0.00000000000E+00 0.  1.
</event>
<event>
 4    1  0.1956390E-002  0.9118800E+02  0.7818608E-02  0.1130116E+00
         25   -1    0    0    0    0  0.00000000000E+00  0.00000000000E+00  0.99999998245E-14  0.12500000000E+03  0.12500000000E+03 0.  0.
        -11    1    1    0    0    0 -0.18647631335E+01 -0.14981838382E+00 -0.27436900650E+01  0.33207864319E+01  0.51100000000E-03 0.  1.
         11    1    1    0    0    0 -0.37915123776E+02 -0.51037275332E+01 -0.45162870455E+02  0.59188592767E+02  0.51100000000E-03 0. -1.
         22    1    1    0    0    0  0.39779886910E+02  0.52535459171E+01  0.47906560520E+02  0.62490620801E+02  0.00000000000E+00 0. -1.
</event>
<event>
 4    1  0.1956390E-002  0.9118800E+02  0.7818608E-02  0.1130116E+00
         25   -1    0    0    0    0  0.00000000000E+00  0.00000000000E+00  0.99999998245E-14  0.12500000000E+03  0.12500000000E+03 0.  0.
        -11    1    1    0    0    0  0.64369647679E+01 -0.19124850004E+02  0.48500397009E+01  0.20753729507E+02  0.51100000000E-03 0.  1.
         11    1    1    0    0    0  0.12950087721E+02 -0.38468969977E+02  0.97562635250E+01  0.41746270508E+02  0.51100000000E-03 0. -1.
         22    1    1    0    0    0 -0.19387052489E+02  0.57593819981E+02 -0.14606303226E+02  0.62499999985E+02  0.00000000000E+00 0. -1.
</event>
<event>
 4    1  0.1956390E-002  0.9118800E+02  0.7818608E-02  0.1130116E+00
         25   -1    0    0    0    0  0.00000000000E+00  0.00000000000E+00  0.99999998245E-14  0.12500000000E+03  0.12500000000E+03 0.  0.
        -11    1    1    0    0    0  0.20695754629E+01  0.10607506360E+00  0.12796426870E+01  0.24355451511E+01  0.51100000000E-03 0. -1.
         11    1    1    0    0    0  0.51039156626E+02  0.26204942561E+01  0.31557506881E+02  0.60064454880E+02  0.51100000000E-03 0. -1.
         22    1    1    0    0    0 -0.53108732089E+02 -0.27265693197E+01 -0.32837149568E+02  0.62499999969E+02  0.00000000000E+00 0. -1.
</event>
<event>
 4    1  0.1956390E-002  0.9118800E+02  0.7818608E-02  0.1130116E+00
         25   -1    0    0    0    0  0.00000000000E+00  0.00000000000E+00  0.99999998245E-14  0.12500000000E+03  0.12500000000E+03 0.  0.
        -11    1    1    0    0    0 -0.15909652824E+02  0.45190137284E+02  0.16364309437E+02  0.50626635128E+02  0.51100000000E-03 0. -1.
         11    1    1    0    0    0 -0.37578393836E+01  0.10589456169E+02  0.38365574974E+01  0.11873378309E+02  0.51100000000E-03 0.  1.
         22    1    1    0    0    0  0.19667492208E+02 -0.55779593453E+02 -0.20200866934E+02  0.62499986563E+02  0.00000000000E+00 0. -1.
</event>
<event>
 4    1  0.1956390E-002  0.9118800E+02  0.7818608E-02  0.1130116E+00
         25   -1    0    0    0    0  0.00000000000E+00  0.00000000000E+00  0.99999998245E-14  0.12500000000E+03  0.12500000000E+03 0.  0.
        -11    1    1    0    0    0  0.48699434744E+00  0.12790093024E+02  0.92517689746E+01  0.15793000743E+02  0.51100000000E-03 0.  1.
         11    1    1    0    0    0  0.24197881692E+01  0.37355486848E+02  0.27936480826E+02  0.46709043382E+02  0.51100000000E-03 0. -1.
         22    1    1    0    0    0 -0.29067825166E+01 -0.50145579872E+02 -0.37188249801E+02  0.62497955875E+02  0.00000000000E+00 0. -1.
</event>
<event>
 4    1  0.1956390E-002  0.9118800E+02  0.7818608E-02  0.1130116E+00
         25   -1    0    0    0    0  0.00000000000E+00  0.00000000000E+00  0.99999998245E-14  0.12500000000E+03  0.12500000000E+03 0.  0.
        -11    1    1    0    0    0  0.54592404828E+00  0.33388783074E+02  0.41580818285E+02  0.53329853907E+02  0.51100000000E-03 0. -1.
         11    1    1    0    0    0  0.10204515542E+00  0.57342289192E+01  0.71554068575E+01  0.91701495118E+01  0.51100000000E-03 0.  1.
         22    1    1    0    0    0 -0.64796920370E+00 -0.39123011993E+02 -0.48736225142E+02  0.62499996581E+02  0.00000000000E+00 0. -1.
</event>
<event>
 4    1  0.1956390E-002  0.9118800E+02  0.7818608E-02  0.1130116E+00
         25   -1    0    0    0    0  0.00000000000E+00  0.00000000000E+00  0.99999998245E-14  0.12500000000E+03  0.12500000000E+03 0.  0.
        -11    1    1    0    0    0  0.33919593885E+02  0.42964778339E+02  0.77778570842E+00  0.54745922021E+02  0.51100000000E-03 0.  1.
         11    1    1    0    0    0 -0.31700769007E+01  0.67970349313E+01 -0.84030963559E+01  0.11263263295E+02  0.51100000000E-03 0. -1.
         22    1    1    0    0    0 -0.30749516984E+02 -0.49761813270E+02  0.76253106475E+01  0.58990814685E+02  0.00000000000E+00 0.  1.
</event>
<event>
 4    1  0.1956390E-002  0.9118800E+02  0.7818608E-02  0.1130116E+00
         25   -1    0    0    0    0  0.00000000000E+00  0.00000000000E+00  0.99999998245E-14  0.12500000000E+03  0.12500000000E+03 0.  0.
        -11    1    1    0    0    0 -0.41049025433E+01  0.52077005522E+01 -0.76791904010E+01  0.10145951676E+02  0.51100000000E-03 0.  1.
         11    1    1    0    0    0 -0.21182967615E+02  0.26872876360E+02 -0.39624194325E+02  0.52354048335E+02  0.51100000000E-03 0.  1.
         22    1    1    0    0    0  0.25287870158E+02 -0.32080576912E+02  0.47303384726E+02  0.62499999990E+02  0.00000000000E+00 0.  1.
</event>
<event>
 4    1  0.1956390E-002  0.9118800E+02  0.7818608E-02  0.1130116E+00
         25   -1    0    0    0    0  0.00000000000E+00  0.00000000000E+00  0.99999998245E-14  0.12500000000E+03  0.12500000000E+03 0.  0.
        -11    1    1    0    0    0  0.11894141485E+02  0.11959348547E+02  0.74248135433E+01  0.18428903270E+02  0.51100000000E-03 0. -1.
         11    1    1    0    0    0  0.28447286523E+02  0.28600376131E+02  0.17749139420E+02  0.44071096830E+02  0.51100000000E-03 0.  1.
         22    1    1    0    0    0 -0.40341428008E+02 -0.40559724678E+02 -0.25173952963E+02  0.62499999900E+02  0.00000000000E+00 0.  1.
</event>
<event>
 4    1  0.1956390E-002  0.9118800E+02  0.7818608E-02  0.1130116E+00
         25   -1    0    0    0    0  0.00000000000E+00  0.00000000000E+00  0.99999998245E-14  0.12500000000E+03  0.12500000000E+03 0.  0.
        -11    1    1    0    0    0 -0.54760597089E+01  0.95713145800E+01 -0.18326059699E+00  0.11028638966E+02  0.51100000000E-03 0.  1.
         11    1    1    0    0    0 -0.15559980819E+02  0.49170641292E+02 -0.28245626866E+00  0.51574652204E+02  0.51100000000E-03 0. -1.
         22    1    1    0    0    0  0.21036040528E+02 -0.58741955872E+02  0.46571686565E+00  0.62396708831E+02  0.00000000000E+00 0. -1.
</event>
<event>
 4    1  0.1956390E-002  0.9118800E+02  0.7818608E-02  0.1130116E+00
         25   -1    0    0    0    0  0.00000000000E+00  0.00000000000E+00  0.99999998245E-14  0.12500000000E+03  0.12500000000E+03 0.  0.
        -11    1    1    0    0    0  0.24671127658E+01  0.56472265374E+02 -0.17764651043E+02  0.59251887976E+02  0.51100000000E-03 0. -1.
         11    1    1    0    0    0 -0.13359828138E+01  0.31278639377E+01 -0.41566241710E+00  0.34265373772E+01  0.51100000000E-03 0.  1.
         22    1    1    0    0    0 -0.11311299520E+01 -0.59600129311E+02  0.18180313460E+02  0.62321574646E+02  0.00000000000E+00 0. -1.
</event>
<event>
 4    1  0.1956390E-002  0.9118800E+02  0.7818608E-02  0.1130116E+00
         25   -1    0    0    0    0  0.00000000000E+00  0.00000000000E+00  0.99999998245E-14  0.12500000000E+03  0.12500000000E+03 0.  0.
        -11    1    1    0    0    0  0.27018216450E+02 -0.30492867928E+02  0.42597093209E+02  0.58943289396E+02  0.51100000000E-03 0. -1.
         11    1    1    0    0    0  0.16198741121E+01 -0.18483380203E+01  0.25709782469E+01  0.35567225059E+01  0.51100000000E-03 0.  1.
         22    1    1    0    0    0 -0.28638090563E+02  0.32341205948E+02 -0.45168071456E+02  0.62499988099E+02  0.00000000000E+00 0. -1.
</event>
<event>
 4    1  0.1956390E-002  0.9118800E+02  0.7818608E-02  0.1130116E+00
         25   -1    0    0    0    0  0.00000000000E+00  0.00000000000E+00  0.99999998245E-14  0.12500000000E+03  0.12500000000E+03 0.  0.
        -11    1    1    0    0    0 -0.19032286171E+01 -0.97564001674E+01 -0.20636543905E+02  0.22905819523E+02  0.51100000000E-03 0.  1.
         11    1    1    0    0    0 -0.30676807128E+01 -0.16638052469E+02 -0.35797835696E+02  0.39594450314E+02  0.51100000000E-03 0. -1.
         22    1    1    0    0    0  0.49709093299E+01  0.26394452637E+02  0.56434379601E+02  0.62499730163E+02  0.00000000000E+00 0. -1.
</event>
<event>
 4    1  0.1956390E-002  0.9118800E+02  0.7818608E-02  0.1130116E+00
         25   -1    0    0    0    0  0.00000000000E+00  0.00000000000E+00  0.99999998245E-14  0.12500000000E+03  0.12500000000E+03 0.  0.
        -11    1    1    0    0    0  0.21138545148E+02  0.55372664876E+02  0.83852571658E+01  0.59860526597E+02  0.51100000000E-03 0. -1.
         11    1    1    0    0    0  0.10012053287E+01  0.48125542973E+00  0.36922560994E+01  0.38557456170E+01  0.51100000000E-03 0.  1.
         22    1    1    0    0    0 -0.22139750477E+02 -0.55853920306E+02 -0.12077513265E+02  0.61283727786E+02  0.00000000000E+00 0. -1.
</event>
<event>
 4    1  0.1956390E-002  0.9118800E+02  0.7818608E-02  0.1130116E+00
         25   -1    0    0    0    0  0.00000000000E+00  0.00000000000E+00  0.99999998245E-14  0.12500000000E+03  0.12500000000E+03 0.  0.
        -11    1    1    0    0    0 -0.23476673493E+02  0.32905322115E+02 -0.14243949685E+02  0.42857957542E+02  0.51100000000E-03 0.  1.
         11    1    1    0    0    0 -0.16840408399E+02  0.11897944404E+02  0.40483152511E+01  0.21013074328E+02  0.51100000000E-03 0. -1.
         22    1    1    0    0    0  0.40317081892E+02 -0.44803266519E+02  0.10195634434E+02  0.61128968130E+02  0.00000000000E+00 0.  1.
</event>
<event>
 4    1  0.1956390E-002  0.9118800E+02  0.7818608E-02  0.1130116E+00
         25   -1    0    0    0    0  0.00000000000E+00  0.00000000000E+00  0.99999998245E-14  0.12500000000E+03  0.12500000000E+03 0.  0.
        -11    1    1    0    0    0 -0.49710830033E+01  0.56479238781E+01 -0.94108512252E+00  0.75826348869E+01  0.51100000000E-03 0. -1.
         11    1    1    0    0    0 -0.36161947820E+02  0.40743188345E+02 -0.69445843918E+01  0.54917402700E+02  0.51100000000E-03 0.  1.
         22    1    1    0    0    0  0.41133030823E+02 -0.46391112223E+02  0.78856695143E+01  0.62499962413E+02  0.00000000000E+00 0.  1.
</event>
<event>
 4    1  0.1956390E-002  0.9118800E+02  0.7818608E-02  0.1130116E+00
         25   -1    0    0    0    0  0.00000000000E+00  0.00000000000E+00  0.99999998245E-14  0.12500000000E+03  0.12500000000E+03 0.  0.
        -11    1    1    0    0    0 -0.15173319462E+02  0.12048798534E+02 -0.61534951890E+01  0.20329010623E+02  0.51100000000E-03 0.  1.
         11    1    1    0    0    0 -0.31474998923E+02  0.24992690636E+02 -0.12770364446E+02  0.42170989445E+02  0.51100000000E-03 0. -1.
         22    1    1    0    0    0  0.46648318384E+02 -0.37041489170E+02  0.18923859635E+02  0.62499999932E+02  0.00000000000E+00 0. -1.
</event>
<event>
 4    1  0.1956390E-002  0.9118800E+02  0.7818608E-02  0.1130116E+00
         25   -1    0    0    0    0  0.00000000000E+00  0.00000000000E+00  0.99999998245E-14  0.12500000000E+03  0.12500000000E+03 0.  0.
        -11    1    1    0    0    0  0.52565955305E+00 -0.14693823993E+01  0.64117473227E+00  0.16871597137E+01  0.51100000000E-03 0.  1.
         11    1    1    0    0    0  0.20474711858E+02 -0.52855549631E+02  0.22030116018E+02  0.60813230177E+02  0.51100000000E-03 0. -1.
         22    1    1    0    0    0 -0.21000371411E+02  0.54324932031E+02 -0.22671290750E+02  0.62499610109E+02  0.00000000000E+00 0. -1.
</event>
<event>
 4    1  0.1956390E-002  0.9118800E+02  0.7818608E-02  0.1130116E+00
         25   -1    0    0    0    0  0.00000000000E+00  0.00000000000E+00  0.99999998245E-14  0.12500000000E+03  0.12500000000E+03 0.  0.
        -11    1    1    0    0    0  0.15398616306E+02  0.49219457469E+01  0.39642597167E+02  0.42812129642E+02  0.51100000000E-03 0.  1.
         11    1    1    0    0    0  0.61819656874E+01  0.20955760894E+01  0.18583149773E+02  0.19696233007E+02  0.51100000000E-03 0. -1.
         22    1    1    0    0    0 -0.21580581994E+02 -0.70175218363E+01 -0.58225746941E+02  0.62491637350E+02  0.00000000000E+00 0.  1.
</event>
<event>
 4    1  0.1956390E-002  0.9118800E+02  0.7818608E-02  0.1130116E+00
         25   -1    0    0    0    0  0.00000000000E+00  0.00000000000E+00  0.99999998245E-14  0.12500000000E+03  0.12500000000E+03 0.  0.
        -11    1    1    0    0    0  0.23184909532E+02 -0.21450596893E+01 -0.49697769274E+02  0.54881778234E+02  0.51100000000E-03 0.  1.
         11    1    1    0    0    0  0.32185291623E+01 -0.29762785679E+00 -0.68985353869E+01  0.76182217777E+01  0.51100000000E-03 0.  1.
         22    1    1    0    0    0 -0.26403438694E+02  0.24426875461E+01  0.56596304661E+02  0.62499999988E+02  0.00000000000E+00 0.  1.
</event>
<event>
 4    1  0.1956390E-002  0.9118800E+02  0.7818608E-02  0.1130116E+00
         25   -1    0    0    0    0  0.00000000000E+00  0.00000000000E+00  0.99999998245E-14  0.12500000000E+03  0.12500000000E+03 0.  0.
        -11    1    1    0    0    0 -0.25314013688E+02  0.57531896227E+01  0.19429842904E+02  0.32425565151E+02  0.51100000000E-03 0. -1.
         11    1    1    0    0    0 -0.23499422498E+02  0.53230820945E+01  0.17997607329E+02  0.30074439821E+02  0.51100000000E-03 0.  1.
         22    1    1    0    0    0  0.48813436187E+02 -0.11076271717E+02 -0.37427450233E+02  0.62499995027E+02  0.00000000000E+00 0. -1.
</event>
<event>
 4    1  0.1956390E-002  0.9118800E+02  0.7818608E-02  0.1130116E+00
         25   -1    0    0    0    0  0.00000000000E+00  0.00000000000E+00  0.99999998245E-14  0.12500000000E+03  0.12500000000E+03 0.  0.
        -11    1    1    0    0    0 -0.27268176082E+02  0.16348393897E+02  0.50180213423E+02  0.59404353622E+02  0.51100000000E-03 0.  1.
         11    1    1    0    0    0 -0.13249094429E+01  0.47034876528E+00  0.27734520706E+01  0.31094452305E+01  0.51100000000E-03 0. -1.
         22    1    1    0    0    0  0.28593085525E+02 -0.16818742662E+02 -0.52953665494E+02  0.62486201147E+02  0.00000000000E+00 0.  1.
</event>
<event>
 4    1  0.1956390E-002  0.9118800E+02  0.7818608E-02  0.1130116E+00
         25   -1    0    0    0    0  0.00000000000E+00  0.00000000000E+00  0.99999998245E-14  0.12500000000E+03  0.12500000000E+03 0.  0.
        -11    1    1    0    0    0  0.25263978856E+02 -0.43376425317E+02  0.84337456731E+00  0.50204523520E+02  0.51100000000E-03 0.  1.
         11    1    1    0    0    0  0.60095323883E+01 -0.10719583723E+02  0.43928523810E+00  0.12297029174E+02  0.51100000000E-03 0. -1.
         22    1    1    0    0    0 -0.31273511245E+02  0.54096009040E+02 -0.12826598054E+01  0.62498447307E+02  0.00000000000E+00 0.  1.
</event>
<event>
 4    1  0.1956390E-002  0.9118800E+02  0.7818608E-02  0.1130116E+00
         25   -1    0    0    0    0  0.00000000000E+00  0.00000000000E+00  0.99999998245E-14  0.12500000000E+03  0.12500000000E+03 0.  0.
        -11    1    1    0    0    0 -0.53042112171E+01 -0.18301059652E+02  0.27127512300E+02  0.33150646523E+02  0.51100000000E-03 0.  1.
         11    1    1    0    0    0 -0.47030894101E+01 -0.16164679568E+02  0.24040989610E+02  0.29349362808E+02  0.51100000000E-03 0. -1.
         22    1    1    0    0    0  0.10007300627E+02  0.34465739220E+02 -0.51168501911E+02  0.62499990669E+02  0.00000000000E+00 0. -1.
</event>
<event>
 4    1  0.1956390E-002  0.9118800E+02  0.7818608E-02  0.1130116E+00
         25   -1    0    0    0    0  0.00000000000E+00  0.00000000000E+00  0.99999998245E-14  0.12500000000E+03  0.12500000000E+03 0.  0.
        -11    1    1    0    0    0  0.15697400864E+02  0.15262726963E+02  0.65495922628E+01  0.22852929512E+02  0.51100000000E-03 0.  1.
         11    1    1    0    0    0  0.28913019525E+02  0.23484451704E+02  0.13695230505E+02  0.39686792624E+02  0.51100000000E-03 0. -1.
         22    1    1    0    0    0 -0.44610420389E+02 -0.38747178667E+02 -0.20244822767E+02  0.62460277864E+02  0.00000000000E+00 0. -1.
</event>
<event>
 4    1  0.1956390E-002  0.9118800E+02  0.7818608E-02  0.1130116E+00
         25   -1    0    0    0    0  0.00000000000E+00  0.00000000000E+00  0.99999998245E-14  0.12500000000E+03  0.12500000000E+03 0.  0.
        -11    1    1    0    0    0 -0.78183952739E+01 -0.37275105697E+02 -0.13134992961E+02  0.40287576866E+02  0.51100000000E-03 0.  1.
         11    1    1    0    0    0 -0.16448537461E+01 -0.21787978081E+02 -0.45863903419E+01  0.22326139597E+02  0.51100000000E-03 0. -1.
         22    1    1    0    0    0  0.94632490200E+01  0.59063083778E+02  0.17721383303E+02  0.62386283537E+02  0.00000000000E+00 0. -1.
</event>
<event>
 4    1  0.1956390E-002  0.9118800E+02  0.7818608E-02  0.1130116E+00
         25   -1    0    0    0    0  0.00000000000E+00  0.00000000000E+00  0.99999998245E-14  0.12500000000E+03  0.12500000000E+03 0.  0.
        -11    1    1    0    0    0 -0.22993206776E+02  0.23076396733E+01 -0.28814004372E+02  0.36935885084E+02  0.51100000000E-03 0. -1.
         11    1    1    0    0    0 -0.15913597948E+02  0.15921256611E+01 -0.19943583314E+02  0.25564115072E+02  0.51100000000E-03 0. -1.
         22    1    1    0    0    0  0.38906804724E+02 -0.38997653344E+01  0.48757587686E+02  0.62499999844E+02  0.00000000000E+00 0. -1.
</event>
<event>
 4    1  0.1956390E-002  0.9118800E+02  0.7818608E-02  0.1130116E+00
         25   -1    0    0    0    0  0.00000000000E+00  0.00000000000E+00  0.99999998245E-14  0.12500000000E+03  0.12500000000E+03 0.  0.
        -11    1    1    0    0    0  0.24719434220E+02  0.12993605854E+02 -0.24452901394E+01  0.28033259985E+02  0.51100000000E-03 0.  1.
         11    1    1    0    0    0  0.30392169841E+02  0.15976163972E+02 -0.30057219790E+01  0.34466740022E+02  0.51100000000E-03 0.  1.
         22    1    1    0    0    0 -0.55111604061E+02 -0.28969769826E+02  0.54510121184E+01  0.62499999993E+02  0.00000000000E+00 0.  1.
</event>
<event>
 4    1  0.1956390E-002  0.9118800E+02  0.7818608E-02  0.1130116E+00
         25   -1    0    0    0    0  0.00000000000E+00  0.00000000000E+00  0.99999998245E-14  0.12500000000E+03  0.12500000000E+03 0.  0.
        -11    1    1    0    0    0  0.23711064376E+02  0.31808846756E+02 -0.96638166482E+01  0.40833891050E+02  0.51100000000E-03 0.  1.
         11    1    1    0    0    0  0.12586161072E+02  0.16877458934E+02 -0.51147110582E+01  0.21666110405E+02  0.51100000000E-03 0. -1.
         22    1    1    0    0    0 -0.36297225448E+02 -0.48686305690E+02  0.14778527706E+02  0.62499998545E+02  0.00000000000E+00 0.  1.
</event>
<event>
 4    1  0.1956390E-002  0.9118800E+02  0.7818608E-02  0.1130116E+00
         25   -1    0    0    0    0  0.00000000000E+00  0.00000000000E+00  0.99999998245E-14  0.12500000000E+03  0.12500000000E+03 0.  0.
        -11    1    1    0    0    0 -0.76699874292E+00 -0.34885256513E+02  0.11297380599E+02  0.36676971218E+02  0.51100000000E-03 0.  1.
         11    1    1    0    0    0 -0.55011146255E+00 -0.24563421841E+02  0.79476124449E+01  0.25823029625E+02  0.51100000000E-03 0. -1.
         22    1    1    0    0    0  0.13171102055E+01  0.59448678355E+02 -0.19244993043E+02  0.62499999157E+02  0.00000000000E+00 0. -1.
</event>
<event>
 4    1  0.1956390E-002  0.9118800E+02  0.7818608E-02  0.1130116E+00
         25   -1    0    0    0    0  0.00000000000E+00  0.00000000000E+00  0.99999998245E-14  0.12500000000E+03  0.12500000000E+03 0.  0.
        -11    1    1    0    0    0 -0.22152012606E+01  0.15015664792E+02 -0.18090810286E+01  0.15285616775E+02  0.51100000000E-03 0.  1.
         11    1    1    0    0    0 -0.33743716584E+02  0.15660559334E+02  0.35695429395E+02  0.51556330431E+02  0.51100000000E-03 0. -1.
         22    1    1    0    0    0  0.35958917844E+02 -0.30676224126E+02 -0.33886348366E+02  0.58158052794E+02  0.00000000000E+00 0. -1.
</event>
<event>
 4    1  0.1956390E-002  0.9118800E+02  0.7818608E-02  0.1130116E+00
         25   -1    0    0    0    0  0.00000000000E+00  0.00000000000E+00  0.99999998245E-14  0.12500000000E+03  0.12500000000E+03 0.  0.
        -11    1    1    0    0    0  0.11478465690E+01 -0.20011464545E+01 -0.43358304184E+00  0.23473673325E+01  0.51100000000E-03 0. -1.
         11    1    1    0    0    0  0.29399124394E+02 -0.51297860867E+02 -0.11070691738E+02  0.60152633030E+02  0.51100000000E-03 0.  1.
         22    1    1    0    0    0 -0.30546970963E+02  0.53299007321E+02  0.11504274780E+02  0.62499999637E+02  0.00000000000E+00 0.  1.
</event>
<event>
 4    1  0.1956390E-002  0.9118800E+02  0.7818608E-02  0.1130116E+00
         25   -1    0    0    0    0  0.00000000000E+00  0.00000000000E+00  0.99999998245E-14  0.12500000000E+03  0.12500000000E+03 0.  0.
        -11    1    1    0    0    0  0.10629098850E+01  0.21148074345E+02 -0.52230342989E+02  0.56359378589E+02  0.51100000000E-03 0. -1.
         11    1    1    0    0    0 -0.48005962652E+01  0.40887167508E+01 -0.35974179761E+01  0.72598034082E+01  0.51100000000E-03 0.  1.
         22    1    1    0    0    0  0.37376863802E+01 -0.25236791096E+02  0.55827760965E+02  0.61380818003E+02  0.00000000000E+00 0. -1.
</event>
<event>
 4    1  0.1956390E-002  0.9118800E+02  0.7818608E-02  0.1130116E+00
         25   -1    0    0    0    0  0.00000000000E+00  0.00000000000E+00  0.99999998245E-14  0.12500000000E+03  0.12500000000E+03 0.  0.
        -11    1    1    0    0    0 -0.57118379200E+01  0.79863660627E+01  0.14766248384E+02  0.17732716287E+02  0.51100000000E-03 0.  1.
         11    1    1    0    0    0 -0.24885093259E+02  0.28906680199E+02  0.24477329845E+02  0.45321117630E+02  0.51100000000E-03 0. -1.
         22    1    1    0    0    0  0.30596931179E+02 -0.36893046262E+02 -0.39243578230E+02  0.61946166083E+02  0.00000000000E+00 0. -1.
</event>
<event>
 4    1  0.1956390E-002  0.9118800E+02  0.7818608E-02  0.1130116E+00
         25   -1    0    0    0    0  0.00000000000E+00  0.00000000000E+00  0.99999998245E-14  0.12500000000E+03  0.12500000000E+03 0.  0.
        -11    1    1    0    0    0 -0.46446939138E+02 -0.33431920238E+02  0.37696669564E+01  0.57351737858E+02  0.51100000000E-03 0.  1.
         11    1    1    0    0    0 -0.54029042965E+01 -0.72691764021E+00 -0.20179702465E+00  0.54553190918E+01  0.51100000000E-03 0. -1.
         22    1    1    0    0    0  0.51849843435E+02  0.34158837878E+02 -0.35678699318E+01  0.62192943050E+02  0.00000000000E+00 0.  1.
</event>
<event>
 4    1  0.1956390E-002  0.9118800E+02  0.7818608E-02  0.1130116E+00
         25   -1    0    0    0    0  0.00000000000E+00  0.00000000000E+00  0.99999998245E-14  0.12500000000E+03  0.12500000000E+03 0.  0.
        -11    1    1    0    0    0  0.14400442775E+02 -0.22102146043E+02 -0.13043786978E+02  0.29428183614E+02  0.51100000000E-03 0.  1.
         11    1    1    0    0    0  0.15961942150E+02 -0.24872664871E+02 -0.14843579181E+02  0.33072116626E+02  0.51100000000E-03 0. -1.
         22    1    1    0    0    0 -0.30362384925E+02  0.46974810914E+02  0.27887366160E+02  0.62499699760E+02  0.00000000000E+00 0.  1.
</event>
<event>
 4    1  0.1956390E-002  0.9118800E+02  0.7818608E-02  0.1130116E+00
         25   -1    0    0    0    0  0.00000000000E+00  0.00000000000E+00  0.99999998245E-14  0.12500000000E+03  0.12500000000E+03 0.  0.
        -11    1    1    0    0    0 -0.10928322227E+02 -0.60349508081E+00  0.64988637012E+01  0.12729008708E+02  0.51100000000E-03 0.  1.
         11    1    1    0    0    0 -0.42678041400E+02 -0.22019812979E+01  0.25512575317E+02  0.49771030117E+02  0.51100000000E-03 0. -1.
         22    1    1    0    0    0  0.53606363627E+02  0.28054763787E+01 -0.32011439018E+02  0.62499961176E+02  0.00000000000E+00 0. -1.
</event>
<event>
 4    1  0.1956390E-002  0.9118800E+02  0.7818608E-02  0.1130116E+00
         25   -1    0    0    0    0  0.00000000000E+00  0.00000000000E+00  0.99999998245E-14  0.12500000000E+03  0.12500000000E+03 0.  0.
        -11    1    1    0    0    0  0.33362447619E+01 -0.24490299217E+02 -0.43286039890E+01  0.25092670197E+02  0.51100000000E-03 0.  1.
         11    1    1    0    0    0  0.49731397308E+01 -0.36509231058E+02 -0.64538555956E+01  0.37407329810E+02  0.51100000000E-03 0.  1.
         22    1    1    0    0    0 -0.83093844927E+01  0.60999530275E+02  0.10782459585E+02  0.62499999993E+02  0.00000000000E+00 0.  1.
</event>
<event>
 4    1  0.1956390E-002  0.9118800E+02  0.7818608E-02  0.1130116E+00
         25   -1    0    0    0    0  0.00000000000E+00  0.00000000000E+00  0.99999998245E-14  0.12500000000E+03  0.12500000000E+03 0.  0.
        -11    1    1    0    0    0  0.52398091339E+01 -0.16334554470E+02  0.15399955362E+02  0.23052806660E+02  0.51100000000E-03 0. -1.
         11    1    1    0    0    0  0.89652023953E+01 -0.27951098816E+02  0.26352272837E+02  0.39447193347E+02  0.51100000000E-03 0. -1.
         22    1    1    0    0    0 -0.14205011529E+02  0.44285653287E+02 -0.41752228198E+02  0.62499999993E+02  0.00000000000E+00 0. -1.
</event>
<event>
 4    1  0.1956390E-002  0.9118800E+02  0.7818608E-02  0.1130116E+00
         25   -1    0    0    0    0  0.00000000000E+00  0.00000000000E+00  0.99999998245E-14  0.12500000000E+03  0.12500000000E+03 0.  0.
        -11    1    1    0    0    0 -0.22446997635E+02  0.72558502136E+01 -0.16132425532E+02  0.28579192063E+02  0.51100000000E-03 0.  1.
         11    1    1    0    0    0 -0.29828930812E+02  0.84900437175E+00 -0.16664229492E+02  0.34178684390E+02  0.51100000000E-03 0. -1.
         22    1    1    0    0    0  0.52275928447E+02 -0.81048545853E+01  0.32796655025E+02  0.62242123547E+02  0.00000000000E+00 0. -1.
</event>
<event>
 4    1  0.1956390E-002  0.9118800E+02  0.7818608E-02  0.1130116E+00
         25   -1    0    0    0    0  0.00000000000E+00  0.00000000000E+00  0.99999998245E-14  0.12500000000E+03  0.12500000000E+03 0.  0.
        -11    1    1    0    0    0  0.44853244711E+02 -0.42602139124E+01  0.28164856454E+01  0.45143056779E+02  0.51100000000E-03 0.  1.
         11    1    1    0    0    0  0.17226574028E+02 -0.19289937491E+01  0.91052247703E+00  0.17358137028E+02  0.51100000000E-03 0. -1.
         22    1    1    0    0    0 -0.62079818739E+02  0.61892076615E+01 -0.37270081224E+01  0.62498806194E+02  0.00000000000E+00 0.  1.
</event>
<event>
 4    1  0.1956390E-002  0.9118800E+02  0.7818608E-02  0.1130116E+00
         25   -1    0    0    0    0  0.00000000000E+00  0.00000000000E+00  0.99999998245E-14  0.12500000000E+03  0.12500000000E+03 0.  0.
        -11    1    1    0    0    0 -0.26179694942E+02 -0.75525745491E+01 -0.55546236336E+02  0.61869234527E+02  0.51100000000E-03 0. -1.
         11    1    1    0    0    0  0.15568459003E+01  0.22812355244E+00 -0.35177472211E+00  0.16123136260E+01  0.51100000000E-03 0.  1.
         22    1    1    0    0    0  0.24622849042E+02  0.73244509966E+01  0.55898011059E+02  0.61518451847E+02  0.00000000000E+00 0. -1.
</event>
<event>
 4    1  0.1956390E-002  0.9118800E+02  0.7818608E-02  0.1130116E+00
         25   -1    0    0    0    0  0.00000000000E+00  0.00000000000E+00  0.99999998245E-14  0.12500000000E+03  0.12500000000E+03 0.  0.
        -11    1    1    0    0    0  0.97592333356E+01 -0.47943439724E+02 -0.21260768045E+02  0.53346380440E+02  0.51100000000E-03 0.  1.
         11    1    1    0    0    0  0.16745844538E+01 -0.82263963302E+01 -0.36484135342E+01  0.91536195711E+01  0.51100000000E-03 0.  1.
         22    1    1    0    0    0 -0.11433817789E+02  0.56169836055E+02  0.24909181579E+02  0.62499999989E+02  0.00000000000E+00 0.  1.
</event>
<event>
 4    1  0.1956390E-002  0.9118800E+02  0.7818608E-02  0.1130116E+00
         25   -1    0    0    0    0  0.00000000000E+00  0.00000000000E+00  0.99999998245E-14  0.12500000000E+03  0.12500000000E+03 0.  0.
        -11    1    1    0    0    0  0.21023714149E+02  0.10001405901E+02  0.66655598055E+01  0.24216819866E+02  0.51100000000E-03 0.  1.
         11    1    1    0    0    0  0.33236035909E+02  0.15809562956E+02  0.10536864707E+02  0.38283180144E+02  0.51100000000E-03 0.  1.
         22    1    1    0    0    0 -0.54259750058E+02 -0.25810968857E+02 -0.17202424513E+02  0.62499999991E+02  0.00000000000E+00 0.  1.
</event>
<event>
 4    1  0.1956390E-002  0.9118800E+02  0.7818608E-02  0.1130116E+00
         25   -1    0    0    0    0  0.00000000000E+00  0.00000000000E+00  0.99999998245E-14  0.12500000000E+03  0.12500000000E+03 0.  0.
        -11    1    1    0    0    0  0.16979852260E+02  0.71901675350E+01  0.20818805723E+02  0.27810727497E+02  0.51100000000E-03 0. -1.
         11    1    1    0    0    0  0.21180742607E+02  0.89686121474E+01  0.25967013038E+02  0.34689272515E+02  0.51100000000E-03 0.  1.
         22    1    1    0    0    0 -0.38160594866E+02 -0.16158779682E+02 -0.46785818761E+02  0.62499999988E+02  0.00000000000E+00 0.  1.
</event>
<event>
 4    1  0.1956390E-002  0.9118800E+02  0.7818608E-02  0.1130116E+00
         25   -1    0    0    0    0  0.00000000000E+00  0.00000000000E+00  0.99999998245E-14  0.12500000000E+03  0.12500000000E+03 0.  0.
        -11    1    1    0    0    0 -0.44074542691E+01  0.84890000993E+01 -0.29627595564E+01  0.10013327133E+02  0.51100000000E-03 0. -1.
         11    1    1    0    0    0 -0.22075381196E+02  0.45170363744E+02 -0.15076602335E+02  0.52487981043E+02  0.51100000000E-03 0.  1.
         22    1    1    0    0    0  0.26482835465E+02 -0.53659363843E+02  0.18039361891E+02  0.62498691824E+02  0.00000000000E+00 0.  1.
</event>
<event>
 4    1  0.1956390E-002  0.9118800E+02  0.7818608E-02  0.1130116E+00
         25   -1    0    0    0    0  0.00000000000E+00  0.00000000000E+00  0.99999998245E-14  0.12500000000E+03  0.12500000000E+03 0.  0.
        -11    1    1    0    0    0 -0.54321267588E+01  0.11325152781E+02 -0.19652036866E+02  0.23323156731E+02  0.51100000000E-03 0. -1.
         11    1    1    0    0    0 -0.90939585876E+01  0.19022452856E+02 -0.33019258668E+02  0.39176845696E+02  0.51100000000E-03 0.  1.
         22    1    1    0    0    0  0.14526085346E+02 -0.30347605637E+02  0.52671295534E+02  0.62499997573E+02  0.00000000000E+00 0.  1.
</event>
<event>
 4    1  0.1956390E-002  0.9118800E+02  0.7818608E-02  0.1130116E+00
         25   -1    0    0    0    0  0.00000000000E+00  0.00000000000E+00  0.99999998245E-14  0.12500000000E+03  0.12500000000E+03 0.  0.
        -11    1    1    0    0    0  0.47641475872E+01 -0.34959414330E+02 -0.35637252397E+02  0.50148494605E+02  0.51100000000E-03 0. -1.
         11    1    1    0    0    0 -0.27575949885E+02  0.12719835251E+02  0.52384435308E+01  0.30816692097E+02  0.51100000000E-03 0.  1.
         22    1    1    0    0    0  0.22811802298E+02  0.22239579079E+02  0.30398808866E+02  0.44034813298E+02  0.00000000000E+00 0. -1.
</event>
<event>
 4    1  0.1956390E-002  0.9118800E+02  0.7818608E-02  0.1130116E+00
         25   -1    0    0    0    0  0.00000000000E+00  0.00000000000E+00  0.99999998245E-14  0.12500000000E+03  0.12500000000E+03 0.  0.
        -11    1    1    0    0    0  0.18964078874E+02 -0.30374851835E+02  0.45471404333E+02  0.57878463386E+02  0.51100000000E-03 0.  1.
         11    1    1    0    0    0  0.15143371425E+01 -0.24263574799E+01  0.36301754214E+01  0.46215366982E+01  0.51100000000E-03 0. -1.
         22    1    1    0    0    0 -0.20478416017E+02  0.32801209315E+02 -0.49101579755E+02  0.62499999916E+02  0.00000000000E+00 0.  1.
</event>
<event>
 4    1  0.1956390E-002  0.9118800E+02  0.7818608E-02  0.1130116E+00
         25   -1    0    0    0    0  0.00000000000E+00  0.00000000000E+00  0.99999998245E-14  0.12500000000E+03  0.12500000000E+03 0.  0.
        -11    1    1    0    0    0  0.72335742122E+01  0.15948623435E+02 -0.27901429639E+01  0.17733247965E+02  0.51100000000E-03 0.  1.
         11    1    1    0    0    0  0.18266281517E+02  0.40256612263E+02 -0.70576378713E+01  0.44766752439E+02  0.51100000000E-03 0. -1.
         22    1    1    0    0    0 -0.25499855730E+02 -0.56205235698E+02  0.98477808352E+01  0.62499999596E+02  0.00000000000E+00 0. -1.
</event>
<event>
 4    1  0.1956390E-002  0.9118800E+02  0.7818608E-02  0.1130116E+00
         25   -1    0    0    0    0  0.00000000000E+00  0.00000000000E+00  0.99999998245E-14  0.12500000000E+03  0.12500000000E+03 0.  0.
        -11    1    1    0    0    0  0.38580731952E+02 -0.43761856071E+02  0.13159986774E+01  0.58354989312E+02  0.51100000000E-03 0. -1.
         11    1    1    0    0    0  0.32535176131E+01 -0.26063752057E+01 -0.39333413066E+00  0.41872760324E+01  0.51100000000E-03 0.  1.
         22    1    1    0    0    0 -0.41834249566E+02  0.46368231277E+02 -0.92266454674E+00  0.62457734656E+02  0.00000000000E+00 0. -1.
</event>
<event>
 4    1  0.1956390E-002  0.9118800E+02  0.7818608E-02  0.1130116E+00
         25   -1    0    0    0    0  0.00000000000E+00  0.00000000000E+00  0.99999998245E-14  0.12500000000E+03  0.12500000000E+03 0.  0.
        -11    1    1    0    0    0 -0.30158059286E+02  0.44212059395E+02 -0.23330594812E+02  0.58382629183E+02  0.51100000000E-03 0.  1.
         11    1    1    0    0    0 -0.59900918021E+01 -0.11490355789E+01  0.32801966349E+01  0.69254005504E+01  0.51100000000E-03 0. -1.
         22    1    1    0    0    0  0.36148151088E+02 -0.43063023816E+02  0.20050398177E+02  0.59691970266E+02  0.00000000000E+00 0.  1.
</event>
<event>
 4    1  0.1956390E-002  0.9118800E+02  0.7818608E-02  0.1130116E+00
         25   -1    0    0    0    0  0.00000000000E+00  0.00000000000E+00  0.99999998245E-14  0.12500000000E+03  0.12500000000E+03 0.  0.
        -11    1    1    0    0    0  0.52360071713E+02 -0.21512049535E+02  0.66346779714E+01  0.56994423736E+02  0.51100000000E-03 0. -1.
         11    1    1    0    0    0  0.52612947592E+01 -0.14318650921E+01  0.90639209228E+00  0.55274774600E+01  0.51100000000E-03 0.  1.
         22    1    1    0    0    0 -0.57621366472E+02  0.22943914627E+02 -0.75410700637E+01  0.62478098804E+02  0.00000000000E+00 0. -1.
</event>
<event>
 4    1  0.1956390E-002  0.9118800E+02  0.7818608E-02  0.1130116E+00
         25   -1    0    0    0    0  0.00000000000E+00  0.00000000000E+00  0.99999998245E-14  0.12500000000E+03  0.12500000000E+03 0.  0.
        -11    1    1    0    0    0 -0.33952322122E+02  0.22896012885E+02  0.19152161582E+02  0.45208327519E+02  0.51100000000E-03 0. -1.
         11    1    1    0    0    0 -0.13408011337E+02  0.78870101467E+01  0.75751688896E+01  0.17302106260E+02  0.51100000000E-03 0.  1.
         22    1    1    0    0    0  0.47360333460E+02 -0.30783023032E+02 -0.26727330471E+02  0.62489566221E+02  0.00000000000E+00 0. -1.
</event>
<event>
 4    1  0.1956390E-002  0.9118800E+02  0.7818608E-02  0.1130116E+00
         25   -1    0    0    0    0  0.00000000000E+00  0.00000000000E+00  0.99999998245E-14  0.12500000000E+03  0.12500000000E+03 0.  0.
        -11    1    1    0    0    0 -0.14970905871E+02  0.19090765428E-01 -0.87035400707E+01  0.17317043544E+02  0.51100000000E-03 0.  1.
         11    1    1    0    0    0 -0.38968221486E+02 -0.25271156584E-01 -0.22868803138E+02  0.45183017624E+02  0.51100000000E-03 0. -1.
         22    1    1    0    0    0  0.53939127358E+02  0.61803911562E-02  0.31572343209E+02  0.62499938832E+02  0.00000000000E+00 0. -1.
</event>
<event>
 4    1  0.1956390E-002  0.9118800E+02  0.7818608E-02  0.1130116E+00
         25   -1    0    0    0    0  0.00000000000E+00  0.00000000000E+00  0.99999998245E-14  0.12500000000E+03  0.12500000000E+03 0.  0.
        -11    1    1    0    0    0  0.11008646908E+02 -0.54481923938E+02  0.19285184479E+02  0.58833567658E+02  0.51100000000E-03 0. -1.
         11    1    1    0    0    0 -0.59761453600E+00 -0.36627746730E+01  0.76054575073E+00  0.37883362495E+01  0.51100000000E-03 0.  1.
         22    1    1    0    0    0 -0.10411032372E+02  0.58144698611E+02 -0.20045730229E+02  0.62378096092E+02  0.00000000000E+00 0. -1.
</event>
<event>
 4    1  0.1956390E-002  0.9118800E+02  0.7818608E-02  0.1130116E+00
         25   -1    0    0    0    0  0.00000000000E+00  0.00000000000E+00  0.99999998245E-14  0.12500000000E+03  0.12500000000E+03 0.  0.
        -11    1    1    0    0    0 -0.97943835591E+01 -0.10993628295E+01 -0.57093230629E+00  0.98724116553E+01  0.51100000000E-03 0. -1.
         11    1    1    0    0    0 -0.52209721960E+02 -0.58733706353E+01 -0.30514790244E+01  0.52627588528E+02  0.51100000000E-03 0.  1.
         22    1    1    0    0    0  0.62004105519E+02  0.69727334648E+01  0.36224113307E+01  0.62499999817E+02  0.00000000000E+00 0.  1.
</event>
<event>
 4    1  0.1956390E-002  0.9118800E+02  0.7818608E-02  0.1130116E+00
         25   -1    0    0    0    0  0.00000000000E+00  0.00000000000E+00  0.99999998245E-14  0.12500000000E+03  0.12500000000E+03 0.  0.
        -11    1    1    0    0    0  0.61972637324E+01  0.21366091521E+02 -0.42515057272E+02  0.47983810184E+02  0.51100000000E-03 0.  1.
         11    1    1    0    0    0  0.19217721815E+01  0.61724814169E+01 -0.12998755485E+02  0.14517588629E+02  0.51100000000E-03 0. -1.
         22    1    1    0    0    0 -0.81190359139E+01 -0.27538572938E+02  0.55513812757E+02  0.62498601188E+02  0.00000000000E+00 0.  1.
</event>
<event>
 4    1  0.1956390E-002  0.9118800E+02  0.7818608E-02  0.1130116E+00
         25   -1    0    0    0    0  0.00000000000E+00  0.00000000000E+00  0.99999998245E-14  0.12500000000E+03  0.12500000000E+03 0.  0.
        -11    1    1    0    0    0  0.70632033039E+01  0.37289077498E+01  0.12668745432E+02  0.14976338170E+02  0.51100000000E-03 0.  1.
         11    1    1    0    0    0  0.34163982162E+02 -0.40921102931E+02 -0.11661392186E+01  0.53320485962E+02  0.51100000000E-03 0. -1.
         22    1    1    0    0    0 -0.41227185466E+02  0.37192195181E+02 -0.11502606213E+02  0.56703175868E+02  0.00000000000E+00 0. -1.
</event>
<event>
 4    1  0.1956390E-002  0.9118800E+02  0.7818608E-02  0.1130116E+00
         25   -1    0    0    0    0  0.00000000000E+00  0.00000000000E+00  0.99999998245E-14  0.12500000000E+03  0.12500000000E+03 0.  0.
        -11    1    1    0    0    0  0.10946280747E+02  0.36687344576E+01  0.24749125202E+02  0.27309336741E+02  0.51100000000E-03 0.  1.
         11    1    1    0    0    0  0.14126196114E+02  0.46800837107E+01  0.31889351957E+02  0.35190671614E+02  0.51100000000E-03 0. -1.
         22    1    1    0    0    0 -0.25072476861E+02 -0.83488181683E+01 -0.56638477159E+02  0.62499991645E+02  0.00000000000E+00 0. -1.
</event>
<event>
 4    1  0.1956390E-002  0.9118800E+02  0.7818608E-02  0.1130116E+00
         25   -1    0    0    0    0  0.00000000000E+00  0.00000000000E+00  0.99999998245E-14  0.12500000000E+03  0.12500000000E+03 0.  0.
        -11    1    1    0    0    0 -0.44276581565E+02  0.41449147070E+02 -0.28830299366E+01  0.60718690119E+02  0.51100000000E-03 0.  1.
         11    1    1    0    0    0 -0.12970585362E+01  0.12183449257E+01 -0.79720985238E-01  0.17813143745E+01  0.51100000000E-03 0. -1.
         22    1    1    0    0    0  0.45573640102E+02 -0.42667491995E+02  0.29627509219E+01  0.62499995506E+02  0.00000000000E+00 0.  1.
</event>
<event>
 4    1  0.1956390E-002  0.9118800E+02  0.7818608E-02  0.1130116E+00
         25   -1    0    0    0    0  0.00000000000E+00  0.00000000000E+00  0.99999998245E-14  0.12500000000E+03  0.12500000000E+03 0.  0.
        -11    1    1    0    0    0  0.29352456646E+02  0.41901457064E+02  0.20467367773E+02  0.55101832629E+02  0.51100000000E-03 0.  1.
         11    1    1    0    0    0  0.39611482180E+01  0.56180752892E+01  0.27349035026E+01  0.73981864392E+01  0.51100000000E-03 0. -1.
         22    1    1    0    0    0 -0.33313604864E+02 -0.47519532353E+02 -0.23202271276E+02  0.62499980932E+02  0.00000000000E+00 0.  1.
</event>
<event>
 4    1  0.1956390E-002  0.9118800E+02  0.7818608E-02  0.1130116E+00
         25   -1    0    0    0    0  0.00000000000E+00  0.00000000000E+00  0.99999998245E-14  0.12500000000E+03  0.12500000000E+03 0.  0.
        -11    1    1    0    0    0  0.18970731192E+02 -0.33574459226E+01  0.50419589189E+02  0.53974957706E+02  0.51100000000E-03 0. -1.
         11    1    1    0    0    0  0.29963627366E+01 -0.52991683782E+00  0.79635007734E+01  0.85250423068E+01  0.51100000000E-03 0. -1.
         22    1    1    0    0    0 -0.21967093928E+02  0.38873627604E+01 -0.58383089962E+02  0.62499999988E+02  0.00000000000E+00 0. -1.
</event>
<event>
 4    1  0.1956390E-002  0.9118800E+02  0.7818608E-02  0.1130116E+00
         25   -1    0    0    0    0  0.00000000000E+00  0.00000000000E+00  0.99999998245E-14  0.12500000000E+03  0.12500000000E+03 0.  0.
        -11    1    1    0    0    0  0.90530308206E-01 -0.18435311089E+00 -0.25040378123E+00  0.32385818034E+00  0.51100000000E-03 0. -1.
         11    1    1    0    0    0  0.19935738944E+02 -0.36654126923E+02 -0.46097126691E+02  0.62176392603E+02  0.51100000000E-03 0.  1.
         22    1    1    0    0    0 -0.20026269252E+02  0.36838480033E+02  0.46347530472E+02  0.62499749217E+02  0.00000000000E+00 0.  1.
</event>
<event>
 4    1  0.1956390E-002  0.9118800E+02  0.7818608E-02  0.1130116E+00
         25   -1    0    0    0    0  0.00000000000E+00  0.00000000000E+00  0.99999998245E-14  0.12500000000E+03  0.12500000000E+03 0.  0.
        -11    1    1    0    0    0  0.15776299871E+02  0.28035333320E+01  0.30470779090E+02  0.34427021587E+02  0.51100000000E-03 0. -1.
         11    1    1    0    0    0  0.12864382887E+02  0.22871041885E+01  0.24846909760E+02  0.28072978422E+02  0.51100000000E-03 0.  1.
         22    1    1    0    0    0 -0.28640682758E+02 -0.50906375205E+01 -0.55317688849E+02  0.62499999991E+02  0.00000000000E+00 0.  1.
</event>
<event>
 4    1  0.1956390E-002  0.9118800E+02  0.7818608E-02  0.1130116E+00
         25   -1    0    0    0    0  0.00000000000E+00  0.00000000000E+00  0.99999998245E-14  0.12500000000E+03  0.12500000000E+03 0.  0.
        -11    1    1    0    0    0  0.16774819772E+01 -0.12688303106E+01 -0.44575611194E+01  0.49288667597E+01  0.51100000000E-03 0. -1.
         11    1    1    0    0    0  0.19543365541E+02 -0.14635072071E+02 -0.52137400855E+02  0.57571147630E+02  0.51100000000E-03 0.  1.
         22    1    1    0    0    0 -0.21220847518E+02  0.15903902382E+02  0.56594961975E+02  0.62499985610E+02  0.00000000000E+00 0.  1.
</event>
<event>
 4    1  0.1956390E-002  0.9118800E+02  0.7818608E-02  0.1130116E+00
         25   -1    0    0    0    0  0.00000000000E+00  0.00000000000E+00  0.99999998245E-14  0.12500000000E+03  0.12500000000E+03 0.  0.
        -11    1    1    0    0    0  0.19624731640E+02 -0.26658196582E+02 -0.45283856435E+02  0.56092933519E+02  0.51100000000E-03 0. -1.
         11    1    1    0    0    0  0.22394988946E+01 -0.30399620800E+01 -0.51762723870E+01  0.64070680371E+01  0.51100000000E-03 0.  1.
         22    1    1    0    0    0 -0.21864230535E+02  0.29698158662E+02  0.50460128822E+02  0.62499998444E+02  0.00000000000E+00 0. -1.
</event>
<event>
 4    1  0.1956390E-002  0.9118800E+02  0.7818608E-02  0.1130116E+00
         25   -1    0    0    0    0  0.00000000000E+00  0.00000000000E+00  0.99999998245E-14  0.12500000000E+03  0.12500000000E+03 0.  0.
        -11    1    1    0    0    0  0.65254627066E+00  0.30097354694E+01 -0.13906099241E+02  0.14243030597E+02  0.51100000000E-03 0.  1.
         11    1    1    0    0    0  0.22089741830E+01  0.10208377142E+02 -0.47113104126E+02  0.48256969564E+02  0.51100000000E-03 0. -1.
         22    1    1    0    0    0 -0.28615204537E+01 -0.13218112611E+02  0.61019203367E+02  0.62499999839E+02  0.00000000000E+00 0. -1.
</event>
<event>
 4    1  0.1956390E-002  0.9118800E+02  0.7818608E-02  0.1130116E+00
         25   -1    0    0    0    0  0.00000000000E+00  0.00000000000E+00  0.99999998245E-14  0.12500000000E+03  0.12500000000E+03 0.  0.
        -11    1    1    0    0    0 -0.38209927532E+01 -0.39366327020E+01 -0.50744039673E+01  0.74730608545E+01  0.51100000000E-03 0. -1.
         11    1    1    0    0    0 -0.28147630196E+02 -0.28989765121E+02 -0.37353292792E+02  0.55026939312E+02  0.51100000000E-03 0.  1.
         22    1    1    0    0    0  0.31968622950E+02  0.32926397823E+02  0.42427696759E+02  0.62499999833E+02  0.00000000000E+00 0.  1.
</event>
<event>
 4    1  0.1956390E-002  0.9118800E+02  0.7818608E-02  0.1130116E+00
         25   -1    0    0    0    0  0.00000000000E+00  0.00000000000E+00  0.99999998245E-14  0.12500000000E+03  0.12500000000E+03 0.  0.
        -11    1    1    0    0    0  0.45120125166E+01 -0.57104511928E+01  0.47749664952E+00  0.72935254223E+01  0.51100000000E-03 0. -1.
         11    1    1    0    0    0  0.34150338415E+02 -0.43251590634E+02  0.32886717207E+01  0.55206531029E+02  0.51100000000E-03 0.  1.
         22    1    1    0    0    0 -0.38662350932E+02  0.48962041827E+02 -0.37661683702E+01  0.62499943549E+02  0.00000000000E+00 0.  1.
</event>
<event>
 4    1  0.1956390E-002  0.9118800E+02  0.7818608E-02  0.1130116E+00
         25   -1    0    0    0    0  0.00000000000E+00  0.00000000000E+00  0.99999998245E-14  0.12500000000E+03  0.12500000000E+03 0.  0.
        -11    1    1    0    0    0  0.72178072776E+01 -0.25022915089E+02  0.16080816609E+02  0.30607771637E+02  0.51100000000E-03 0.  1.
         11    1    1    0    0    0  0.75021700620E+01 -0.26072132785E+02  0.16765311615E+02  0.31892230047E+02  0.51100000000E-03 0. -1.
         22    1    1    0    0    0 -0.14719977340E+02  0.51095047875E+02 -0.32846128224E+02  0.62499998316E+02  0.00000000000E+00 0.  1.
</event>
<event>
 4    1  0.1956390E-002  0.9118800E+02  0.7818608E-02  0.1130116E+00
         25   -1    0    0    0    0  0.00000000000E+00  0.00000000000E+00  0.99999998245E-14  0.12500000000E+03  0.12500000000E+03 0.  0.
        -11    1    1    0    0    0 -0.74905414640E+00 -0.12418619314E+01  0.22470593207E+01  0.26744305979E+01  0.51100000000E-03 0. -1.
         11    1    1    0    0    0 -0.14938960138E+02 -0.28218231898E+02  0.50593820476E+02  0.59826213419E+02  0.51100000000E-03 0.  1.
         22    1    1    0    0    0  0.15688014284E+02  0.29460093829E+02 -0.52840879797E+02  0.62499355983E+02  0.00000000000E+00 0.  1.
</event>
<event>
 4    1  0.1956390E-002  0.9118800E+02  0.7818608E-02  0.1130116E+00
         25   -1    0    0    0    0  0.00000000000E+00  0.00000000000E+00  0.99999998245E-14  0.12500000000E+03  0.12500000000E+03 0.  0.
        -11    1    1    0    0    0 -0.13672490921E+02 -0.22035298761E+02  0.11501876810E+02  0.28368725207E+02  0.51100000000E-03 0. -1.
         11    1    1    0    0    0 -0.22150633208E+02 -0.25184119292E+02  0.75414892403E+01  0.34376801426E+02  0.51100000000E-03 0.  1.
         22    1    1    0    0    0  0.35823124129E+02  0.47219418053E+02 -0.19043366051E+02  0.62254473367E+02  0.00000000000E+00 0.  1.
</event>
<event>
 4    1  0.1956390E-002  0.9118800E+02  0.7818608E-02  0.1130116E+00
         25   -1    0    0    0    0  0.00000000000E+00  0.00000000000E+00  0.99999998245E-14  0.12500000000E+03  0.12500000000E+03 0.  0.
        -11    1    1    0    0    0 -0.30305832448E+02 -0.37151806470E+02 -0.18689912168E+02  0.51458847844E+02  0.51100000000E-03 0.  1.
         11    1    1    0    0    0 -0.65846908211E+01 -0.79159562324E+01 -0.39863271756E+01  0.11041345973E+02  0.51100000000E-03 0. -1.
         22    1    1    0    0    0  0.36890523269E+02  0.45067762703E+02  0.22676239344E+02  0.62499806183E+02  0.00000000000E+00 0.  1.
</event>
<event>
 4    1  0.1956390E-002  0.9118800E+02  0.7818608E-02  0.1130116E+00
         25   -1    0    0    0    0  0.00000000000E+00  0.00000000000E+00  0.99999998245E-14  0.12500000000E+03  0.12500000000E+03 0.  0.
        -11    1    1    0    0    0 -0.12544285524E+02 -0.68244540200E+01 -0.37567149809E+02  0.40189837235E+02  0.51100000000E-03 0. -1.
         11    1    1    0    0    0 -0.69692041582E+01 -0.37825534911E+01 -0.20853437759E+02  0.22310163247E+02  0.51100000000E-03 0.  1.
         22    1    1    0    0    0  0.19513489682E+02  0.10607007511E+02  0.58420587568E+02  0.62499999517E+02  0.00000000000E+00 0. -1.
</event>
<event>
 4    1  0.1956390E-002  0.9118800E+02  0.7818608E-02  0.1130116E+00
         25   -1    0    0    0    0  0.00000000000E+00  0.00000000000E+00  0.99999998245E-14  0.12500000000E+03  0.12500000000E+03 0.  0.
        -11    1    1    0    0    0 -0.28702282650E+02 -0.20123327278E+02  0.15637271381E+02  0.38383506700E+02  0.51100000000E-03 0.  1.
         11    1    1    0    0    0 -0.17947181343E+02 -0.12625185483E+02  0.10006053073E+02  0.24116751958E+02  0.51100000000E-03 0. -1.
         22    1    1    0    0    0  0.46649463992E+02  0.32748512761E+02 -0.25643324455E+02  0.62499741343E+02  0.00000000000E+00 0.  1.
</event>
<event>
 4    1  0.1956390E-002  0.9118800E+02  0.7818608E-02  0.1130116E+00
         25   -1    0    0    0    0  0.00000000000E+00  0.00000000000E+00  0.99999998245E-14  0.12500000000E+03  0.12500000000E+03 0.  0.
        -11    1    1    0    0    0  0.26137758356E+02  0.73234999591E+00  0.16928371532E+02  0.31149454431E+02  0.51100000000E-03 0.  1.
         11    1    1    0    0    0  0.26293277385E+02  0.74365004317E+00  0.17057766897E+02  0.31350548046E+02  0.51100000000E-03 0. -1.
         22    1    1    0    0    0 -0.52431035741E+02 -0.14760000391E+01 -0.33986138429E+02  0.62499997522E+02  0.00000000000E+00 0.  1.
</event>
<event>
 4    1  0.1956390E-002  0.9118800E+02  0.7818608E-02  0.1130116E+00
         25   -1    0    0    0    0  0.00000000000E+00  0.00000000000E+00  0.99999998245E-14  0.12500000000E+03  0.12500000000E+03 0.  0.
        -11    1    1    0    0    0 -0.87309328075E+01  0.39568159871E+02 -0.14224316446E+02  0.42944145606E+02  0.51100000000E-03 0. -1.
         11    1    1    0    0    0 -0.39743293007E+01  0.18017831038E+02 -0.64802712907E+01  0.19555854493E+02  0.51100000000E-03 0.  1.
         22    1    1    0    0    0  0.12705262108E+02 -0.57585990909E+02  0.20704587737E+02  0.62499999900E+02  0.00000000000E+00 0. -1.
</event>
<event>
 4    1  0.1956390E-002  0.9118800E+02  0.7818608E-02  0.1130116E+00
         25   -1    0    0    0    0  0.00000000000E+00  0.00000000000E+00  0.99999998245E-14  0.12500000000E+03  0.12500000000E+03 0.  0.
        -11    1    1    0    0    0 -0.12428377387E+02 -0.43380512242E+02  0.38520741238E+01  0.45289865115E+02  0.51100000000E-03 0.  1.
         11    1    1    0    0    0 -0.46292225738E+01 -0.16519668532E+02  0.13662563930E+01  0.17210340114E+02  0.51100000000E-03 0. -1.
         22    1    1    0    0    0  0.17057599960E+02  0.59900180773E+02 -0.52183305167E+01  0.62499794771E+02  0.00000000000E+00 0.  1.
</event>
<event>
 4    1  0.1956390E-002  0.9118800E+02  0.7818608E-02  0.1130116E+00
         25   -1    0    0    0    0  0.00000000000E+00  0.00000000000E+00  0.99999998245E-14  0.12500000000E+03  0.12500000000E+03 0.  0.
        -11    1    1    0    0    0 -0.17864119131E+00 -0.13404101435E+01 -0.56585824845E-01  0.13534453239E+01  0.51100000000E-03 0. -1.
         11    1    1    0    0    0 -0.55248766427E+02 -0.26773160929E+02 -0.24937696254E+01  0.61444667995E+02  0.51100000000E-03 0.  1.
         22    1    1    0    0    0  0.55427407618E+02  0.28113571072E+02  0.25503554503E+01  0.62201886681E+02  0.00000000000E+00 0.  1.
</event>
<event>
 4    1  0.1956390E-002  0.9118800E+02  0.7818608E-02  0.1130116E+00
         25   -1    0    0    0    0  0.00000000000E+00  0.00000000000E+00  0.99999998245E-14  0.12500000000E+03  0.12500000000E+03 0.  0.
        -11    1    1    0    0    0  0.22394822811E+00 -0.53002231285E+02  0.15462093431E+02  0.55211982463E+02  0.51100000000E-03 0.  1.
         11    1    1    0    0    0  0.14069015201E+00 -0.70249766762E+01  0.19379416631E+01  0.72887385171E+01  0.51100000000E-03 0. -1.
         22    1    1    0    0    0 -0.36463838012E+00  0.60027207961E+02 -0.17400035095E+02  0.62499279020E+02  0.00000000000E+00 0.  1.
</event>
<event>
 4    1  0.1956390E-002  0.9118800E+02  0.7818608E-02  0.1130116E+00
         25   -1    0    0    0    0  0.00000000000E+00  0.00000000000E+00  0.99999998245E-14  0.12500000000E+03  0.12500000000E+03 0.  0.
        -11    1    1    0    0    0  0.87652313895E+01  0.25770627218E+01  0.30121472057E+02  0.31476556558E+02  0.51100000000E-03 0.  1.
         11    1    1    0    0    0  0.85518742561E+01  0.24521677013E+01  0.29720539817E+02  0.31023509908E+02  0.51100000000E-03 0. -1.
         22    1    1    0    0    0 -0.17317105646E+02 -0.50292304231E+01 -0.59842011874E+02  0.62499933534E+02  0.00000000000E+00 0. -1.
</event>
<event>
 4    1  0.1956390E-002  0.9118800E+02  0.7818608E-02  0.1130116E+00
         25   -1    0    0    0    0  0.00000000000E+00  0.00000000000E+00  0.99999998245E-14  0.12500000000E+03  0.12500000000E+03 0.  0.
        -11    1    1    0    0    0 -0.82018010497E+01 -0.17250632331E+02 -0.32770681487E+02  0.37931140526E+02  0.51100000000E-03 0. -1.
         11    1    1    0    0    0 -0.53031187094E+01 -0.11180080573E+02 -0.21225259145E+02  0.24568860285E+02  0.51100000000E-03 0.  1.
         22    1    1    0    0    0  0.13504919759E+02  0.28430712904E+02  0.53995940631E+02  0.62499999189E+02  0.00000000000E+00 0. -1.
</event>
<event>
 4    1  0.1956390E-002  0.9118800E+02  0.7818608E-02  0.1130116E+00
         25   -1    0    0    0    0  0.00000000000E+00  0.00000000000E+00  0.99999998245E-14  0.12500000000E+03  0.12500000000E+03 0.  0.
        -11    1    1    0    0    0 -0.48260296619E+01 -0.55324662835E+02 -0.13029957549E+02  0.57042866987E+02  0.51100000000E-03 0. -1.
         11    1    1    0    0    0  0.38929424045E+01 -0.49012154387E+01 -0.30123162844E+00  0.62663908349E+01  0.51100000000E-03 0.  1.
         22    1    1    0    0    0  0.93308725737E+00  0.60225878273E+02  0.13331189177E+02  0.61690742178E+02  0.00000000000E+00 0. -1.
</event>
<event>
 4    1  0.1956390E-002  0.9118800E+02  0.7818608E-02  0.1130116E+00
         25   -1    0    0    0    0  0.00000000000E+00  0.00000000000E+00  0.99999998245E-14  0.12500000000E+03  0.12500000000E+03 0.  0.
        -11    1    1    0    0    0 -0.23737287929E+01  0.17187351606E+02  0.13552929190E+01  0.17403346310E+02  0.51100000000E-03 0.  1.
         11    1    1    0    0    0 -0.46402004225E+00  0.44550410065E+02  0.74440568684E+01  0.45170436510E+02  0.51100000000E-03 0. -1.
         22    1    1    0    0    0  0.28377488352E+01 -0.61737761672E+02 -0.87993497874E+01  0.62426217180E+02  0.00000000000E+00 0. -1.
</event>
<event>
 4    1  0.1956390E-002  0.9118800E+02  0.7818608E-02  0.1130116E+00
         25   -1    0    0    0    0  0.00000000000E+00  0.00000000000E+00  0.99999998245E-14  0.12500000000E+03  0.12500000000E+03 0.  0.
        -11    1    1    0    0    0  0.65066169512E-01 -0.71793496837E+01  0.12470330791E+02  0.14389456063E+02  0.51100000000E-03 0. -1.
         11    1    1    0    0    0  0.15126925216E+01 -0.24386229558E+02  0.41447134469E+02  0.48112798574E+02  0.51100000000E-03 0.  1.
         22    1    1    0    0    0 -0.15777586912E+01  0.31565579241E+02 -0.53917465260E+02  0.62497745363E+02  0.00000000000E+00 0.  1.
</event>
<event>
 4    1  0.1956390E-002  0.9118800E+02  0.7818608E-02  0.1130116E+00
         25   -1    0    0    0    0  0.00000000000E+00  0.00000000000E+00  0.99999998245E-14  0.12500000000E+03  0.12500000000E+03 0.  0.
        -11    1    1    0    0    0 -0.15690283803E+02  0.26018757869E+02 -0.22695289910E+02  0.37924094600E+02  0.51100000000E-03 0. -1.
         11    1    1    0    0    0 -0.10168999848E+02  0.16860119867E+02 -0.14707240632E+02  0.24575905418E+02  0.51100000000E-03 0. -1.
         22    1    1    0    0    0  0.25859283651E+02 -0.42878877736E+02  0.37402530542E+02  0.62499999982E+02  0.00000000000E+00 0. -1.
</event>
<event>
 4    1  0.1956390E-002  0.9118800E+02  0.7818608E-02  0.1130116E+00
         25   -1    0    0    0    0  0.00000000000E+00  0.00000000000E+00  0.99999998245E-14  0.12500000000E+03  0.12500000000E+03 0.  0.
        -11    1    1    0    0    0  0.10205861716E+02 -0.24381175193E+02  0.28529704794E+02  0.38891456299E+02  0.51100000000E-03 0. -1.
         11    1    1    0    0    0 -0.16535834637E+02 -0.22207626369E+02  0.52940679560E+01  0.28189353520E+02  0.51100000000E-03 0.  1.
         22    1    1    0    0    0  0.63299729215E+01  0.46588801562E+02 -0.33823772750E+02  0.57919190181E+02  0.00000000000E+00 0. -1.
</event>
<event>
 4    1  0.1956390E-002  0.9118800E+02  0.7818608E-02  0.1130116E+00
         25   -1    0    0    0    0  0.00000000000E+00  0.00000000000E+00  0.99999998245E-14  0.12500000000E+03  0.12500000000E+03 0.  0.
        -11    1    1    0    0    0  0.29002985451E+02  0.23671761629E+02  0.49616834818E+00  0.37440241012E+02  0.51100000000E-03 0. -1.
         11    1    1    0    0    0 -0.39547266454E+02  0.18801732927E+02  0.28190005936E+00  0.43790077791E+02  0.51100000000E-03 0.  1.
         22    1    1    0    0    0  0.10544281003E+02 -0.42473494556E+02 -0.77806840754E+00  0.43769681197E+02  0.00000000000E+00 0.  1.
</event>
<event>
 4    1  0.1956390E-002  0.9118800E+02  0.7818608E-02  0.1130116E+00
         25   -1    0    0    0    0  0.00000000000E+00  0.00000000000E+00  0.99999998245E-14  0.12500000000E+03  0.12500000000E+03 0.  0.
        -11    1    1    0    0    0  0.56249624411E+01  0.45425680959E+01  0.26576317126E+02  0.27542254077E+02  0.51100000000E-03 0. -1.
         11    1    1    0    0    0  0.71675736899E+01  0.56755294131E+01  0.33741076377E+02  0.34957774272E+02  0.51100000000E-03 0.  1.
         22    1    1    0    0    0 -0.12792536131E+02 -0.10218097509E+02 -0.60317393503E+02  0.62499971651E+02  0.00000000000E+00 0. -1.
</event>
<event>
 4    1  0.1956390E-002  0.9118800E+02  0.7818608E-02  0.1130116E+00
         25   -1    0    0    0    0  0.00000000000E+00  0.00000000000E+00  0.99999998245E-14  0.12500000000E+03  0.12500000000E+03 0.  0.
        -11    1    1    0    0    0  0.54215523699E+02  0.22456628862E+02  0.18961577595E+02  0.61669803104E+02  0.51100000000E-03 0.  1.
         11    1    1    0    0    0  0.70192130453E+00  0.40008609957E+00  0.20672459647E+00  0.83396506206E+00  0.51100000000E-03 0. -1.
         22    1    1    0    0    0 -0.54917445003E+02 -0.22856714961E+02 -0.19168302191E+02  0.62496231834E+02  0.00000000000E+00 0.  1.
</event>
<event>
 4    1  0.1956390E-002  0.9118800E+02  0.7818608E-02  0.1130116E+00
         25   -1    0    0    0    0  0.00000000000E+00  0.00000000000E+00  0.99999998245E-14  0.12500000000E+03  0.12500000000E+03 0.  0.
        -11    1    1    0    0    0  0.12051731493E+02  0.58007672673E+02 -0.12293681746E+01  0.59259139947E+02  0.51100000000E-03 0.  1.
         11    1    1    0    0    0  0.91515993720E+00  0.31079299710E+01  0.34893115082E+00  0.32586039380E+01  0.51100000000E-03 0. -1.
         22    1    1    0    0    0 -0.12966891431E+02 -0.61115602644E+02  0.88043702379E+00  0.62482256115E+02  0.00000000000E+00 0.  1.
</event>
<event>
 4    1  0.1956390E-002  0.9118800E+02  0.7818608E-02  0.1130116E+00
         25   -1    0    0    0    0  0.00000000000E+00  0.00000000000E+00  0.99999998245E-14  0.12500000000E+03  0.12500000000E+03 0.  0.
        -11    1    1    0    0    0  0.22003679230E+01  0.60116747280E+02  0.10092453407E+02  0.60997725683E+02  0.51100000000E-03 0. -1.
         11    1    1    0    0    0 -0.62301753379E-01  0.14966763493E+01  0.15477220175E+00  0.15059469773E+01  0.51100000000E-03 0.  1.
         22    1    1    0    0    0 -0.21380661696E+01 -0.61613423629E+02 -0.10247225609E+02  0.62496327339E+02  0.00000000000E+00 0. -1.
</event>
<event>
 4    1  0.1956390E-002  0.9118800E+02  0.7818608E-02  0.1130116E+00
         25   -1    0    0    0    0  0.00000000000E+00  0.00000000000E+00  0.99999998245E-14  0.12500000000E+03  0.12500000000E+03 0.  0.
        -11    1    1    0    0    0  0.52895134153E+02 -0.44164456497E+01 -0.20650875141E+02  0.56954884369E+02  0.51100000000E-03 0. -1.
         11    1    1    0    0    0  0.51500438376E+01 -0.42875304643E+00 -0.20103550087E+01  0.55451157090E+01  0.51100000000E-03 0.  1.
         22    1    1    0    0    0 -0.58045177990E+02  0.48451986961E+01  0.22661230149E+02  0.62499999922E+02  0.00000000000E+00 0. -1.
</event>
<event>
 4    1  0.1956390E-002  0.9118800E+02  0.7818608E-02  0.1130116E+00
         25   -1    0    0    0    0  0.00000000000E+00  0.00000000000E+00  0.99999998245E-14  0.12500000000E+03  0.12500000000E+03 0.  0.
        -11    1    1    0    0    0  0.32920344347E+02 -0.13925792270E+02  0.14238570464E+02  0.38476143926E+02  0.51100000000E-03 0. -1.
         11    1    1    0    0    0  0.20752586044E+02 -0.81025277623E+01  0.89971373589E+01  0.24026428461E+02  0.51100000000E-03 0.  1.
         22    1    1    0    0    0 -0.53672930392E+02  0.22028320032E+02 -0.23235707822E+02  0.62497427613E+02  0.00000000000E+00 0.  1.
</event>
<event>
 4    1  0.1956390E-002  0.9118800E+02  0.7818608E-02  0.1130116E+00
         25   -1    0    0    0    0  0.00000000000E+00  0.00000000000E+00  0.99999998245E-14  0.12500000000E+03  0.12500000000E+03 0.  0.
        -11    1    1    0    0    0  0.55215734510E+02  0.13724369562E+01 -0.95256199128E+01  0.56048178879E+02  0.51100000000E-03 0. -1.
         11    1    1    0    0    0  0.64173816969E+01 -0.27234602198E+00 -0.71943514451E+00  0.64633232464E+01  0.51100000000E-03 0.  1.
         22    1    1    0    0    0 -0.61633116207E+02 -0.11000909342E+01  0.10245055057E+02  0.62488497874E+02  0.00000000000E+00 0. -1.
</event>
<event>
 4    1  0.1956390E-002  0.9118800E+02  0.7818608E-02  0.1130116E+00
         25   -1    0    0    0    0  0.00000000000E+00  0.00000000000E+00  0.99999998245E-14  0.12500000000E+03  0.12500000000E+03 0.  0.
        -11    1    1    0    0    0  0.56052656332E+01 -0.13418794474E+01 -0.22098688475E+02  0.22837943774E+02  0.51100000000E-03 0. -1.
         11    1    1    0    0    0  0.97362192940E+01 -0.23287506192E+01 -0.38377879822E+02  0.39662056243E+02  0.51100000000E-03 0. -1.
         22    1    1    0    0    0 -0.15341484927E+02  0.36706300666E+01  0.60476568297E+02  0.62499999982E+02  0.00000000000E+00 0. -1.
</event>
<event>
 4    1  0.1956390E-002  0.9118800E+02  0.7818608E-02  0.1130116E+00
         25   -1    0    0    0    0  0.00000000000E+00  0.00000000000E+00  0.99999998245E-14  0.12500000000E+03  0.12500000000E+03 0.  0.
        -11    1    1    0    0    0  0.19822106088E+02  0.31465995424E+02  0.79219716824E+01  0.38023445311E+02  0.51100000000E-03 0. -1.
         11    1    1    0    0    0  0.13055385815E+02  0.20764784974E+02  0.13595145205E+01  0.24565579044E+02  0.51100000000E-03 0.  1.
         22    1    1    0    0    0 -0.32877491903E+02 -0.52230780397E+02 -0.92814862030E+01  0.62410975644E+02  0.00000000000E+00 0.  1.
</event>
<event>
 4    1  0.1956390E-002  0.9118800E+02  0.7818608E-02  0.1130116E+00
         25   -1    0    0    0    0  0.00000000000E+00  0.00000000000E+00  0.99999998245E-14  0.12500000000E+03  0.12500000000E+03 0.  0.
        -11    1    1    0    0    0  0.15731956112E+02 -0.10281036435E+02 -0.10911904253E+02  0.21731631507E+02  0.51100000000E-03 0.  1.
         11    1    1    0    0    0  0.12636010474E+02 -0.35802354251E+02 -0.17884983952E+02  0.41968440307E+02  0.51100000000E-03 0. -1.
         22    1    1    0    0    0 -0.28367966586E+02  0.46083390686E+02  0.28796888204E+02  0.61299928186E+02  0.00000000000E+00 0. -1.
</event>
<event>
 4    1  0.1956390E-002  0.9118800E+02  0.7818608E-02  0.1130116E+00
         25   -1    0    0    0    0  0.00000000000E+00  0.00000000000E+00  0.99999998245E-14  0.12500000000E+03  0.12500000000E+03 0.  0.
        -11    1    1    0    0    0  0.22779956554E+02  0.45204656612E+02  0.22918257011E+02  0.55566481845E+02  0.51100000000E-03 0. -1.
         11    1    1    0    0    0  0.28407784128E+01  0.56403935098E+01  0.28617505242E+01  0.69335183896E+01  0.51100000000E-03 0.  1.
         22    1    1    0    0    0 -0.25620734967E+02 -0.50845050122E+02 -0.25780007535E+02  0.62499999765E+02  0.00000000000E+00 0. -1.
</event>
<event>
 4    1  0.1956390E-002  0.9118800E+02  0.7818608E-02  0.1130116E+00
         25   -1    0    0    0    0  0.00000000000E+00  0.00000000000E+00  0.99999998245E-14  0.12500000000E+03  0.12500000000E+03 0.  0.
        -11    1    1    0    0    0 -0.80389429188E+01  0.12916828957E+01  0.94849140960E+00  0.81971143807E+01  0.51100000000E-03 0. -1.
         11    1    1    0    0    0 -0.51576497459E+02 -0.30959604007E-01  0.17371363962E+02  0.54423343657E+02  0.51100000000E-03 0.  1.
         22    1    1    0    0    0  0.59615440378E+02 -0.12607232917E+01 -0.18319855371E+02  0.62379541963E+02  0.00000000000E+00 0.  1.
</event>
<event>
 4    1  0.1956390E-002  0.9118800E+02  0.7818608E-02  0.1130116E+00
         25   -1    0    0    0    0  0.00000000000E+00  0.00000000000E+00  0.99999998245E-14  0.12500000000E+03  0.12500000000E+03 0.  0.
        -11    1    1    0    0    0 -0.22523655804E+01  0.68259073405E+01  0.25634677226E+01  0.76313516991E+01  0.51100000000E-03 0.  1.
         11    1    1    0    0    0 -0.16515790581E+02  0.48862895939E+02  0.18714396984E+02  0.54868776119E+02  0.51100000000E-03 0. -1.
         22    1    1    0    0    0  0.18768156161E+02 -0.55688803279E+02 -0.21277864706E+02  0.62499872182E+02  0.00000000000E+00 0. -1.
</event>
<event>
 4    1  0.1956390E-002  0.9118800E+02  0.7818608E-02  0.1130116E+00
         25   -1    0    0    0    0  0.00000000000E+00  0.00000000000E+00  0.99999998245E-14  0.12500000000E+03  0.12500000000E+03 0.  0.
        -11    1    1    0    0    0  0.31917514576E+00 -0.37548471657E+01 -0.12249042681E+02  0.12815607550E+02  0.51100000000E-03 0.  1.
         11    1    1    0    0    0  0.12251909733E+01 -0.14561331104E+02 -0.47486897291E+02  0.49684392631E+02  0.51100000000E-03 0. -1.
         22    1    1    0    0    0 -0.15443661190E+01  0.18316178269E+02  0.59735939972E+02  0.62499999820E+02  0.00000000000E+00 0. -1.
</event>
<event>
 4    1  0.1956390E-002  0.9118800E+02  0.7818608E-02  0.1130116E+00
         25   -1    0    0    0    0  0.00000000000E+00  0.00000000000E+00  0.99999998245E-14  0.12500000000E+03  0.12500000000E+03 0.  0.
        -11    1    1    0    0    0 -0.80947507144E+01  0.39008385975E+01 -0.38217447691E+01  0.97645923741E+01  0.51100000000E-03 0. -1.
         11    1    1    0    0    0 -0.43709986014E+02  0.21039736623E+02 -0.20683085633E+02  0.52735409603E+02  0.51100000000E-03 0.  1.
         22    1    1    0    0    0  0.51804736728E+02 -0.24940575221E+02  0.24504830402E+02  0.62499998023E+02  0.00000000000E+00 0.  1.
</event>
<event>
 4    1  0.1956390E-002  0.9118800E+02  0.7818608E-02  0.1130116E+00
         25   -1    0    0    0    0  0.00000000000E+00  0.00000000000E+00  0.99999998245E-14  0.12500000000E+03  0.12500000000E+03 0.  0.
        -11    1    1    0    0    0  0.11051668055E+01  0.69684363846E+01 -0.54540417236E+02  0.54994887143E+02  0.51100000000E-03 0.  1.
         11    1    1    0    0    0  0.15492699348E+00  0.96058490868E+00 -0.74417767994E+01  0.75051161172E+01  0.51100000000E-03 0. -1.
         22    1    1    0    0    0 -0.12600937990E+01 -0.79290212933E+01  0.61982194035E+02  0.62499996740E+02  0.00000000000E+00 0.  1.
</event>
<event>
 4    1  0.1956390E-002  0.9118800E+02  0.7818608E-02  0.1130116E+00
         25   -1    0    0    0    0  0.00000000000E+00  0.00000000000E+00  0.99999998245E-14  0.12500000000E+03  0.12500000000E+03 0.  0.
        -11    1    1    0    0    0  0.90996311144E+01  0.30305288587E+02 -0.10836026674E+02  0.33445975499E+02  0.51100000000E-03 0. -1.
         11    1    1    0    0    0  0.97105220830E+01  0.74320735404E+01 -0.30282768539E+02  0.32658475575E+02  0.51100000000E-03 0.  1.
         22    1    1    0    0    0 -0.18810153197E+02 -0.37737362127E+02  0.41118795212E+02  0.58895548926E+02  0.00000000000E+00 0.  1.
</event>
<event>
 4    1  0.1956390E-002  0.9118800E+02  0.7818608E-02  0.1130116E+00
         25   -1    0    0    0    0  0.00000000000E+00  0.00000000000E+00  0.99999998245E-14  0.12500000000E+03  0.12500000000E+03 0.  0.
        -11    1    1    0    0    0  0.25750396551E+02  0.81529677304E+01  0.36915358176E+02  0.45741638305E+02  0.51100000000E-03 0. -1.
         11    1    1    0    0    0  0.94575261527E+01  0.29554996631E+01  0.13515306224E+02  0.16758379450E+02  0.51100000000E-03 0.  1.
         22    1    1    0    0    0 -0.35207922703E+02 -0.11108467393E+02 -0.50430664399E+02  0.62499982246E+02  0.00000000000E+00 0. -1.
</event>
<event>
 4    1  0.1956390E-002  0.9118800E+02  0.7818608E-02  0.1130116E+00
         25   -1    0    0    0    0  0.00000000000E+00  0.00000000000E+00  0.99999998245E-14  0.12500000000E+03  0.12500000000E+03 0.  0.
        -11    1    1    0    0    0  0.17657655278E+02 -0.10234440144E+02  0.11804343804E+02  0.23577088198E+02  0.51100000000E-03 0.  1.
         11    1    1    0    0    0  0.29150947239E+02 -0.16893761332E+02  0.19488872915E+02  0.38922911821E+02  0.51100000000E-03 0.  1.
         22    1    1    0    0    0 -0.46808602517E+02  0.27128201476E+02 -0.31293216719E+02  0.62499999981E+02  0.00000000000E+00 0.  1.
</event>
<event>
 4    1  0.1956390E-002  0.9118800E+02  0.7818608E-02  0.1130116E+00
         25   -1    0    0    0    0  0.00000000000E+00  0.00000000000E+00  0.99999998245E-14  0.12500000000E+03  0.12500000000E+03 0.  0.
        -11    1    1    0    0    0  0.26494198394E+02 -0.15321317631E+02  0.22076968003E+02  0.37736955878E+02  0.51100000000E-03 0. -1.
         11    1    1    0    0    0  0.20921195381E+02 -0.43738060846E+01  0.13060131731E+02  0.25047826990E+02  0.51100000000E-03 0.  1.
         22    1    1    0    0    0 -0.47415393775E+02  0.19695123716E+02 -0.35137099733E+02  0.62215217132E+02  0.00000000000E+00 0. -1.
</event>
<event>
 4    1  0.1956390E-002  0.9118800E+02  0.7818608E-02  0.1130116E+00
         25   -1    0    0    0    0  0.00000000000E+00  0.00000000000E+00  0.99999998245E-14  0.12500000000E+03  0.12500000000E+03 0.  0.
        -11    1    1    0    0    0 -0.16761101317E+02 -0.26847709078E+02  0.25232650959E+02  0.40477409438E+02  0.51100000000E-03 0. -1.
         11    1    1    0    0    0 -0.91603388498E+01 -0.14598871594E+02  0.13709716146E+02  0.22022606039E+02  0.51100000000E-03 0.  1.
         22    1    1    0    0    0  0.25921440167E+02  0.41446580673E+02 -0.38942367105E+02  0.62499984524E+02  0.00000000000E+00 0.  1.
</event>
<event>
 4    1  0.1956390E-002  0.9118800E+02  0.7818608E-02  0.1130116E+00
         25   -1    0    0    0    0  0.00000000000E+00  0.00000000000E+00  0.99999998245E-14  0.12500000000E+03  0.12500000000E+03 0.  0.
        -11    1    1    0    0    0 -0.53429025926E+01  0.38494173271E+01  0.26170157646E+01  0.70861409558E+01  0.51100000000E-03 0. -1.
         11    1    1    0    0    0 -0.41785351792E+02  0.30082120870E+02  0.20487708706E+02  0.55413859536E+02  0.51100000000E-03 0.  1.
         22    1    1    0    0    0  0.47128254384E+02 -0.33931538197E+02 -0.23104724471E+02  0.62499999508E+02  0.00000000000E+00 0.  1.
</event>
<event>
 4    1  0.1956390E-002  0.9118800E+02  0.7818608E-02  0.1130116E+00
         25   -1    0    0    0    0  0.00000000000E+00  0.00000000000E+00  0.99999998245E-14  0.12500000000E+03  0.12500000000E+03 0.  0.
        -11    1    1    0    0    0 -0.31034603658E+02  0.59154019598E+01  0.22928619554E+02  0.39036652001E+02  0.51100000000E-03 0.  1.
         11    1    1    0    0    0 -0.18658157085E+02  0.35517022102E+01  0.13776331296E+02  0.23463348411E+02  0.51100000000E-03 0. -1.
         22    1    1    0    0    0  0.49692760743E+02 -0.94671041700E+01 -0.36704950850E+02  0.62499999588E+02  0.00000000000E+00 0. -1.
</event>
<event>
 4    1  0.1956390E-002  0.9118800E+02  0.7818608E-02  0.1130116E+00
         25   -1    0    0    0    0  0.00000000000E+00  0.00000000000E+00  0.99999998245E-14  0.12500000000E+03  0.12500000000E+03 0.  0.
        -11    1    1    0    0    0 -0.24626531757E+02  0.56680175023E+02  0.20603801724E+01  0.61833271575E+02  0.51100000000E-03 0. -1.
         11    1    1    0    0    0  0.43947643177E+01 -0.12840562200E+02  0.48069100905E+01  0.14397929570E+02  0.51100000000E-03 0.  1.
         22    1    1    0    0    0  0.20231767440E+02 -0.43839612823E+02 -0.68672902629E+01  0.48768798855E+02  0.00000000000E+00 0. -1.
</event>
<event>
 4    1  0.1956390E-002  0.9118800E+02  0.7818608E-02  0.1130116E+00
         25   -1    0    0    0    0  0.00000000000E+00  0.00000000000E+00  0.99999998245E-14  0.12500000000E+03  0.12500000000E+03 0.  0.
        -11    1    1    0    0    0 -0.42208513729E+01 -0.22551989315E+01  0.18883905635E+02  0.19480847025E+02  0.51100000000E-03 0.  1.
         11    1    1    0    0    0 -0.93338124563E+01 -0.49569058428E+01  0.41700799303E+02  0.43019154261E+02  0.51100000000E-03 0. -1.
         22    1    1    0    0    0  0.13554663829E+02  0.72121047743E+01 -0.60584704938E+02  0.62499998714E+02  0.00000000000E+00 0. -1.
</event>
<event>
 4    1  0.1956390E-002  0.9118800E+02  0.7818608E-02  0.1130116E+00
         25   -1    0    0    0    0  0.00000000000E+00  0.00000000000E+00  0.99999998245E-14  0.12500000000E+03  0.12500000000E+03 0.  0.
        -11    1    1    0    0    0 -0.11297179488E+01  0.11841036253E+02 -0.23861418357E+02  0.26661839555E+02  0.51100000000E-03 0. -1.
         11    1    1    0    0    0 -0.13588721732E+01  0.15635592931E+02 -0.32219283212E+02  0.35838533882E+02  0.51100000000E-03 0.  1.
         22    1    1    0    0    0  0.24885901221E+01 -0.27476629184E+02  0.56080701568E+02  0.62499626563E+02  0.00000000000E+00 0. -1.
</event>
<event>
 4    1  0.1956390E-002  0.9118800E+02  0.7818608E-02  0.1130116E+00
         25   -1    0    0    0    0  0.00000000000E+00  0.00000000000E+00  0.99999998245E-14  0.12500000000E+03  0.12500000000E+03 0.  0.
        -11    1    1    0    0    0  0.17357129807E+02 -0.22950546113E+01 -0.54567465532E+01  0.18338847129E+02  0.51100000000E-03 0. -1.
         11    1    1    0    0    0  0.41798347780E+02 -0.55258649364E+01 -0.13136604009E+02  0.44161152901E+02  0.51100000000E-03 0.  1.
         22    1    1    0    0    0 -0.59155477587E+02  0.78209195478E+01  0.18593350562E+02  0.62499999970E+02  0.00000000000E+00 0.  1.
</event>
<event>
 4    1  0.1956390E-002  0.9118800E+02  0.7818608E-02  0.1130116E+00
         25   -1    0    0    0    0  0.00000000000E+00  0.00000000000E+00  0.99999998245E-14  0.12500000000E+03  0.12500000000E+03 0.  0.
        -11    1    1    0    0    0  0.97753847395E+01  0.30241496594E+02  0.12373070160E+02  0.34105705219E+02  0.51100000000E-03 0.  1.
         11    1    1    0    0    0  0.30607485004E+02  0.87704965489E+01 -0.13860935716E+02  0.34725571085E+02  0.51100000000E-03 0. -1.
         22    1    1    0    0    0 -0.40382869744E+02 -0.39011993143E+02  0.14878655560E+01  0.56168723696E+02  0.00000000000E+00 0. -1.
</event>
<event>
 4    1  0.1956390E-002  0.9118800E+02  0.7818608E-02  0.1130116E+00
         25   -1    0    0    0    0  0.00000000000E+00  0.00000000000E+00  0.99999998245E-14  0.12500000000E+03  0.12500000000E+03 0.  0.
        -11    1    1    0    0    0 -0.59332756853E+01 -0.13798564453E+02 -0.41670014103E+02  0.44294403901E+02  0.51100000000E-03 0. -1.
         11    1    1    0    0    0 -0.24393914903E+01 -0.56698572598E+01 -0.17127341246E+02  0.18205596134E+02  0.51100000000E-03 0.  1.
         22    1    1    0    0    0  0.83726671756E+01  0.19468421712E+02  0.58797355349E+02  0.62499999965E+02  0.00000000000E+00 0.  1.
</event>
<event>
 4    1  0.1956390E-002  0.9118800E+02  0.7818608E-02  0.1130116E+00
         25   -1    0    0    0    0  0.00000000000E+00  0.00000000000E+00  0.99999998245E-14  0.12500000000E+03  0.12500000000E+03 0.  0.
        -11    1    1    0    0    0  0.15618718104E+02 -0.37908112622E+02  0.36590344817E+02  0.54952913407E+02  0.51100000000E-03 0. -1.
         11    1    1    0    0    0  0.21418350707E+01 -0.51997385531E+01  0.50332721752E+01  0.75470900048E+01  0.51100000000E-03 0.  1.
         22    1    1    0    0    0 -0.17760553175E+02  0.43107851175E+02 -0.41623616992E+02  0.62499996588E+02  0.00000000000E+00 0. -1.
</event>
<event>
 4    1  0.1956390E-002  0.9118800E+02  0.7818608E-02  0.1130116E+00
         25   -1    0    0    0    0  0.00000000000E+00  0.00000000000E+00  0.99999998245E-14  0.12500000000E+03  0.12500000000E+03 0.  0.
        -11    1    1    0    0    0  0.66312523566E+01  0.44389695905E+02 -0.14734323656E+02  0.47238955368E+02  0.51100000000E-03 0. -1.
         11    1    1    0    0    0  0.21227228332E+01  0.14346865503E+02 -0.47498610996E+01  0.15261051167E+02  0.51100000000E-03 0.  1.
         22    1    1    0    0    0 -0.87539751898E+01 -0.58736561408E+02  0.19484184756E+02  0.62499993466E+02  0.00000000000E+00 0. -1.
</event>
<event>
 4    1  0.1956390E-002  0.9118800E+02  0.7818608E-02  0.1130116E+00
         25   -1    0    0    0    0  0.00000000000E+00  0.00000000000E+00  0.99999998245E-14  0.12500000000E+03  0.12500000000E+03 0.  0.
        -11    1    1    0    0    0  0.15180683538E+02 -0.37093576923E+01  0.12421987272E+02  0.19962922011E+02  0.51100000000E-03 0.  1.
         11    1    1    0    0    0  0.34053955771E+02 -0.65753925465E+01  0.24652976601E+02  0.42552049849E+02  0.51100000000E-03 0. -1.
         22    1    1    0    0    0 -0.49234639309E+02  0.10284750239E+02 -0.37074963873E+02  0.62485028140E+02  0.00000000000E+00 0. -1.
</event>
<event>
 4    1  0.1956390E-002  0.9118800E+02  0.7818608E-02  0.1130116E+00
         25   -1    0    0    0    0  0.00000000000E+00  0.00000000000E+00  0.99999998245E-14  0.12500000000E+03  0.12500000000E+03 0.  0.
        -11    1    1    0    0    0  0.21316605023E+02 -0.80312272173E+00  0.33394098189E+02  0.39625855826E+02  0.51100000000E-03 0.  1.
         11    1    1    0    0    0  0.13835985924E+02  0.86382890069E+01  0.16917719310E+02  0.23500292984E+02  0.51100000000E-03 0. -1.
         22    1    1    0    0    0 -0.35152590947E+02 -0.78351662852E+01 -0.50311817499E+02  0.61873851190E+02  0.00000000000E+00 0.  1.
</event>
<event>
 4    1  0.1956390E-002  0.9118800E+02  0.7818608E-02  0.1130116E+00
         25   -1    0    0    0    0  0.00000000000E+00  0.00000000000E+00  0.99999998245E-14  0.12500000000E+03  0.12500000000E+03 0.  0.
        -11    1    1    0    0    0  0.19013941976E+01  0.23443004817E+02 -0.10930542611E+02  0.25935815715E+02  0.51100000000E-03 0. -1.
         11    1    1    0    0    0  0.27043068766E+01  0.33109630268E+02 -0.15276884697E+02  0.36564246177E+02  0.51100000000E-03 0.  1.
         22    1    1    0    0    0 -0.46057010742E+01 -0.56552635085E+02  0.26207427308E+02  0.62499938109E+02  0.00000000000E+00 0.  1.
</event>
<event>
 4    1  0.1956390E-002  0.9118800E+02  0.7818608E-02  0.1130116E+00
         25   -1    0    0    0    0  0.00000000000E+00  0.00000000000E+00  0.99999998245E-14  0.12500000000E+03  0.12500000000E+03 0.  0.
        -11    1    1    0    0    0 -0.40555903126E+02 -0.41744003677E+01 -0.28805048181E+02  0.49919311872E+02  0.51100000000E-03 0.  1.
         11    1    1    0    0    0 -0.95052212556E+01 -0.29616107072E+01 -0.78061841155E+01  0.12651358813E+02  0.51100000000E-03 0. -1.
         22    1    1    0    0    0  0.50061124382E+02  0.71360110749E+01  0.36611232297E+02  0.62429329315E+02  0.00000000000E+00 0.  1.
</event>
<event>
 4    1  0.1956390E-002  0.9118800E+02  0.7818608E-02  0.1130116E+00
         25   -1    0    0    0    0  0.00000000000E+00  0.00000000000E+00  0.99999998245E-14  0.12500000000E+03  0.12500000000E+03 0.  0.
        -11    1    1    0    0    0  0.16193529828E+02 -0.42589369353E+02  0.14324708147E+01  0.45586585341E+02  0.51100000000E-03 0. -1.
         11    1    1    0    0    0  0.61178530096E+01 -0.15758778898E+02  0.54911560867E+00  0.16913567513E+02  0.51100000000E-03 0.  1.
         22    1    1    0    0    0 -0.22311382838E+02  0.58348148251E+02 -0.19815864234E+01  0.62499847146E+02  0.00000000000E+00 0. -1.
</event>
<event>
 4    1  0.1956390E-002  0.9118800E+02  0.7818608E-02  0.1130116E+00
         25   -1    0    0    0    0  0.00000000000E+00  0.00000000000E+00  0.99999998245E-14  0.12500000000E+03  0.12500000000E+03 0.  0.
        -11    1    1    0    0    0 -0.62230677433E+01  0.22752552260E+02 -0.22283425214E+01  0.23693263118E+02  0.51100000000E-03 0.  1.
         11    1    1    0    0    0 -0.10192845736E+02  0.37265802487E+02 -0.36508476505E+01  0.38806736890E+02  0.51100000000E-03 0.  1.
         22    1    1    0    0    0  0.16415913479E+02 -0.60018354748E+02  0.58791901719E+01  0.62499999993E+02  0.00000000000E+00 0.  1.
</event>
<event>
 4    1  0.1956390E-002  0.9118800E+02  0.7818608E-02  0.1130116E+00
         25   -1    0    0    0    0  0.00000000000E+00  0.00000000000E+00  0.99999998245E-14  0.12500000000E+03  0.12500000000E+03 0.  0.
        -11    1    1    0    0    0  0.39021978483E+01  0.12468798269E+02 -0.20723522393E+02  0.24498213383E+02  0.51100000000E-03 0.  1.
         11    1    1    0    0    0  0.60554237906E+01  0.19341900217E+02 -0.32145894388E+02  0.38001786636E+02  0.51100000000E-03 0. -1.
         22    1    1    0    0    0 -0.99576216390E+01 -0.31810698486E+02  0.52869416781E+02  0.62499999981E+02  0.00000000000E+00 0.  1.
</event>
<event>
 4    1  0.1956390E-002  0.9118800E+02  0.7818608E-02  0.1130116E+00
         25   -1    0    0    0    0  0.00000000000E+00  0.00000000000E+00  0.99999998245E-14  0.12500000000E+03  0.12500000000E+03 0.  0.
        -11    1    1    0    0    0 -0.18557222223E+02 -0.92209754241E+01  0.18443381133E+02  0.27740857815E+02  0.51100000000E-03 0. -1.
         11    1    1    0    0    0 -0.23275045585E+02 -0.11561490666E+02  0.23082513794E+02  0.34759146375E+02  0.51100000000E-03 0.  1.
         22    1    1    0    0    0  0.41832267808E+02  0.20782466090E+02 -0.41525894928E+02  0.62499995810E+02  0.00000000000E+00 0.  1.
</event>
<event>
 4    1  0.1956390E-002  0.9118800E+02  0.7818608E-02  0.1130116E+00
         25   -1    0    0    0    0  0.00000000000E+00  0.00000000000E+00  0.99999998245E-14  0.12500000000E+03  0.12500000000E+03 0.  0.
        -11    1    1    0    0    0  0.94875281104E+01 -0.14822242574E+02 -0.28332969467E+01  0.17825252773E+02  0.51100000000E-03 0. -1.
         11    1    1    0    0    0  0.23778274908E+02 -0.37148881115E+02 -0.70984023051E+01  0.44674747243E+02  0.51100000000E-03 0.  1.
         22    1    1    0    0    0 -0.33265803018E+02  0.51971123689E+02  0.99316992519E+01  0.62499999984E+02  0.00000000000E+00 0.  1.
</event>
<event>
 4    1  0.1956390E-002  0.9118800E+02  0.7818608E-02  0.1130116E+00
         25   -1    0    0    0    0  0.00000000000E+00  0.00000000000E+00  0.99999998245E-14  0.12500000000E+03  0.12500000000E+03 0.  0.
        -11    1    1    0    0    0 -0.14054158150E+02 -0.45917700939E+02 -0.27267494578E+02  0.55222014465E+02  0.51100000000E-03 0.  1.
         11    1    1    0    0    0 -0.31998090938E+01 -0.14905440807E+01 -0.76483394587E+01  0.84236332202E+01  0.51100000000E-03 0. -1.
         22    1    1    0    0    0  0.17253967244E+02  0.47408245019E+02  0.34915834036E+02  0.61354352314E+02  0.00000000000E+00 0.  1.
</event>
<event>
 4    1  0.1956390E-002  0.9118800E+02  0.7818608E-02  0.1130116E+00
         25   -1    0    0    0    0  0.00000000000E+00  0.00000000000E+00  0.99999998245E-14  0.12500000000E+03  0.12500000000E+03 0.  0.
        -11    1    1    0    0    0 -0.13314170893E+02  0.15508978815E+02  0.26191766572E+01  0.20607174893E+02  0.51100000000E-03 0.  1.
         11    1    1    0    0    0 -0.27008666675E+02  0.31570486509E+02  0.53708751174E+01  0.41892839409E+02  0.51100000000E-03 0. -1.
         22    1    1    0    0    0  0.40322837569E+02 -0.47079465324E+02 -0.79900517746E+01  0.62499985697E+02  0.00000000000E+00 0. -1.
</event>
<event>
 4    1  0.1956390E-002  0.9118800E+02  0.7818608E-02  0.1130116E+00
         25   -1    0    0    0    0  0.00000000000E+00  0.00000000000E+00  0.99999998245E-14  0.12500000000E+03  0.12500000000E+03 0.  0.
        -11    1    1    0    0    0 -0.24404962576E+02  0.45176703857E+02  0.10763726322E+01  0.51358498304E+02  0.51100000000E-03 0. -1.
         11    1    1    0    0    0 -0.52948476137E+01  0.98000880714E+01  0.23648741708E+00  0.11141501874E+02  0.51100000000E-03 0. -1.
         22    1    1    0    0    0  0.29699810190E+02 -0.54976791929E+02 -0.13128600493E+01  0.62499999821E+02  0.00000000000E+00 0. -1.
</event>
<event>
 4    1  0.1956390E-002  0.9118800E+02  0.7818608E-02  0.1130116E+00
         25   -1    0    0    0    0  0.00000000000E+00  0.00000000000E+00  0.99999998245E-14  0.12500000000E+03  0.12500000000E+03 0.  0.
        -11    1    1    0    0    0 -0.15048172254E+02  0.53534956767E+01  0.76242073456E+01  0.17698472874E+02  0.51100000000E-03 0. -1.
         11    1    1    0    0    0 -0.37367931052E+02  0.13703564802E+02  0.20575101464E+02  0.44804963563E+02  0.51100000000E-03 0.  1.
         22    1    1    0    0    0  0.52416103306E+02 -0.19057060479E+02 -0.28199308810E+02  0.62496563563E+02  0.00000000000E+00 0.  1.
</event>
<event>
 4    1  0.1956390E-002  0.9118800E+02  0.7818608E-02  0.1130116E+00
         25   -1    0    0    0    0  0.00000000000E+00  0.00000000000E+00  0.99999998245E-14  0.12500000000E+03  0.12500000000E+03 0.  0.
        -11    1    1    0    0    0  0.78855654275E+01 -0.17530399656E+02 -0.29173936587E+02  0.34937310006E+02  0.51100000000E-03 0.  1.
         11    1    1    0    0    0  0.62213328982E+01 -0.13829815376E+02 -0.23015931511E+02  0.27562689998E+02  0.51100000000E-03 0.  1.
         22    1    1    0    0    0 -0.14106898326E+02  0.31360215032E+02  0.52189868099E+02  0.62499999995E+02  0.00000000000E+00 0.  1.
</event>
<event>
 4    1  0.1956390E-002  0.9118800E+02  0.7818608E-02  0.1130116E+00
         25   -1    0    0    0    0  0.00000000000E+00  0.00000000000E+00  0.99999998245E-14  0.12500000000E+03  0.12500000000E+03 0.  0.
        -11    1    1    0    0    0 -0.40225552344E+02 -0.31884966594E+02 -0.16385079657E+02  0.53881508811E+02  0.51100000000E-03 0.  1.
         11    1    1    0    0    0 -0.64347306088E+01 -0.50964120409E+01 -0.26266398736E+01  0.86184923847E+01  0.51100000000E-03 0. -1.
         22    1    1    0    0    0  0.46660282953E+02  0.36981378635E+02  0.19011719530E+02  0.62499998804E+02  0.00000000000E+00 0.  1.
</event>
<event>
 4    1  0.1956390E-002  0.9118800E+02  0.7818608E-02  0.1130116E+00
         25   -1    0    0    0    0  0.00000000000E+00  0.00000000000E+00  0.99999998245E-14  0.12500000000E+03  0.12500000000E+03 0.  0.
        -11    1    1    0    0    0  0.18979189225E+01  0.36716977646E+01  0.34996329957E+01  0.54158002249E+01  0.51100000000E-03 0. -1.
         11    1    1    0    0    0  0.17182379584E+02  0.35432684096E+02  0.41346902840E+02  0.57098823500E+02  0.51100000000E-03 0.  1.
         22    1    1    0    0    0 -0.19080298507E+02 -0.39104381860E+02 -0.44846535835E+02  0.62485376275E+02  0.00000000000E+00 0.  1.
</event>
<event>
 4    1  0.1956390E-002  0.9118800E+02  0.7818608E-02  0.1130116E+00
         25   -1    0    0    0    0  0.00000000000E+00  0.00000000000E+00  0.99999998245E-14  0.12500000000E+03  0.12500000000E+03 0.  0.
        -11    1    1    0    0    0 -0.20130185920E+01 -0.74855680619E+01 -0.25649754440E+02  0.26795445064E+02  0.51100000000E-03 0.  1.
         11    1    1    0    0    0 -0.26708686682E+01 -0.99655075166E+01 -0.34181433725E+02  0.35704555609E+02  0.51100000000E-03 0. -1.
         22    1    1    0    0    0  0.46838872602E+01  0.17451075579E+02  0.59831188165E+02  0.62499999327E+02  0.00000000000E+00 0.  1.
</event>
<event>
 4    1  0.1956390E-002  0.9118800E+02  0.7818608E-02  0.1130116E+00
         25   -1    0    0    0    0  0.00000000000E+00  0.00000000000E+00  0.99999998245E-14  0.12500000000E+03  0.12500000000E+03 0.  0.
        -11    1    1    0    0    0 -0.11267809206E+02 -0.40595117824E+01 -0.53663218985E+01  0.13124045535E+02  0.51100000000E-03 0.  1.
         11    1    1    0    0    0 -0.42533172043E+02 -0.14429611417E+02 -0.20513123047E+02  0.49376843025E+02  0.51100000000E-03 0. -1.
         22    1    1    0    0    0  0.53800981250E+02  0.18489123199E+02  0.25879444946E+02  0.62499111440E+02  0.00000000000E+00 0. -1.
</event>
<event>
 4    1  0.1956390E-002  0.9118800E+02  0.7818608E-02  0.1130116E+00
         25   -1    0    0    0    0  0.00000000000E+00  0.00000000000E+00  0.99999998245E-14  0.12500000000E+03  0.12500000000E+03 0.  0.
        -11    1    1    0    0    0 -0.18464243773E+02  0.58103251569E+02 -0.55979502013E+01  0.61222979246E+02  0.51100000000E-03 0.  1.
         11    1    1    0    0    0 -0.45394661635E+00  0.11912951220E+01 -0.91496310978E-01  0.12781327921E+01  0.51100000000E-03 0. -1.
         22    1    1    0    0    0  0.18918190390E+02 -0.59294546691E+02  0.56894465123E+01  0.62498887962E+02  0.00000000000E+00 0.  1.
</event>
<event>
 4    1  0.1956390E-002  0.9118800E+02  0.7818608E-02  0.1130116E+00
         25   -1    0    0    0    0  0.00000000000E+00  0.00000000000E+00  0.99999998245E-14  0.12500000000E+03  0.12500000000E+03 0.  0.
        -11    1    1    0    0    0 -0.55507063998E+00 -0.24172447132E+01  0.57241230725E+01  0.62383299551E+01  0.51100000000E-03 0. -1.
         11    1    1    0    0    0 -0.11031627342E+02 -0.48413561375E+02  0.27675141955E+02  0.56846136274E+02  0.51100000000E-03 0.  1.
         22    1    1    0    0    0  0.11586697981E+02  0.50830806088E+02 -0.33399265027E+02  0.61915533771E+02  0.00000000000E+00 0.  1.
</event>
<event>
 4    1  0.1956390E-002  0.9118800E+02  0.7818608E-02  0.1130116E+00
         25   -1    0    0    0    0  0.00000000000E+00  0.00000000000E+00  0.99999998245E-14  0.12500000000E+03  0.12500000000E+03 0.  0.
        -11    1    1    0    0    0 -0.36709066553E+01 -0.50933152983E-01  0.13780810813E+02  0.14261447921E+02  0.51100000000E-03 0. -1.
         11    1    1    0    0    0 -0.15495527104E+02 -0.38356427789E+01  0.45550811865E+02  0.48266965697E+02  0.51100000000E-03 0.  1.
         22    1    1    0    0    0  0.19166433759E+02  0.38865759319E+01 -0.59331622678E+02  0.62471586383E+02  0.00000000000E+00 0.  1.
</event>
<event>
 4    1  0.1956390E-002  0.9118800E+02  0.7818608E-02  0.1130116E+00
         25   -1    0    0    0    0  0.00000000000E+00  0.00000000000E+00  0.99999998245E-14  0.12500000000E+03  0.12500000000E+03 0.  0.
        -11    1    1    0    0    0  0.12499848399E+02 -0.56560139721E+02  0.16335744250E+02  0.60184318188E+02  0.51100000000E-03 0.  1.
         11    1    1    0    0    0  0.47790872057E+00 -0.21756531270E+01  0.63287638447E+00  0.23156847915E+01  0.51100000000E-03 0. -1.
         22    1    1    0    0    0 -0.12977757119E+02  0.58735792848E+02 -0.16968620635E+02  0.62499997021E+02  0.00000000000E+00 0.  1.
</event>
<event>
 4    1  0.1956390E-002  0.9118800E+02  0.7818608E-02  0.1130116E+00
         25   -1    0    0    0    0  0.00000000000E+00  0.00000000000E+00  0.99999998245E-14  0.12500000000E+03  0.12500000000E+03 0.  0.
        -11    1    1    0    0    0  0.41660105311E+00 -0.48928023607E+01 -0.52100060557E+01  0.71594158099E+01  0.51100000000E-03 0.  1.
         11    1    1    0    0    0  0.24057263577E+01 -0.37265892442E+02 -0.40842627719E+02  0.55341254937E+02  0.51100000000E-03 0. -1.
         22    1    1    0    0    0 -0.28223274108E+01  0.42158694802E+02  0.46052633775E+02  0.62499329253E+02  0.00000000000E+00 0. -1.
</event>
<event>
 4    1  0.1956390E-002  0.9118800E+02  0.7818608E-02  0.1130116E+00
         25   -1    0    0    0    0  0.00000000000E+00  0.00000000000E+00  0.99999998245E-14  0.12500000000E+03  0.12500000000E+03 0.  0.
        -11    1    1    0    0    0 -0.23556503470E+02  0.33390649286E+01  0.41469535696E+02  0.47809837915E+02  0.51100000000E-03 0. -1.
         11    1    1    0    0    0 -0.76803354692E+01 -0.45930853978E+00  0.12551313537E+02  0.14721888093E+02  0.51100000000E-03 0.  1.
         22    1    1    0    0    0  0.31236838939E+02 -0.28797563889E+01 -0.54020849233E+02  0.62468273993E+02  0.00000000000E+00 0. -1.
</event>
<event>
 4    1  0.1956390E-002  0.9118800E+02  0.7818608E-02  0.1130116E+00
         25   -1    0    0    0    0  0.00000000000E+00  0.00000000000E+00  0.99999998245E-14  0.12500000000E+03  0.12500000000E+03 0.  0.
        -11    1    1    0    0    0  0.16948688528E+01 -0.10545736580E+02  0.36145772475E+02  0.37690874340E+02  0.51100000000E-03 0. -1.
         11    1    1    0    0    0  0.10460180636E+01 -0.70353725390E+01  0.23767759515E+02  0.24809212264E+02  0.51100000000E-03 0.  1.
         22    1    1    0    0    0 -0.27408869164E+01  0.17581109119E+02 -0.59913531990E+02  0.62499913396E+02  0.00000000000E+00 0. -1.
</event>
<event>
 4    1  0.1956390E-002  0.9118800E+02  0.7818608E-02  0.1130116E+00
         25   -1    0    0    0    0  0.00000000000E+00  0.00000000000E+00  0.99999998245E-14  0.12500000000E+03  0.12500000000E+03 0.  0.
        -11    1    1    0    0    0 -0.10594457893E+02 -0.56830124377E+01 -0.92249544352E+00  0.12057784478E+02  0.51100000000E-03 0.  1.
         11    1    1    0    0    0 -0.44316331157E+02 -0.23773676540E+02 -0.39105575661E+01  0.50442218074E+02  0.51100000000E-03 0. -1.
         22    1    1    0    0    0  0.54910789050E+02  0.29456688977E+02  0.48330530096E+01  0.62499997448E+02  0.00000000000E+00 0. -1.
</event>
<event>
 4    1  0.1956390E-002  0.9118800E+02  0.7818608E-02  0.1130116E+00
         25   -1    0    0    0    0  0.00000000000E+00  0.00000000000E+00  0.99999998245E-14  0.12500000000E+03  0.12500000000E+03 0.  0.
        -11    1    1    0    0    0  0.30500063101E+02 -0.97427426728E+00 -0.26088003932E+02  0.40147067252E+02  0.51100000000E-03 0.  1.
         11    1    1    0    0    0  0.15906001336E+02  0.11082233760E+01 -0.15720405280E+02  0.22391073668E+02  0.51100000000E-03 0. -1.
         22    1    1    0    0    0 -0.46406064437E+02 -0.13394910873E+00  0.41808409212E+02  0.62461859080E+02  0.00000000000E+00 0.  1.
</event>
<event>
 4    1  0.1956390E-002  0.9118800E+02  0.7818608E-02  0.1130116E+00
         25   -1    0    0    0    0  0.00000000000E+00  0.00000000000E+00  0.99999998245E-14  0.12500000000E+03  0.12500000000E+03 0.  0.
        -11    1    1    0    0    0 -0.55676332679E+02  0.16825621762E+02  0.33594490340E+01  0.58260119004E+02  0.51100000000E-03 0. -1.
         11    1    1    0    0    0 -0.40494437184E+01  0.12297330746E+01  0.25778053629E+00  0.42398925610E+01  0.51100000000E-03 0.  1.
         22    1    1    0    0    0  0.59725776398E+02 -0.18055354836E+02 -0.36172295703E+01  0.62499988435E+02  0.00000000000E+00 0. -1.
</event>
<event>
 4    1  0.1956390E-002  0.9118800E+02  0.7818608E-02  0.1130116E+00
         25   -1    0    0    0    0  0.00000000000E+00  0.00000000000E+00  0.99999998245E-14  0.12500000000E+03  0.12500000000E+03 0.  0.
        -11    1    1    0    0    0 -0.12112671105E+02 -0.42814256828E+02  0.36780368595E+02  0.57728441027E+02  0.51100000000E-03 0. -1.
         11    1    1    0    0    0 -0.95007473877E+00 -0.35017158393E+01  0.30994496779E+01  0.47719225052E+01  0.51100000000E-03 0.  1.
         22    1    1    0    0    0  0.13062745844E+02  0.46315972668E+02 -0.39879818273E+02  0.62499636468E+02  0.00000000000E+00 0. -1.
</event>
<event>
 4    1  0.1956390E-002  0.9118800E+02  0.7818608E-02  0.1130116E+00
         25   -1    0    0    0    0  0.00000000000E+00  0.00000000000E+00  0.99999998245E-14  0.12500000000E+03  0.12500000000E+03 0.  0.
        -11    1    1    0    0    0  0.28642095329E+01 -0.35765469614E+00 -0.59849108583E+01  0.66446046814E+01  0.51100000000E-03 0. -1.
         11    1    1    0    0    0  0.24074680617E+02 -0.30074660911E+01 -0.50310934084E+02  0.55855395333E+02  0.51100000000E-03 0. -1.
         22    1    1    0    0    0 -0.26938890150E+02  0.33651207873E+01  0.56295844943E+02  0.62499999986E+02  0.00000000000E+00 0. -1.
</event>
<event>
 4    1  0.1956390E-002  0.9118800E+02  0.7818608E-02  0.1130116E+00
         25   -1    0    0    0    0  0.00000000000E+00  0.00000000000E+00  0.99999998245E-14  0.12500000000E+03  0.12500000000E+03 0.  0.
        -11    1    1    0    0    0  0.15017100515E+02 -0.16498210878E+02  0.26305607249E+02  0.34491872130E+02  0.51100000000E-03 0. -1.
         11    1    1    0    0    0  0.12249991835E+02 -0.13378248324E+02  0.21340488893E+02  0.28008146933E+02  0.51100000000E-03 0.  1.
         22    1    1    0    0    0 -0.27267092349E+02  0.29876459202E+02 -0.47646096142E+02  0.62499980937E+02  0.00000000000E+00 0. -1.
</event>
<event>
 4    1  0.1956390E-002  0.9118800E+02  0.7818608E-02  0.1130116E+00
         25   -1    0    0    0    0  0.00000000000E+00  0.00000000000E+00  0.99999998245E-14  0.12500000000E+03  0.12500000000E+03 0.  0.
        -11    1    1    0    0    0  0.69440709503E+01  0.26239538151E+02 -0.10664478225E+02  0.29162725864E+02  0.51100000000E-03 0. -1.
         11    1    1    0    0    0  0.78317822706E+01  0.29959554383E+02 -0.12347907283E+02  0.33337404322E+02  0.51100000000E-03 0.  1.
         22    1    1    0    0    0 -0.14775853221E+02 -0.56199092534E+02  0.23012385508E+02  0.62499869815E+02  0.00000000000E+00 0. -1.
</event>
<event>
 4    1  0.1956390E-002  0.9118800E+02  0.7818608E-02  0.1130116E+00
         25   -1    0    0    0    0  0.00000000000E+00  0.00000000000E+00  0.99999998245E-14  0.12500000000E+03  0.12500000000E+03 0.  0.
        -11    1    1    0    0    0 -0.13904932643E+02  0.10399168169E+02  0.44877545031E+02  0.48119475254E+02  0.51100000000E-03 0.  1.
         11    1    1    0    0    0  0.19345295012E+02  0.53288524831E+01 -0.54206905114E+02  0.57801606121E+02  0.51100000000E-03 0. -1.
         22    1    1    0    0    0 -0.54403623686E+01 -0.15728020652E+02  0.93293600831E+01  0.19078918625E+02  0.00000000000E+00 0. -1.
</event>
<event>
 4    1  0.1956390E-002  0.9118800E+02  0.7818608E-02  0.1130116E+00
         25   -1    0    0    0    0  0.00000000000E+00  0.00000000000E+00  0.99999998245E-14  0.12500000000E+03  0.12500000000E+03 0.  0.
        -11    1    1    0    0    0 -0.82369340876E+01  0.74819049169E+01 -0.97996822820E+01  0.14827668645E+02  0.51100000000E-03 0.  1.
         11    1    1    0    0    0 -0.11996353891E+02 -0.16863096962E+02  0.55547746693E+02  0.59277556535E+02  0.51100000000E-03 0. -1.
         22    1    1    0    0    0  0.20233287978E+02  0.93811920453E+01 -0.45748064411E+02  0.50894774820E+02  0.00000000000E+00 0. -1.
</event>
<event>
 4    1  0.1956390E-002  0.9118800E+02  0.7818608E-02  0.1130116E+00
         25   -1    0    0    0    0  0.00000000000E+00  0.00000000000E+00  0.99999998245E-14  0.12500000000E+03  0.12500000000E+03 0.  0.
        -11    1    1    0    0    0 -0.46639981202E+02 -0.39946632707E+02  0.82399351608E+01  0.61959001307E+02  0.51100000000E-03 0. -1.
         11    1    1    0    0    0  0.21641029117E+01  0.29540138869E+01  0.21784601861E+01  0.42608952697E+01  0.51100000000E-03 0.  1.
         22    1    1    0    0    0  0.44475878290E+02  0.36992618821E+02 -0.10418395347E+02  0.58780103424E+02  0.00000000000E+00 0. -1.
</event>
<event>
 4    1  0.1956390E-002  0.9118800E+02  0.7818608E-02  0.1130116E+00
         25   -1    0    0    0    0  0.00000000000E+00  0.00000000000E+00  0.99999998245E-14  0.12500000000E+03  0.12500000000E+03 0.  0.
        -11    1    1    0    0    0 -0.54185995101E+01  0.59867431819E+01 -0.14101114417E+02  0.16249422841E+02  0.51100000000E-03 0.  1.
         11    1    1    0    0    0 -0.15485345362E+02  0.16987443322E+02 -0.40134120180E+02  0.46250586531E+02  0.51100000000E-03 0. -1.
         22    1    1    0    0    0  0.20903944872E+02 -0.22974186503E+02  0.54235234598E+02  0.62499990628E+02  0.00000000000E+00 0. -1.
</event>
<event>
 4    1  0.1956390E-002  0.9118800E+02  0.7818608E-02  0.1130116E+00
         25   -1    0    0    0    0  0.00000000000E+00  0.00000000000E+00  0.99999998245E-14  0.12500000000E+03  0.12500000000E+03 0.  0.
        -11    1    1    0    0    0  0.57814012064E-01  0.30771599836E+00  0.30867150826E-01  0.31461824130E+00  0.51100000000E-03 0.  1.
         11    1    1    0    0    0  0.20756578331E+02  0.47013718002E+02  0.35052898071E+02  0.62207964826E+02  0.51100000000E-03 0. -1.
         22    1    1    0    0    0 -0.20814392343E+02 -0.47321434000E+02 -0.35083765222E+02  0.62477416933E+02  0.00000000000E+00 0. -1.
</event>
<event>
 4    1  0.1956390E-002  0.9118800E+02  0.7818608E-02  0.1130116E+00
         25   -1    0    0    0    0  0.00000000000E+00  0.00000000000E+00  0.99999998245E-14  0.12500000000E+03  0.12500000000E+03 0.  0.
        -11    1    1    0    0    0 -0.23069438734E+02 -0.16613716404E+01  0.35478720452E+02  0.42352080992E+02  0.51100000000E-03 0. -1.
         11    1    1    0    0    0 -0.10844879192E+02 -0.83457622378E+00  0.16959933958E+02  0.20148133469E+02  0.51100000000E-03 0.  1.
         22    1    1    0    0    0  0.33914317926E+02  0.24959478642E+01 -0.52438654410E+02  0.62499785539E+02  0.00000000000E+00 0. -1.
</event>
<event>
 4    1  0.1956390E-002  0.9118800E+02  0.7818608E-02  0.1130116E+00
         25   -1    0    0    0    0  0.00000000000E+00  0.00000000000E+00  0.99999998245E-14  0.12500000000E+03  0.12500000000E+03 0.  0.
        -11    1    1    0    0    0  0.28960290340E+02  0.13255532852E+02 -0.44272883298E+02  0.54538938049E+02  0.51100000000E-03 0. -1.
         11    1    1    0    0    0  0.41447038833E+01  0.20073399663E+01 -0.64943231175E+01  0.79614205413E+01  0.51100000000E-03 0.  1.
         22    1    1    0    0    0 -0.33104994223E+02 -0.15262872818E+02  0.50767206415E+02  0.62499641410E+02  0.00000000000E+00 0.  1.
</event>
<event>
 4    1  0.1956390E-002  0.9118800E+02  0.7818608E-02  0.1130116E+00
         25   -1    0    0    0    0  0.00000000000E+00  0.00000000000E+00  0.99999998245E-14  0.12500000000E+03  0.12500000000E+03 0.  0.
        -11    1    1    0    0    0  0.77391725215E+01  0.16239105922E+02 -0.19282627729E+02  0.26370875694E+02  0.51100000000E-03 0. -1.
         11    1    1    0    0    0  0.21258353609E+02  0.11603060985E+01 -0.31257207212E+02  0.37819001988E+02  0.51100000000E-03 0.  1.
         22    1    1    0    0    0 -0.28997526130E+02 -0.17399412021E+02  0.50539834942E+02  0.60810122318E+02  0.00000000000E+00 0.  1.
</event>
<event>
 4    1  0.1956390E-002  0.9118800E+02  0.7818608E-02  0.1130116E+00
         25   -1    0    0    0    0  0.00000000000E+00  0.00000000000E+00  0.99999998245E-14  0.12500000000E+03  0.12500000000E+03 0.  0.
        -11    1    1    0    0    0 -0.14187404091E+02 -0.94604647551E+01  0.16357845091E+01  0.17130633947E+02  0.51100000000E-03 0. -1.
         11    1    1    0    0    0 -0.37735443713E+02 -0.24867443531E+02  0.40061068011E+01  0.45369619262E+02  0.51100000000E-03 0.  1.
         22    1    1    0    0    0  0.51922847804E+02  0.34327908286E+02 -0.56418913102E+01  0.62499746791E+02  0.00000000000E+00 0.  1.
</event>
<event>
 4    1  0.1956390E-002  0.9118800E+02  0.7818608E-02  0.1130116E+00
         25   -1    0    0    0    0  0.00000000000E+00  0.00000000000E+00  0.99999998245E-14  0.12500000000E+03  0.12500000000E+03 0.  0.
        -11    1    1    0    0    0  0.12105422265E+01  0.17328134875E+02 -0.54157540200E+02  0.56875028189E+02  0.51100000000E-03 0.  1.
         11    1    1    0    0    0  0.15053144395E-01  0.24453900136E+01 -0.50931818896E+01  0.56498372488E+01  0.51100000000E-03 0. -1.
         22    1    1    0    0    0 -0.12255953709E+01 -0.19773524888E+02  0.59250722089E+02  0.62475134563E+02  0.00000000000E+00 0.  1.
</event>
<event>
 4    1  0.1956390E-002  0.9118800E+02  0.7818608E-02  0.1130116E+00
         25   -1    0    0    0    0  0.00000000000E+00  0.00000000000E+00  0.99999998245E-14  0.12500000000E+03  0.12500000000E+03 0.  0.
        -11    1    1    0    0    0  0.34526125580E+02 -0.30594436445E-01  0.33202469194E+02  0.47900503593E+02  0.51100000000E-03 0. -1.
         11    1    1    0    0    0  0.10493293242E+02 -0.78210010208E-01  0.10150492518E+02  0.14599582818E+02  0.51100000000E-03 0.  1.
         22    1    1    0    0    0 -0.45019418822E+02  0.10880444665E+00 -0.43352961712E+02  0.62499913589E+02  0.00000000000E+00 0. -1.
</event>
<event>
 4    1  0.1956390E-002  0.9118800E+02  0.7818608E-02  0.1130116E+00
         25   -1    0    0    0    0  0.00000000000E+00  0.00000000000E+00  0.99999998245E-14  0.12500000000E+03  0.12500000000E+03 0.  0.
        -11    1    1    0    0    0  0.30276750847E+01  0.72418504727E+00 -0.43876649462E+00  0.31438474358E+01  0.51100000000E-03 0. -1.
         11    1    1    0    0    0  0.54158567801E+02  0.19909524580E+02 -0.13987024082E+02  0.59373196631E+02  0.51100000000E-03 0.  1.
         22    1    1    0    0    0 -0.57186242886E+02 -0.20633709627E+02  0.14425790577E+02  0.62482955933E+02  0.00000000000E+00 0.  1.
</event>
<event>
 4    1  0.1956390E-002  0.9118800E+02  0.7818608E-02  0.1130116E+00
         25   -1    0    0    0    0  0.00000000000E+00  0.00000000000E+00  0.99999998245E-14  0.12500000000E+03  0.12500000000E+03 0.  0.
        -11    1    1    0    0    0  0.86970277882E+01 -0.41382256660E+01  0.95491157123E+01  0.13562773137E+02  0.51100000000E-03 0. -1.
         11    1    1    0    0    0  0.31381129100E+02 -0.14932269339E+02  0.34454379146E+02  0.48937226871E+02  0.51100000000E-03 0. -1.
         22    1    1    0    0    0 -0.40078156889E+02  0.19070495005E+02 -0.44003494858E+02  0.62499999992E+02  0.00000000000E+00 0. -1.
</event>
<event>
 4    1  0.1956390E-002  0.9118800E+02  0.7818608E-02  0.1130116E+00
         25   -1    0    0    0    0  0.00000000000E+00  0.00000000000E+00  0.99999998245E-14  0.12500000000E+03  0.12500000000E+03 0.  0.
        -11    1    1    0    0    0  0.15348203255E+02 -0.52425886607E+02 -0.10418219654E+02  0.55610972215E+02  0.51100000000E-03 0. -1.
         11    1    1    0    0    0  0.19792989524E+01 -0.64631366004E+01 -0.13314766289E+01  0.68893097864E+01  0.51100000000E-03 0.  1.
         22    1    1    0    0    0 -0.17327502207E+02  0.58889023208E+02  0.11749696283E+02  0.62499717998E+02  0.00000000000E+00 0. -1.
</event>
<event>
 4    1  0.1956390E-002  0.9118800E+02  0.7818608E-02  0.1130116E+00
         25   -1    0    0    0    0  0.00000000000E+00  0.00000000000E+00  0.99999998245E-14  0.12500000000E+03  0.12500000000E+03 0.  0.
        -11    1    1    0    0    0  0.22573651219E+02  0.23668909747E+01 -0.23192472936E+00  0.22698583471E+02  0.51100000000E-03 0.  1.
         11    1    1    0    0    0  0.39582506645E+02  0.41491109646E+01 -0.40349204651E+00  0.39801416560E+02  0.51100000000E-03 0. -1.
         22    1    1    0    0    0 -0.62156157864E+02 -0.65160019393E+01  0.63541677588E+00  0.62499999969E+02  0.00000000000E+00 0. -1.
</event>
<event>
 4    1  0.1956390E-002  0.9118800E+02  0.7818608E-02  0.1130116E+00
         25   -1    0    0    0    0  0.00000000000E+00  0.00000000000E+00  0.99999998245E-14  0.12500000000E+03  0.12500000000E+03 0.  0.
        -11    1    1    0    0    0 -0.10605677524E+02  0.11728135071E+02 -0.29117514469E+01  0.16078179149E+02  0.51100000000E-03 0.  1.
         11    1    1    0    0    0 -0.30616683434E+02  0.33839854518E+02 -0.85129256810E+01  0.46421837127E+02  0.51100000000E-03 0. -1.
         22    1    1    0    0    0  0.41222360958E+02 -0.45567989589E+02  0.11424677128E+02  0.62499983725E+02  0.00000000000E+00 0. -1.
</event>
<event>
 4    1  0.1956390E-002  0.9118800E+02  0.7818608E-02  0.1130116E+00
         25   -1    0    0    0    0  0.00000000000E+00  0.00000000000E+00  0.99999998245E-14  0.12500000000E+03  0.12500000000E+03 0.  0.
        -11    1    1    0    0    0 -0.58037237390E+01  0.10325046188E+01 -0.41609841034E+01  0.72154739274E+01  0.51100000000E-03 0. -1.
         11    1    1    0    0    0 -0.27634241699E+02  0.27352302936E+02 -0.39831355161E+02  0.55662704250E+02  0.51100000000E-03 0.  1.
         22    1    1    0    0    0  0.33437965438E+02 -0.28384807555E+02  0.43992339264E+02  0.62121821823E+02  0.00000000000E+00 0.  1.
</event>
<event>
 4    1  0.1956390E-002  0.9118800E+02  0.7818608E-02  0.1130116E+00
         25   -1    0    0    0    0  0.00000000000E+00  0.00000000000E+00  0.99999998245E-14  0.12500000000E+03  0.12500000000E+03 0.  0.
        -11    1    1    0    0    0  0.37605353957E+02  0.17158728247E+02  0.39542976105E+02  0.57203422632E+02  0.51100000000E-03 0. -1.
         11    1    1    0    0    0  0.34169897647E+01  0.15953445109E+01  0.37197174833E+01  0.52969086812E+01  0.51100000000E-03 0.  1.
         22    1    1    0    0    0 -0.41022343721E+02 -0.18754072758E+02 -0.43262693589E+02  0.62499668687E+02  0.00000000000E+00 0. -1.
</event>
<event>
 4    1  0.1956390E-002  0.9118800E+02  0.7818608E-02  0.1130116E+00
         25   -1    0    0    0    0  0.00000000000E+00  0.00000000000E+00  0.99999998245E-14  0.12500000000E+03  0.12500000000E+03 0.  0.
        -11    1    1    0    0    0 -0.20951666315E+00 -0.30819678746E+00 -0.66943656924E+00  0.76617757295E+00  0.51100000000E-03 0. -1.
         11    1    1    0    0    0  0.19401262920E+02 -0.44646283869E+02  0.38791851656E+02  0.62245541377E+02  0.51100000000E-03 0.  1.
         22    1    1    0    0    0 -0.19191746257E+02  0.44954480657E+02 -0.38122415087E+02  0.61988281050E+02  0.00000000000E+00 0.  1.
</event>
<event>
 4    1  0.1956390E-002  0.9118800E+02  0.7818608E-02  0.1130116E+00
         25   -1    0    0    0    0  0.00000000000E+00  0.00000000000E+00  0.99999998245E-14  0.12500000000E+03  0.12500000000E+03 0.  0.
        -11    1    1    0    0    0 -0.10226970226E+02 -0.49183659558E+02  0.32698375336E+02  0.59940028674E+02  0.51100000000E-03 0.  1.
         11    1    1    0    0    0 -0.35571451794E+00 -0.21801473608E+01  0.12979690918E+01  0.25620888661E+01  0.51100000000E-03 0. -1.
         22    1    1    0    0    0  0.10582684744E+02  0.51363806919E+02 -0.33996344428E+02  0.62497882460E+02  0.00000000000E+00 0.  1.
</event>
<event>
 4    1  0.1956390E-002  0.9118800E+02  0.7818608E-02  0.1130116E+00
         25   -1    0    0    0    0  0.00000000000E+00  0.00000000000E+00  0.99999998245E-14  0.12500000000E+03  0.12500000000E+03 0.  0.
        -11    1    1    0    0    0 -0.10634136811E+02  0.11069386175E+02 -0.93501691785E+01  0.17973364736E+02  0.51100000000E-03 0. -1.
         11    1    1    0    0    0 -0.26431296326E+02  0.27534899714E+02 -0.22931370873E+02  0.44526754858E+02  0.51100000000E-03 0.  1.
         22    1    1    0    0    0  0.37065433137E+02 -0.38604285890E+02  0.32281540052E+02  0.62499880406E+02  0.00000000000E+00 0.  1.
</event>
<event>
 4    1  0.1956390E-002  0.9118800E+02  0.7818608E-02  0.1130116E+00
         25   -1    0    0    0    0  0.00000000000E+00  0.00000000000E+00  0.99999998245E-14  0.12500000000E+03  0.12500000000E+03 0.  0.
        -11    1    1    0    0    0  0.21046274034E+02  0.48132639928E+02  0.16071787128E+01  0.52557394350E+02  0.51100000000E-03 0.  1.
         11    1    1    0    0    0  0.39831697519E+01  0.91048514701E+01  0.30240372090E+00  0.99426057870E+01  0.51100000000E-03 0. -1.
         22    1    1    0    0    0 -0.25029443786E+02 -0.57237491398E+02 -0.19095824337E+01  0.62499999863E+02  0.00000000000E+00 0.  1.
</event>
<event>
 4    1  0.1956390E-002  0.9118800E+02  0.7818608E-02  0.1130116E+00
         25   -1    0    0    0    0  0.00000000000E+00  0.00000000000E+00  0.99999998245E-14  0.12500000000E+03  0.12500000000E+03 0.  0.
        -11    1    1    0    0    0 -0.40292301111E-01  0.22647471396E+01 -0.11981566241E+01  0.25624758794E+01  0.51100000000E-03 0.  1.
         11    1    1    0    0    0 -0.84043677303E+00  0.52865456395E+02 -0.28231990968E+02  0.59937535219E+02  0.51100000000E-03 0. -1.
         22    1    1    0    0    0  0.88072907414E+00 -0.55130203535E+02  0.29430147592E+02  0.62499988902E+02  0.00000000000E+00 0. -1.
</event>
<event>
 4    1  0.1956390E-002  0.9118800E+02  0.7818608E-02  0.1130116E+00
         25   -1    0    0    0    0  0.00000000000E+00  0.00000000000E+00  0.99999998245E-14  0.12500000000E+03  0.12500000000E+03 0.  0.
        -11    1    1    0    0    0  0.43704951909E+02 -0.16551025670E+02 -0.40256001490E+02  0.61681479622E+02  0.51100000000E-03 0. -1.
         11    1    1    0    0    0 -0.16215121307E+02  0.13105263329E+02  0.20906019416E+02  0.29525238932E+02  0.51100000000E-03 0.  1.
         22    1    1    0    0    0 -0.27489830602E+02  0.34457623410E+01  0.19349982074E+02  0.33793281446E+02  0.00000000000E+00 0. -1.
</event>
<event>
 4    1  0.1956390E-002  0.9118800E+02  0.7818608E-02  0.1130116E+00
         25   -1    0    0    0    0  0.00000000000E+00  0.00000000000E+00  0.99999998245E-14  0.12500000000E+03  0.12500000000E+03 0.  0.
        -11    1    1    0    0    0 -0.21376396522E+01  0.95358429351E+00 -0.77820445820E+00  0.24666634808E+01  0.51100000000E-03 0. -1.
         11    1    1    0    0    0 -0.50322402889E+02  0.24986868333E+02 -0.21154908955E+02  0.60035139666E+02  0.51100000000E-03 0.  1.
         22    1    1    0    0    0  0.52460042541E+02 -0.25940452626E+02  0.21933113414E+02  0.62498196853E+02  0.00000000000E+00 0.  1.
</event>
<event>
 4    1  0.1956390E-002  0.9118800E+02  0.7818608E-02  0.1130116E+00
         25   -1    0    0    0    0  0.00000000000E+00  0.00000000000E+00  0.99999998245E-14  0.12500000000E+03  0.12500000000E+03 0.  0.
        -11    1    1    0    0    0 -0.26210485362E+02 -0.13618117728E+02 -0.19604816325E+02  0.35451255221E+02  0.51100000000E-03 0.  1.
         11    1    1    0    0    0 -0.20021136291E+02 -0.10413162507E+02 -0.14911594603E+02  0.27048761629E+02  0.51100000000E-03 0. -1.
         22    1    1    0    0    0  0.46231621653E+02  0.24031280235E+02  0.34516410928E+02  0.62499983150E+02  0.00000000000E+00 0. -1.
</event>
<event>
 4    1  0.1956390E-002  0.9118800E+02  0.7818608E-02  0.1130116E+00
         25   -1    0    0    0    0  0.00000000000E+00  0.00000000000E+00  0.99999998245E-14  0.12500000000E+03  0.12500000000E+03 0.  0.
        -11    1    1    0    0    0  0.11759401427E+01 -0.67571522480E+01  0.91771396312E+01  0.11456955695E+02  0.51100000000E-03 0. -1.
         11    1    1    0    0    0 -0.44919536626E+02  0.29065334631E+02  0.19183206041E+02  0.56837961277E+02  0.51100000000E-03 0.  1.
         22    1    1    0    0    0  0.43743596483E+02 -0.22308182383E+02 -0.28360345672E+02  0.56705083028E+02  0.00000000000E+00 0.  1.
</event>
<event>
 4    1  0.1956390E-002  0.9118800E+02  0.7818608E-02  0.1130116E+00
         25   -1    0    0    0    0  0.00000000000E+00  0.00000000000E+00  0.99999998245E-14  0.12500000000E+03  0.12500000000E+03 0.  0.
        -11    1    1    0    0    0  0.70778361049E+01  0.34372995572E+02  0.93784214694E+01  0.36325657297E+02  0.51100000000E-03 0.  1.
         11    1    1    0    0    0  0.51231414830E+01  0.24876545695E+02  0.63296100813E+01  0.26175428715E+02  0.51100000000E-03 0. -1.
         22    1    1    0    0    0 -0.12200977588E+02 -0.59249541267E+02 -0.15708031551E+02  0.62498913988E+02  0.00000000000E+00 0. -1.
</event>
<event>
 4    1  0.1956390E-002  0.9118800E+02  0.7818608E-02  0.1130116E+00
         25   -1    0    0    0    0  0.00000000000E+00  0.00000000000E+00  0.99999998245E-14  0.12500000000E+03  0.12500000000E+03 0.  0.
        -11    1    1    0    0    0 -0.13233947833E+02  0.52428860350E+01 -0.40089834225E+02  0.42541979710E+02  0.51100000000E-03 0.  1.
         11    1    1    0    0    0 -0.89811520865E+01  0.19263780250E+01 -0.17804768184E+02  0.20034515104E+02  0.51100000000E-03 0. -1.
         22    1    1    0    0    0  0.22215099920E+02 -0.71692640599E+01  0.57894602409E+02  0.62423505186E+02  0.00000000000E+00 0. -1.
</event>
<event>
 4    1  0.1956390E-002  0.9118800E+02  0.7818608E-02  0.1130116E+00
         25   -1    0    0    0    0  0.00000000000E+00  0.00000000000E+00  0.99999998245E-14  0.12500000000E+03  0.12500000000E+03 0.  0.
        -11    1    1    0    0    0  0.25750409971E+02 -0.16612705367E+02  0.33443069995E+02  0.45359723591E+02  0.51100000000E-03 0. -1.
         11    1    1    0    0    0  0.97844061175E+01 -0.62355520861E+01  0.12616426468E+02  0.17140330510E+02  0.51100000000E-03 0.  1.
         22    1    1    0    0    0 -0.35534816088E+02  0.22848257453E+02 -0.46059496463E+02  0.62499945900E+02  0.00000000000E+00 0. -1.
</event>
<event>
 4    1  0.1956390E-002  0.9118800E+02  0.7818608E-02  0.1130116E+00
         25   -1    0    0    0    0  0.00000000000E+00  0.00000000000E+00  0.99999998245E-14  0.12500000000E+03  0.12500000000E+03 0.  0.
        -11    1    1    0    0    0 -0.12339790927E+02  0.14819942616E+02 -0.41751943108E+02  0.45990497854E+02  0.51100000000E-03 0. -1.
         11    1    1    0    0    0 -0.40277094677E+01  0.49407282580E+01 -0.15233680692E+02  0.16513578260E+02  0.51100000000E-03 0.  1.
         22    1    1    0    0    0  0.16367500395E+02 -0.19760670874E+02  0.56985623800E+02  0.62495923886E+02  0.00000000000E+00 0. -1.
</event>
<event>
 4    1  0.1956390E-002  0.9118800E+02  0.7818608E-02  0.1130116E+00
         25   -1    0    0    0    0  0.00000000000E+00  0.00000000000E+00  0.99999998245E-14  0.12500000000E+03  0.12500000000E+03 0.  0.
        -11    1    1    0    0    0  0.41536999088E+02 -0.57388937714E+01  0.12162901321E+02  0.43659974391E+02  0.51100000000E-03 0. -1.
         11    1    1    0    0    0  0.17923650667E+02 -0.24824005501E+01  0.52466191839E+01  0.18840025978E+02  0.51100000000E-03 0.  1.
         22    1    1    0    0    0 -0.59460649756E+02  0.82212943215E+01 -0.17409520505E+02  0.62499999631E+02  0.00000000000E+00 0. -1.
</event>
<event>
 4    1  0.1956390E-002  0.9118800E+02  0.7818608E-02  0.1130116E+00
         25   -1    0    0    0    0  0.00000000000E+00  0.00000000000E+00  0.99999998245E-14  0.12500000000E+03  0.12500000000E+03 0.  0.
        -11    1    1    0    0    0  0.16020310592E+02  0.18021470801E+02 -0.38283166786E+02  0.45244056193E+02  0.51100000000E-03 0. -1.
         11    1    1    0    0    0  0.61093404440E+01  0.68762659689E+01 -0.14600018014E+02  0.17255943921E+02  0.51100000000E-03 0.  1.
         22    1    1    0    0    0 -0.22129651036E+02 -0.24897736770E+02  0.52883184800E+02  0.62499999887E+02  0.00000000000E+00 0. -1.
</event>
<event>
 4    1  0.1956390E-002  0.9118800E+02  0.7818608E-02  0.1130116E+00
         25   -1    0    0    0    0  0.00000000000E+00  0.00000000000E+00  0.99999998245E-14  0.12500000000E+03  0.12500000000E+03 0.  0.
        -11    1    1    0    0    0  0.61508570325E+01  0.12095064827E+02  0.48598032800E+01  0.14413234320E+02  0.51100000000E-03 0.  1.
         11    1    1    0    0    0  0.20519906089E+02  0.40352489208E+02  0.16215643781E+02  0.48086765692E+02  0.51100000000E-03 0.  1.
         22    1    1    0    0    0 -0.26670763121E+02 -0.52447554035E+02 -0.21075447061E+02  0.62499999988E+02  0.00000000000E+00 0.  1.
</event>
<event>
 4    1  0.1956390E-002  0.9118800E+02  0.7818608E-02  0.1130116E+00
         25   -1    0    0    0    0  0.00000000000E+00  0.00000000000E+00  0.99999998245E-14  0.12500000000E+03  0.12500000000E+03 0.  0.
        -11    1    1    0    0    0 -0.60488155651E+00  0.12392989454E+01 -0.56906310321E+01  0.58553416107E+01  0.51100000000E-03 0. -1.
         11    1    1    0    0    0  0.81207457609E+00  0.12969377693E+02 -0.55153231993E+02  0.56663420497E+02  0.51100000000E-03 0.  1.
         22    1    1    0    0    0 -0.20719301957E+00 -0.14208676639E+02  0.60843863025E+02  0.62481237893E+02  0.00000000000E+00 0.  1.
</event>
<event>
 4    1  0.1956390E-002  0.9118800E+02  0.7818608E-02  0.1130116E+00
         25   -1    0    0    0    0  0.00000000000E+00  0.00000000000E+00  0.99999998245E-14  0.12500000000E+03  0.12500000000E+03 0.  0.
        -11    1    1    0    0    0  0.18215384992E+02 -0.56234379936E+01  0.45255782317E+02  0.49107119022E+02  0.51100000000E-03 0. -1.
         11    1    1    0    0    0  0.49678871191E+01 -0.15336242460E+01  0.12342501976E+02  0.13392880984E+02  0.51100000000E-03 0. -1.
         22    1    1    0    0    0 -0.23183272111E+02  0.71570622396E+01 -0.57598284293E+02  0.62499999994E+02  0.00000000000E+00 0. -1.
</event>
<event>
 4    1  0.1956390E-002  0.9118800E+02  0.7818608E-02  0.1130116E+00
         25   -1    0    0    0    0  0.00000000000E+00  0.00000000000E+00  0.99999998245E-14  0.12500000000E+03  0.12500000000E+03 0.  0.
        -11    1    1    0    0    0  0.11396705514E+01 -0.99527626846E+01  0.32215328016E+01  0.10523051263E+02  0.51100000000E-03 0. -1.
         11    1    1    0    0    0  0.39057348824E+01 -0.39049137402E+02  0.34641372268E+02  0.52346103673E+02  0.51100000000E-03 0.  1.
         22    1    1    0    0    0 -0.50454054338E+01  0.49001900087E+02 -0.37862905070E+02  0.62130845065E+02  0.00000000000E+00 0.  1.
</event>
<event>
 4    1  0.1956390E-002  0.9118800E+02  0.7818608E-02  0.1130116E+00
         25   -1    0    0    0    0  0.00000000000E+00  0.00000000000E+00  0.99999998245E-14  0.12500000000E+03  0.12500000000E+03 0.  0.
        -11    1    1    0    0    0 -0.39853320775E+01  0.15313540069E+02  0.19388106063E+02  0.25025707546E+02  0.51100000000E-03 0. -1.
         11    1    1    0    0    0 -0.38296767565E+01  0.32572466112E+02  0.19179846832E+02  0.37993400709E+02  0.51100000000E-03 0.  1.
         22    1    1    0    0    0  0.78150088340E+01 -0.47886006181E+02 -0.38567952894E+02  0.61980891745E+02  0.00000000000E+00 0.  1.
</event>
<event>
 4    1  0.1956390E-002  0.9118800E+02  0.7818608E-02  0.1130116E+00
         25   -1    0    0    0    0  0.00000000000E+00  0.00000000000E+00  0.99999998245E-14  0.12500000000E+03  0.12500000000E+03 0.  0.
        -11    1    1    0    0    0 -0.79431126971E+00  0.11975068944E+02 -0.14049128469E+02  0.18477316299E+02  0.51100000000E-03 0.  1.
         11    1    1    0    0    0 -0.19072444046E+01  0.28495897755E+02 -0.33501391732E+02  0.44022687541E+02  0.51100000000E-03 0. -1.
         22    1    1    0    0    0  0.27015556743E+01 -0.40470966699E+02  0.47550520201E+02  0.62499996160E+02  0.00000000000E+00 0. -1.
</event>
<event>
 4    1  0.1956390E-002  0.9118800E+02  0.7818608E-02  0.1130116E+00
         25   -1    0    0    0    0  0.00000000000E+00  0.00000000000E+00  0.99999998245E-14  0.12500000000E+03  0.12500000000E+03 0.  0.
        -11    1    1    0    0    0 -0.12921265159E+02  0.32413174336E+01 -0.14762135259E+01  0.13403150326E+02  0.51100000000E-03 0. -1.
         11    1    1    0    0    0 -0.44758597322E+02  0.14380596942E+02 -0.14513877089E+02  0.49201486065E+02  0.51100000000E-03 0.  1.
         22    1    1    0    0    0  0.57679862481E+02 -0.17621914376E+02  0.15990090615E+02  0.62395363609E+02  0.00000000000E+00 0.  1.
</event>
<event>
 4    1  0.1956390E-002  0.9118800E+02  0.7818608E-02  0.1130116E+00
         25   -1    0    0    0    0  0.00000000000E+00  0.00000000000E+00  0.99999998245E-14  0.12500000000E+03  0.12500000000E+03 0.  0.
        -11    1    1    0    0    0  0.37284393655E+01  0.10939764621E+01 -0.13399397197E+01  0.41101682830E+01  0.51100000000E-03 0.  1.
         11    1    1    0    0    0  0.52967608727E+02  0.15548278636E+02 -0.19027766828E+02  0.58389831765E+02  0.51100000000E-03 0. -1.
         22    1    1    0    0    0 -0.56696048092E+02 -0.16642255098E+02  0.20367706547E+02  0.62499999952E+02  0.00000000000E+00 0. -1.
</event>
<event>
 4    1  0.1956390E-002  0.9118800E+02  0.7818608E-02  0.1130116E+00
         25   -1    0    0    0    0  0.00000000000E+00  0.00000000000E+00  0.99999998245E-14  0.12500000000E+03  0.12500000000E+03 0.  0.
        -11    1    1    0    0    0 -0.39115970442E+02  0.38630830511E+02  0.22542842354E+02  0.59418683520E+02  0.51100000000E-03 0. -1.
         11    1    1    0    0    0 -0.15541601119E+01  0.89984992651E+00  0.29068423609E+01  0.34168518136E+01  0.51100000000E-03 0.  1.
         22    1    1    0    0    0  0.40670130554E+02 -0.39530680437E+02 -0.25449684715E+02  0.62164464666E+02  0.00000000000E+00 0. -1.
</event>
<event>
 4    1  0.1956390E-002  0.9118800E+02  0.7818608E-02  0.1130116E+00
         25   -1    0    0    0    0  0.00000000000E+00  0.00000000000E+00  0.99999998245E-14  0.12500000000E+03  0.12500000000E+03 0.  0.
        -11    1    1    0    0    0 -0.29553668013E+02  0.10920590345E+02  0.18889354771E+02  0.36735355047E+02  0.51100000000E-03 0. -1.
         11    1    1    0    0    0 -0.20745209714E+02  0.76333206577E+01  0.13235783016E+02  0.25764651417E+02  0.51100000000E-03 0.  1.
         22    1    1    0    0    0  0.50298877727E+02 -0.18553911003E+02 -0.32125137787E+02  0.62499993536E+02  0.00000000000E+00 0. -1.
</event>
<event>
 4    1  0.1956390E-002  0.9118800E+02  0.7818608E-02  0.1130116E+00
         25   -1    0    0    0    0  0.00000000000E+00  0.00000000000E+00  0.99999998245E-14  0.12500000000E+03  0.12500000000E+03 0.  0.
        -11    1    1    0    0    0  0.17583387294E+00  0.62898431178E+00 -0.13522575130E+01  0.15017121755E+01  0.51100000000E-03 0.  1.
         11    1    1    0    0    0  0.72125548615E+01  0.25570984679E+02 -0.54908059404E+02  0.60998288442E+02  0.51100000000E-03 0. -1.
         22    1    1    0    0    0 -0.73883887344E+01 -0.26199968991E+02  0.56260316917E+02  0.62499999382E+02  0.00000000000E+00 0. -1.
</event>
<event>
 4    1  0.1956390E-002  0.9118800E+02  0.7818608E-02  0.1130116E+00
         25   -1    0    0    0    0  0.00000000000E+00  0.00000000000E+00  0.99999998245E-14  0.12500000000E+03  0.12500000000E+03 0.  0.
        -11    1    1    0    0    0 -0.31680053485E+02 -0.97742574958E+01 -0.94777797317E+01  0.34481737301E+02  0.51100000000E-03 0.  1.
         11    1    1    0    0    0 -0.25737935818E+02 -0.82105013586E+01 -0.74303089266E+01  0.28018978634E+02  0.51100000000E-03 0. -1.
         22    1    1    0    0    0  0.57417989302E+02  0.17984758854E+02  0.16908088658E+02  0.62499284065E+02  0.00000000000E+00 0.  1.
</event>
<event>
 4    1  0.1956390E-002  0.9118800E+02  0.7818608E-02  0.1130116E+00
         25   -1    0    0    0    0  0.00000000000E+00  0.00000000000E+00  0.99999998245E-14  0.12500000000E+03  0.12500000000E+03 0.  0.
        -11    1    1    0    0    0  0.11941751358E+02  0.42162041730E+01 -0.50236749397E+02  0.51808423962E+02  0.51100000000E-03 0.  1.
         11    1    1    0    0    0  0.24642967612E+01  0.86940952220E+00 -0.10367312421E+02  0.10691576055E+02  0.51100000000E-03 0.  1.
         22    1    1    0    0    0 -0.14406048119E+02 -0.50856136952E+01  0.60604061818E+02  0.62499999983E+02  0.00000000000E+00 0.  1.
</event>
<event>
 4    1  0.1956390E-002  0.9118800E+02  0.7818608E-02  0.1130116E+00
         25   -1    0    0    0    0  0.00000000000E+00  0.00000000000E+00  0.99999998245E-14  0.12500000000E+03  0.12500000000E+03 0.  0.
        -11    1    1    0    0    0  0.17657107402E+01 -0.10416567952E+01  0.33765051012E+00  0.20776889626E+01  0.51100000000E-03 0. -1.
         11    1    1    0    0    0  0.46725549078E+02 -0.55143335886E+01  0.38225412372E+02  0.60620680983E+02  0.51100000000E-03 0.  1.
         22    1    1    0    0    0 -0.48491259818E+02  0.65559903838E+01 -0.38563062882E+02  0.62301630055E+02  0.00000000000E+00 0.  1.
</event>
<event>
 4    1  0.1956390E-002  0.9118800E+02  0.7818608E-02  0.1130116E+00
         25   -1    0    0    0    0  0.00000000000E+00  0.00000000000E+00  0.99999998245E-14  0.12500000000E+03  0.12500000000E+03 0.  0.
        -11    1    1    0    0    0  0.13187376018E+02 -0.39066986313E+01  0.16938203999E+02  0.21819072744E+02  0.51100000000E-03 0.  1.
         11    1    1    0    0    0  0.24534539139E+02 -0.62654816443E+01  0.31842290313E+02  0.40683305220E+02  0.51100000000E-03 0. -1.
         22    1    1    0    0    0 -0.37721915158E+02  0.10172180276E+02 -0.48780494312E+02  0.62497622035E+02  0.00000000000E+00 0. -1.
</event>
<event>
 4    1  0.1956390E-002  0.9118800E+02  0.7818608E-02  0.1130116E+00
         25   -1    0    0    0    0  0.00000000000E+00  0.00000000000E+00  0.99999998245E-14  0.12500000000E+03  0.12500000000E+03 0.  0.
        -11    1    1    0    0    0  0.20019478114E+02 -0.18725858641E+01  0.28275965940E+01  0.20304713358E+02  0.51100000000E-03 0. -1.
         11    1    1    0    0    0  0.41600710919E+02 -0.38754838662E+01  0.58994764036E+01  0.42195288200E+02  0.51100000000E-03 0.  1.
         22    1    1    0    0    0 -0.61620189034E+02  0.57480697303E+01 -0.87270729976E+01  0.62499998442E+02  0.00000000000E+00 0. -1.
</event>
<event>
 4    1  0.1956390E-002  0.9118800E+02  0.7818608E-02  0.1130116E+00
         25   -1    0    0    0    0  0.00000000000E+00  0.00000000000E+00  0.99999998245E-14  0.12500000000E+03  0.12500000000E+03 0.  0.
        -11    1    1    0    0    0  0.31206676741E+02 -0.29029196610E+02 -0.42109067280E+02  0.59914309447E+02  0.51100000000E-03 0. -1.
         11    1    1    0    0    0  0.13530374662E+01 -0.12505313401E+01 -0.18141891743E+01  0.25856955813E+01  0.51100000000E-03 0.  1.
         22    1    1    0    0    0 -0.32559714207E+02  0.30279727950E+02  0.43923256454E+02  0.62499994972E+02  0.00000000000E+00 0. -1.
</event>
<event>
 4    1  0.1956390E-002  0.9118800E+02  0.7818608E-02  0.1130116E+00
         25   -1    0    0    0    0  0.00000000000E+00  0.00000000000E+00  0.99999998245E-14  0.12500000000E+03  0.12500000000E+03 0.  0.
        -11    1    1    0    0    0  0.81372295230E+01  0.16256081240E+01 -0.25419207754E+02  0.26739357307E+02  0.51100000000E-03 0. -1.
         11    1    1    0    0    0  0.10883793099E+02  0.21732046352E+01 -0.33994761299E+02  0.35760642704E+02  0.51100000000E-03 0. -1.
         22    1    1    0    0    0 -0.19021022622E+02 -0.37988127592E+01  0.59413969053E+02  0.62499999989E+02  0.00000000000E+00 0. -1.
</event>
<event>
 4    1  0.1956390E-002  0.9118800E+02  0.7818608E-02  0.1130116E+00
         25   -1    0    0    0    0  0.00000000000E+00  0.00000000000E+00  0.99999998245E-14  0.12500000000E+03  0.12500000000E+03 0.  0.
        -11    1    1    0    0    0 -0.33128369947E+02 -0.30370905069E+02  0.97969392033E+01  0.45998486802E+02  0.51100000000E-03 0.  1.
         11    1    1    0    0    0 -0.11900268966E+02 -0.10874700629E+02  0.35248700707E+01  0.16501521885E+02  0.51100000000E-03 0. -1.
         22    1    1    0    0    0  0.45028638914E+02  0.41245605698E+02 -0.13321809274E+02  0.62499991313E+02  0.00000000000E+00 0.  1.
</event>
<event>
 4    1  0.1956390E-002  0.9118800E+02  0.7818608E-02  0.1130116E+00
         25   -1    0    0    0    0  0.00000000000E+00  0.00000000000E+00  0.99999998245E-14  0.12500000000E+03  0.12500000000E+03 0.  0.
        -11    1    1    0    0    0 -0.34712610815E+01 -0.41354132303E+02  0.33716864738E+02  0.53469999814E+02  0.51100000000E-03 0.  1.
         11    1    1    0    0    0 -0.60907657547E+00 -0.69782794159E+01  0.56985779565E+01  0.90300137801E+01  0.51100000000E-03 0. -1.
         22    1    1    0    0    0  0.40803376569E+01  0.48332411719E+02 -0.39415442694E+02  0.62499986406E+02  0.00000000000E+00 0.  1.
</event>
<event>
 4    1  0.1956390E-002  0.9118800E+02  0.7818608E-02  0.1130116E+00
         25   -1    0    0    0    0  0.00000000000E+00  0.00000000000E+00  0.99999998245E-14  0.12500000000E+03  0.12500000000E+03 0.  0.
        -11    1    1    0    0    0 -0.68992790546E+01 -0.17983710074E+02  0.12732637421E+01  0.19303758191E+02  0.51100000000E-03 0. -1.
         11    1    1    0    0    0 -0.15462358584E+02 -0.40234734009E+02  0.28279177605E+01  0.43196243736E+02  0.51100000000E-03 0.  1.
         22    1    1    0    0    0  0.22361637639E+02  0.58218444083E+02 -0.41011815026E+01  0.62499998073E+02  0.00000000000E+00 0.  1.
</event>
<event>
 4    1  0.1956390E-002  0.9118800E+02  0.7818608E-02  0.1130116E+00
         25   -1    0    0    0    0  0.00000000000E+00  0.00000000000E+00  0.99999998245E-14  0.12500000000E+03  0.12500000000E+03 0.  0.
        -11    1    1    0    0    0  0.62448046096E+00 -0.80752784875E+01  0.53320184006E+01  0.96969334835E+01  0.51100000000E-03 0. -1.
         11    1    1    0    0    0  0.36712342666E+01 -0.44232433923E+02  0.28604247145E+02  0.52803306022E+02  0.51100000000E-03 0.  1.
         22    1    1    0    0    0 -0.42957147276E+01  0.52307712411E+02 -0.33936265546E+02  0.62499760495E+02  0.00000000000E+00 0.  1.
</event>
<event>
 4    1  0.1956390E-002  0.9118800E+02  0.7818608E-02  0.1130116E+00
         25   -1    0    0    0    0  0.00000000000E+00  0.00000000000E+00  0.99999998245E-14  0.12500000000E+03  0.12500000000E+03 0.  0.
        -11    1    1    0    0    0 -0.15615224972E+02  0.46798628723E+01 -0.68054034365E+01  0.17664933728E+02  0.51100000000E-03 0.  1.
         11    1    1    0    0    0 -0.41954115716E+02 -0.48451470344E+00 -0.16501443030E+02  0.45085254821E+02  0.51100000000E-03 0. -1.
         22    1    1    0    0    0  0.57569340687E+02 -0.41953481689E+01  0.23306846466E+02  0.62249811451E+02  0.00000000000E+00 0. -1.
</event>
<event>
 4    1  0.1956390E-002  0.9118800E+02  0.7818608E-02  0.1130116E+00
         25   -1    0    0    0    0  0.00000000000E+00  0.00000000000E+00  0.99999998245E-14  0.12500000000E+03  0.12500000000E+03 0.  0.
        -11    1    1    0    0    0  0.14628815189E+01  0.14283228653E+01 -0.54063699922E+01  0.57800489011E+01  0.51100000000E-03 0. -1.
         11    1    1    0    0    0  0.15104636867E+02  0.13710030315E+02 -0.52925125607E+02  0.56720224849E+02  0.51100000000E-03 0.  1.
         22    1    1    0    0    0 -0.16567518386E+02 -0.15138353181E+02  0.58331495599E+02  0.62499726250E+02  0.00000000000E+00 0.  1.
</event>
<event>
 4    1  0.1956390E-002  0.9118800E+02  0.7818608E-02  0.1130116E+00
         25   -1    0    0    0    0  0.00000000000E+00  0.00000000000E+00  0.99999998245E-14  0.12500000000E+03  0.12500000000E+03 0.  0.
        -11    1    1    0    0    0 -0.77914218634E+00 -0.17549987030E+02 -0.54078225458E+02  0.56860034965E+02  0.51100000000E-03 0.  1.
         11    1    1    0    0    0  0.78456094543E-01 -0.15542541118E+01 -0.54236356982E+01  0.56424893133E+01  0.51100000000E-03 0. -1.
         22    1    1    0    0    0  0.70068609180E+00  0.19104241142E+02  0.59501861156E+02  0.62497475722E+02  0.00000000000E+00 0.  1.
</event>
<event>
 4    1  0.1956390E-002  0.9118800E+02  0.7818608E-02  0.1130116E+00
         25   -1    0    0    0    0  0.00000000000E+00  0.00000000000E+00  0.99999998245E-14  0.12500000000E+03  0.12500000000E+03 0.  0.
        -11    1    1    0    0    0 -0.52753739442E+02  0.71767333207E+01  0.43533526213E+00  0.53241450425E+02  0.51100000000E-03 0. -1.
         11    1    1    0    0    0 -0.91729481392E+01  0.12529470927E+01  0.89306100811E-01  0.92585544132E+01  0.51100000000E-03 0.  1.
         22    1    1    0    0    0  0.61926687581E+02 -0.84296804134E+01 -0.52464136294E+00  0.62499995162E+02  0.00000000000E+00 0. -1.
</event>
<event>
 4    1  0.1956390E-002  0.9118800E+02  0.7818608E-02  0.1130116E+00
         25   -1    0    0    0    0  0.00000000000E+00  0.00000000000E+00  0.99999998245E-14  0.12500000000E+03  0.12500000000E+03 0.  0.
        -11    1    1    0    0    0 -0.10635454693E+02  0.63524986683E+01  0.10473449015E+02  0.16222215336E+02  0.51100000000E-03 0. -1.
         11    1    1    0    0    0 -0.22365292980E+02 -0.48310660524E+02 -0.14702632478E+02  0.55229463626E+02  0.51100000000E-03 0.  1.
         22    1    1    0    0    0  0.33000747673E+02  0.41958161856E+02  0.42291834624E+01  0.53548321038E+02  0.00000000000E+00 0.  1.
</event>
<event>
 4    1  0.1956390E-002  0.9118800E+02  0.7818608E-02  0.1130116E+00
         25   -1    0    0    0    0  0.00000000000E+00  0.00000000000E+00  0.99999998245E-14  0.12500000000E+03  0.12500000000E+03 0.  0.
        -11    1    1    0    0    0 -0.65692539254E+01  0.13437684061E+02  0.41241187560E+02  0.43869830198E+02  0.51100000000E-03 0.  1.
         11    1    1    0    0    0 -0.27816194461E+01  0.56975956003E+01  0.17518084432E+02  0.18630171357E+02  0.51100000000E-03 0. -1.
         22    1    1    0    0    0  0.93508733715E+01 -0.19135279661E+02 -0.58759271992E+02  0.62499998444E+02  0.00000000000E+00 0.  1.
</event>
<event>
 4    1  0.1956390E-002  0.9118800E+02  0.7818608E-02  0.1130116E+00
         25   -1    0    0    0    0  0.00000000000E+00  0.00000000000E+00  0.99999998245E-14  0.12500000000E+03  0.12500000000E+03 0.  0.
        -11    1    1    0    0    0  0.64180956034E-02 -0.48291877665E+02  0.24287081602E+02  0.54055229373E+02  0.51100000000E-03 0.  1.
         11    1    1    0    0    0 -0.13028553302E+00 -0.80826584568E+01  0.25933295025E+01  0.84895052989E+01  0.51100000000E-03 0. -1.
         22    1    1    0    0    0  0.12386743742E+00  0.56374536121E+02 -0.26880411105E+02  0.62455265328E+02  0.00000000000E+00 0.  1.
</event>
<event>
 4    1  0.1956390E-002  0.9118800E+02  0.7818608E-02  0.1130116E+00
         25   -1    0    0    0    0  0.00000000000E+00  0.00000000000E+00  0.99999998245E-14  0.12500000000E+03  0.12500000000E+03 0.  0.
        -11    1    1    0    0    0  0.56585310473E+02  0.16404181423E+02 -0.66625385695E+01  0.59290673380E+02  0.51100000000E-03 0. -1.
         11    1    1    0    0    0  0.31939522141E+01  0.42284165713E+00 -0.20510120515E+00  0.32283420789E+01  0.51100000000E-03 0.  1.
         22    1    1    0    0    0 -0.59779262687E+02 -0.16827023080E+02  0.68676397747E+01  0.62480984541E+02  0.00000000000E+00 0. -1.
</event>
<event>
 4    1  0.1956390E-002  0.9118800E+02  0.7818608E-02  0.1130116E+00
         25   -1    0    0    0    0  0.00000000000E+00  0.00000000000E+00  0.99999998245E-14  0.12500000000E+03  0.12500000000E+03 0.  0.
        -11    1    1    0    0    0 -0.49182181402E+02  0.71855230912E+01  0.18143794827E+02  0.52912342610E+02  0.51100000000E-03 0. -1.
         11    1    1    0    0    0  0.25100437200E+02 -0.30323174267E+01  0.16132943126E+02  0.29991644683E+02  0.51100000000E-03 0.  1.
         22    1    1    0    0    0  0.24081744202E+02 -0.41532056645E+01 -0.34276737953E+02  0.42096012707E+02  0.00000000000E+00 0.  1.
</event>
<event>
 4    1  0.1956390E-002  0.9118800E+02  0.7818608E-02  0.1130116E+00
         25   -1    0    0    0    0  0.00000000000E+00  0.00000000000E+00  0.99999998245E-14  0.12500000000E+03  0.12500000000E+03 0.  0.
        -11    1    1    0    0    0  0.36520231912E+02 -0.45094286017E+01 -0.21192281033E+02  0.42463808836E+02  0.51100000000E-03 0. -1.
         11    1    1    0    0    0  0.16985369457E+02 -0.25047877351E+01 -0.10333394374E+02  0.20038856672E+02  0.51100000000E-03 0.  1.
         22    1    1    0    0    0 -0.53505601369E+02  0.70142163369E+01  0.31525675407E+02  0.62497334492E+02  0.00000000000E+00 0. -1.
</event>
<event>
 4    1  0.1956390E-002  0.9118800E+02  0.7818608E-02  0.1130116E+00
         25   -1    0    0    0    0  0.00000000000E+00  0.00000000000E+00  0.99999998245E-14  0.12500000000E+03  0.12500000000E+03 0.  0.
        -11    1    1    0    0    0  0.27383885578E+01 -0.24860138013E+01  0.27609157013E+01  0.46153756385E+01  0.51100000000E-03 0. -1.
         11    1    1    0    0    0  0.28152514808E+02 -0.30632677472E+02  0.40277920778E+02  0.57907131871E+02  0.51100000000E-03 0.  1.
         22    1    1    0    0    0 -0.30890903365E+02  0.33118691273E+02 -0.43038836479E+02  0.62477492490E+02  0.00000000000E+00 0.  1.
</event>
<event>
 4    1  0.1956390E-002  0.9118800E+02  0.7818608E-02  0.1130116E+00
         25   -1    0    0    0    0  0.00000000000E+00  0.00000000000E+00  0.99999998245E-14  0.12500000000E+03  0.12500000000E+03 0.  0.
        -11    1    1    0    0    0  0.27564444049E+02  0.14078980353E+02  0.34412641803E+02  0.46284405361E+02  0.51100000000E-03 0. -1.
         11    1    1    0    0    0  0.96359557671E+01  0.49483382515E+01  0.12066818689E+02  0.16215603860E+02  0.51100000000E-03 0.  1.
         22    1    1    0    0    0 -0.37200399816E+02 -0.19027318605E+02 -0.46479460492E+02  0.62499990779E+02  0.00000000000E+00 0.  1.
</event>
<event>
 4    1  0.1956390E-002  0.9118800E+02  0.7818608E-02  0.1130116E+00
         25   -1    0    0    0    0  0.00000000000E+00  0.00000000000E+00  0.99999998245E-14  0.12500000000E+03  0.12500000000E+03 0.  0.
        -11    1    1    0    0    0 -0.52770837422E+01  0.78773632912E+01  0.47084784633E+01  0.10586323013E+02  0.51100000000E-03 0.  1.
         11    1    1    0    0    0 -0.55056120169E+01  0.51814237039E+02 -0.11552180467E+02  0.53371151359E+02  0.51100000000E-03 0. -1.
         22    1    1    0    0    0  0.10782695759E+02 -0.59691600330E+02  0.68437020033E+01  0.61042525627E+02  0.00000000000E+00 0. -1.
</event>
<event>
 4    1  0.1956390E-002  0.9118800E+02  0.7818608E-02  0.1130116E+00
         25   -1    0    0    0    0  0.00000000000E+00  0.00000000000E+00  0.99999998245E-14  0.12500000000E+03  0.12500000000E+03 0.  0.
        -11    1    1    0    0    0 -0.22997288916E+02  0.92268091539E+01  0.19593152324E+02  0.31589569843E+02  0.51100000000E-03 0.  1.
         11    1    1    0    0    0 -0.13438079490E+02  0.87453282192E+01  0.27118226892E+02  0.31503348648E+02  0.51100000000E-03 0. -1.
         22    1    1    0    0    0  0.36435368406E+02 -0.17972137373E+02 -0.46711379215E+02  0.61907081508E+02  0.00000000000E+00 0. -1.
</event>
<event>
 4    1  0.1956390E-002  0.9118800E+02  0.7818608E-02  0.1130116E+00
         25   -1    0    0    0    0  0.00000000000E+00  0.00000000000E+00  0.99999998245E-14  0.12500000000E+03  0.12500000000E+03 0.  0.
        -11    1    1    0    0    0  0.26953298519E+01  0.24789858475E+00  0.67758934216E+00  0.27902301512E+01  0.51100000000E-03 0. -1.
         11    1    1    0    0    0  0.57684835534E+02  0.64349535841E+01  0.14012193234E+02  0.59710053071E+02  0.51100000000E-03 0.  1.
         22    1    1    0    0    0 -0.60380165386E+02 -0.66828521688E+01 -0.14689782576E+02  0.62499716778E+02  0.00000000000E+00 0.  1.
</event>
<event>
 4    1  0.1956390E-002  0.9118800E+02  0.7818608E-02  0.1130116E+00
         25   -1    0    0    0    0  0.00000000000E+00  0.00000000000E+00  0.99999998245E-14  0.12500000000E+03  0.12500000000E+03 0.  0.
        -11    1    1    0    0    0  0.24870045040E+01 -0.17820934705E+02  0.25479256669E+02  0.31192361659E+02  0.51100000000E-03 0.  1.
         11    1    1    0    0    0  0.24966910567E+01 -0.17886593828E+02  0.25573511952E+02  0.31307638347E+02  0.51100000000E-03 0.  1.
         22    1    1    0    0    0 -0.49836955606E+01  0.35707528533E+02 -0.51052768622E+02  0.62499999995E+02  0.00000000000E+00 0.  1.
</event>
<event>
 4    1  0.1956390E-002  0.9118800E+02  0.7818608E-02  0.1130116E+00
         25   -1    0    0    0    0  0.00000000000E+00  0.00000000000E+00  0.99999998245E-14  0.12500000000E+03  0.12500000000E+03 0.  0.
        -11    1    1    0    0    0  0.44064621283E+01  0.28770988821E+02  0.55256227634E+02  0.62453481879E+02  0.51100000000E-03 0. -1.
         11    1    1    0    0    0  0.31293594403E+00 -0.54580038336E+01 -0.89252981888E+01  0.10466550663E+02  0.51100000000E-03 0.  1.
         22    1    1    0    0    0 -0.47193980723E+01 -0.23312984987E+02 -0.46330929445E+02  0.52079967458E+02  0.00000000000E+00 0. -1.
</event>
<event>
 4    1  0.1956390E-002  0.9118800E+02  0.7818608E-02  0.1130116E+00
         25   -1    0    0    0    0  0.00000000000E+00  0.00000000000E+00  0.99999998245E-14  0.12500000000E+03  0.12500000000E+03 0.  0.
        -11    1    1    0    0    0  0.11509265344E+01 -0.16800703710E+01  0.22302158920E+01  0.30201211110E+01  0.51100000000E-03 0.  1.
         11    1    1    0    0    0  0.22662594082E+02 -0.34357618015E+02  0.42940414213E+02  0.59480402312E+02  0.51100000000E-03 0. -1.
         22    1    1    0    0    0 -0.23813520616E+02  0.36037688386E+02 -0.45170630105E+02  0.62499476577E+02  0.00000000000E+00 0. -1.
</event>
<event>
 4    1  0.1956390E-002  0.9118800E+02  0.7818608E-02  0.1130116E+00
         25   -1    0    0    0    0  0.00000000000E+00  0.00000000000E+00  0.99999998245E-14  0.12500000000E+03  0.12500000000E+03 0.  0.
        -11    1    1    0    0    0  0.17676738318E+02 -0.14813625469E+02  0.78506699954E+01  0.24362750188E+02  0.51100000000E-03 0. -1.
         11    1    1    0    0    0  0.27669940022E+02 -0.23190215049E+02  0.12289758701E+02  0.38137249823E+02  0.51100000000E-03 0.  1.
         22    1    1    0    0    0 -0.45346678340E+02  0.38003840518E+02 -0.20140428697E+02  0.62499999989E+02  0.00000000000E+00 0.  1.
</event>
<event>
 4    1  0.1956390E-002  0.9118800E+02  0.7818608E-02  0.1130116E+00
         25   -1    0    0    0    0  0.00000000000E+00  0.00000000000E+00  0.99999998245E-14  0.12500000000E+03  0.12500000000E+03 0.  0.
        -11    1    1    0    0    0 -0.75491799019E+01  0.34297470472E+02 -0.31557355289E+02  0.47214121522E+02  0.51100000000E-03 0.  1.
         11    1    1    0    0    0 -0.38256552442E+01  0.11257617362E+02 -0.96508979727E+01  0.15313700358E+02  0.51100000000E-03 0. -1.
         22    1    1    0    0    0  0.11374835146E+02 -0.45555087834E+02  0.41208253262E+02  0.62472178120E+02  0.00000000000E+00 0.  1.
</event>
<event>
 4    1  0.1956390E-002  0.9118800E+02  0.7818608E-02  0.1130116E+00
         25   -1    0    0    0    0  0.00000000000E+00  0.00000000000E+00  0.99999998245E-14  0.12500000000E+03  0.12500000000E+03 0.  0.
        -11    1    1    0    0    0  0.51566101482E+01 -0.83160662192E-01  0.59055478360E+01  0.78404744385E+01  0.51100000000E-03 0.  1.
         11    1    1    0    0    0  0.31954310421E+02  0.31521713501E+00  0.44364148581E+02  0.54674994247E+02  0.51100000000E-03 0. -1.
         22    1    1    0    0    0 -0.37110920569E+02 -0.23205647282E+00 -0.50269696417E+02  0.62484531314E+02  0.00000000000E+00 0. -1.
</event>
<event>
 4    1  0.1956390E-002  0.9118800E+02  0.7818608E-02  0.1130116E+00
         25   -1    0    0    0    0  0.00000000000E+00  0.00000000000E+00  0.99999998245E-14  0.12500000000E+03  0.12500000000E+03 0.  0.
        -11    1    1    0    0    0 -0.26751940643E+02 -0.38971019417E+00 -0.90838936321E+01  0.28254828366E+02  0.51100000000E-03 0.  1.
         11    1    1    0    0    0 -0.32422256330E+02 -0.47447897640E+00 -0.11013807225E+02  0.34245171714E+02  0.51100000000E-03 0. -1.
         22    1    1    0    0    0  0.59174196973E+02  0.86418917057E+00  0.20097700857E+02  0.62499999921E+02  0.00000000000E+00 0. -1.
</event>
<event>
 4    1  0.1956390E-002  0.9118800E+02  0.7818608E-02  0.1130116E+00
         25   -1    0    0    0    0  0.00000000000E+00  0.00000000000E+00  0.99999998245E-14  0.12500000000E+03  0.12500000000E+03 0.  0.
        -11    1    1    0    0    0 -0.28515044245E+02 -0.12671016802E+02 -0.85620985975E+01  0.32356945896E+02  0.51100000000E-03 0.  1.
         11    1    1    0    0    0 -0.26566144643E+02 -0.11799510514E+02 -0.79759154759E+01  0.30143054216E+02  0.51100000000E-03 0. -1.
         22    1    1    0    0    0  0.55081188888E+02  0.24470527316E+02  0.16538014073E+02  0.62499999887E+02  0.00000000000E+00 0. -1.
</event>
<event>
 4    1  0.1956390E-002  0.9118800E+02  0.7818608E-02  0.1130116E+00
         25   -1    0    0    0    0  0.00000000000E+00  0.00000000000E+00  0.99999998245E-14  0.12500000000E+03  0.12500000000E+03 0.  0.
        -11    1    1    0    0    0 -0.50289768514E+02  0.88239250386E+00 -0.16702559160E+02  0.52998253900E+02  0.51100000000E-03 0.  1.
         11    1    1    0    0    0 -0.90145823675E+01  0.16470975579E+00 -0.29988967109E+01  0.95017475396E+01  0.51100000000E-03 0. -1.
         22    1    1    0    0    0  0.59304350881E+02 -0.10471022597E+01  0.19701455871E+02  0.62499998560E+02  0.00000000000E+00 0.  1.
</event>
<event>
 4    1  0.1956390E-002  0.9118800E+02  0.7818608E-02  0.1130116E+00
         25   -1    0    0    0    0  0.00000000000E+00  0.00000000000E+00  0.99999998245E-14  0.12500000000E+03  0.12500000000E+03 0.  0.
        -11    1    1    0    0    0  0.27797643384E+02  0.31521940648E+02  0.98066758288E+01  0.43156837361E+02  0.51100000000E-03 0. -1.
         11    1    1    0    0    0  0.12457939318E+02  0.14130576543E+02  0.43914124189E+01  0.19343162843E+02  0.51100000000E-03 0.  1.
         22    1    1    0    0    0 -0.40255582702E+02 -0.45652517191E+02 -0.14198088248E+02  0.62499999796E+02  0.00000000000E+00 0. -1.
</event>
<event>
 4    1  0.1956390E-002  0.9118800E+02  0.7818608E-02  0.1130116E+00
         25   -1    0    0    0    0  0.00000000000E+00  0.00000000000E+00  0.99999998245E-14  0.12500000000E+03  0.12500000000E+03 0.  0.
        -11    1    1    0    0    0 -0.18668063391E+02  0.24994292960E+02  0.93633056595E+01  0.32571195318E+02  0.51100000000E-03 0.  1.
         11    1    1    0    0    0 -0.17151858442E+02  0.22965968568E+02  0.86087976530E+01  0.29928804814E+02  0.51100000000E-03 0. -1.
         22    1    1    0    0    0  0.35819921833E+02 -0.47960261528E+02 -0.17972103313E+02  0.62499999868E+02  0.00000000000E+00 0.  1.
</event>
<event>
 4    1  0.1956390E-002  0.9118800E+02  0.7818608E-02  0.1130116E+00
         25   -1    0    0    0    0  0.00000000000E+00  0.00000000000E+00  0.99999998245E-14  0.12500000000E+03  0.12500000000E+03 0.  0.
        -11    1    1    0    0    0  0.71131426760E+01  0.17544904240E+02 -0.57511025906E+02  0.60546994678E+02  0.51100000000E-03 0.  1.
         11    1    1    0    0    0  0.13238023830E+01  0.91915136981E+00 -0.14047517810E+01  0.21379007969E+01  0.51100000000E-03 0. -1.
         22    1    1    0    0    0 -0.84369450590E+01 -0.18464055610E+02  0.58915777687E+02  0.62315104525E+02  0.00000000000E+00 0.  1.
</event>
<event>
 4    1  0.1956390E-002  0.9118800E+02  0.7818608E-02  0.1130116E+00
         25   -1    0    0    0    0  0.00000000000E+00  0.00000000000E+00  0.99999998245E-14  0.12500000000E+03  0.12500000000E+03 0.  0.
        -11    1    1    0    0    0 -0.67969644683E+01 -0.38480558630E+02 -0.22668205866E+02  0.45175210857E+02  0.51100000000E-03 0. -1.
         11    1    1    0    0    0 -0.26032012918E+01 -0.14772069753E+02 -0.86693659789E+01  0.17324797502E+02  0.51100000000E-03 0.  1.
         22    1    1    0    0    0  0.94001657602E+01  0.53252628383E+02  0.31337571845E+02  0.62499991641E+02  0.00000000000E+00 0. -1.
</event>
<event>
 4    1  0.1956390E-002  0.9118800E+02  0.7818608E-02  0.1130116E+00
         25   -1    0    0    0    0  0.00000000000E+00  0.00000000000E+00  0.99999998245E-14  0.12500000000E+03  0.12500000000E+03 0.  0.
        -11    1    1    0    0    0  0.94668809785E+01  0.13041915616E+02  0.52996358574E+02  0.55392485237E+02  0.51100000000E-03 0.  1.
         11    1    1    0    0    0  0.12268347372E+01  0.16843623253E+01  0.67951964365E+01  0.71075238155E+01  0.51100000000E-03 0. -1.
         22    1    1    0    0    0 -0.10693715716E+02 -0.14726277942E+02 -0.59791555011E+02  0.62499990947E+02  0.00000000000E+00 0.  1.
</event>
<event>
 4    1  0.1956390E-002  0.9118800E+02  0.7818608E-02  0.1130116E+00
         25   -1    0    0    0    0  0.00000000000E+00  0.00000000000E+00  0.99999998245E-14  0.12500000000E+03  0.12500000000E+03 0.  0.
        -11    1    1    0    0    0 -0.65436050100E+01 -0.13977243560E+02 -0.48532019225E+02  0.50926800355E+02  0.51100000000E-03 0. -1.
         11    1    1    0    0    0 -0.33453144470E+01  0.11101460179E+02 -0.95894970867E+01  0.15046328505E+02  0.51100000000E-03 0.  1.
         22    1    1    0    0    0  0.98889194570E+01  0.28757833817E+01  0.58121516312E+02  0.59026871139E+02  0.00000000000E+00 0. -1.
</event>
<event>
 4    1  0.1956390E-002  0.9118800E+02  0.7818608E-02  0.1130116E+00
         25   -1    0    0    0    0  0.00000000000E+00  0.00000000000E+00  0.99999998245E-14  0.12500000000E+03  0.12500000000E+03 0.  0.
        -11    1    1    0    0    0  0.18099066467E+02 -0.17750637146E+02  0.29256920227E+02  0.38712126104E+02  0.51100000000E-03 0.  1.
         11    1    1    0    0    0  0.11119239870E+02 -0.10896797818E+02  0.17985697159E+02  0.23787875074E+02  0.51100000000E-03 0. -1.
         22    1    1    0    0    0 -0.29218306337E+02  0.28647434964E+02 -0.47242617386E+02  0.62499998822E+02  0.00000000000E+00 0. -1.
</event>
<event>
 4    1  0.1956390E-002  0.9118800E+02  0.7818608E-02  0.1130116E+00
         25   -1    0    0    0    0  0.00000000000E+00  0.00000000000E+00  0.99999998245E-14  0.12500000000E+03  0.12500000000E+03 0.  0.
        -11    1    1    0    0    0  0.13230802778E+01 -0.64715439234E+01  0.21357277275E+01  0.69421002125E+01  0.51100000000E-03 0. -1.
         11    1    1    0    0    0  0.10763150730E+02 -0.51745415908E+02  0.17124503427E+02  0.55557916619E+02  0.51100000000E-03 0.  1.
         22    1    1    0    0    0 -0.12086231008E+02  0.58216959831E+02 -0.19260231154E+02  0.62499983169E+02  0.00000000000E+00 0.  1.
</event>
<event>
 4    1  0.1956390E-002  0.9118800E+02  0.7818608E-02  0.1130116E+00
         25   -1    0    0    0    0  0.00000000000E+00  0.00000000000E+00  0.99999998245E-14  0.12500000000E+03  0.12500000000E+03 0.  0.
        -11    1    1    0    0    0  0.68876194164E+01  0.14248009221E+02  0.68171773739E+01  0.17231337023E+02  0.51100000000E-03 0.  1.
         11    1    1    0    0    0  0.18116167489E+02  0.37417875968E+02  0.17915327930E+02  0.45268664013E+02  0.51100000000E-03 0. -1.
         22    1    1    0    0    0 -0.25003786905E+02 -0.51665885189E+02 -0.24732505304E+02  0.62499998964E+02  0.00000000000E+00 0. -1.
</event>
<event>
 4    1  0.1956390E-002  0.9118800E+02  0.7818608E-02  0.1130116E+00
         25   -1    0    0    0    0  0.00000000000E+00  0.00000000000E+00  0.99999998245E-14  0.12500000000E+03  0.12500000000E+03 0.  0.
        -11    1    1    0    0    0  0.14183695328E+02 -0.34135075676E+02 -0.84675381794E+01  0.37922022726E+02  0.51100000000E-03 0. -1.
         11    1    1    0    0    0  0.10961512858E+02 -0.21186595579E+02 -0.60295389694E+01  0.24604510497E+02  0.51100000000E-03 0.  1.
         22    1    1    0    0    0 -0.25145208185E+02  0.55321671256E+02  0.14497077149E+02  0.62473466776E+02  0.00000000000E+00 0. -1.
</event>
<event>
 4    1  0.1956390E-002  0.9118800E+02  0.7818608E-02  0.1130116E+00
         25   -1    0    0    0    0  0.00000000000E+00  0.00000000000E+00  0.99999998245E-14  0.12500000000E+03  0.12500000000E+03 0.  0.
        -11    1    1    0    0    0 -0.11834835120E+01 -0.20506964634E+02  0.32385516258E+01  0.20794817831E+02  0.51100000000E-03 0.  1.
         11    1    1    0    0    0 -0.23686757565E+01 -0.41153027800E+02  0.63359467201E+01  0.41705234001E+02  0.51100000000E-03 0. -1.
         22    1    1    0    0    0  0.35521592685E+01  0.61659992434E+02 -0.95744983458E+01  0.62499948168E+02  0.00000000000E+00 0. -1.
</event>
<event>
 4    1  0.1956390E-002  0.9118800E+02  0.7818608E-02  0.1130116E+00
         25   -1    0    0    0    0  0.00000000000E+00  0.00000000000E+00  0.99999998245E-14  0.12500000000E+03  0.12500000000E+03 0.  0.
        -11    1    1    0    0    0  0.33874382138E+02  0.39956694703E+02  0.64399043276E+01  0.52777680745E+02  0.51100000000E-03 0.  1.
         11    1    1    0    0    0  0.62247026365E+01  0.73798696384E+01  0.11467396768E+01  0.97223665298E+01  0.51100000000E-03 0. -1.
         22    1    1    0    0    0 -0.40099084774E+02 -0.47336564342E+02 -0.75866440044E+01  0.62499952725E+02  0.00000000000E+00 0.  1.
</event>
<event>
 4    1  0.1956390E-002  0.9118800E+02  0.7818608E-02  0.1130116E+00
         25   -1    0    0    0    0  0.00000000000E+00  0.00000000000E+00  0.99999998245E-14  0.12500000000E+03  0.12500000000E+03 0.  0.
        -11    1    1    0    0    0 -0.51124003804E+02 -0.29671371221E+02  0.71369911935E+01  0.59539824308E+02  0.51100000000E-03 0. -1.
         11    1    1    0    0    0 -0.24600413518E+01 -0.13237290521E+01 -0.18099792516E+01  0.33286764950E+01  0.51100000000E-03 0.  1.
         22    1    1    0    0    0  0.53584045156E+02  0.30995100273E+02 -0.53270119419E+01  0.62131499197E+02  0.00000000000E+00 0. -1.
</event>
<event>
 4    1  0.1956390E-002  0.9118800E+02  0.7818608E-02  0.1130116E+00
         25   -1    0    0    0    0  0.00000000000E+00  0.00000000000E+00  0.99999998245E-14  0.12500000000E+03  0.12500000000E+03 0.  0.
        -11    1    1    0    0    0  0.47542322629E+02  0.92362449987E+01  0.23926561167E+02  0.54019079890E+02  0.51100000000E-03 0. -1.
         11    1    1    0    0    0  0.74648989649E+01  0.14436500859E+01  0.37572838769E+01  0.84809212070E+01  0.51100000000E-03 0.  1.
         22    1    1    0    0    0 -0.55007221594E+02 -0.10679895085E+02 -0.27683845044E+02  0.62499998903E+02  0.00000000000E+00 0. -1.
</event>
<event>
 4    1  0.1956390E-002  0.9118800E+02  0.7818608E-02  0.1130116E+00
         25   -1    0    0    0    0  0.00000000000E+00  0.00000000000E+00  0.99999998245E-14  0.12500000000E+03  0.12500000000E+03 0.  0.
        -11    1    1    0    0    0  0.38211144980E+02  0.12365149637E+02  0.30035650021E+02  0.50151059796E+02  0.51100000000E-03 0. -1.
         11    1    1    0    0    0  0.94071248821E+01  0.26809441321E+01  0.75416508290E+01  0.12351435442E+02  0.51100000000E-03 0.  1.
         22    1    1    0    0    0 -0.47618269862E+02 -0.15046093769E+02 -0.37577300850E+02  0.62497504762E+02  0.00000000000E+00 0. -1.
</event>
<event>
 4    1  0.1956390E-002  0.9118800E+02  0.7818608E-02  0.1130116E+00
         25   -1    0    0    0    0  0.00000000000E+00  0.00000000000E+00  0.99999998245E-14  0.12500000000E+03  0.12500000000E+03 0.  0.
        -11    1    1    0    0    0  0.76420966043E+01  0.27002778606E+01  0.27920994314E+02  0.29073614581E+02  0.51100000000E-03 0. -1.
         11    1    1    0    0    0  0.88043877927E+01  0.30923595376E+01  0.32097405267E+02  0.33426387137E+02  0.51100000000E-03 0.  1.
         22    1    1    0    0    0 -0.16446484397E+02 -0.57926373982E+01 -0.60018399581E+02  0.62499998282E+02  0.00000000000E+00 0. -1.
</event>
<event>
 4    1  0.1956390E-002  0.9118800E+02  0.7818608E-02  0.1130116E+00
         25   -1    0    0    0    0  0.00000000000E+00  0.00000000000E+00  0.99999998245E-14  0.12500000000E+03  0.12500000000E+03 0.  0.
        -11    1    1    0    0    0  0.21528515599E+01 -0.55970481368E+01 -0.19325654242E+01  0.63005179997E+01  0.51100000000E-03 0.  1.
         11    1    1    0    0    0  0.20441150548E+02 -0.50253225925E+02 -0.14682180714E+02  0.56203147442E+02  0.51100000000E-03 0. -1.
         22    1    1    0    0    0 -0.22594002108E+02  0.55850274061E+02  0.16614746138E+02  0.62496334559E+02  0.00000000000E+00 0. -1.
</event>
<event>
 4    1  0.1956390E-002  0.9118800E+02  0.7818608E-02  0.1130116E+00
         25   -1    0    0    0    0  0.00000000000E+00  0.00000000000E+00  0.99999998245E-14  0.12500000000E+03  0.12500000000E+03 0.  0.
        -11    1    1    0    0    0 -0.29446475238E+02 -0.28959563068E+02 -0.13166510325E+02  0.43348681542E+02  0.51100000000E-03 0. -1.
         11    1    1    0    0    0 -0.12677305640E+02 -0.13094056838E+02 -0.58886152679E+01  0.19153177094E+02  0.51100000000E-03 0.  1.
         22    1    1    0    0    0  0.42123780878E+02  0.42053619906E+02  0.19055125593E+02  0.62498141364E+02  0.00000000000E+00 0. -1.
</event>
<event>
 4    1  0.1956390E-002  0.9118800E+02  0.7818608E-02  0.1130116E+00
         25   -1    0    0    0    0  0.00000000000E+00  0.00000000000E+00  0.99999998245E-14  0.12500000000E+03  0.12500000000E+03 0.  0.
        -11    1    1    0    0    0  0.13080310551E+02 -0.28999358277E+02 -0.12880423637E+02  0.34321460020E+02  0.51100000000E-03 0. -1.
         11    1    1    0    0    0  0.10705856046E+02 -0.23804560440E+02 -0.10618780482E+02  0.28178554800E+02  0.51100000000E-03 0.  1.
         22    1    1    0    0    0 -0.23786166597E+02  0.52803918717E+02  0.23499204119E+02  0.62499985180E+02  0.00000000000E+00 0. -1.
</event>
<event>
 4    1  0.1956390E-002  0.9118800E+02  0.7818608E-02  0.1130116E+00
         25   -1    0    0    0    0  0.00000000000E+00  0.00000000000E+00  0.99999998245E-14  0.12500000000E+03  0.12500000000E+03 0.  0.
        -11    1    1    0    0    0 -0.23246161299E+02  0.37713400931E+02  0.19257022362E+02  0.48306495789E+02  0.51100000000E-03 0. -1.
         11    1    1    0    0    0 -0.93070080407E+01  0.40393734876E+01  0.11602561290E+02  0.15412863640E+02  0.51100000000E-03 0.  1.
         22    1    1    0    0    0  0.32553169339E+02 -0.41752774418E+02 -0.30859583652E+02  0.61280640571E+02  0.00000000000E+00 0. -1.
</event>
<event>
 4    1  0.1956390E-002  0.9118800E+02  0.7818608E-02  0.1130116E+00
         25   -1    0    0    0    0  0.00000000000E+00  0.00000000000E+00  0.99999998245E-14  0.12500000000E+03  0.12500000000E+03 0.  0.
        -11    1    1    0    0    0  0.21030323674E+02  0.19727784295E+02  0.28751522301E+02  0.40719897126E+02  0.51100000000E-03 0.  1.
         11    1    1    0    0    0  0.15338304066E+02  0.73102552952E+01  0.13972031235E+02  0.21998205863E+02  0.51100000000E-03 0. -1.
         22    1    1    0    0    0 -0.36368627740E+02 -0.27038039590E+02 -0.42723553536E+02  0.62281897011E+02  0.00000000000E+00 0.  1.
</event>
<event>
 4    1  0.1956390E-002  0.9118800E+02  0.7818608E-02  0.1130116E+00
         25   -1    0    0    0    0  0.00000000000E+00  0.00000000000E+00  0.99999998245E-14  0.12500000000E+03  0.12500000000E+03 0.  0.
        -11    1    1    0    0    0 -0.43872406427E+02 -0.40050408754E+02 -0.19332970292E+02  0.62470689348E+02  0.51100000000E-03 0.  1.
         11    1    1    0    0    0 -0.13041241743E-01  0.39193651767E-01 -0.44567574671E-01  0.60767969837E-01  0.51100000000E-03 0. -1.
         22    1    1    0    0    0  0.43885447668E+02  0.40011215103E+02  0.19377537866E+02  0.62468542682E+02  0.00000000000E+00 0.  1.
</event>
<event>
 4    1  0.1956390E-002  0.9118800E+02  0.7818608E-02  0.1130116E+00
         25   -1    0    0    0    0  0.00000000000E+00  0.00000000000E+00  0.99999998245E-14  0.12500000000E+03  0.12500000000E+03 0.  0.
        -11    1    1    0    0    0 -0.69238990108E+01  0.18684775918E+01  0.45708244849E+01  0.85043531650E+01  0.51100000000E-03 0. -1.
         11    1    1    0    0    0  0.55797810842E+02  0.16360274998E+02  0.16181628278E+02  0.60356436167E+02  0.51100000000E-03 0.  1.
         22    1    1    0    0    0 -0.48873911832E+02 -0.18228752590E+02 -0.20752452763E+02  0.56139210668E+02  0.00000000000E+00 0.  1.
</event>
<event>
 4    1  0.1956390E-002  0.9118800E+02  0.7818608E-02  0.1130116E+00
         25   -1    0    0    0    0  0.00000000000E+00  0.00000000000E+00  0.99999998245E-14  0.12500000000E+03  0.12500000000E+03 0.  0.
        -11    1    1    0    0    0 -0.39145896892E+00  0.13495867711E+02 -0.99530645598E+01  0.16773645394E+02  0.51100000000E-03 0.  1.
         11    1    1    0    0    0 -0.11803950341E+01  0.36779600485E+02 -0.27143487517E+02  0.45726373780E+02  0.51100000000E-03 0. -1.
         22    1    1    0    0    0  0.15718540030E+01 -0.50275468196E+02  0.37096552076E+02  0.62499980826E+02  0.00000000000E+00 0. -1.
</event>
<event>
 4    1  0.1956390E-002  0.9118800E+02  0.7818608E-02  0.1130116E+00
         25   -1    0    0    0    0  0.00000000000E+00  0.00000000000E+00  0.99999998245E-14  0.12500000000E+03  0.12500000000E+03 0.  0.
        -11    1    1    0    0    0  0.35576994720E+02 -0.39806261430E+01 -0.14976582200E+02  0.38805488689E+02  0.51100000000E-03 0. -1.
         11    1    1    0    0    0 -0.37024703164E+02  0.67338943987E+00 -0.25880433906E+02  0.45178301840E+02  0.51100000000E-03 0.  1.
         22    1    1    0    0    0  0.14477084445E+01  0.33072367031E+01  0.40857016105E+02  0.41016209471E+02  0.00000000000E+00 0.  1.
</event>
<event>
 4    1  0.1956390E-002  0.9118800E+02  0.7818608E-02  0.1130116E+00
         25   -1    0    0    0    0  0.00000000000E+00  0.00000000000E+00  0.99999998245E-14  0.12500000000E+03  0.12500000000E+03 0.  0.
        -11    1    1    0    0    0 -0.16437002241E+01  0.81706682558E+01 -0.34777037692E+01  0.90308357277E+01  0.51100000000E-03 0. -1.
         11    1    1    0    0    0 -0.97812487263E+01  0.48421369287E+02 -0.20460968547E+02  0.53469178640E+02  0.51100000000E-03 0.  1.
         22    1    1    0    0    0  0.11424948950E+02 -0.56592037543E+02  0.23938672316E+02  0.62499985632E+02  0.00000000000E+00 0.  1.
</event>
<event>
 4    1  0.1956390E-002  0.9118800E+02  0.7818608E-02  0.1130116E+00
         25   -1    0    0    0    0  0.00000000000E+00  0.00000000000E+00  0.99999998245E-14  0.12500000000E+03  0.12500000000E+03 0.  0.
        -11    1    1    0    0    0 -0.25466765556E+01  0.19363952310E+01  0.25115572886E+01  0.40673219992E+01  0.51100000000E-03 0. -1.
         11    1    1    0    0    0 -0.35945905641E+02  0.28255052239E+02  0.36386045399E+02  0.58432870967E+02  0.51100000000E-03 0.  1.
         22    1    1    0    0    0  0.38492582196E+02 -0.30191447470E+02 -0.38897602687E+02  0.62499807034E+02  0.00000000000E+00 0.  1.
</event>
<event>
 4    1  0.1956390E-002  0.9118800E+02  0.7818608E-02  0.1130116E+00
         25   -1    0    0    0    0  0.00000000000E+00  0.00000000000E+00  0.99999998245E-14  0.12500000000E+03  0.12500000000E+03 0.  0.
        -11    1    1    0    0    0  0.33664814222E+01 -0.33211278824E+00 -0.17046878359E+01  0.37880677065E+01  0.51100000000E-03 0.  1.
         11    1    1    0    0    0  0.52542780774E+02 -0.44412958103E+01 -0.25819608774E+02  0.58712188832E+02  0.51100000000E-03 0. -1.
         22    1    1    0    0    0 -0.55909262196E+02  0.47734085985E+01  0.27524296609E+02  0.62499743462E+02  0.00000000000E+00 0. -1.
</event>
<event>
 4    1  0.1956390E-002  0.9118800E+02  0.7818608E-02  0.1130116E+00
         25   -1    0    0    0    0  0.00000000000E+00  0.00000000000E+00  0.99999998245E-14  0.12500000000E+03  0.12500000000E+03 0.  0.
        -11    1    1    0    0    0 -0.22777833300E+02 -0.98885052740E+00 -0.17007813638E+02  0.28444212772E+02  0.51100000000E-03 0. -1.
         11    1    1    0    0    0 -0.27271905398E+02 -0.11832600390E+01 -0.20362704035E+02  0.34055787235E+02  0.51100000000E-03 0. -1.
         22    1    1    0    0    0  0.50049738698E+02  0.21721105664E+01  0.37370517672E+02  0.62499999993E+02  0.00000000000E+00 0. -1.
</event>
<event>
 4    1  0.1956390E-002  0.9118800E+02  0.7818608E-02  0.1130116E+00
         25   -1    0    0    0    0  0.00000000000E+00  0.00000000000E+00  0.99999998245E-14  0.12500000000E+03  0.12500000000E+03 0.  0.
        -11    1    1    0    0    0 -0.30013086623E+02 -0.40867256449E+02 -0.17071983874E+02  0.53501127577E+02  0.51100000000E-03 0.  1.
         11    1    1    0    0    0 -0.50582986262E+01 -0.68868760664E+01 -0.28223057923E+01  0.89989364478E+01  0.51100000000E-03 0. -1.
         22    1    1    0    0    0  0.35071385249E+02  0.47754132515E+02  0.19894289666E+02  0.62499935975E+02  0.00000000000E+00 0.  1.
</event>
<event>
 4    1  0.1956390E-002  0.9118800E+02  0.7818608E-02  0.1130116E+00
         25   -1    0    0    0    0  0.00000000000E+00  0.00000000000E+00  0.99999998245E-14  0.12500000000E+03  0.12500000000E+03 0.  0.
        -11    1    1    0    0    0  0.89824133538E-02 -0.24709179661E-01 -0.89414727135E-01  0.93201297517E-01  0.51100000000E-03 0. -1.
         11    1    1    0    0    0  0.54746639804E+01 -0.16696704729E+02 -0.59882025280E+02  0.62406801283E+02  0.51100000000E-03 0.  1.
         22    1    1    0    0    0 -0.54836463937E+01  0.16721413909E+02  0.59971440007E+02  0.62499997419E+02  0.00000000000E+00 0.  1.
</event>
<event>
 4    1  0.1956390E-002  0.9118800E+02  0.7818608E-02  0.1130116E+00
         25   -1    0    0    0    0  0.00000000000E+00  0.00000000000E+00  0.99999998245E-14  0.12500000000E+03  0.12500000000E+03 0.  0.
        -11    1    1    0    0    0  0.26033870968E+01  0.25008076493E+01 -0.91230237890E+01  0.98112805786E+01  0.51100000000E-03 0. -1.
         11    1    1    0    0    0  0.10336997891E+02  0.15371425825E+02 -0.49338772197E+02  0.52701505666E+02  0.51100000000E-03 0.  1.
         22    1    1    0    0    0 -0.12940384988E+02 -0.17872233474E+02  0.58461795986E+02  0.62487213755E+02  0.00000000000E+00 0.  1.
</event>
<event>
 4    1  0.1956390E-002  0.9118800E+02  0.7818608E-02  0.1130116E+00
         25   -1    0    0    0    0  0.00000000000E+00  0.00000000000E+00  0.99999998245E-14  0.12500000000E+03  0.12500000000E+03 0.  0.
        -11    1    1    0    0    0  0.35263965783E+02 -0.28906455264E+02 -0.12074945677E+02  0.47169214028E+02  0.51100000000E-03 0.  1.
         11    1    1    0    0    0  0.11236272587E+02 -0.10385789074E+02 -0.17556467411E+01  0.15401322414E+02  0.51100000000E-03 0. -1.
         22    1    1    0    0    0 -0.46500238370E+02  0.39292244338E+02  0.13830592418E+02  0.62429463559E+02  0.00000000000E+00 0.  1.
</event>
<event>
 4    1  0.1956390E-002  0.9118800E+02  0.7818608E-02  0.1130116E+00
         25   -1    0    0    0    0  0.00000000000E+00  0.00000000000E+00  0.99999998245E-14  0.12500000000E+03  0.12500000000E+03 0.  0.
        -11    1    1    0    0    0  0.28101103673E+02  0.48180754142E+01  0.52356985017E+02  0.59616606400E+02  0.51100000000E-03 0.  1.
         11    1    1    0    0    0  0.13447117982E+01  0.16084722429E+00  0.25460777394E+01  0.28838574455E+01  0.51100000000E-03 0. -1.
         22    1    1    0    0    0 -0.29445815471E+02 -0.49789226385E+01 -0.54903062757E+02  0.62499536154E+02  0.00000000000E+00 0.  1.
</event>
<event>
 4    1  0.1956390E-002  0.9118800E+02  0.7818608E-02  0.1130116E+00
         25   -1    0    0    0    0  0.00000000000E+00  0.00000000000E+00  0.99999998245E-14  0.12500000000E+03  0.12500000000E+03 0.  0.
        -11    1    1    0    0    0  0.54830201821E+02  0.73995319108E+01  0.15534889390E+02  0.57466832981E+02  0.51100000000E-03 0.  1.
         11    1    1    0    0    0  0.43137579951E+01 -0.20628608710E+00  0.28582545765E+01  0.51788687447E+01  0.51100000000E-03 0. -1.
         22    1    1    0    0    0 -0.59143959816E+02 -0.71932458237E+01 -0.18393143967E+02  0.62354298274E+02  0.00000000000E+00 0.  1.
</event>
<event>
 4    1  0.1956390E-002  0.9118800E+02  0.7818608E-02  0.1130116E+00
         25   -1    0    0    0    0  0.00000000000E+00  0.00000000000E+00  0.99999998245E-14  0.12500000000E+03  0.12500000000E+03 0.  0.
        -11    1    1    0    0    0  0.14153003481E+02  0.46505329500E+02 -0.28479441641E+01  0.48694598937E+02  0.51100000000E-03 0.  1.
         11    1    1    0    0    0  0.43947250987E+01  0.13078850845E+02 -0.55287526495E+00  0.13808534297E+02  0.51100000000E-03 0. -1.
         22    1    1    0    0    0 -0.18547728580E+02 -0.59584180344E+02  0.34008194291E+01  0.62496866766E+02  0.00000000000E+00 0.  1.
</event>
<event>
 4    1  0.1956390E-002  0.9118800E+02  0.7818608E-02  0.1130116E+00
         25   -1    0    0    0    0  0.00000000000E+00  0.00000000000E+00  0.99999998245E-14  0.12500000000E+03  0.12500000000E+03 0.  0.
        -11    1    1    0    0    0 -0.23383272679E+02 -0.41591736190E+02  0.94967140741E+01  0.48650154562E+02  0.51100000000E-03 0. -1.
         11    1    1    0    0    0 -0.71269721655E+01 -0.11829107047E+02  0.13696071219E+01  0.13877944002E+02  0.51100000000E-03 0.  1.
         22    1    1    0    0    0  0.30510244845E+02  0.53420843237E+02 -0.10866321196E+02  0.62471901436E+02  0.00000000000E+00 0. -1.
</event>
<event>
 4    1  0.1956390E-002  0.9118800E+02  0.7818608E-02  0.1130116E+00
         25   -1    0    0    0    0  0.00000000000E+00  0.00000000000E+00  0.99999998245E-14  0.12500000000E+03  0.12500000000E+03 0.  0.
        -11    1    1    0    0    0  0.54159999849E+01  0.13571668778E+02  0.67223515332E+01  0.16084565883E+02  0.51100000000E-03 0.  1.
         11    1    1    0    0    0  0.15672946608E+02  0.39149210609E+02  0.19393062115E+02  0.46415437143E+02  0.51100000000E-03 0. -1.
         22    1    1    0    0    0 -0.21088946593E+02 -0.52720879387E+02 -0.26115413648E+02  0.62499996974E+02  0.00000000000E+00 0. -1.
</event>
<event>
 4    1  0.1956390E-002  0.9118800E+02  0.7818608E-02  0.1130116E+00
         25   -1    0    0    0    0  0.00000000000E+00  0.00000000000E+00  0.99999998245E-14  0.12500000000E+03  0.12500000000E+03 0.  0.
        -11    1    1    0    0    0  0.58333833721E+01 -0.11117024786E+02 -0.15883100200E+02  0.20245727300E+02  0.51100000000E-03 0. -1.
         11    1    1    0    0    0  0.22442761849E+02 -0.31395372880E+02 -0.18903165501E+02  0.42972975972E+02  0.51100000000E-03 0.  1.
         22    1    1    0    0    0 -0.28276145221E+02  0.42512397667E+02  0.34786265701E+02  0.61781296728E+02  0.00000000000E+00 0.  1.
</event>
<event>
 4    1  0.1956390E-002  0.9118800E+02  0.7818608E-02  0.1130116E+00
         25   -1    0    0    0    0  0.00000000000E+00  0.00000000000E+00  0.99999998245E-14  0.12500000000E+03  0.12500000000E+03 0.  0.
        -11    1    1    0    0    0 -0.45360165480E+02 -0.58953899823E+01 -0.17202050549E+01  0.45774002896E+02  0.51100000000E-03 0.  1.
         11    1    1    0    0    0 -0.16105544488E+02 -0.48269831939E+01  0.40141853274E+00  0.16818129120E+02  0.51100000000E-03 0. -1.
         22    1    1    0    0    0  0.61465709968E+02  0.10722373176E+02  0.13187865221E+01  0.62407867984E+02  0.00000000000E+00 0.  1.
</event>
<event>
 4    1  0.1956390E-002  0.9118800E+02  0.7818608E-02  0.1130116E+00
         25   -1    0    0    0    0  0.00000000000E+00  0.00000000000E+00  0.99999998245E-14  0.12500000000E+03  0.12500000000E+03 0.  0.
        -11    1    1    0    0    0  0.15251262324E+01 -0.12579022594E+02 -0.17659331510E+02  0.21734990432E+02  0.51100000000E-03 0. -1.
         11    1    1    0    0    0  0.28597734516E+01 -0.23592232667E+02 -0.33121205577E+02  0.40765009574E+02  0.51100000000E-03 0. -1.
         22    1    1    0    0    0 -0.43848996840E+01  0.36171255261E+02  0.50780537087E+02  0.62499999994E+02  0.00000000000E+00 0. -1.
</event>
<event>
 4    1  0.1956390E-002  0.9118800E+02  0.7818608E-02  0.1130116E+00
         25   -1    0    0    0    0  0.00000000000E+00  0.00000000000E+00  0.99999998245E-14  0.12500000000E+03  0.12500000000E+03 0.  0.
        -11    1    1    0    0    0 -0.11260350725E+01  0.94550299839E+01 -0.26945520116E+01  0.98957646388E+01  0.51100000000E-03 0. -1.
         11    1    1    0    0    0 -0.23008882457E+02  0.47045007361E+02 -0.72363608738E+01  0.52867819214E+02  0.51100000000E-03 0.  1.
         22    1    1    0    0    0  0.24134917530E+02 -0.56500037344E+02  0.99309128854E+01  0.62236416147E+02  0.00000000000E+00 0.  1.
</event>
<event>
 4    1  0.1956390E-002  0.9118800E+02  0.7818608E-02  0.1130116E+00
         25   -1    0    0    0    0  0.00000000000E+00  0.00000000000E+00  0.99999998245E-14  0.12500000000E+03  0.12500000000E+03 0.  0.
        -11    1    1    0    0    0  0.78313951558E+01 -0.58270064842E+00  0.73703261970E+01  0.10769958154E+02  0.51100000000E-03 0.  1.
         11    1    1    0    0    0  0.37543770296E+02 -0.27980495248E+01  0.35477237858E+02  0.51730050990E+02  0.51100000000E-03 0. -1.
         22    1    1    0    0    0 -0.45375165452E+02  0.33807501732E+01 -0.42847564055E+02  0.62499990856E+02  0.00000000000E+00 0. -1.
</event>
<event>
 4    1  0.1956390E-002  0.9118800E+02  0.7818608E-02  0.1130116E+00
         25   -1    0    0    0    0  0.00000000000E+00  0.00000000000E+00  0.99999998245E-14  0.12500000000E+03  0.12500000000E+03 0.  0.
        -11    1    1    0    0    0 -0.26451817574E+02 -0.19541032542E+02  0.13896601762E+02  0.35702466954E+02  0.51100000000E-03 0.  1.
         11    1    1    0    0    0 -0.19723490008E+02 -0.14834871414E+02  0.10441803709E+02  0.26797774775E+02  0.51100000000E-03 0. -1.
         22    1    1    0    0    0  0.46175307582E+02  0.34375903956E+02 -0.24338405471E+02  0.62499758271E+02  0.00000000000E+00 0.  1.
</event>
<event>
 4    1  0.1956390E-002  0.9118800E+02  0.7818608E-02  0.1130116E+00
         25   -1    0    0    0    0  0.00000000000E+00  0.00000000000E+00  0.99999998245E-14  0.12500000000E+03  0.12500000000E+03 0.  0.
        -11    1    1    0    0    0 -0.26622839133E+02 -0.42450459703E+02  0.18375583554E+01  0.50141736243E+02  0.51100000000E-03 0. -1.
         11    1    1    0    0    0 -0.68612595380E+01 -0.10233820210E+02  0.10600139642E+01  0.12366551193E+02  0.51100000000E-03 0.  1.
         22    1    1    0    0    0  0.33484098671E+02  0.52684279913E+02 -0.28975723196E+01  0.62491712564E+02  0.00000000000E+00 0. -1.
</event>
<event>
 4    1  0.1956390E-002  0.9118800E+02  0.7818608E-02  0.1130116E+00
         25   -1    0    0    0    0  0.00000000000E+00  0.00000000000E+00  0.99999998245E-14  0.12500000000E+03  0.12500000000E+03 0.  0.
        -11    1    1    0    0    0  0.30922004251E+02  0.89609054902E+01 -0.57987772914E+01  0.32712291153E+02  0.51100000000E-03 0.  1.
         11    1    1    0    0    0  0.28469873304E+02  0.72543109174E+01 -0.49415617617E+01  0.29792243046E+02  0.51100000000E-03 0. -1.
         22    1    1    0    0    0 -0.59391877555E+02 -0.16215216408E+02  0.10740339053E+02  0.62495465801E+02  0.00000000000E+00 0. -1.
</event>
<event>
 4    1  0.1956390E-002  0.9118800E+02  0.7818608E-02  0.1130116E+00
         25   -1    0    0    0    0  0.00000000000E+00  0.00000000000E+00  0.99999998245E-14  0.12500000000E+03  0.12500000000E+03 0.  0.
        -11    1    1    0    0    0 -0.12841164996E+02 -0.68149353569E+00  0.22310082460E+02  0.25750722932E+02  0.51100000000E-03 0. -1.
         11    1    1    0    0    0 -0.18195305706E+02 -0.81327154837E+00  0.31918471779E+02  0.36749413619E+02  0.51100000000E-03 0.  1.
         22    1    1    0    0    0  0.31036470702E+02  0.14947650841E+01 -0.54228554239E+02  0.62499863449E+02  0.00000000000E+00 0. -1.
</event>
<event>
 4    1  0.1956390E-002  0.9118800E+02  0.7818608E-02  0.1130116E+00
         25   -1    0    0    0    0  0.00000000000E+00  0.00000000000E+00  0.99999998245E-14  0.12500000000E+03  0.12500000000E+03 0.  0.
        -11    1    1    0    0    0  0.16325287344E+02 -0.19529668720E+01 -0.13166073962E+02  0.21063584460E+02  0.51100000000E-03 0.  1.
         11    1    1    0    0    0  0.31301214777E+02 -0.54504501954E+01 -0.26610821861E+02  0.41444050167E+02  0.51100000000E-03 0. -1.
         22    1    1    0    0    0 -0.47626502121E+02  0.74034170674E+01  0.39776895823E+02  0.62492365373E+02  0.00000000000E+00 0. -1.
</event>
<event>
 4    1  0.1956390E-002  0.9118800E+02  0.7818608E-02  0.1130116E+00
         25   -1    0    0    0    0  0.00000000000E+00  0.00000000000E+00  0.99999998245E-14  0.12500000000E+03  0.12500000000E+03 0.  0.
        -11    1    1    0    0    0  0.13241576854E+01 -0.72616777713E+01 -0.17996028154E+02  0.19451025351E+02  0.51100000000E-03 0.  1.
         11    1    1    0    0    0  0.29611542251E+01 -0.16059382779E+02 -0.39831421993E+02  0.43048976618E+02  0.51100000000E-03 0. -1.
         22    1    1    0    0    0 -0.42853119105E+01  0.23321060550E+02  0.57827450147E+02  0.62499998031E+02  0.00000000000E+00 0.  1.
</event>
<event>
 4    1  0.1956390E-002  0.9118800E+02  0.7818608E-02  0.1130116E+00
         25   -1    0    0    0    0  0.00000000000E+00  0.00000000000E+00  0.99999998245E-14  0.12500000000E+03  0.12500000000E+03 0.  0.
        -11    1    1    0    0    0  0.23485554634E+01  0.11228946723E+02  0.22494822966E+02  0.25251178543E+02  0.51100000000E-03 0. -1.
         11    1    1    0    0    0  0.49449269707E+01  0.24081646451E+02  0.28281589726E+02  0.37473007835E+02  0.51100000000E-03 0.  1.
         22    1    1    0    0    0 -0.72934824341E+01 -0.35310593175E+02 -0.50776412692E+02  0.62275813621E+02  0.00000000000E+00 0.  1.
</event>
<event>
 4    1  0.1956390E-002  0.9118800E+02  0.7818608E-02  0.1130116E+00
         25   -1    0    0    0    0  0.00000000000E+00  0.00000000000E+00  0.99999998245E-14  0.12500000000E+03  0.12500000000E+03 0.  0.
        -11    1    1    0    0    0 -0.82258038244E+01  0.68223006580E-01  0.19588253930E+02  0.21245427631E+02  0.51100000000E-03 0.  1.
         11    1    1    0    0    0 -0.18774516844E+01  0.49646076815E+02 -0.18494325292E+02  0.53012242324E+02  0.51100000000E-03 0. -1.
         22    1    1    0    0    0  0.10103255509E+02 -0.49714299821E+02 -0.10939286381E+01  0.50742330046E+02  0.00000000000E+00 0. -1.
</event>
<event>
 4    1  0.1956390E-002  0.9118800E+02  0.7818608E-02  0.1130116E+00
         25   -1    0    0    0    0  0.00000000000E+00  0.00000000000E+00  0.99999998245E-14  0.12500000000E+03  0.12500000000E+03 0.  0.
        -11    1    1    0    0    0 -0.25538195034E+02  0.44256931481E+02  0.10950241067E+02  0.52256895903E+02  0.51100000000E-03 0. -1.
         11    1    1    0    0    0 -0.49963151607E+01  0.87055823125E+01  0.20434560842E+01  0.10243341331E+02  0.51100000000E-03 0.  1.
         22    1    1    0    0    0  0.30534510195E+02 -0.52962513794E+02 -0.12993697151E+02  0.62499762766E+02  0.00000000000E+00 0. -1.
</event>
<event>
 4    1  0.1956390E-002  0.9118800E+02  0.7818608E-02  0.1130116E+00
         25   -1    0    0    0    0  0.00000000000E+00  0.00000000000E+00  0.99999998245E-14  0.12500000000E+03  0.12500000000E+03 0.  0.
        -11    1    1    0    0    0  0.44081740631E+01 -0.25440414314E+02 -0.11768172941E+02  0.28374928611E+02  0.51100000000E-03 0.  1.
         11    1    1    0    0    0  0.10950349950E+02 -0.28122657010E+02 -0.16228101995E+02  0.34265803594E+02  0.51100000000E-03 0. -1.
         22    1    1    0    0    0 -0.15358524013E+02  0.53563071325E+02  0.27996274936E+02  0.62359267795E+02  0.00000000000E+00 0.  1.
</event>
<event>
 4    1  0.1956390E-002  0.9118800E+02  0.7818608E-02  0.1130116E+00
         25   -1    0    0    0    0  0.00000000000E+00  0.00000000000E+00  0.99999998245E-14  0.12500000000E+03  0.12500000000E+03 0.  0.
        -11    1    1    0    0    0  0.10970159965E+02  0.19186402495E+02  0.60335125542E+01  0.22909948153E+02  0.51100000000E-03 0. -1.
         11    1    1    0    0    0  0.18762079282E+02  0.33317257861E+02  0.10263214338E+02  0.39590262176E+02  0.51100000000E-03 0.  1.
         22    1    1    0    0    0 -0.29732239248E+02 -0.52503660356E+02 -0.16296726892E+02  0.62499789671E+02  0.00000000000E+00 0.  1.
</event>
<event>
 4    1  0.1956390E-002  0.9118800E+02  0.7818608E-02  0.1130116E+00
         25   -1    0    0    0    0  0.00000000000E+00  0.00000000000E+00  0.99999998245E-14  0.12500000000E+03  0.12500000000E+03 0.  0.
        -11    1    1    0    0    0 -0.65388255344E+01 -0.10724486627E+02  0.66250516307E+01  0.14200780336E+02  0.51100000000E-03 0.  1.
         11    1    1    0    0    0 -0.20319901851E+02 -0.38452737559E+02  0.21033813462E+02  0.48310793266E+02  0.51100000000E-03 0. -1.
         22    1    1    0    0    0  0.26858727385E+02  0.49177224186E+02 -0.27658865093E+02  0.62488426397E+02  0.00000000000E+00 0. -1.
</event>
<event>
 4    1  0.1956390E-002  0.9118800E+02  0.7818608E-02  0.1130116E+00
         25   -1    0    0    0    0  0.00000000000E+00  0.00000000000E+00  0.99999998245E-14  0.12500000000E+03  0.12500000000E+03 0.  0.
        -11    1    1    0    0    0  0.92055483190E+01  0.23798128137E-01  0.45108386459E+01  0.10251358532E+02  0.51100000000E-03 0.  1.
         11    1    1    0    0    0  0.43745756420E+02 -0.86880824960E+01  0.27377384089E+02  0.52332543814E+02  0.51100000000E-03 0. -1.
         22    1    1    0    0    0 -0.52951304739E+02  0.86642843679E+01 -0.31888222735E+02  0.62416097654E+02  0.00000000000E+00 0. -1.
</event>
<event>
 4    1  0.1956390E-002  0.9118800E+02  0.7818608E-02  0.1130116E+00
         25   -1    0    0    0    0  0.00000000000E+00  0.00000000000E+00  0.99999998245E-14  0.12500000000E+03  0.12500000000E+03 0.  0.
        -11    1    1    0    0    0 -0.19884018232E+02  0.22418677361E+02 -0.49576432673E+02  0.57929215017E+02  0.51100000000E-03 0.  1.
         11    1    1    0    0    0 -0.24268428707E+01  0.16972468016E+01 -0.35398454635E+01  0.46152702187E+01  0.51100000000E-03 0. -1.
         22    1    1    0    0    0  0.22310861103E+02 -0.24115924162E+02  0.53116278137E+02  0.62455514764E+02  0.00000000000E+00 0.  1.
</event>
<event>
 4    1  0.1956390E-002  0.9118800E+02  0.7818608E-02  0.1130116E+00
         25   -1    0    0    0    0  0.00000000000E+00  0.00000000000E+00  0.99999998245E-14  0.12500000000E+03  0.12500000000E+03 0.  0.
        -11    1    1    0    0    0  0.19714379102E+01  0.53941670260E+01 -0.87526035653E+01  0.10468604242E+02  0.51100000000E-03 0.  1.
         11    1    1    0    0    0  0.98711671453E+01  0.26817548602E+02 -0.43481556717E+02  0.52031400410E+02  0.51100000000E-03 0. -1.
         22    1    1    0    0    0 -0.11842605056E+02 -0.32211715628E+02  0.52234160282E+02  0.62499995349E+02  0.00000000000E+00 0. -1.
</event>
<event>
 4    1  0.1956390E-002  0.9118800E+02  0.7818608E-02  0.1130116E+00
         25   -1    0    0    0    0  0.00000000000E+00  0.00000000000E+00  0.99999998245E-14  0.12500000000E+03  0.12500000000E+03 0.  0.
        -11    1    1    0    0    0  0.47393481610E+02 -0.24240795241E+02 -0.25456601931E+02  0.59006752454E+02  0.51100000000E-03 0. -1.
         11    1    1    0    0    0  0.28275661729E+01 -0.13738378481E+01 -0.15239248876E+01  0.34935523782E+01  0.51100000000E-03 0.  1.
         22    1    1    0    0    0 -0.50221047783E+02  0.25614633089E+02  0.26980526819E+02  0.62499695168E+02  0.00000000000E+00 0. -1.
</event>
<event>
 4    1  0.1956390E-002  0.9118800E+02  0.7818608E-02  0.1130116E+00
         25   -1    0    0    0    0  0.00000000000E+00  0.00000000000E+00  0.99999998245E-14  0.12500000000E+03  0.12500000000E+03 0.  0.
        -11    1    1    0    0    0  0.33920199000E+02 -0.47354528302E+02 -0.18021389722E+02  0.60973779108E+02  0.51100000000E-03 0.  1.
         11    1    1    0    0    0  0.85688835130E+00 -0.11607631590E+01 -0.49917267974E+00  0.15266965590E+01  0.51100000000E-03 0. -1.
         22    1    1    0    0    0 -0.34777087351E+02  0.48515291461E+02  0.18520562402E+02  0.62499524333E+02  0.00000000000E+00 0.  1.
</event>
<event>
 4    1  0.1956390E-002  0.9118800E+02  0.7818608E-02  0.1130116E+00
         25   -1    0    0    0    0  0.00000000000E+00  0.00000000000E+00  0.99999998245E-14  0.12500000000E+03  0.12500000000E+03 0.  0.
        -11    1    1    0    0    0 -0.32357993537E+02  0.20124072410E+02  0.21965231575E+01  0.38168609490E+02  0.51100000000E-03 0. -1.
         11    1    1    0    0    0 -0.20371163376E+02  0.13177226973E+02  0.18759614656E+01  0.24333985281E+02  0.51100000000E-03 0.  1.
         22    1    1    0    0    0  0.52729156913E+02 -0.33301299383E+02 -0.40724846231E+01  0.62497405229E+02  0.00000000000E+00 0. -1.
</event>
<event>
 4    1  0.1956390E-002  0.9118800E+02  0.7818608E-02  0.1130116E+00
         25   -1    0    0    0    0  0.00000000000E+00  0.00000000000E+00  0.99999998245E-14  0.12500000000E+03  0.12500000000E+03 0.  0.
        -11    1    1    0    0    0  0.74330484153E+01  0.11070274298E+01  0.56730646954E+01  0.94159110963E+01  0.51100000000E-03 0. -1.
         11    1    1    0    0    0  0.41918688805E+02  0.62663830676E+01  0.31960547042E+02  0.53084089852E+02  0.51100000000E-03 0.  1.
         22    1    1    0    0    0 -0.49351737221E+02 -0.73734104975E+01 -0.37633611738E+02  0.62499999052E+02  0.00000000000E+00 0.  1.
</event>
<event>
 4    1  0.1956390E-002  0.9118800E+02  0.7818608E-02  0.1130116E+00
         25   -1    0    0    0    0  0.00000000000E+00  0.00000000000E+00  0.99999998245E-14  0.12500000000E+03  0.12500000000E+03 0.  0.
        -11    1    1    0    0    0  0.66207481734E+01 -0.52452608165E+01 -0.44803584856E+02  0.45592853427E+02  0.51100000000E-03 0. -1.
         11    1    1    0    0    0  0.24549255399E+01 -0.19443667385E+01 -0.16614583472E+02  0.16907146585E+02  0.51100000000E-03 0.  1.
         22    1    1    0    0    0 -0.90756737133E+01  0.71896275550E+01  0.61418168328E+02  0.62499999988E+02  0.00000000000E+00 0. -1.
</event>
<event>
 4    1  0.1956390E-002  0.9118800E+02  0.7818608E-02  0.1130116E+00
         25   -1    0    0    0    0  0.00000000000E+00  0.00000000000E+00  0.99999998245E-14  0.12500000000E+03  0.12500000000E+03 0.  0.
        -11    1    1    0    0    0 -0.73253501923E+01 -0.57230519434E+01 -0.26942375385E+01  0.96784810359E+01  0.51100000000E-03 0. -1.
         11    1    1    0    0    0 -0.39815331612E+02 -0.31419188397E+02 -0.14754380801E+02  0.52821565520E+02  0.51100000000E-03 0.  1.
         22    1    1    0    0    0  0.47140681804E+02  0.37142240341E+02  0.17448618340E+02  0.62499953444E+02  0.00000000000E+00 0.  1.
</event>
<event>
 4    1  0.1956390E-002  0.9118800E+02  0.7818608E-02  0.1130116E+00
         25   -1    0    0    0    0  0.00000000000E+00  0.00000000000E+00  0.99999998245E-14  0.12500000000E+03  0.12500000000E+03 0.  0.
        -11    1    1    0    0    0 -0.12715704421E+02 -0.36449543594E+02 -0.24182002827E+02  0.45552471152E+02  0.51100000000E-03 0.  1.
         11    1    1    0    0    0 -0.47258636867E+01 -0.13560242331E+02 -0.90002659835E+01  0.16947529250E+02  0.51100000000E-03 0. -1.
         22    1    1    0    0    0  0.17441568108E+02  0.50009785924E+02  0.33182268810E+02  0.62499999597E+02  0.00000000000E+00 0.  1.
</event>
<event>
 4    1  0.1956390E-002  0.9118800E+02  0.7818608E-02  0.1130116E+00
         25   -1    0    0    0    0  0.00000000000E+00  0.00000000000E+00  0.99999998245E-14  0.12500000000E+03  0.12500000000E+03 0.  0.
        -11    1    1    0    0    0 -0.55576247806E+01  0.28182772586E+02 -0.43080529293E+02  0.51779222361E+02  0.51100000000E-03 0.  1.
         11    1    1    0    0    0 -0.14478198170E+02  0.38172298563E+01 -0.12103999349E+01  0.15021801965E+02  0.51100000000E-03 0. -1.
         22    1    1    0    0    0  0.20035822950E+02 -0.32000002443E+02  0.44290929228E+02  0.58198975674E+02  0.00000000000E+00 0.  1.
</event>
<event>
 4    1  0.1956390E-002  0.9118800E+02  0.7818608E-02  0.1130116E+00
         25   -1    0    0    0    0  0.00000000000E+00  0.00000000000E+00  0.99999998245E-14  0.12500000000E+03  0.12500000000E+03 0.  0.
        -11    1    1    0    0    0 -0.12847934244E+02 -0.13477353833E+02 -0.12750248054E+02  0.22567173202E+02  0.51100000000E-03 0.  1.
         11    1    1    0    0    0 -0.71489294107E+01 -0.42021253056E+02  0.63488269203E+01  0.43095249200E+02  0.51100000000E-03 0. -1.
         22    1    1    0    0    0  0.19996863654E+02  0.55498606889E+02  0.64014211332E+01  0.59337577597E+02  0.00000000000E+00 0. -1.
</event>
<event>
 4    1  0.1956390E-002  0.9118800E+02  0.7818608E-02  0.1130116E+00
         25   -1    0    0    0    0  0.00000000000E+00  0.00000000000E+00  0.99999998245E-14  0.12500000000E+03  0.12500000000E+03 0.  0.
        -11    1    1    0    0    0  0.45941043458E+01  0.14138325027E+02 -0.14096214522E+02  0.20486612541E+02  0.51100000000E-03 0. -1.
         11    1    1    0    0    0  0.94181063589E+01  0.28994217773E+02 -0.28909502528E+02  0.42013387489E+02  0.51100000000E-03 0.  1.
         22    1    1    0    0    0 -0.14012210705E+02 -0.43132542800E+02  0.43005717049E+02  0.62499999969E+02  0.00000000000E+00 0.  1.
</event>
<event>
 4    1  0.1956390E-002  0.9118800E+02  0.7818608E-02  0.1130116E+00
         25   -1    0    0    0    0  0.00000000000E+00  0.00000000000E+00  0.99999998245E-14  0.12500000000E+03  0.12500000000E+03 0.  0.
        -11    1    1    0    0    0  0.17350123417E+01 -0.74905605954E+00 -0.48353679294E+01  0.51915446718E+01  0.51100000000E-03 0. -1.
         11    1    1    0    0    0  0.19131055169E+02 -0.82752053251E+01 -0.53383356779E+02  0.57308455540E+02  0.51100000000E-03 0.  1.
         22    1    1    0    0    0 -0.20866067511E+02  0.90242613846E+01  0.58218724708E+02  0.62499999789E+02  0.00000000000E+00 0.  1.
</event>
<event>
 4    1  0.1956390E-002  0.9118800E+02  0.7818608E-02  0.1130116E+00
         25   -1    0    0    0    0  0.00000000000E+00  0.00000000000E+00  0.99999998245E-14  0.12500000000E+03  0.12500000000E+03 0.  0.
        -11    1    1    0    0    0  0.38563299029E+01  0.20964725625E+02  0.14603609897E+02  0.25839048418E+02  0.51100000000E-03 0. -1.
         11    1    1    0    0    0  0.54729271761E+01  0.29745252674E+02  0.20719372166E+02  0.36660951593E+02  0.51100000000E-03 0.  1.
         22    1    1    0    0    0 -0.93292570790E+01 -0.50709978299E+02 -0.35322982063E+02  0.62499999989E+02  0.00000000000E+00 0.  1.
</event>
<event>
 4    1  0.1956390E-002  0.9118800E+02  0.7818608E-02  0.1130116E+00
         25   -1    0    0    0    0  0.00000000000E+00  0.00000000000E+00  0.99999998245E-14  0.12500000000E+03  0.12500000000E+03 0.  0.
        -11    1    1    0    0    0  0.26040964568E+02  0.17352284251E+02 -0.29884641412E+02  0.43270375512E+02  0.51100000000E-03 0.  1.
         11    1    1    0    0    0  0.11564729575E+02  0.77161244088E+01 -0.13285215396E+02  0.19229625436E+02  0.51100000000E-03 0. -1.
         22    1    1    0    0    0 -0.37605694143E+02 -0.25068408660E+02  0.43169856808E+02  0.62499999052E+02  0.00000000000E+00 0.  1.
</event>
<event>
 4    1  0.1956390E-002  0.9118800E+02  0.7818608E-02  0.1130116E+00
         25   -1    0    0    0    0  0.00000000000E+00  0.00000000000E+00  0.99999998245E-14  0.12500000000E+03  0.12500000000E+03 0.  0.
        -11    1    1    0    0    0  0.29247270965E+02 -0.70763737482E+00  0.18842393951E+02  0.34798554849E+02  0.51100000000E-03 0.  1.
         11    1    1    0    0    0  0.23314653080E+02 -0.54902143276E+00  0.14949803554E+02  0.27701463848E+02  0.51100000000E-03 0. -1.
         22    1    1    0    0    0 -0.52561924045E+02  0.12566588076E+01 -0.33792197505E+02  0.62499981303E+02  0.00000000000E+00 0.  1.
</event>
<event>
 4    1  0.1956390E-002  0.9118800E+02  0.7818608E-02  0.1130116E+00
         25   -1    0    0    0    0  0.00000000000E+00  0.00000000000E+00  0.99999998245E-14  0.12500000000E+03  0.12500000000E+03 0.  0.
        -11    1    1    0    0    0 -0.28111718529E+02  0.11419824177E+02 -0.40834986655E+02  0.50874131327E+02  0.51100000000E-03 0. -1.
         11    1    1    0    0    0 -0.64225261728E+01  0.26140866350E+01 -0.93315882841E+01  0.11625869066E+02  0.51100000000E-03 0.  1.
         22    1    1    0    0    0  0.34534244702E+02 -0.14033910812E+02  0.50166574939E+02  0.62499999607E+02  0.00000000000E+00 0. -1.
</event>
<event>
 4    1  0.1956390E-002  0.9118800E+02  0.7818608E-02  0.1130116E+00
         25   -1    0    0    0    0  0.00000000000E+00  0.00000000000E+00  0.99999998245E-14  0.12500000000E+03  0.12500000000E+03 0.  0.
        -11    1    1    0    0    0  0.12417316981E+02  0.21335047973E+02  0.35178956338E+02  0.42975958422E+02  0.51100000000E-03 0.  1.
         11    1    1    0    0    0  0.56401404355E+01  0.96927408831E+01  0.15982108432E+02  0.19524041593E+02  0.51100000000E-03 0.  1.
         22    1    1    0    0    0 -0.18057457417E+02 -0.31027788856E+02 -0.51161064770E+02  0.62499999984E+02  0.00000000000E+00 0.  1.
</event>
<event>
 4    1  0.1956390E-002  0.9118800E+02  0.7818608E-02  0.1130116E+00
         25   -1    0    0    0    0  0.00000000000E+00  0.00000000000E+00  0.99999998245E-14  0.12500000000E+03  0.12500000000E+03 0.  0.
        -11    1    1    0    0    0  0.10256740448E+02 -0.91632888510E+01  0.40462098920E+02  0.42735793388E+02  0.51100000000E-03 0. -1.
         11    1    1    0    0    0 -0.98619261205E+01 -0.78748733530E+01  0.17653822671E+02  0.21700891049E+02  0.51100000000E-03 0.  1.
         22    1    1    0    0    0 -0.39481432749E+00  0.17038162204E+02 -0.58115921592E+02  0.60563315564E+02  0.00000000000E+00 0. -1.
</event>
<event>
 4    1  0.1956390E-002  0.9118800E+02  0.7818608E-02  0.1130116E+00
         25   -1    0    0    0    0  0.00000000000E+00  0.00000000000E+00  0.99999998245E-14  0.12500000000E+03  0.12500000000E+03 0.  0.
        -11    1    1    0    0    0 -0.34229070394E+00 -0.46693806515E+00 -0.22685050078E+01  0.23412196211E+01  0.51100000000E-03 0. -1.
         11    1    1    0    0    0 -0.61978542042E+01 -0.37496307085E+02 -0.46791955746E+02  0.60281618796E+02  0.51100000000E-03 0.  1.
         22    1    1    0    0    0  0.65401449082E+01  0.37963245150E+02  0.49060460754E+02  0.62377161583E+02  0.00000000000E+00 0.  1.
</event>
<event>
 4    1  0.1956390E-002  0.9118800E+02  0.7818608E-02  0.1130116E+00
         25   -1    0    0    0    0  0.00000000000E+00  0.00000000000E+00  0.99999998245E-14  0.12500000000E+03  0.12500000000E+03 0.  0.
        -11    1    1    0    0    0 -0.83300177728E+01  0.53536841286E+01 -0.12364118105E+02  0.15840534922E+02  0.51100000000E-03 0. -1.
         11    1    1    0    0    0 -0.22822077385E+02  0.19734413682E+02 -0.35626621870E+02  0.46685656102E+02  0.51100000000E-03 0.  1.
         22    1    1    0    0    0  0.31152095158E+02 -0.25088097811E+02  0.47990739975E+02  0.62473808975E+02  0.00000000000E+00 0.  1.
</event>
<event>
 4    1  0.1956390E-002  0.9118800E+02  0.7818608E-02  0.1130116E+00
         25   -1    0    0    0    0  0.00000000000E+00  0.00000000000E+00  0.99999998245E-14  0.12500000000E+03  0.12500000000E+03 0.  0.
        -11    1    1    0    0    0  0.19164517832E+02 -0.12604680834E+02 -0.52666068886E+01  0.23534949990E+02  0.51100000000E-03 0.  1.
         11    1    1    0    0    0  0.31729411952E+02 -0.20868046851E+02 -0.87203302908E+01  0.38965050017E+02  0.51100000000E-03 0.  1.
         22    1    1    0    0    0 -0.50893929784E+02  0.33472727685E+02  0.13986937179E+02  0.62499999993E+02  0.00000000000E+00 0.  1.
</event>
<event>
 4    1  0.1956390E-002  0.9118800E+02  0.7818608E-02  0.1130116E+00
         25   -1    0    0    0    0  0.00000000000E+00  0.00000000000E+00  0.99999998245E-14  0.12500000000E+03  0.12500000000E+03 0.  0.
        -11    1    1    0    0    0 -0.19742084346E+01 -0.32887732013E+01 -0.13677163032E+02  0.14204869481E+02  0.51100000000E-03 0. -1.
         11    1    1    0    0    0 -0.73865942652E+01 -0.23622609423E+00 -0.47871697180E+02  0.48438796112E+02  0.51100000000E-03 0.  1.
         22    1    1    0    0    0  0.93608026998E+01  0.35249992955E+01  0.61548860212E+02  0.62356334407E+02  0.00000000000E+00 0.  1.
</event>
<event>
 4    1  0.1956390E-002  0.9118800E+02  0.7818608E-02  0.1130116E+00
         25   -1    0    0    0    0  0.00000000000E+00  0.00000000000E+00  0.99999998245E-14  0.12500000000E+03  0.12500000000E+03 0.  0.
        -11    1    1    0    0    0  0.38990391501E+00 -0.14349536960E+01 -0.64193973405E+01  0.65893686836E+01  0.51100000000E-03 0. -1.
         11    1    1    0    0    0  0.14317705785E+02 -0.23199970064E+01 -0.54103108842E+02  0.56013618627E+02  0.51100000000E-03 0.  1.
         22    1    1    0    0    0 -0.14707609700E+02  0.37549507024E+01  0.60522506183E+02  0.62397012689E+02  0.00000000000E+00 0.  1.
</event>
<event>
 4    1  0.1956390E-002  0.9118800E+02  0.7818608E-02  0.1130116E+00
         25   -1    0    0    0    0  0.00000000000E+00  0.00000000000E+00  0.99999998245E-14  0.12500000000E+03  0.12500000000E+03 0.  0.
        -11    1    1    0    0    0 -0.11912989238E+02 -0.11650671736E+01 -0.20729160469E+02  0.23936891781E+02  0.51100000000E-03 0.  1.
         11    1    1    0    0    0 -0.23178336530E+02 -0.11667605543E+02 -0.28965287307E+02  0.38889023804E+02  0.51100000000E-03 0. -1.
         22    1    1    0    0    0  0.35091325768E+02  0.12832672716E+02  0.49694447776E+02  0.62174084416E+02  0.00000000000E+00 0.  1.
</event>
<event>
 4    1  0.1956390E-002  0.9118800E+02  0.7818608E-02  0.1130116E+00
         25   -1    0    0    0    0  0.00000000000E+00  0.00000000000E+00  0.99999998245E-14  0.12500000000E+03  0.12500000000E+03 0.  0.
        -11    1    1    0    0    0  0.57608026200E+01  0.16641970362E+02 -0.60058073855E+01  0.18606766161E+02  0.51100000000E-03 0. -1.
         11    1    1    0    0    0  0.12740168889E+02  0.39535960400E+02 -0.14189111402E+02  0.43894589083E+02  0.51100000000E-03 0.  1.
         22    1    1    0    0    0 -0.18500971509E+02 -0.56177930762E+02  0.20194918788E+02  0.62498644756E+02  0.00000000000E+00 0. -1.
</event>
<event>
 4    1  0.1956390E-002  0.9118800E+02  0.7818608E-02  0.1130116E+00
         25   -1    0    0    0    0  0.00000000000E+00  0.00000000000E+00  0.99999998245E-14  0.12500000000E+03  0.12500000000E+03 0.  0.
        -11    1    1    0    0    0 -0.17008423617E+01 -0.61704911142E+01 -0.50840926384E+02  0.51242244498E+02  0.51100000000E-03 0.  1.
         11    1    1    0    0    0 -0.37195979616E+00 -0.13558970145E+01 -0.11169612762E+02  0.11257755563E+02  0.51100000000E-03 0. -1.
         22    1    1    0    0    0  0.20728021579E+01  0.75263881287E+01  0.62010539147E+02  0.62499999938E+02  0.00000000000E+00 0.  1.
</event>
<event>
 4    1  0.1956390E-002  0.9118800E+02  0.7818608E-02  0.1130116E+00
         25   -1    0    0    0    0  0.00000000000E+00  0.00000000000E+00  0.99999998245E-14  0.12500000000E+03  0.12500000000E+03 0.  0.
        -11    1    1    0    0    0 -0.24219730816E+02 -0.10131563510E+02  0.10068107706E+01  0.26272754103E+02  0.51100000000E-03 0. -1.
         11    1    1    0    0    0 -0.25279607080E+02 -0.26869591577E+02 -0.15476844261E+01  0.36924636937E+02  0.51100000000E-03 0.  1.
         22    1    1    0    0    0  0.49499337896E+02  0.37001155087E+02  0.54087365549E+00  0.61802608960E+02  0.00000000000E+00 0. -1.
</event>
<event>
 4    1  0.1956390E-002  0.9118800E+02  0.7818608E-02  0.1130116E+00
         25   -1    0    0    0    0  0.00000000000E+00  0.00000000000E+00  0.99999998245E-14  0.12500000000E+03  0.12500000000E+03 0.  0.
        -11    1    1    0    0    0 -0.49927586911E+01  0.72454029199E+01  0.88933107453E+01  0.12510574691E+02  0.51100000000E-03 0. -1.
         11    1    1    0    0    0 -0.19947817511E+02  0.28950121736E+02  0.35537552983E+02  0.49989425325E+02  0.51100000000E-03 0.  1.
         22    1    1    0    0    0  0.24940576202E+02 -0.36195524656E+02 -0.44430863729E+02  0.62499999985E+02  0.00000000000E+00 0.  1.
</event>
<event>
 4    1  0.1956390E-002  0.9118800E+02  0.7818608E-02  0.1130116E+00
         25   -1    0    0    0    0  0.00000000000E+00  0.00000000000E+00  0.99999998245E-14  0.12500000000E+03  0.12500000000E+03 0.  0.
        -11    1    1    0    0    0  0.31063173359E+02 -0.39895883260E+02 -0.34535963702E+02  0.61231813866E+02  0.51100000000E-03 0.  1.
         11    1    1    0    0    0  0.67293525939E+00 -0.79593924069E+00 -0.72307990661E+00  0.12685448162E+01  0.51100000000E-03 0. -1.
         22    1    1    0    0    0 -0.31736108619E+02  0.40691822501E+02  0.35259043608E+02  0.62499641318E+02  0.00000000000E+00 0.  1.
</event>
<event>
 4    1  0.1956390E-002  0.9118800E+02  0.7818608E-02  0.1130116E+00
         25   -1    0    0    0    0  0.00000000000E+00  0.00000000000E+00  0.99999998245E-14  0.12500000000E+03  0.12500000000E+03 0.  0.
        -11    1    1    0    0    0 -0.12745507727E+02 -0.10317658481E+02 -0.68674897225E+01  0.17778201796E+02  0.51100000000E-03 0.  1.
         11    1    1    0    0    0 -0.32076672537E+02 -0.25930883729E+02 -0.17283393830E+02  0.44721799545E+02  0.51100000000E-03 0. -1.
         22    1    1    0    0    0  0.44822180265E+02  0.36248542210E+02  0.24150883552E+02  0.62499998659E+02  0.00000000000E+00 0. -1.
</event>
<event>
 4    1  0.1956390E-002  0.9118800E+02  0.7818608E-02  0.1130116E+00
         25   -1    0    0    0    0  0.00000000000E+00  0.00000000000E+00  0.99999998245E-14  0.12500000000E+03  0.12500000000E+03 0.  0.
        -11    1    1    0    0    0 -0.29358143777E+02  0.16220818233E+02 -0.73729060088E+01  0.34342033915E+02  0.51100000000E-03 0.  1.
         11    1    1    0    0    0 -0.27995961270E+02 -0.70717730029E+01 -0.91218063836E+01  0.30281862109E+02  0.51100000000E-03 0. -1.
         22    1    1    0    0    0  0.57354105047E+02 -0.91490452300E+01  0.16494712392E+02  0.60376103975E+02  0.00000000000E+00 0. -1.
</event>
<event>
 4    1  0.1956390E-002  0.9118800E+02  0.7818608E-02  0.1130116E+00
         25   -1    0    0    0    0  0.00000000000E+00  0.00000000000E+00  0.99999998245E-14  0.12500000000E+03  0.12500000000E+03 0.  0.
        -11    1    1    0    0    0  0.10219228951E+02 -0.65404681198E+01 -0.47134553531E+02  0.48671105395E+02  0.51100000000E-03 0. -1.
         11    1    1    0    0    0  0.28836106177E+01 -0.18417075013E+01 -0.13398936872E+02  0.13828904739E+02  0.51100000000E-03 0.  1.
         22    1    1    0    0    0 -0.13102839568E+02  0.83821756211E+01  0.60533490403E+02  0.62499989866E+02  0.00000000000E+00 0. -1.
</event>
<event>
 4    1  0.1956390E-002  0.9118800E+02  0.7818608E-02  0.1130116E+00
         25   -1    0    0    0    0  0.00000000000E+00  0.00000000000E+00  0.99999998245E-14  0.12500000000E+03  0.12500000000E+03 0.  0.
        -11    1    1    0    0    0  0.47770737560E+01 -0.15326121684E+02 -0.57419396051E+01  0.17049349261E+02  0.51100000000E-03 0.  1.
         11    1    1    0    0    0  0.12454173972E+02 -0.40961521248E+02 -0.15258490850E+02  0.45450788943E+02  0.51100000000E-03 0. -1.
         22    1    1    0    0    0 -0.17231247728E+02  0.56287642932E+02  0.21000430455E+02  0.62499861795E+02  0.00000000000E+00 0. -1.
</event>
<event>
 4    1  0.1956390E-002  0.9118800E+02  0.7818608E-02  0.1130116E+00
         25   -1    0    0    0    0  0.00000000000E+00  0.00000000000E+00  0.99999998245E-14  0.12500000000E+03  0.12500000000E+03 0.  0.
        -11    1    1    0    0    0 -0.77697059605E+01  0.11544849919E+02 -0.20442417516E-01  0.13915901283E+02  0.51100000000E-03 0.  1.
         11    1    1    0    0    0 -0.42495760205E+02  0.65429570226E+01  0.27471048076E+02  0.51023116375E+02  0.51100000000E-03 0. -1.
         22    1    1    0    0    0  0.50265466166E+02 -0.18087806942E+02 -0.27450605658E+02  0.60060982341E+02  0.00000000000E+00 0. -1.
</event>
<event>
 4    1  0.1956390E-002  0.9118800E+02  0.7818608E-02  0.1130116E+00
         25   -1    0    0    0    0  0.00000000000E+00  0.00000000000E+00  0.99999998245E-14  0.12500000000E+03  0.12500000000E+03 0.  0.
        -11    1    1    0    0    0  0.94116815828E+01 -0.26736211478E+02 -0.29590200431E+02  0.40975415998E+02  0.51100000000E-03 0. -1.
         11    1    1    0    0    0  0.49304984295E+01 -0.14161510314E+02 -0.15442067879E+02  0.21524768286E+02  0.51100000000E-03 0.  1.
         22    1    1    0    0    0 -0.14342180012E+02  0.40897721792E+02  0.45032268311E+02  0.62499815715E+02  0.00000000000E+00 0. -1.
</event>
<event>
 4    1  0.1956390E-002  0.9118800E+02  0.7818608E-02  0.1130116E+00
         25   -1    0    0    0    0  0.00000000000E+00  0.00000000000E+00  0.99999998245E-14  0.12500000000E+03  0.12500000000E+03 0.  0.
        -11    1    1    0    0    0  0.41381881352E+02 -0.27495558466E+02  0.84771415552E+00  0.49690889096E+02  0.51100000000E-03 0.  1.
         11    1    1    0    0    0  0.85187361954E-03 -0.11885529715E+02 -0.12236597040E+02  0.17058725765E+02  0.51100000000E-03 0. -1.
         22    1    1    0    0    0 -0.41382733225E+02  0.39381088181E+02  0.11388882884E+02  0.58250385140E+02  0.00000000000E+00 0.  1.
</event>
<event>
 4    1  0.1956390E-002  0.9118800E+02  0.7818608E-02  0.1130116E+00
         25   -1    0    0    0    0  0.00000000000E+00  0.00000000000E+00  0.99999998245E-14  0.12500000000E+03  0.12500000000E+03 0.  0.
        -11    1    1    0    0    0  0.46764431100E+01 -0.32307416576E+00 -0.16979199645E+01  0.49856222826E+01  0.51100000000E-03 0.  1.
         11    1    1    0    0    0  0.35708246977E+02 -0.30777529461E+02 -0.33706946942E+02  0.57952510681E+02  0.51100000000E-03 0. -1.
         22    1    1    0    0    0 -0.40384690087E+02  0.31100603627E+02  0.35404866906E+02  0.62061867036E+02  0.00000000000E+00 0. -1.
</event>
<event>
 4    1  0.1956390E-002  0.9118800E+02  0.7818608E-02  0.1130116E+00
         25   -1    0    0    0    0  0.00000000000E+00  0.00000000000E+00  0.99999998245E-14  0.12500000000E+03  0.12500000000E+03 0.  0.
        -11    1    1    0    0    0 -0.34998339477E+02 -0.24858567295E+02 -0.30101777915E+02  0.52430422161E+02  0.51100000000E-03 0. -1.
         11    1    1    0    0    0 -0.66301082858E+01 -0.52270077961E+01 -0.54990340205E+01  0.10075679719E+02  0.51100000000E-03 0.  1.
         22    1    1    0    0    0  0.41628447763E+02  0.30085575091E+02  0.35600811935E+02  0.62493898120E+02  0.00000000000E+00 0. -1.
</event>
<event>
 4    1  0.1956390E-002  0.9118800E+02  0.7818608E-02  0.1130116E+00
         25   -1    0    0    0    0  0.00000000000E+00  0.00000000000E+00  0.99999998245E-14  0.12500000000E+03  0.12500000000E+03 0.  0.
        -11    1    1    0    0    0  0.20048118439E+02  0.25356108056E+02  0.33548226413E+02  0.46586937701E+02  0.51100000000E-03 0. -1.
         11    1    1    0    0    0  0.80924150188E+01  0.96808625598E+01  0.97986865187E+01  0.15975623258E+02  0.51100000000E-03 0.  1.
         22    1    1    0    0    0 -0.28140533458E+02 -0.35036970616E+02 -0.43346912931E+02  0.62437439040E+02  0.00000000000E+00 0. -1.
</event>
<event>
 4    1  0.1956390E-002  0.9118800E+02  0.7818608E-02  0.1130116E+00
         25   -1    0    0    0    0  0.00000000000E+00  0.00000000000E+00  0.99999998245E-14  0.12500000000E+03  0.12500000000E+03 0.  0.
        -11    1    1    0    0    0 -0.29247448243E+01  0.16536375674E+02  0.84709962462E+01  0.18808605222E+02  0.51100000000E-03 0. -1.
         11    1    1    0    0    0 -0.11366992455E+02  0.38630936693E+02  0.17074986008E+02  0.43739146479E+02  0.51100000000E-03 0.  1.
         22    1    1    0    0    0  0.14291737279E+02 -0.55167312367E+02 -0.25545982254E+02  0.62452248299E+02  0.00000000000E+00 0.  1.
</event>
<event>
 4    1  0.1956390E-002  0.9118800E+02  0.7818608E-02  0.1130116E+00
         25   -1    0    0    0    0  0.00000000000E+00  0.00000000000E+00  0.99999998245E-14  0.12500000000E+03  0.12500000000E+03 0.  0.
        -11    1    1    0    0    0  0.16651442976E+02 -0.71801059352E+01 -0.46863718927E+01  0.18729296736E+02  0.51100000000E-03 0. -1.
         11    1    1    0    0    0  0.39188523233E+02 -0.15505172009E+02 -0.11836199945E+02  0.43774951075E+02  0.51100000000E-03 0.  1.
         22    1    1    0    0    0 -0.55839966209E+02  0.22685277944E+02  0.16522571837E+02  0.62495752190E+02  0.00000000000E+00 0.  1.
</event>
<event>
 4    1  0.1956390E-002  0.9118800E+02  0.7818608E-02  0.1130116E+00
         25   -1    0    0    0    0  0.00000000000E+00  0.00000000000E+00  0.99999998245E-14  0.12500000000E+03  0.12500000000E+03 0.  0.
        -11    1    1    0    0    0  0.22831029124E+02  0.42285887417E+00  0.31528808525E+02  0.38929429327E+02  0.51100000000E-03 0.  1.
         11    1    1    0    0    0  0.13824404265E+02  0.25750030332E+00  0.19089037251E+02  0.23570570700E+02  0.51100000000E-03 0. -1.
         22    1    1    0    0    0 -0.36655433389E+02 -0.68035917749E+00 -0.50617845776E+02  0.62499999973E+02  0.00000000000E+00 0. -1.
</event>
<event>
 4    1  0.1956390E-002  0.9118800E+02  0.7818608E-02  0.1130116E+00
         25   -1    0    0    0    0  0.00000000000E+00  0.00000000000E+00  0.99999998245E-14  0.12500000000E+03  0.12500000000E+03 0.  0.
        -11    1    1    0    0    0 -0.20330764154E+02  0.62809163451E+01 -0.12679051720E+02  0.24769905813E+02  0.51100000000E-03 0. -1.
         11    1    1    0    0    0 -0.30967178636E+02  0.95690653074E+01 -0.19313902893E+02  0.37730094205E+02  0.51100000000E-03 0. -1.
         22    1    1    0    0    0  0.51297942790E+02 -0.15849981652E+02  0.31992954613E+02  0.62499999982E+02  0.00000000000E+00 0. -1.
</event>
<event>
 4    1  0.1956390E-002  0.9118800E+02  0.7818608E-02  0.1130116E+00
         25   -1    0    0    0    0  0.00000000000E+00  0.00000000000E+00  0.99999998245E-14  0.12500000000E+03  0.12500000000E+03 0.  0.
        -11    1    1    0    0    0  0.91914055345E+01  0.52758300517E+02  0.10663822633E+02  0.54604370911E+02  0.51100000000E-03 0.  1.
         11    1    1    0    0    0  0.13293416630E+01  0.76286928404E+01  0.15417052107E+01  0.78956291027E+01  0.51100000000E-03 0. -1.
         22    1    1    0    0    0 -0.10520747198E+02 -0.60386993358E+02 -0.12205527844E+02  0.62499999986E+02  0.00000000000E+00 0.  1.
</event>
<event>
 4    1  0.1956390E-002  0.9118800E+02  0.7818608E-02  0.1130116E+00
         25   -1    0    0    0    0  0.00000000000E+00  0.00000000000E+00  0.99999998245E-14  0.12500000000E+03  0.12500000000E+03 0.  0.
        -11    1    1    0    0    0  0.11140245113E+02 -0.99640400896E+00  0.35724184063E+01  0.11741382187E+02  0.51100000000E-03 0. -1.
         11    1    1    0    0    0  0.46955934335E+02 -0.24900891914E+01  0.19160405997E+02  0.50775796121E+02  0.51100000000E-03 0.  1.
         22    1    1    0    0    0 -0.58096179448E+02  0.34864932004E+01 -0.22732824403E+02  0.62482821692E+02  0.00000000000E+00 0.  1.
</event>
<event>
 4    1  0.1956390E-002  0.9118800E+02  0.7818608E-02  0.1130116E+00
         25   -1    0    0    0    0  0.00000000000E+00  0.00000000000E+00  0.99999998245E-14  0.12500000000E+03  0.12500000000E+03 0.  0.
        -11    1    1    0    0    0  0.31976946960E+02  0.15231440570E+02  0.27366511490E+01  0.35524796671E+02  0.51100000000E-03 0. -1.
         11    1    1    0    0    0  0.27544752441E+02 -0.33926402122E+01 -0.70503831695E+01  0.28634442508E+02  0.51100000000E-03 0.  1.
         22    1    1    0    0    0 -0.59521699401E+02 -0.11838800358E+02  0.43137320205E+01  0.60840760822E+02  0.00000000000E+00 0. -1.
</event>
<event>
 4    1  0.1956390E-002  0.9118800E+02  0.7818608E-02  0.1130116E+00
         25   -1    0    0    0    0  0.00000000000E+00  0.00000000000E+00  0.99999998245E-14  0.12500000000E+03  0.12500000000E+03 0.  0.
        -11    1    1    0    0    0 -0.14494399062E+02  0.27783802759E+02  0.14260574589E+02  0.34429511873E+02  0.51100000000E-03 0.  1.
         11    1    1    0    0    0 -0.11811026959E+02  0.22647538040E+02  0.11642209838E+02  0.28070489616E+02  0.51100000000E-03 0. -1.
         22    1    1    0    0    0  0.26305426022E+02 -0.50431340799E+02 -0.25902784426E+02  0.62499998512E+02  0.00000000000E+00 0. -1.
</event>
<event>
 4    1  0.1956390E-002  0.9118800E+02  0.7818608E-02  0.1130116E+00
         25   -1    0    0    0    0  0.00000000000E+00  0.00000000000E+00  0.99999998245E-14  0.12500000000E+03  0.12500000000E+03 0.  0.
        -11    1    1    0    0    0  0.21045529630E+02  0.13952474506E+02  0.12567501598E+02  0.28205105192E+02  0.51100000000E-03 0.  1.
         11    1    1    0    0    0  0.25588676985E+02  0.16962960162E+02  0.15284547968E+02  0.34294894869E+02  0.51100000000E-03 0. -1.
         22    1    1    0    0    0 -0.46634206614E+02 -0.30915434668E+02 -0.27852049565E+02  0.62499999938E+02  0.00000000000E+00 0.  1.
</event>
<event>
 4    1  0.1956390E-002  0.9118800E+02  0.7818608E-02  0.1130116E+00
         25   -1    0    0    0    0  0.00000000000E+00  0.00000000000E+00  0.99999998245E-14  0.12500000000E+03  0.12500000000E+03 0.  0.
        -11    1    1    0    0    0 -0.14853138698E+02 -0.66324870923E+01  0.54613489222E+01  0.17159019393E+02  0.51100000000E-03 0.  1.
         11    1    1    0    0    0 -0.20050805900E+02 -0.35391576070E+02  0.22486304631E+02  0.46478299992E+02  0.51100000000E-03 0. -1.
         22    1    1    0    0    0  0.34903944598E+02  0.42024063162E+02 -0.27947653553E+02  0.61362680615E+02  0.00000000000E+00 0. -1.
</event>
<event>
 4    1  0.1956390E-002  0.9118800E+02  0.7818608E-02  0.1130116E+00
         25   -1    0    0    0    0  0.00000000000E+00  0.00000000000E+00  0.99999998245E-14  0.12500000000E+03  0.12500000000E+03 0.  0.
        -11    1    1    0    0    0 -0.35044666756E+02  0.87230013001E+01  0.38158470860E+02  0.52538446098E+02  0.51100000000E-03 0.  1.
         11    1    1    0    0    0  0.48557241167E+01  0.58128319940E+00  0.12127385269E+02  0.13076292310E+02  0.51100000000E-03 0. -1.
         22    1    1    0    0    0  0.30188942639E+02 -0.93042844995E+01 -0.50285856129E+02  0.59385261592E+02  0.00000000000E+00 0.  1.
</event>
<event>
 4    1  0.1956390E-002  0.9118800E+02  0.7818608E-02  0.1130116E+00
         25   -1    0    0    0    0  0.00000000000E+00  0.00000000000E+00  0.99999998245E-14  0.12500000000E+03  0.12500000000E+03 0.  0.
        -11    1    1    0    0    0 -0.60113018863E+02  0.55779031625E+01 -0.13700284869E+02  0.61906266616E+02  0.51100000000E-03 0.  1.
         11    1    1    0    0    0 -0.57680204205E+00  0.53680637682E-01 -0.13014539686E+00  0.59373419307E+00  0.51100000000E-03 0. -1.
         22    1    1    0    0    0  0.60689820905E+02 -0.56315838002E+01  0.13830430266E+02  0.62499999191E+02  0.00000000000E+00 0.  1.
</event>
<event>
 4    1  0.1956390E-002  0.9118800E+02  0.7818608E-02  0.1130116E+00
         25   -1    0    0    0    0  0.00000000000E+00  0.00000000000E+00  0.99999998245E-14  0.12500000000E+03  0.12500000000E+03 0.  0.
        -11    1    1    0    0    0 -0.38962781658E+02 -0.36747084634E+02  0.10739464229E+02  0.54624011898E+02  0.51100000000E-03 0.  1.
         11    1    1    0    0    0 -0.55770029034E+01 -0.53436797107E+01  0.15410917868E+01  0.78760928379E+01  0.51100000000E-03 0. -1.
         22    1    1    0    0    0  0.44539784562E+02  0.42090764345E+02 -0.12280556016E+02  0.62499895264E+02  0.00000000000E+00 0.  1.
</event>
<event>
 4    1  0.1956390E-002  0.9118800E+02  0.7818608E-02  0.1130116E+00
         25   -1    0    0    0    0  0.00000000000E+00  0.00000000000E+00  0.99999998245E-14  0.12500000000E+03  0.12500000000E+03 0.  0.
        -11    1    1    0    0    0  0.54573105524E+01  0.88438601339E+01 -0.21454365475E+01  0.10611267539E+02  0.51100000000E-03 0.  1.
         11    1    1    0    0    0  0.26715171509E+02  0.43185544541E+02 -0.10665452410E+02  0.51888761032E+02  0.51100000000E-03 0. -1.
         22    1    1    0    0    0 -0.32172482061E+02 -0.52029404675E+02  0.12810888958E+02  0.62499971430E+02  0.00000000000E+00 0.  1.
</event>
<event>
 4    1  0.1956390E-002  0.9118800E+02  0.7818608E-02  0.1130116E+00
         25   -1    0    0    0    0  0.00000000000E+00  0.00000000000E+00  0.99999998245E-14  0.12500000000E+03  0.12500000000E+03 0.  0.
        -11    1    1    0    0    0 -0.18854930980E+00 -0.14965461152E+00  0.56714169598E+00  0.61611468852E+00  0.51100000000E-03 0. -1.
         11    1    1    0    0    0 -0.18843950677E+02 -0.14944236281E+02  0.57019213386E+02  0.61883886194E+02  0.51100000000E-03 0.  1.
         22    1    1    0    0    0  0.19032499987E+02  0.15093890892E+02 -0.57586355082E+02  0.62499999117E+02  0.00000000000E+00 0.  1.
</event>
<event>
 4    1  0.1956390E-002  0.9118800E+02  0.7818608E-02  0.1130116E+00
         25   -1    0    0    0    0  0.00000000000E+00  0.00000000000E+00  0.99999998245E-14  0.12500000000E+03  0.12500000000E+03 0.  0.
        -11    1    1    0    0    0  0.78429804227E+01 -0.10969628679E+02  0.81913638002E+01  0.15777944620E+02  0.51100000000E-03 0.  1.
         11    1    1    0    0    0  0.29246582872E+02 -0.32988179847E+02  0.15899980440E+02  0.46865680380E+02  0.51100000000E-03 0. -1.
         22    1    1    0    0    0 -0.37089563294E+02  0.43957808526E+02 -0.24091344240E+02  0.62356374999E+02  0.00000000000E+00 0. -1.
</event>
<event>
 4    1  0.1956390E-002  0.9118800E+02  0.7818608E-02  0.1130116E+00
         25   -1    0    0    0    0  0.00000000000E+00  0.00000000000E+00  0.99999998245E-14  0.12500000000E+03  0.12500000000E+03 0.  0.
        -11    1    1    0    0    0  0.34577974301E+02 -0.19120224157E+02  0.45133003135E+02  0.59985058563E+02  0.51100000000E-03 0. -1.
         11    1    1    0    0    0  0.24417503331E+01 -0.12331541050E+01  0.55223781295E+00  0.27906595276E+01  0.51100000000E-03 0.  1.
         22    1    1    0    0    0 -0.37019724634E+02  0.20353378262E+02 -0.45685240948E+02  0.62224281909E+02  0.00000000000E+00 0. -1.
</event>
<event>
 4    1  0.1956390E-002  0.9118800E+02  0.7818608E-02  0.1130116E+00
         25   -1    0    0    0    0  0.00000000000E+00  0.00000000000E+00  0.99999998245E-14  0.12500000000E+03  0.12500000000E+03 0.  0.
        -11    1    1    0    0    0 -0.13355788714E+02  0.38869680674E+02  0.41137977616E+02  0.58151202657E+02  0.51100000000E-03 0. -1.
         11    1    1    0    0    0  0.10066755945E+00  0.30641032910E+01  0.31771221343E+01  0.44150841728E+01  0.51100000000E-03 0.  1.
         22    1    1    0    0    0  0.13255121154E+02 -0.41933783965E+02 -0.44315099750E+02  0.62433713171E+02  0.00000000000E+00 0. -1.
</event>
<event>
 4    1  0.1956390E-002  0.9118800E+02  0.7818608E-02  0.1130116E+00
         25   -1    0    0    0    0  0.00000000000E+00  0.00000000000E+00  0.99999998245E-14  0.12500000000E+03  0.12500000000E+03 0.  0.
        -11    1    1    0    0    0  0.36025171691E+02  0.11465159253E+02  0.40568778796E+02  0.55453482175E+02  0.51100000000E-03 0.  1.
         11    1    1    0    0    0  0.45790629452E+01  0.14570069940E+01  0.51539041439E+01  0.70465179360E+01  0.51100000000E-03 0. -1.
         22    1    1    0    0    0 -0.40604234636E+02 -0.12922166247E+02 -0.45722682940E+02  0.62499999889E+02  0.00000000000E+00 0.  1.
</event>
<event>
 4    1  0.1956390E-002  0.9118800E+02  0.7818608E-02  0.1130116E+00
         25   -1    0    0    0    0  0.00000000000E+00  0.00000000000E+00  0.99999998245E-14  0.12500000000E+03  0.12500000000E+03 0.  0.
        -11    1    1    0    0    0  0.71961823398E+01 -0.10491863816E+01  0.93496226374E+00  0.73321202272E+01  0.51100000000E-03 0. -1.
         11    1    1    0    0    0  0.30166453464E+02 -0.58582932481E+01  0.47213335636E+02  0.56333236873E+02  0.51100000000E-03 0.  1.
         22    1    1    0    0    0 -0.37362635804E+02  0.69074796297E+01 -0.48148297900E+02  0.61334642900E+02  0.00000000000E+00 0.  1.
</event>
<event>
 4    1  0.1956390E-002  0.9118800E+02  0.7818608E-02  0.1130116E+00
         25   -1    0    0    0    0  0.00000000000E+00  0.00000000000E+00  0.99999998245E-14  0.12500000000E+03  0.12500000000E+03 0.  0.
        -11    1    1    0    0    0  0.90325461768E+01  0.11350389557E+02  0.33977281073E+01  0.14898415690E+02  0.51100000000E-03 0.  1.
         11    1    1    0    0    0  0.28860069164E+02  0.36264168395E+02  0.10858974575E+02  0.47601584329E+02  0.51100000000E-03 0.  1.
         22    1    1    0    0    0 -0.37892615340E+02 -0.47614557952E+02 -0.14256702683E+02  0.62499999981E+02  0.00000000000E+00 0.  1.
</event>
<event>
 4    1  0.1956390E-002  0.9118800E+02  0.7818608E-02  0.1130116E+00
         25   -1    0    0    0    0  0.00000000000E+00  0.00000000000E+00  0.99999998245E-14  0.12500000000E+03  0.12500000000E+03 0.  0.
        -11    1    1    0    0    0 -0.21065729037E+02  0.93575812135E+01 -0.11277199711E+02  0.25661342514E+02  0.51100000000E-03 0. -1.
         11    1    1    0    0    0 -0.30238310685E+02  0.13450362590E+02 -0.16180824253E+02  0.36838658508E+02  0.51100000000E-03 0.  1.
         22    1    1    0    0    0  0.51304039722E+02 -0.22807943803E+02  0.27458023964E+02  0.62499998979E+02  0.00000000000E+00 0.  1.
</event>
<event>
 4    1  0.1956390E-002  0.9118800E+02  0.7818608E-02  0.1130116E+00
         25   -1    0    0    0    0  0.00000000000E+00  0.00000000000E+00  0.99999998245E-14  0.12500000000E+03  0.12500000000E+03 0.  0.
        -11    1    1    0    0    0 -0.13151120856E+02  0.43568061719E+02  0.12569734305E+02  0.47213623061E+02  0.51100000000E-03 0. -1.
         11    1    1    0    0    0 -0.42706971616E+01  0.14104001979E+02  0.40634556183E+01  0.15286379489E+02  0.51100000000E-03 0.  1.
         22    1    1    0    0    0  0.17421818018E+02 -0.57672063698E+02 -0.16633189923E+02  0.62499997450E+02  0.00000000000E+00 0.  1.
</event>
<event>
 4    1  0.1956390E-002  0.9118800E+02  0.7818608E-02  0.1130116E+00
         25   -1    0    0    0    0  0.00000000000E+00  0.00000000000E+00  0.99999998245E-14  0.12500000000E+03  0.12500000000E+03 0.  0.
        -11    1    1    0    0    0  0.29777343335E+02  0.33554337030E+00  0.97301413279E+01  0.31328555919E+02  0.51100000000E-03 0.  1.
         11    1    1    0    0    0  0.28489249614E+02 -0.47675098416E+01  0.12065556741E+02  0.31304059695E+02  0.51100000000E-03 0. -1.
         22    1    1    0    0    0 -0.58266592949E+02  0.44319664713E+01 -0.21795698069E+02  0.62367384385E+02  0.00000000000E+00 0.  1.
</event>
<event>
 4    1  0.1956390E-002  0.9118800E+02  0.7818608E-02  0.1130116E+00
         25   -1    0    0    0    0  0.00000000000E+00  0.00000000000E+00  0.99999998245E-14  0.12500000000E+03  0.12500000000E+03 0.  0.
        -11    1    1    0    0    0  0.41092602965E+02 -0.38582011856E+02 -0.12238680239E+02  0.57679796736E+02  0.51100000000E-03 0. -1.
         11    1    1    0    0    0  0.33038610147E+01 -0.33593214725E+01 -0.10247266613E+01  0.48218879447E+01  0.51100000000E-03 0.  1.
         22    1    1    0    0    0 -0.44396463979E+02  0.41941333328E+02  0.13263406900E+02  0.62498315320E+02  0.00000000000E+00 0. -1.
</event>
<event>
 4    1  0.1956390E-002  0.9118800E+02  0.7818608E-02  0.1130116E+00
         25   -1    0    0    0    0  0.00000000000E+00  0.00000000000E+00  0.99999998245E-14  0.12500000000E+03  0.12500000000E+03 0.  0.
        -11    1    1    0    0    0  0.13067592395E+01 -0.44865818340E+02 -0.17630353467E+02  0.48223216801E+02  0.51100000000E-03 0. -1.
         11    1    1    0    0    0  0.38720747396E+00 -0.13282908826E+02 -0.52192855817E+01  0.14276783207E+02  0.51100000000E-03 0. -1.
         22    1    1    0    0    0 -0.16939667135E+01  0.58148727166E+02  0.22849639049E+02  0.62499999991E+02  0.00000000000E+00 0. -1.
</event>
<event>
 4    1  0.1956390E-002  0.9118800E+02  0.7818608E-02  0.1130116E+00
         25   -1    0    0    0    0  0.00000000000E+00  0.00000000000E+00  0.99999998245E-14  0.12500000000E+03  0.12500000000E+03 0.  0.
        -11    1    1    0    0    0 -0.13918243153E+02 -0.19471809353E+02 -0.14341078971E+01  0.23977604503E+02  0.51100000000E-03 0.  1.
         11    1    1    0    0    0 -0.23023785531E+02 -0.30792881083E+02 -0.24106678495E+01  0.38524116412E+02  0.51100000000E-03 0. -1.
         22    1    1    0    0    0  0.36942028685E+02  0.50264690437E+02  0.38447757466E+01  0.62498279085E+02  0.00000000000E+00 0.  1.
</event>
<event>
 4    1  0.1956390E-002  0.9118800E+02  0.7818608E-02  0.1130116E+00
         25   -1    0    0    0    0  0.00000000000E+00  0.00000000000E+00  0.99999998245E-14  0.12500000000E+03  0.12500000000E+03 0.  0.
        -11    1    1    0    0    0  0.10988943354E+02 -0.11595341122E+02  0.18796898444E+02  0.24668445495E+02  0.51100000000E-03 0. -1.
         11    1    1    0    0    0  0.16851984395E+02 -0.17782737398E+02  0.28827268150E+02  0.37831554510E+02  0.51100000000E-03 0. -1.
         22    1    1    0    0    0 -0.27840927749E+02  0.29378078520E+02 -0.47624166594E+02  0.62499999994E+02  0.00000000000E+00 0. -1.
</event>
<event>
 4    1  0.1956390E-002  0.9118800E+02  0.7818608E-02  0.1130116E+00
         25   -1    0    0    0    0  0.00000000000E+00  0.00000000000E+00  0.99999998245E-14  0.12500000000E+03  0.12500000000E+03 0.  0.
        -11    1    1    0    0    0  0.13500925200E+01 -0.60712777437E+01 -0.15528977166E+01  0.64105112770E+01  0.51100000000E-03 0. -1.
         11    1    1    0    0    0  0.12414954917E+02 -0.53208741947E+02 -0.12680323005E+02  0.56090034025E+02  0.51100000000E-03 0.  1.
         22    1    1    0    0    0 -0.13765047438E+02  0.59280019690E+02  0.14233220721E+02  0.62499454698E+02  0.00000000000E+00 0.  1.
</event>
<event>
 4    1  0.1956390E-002  0.9118800E+02  0.7818608E-02  0.1130116E+00
         25   -1    0    0    0    0  0.00000000000E+00  0.00000000000E+00  0.99999998245E-14  0.12500000000E+03  0.12500000000E+03 0.  0.
        -11    1    1    0    0    0  0.18350510916E+02 -0.36821903139E+02  0.17343861781E+02  0.44647545771E+02  0.51100000000E-03 0. -1.
         11    1    1    0    0    0  0.73532768487E+01 -0.14717243860E+02  0.69312539843E+01  0.17852457234E+02  0.51100000000E-03 0.  1.
         22    1    1    0    0    0 -0.25703787765E+02  0.51539146999E+02 -0.24275115766E+02  0.62499996994E+02  0.00000000000E+00 0. -1.
</event>
<event>
 4    1  0.1956390E-002  0.9118800E+02  0.7818608E-02  0.1130116E+00
         25   -1    0    0    0    0  0.00000000000E+00  0.00000000000E+00  0.99999998245E-14  0.12500000000E+03  0.12500000000E+03 0.  0.
        -11    1    1    0    0    0 -0.13274068254E+01 -0.25859018933E+02  0.29156385842E+02  0.38994175266E+02  0.51100000000E-03 0. -1.
         11    1    1    0    0    0  0.17008680694E+02  0.23193490054E+02  0.19544058070E+02  0.34773602142E+02  0.51100000000E-03 0.  1.
         22    1    1    0    0    0 -0.15681273869E+02  0.26655288793E+01 -0.48700443913E+02  0.51232222591E+02  0.00000000000E+00 0. -1.
</event>
<event>
 4    1  0.1956390E-002  0.9118800E+02  0.7818608E-02  0.1130116E+00
         25   -1    0    0    0    0  0.00000000000E+00  0.00000000000E+00  0.99999998245E-14  0.12500000000E+03  0.12500000000E+03 0.  0.
        -11    1    1    0    0    0  0.14541781943E+02  0.45116870726E+02 -0.86456022891E+01  0.48184456886E+02  0.51100000000E-03 0.  1.
         11    1    1    0    0    0  0.43486057791E+01  0.13378920135E+02 -0.26518147332E+01  0.14315655690E+02  0.51100000000E-03 0. -1.
         22    1    1    0    0    0 -0.18890387722E+02 -0.58495790860E+02  0.11297417022E+02  0.62499887424E+02  0.00000000000E+00 0.  1.
</event>
<event>
 4    1  0.1956390E-002  0.9118800E+02  0.7818608E-02  0.1130116E+00
         25   -1    0    0    0    0  0.00000000000E+00  0.00000000000E+00  0.99999998245E-14  0.12500000000E+03  0.12500000000E+03 0.  0.
        -11    1    1    0    0    0  0.63910916332E+01  0.10701036639E+02 -0.16121254007E+01  0.12568101925E+02  0.51100000000E-03 0.  1.
         11    1    1    0    0    0  0.25405784243E+02  0.42498059601E+02 -0.64541300723E+01  0.49931901006E+02  0.51100000000E-03 0. -1.
         22    1    1    0    0    0 -0.31796875876E+02 -0.53199096240E+02  0.80662554730E+01  0.62499997069E+02  0.00000000000E+00 0. -1.
</event>
<event>
 4    1  0.1956390E-002  0.9118800E+02  0.7818608E-02  0.1130116E+00
         25   -1    0    0    0    0  0.00000000000E+00  0.00000000000E+00  0.99999998245E-14  0.12500000000E+03  0.12500000000E+03 0.  0.
        -11    1    1    0    0    0  0.73450365909E+01  0.69473788514E+01  0.15589576713E+02  0.18580918647E+02  0.51100000000E-03 0. -1.
         11    1    1    0    0    0  0.17088705363E+02  0.16477413854E+02  0.36950910045E+02  0.43919230090E+02  0.51100000000E-03 0.  1.
         22    1    1    0    0    0 -0.24433741954E+02 -0.23424792705E+02 -0.52540486758E+02  0.62499851263E+02  0.00000000000E+00 0.  1.
</event>
<event>
 4    1  0.1956390E-002  0.9118800E+02  0.7818608E-02  0.1130116E+00
         25   -1    0    0    0    0  0.00000000000E+00  0.00000000000E+00  0.99999998245E-14  0.12500000000E+03  0.12500000000E+03 0.  0.
        -11    1    1    0    0    0 -0.22131989135E+02  0.19682938048E+02  0.95682601061E+01  0.31125465378E+02  0.51100000000E-03 0. -1.
         11    1    1    0    0    0 -0.22250617912E+02  0.19855564336E+02  0.97484137371E+01  0.31374591683E+02  0.51100000000E-03 0.  1.
         22    1    1    0    0    0  0.44382607047E+02 -0.39538502384E+02 -0.19316673843E+02  0.62499942940E+02  0.00000000000E+00 0.  1.
</event>
<event>
 4    1  0.1956390E-002  0.9118800E+02  0.7818608E-02  0.1130116E+00
         25   -1    0    0    0    0  0.00000000000E+00  0.00000000000E+00  0.99999998245E-14  0.12500000000E+03  0.12500000000E+03 0.  0.
        -11    1    1    0    0    0  0.25621058004E-01 -0.88710334416E+00  0.51365771779E+00  0.10254039662E+01  0.51100000000E-03 0.  1.
         11    1    1    0    0    0  0.43887578091E+02 -0.40816496288E+02 -0.14837160151E+02  0.61743398040E+02  0.51100000000E-03 0. -1.
         22    1    1    0    0    0 -0.43913199149E+02  0.41703599632E+02  0.14323502433E+02  0.62231197994E+02  0.00000000000E+00 0. -1.
</event>
<event>
 4    1  0.1956390E-002  0.9118800E+02  0.7818608E-02  0.1130116E+00
         25   -1    0    0    0    0  0.00000000000E+00  0.00000000000E+00  0.99999998245E-14  0.12500000000E+03  0.12500000000E+03 0.  0.
        -11    1    1    0    0    0  0.14633645498E+02  0.28649637119E+02  0.13525455493E+02  0.34898183823E+02  0.51100000000E-03 0. -1.
         11    1    1    0    0    0  0.11962891133E+02  0.22406073824E+02  0.10806517391E+02  0.27602965907E+02  0.51100000000E-03 0.  1.
         22    1    1    0    0    0 -0.26596536631E+02 -0.51055710943E+02 -0.24331972884E+02  0.62498850270E+02  0.00000000000E+00 0. -1.
</event>
<event>
 4    1  0.1956390E-002  0.9118800E+02  0.7818608E-02  0.1130116E+00
         25   -1    0    0    0    0  0.00000000000E+00  0.00000000000E+00  0.99999998245E-14  0.12500000000E+03  0.12500000000E+03 0.  0.
        -11    1    1    0    0    0 -0.45014185172E+02  0.20361789796E+02 -0.27112924981E+02  0.56355922951E+02  0.51100000000E-03 0. -1.
         11    1    1    0    0    0 -0.45535196244E+01  0.46194755653E+01 -0.76192189778E+00  0.65310505056E+01  0.51100000000E-03 0.  1.
         22    1    1    0    0    0  0.49567704796E+02 -0.24981265361E+02  0.27874846879E+02  0.62113026543E+02  0.00000000000E+00 0. -1.
</event>
<event>
 4    1  0.1956390E-002  0.9118800E+02  0.7818608E-02  0.1130116E+00
         25   -1    0    0    0    0  0.00000000000E+00  0.00000000000E+00  0.99999998245E-14  0.12500000000E+03  0.12500000000E+03 0.  0.
        -11    1    1    0    0    0  0.18427774201E+02  0.20972460458E+02 -0.44907370104E+02  0.52878150966E+02  0.51100000000E-03 0.  1.
         11    1    1    0    0    0  0.33564350531E+01  0.38127932985E+01 -0.81717158045E+01  0.96218495339E+01  0.51100000000E-03 0. -1.
         22    1    1    0    0    0 -0.21784209254E+02 -0.24785253756E+02  0.53079085909E+02  0.62499999500E+02  0.00000000000E+00 0.  1.
</event>
<event>
 4    1  0.1956390E-002  0.9118800E+02  0.7818608E-02  0.1130116E+00
         25   -1    0    0    0    0  0.00000000000E+00  0.00000000000E+00  0.99999998245E-14  0.12500000000E+03  0.12500000000E+03 0.  0.
        -11    1    1    0    0    0  0.26461565596E+02  0.36979231087E+02 -0.29185277675E+02  0.54032012907E+02  0.51100000000E-03 0. -1.
         11    1    1    0    0    0  0.91880237825E+01  0.25650552709E+01  0.11332849770E+02  0.14813263440E+02  0.51100000000E-03 0.  1.
         22    1    1    0    0    0 -0.35649589379E+02 -0.39544286358E+02  0.17852427905E+02  0.56154723653E+02  0.00000000000E+00 0. -1.
</event>
<event>
 4    1  0.1956390E-002  0.9118800E+02  0.7818608E-02  0.1130116E+00
         25   -1    0    0    0    0  0.00000000000E+00  0.00000000000E+00  0.99999998245E-14  0.12500000000E+03  0.12500000000E+03 0.  0.
        -11    1    1    0    0    0  0.53306093458E+01  0.48935650063E+02  0.35853320548E+02  0.60898061034E+02  0.51100000000E-03 0. -1.
         11    1    1    0    0    0  0.13999324179E+00  0.12901581456E+01  0.93920912112E+00  0.16019426278E+01  0.51100000000E-03 0.  1.
         22    1    1    0    0    0 -0.54706025876E+01 -0.50225808209E+02 -0.36792529669E+02  0.62499996339E+02  0.00000000000E+00 0. -1.
</event>
<event>
 4    1  0.1956390E-002  0.9118800E+02  0.7818608E-02  0.1130116E+00
         25   -1    0    0    0    0  0.00000000000E+00  0.00000000000E+00  0.99999998245E-14  0.12500000000E+03  0.12500000000E+03 0.  0.
        -11    1    1    0    0    0  0.23672219760E+02  0.40929812955E+02 -0.75781583631E+01  0.47885823177E+02  0.51100000000E-03 0. -1.
         11    1    1    0    0    0  0.74800132808E+01  0.12308411787E+02 -0.24851101185E+01  0.14615860288E+02  0.51100000000E-03 0.  1.
         22    1    1    0    0    0 -0.31152233041E+02 -0.53238224742E+02  0.10063268482E+02  0.62498316535E+02  0.00000000000E+00 0. -1.
</event>
<event>
 4    1  0.1956390E-002  0.9118800E+02  0.7818608E-02  0.1130116E+00
         25   -1    0    0    0    0  0.00000000000E+00  0.00000000000E+00  0.99999998245E-14  0.12500000000E+03  0.12500000000E+03 0.  0.
        -11    1    1    0    0    0 -0.23773510820E+02  0.52785257825E+02 -0.17252320178E+02  0.60407829063E+02  0.51100000000E-03 0. -1.
         11    1    1    0    0    0 -0.12796772890E+01  0.15353213774E+01 -0.73052948011E+00  0.21280176875E+01  0.51100000000E-03 0.  1.
         22    1    1    0    0    0  0.25053188109E+02 -0.54320579202E+02  0.17982849658E+02  0.62464153249E+02  0.00000000000E+00 0. -1.
</event>
<event>
 4    1  0.1956390E-002  0.9118800E+02  0.7818608E-02  0.1130116E+00
         25   -1    0    0    0    0  0.00000000000E+00  0.00000000000E+00  0.99999998245E-14  0.12500000000E+03  0.12500000000E+03 0.  0.
        -11    1    1    0    0    0 -0.25718126774E+02 -0.11322794788E+02  0.26388772367E+02  0.38548606121E+02  0.51100000000E-03 0.  1.
         11    1    1    0    0    0 -0.15986256180E+02 -0.70502582606E+01  0.16383005768E+02  0.23951396754E+02  0.51100000000E-03 0. -1.
         22    1    1    0    0    0  0.41704382954E+02  0.18373053049E+02 -0.42771778134E+02  0.62499997126E+02  0.00000000000E+00 0.  1.
</event>
<event>
 4    1  0.1956390E-002  0.9118800E+02  0.7818608E-02  0.1130116E+00
         25   -1    0    0    0    0  0.00000000000E+00  0.00000000000E+00  0.99999998245E-14  0.12500000000E+03  0.12500000000E+03 0.  0.
        -11    1    1    0    0    0 -0.83194452546E+01  0.96675579485E+01 -0.56174791704E+02  0.57604531673E+02  0.51100000000E-03 0. -1.
         11    1    1    0    0    0 -0.79541155394E+00  0.10111205924E+01 -0.47256532394E+01  0.48976364904E+01  0.51100000000E-03 0.  1.
         22    1    1    0    0    0  0.91148568085E+01 -0.10678678541E+02  0.60900444943E+02  0.62497831837E+02  0.00000000000E+00 0. -1.
</event>
<event>
 4    1  0.1956390E-002  0.9118800E+02  0.7818608E-02  0.1130116E+00
         25   -1    0    0    0    0  0.00000000000E+00  0.00000000000E+00  0.99999998245E-14  0.12500000000E+03  0.12500000000E+03 0.  0.
        -11    1    1    0    0    0 -0.13046404492E+02  0.96841515413E+01  0.91240519384E+00  0.16273412203E+02  0.51100000000E-03 0.  1.
         11    1    1    0    0    0 -0.41980403643E+02 -0.10447060955E+02 -0.23509105016E+02  0.49235895356E+02  0.51100000000E-03 0. -1.
         22    1    1    0    0    0  0.55026808134E+02  0.76290941327E+00  0.22596699822E+02  0.59490692441E+02  0.00000000000E+00 0.  1.
</event>
<event>
 4    1  0.1956390E-002  0.9118800E+02  0.7818608E-02  0.1130116E+00
         25   -1    0    0    0    0  0.00000000000E+00  0.00000000000E+00  0.99999998245E-14  0.12500000000E+03  0.12500000000E+03 0.  0.
        -11    1    1    0    0    0  0.13189790390E+02  0.47554539520E+01 -0.87692957797E+00  0.14048271017E+02  0.51100000000E-03 0.  1.
         11    1    1    0    0    0  0.44972977786E+02  0.17884496675E+02 -0.23401101391E+01  0.48455134589E+02  0.51100000000E-03 0. -1.
         22    1    1    0    0    0 -0.58162768176E+02 -0.22639950627E+02  0.32170397171E+01  0.62496594394E+02  0.00000000000E+00 0. -1.
</event>
<event>
 4    1  0.1956390E-002  0.9118800E+02  0.7818608E-02  0.1130116E+00
         25   -1    0    0    0    0  0.00000000000E+00  0.00000000000E+00  0.99999998245E-14  0.12500000000E+03  0.12500000000E+03 0.  0.
        -11    1    1    0    0    0 -0.50452452399E+01 -0.97756527747E+01 -0.80212732263E+01  0.13614650606E+02  0.51100000000E-03 0.  1.
         11    1    1    0    0    0 -0.20575487907E+02 -0.37101970741E+02 -0.24354074968E+02  0.48918584437E+02  0.51100000000E-03 0. -1.
         22    1    1    0    0    0  0.25620733147E+02  0.46877623516E+02  0.32375348194E+02  0.62466764957E+02  0.00000000000E+00 0. -1.
</event>
<event>
 4    1  0.1956390E-002  0.9118800E+02  0.7818608E-02  0.1130116E+00
         25   -1    0    0    0    0  0.00000000000E+00  0.00000000000E+00  0.99999998245E-14  0.12500000000E+03  0.12500000000E+03 0.  0.
        -11    1    1    0    0    0  0.38315315897E+02 -0.14826148370E+02  0.30826615276E+02  0.51363005339E+02  0.51100000000E-03 0.  1.
         11    1    1    0    0    0  0.84341955112E+01 -0.32921933678E+01  0.64871732988E+01  0.11138115135E+02  0.51100000000E-03 0. -1.
         22    1    1    0    0    0 -0.46749511408E+02  0.18118341738E+02 -0.37313788575E+02  0.62498879526E+02  0.00000000000E+00 0.  1.
</event>
<event>
 4    1  0.1956390E-002  0.9118800E+02  0.7818608E-02  0.1130116E+00
         25   -1    0    0    0    0  0.00000000000E+00  0.00000000000E+00  0.99999998245E-14  0.12500000000E+03  0.12500000000E+03 0.  0.
        -11    1    1    0    0    0 -0.36795312516E+02  0.27428396516E+01  0.10639545096E+01  0.36912737531E+02  0.51100000000E-03 0.  1.
         11    1    1    0    0    0 -0.25505695503E+02  0.19008959771E+01  0.74438298067E+00  0.25587262747E+02  0.51100000000E-03 0. -1.
         22    1    1    0    0    0  0.62301008019E+02 -0.46437356287E+01 -0.18083374902E+01  0.62499999722E+02  0.00000000000E+00 0. -1.
</event>
<event>
 4    1  0.1956390E-002  0.9118800E+02  0.7818608E-02  0.1130116E+00
         25   -1    0    0    0    0  0.00000000000E+00  0.00000000000E+00  0.99999998245E-14  0.12500000000E+03  0.12500000000E+03 0.  0.
        -11    1    1    0    0    0  0.34566634061E+01 -0.22275978706E+02 -0.16702576207E+02  0.28056083145E+02  0.51100000000E-03 0.  1.
         11    1    1    0    0    0  0.42025950643E+01 -0.27084074159E+02 -0.20861904038E+02  0.34444562977E+02  0.51100000000E-03 0. -1.
         22    1    1    0    0    0 -0.76592584703E+01  0.49360052865E+02  0.37564480245E+02  0.62499353878E+02  0.00000000000E+00 0. -1.
</event>
<event>
 4    1  0.1956390E-002  0.9118800E+02  0.7818608E-02  0.1130116E+00
         25   -1    0    0    0    0  0.00000000000E+00  0.00000000000E+00  0.99999998245E-14  0.12500000000E+03  0.12500000000E+03 0.  0.
        -11    1    1    0    0    0  0.23006143192E+02 -0.51691115165E+01 -0.18295097985E+02  0.29844814440E+02  0.51100000000E-03 0. -1.
         11    1    1    0    0    0  0.25452415787E+02 -0.54776967594E+01 -0.19712409108E+02  0.32655929083E+02  0.51100000000E-03 0.  1.
         22    1    1    0    0    0 -0.48458558978E+02  0.10646808276E+02  0.38007507093E+02  0.62499256477E+02  0.00000000000E+00 0. -1.
</event>
<event>
 4    1  0.1956390E-002  0.9118800E+02  0.7818608E-02  0.1130116E+00
         25   -1    0    0    0    0  0.00000000000E+00  0.00000000000E+00  0.99999998245E-14  0.12500000000E+03  0.12500000000E+03 0.  0.
        -11    1    1    0    0    0 -0.17772809937E+02 -0.81739805327E+01  0.13701197404E+02  0.23883248133E+02  0.51100000000E-03 0. -1.
         11    1    1    0    0    0 -0.32732240930E+02 -0.17505665854E+01  0.21101631624E+02  0.38983880478E+02  0.51100000000E-03 0.  1.
         22    1    1    0    0    0  0.50505050867E+02  0.99245471181E+01 -0.34802829028E+02  0.62132871389E+02  0.00000000000E+00 0. -1.
</event>
<event>
 4    1  0.1956390E-002  0.9118800E+02  0.7818608E-02  0.1130116E+00
         25   -1    0    0    0    0  0.00000000000E+00  0.00000000000E+00  0.99999998245E-14  0.12500000000E+03  0.12500000000E+03 0.  0.
        -11    1    1    0    0    0  0.17816780604E+02  0.25396663154E+01  0.10225490339E+02  0.20698991015E+02  0.51100000000E-03 0.  1.
         11    1    1    0    0    0  0.35871419170E+02  0.48302767814E+01  0.20910811721E+02  0.41801343688E+02  0.51100000000E-03 0. -1.
         22    1    1    0    0    0 -0.53688199774E+02 -0.73699430968E+01 -0.31136302060E+02  0.62499665297E+02  0.00000000000E+00 0. -1.
</event>
<event>
 4    1  0.1956390E-002  0.9118800E+02  0.7818608E-02  0.1130116E+00
         25   -1    0    0    0    0  0.00000000000E+00  0.00000000000E+00  0.99999998245E-14  0.12500000000E+03  0.12500000000E+03 0.  0.
        -11    1    1    0    0    0  0.77423826910E+01 -0.30317994862E+02  0.34224709080E+02  0.46373009543E+02  0.51100000000E-03 0.  1.
         11    1    1    0    0    0  0.27089495451E+01 -0.10554341765E+02  0.11888965104E+02  0.16126996907E+02  0.51100000000E-03 0. -1.
         22    1    1    0    0    0 -0.10451332236E+02  0.40872336628E+02 -0.46113674184E+02  0.62499993550E+02  0.00000000000E+00 0.  1.
</event>
<event>
 4    1  0.1956390E-002  0.9118800E+02  0.7818608E-02  0.1130116E+00
         25   -1    0    0    0    0  0.00000000000E+00  0.00000000000E+00  0.99999998245E-14  0.12500000000E+03  0.12500000000E+03 0.  0.
        -11    1    1    0    0    0  0.73281364678E+01  0.94565000308E+01  0.37409708540E+01  0.12534825093E+02  0.51100000000E-03 0.  1.
         11    1    1    0    0    0  0.34661219481E+02  0.35618308812E+02  0.61324225295E+01  0.50076647900E+02  0.51100000000E-03 0. -1.
         22    1    1    0    0    0 -0.41989355948E+02 -0.45074808843E+02 -0.98733933835E+01  0.62388527007E+02  0.00000000000E+00 0. -1.
</event>
<event>
 4    1  0.1956390E-002  0.9118800E+02  0.7818608E-02  0.1130116E+00
         25   -1    0    0    0    0  0.00000000000E+00  0.00000000000E+00  0.99999998245E-14  0.12500000000E+03  0.12500000000E+03 0.  0.
        -11    1    1    0    0    0  0.11114942114E+02  0.22616323567E+02 -0.19662116957E+01  0.25276590327E+02  0.51100000000E-03 0. -1.
         11    1    1    0    0    0  0.11573106017E+02  0.35335709104E+02 -0.29189948608E+01  0.37297046157E+02  0.51100000000E-03 0.  1.
         22    1    1    0    0    0 -0.22688048131E+02 -0.57952032671E+02  0.48852065565E+01  0.62426363516E+02  0.00000000000E+00 0.  1.
</event>
<event>
 4    1  0.1956390E-002  0.9118800E+02  0.7818608E-02  0.1130116E+00
         25   -1    0    0    0    0  0.00000000000E+00  0.00000000000E+00  0.99999998245E-14  0.12500000000E+03  0.12500000000E+03 0.  0.
        -11    1    1    0    0    0 -0.13629190431E+02  0.14404699961E+01 -0.33296509788E+01  0.14103771181E+02  0.51100000000E-03 0. -1.
         11    1    1    0    0    0 -0.46080140423E+02  0.62765651462E+01 -0.13421018539E+02  0.48403495228E+02  0.51100000000E-03 0.  1.
         22    1    1    0    0    0  0.59709330854E+02 -0.77170351423E+01  0.16750669518E+02  0.62492733591E+02  0.00000000000E+00 0.  1.
</event>
<event>
 4    1  0.1956390E-002  0.9118800E+02  0.7818608E-02  0.1130116E+00
         25   -1    0    0    0    0  0.00000000000E+00  0.00000000000E+00  0.99999998245E-14  0.12500000000E+03  0.12500000000E+03 0.  0.
        -11    1    1    0    0    0  0.29145969719E+02  0.37824440935E+02 -0.39511900137E+02  0.61978755519E+02  0.51100000000E-03 0. -1.
         11    1    1    0    0    0  0.27375939809E+00 -0.18038542830E+00 -0.57039946432E+00  0.65790494815E+00  0.51100000000E-03 0.  1.
         22    1    1    0    0    0 -0.29419729117E+02 -0.37644055507E+02  0.40082299602E+02  0.62363339533E+02  0.00000000000E+00 0. -1.
</event>
<event>
 4    1  0.1956390E-002  0.9118800E+02  0.7818608E-02  0.1130116E+00
         25   -1    0    0    0    0  0.00000000000E+00  0.00000000000E+00  0.99999998245E-14  0.12500000000E+03  0.12500000000E+03 0.  0.
        -11    1    1    0    0    0 -0.44316683287E+01  0.11868176842E+02 -0.29445081307E+01  0.13006284409E+02  0.51100000000E-03 0. -1.
         11    1    1    0    0    0 -0.16990816539E+02  0.45141452901E+02 -0.11099195803E+02  0.49493744699E+02  0.51100000000E-03 0.  1.
         22    1    1    0    0    0  0.21422484867E+02 -0.57009629743E+02  0.14043703934E+02  0.62499970892E+02  0.00000000000E+00 0.  1.
</event>
<event>
 4    1  0.1956390E-002  0.9118800E+02  0.7818608E-02  0.1130116E+00
         25   -1    0    0    0    0  0.00000000000E+00  0.00000000000E+00  0.99999998245E-14  0.12500000000E+03  0.12500000000E+03 0.  0.
        -11    1    1    0    0    0  0.99826468411E+01  0.74457504335E+01 -0.26321890502E+02  0.29119312446E+02  0.51100000000E-03 0.  1.
         11    1    1    0    0    0  0.11445563560E+02  0.85332887771E+01 -0.30173703137E+02  0.33380687588E+02  0.51100000000E-03 0. -1.
         22    1    1    0    0    0 -0.21428210401E+02 -0.15979039211E+02  0.56495593639E+02  0.62499999966E+02  0.00000000000E+00 0.  1.
</event>
<event>
 4    1  0.1956390E-002  0.9118800E+02  0.7818608E-02  0.1130116E+00
         25   -1    0    0    0    0  0.00000000000E+00  0.00000000000E+00  0.99999998245E-14  0.12500000000E+03  0.12500000000E+03 0.  0.
        -11    1    1    0    0    0  0.40385945376E+01 -0.72124265101E+01 -0.17136879218E+02  0.19026349403E+02  0.51100000000E-03 0. -1.
         11    1    1    0    0    0 -0.98581719996E+01  0.62179925188E+01 -0.43507970797E+02  0.45042097079E+02  0.51100000000E-03 0.  1.
         22    1    1    0    0    0  0.58195774619E+01  0.99443399135E+00  0.60644850015E+02  0.60931553518E+02  0.00000000000E+00 0.  1.
</event>
<event>
 4    1  0.1956390E-002  0.9118800E+02  0.7818608E-02  0.1130116E+00
         25   -1    0    0    0    0  0.00000000000E+00  0.00000000000E+00  0.99999998245E-14  0.12500000000E+03  0.12500000000E+03 0.  0.
        -11    1    1    0    0    0 -0.13808138757E+02 -0.26284862202E+02 -0.49738447623E+01  0.30104780499E+02  0.51100000000E-03 0. -1.
         11    1    1    0    0    0 -0.15254167292E+02 -0.28290546979E+02 -0.41012448904E+01  0.32401618448E+02  0.51100000000E-03 0.  1.
         22    1    1    0    0    0  0.29062306050E+02  0.54575409182E+02  0.90750896528E+01  0.62493601052E+02  0.00000000000E+00 0.  1.
</event>
<event>
 4    1  0.1956390E-002  0.9118800E+02  0.7818608E-02  0.1130116E+00
         25   -1    0    0    0    0  0.00000000000E+00  0.00000000000E+00  0.99999998245E-14  0.12500000000E+03  0.12500000000E+03 0.  0.
        -11    1    1    0    0    0  0.33330177298E+01  0.71901137271E+01 -0.27726601287E+02  0.28836975601E+02  0.51100000000E-03 0. -1.
         11    1    1    0    0    0  0.38940730527E+01  0.83955850716E+01 -0.32365870324E+02  0.33663024459E+02  0.51100000000E-03 0.  1.
         22    1    1    0    0    0 -0.72270907824E+01 -0.15585698799E+02  0.60092471611E+02  0.62499999940E+02  0.00000000000E+00 0. -1.
</event>
<event>
 4    1  0.1956390E-002  0.9118800E+02  0.7818608E-02  0.1130116E+00
         25   -1    0    0    0    0  0.00000000000E+00  0.00000000000E+00  0.99999998245E-14  0.12500000000E+03  0.12500000000E+03 0.  0.
        -11    1    1    0    0    0  0.52128173608E+01  0.25252364180E+00  0.18580470480E+01  0.55398169754E+01  0.51100000000E-03 0. -1.
         11    1    1    0    0    0 -0.60494987772E+02  0.10453681735E+02 -0.11130828230E+02  0.62392454229E+02  0.51100000000E-03 0.  1.
         22    1    1    0    0    0  0.55282170412E+02 -0.10706205377E+02  0.92727811825E+01  0.57067728795E+02  0.00000000000E+00 0.  1.
</event>
<event>
 4    1  0.1956390E-002  0.9118800E+02  0.7818608E-02  0.1130116E+00
         25   -1    0    0    0    0  0.00000000000E+00  0.00000000000E+00  0.99999998245E-14  0.12500000000E+03  0.12500000000E+03 0.  0.
        -11    1    1    0    0    0  0.40136782114E+02  0.11870400730E+02 -0.40948643011E+02  0.58554752639E+02  0.51100000000E-03 0.  1.
         11    1    1    0    0    0  0.27166292621E+01 -0.45089649433E+00 -0.29558974250E+01  0.40398901030E+01  0.51100000000E-03 0. -1.
         22    1    1    0    0    0 -0.42853411376E+02 -0.11419504236E+02  0.43904540436E+02  0.62405357258E+02  0.00000000000E+00 0.  1.
</event>
<event>
 4    1  0.1956390E-002  0.9118800E+02  0.7818608E-02  0.1130116E+00
         25   -1    0    0    0    0  0.00000000000E+00  0.00000000000E+00  0.99999998245E-14  0.12500000000E+03  0.12500000000E+03 0.  0.
        -11    1    1    0    0    0 -0.15880753194E+02 -0.21154477854E+02  0.43093599965E+02  0.50564499538E+02  0.51100000000E-03 0.  1.
         11    1    1    0    0    0 -0.37490198560E+01 -0.49933988266E+01  0.10171872470E+02  0.11935500473E+02  0.51100000000E-03 0. -1.
         22    1    1    0    0    0  0.19629773051E+02  0.26147876680E+02 -0.53265472435E+02  0.62499999989E+02  0.00000000000E+00 0.  1.
</event>
<event>
 4    1  0.1956390E-002  0.9118800E+02  0.7818608E-02  0.1130116E+00
         25   -1    0    0    0    0  0.00000000000E+00  0.00000000000E+00  0.99999998245E-14  0.12500000000E+03  0.12500000000E+03 0.  0.
        -11    1    1    0    0    0 -0.19466492645E+02  0.15190849554E+02 -0.94873797311E+01  0.26452157199E+02  0.51100000000E-03 0. -1.
         11    1    1    0    0    0 -0.26519694183E+02  0.20714644778E+02 -0.12925027581E+02  0.36047843571E+02  0.51100000000E-03 0.  1.
         22    1    1    0    0    0  0.45986186828E+02 -0.35905494332E+02  0.22412407312E+02  0.62499999230E+02  0.00000000000E+00 0.  1.
</event>
<event>
 4    1  0.1956390E-002  0.9118800E+02  0.7818608E-02  0.1130116E+00
         25   -1    0    0    0    0  0.00000000000E+00  0.00000000000E+00  0.99999998245E-14  0.12500000000E+03  0.12500000000E+03 0.  0.
        -11    1    1    0    0    0 -0.98655839066E+01 -0.61921902114E+01  0.91950489025E+01  0.14839875000E+02  0.51100000000E-03 0.  1.
         11    1    1    0    0    0 -0.31294850680E+02 -0.20156608923E+02  0.29763467976E+02  0.47660471972E+02  0.51100000000E-03 0. -1.
         22    1    1    0    0    0  0.41160434587E+02  0.26348799134E+02 -0.38958516879E+02  0.62499653028E+02  0.00000000000E+00 0. -1.
</event>
<event>
 4    1  0.1956390E-002  0.9118800E+02  0.7818608E-02  0.1130116E+00
         25   -1    0    0    0    0  0.00000000000E+00  0.00000000000E+00  0.99999998245E-14  0.12500000000E+03  0.12500000000E+03 0.  0.
        -11    1    1    0    0    0  0.47894929299E+01  0.91179259367E+01 -0.42539593429E+00  0.10308092834E+02  0.51100000000E-03 0. -1.
         11    1    1    0    0    0  0.24132252388E+02  0.46225007843E+02 -0.22090506141E+01  0.52191923324E+02  0.51100000000E-03 0.  1.
         22    1    1    0    0    0 -0.28921745318E+02 -0.55342933780E+02  0.26344465484E+01  0.62499983842E+02  0.00000000000E+00 0. -1.
</event>
<event>
 4    1  0.1956390E-002  0.9118800E+02  0.7818608E-02  0.1130116E+00
         25   -1    0    0    0    0  0.00000000000E+00  0.00000000000E+00  0.99999998245E-14  0.12500000000E+03  0.12500000000E+03 0.  0.
        -11    1    1    0    0    0  0.44753656557E+02 -0.39452004840E+02 -0.66316927177E+01  0.60027742001E+02  0.51100000000E-03 0.  1.
         11    1    1    0    0    0  0.18825551209E+01 -0.15250157291E+01 -0.52842172448E+00  0.24797008968E+01  0.51100000000E-03 0. -1.
         22    1    1    0    0    0 -0.46636211678E+02  0.40977020569E+02  0.71601144421E+01  0.62492557103E+02  0.00000000000E+00 0.  1.
</event>
<event>
 4    1  0.1956390E-002  0.9118800E+02  0.7818608E-02  0.1130116E+00
         25   -1    0    0    0    0  0.00000000000E+00  0.00000000000E+00  0.99999998245E-14  0.12500000000E+03  0.12500000000E+03 0.  0.
        -11    1    1    0    0    0  0.16594249213E+01 -0.78708402872E+01 -0.99693497555E+01  0.12809830315E+02  0.51100000000E-03 0.  1.
         11    1    1    0    0    0  0.65261448472E+01 -0.31049781607E+02 -0.38242393922E+02  0.49690644970E+02  0.51100000000E-03 0. -1.
         22    1    1    0    0    0 -0.81855697685E+01  0.38920621894E+02  0.48211743678E+02  0.62499524714E+02  0.00000000000E+00 0. -1.
</event>
<event>
 4    1  0.1956390E-002  0.9118800E+02  0.7818608E-02  0.1130116E+00
         25   -1    0    0    0    0  0.00000000000E+00  0.00000000000E+00  0.99999998245E-14  0.12500000000E+03  0.12500000000E+03 0.  0.
        -11    1    1    0    0    0 -0.63538937077E+01  0.41092341189E+02 -0.33218217573E+02  0.53220319884E+02  0.51100000000E-03 0.  1.
         11    1    1    0    0    0 -0.11181603372E+01  0.71663427785E+01 -0.57884162673E+01  0.92796828880E+01  0.51100000000E-03 0. -1.
         22    1    1    0    0    0  0.74720540449E+01 -0.48258683967E+02  0.39006633840E+02  0.62499997228E+02  0.00000000000E+00 0.  1.
</event>
<event>
 4    1  0.1956390E-002  0.9118800E+02  0.7818608E-02  0.1130116E+00
         25   -1    0    0    0    0  0.00000000000E+00  0.00000000000E+00  0.99999998245E-14  0.12500000000E+03  0.12500000000E+03 0.  0.
        -11    1    1    0    0    0 -0.34937199671E+02 -0.16307506726E+01  0.67218672454E+01  0.35615316483E+02  0.51100000000E-03 0.  1.
         11    1    1    0    0    0 -0.26372590860E+02 -0.12322947301E+01  0.50748506850E+01  0.26884683534E+02  0.51100000000E-03 0.  1.
         22    1    1    0    0    0  0.61309790532E+02  0.28630454027E+01 -0.11796717930E+02  0.62499999983E+02  0.00000000000E+00 0.  1.
</event>
<event>
 4    1  0.1956390E-002  0.9118800E+02  0.7818608E-02  0.1130116E+00
         25   -1    0    0    0    0  0.00000000000E+00  0.00000000000E+00  0.99999998245E-14  0.12500000000E+03  0.12500000000E+03 0.  0.
        -11    1    1    0    0    0  0.32184732361E+01 -0.72552258221E+00  0.49377715862E+01  0.59385639246E+01  0.51100000000E-03 0.  1.
         11    1    1    0    0    0  0.30683890542E+02 -0.67170058668E+01  0.47038054424E+02  0.56561452164E+02  0.51100000000E-03 0. -1.
         22    1    1    0    0    0 -0.33902363778E+02  0.74425284490E+01 -0.51975826010E+02  0.62499983911E+02  0.00000000000E+00 0. -1.
</event>
<event>
 4    1  0.1956390E-002  0.9118800E+02  0.7818608E-02  0.1130116E+00
         25   -1    0    0    0    0  0.00000000000E+00  0.00000000000E+00  0.99999998245E-14  0.12500000000E+03  0.12500000000E+03 0.  0.
        -11    1    1    0    0    0  0.13240443023E+02 -0.11229168087E+02 -0.14297355255E+01  0.17419750036E+02  0.51100000000E-03 0. -1.
         11    1    1    0    0    0  0.18670400281E+02 -0.41398555236E+02 -0.50485724901E+01  0.45693679068E+02  0.51100000000E-03 0.  1.
         22    1    1    0    0    0 -0.31910843305E+02  0.52627723323E+02  0.64783080155E+01  0.61886570896E+02  0.00000000000E+00 0.  1.
</event>
<event>
 4    1  0.1956390E-002  0.9118800E+02  0.7818608E-02  0.1130116E+00
         25   -1    0    0    0    0  0.00000000000E+00  0.00000000000E+00  0.99999998245E-14  0.12500000000E+03  0.12500000000E+03 0.  0.
        -11    1    1    0    0    0 -0.10393316399E+02 -0.98441112577E+01 -0.59818463308E+00  0.14327783407E+02  0.51100000000E-03 0. -1.
         11    1    1    0    0    0 -0.34869636586E+02 -0.33173657906E+02 -0.20446869745E+01  0.48172231416E+02  0.51100000000E-03 0.  1.
         22    1    1    0    0    0  0.45262952986E+02  0.43017769164E+02  0.26428716076E+01  0.62499985177E+02  0.00000000000E+00 0.  1.
</event>
<event>
 4    1  0.1956390E-002  0.9118800E+02  0.7818608E-02  0.1130116E+00
         25   -1    0    0    0    0  0.00000000000E+00  0.00000000000E+00  0.99999998245E-14  0.12500000000E+03  0.12500000000E+03 0.  0.
        -11    1    1    0    0    0 -0.33364963038E+02  0.26902750043E+01  0.31632765997E+02  0.46055295277E+02  0.51100000000E-03 0.  1.
         11    1    1    0    0    0 -0.11425258592E+02  0.27115301797E+01  0.11566539117E+02  0.16482528847E+02  0.51100000000E-03 0. -1.
         22    1    1    0    0    0  0.44790221630E+02 -0.54018051841E+01 -0.43199305113E+02  0.62462175876E+02  0.00000000000E+00 0.  1.
</event>
<event>
 4    1  0.1956390E-002  0.9118800E+02  0.7818608E-02  0.1130116E+00
         25   -1    0    0    0    0  0.00000000000E+00  0.00000000000E+00  0.99999998245E-14  0.12500000000E+03  0.12500000000E+03 0.  0.
        -11    1    1    0    0    0 -0.70509267520E+00  0.80140708305E+00 -0.37367971875E+01  0.38862658781E+01  0.51100000000E-03 0.  1.
         11    1    1    0    0    0 -0.95054404437E+01  0.12448192052E+02 -0.56482768173E+02  0.58614110794E+02  0.51100000000E-03 0. -1.
         22    1    1    0    0    0  0.10210533119E+02 -0.13249599135E+02  0.60219565361E+02  0.62499623328E+02  0.00000000000E+00 0. -1.
</event>
<event>
 4    1  0.1956390E-002  0.9118800E+02  0.7818608E-02  0.1130116E+00
         25   -1    0    0    0    0  0.00000000000E+00  0.00000000000E+00  0.99999998245E-14  0.12500000000E+03  0.12500000000E+03 0.  0.
        -11    1    1    0    0    0  0.61267663697E+02  0.78832240728E+01  0.20576289160E+01  0.61807003436E+02  0.51100000000E-03 0.  1.
         11    1    1    0    0    0  0.68775433751E+00  0.81992601524E-01  0.23148335877E-01  0.69301148767E+00  0.51100000000E-03 0. -1.
         22    1    1    0    0    0 -0.61955418035E+02 -0.79652166744E+01 -0.20807772518E+01  0.62499985076E+02  0.00000000000E+00 0.  1.
</event>
<event>
 4    1  0.1956390E-002  0.9118800E+02  0.7818608E-02  0.1130116E+00
         25   -1    0    0    0    0  0.00000000000E+00  0.00000000000E+00  0.99999998245E-14  0.12500000000E+03  0.12500000000E+03 0.  0.
        -11    1    1    0    0    0  0.26016235258E+02  0.10681519598E+02 -0.29346695482E+02  0.40646868193E+02  0.51100000000E-03 0.  1.
         11    1    1    0    0    0  0.14078899585E+02  0.58197996669E+01 -0.15667880511E+02  0.21853328388E+02  0.51100000000E-03 0. -1.
         22    1    1    0    0    0 -0.40095134844E+02 -0.16501319265E+02  0.45014575992E+02  0.62499803419E+02  0.00000000000E+00 0.  1.
</event>
<event>
 4    1  0.1956390E-002  0.9118800E+02  0.7818608E-02  0.1130116E+00
         25   -1    0    0    0    0  0.00000000000E+00  0.00000000000E+00  0.99999998245E-14  0.12500000000E+03  0.12500000000E+03 0.  0.
        -11    1    1    0    0    0 -0.26771855886E+02 -0.39504955628E+02 -0.36437740465E+01  0.47860744628E+02  0.51100000000E-03 0.  1.
         11    1    1    0    0    0 -0.32890558560E+01 -0.14550108836E+02 -0.19095664101E+01  0.15038949421E+02  0.51100000000E-03 0. -1.
         22    1    1    0    0    0  0.30060911742E+02  0.54055064464E+02  0.55533404566E+01  0.62100305951E+02  0.00000000000E+00 0.  1.
</event>
<event>
 4    1  0.1956390E-002  0.9118800E+02  0.7818608E-02  0.1130116E+00
         25   -1    0    0    0    0  0.00000000000E+00  0.00000000000E+00  0.99999998245E-14  0.12500000000E+03  0.12500000000E+03 0.  0.
        -11    1    1    0    0    0 -0.39700209394E+01  0.12376865353E+02  0.59636799302E+01  0.14300816088E+02  0.51100000000E-03 0.  1.
         11    1    1    0    0    0 -0.13449793877E+02  0.41765511037E+02  0.19947680488E+02  0.48199220167E+02  0.51100000000E-03 0. -1.
         22    1    1    0    0    0  0.17419814817E+02 -0.54142376390E+02 -0.25911360419E+02  0.62499963745E+02  0.00000000000E+00 0.  1.
</event>
<event>
 4    1  0.1956390E-002  0.9118800E+02  0.7818608E-02  0.1130116E+00
         25   -1    0    0    0    0  0.00000000000E+00  0.00000000000E+00  0.99999998245E-14  0.12500000000E+03  0.12500000000E+03 0.  0.
        -11    1    1    0    0    0 -0.25782703306E+02  0.32852249897E+02  0.35653686930E+02  0.54910868733E+02  0.51100000000E-03 0.  1.
         11    1    1    0    0    0 -0.40878242100E+01  0.44284639040E+01  0.46301811979E+01  0.76000116781E+01  0.51100000000E-03 0. -1.
         22    1    1    0    0    0  0.29870527516E+02 -0.37280713801E+02 -0.40283868128E+02  0.62489119589E+02  0.00000000000E+00 0.  1.
</event>
<event>
 4    1  0.1956390E-002  0.9118800E+02  0.7818608E-02  0.1130116E+00
         25   -1    0    0    0    0  0.00000000000E+00  0.00000000000E+00  0.99999998245E-14  0.12500000000E+03  0.12500000000E+03 0.  0.
        -11    1    1    0    0    0 -0.15894835299E+02 -0.46000013369E+02  0.12105968222E+02  0.50151784475E+02  0.51100000000E-03 0.  1.
         11    1    1    0    0    0 -0.15783407016E+00 -0.10028939974E+02  0.83793516447E+01  0.13069739203E+02  0.51100000000E-03 0. -1.
         22    1    1    0    0    0  0.16052669369E+02  0.56028953343E+02 -0.20485319867E+02  0.61778476322E+02  0.00000000000E+00 0.  1.
</event>
<event>
 4    1  0.1956390E-002  0.9118800E+02  0.7818608E-02  0.1130116E+00
         25   -1    0    0    0    0  0.00000000000E+00  0.00000000000E+00  0.99999998245E-14  0.12500000000E+03  0.12500000000E+03 0.  0.
        -11    1    1    0    0    0 -0.48099958849E+01  0.40768134366E+01 -0.49448006704E+00  0.63246327172E+01  0.51100000000E-03 0.  1.
         11    1    1    0    0    0 -0.31826972390E+02  0.42391876835E+02 -0.19093095235E+02  0.56343355234E+02  0.51100000000E-03 0. -1.
         22    1    1    0    0    0  0.36636968275E+02 -0.46468690271E+02  0.19587575302E+02  0.62332012049E+02  0.00000000000E+00 0. -1.
</event>
<event>
 4    1  0.1956390E-002  0.9118800E+02  0.7818608E-02  0.1130116E+00
         25   -1    0    0    0    0  0.00000000000E+00  0.00000000000E+00  0.99999998245E-14  0.12500000000E+03  0.12500000000E+03 0.  0.
        -11    1    1    0    0    0  0.51579671622E+01  0.82703537186E+01 -0.46741435830E+01  0.10809763844E+02  0.51100000000E-03 0.  1.
         11    1    1    0    0    0  0.24706227926E+02  0.39517662781E+02 -0.22357043063E+02  0.51690238390E+02  0.51100000000E-03 0. -1.
         22    1    1    0    0    0 -0.29864195088E+02 -0.47788016500E+02  0.27031186646E+02  0.62499997766E+02  0.00000000000E+00 0. -1.
</event>
<event>
 4    1  0.1956390E-002  0.9118800E+02  0.7818608E-02  0.1130116E+00
         25   -1    0    0    0    0  0.00000000000E+00  0.00000000000E+00  0.99999998245E-14  0.12500000000E+03  0.12500000000E+03 0.  0.
        -11    1    1    0    0    0  0.13012494574E+02  0.78778629442E+01 -0.28692528554E+01  0.15479610842E+02  0.51100000000E-03 0. -1.
         11    1    1    0    0    0  0.39531481729E+02  0.23922206465E+02 -0.87124622330E+01  0.47020389282E+02  0.51100000000E-03 0. -1.
         22    1    1    0    0    0 -0.52543976303E+02 -0.31800069409E+02  0.11581715088E+02  0.62499999876E+02  0.00000000000E+00 0. -1.
</event>
<event>
 4    1  0.1956390E-002  0.9118800E+02  0.7818608E-02  0.1130116E+00
         25   -1    0    0    0    0  0.00000000000E+00  0.00000000000E+00  0.99999998245E-14  0.12500000000E+03  0.12500000000E+03 0.  0.
        -11    1    1    0    0    0 -0.36174797846E+02 -0.69542741502E+01  0.26426831024E+02  0.45336026804E+02  0.51100000000E-03 0.  1.
         11    1    1    0    0    0 -0.13695346474E+02 -0.26323142733E+01  0.10005517604E+02  0.17163973207E+02  0.51100000000E-03 0.  1.
         22    1    1    0    0    0  0.49870144319E+02  0.95865884235E+01 -0.36432348628E+02  0.62499999989E+02  0.00000000000E+00 0.  1.
</event>
<event>
 4    1  0.1956390E-002  0.9118800E+02  0.7818608E-02  0.1130116E+00
         25   -1    0    0    0    0  0.00000000000E+00  0.00000000000E+00  0.99999998245E-14  0.12500000000E+03  0.12500000000E+03 0.  0.
        -11    1    1    0    0    0 -0.21709176792E+02  0.81642810998E+01 -0.16877016080E+02  0.28684098642E+02  0.51100000000E-03 0.  1.
         11    1    1    0    0    0 -0.25589565713E+02  0.96346180816E+01 -0.19896318004E+02  0.33815901723E+02  0.51100000000E-03 0. -1.
         22    1    1    0    0    0  0.47298742505E+02 -0.17798899181E+02  0.36773334085E+02  0.62499999635E+02  0.00000000000E+00 0. -1.
</event>
<event>
 4    1  0.1956390E-002  0.9118800E+02  0.7818608E-02  0.1130116E+00
         25   -1    0    0    0    0  0.00000000000E+00  0.00000000000E+00  0.99999998245E-14  0.12500000000E+03  0.12500000000E+03 0.  0.
        -11    1    1    0    0    0  0.39553910019E+02 -0.18349811983E+02  0.34569603368E+02  0.55644270818E+02  0.51100000000E-03 0.  1.
         11    1    1    0    0    0 -0.12552563960E+01  0.31128428572E+01  0.88634494752E+01  0.94776682857E+01  0.51100000000E-03 0. -1.
         22    1    1    0    0    0 -0.38298653623E+02  0.15236969125E+02 -0.43433052843E+02  0.59878060896E+02  0.00000000000E+00 0.  1.
</event>
<event>
 4    1  0.1956390E-002  0.9118800E+02  0.7818608E-02  0.1130116E+00
         25   -1    0    0    0    0  0.00000000000E+00  0.00000000000E+00  0.99999998245E-14  0.12500000000E+03  0.12500000000E+03 0.  0.
        -11    1    1    0    0    0  0.83176124979E-01  0.48529892469E+00 -0.40540105487E+00  0.63779588465E+00  0.51100000000E-03 0.  1.
         11    1    1    0    0    0  0.81276834469E+01  0.46992015039E+02 -0.39403346044E+02  0.61862204902E+02  0.51100000000E-03 0. -1.
         22    1    1    0    0    0 -0.82108595719E+01 -0.47477313964E+02  0.39808747099E+02  0.62499999213E+02  0.00000000000E+00 0. -1.
</event>
<event>
 4    1  0.1956390E-002  0.9118800E+02  0.7818608E-02  0.1130116E+00
         25   -1    0    0    0    0  0.00000000000E+00  0.00000000000E+00  0.99999998245E-14  0.12500000000E+03  0.12500000000E+03 0.  0.
        -11    1    1    0    0    0  0.11258202014E+01 -0.13818356632E+02  0.41346677352E+02  0.43609198335E+02  0.51100000000E-03 0.  1.
         11    1    1    0    0    0  0.48779780038E+00 -0.59865315447E+01  0.17910496392E+02  0.18890801674E+02  0.51100000000E-03 0.  1.
         22    1    1    0    0    0 -0.16136180018E+01  0.19804888177E+02 -0.59257173744E+02  0.62499999991E+02  0.00000000000E+00 0.  1.
</event>
<event>
 4    1  0.1956390E-002  0.9118800E+02  0.7818608E-02  0.1130116E+00
         25   -1    0    0    0    0  0.00000000000E+00  0.00000000000E+00  0.99999998245E-14  0.12500000000E+03  0.12500000000E+03 0.  0.
        -11    1    1    0    0    0 -0.39720046200E+01  0.26652196746E+01 -0.96783911696E+00  0.48802591563E+01  0.51100000000E-03 0. -1.
         11    1    1    0    0    0 -0.47157716696E+02  0.30956399605E+02 -0.11743184609E+02  0.57619886372E+02  0.51100000000E-03 0.  1.
         22    1    1    0    0    0  0.51129721316E+02 -0.33621619280E+02  0.12711023726E+02  0.62499854472E+02  0.00000000000E+00 0.  1.
</event>
<event>
 4    1  0.1956390E-002  0.9118800E+02  0.7818608E-02  0.1130116E+00
         25   -1    0    0    0    0  0.00000000000E+00  0.00000000000E+00  0.99999998245E-14  0.12500000000E+03  0.12500000000E+03 0.  0.
        -11    1    1    0    0    0 -0.51821650351E+02 -0.20038439838E+01  0.20415178036E+01  0.51900545575E+02  0.51100000000E-03 0. -1.
         11    1    1    0    0    0 -0.10578574063E+02 -0.26692379984E+00  0.63122316115E+00  0.10600750938E+02  0.51100000000E-03 0.  1.
         22    1    1    0    0    0  0.62400224414E+02  0.22707677837E+01 -0.26727409647E+01  0.62498703486E+02  0.00000000000E+00 0. -1.
</event>
<event>
 4    1  0.1956390E-002  0.9118800E+02  0.7818608E-02  0.1130116E+00
         25   -1    0    0    0    0  0.00000000000E+00  0.00000000000E+00  0.99999998245E-14  0.12500000000E+03  0.12500000000E+03 0.  0.
        -11    1    1    0    0    0 -0.48110811676E+02  0.24144862933E+02  0.17798837855E+02  0.56695883761E+02  0.51100000000E-03 0. -1.
         11    1    1    0    0    0 -0.49023028087E+01  0.25116424128E+01  0.18297077137E+01  0.58042011523E+01  0.51100000000E-03 0.  1.
         22    1    1    0    0    0  0.53013114485E+02 -0.26656505346E+02 -0.19628545569E+02  0.62499915086E+02  0.00000000000E+00 0. -1.
</event>
<event>
 4    1  0.1956390E-002  0.9118800E+02  0.7818608E-02  0.1130116E+00
         25   -1    0    0    0    0  0.00000000000E+00  0.00000000000E+00  0.99999998245E-14  0.12500000000E+03  0.12500000000E+03 0.  0.
        -11    1    1    0    0    0 -0.49510061962E+00 -0.18815433979E+00  0.56410714154E-01  0.53264351017E+00  0.51100000000E-03 0.  1.
         11    1    1    0    0    0 -0.47525587968E+02 -0.39727782129E+02 -0.22572569384E+01  0.61984460905E+02  0.51100000000E-03 0. -1.
         22    1    1    0    0    0  0.48020688587E+02  0.39915936469E+02  0.22008462243E+01  0.62482895585E+02  0.00000000000E+00 0. -1.
</event>
<event>
 4    1  0.1956390E-002  0.9118800E+02  0.7818608E-02  0.1130116E+00
         25   -1    0    0    0    0  0.00000000000E+00  0.00000000000E+00  0.99999998245E-14  0.12500000000E+03  0.12500000000E+03 0.  0.
        -11    1    1    0    0    0 -0.66685164498E+01 -0.14456257092E+02 -0.12793995779E+02  0.20423976327E+02  0.51100000000E-03 0. -1.
         11    1    1    0    0    0 -0.13821194130E+02 -0.29789617594E+02 -0.26304878526E+02  0.42076042567E+02  0.51100000000E-03 0.  1.
         22    1    1    0    0    0  0.20489710580E+02  0.44245874685E+02  0.39098874305E+02  0.62499981106E+02  0.00000000000E+00 0.  1.
</event>
<event>
 4    1  0.1956390E-002  0.9118800E+02  0.7818608E-02  0.1130116E+00
         25   -1    0    0    0    0  0.00000000000E+00  0.00000000000E+00  0.99999998245E-14  0.12500000000E+03  0.12500000000E+03 0.  0.
        -11    1    1    0    0    0 -0.41229459300E+02  0.36413449762E+02 -0.19031627784E+02  0.58206618989E+02  0.51100000000E-03 0. -1.
         11    1    1    0    0    0 -0.30555077228E+01  0.25883484242E+01 -0.15531792221E+01  0.42951182715E+01  0.51100000000E-03 0.  1.
         22    1    1    0    0    0  0.44284967023E+02 -0.39001798186E+02  0.20584807006E+02  0.62498262740E+02  0.00000000000E+00 0. -1.
</event>
<event>
 4    1  0.1956390E-002  0.9118800E+02  0.7818608E-02  0.1130116E+00
         25   -1    0    0    0    0  0.00000000000E+00  0.00000000000E+00  0.99999998245E-14  0.12500000000E+03  0.12500000000E+03 0.  0.
        -11    1    1    0    0    0  0.35571528205E+01  0.27700253256E+02 -0.13920003835E+01  0.27962386021E+02  0.51100000000E-03 0. -1.
         11    1    1    0    0    0  0.43942271166E+01  0.34213728644E+02 -0.17199767221E+01  0.34537613986E+02  0.51100000000E-03 0.  1.
         22    1    1    0    0    0 -0.79513799370E+01 -0.61913981900E+02  0.31119771056E+01  0.62499999993E+02  0.00000000000E+00 0. -1.
</event>
<event>
 4    1  0.1956390E-002  0.9118800E+02  0.7818608E-02  0.1130116E+00
         25   -1    0    0    0    0  0.00000000000E+00  0.00000000000E+00  0.99999998245E-14  0.12500000000E+03  0.12500000000E+03 0.  0.
        -11    1    1    0    0    0 -0.29340560994E+02 -0.38979999990E+01  0.48538031825E+02  0.56850712020E+02  0.51100000000E-03 0. -1.
         11    1    1    0    0    0 -0.29241408319E+01 -0.37806346465E+00  0.48188177369E+01  0.56492951977E+01  0.51100000000E-03 0.  1.
         22    1    1    0    0    0  0.32264701826E+02  0.42760634637E+01 -0.53356849562E+02  0.62499992783E+02  0.00000000000E+00 0. -1.
</event>
<event>
 4    1  0.1956390E-002  0.9118800E+02  0.7818608E-02  0.1130116E+00
         25   -1    0    0    0    0  0.00000000000E+00  0.00000000000E+00  0.99999998245E-14  0.12500000000E+03  0.12500000000E+03 0.  0.
        -11    1    1    0    0    0  0.50768226586E+01  0.12204860001E+02 -0.90210255756E+00  0.13249397165E+02  0.51100000000E-03 0. -1.
         11    1    1    0    0    0  0.18868038261E+02  0.45369084965E+02 -0.33563587456E+01  0.49250602866E+02  0.51100000000E-03 0.  1.
         22    1    1    0    0    0 -0.23944860919E+02 -0.57573944966E+02  0.42584613032E+01  0.62499999969E+02  0.00000000000E+00 0.  1.
</event>
<event>
 4    1  0.1956390E-002  0.9118800E+02  0.7818608E-02  0.1130116E+00
         25   -1    0    0    0    0  0.00000000000E+00  0.00000000000E+00  0.99999998245E-14  0.12500000000E+03  0.12500000000E+03 0.  0.
        -11    1    1    0    0    0  0.60868581223E+01 -0.13869641613E+02  0.29159435372E+02  0.32858628573E+02  0.51100000000E-03 0. -1.
         11    1    1    0    0    0  0.54924988255E+01 -0.12516332874E+02  0.26301801769E+02  0.29641371569E+02  0.51100000000E-03 0.  1.
         22    1    1    0    0    0 -0.11579356948E+02  0.26385974487E+02 -0.55461237141E+02  0.62499999857E+02  0.00000000000E+00 0. -1.
</event>
<event>
 4    1  0.1956390E-002  0.9118800E+02  0.7818608E-02  0.1130116E+00
         25   -1    0    0    0    0  0.00000000000E+00  0.00000000000E+00  0.99999998245E-14  0.12500000000E+03  0.12500000000E+03 0.  0.
        -11    1    1    0    0    0  0.16351067362E+01 -0.19991275658E+02  0.16398895690E+02  0.25908463030E+02  0.51100000000E-03 0.  1.
         11    1    1    0    0    0  0.56456710325E+01 -0.28872807578E+02  0.21821830482E+02  0.36629290256E+02  0.51100000000E-03 0. -1.
         22    1    1    0    0    0 -0.72807777687E+01  0.48864083236E+02 -0.38220726171E+02  0.62462246714E+02  0.00000000000E+00 0. -1.
</event>
<event>
 4    1  0.1956390E-002  0.9118800E+02  0.7818608E-02  0.1130116E+00
         25   -1    0    0    0    0  0.00000000000E+00  0.00000000000E+00  0.99999998245E-14  0.12500000000E+03  0.12500000000E+03 0.  0.
        -11    1    1    0    0    0  0.18833173370E+02  0.18754397766E+02 -0.12486412523E+02  0.29365393795E+02  0.51100000000E-03 0. -1.
         11    1    1    0    0    0  0.13158046049E+02  0.28552768829E+02 -0.11794621009E+02  0.33578383950E+02  0.51100000000E-03 0.  1.
         22    1    1    0    0    0 -0.31991219420E+02 -0.47307166596E+02  0.24281033532E+02  0.62056222256E+02  0.00000000000E+00 0. -1.
</event>
<event>
 4    1  0.1956390E-002  0.9118800E+02  0.7818608E-02  0.1130116E+00
         25   -1    0    0    0    0  0.00000000000E+00  0.00000000000E+00  0.99999998245E-14  0.12500000000E+03  0.12500000000E+03 0.  0.
        -11    1    1    0    0    0  0.26873289599E+01 -0.35729404551E+01 -0.37972545105E+01  0.58657294954E+01  0.51100000000E-03 0.  1.
         11    1    1    0    0    0  0.25759239313E+02 -0.33718367864E+02 -0.37510500819E+02  0.56634833922E+02  0.51100000000E-03 0. -1.
         22    1    1    0    0    0 -0.28446568273E+02  0.37291308319E+02  0.41307755330E+02  0.62499436582E+02  0.00000000000E+00 0. -1.
</event>
<event>
 4    1  0.1956390E-002  0.9118800E+02  0.7818608E-02  0.1130116E+00
         25   -1    0    0    0    0  0.00000000000E+00  0.00000000000E+00  0.99999998245E-14  0.12500000000E+03  0.12500000000E+03 0.  0.
        -11    1    1    0    0    0 -0.11557953479E+02  0.92884579048E+01 -0.11573928725E+02  0.18810038949E+02  0.51100000000E-03 0. -1.
         11    1    1    0    0    0 -0.26859958983E+02  0.21589945125E+02 -0.26855720943E+02  0.43689963089E+02  0.51100000000E-03 0.  1.
         22    1    1    0    0    0  0.38417912462E+02 -0.30878403030E+02  0.38429649668E+02  0.62499997962E+02  0.00000000000E+00 0.  1.
</event>
<event>
 4    1  0.1956390E-002  0.9118800E+02  0.7818608E-02  0.1130116E+00
         25   -1    0    0    0    0  0.00000000000E+00  0.00000000000E+00  0.99999998245E-14  0.12500000000E+03  0.12500000000E+03 0.  0.
        -11    1    1    0    0    0  0.49346656038E+01  0.28217749444E+01 -0.80516167335E+01  0.98560575659E+01  0.51100000000E-03 0.  1.
         11    1    1    0    0    0 -0.51215688275E+02  0.67902902253E+01  0.33387677571E+02  0.61513346362E+02  0.51100000000E-03 0. -1.
         22    1    1    0    0    0  0.46281022671E+02 -0.96120651697E+01 -0.25336060837E+02  0.53630596072E+02  0.00000000000E+00 0. -1.
</event>
<event>
 4    1  0.1956390E-002  0.9118800E+02  0.7818608E-02  0.1130116E+00
         25   -1    0    0    0    0  0.00000000000E+00  0.00000000000E+00  0.99999998245E-14  0.12500000000E+03  0.12500000000E+03 0.  0.
        -11    1    1    0    0    0 -0.31013271581E+01 -0.42661982317E+02  0.24961057428E+02  0.49524916493E+02  0.51100000000E-03 0.  1.
         11    1    1    0    0    0 -0.81259712188E+00 -0.11176985630E+02  0.65396842487E+01  0.12975083514E+02  0.51100000000E-03 0.  1.
         22    1    1    0    0    0  0.39139242800E+01  0.53838967948E+02 -0.31500741677E+02  0.62499999993E+02  0.00000000000E+00 0.  1.
</event>
<event>
 4    1  0.1956390E-002  0.9118800E+02  0.7818608E-02  0.1130116E+00
         25   -1    0    0    0    0  0.00000000000E+00  0.00000000000E+00  0.99999998245E-14  0.12500000000E+03  0.12500000000E+03 0.  0.
        -11    1    1    0    0    0 -0.47484109830E+02 -0.23853004209E+02 -0.16238382781E+02  0.55564301235E+02  0.51100000000E-03 0. -1.
         11    1    1    0    0    0 -0.62036660509E+01  0.10211998814E+01 -0.42643997285E+01  0.75969353673E+01  0.51100000000E-03 0.  1.
         22    1    1    0    0    0  0.53687775881E+02  0.22831804328E+02  0.20502782510E+02  0.61838763398E+02  0.00000000000E+00 0. -1.
</event>
<event>
 4    1  0.1956390E-002  0.9118800E+02  0.7818608E-02  0.1130116E+00
         25   -1    0    0    0    0  0.00000000000E+00  0.00000000000E+00  0.99999998245E-14  0.12500000000E+03  0.12500000000E+03 0.  0.
        -11    1    1    0    0    0 -0.21712441574E+01  0.54556926293E+00 -0.19381750809E+01  0.29611602316E+01  0.51100000000E-03 0.  1.
         11    1    1    0    0    0 -0.43668456863E+02  0.10870062788E+02 -0.38984372464E+02  0.59538841830E+02  0.51100000000E-03 0. -1.
         22    1    1    0    0    0  0.45839701020E+02 -0.11415632051E+02  0.40922547545E+02  0.62499997938E+02  0.00000000000E+00 0. -1.
</event>
<event>
 4    1  0.1956390E-002  0.9118800E+02  0.7818608E-02  0.1130116E+00
         25   -1    0    0    0    0  0.00000000000E+00  0.00000000000E+00  0.99999998245E-14  0.12500000000E+03  0.12500000000E+03 0.  0.
        -11    1    1    0    0    0  0.54589290896E+01  0.21409656856E+02 -0.48607178816E+02  0.53393175090E+02  0.51100000000E-03 0.  1.
         11    1    1    0    0    0  0.10981588656E+01  0.35299559699E+01 -0.83238478878E+01  0.91078529832E+01  0.51100000000E-03 0. -1.
         22    1    1    0    0    0 -0.65570879552E+01 -0.24939612825E+02  0.56931026704E+02  0.62498971927E+02  0.00000000000E+00 0.  1.
</event>
<event>
 4    1  0.1956390E-002  0.9118800E+02  0.7818608E-02  0.1130116E+00
         25   -1    0    0    0    0  0.00000000000E+00  0.00000000000E+00  0.99999998245E-14  0.12500000000E+03  0.12500000000E+03 0.  0.
        -11    1    1    0    0    0  0.67537941085E+01 -0.16309156144E+02  0.67381455233E+01  0.18894573675E+02  0.51100000000E-03 0. -1.
         11    1    1    0    0    0  0.15588391835E+02 -0.37637686692E+02  0.15551198872E+02  0.43605426339E+02  0.51100000000E-03 0.  1.
         22    1    1    0    0    0 -0.22342185944E+02  0.53946842836E+02 -0.22289344395E+02  0.62499999987E+02  0.00000000000E+00 0.  1.
</event>
<event>
 4    1  0.1956390E-002  0.9118800E+02  0.7818608E-02  0.1130116E+00
         25   -1    0    0    0    0  0.00000000000E+00  0.00000000000E+00  0.99999998245E-14  0.12500000000E+03  0.12500000000E+03 0.  0.
        -11    1    1    0    0    0  0.25673985181E+00  0.25554140126E+02 -0.44031258434E+02  0.50910035479E+02  0.51100000000E-03 0. -1.
         11    1    1    0    0    0  0.61918699906E-01  0.58202294104E+01 -0.10022394027E+02  0.11589964909E+02  0.51100000000E-03 0.  1.
         22    1    1    0    0    0 -0.31865855171E+00 -0.31374369536E+02  0.54053652461E+02  0.62499999611E+02  0.00000000000E+00 0. -1.
</event>
<event>
 4    1  0.1956390E-002  0.9118800E+02  0.7818608E-02  0.1130116E+00
         25   -1    0    0    0    0  0.00000000000E+00  0.00000000000E+00  0.99999998245E-14  0.12500000000E+03  0.12500000000E+03 0.  0.
        -11    1    1    0    0    0 -0.20463119878E+02  0.19488487347E+02  0.71448868848E+01  0.29147724149E+02  0.51100000000E-03 0. -1.
         11    1    1    0    0    0 -0.22517286899E+02  0.23251782462E+02  0.80686217804E+01  0.33358301135E+02  0.51100000000E-03 0.  1.
         22    1    1    0    0    0  0.42980406776E+02 -0.42740269808E+02 -0.15213508665E+02  0.62493974716E+02  0.00000000000E+00 0.  1.
</event>
<event>
 4    1  0.1956390E-002  0.9118800E+02  0.7818608E-02  0.1130116E+00
         25   -1    0    0    0    0  0.00000000000E+00  0.00000000000E+00  0.99999998245E-14  0.12500000000E+03  0.12500000000E+03 0.  0.
        -11    1    1    0    0    0  0.33843464936E+02 -0.65897540350E+01  0.24471502393E+02  0.42280721455E+02  0.51100000000E-03 0. -1.
         11    1    1    0    0    0  0.16160529792E+02 -0.31407600079E+01  0.11738517577E+02  0.20219295036E+02  0.51100000000E-03 0.  1.
         22    1    1    0    0    0 -0.50003994729E+02  0.97305140428E+01 -0.36210019970E+02  0.62499983509E+02  0.00000000000E+00 0. -1.
</event>
<event>
 4    1  0.1956390E-002  0.9118800E+02  0.7818608E-02  0.1130116E+00
         25   -1    0    0    0    0  0.00000000000E+00  0.00000000000E+00  0.99999998245E-14  0.12500000000E+03  0.12500000000E+03 0.  0.
        -11    1    1    0    0    0  0.33533561323E-01  0.60357795758E+02 -0.11991496043E+02  0.61537473225E+02  0.51100000000E-03 0. -1.
         11    1    1    0    0    0  0.25881085516E-01  0.96306769101E+00 -0.72696469207E-01  0.96615435920E+00  0.51100000000E-03 0.  1.
         22    1    1    0    0    0 -0.59414646839E-01 -0.61320863449E+02  0.12064192512E+02  0.62496372416E+02  0.00000000000E+00 0. -1.
</event>
<event>
 4    1  0.1956390E-002  0.9118800E+02  0.7818608E-02  0.1130116E+00
         25   -1    0    0    0    0  0.00000000000E+00  0.00000000000E+00  0.99999998245E-14  0.12500000000E+03  0.12500000000E+03 0.  0.
        -11    1    1    0    0    0  0.11570737802E+02  0.36666907453E+02  0.35584723668E+02  0.52389088885E+02  0.51100000000E-03 0. -1.
         11    1    1    0    0    0  0.22444454412E+01  0.67987531365E+01  0.71438298719E+01  0.10114093387E+02  0.51100000000E-03 0.  1.
         22    1    1    0    0    0 -0.13815183243E+02 -0.43465660589E+02 -0.42728553540E+02  0.62496817728E+02  0.00000000000E+00 0. -1.
</event>
<event>
 4    1  0.1956390E-002  0.9118800E+02  0.7818608E-02  0.1130116E+00
         25   -1    0    0    0    0  0.00000000000E+00  0.00000000000E+00  0.99999998245E-14  0.12500000000E+03  0.12500000000E+03 0.  0.
        -11    1    1    0    0    0 -0.26627482101E+02 -0.53286642893E+01 -0.96679897958E+01  0.28825119135E+02  0.51100000000E-03 0. -1.
         11    1    1    0    0    0 -0.31080835945E+02 -0.62036116918E+01 -0.11379647592E+02  0.33674909660E+02  0.51100000000E-03 0.  1.
         22    1    1    0    0    0  0.57708318046E+02  0.11532275981E+02  0.21047637388E+02  0.62499971205E+02  0.00000000000E+00 0. -1.
</event>
<event>
 4    1  0.1956390E-002  0.9118800E+02  0.7818608E-02  0.1130116E+00
         25   -1    0    0    0    0  0.00000000000E+00  0.00000000000E+00  0.99999998245E-14  0.12500000000E+03  0.12500000000E+03 0.  0.
        -11    1    1    0    0    0  0.31022971082E+02 -0.49048944805E+02 -0.21486638681E+02  0.61886180713E+02  0.51100000000E-03 0. -1.
         11    1    1    0    0    0 -0.60429950094E+00  0.21181865884E+01 -0.14814465982E+01  0.26545388667E+01  0.51100000000E-03 0.  1.
         22    1    1    0    0    0 -0.30418671581E+02  0.46930758216E+02  0.22968085279E+02  0.60459280420E+02  0.00000000000E+00 0. -1.
</event>
<event>
 4    1  0.1956390E-002  0.9118800E+02  0.7818608E-02  0.1130116E+00
         25   -1    0    0    0    0  0.00000000000E+00  0.00000000000E+00  0.99999998245E-14  0.12500000000E+03  0.12500000000E+03 0.  0.
        -11    1    1    0    0    0  0.18598082644E+02 -0.19030289306E+02  0.52822695792E+02  0.59146240625E+02  0.51100000000E-03 0. -1.
         11    1    1    0    0    0  0.77313043102E+00 -0.34091744772E+01  0.16282525732E+01  0.38563464552E+01  0.51100000000E-03 0.  1.
         22    1    1    0    0    0 -0.19371213075E+02  0.22439463783E+02 -0.54450948365E+02  0.61997412920E+02  0.00000000000E+00 0. -1.
</event>
<event>
 4    1  0.1956390E-002  0.9118800E+02  0.7818608E-02  0.1130116E+00
         25   -1    0    0    0    0  0.00000000000E+00  0.00000000000E+00  0.99999998245E-14  0.12500000000E+03  0.12500000000E+03 0.  0.
        -11    1    1    0    0    0  0.13550848038E+02 -0.44713230532E+02 -0.25217696060E+02  0.53092661093E+02  0.51100000000E-03 0. -1.
         11    1    1    0    0    0  0.24080056488E+01 -0.77539830432E+01 -0.47563253170E+01  0.94098552072E+01  0.51100000000E-03 0.  1.
         22    1    1    0    0    0 -0.15958853687E+02  0.52467213575E+02  0.29974021377E+02  0.62497483700E+02  0.00000000000E+00 0. -1.
</event>
<event>
 4    1  0.1956390E-002  0.9118800E+02  0.7818608E-02  0.1130116E+00
         25   -1    0    0    0    0  0.00000000000E+00  0.00000000000E+00  0.99999998245E-14  0.12500000000E+03  0.12500000000E+03 0.  0.
        -11    1    1    0    0    0  0.23796472805E+02  0.16689580319E+02  0.96748066859E+01  0.30633577882E+02  0.51100000000E-03 0.  1.
         11    1    1    0    0    0  0.24702593345E+02  0.17140780659E+02  0.10560172133E+02  0.31867565256E+02  0.51100000000E-03 0. -1.
         22    1    1    0    0    0 -0.48499066150E+02 -0.33830360978E+02 -0.20234978819E+02  0.62498856863E+02  0.00000000000E+00 0.  1.
</event>
<event>
 4    1  0.1956390E-002  0.9118800E+02  0.7818608E-02  0.1130116E+00
         25   -1    0    0    0    0  0.00000000000E+00  0.00000000000E+00  0.99999998245E-14  0.12500000000E+03  0.12500000000E+03 0.  0.
        -11    1    1    0    0    0  0.33330985322E+01 -0.58948112912E+01  0.14641594478E+02  0.16131789581E+02  0.51100000000E-03 0.  1.
         11    1    1    0    0    0  0.77635305123E+01 -0.13747884730E+02  0.43620903063E+02  0.46390299900E+02  0.51100000000E-03 0. -1.
         22    1    1    0    0    0 -0.11096629045E+02  0.19642696021E+02 -0.58262497540E+02  0.62477910519E+02  0.00000000000E+00 0.  1.
</event>
<event>
 4    1  0.1956390E-002  0.9118800E+02  0.7818608E-02  0.1130116E+00
         25   -1    0    0    0    0  0.00000000000E+00  0.00000000000E+00  0.99999998245E-14  0.12500000000E+03  0.12500000000E+03 0.  0.
        -11    1    1    0    0    0 -0.97306547318E+00  0.63708628289E+01  0.96432253711E+01  0.11598557903E+02  0.51100000000E-03 0. -1.
         11    1    1    0    0    0 -0.43294142359E+01  0.27870049106E+02  0.42373041688E+02  0.50901455058E+02  0.51100000000E-03 0.  1.
         22    1    1    0    0    0  0.53024797091E+01 -0.34240911935E+02 -0.52016267059E+02  0.62499987040E+02  0.00000000000E+00 0.  1.
</event>
<event>
 4    1  0.1956390E-002  0.9118800E+02  0.7818608E-02  0.1130116E+00
         25   -1    0    0    0    0  0.00000000000E+00  0.00000000000E+00  0.99999998245E-14  0.12500000000E+03  0.12500000000E+03 0.  0.
        -11    1    1    0    0    0 -0.26212444011E+01  0.14449596594E+01  0.17102707227E+01  0.34472970330E+01  0.51100000000E-03 0.  1.
         11    1    1    0    0    0 -0.44840461322E+02  0.25183140911E+02  0.29023636210E+02  0.59052764684E+02  0.51100000000E-03 0. -1.
         22    1    1    0    0    0  0.47461705723E+02 -0.26628100570E+02 -0.30733906932E+02  0.62499938283E+02  0.00000000000E+00 0. -1.
</event>
<event>
 4    1  0.1956390E-002  0.9118800E+02  0.7818608E-02  0.1130116E+00
         25   -1    0    0    0    0  0.00000000000E+00  0.00000000000E+00  0.99999998245E-14  0.12500000000E+03  0.12500000000E+03 0.  0.
        -11    1    1    0    0    0  0.31854722193E+02  0.16831943133E+02  0.34372052106E+01  0.36191877757E+02  0.51100000000E-03 0.  1.
         11    1    1    0    0    0  0.23153372976E+02  0.12238266060E+02  0.25026922436E+01  0.26308122416E+02  0.51100000000E-03 0. -1.
         22    1    1    0    0    0 -0.55008095169E+02 -0.29070209194E+02 -0.59398974542E+01  0.62499999827E+02  0.00000000000E+00 0.  1.
</event>
<event>
 4    1  0.1956390E-002  0.9118800E+02  0.7818608E-02  0.1130116E+00
         25   -1    0    0    0    0  0.00000000000E+00  0.00000000000E+00  0.99999998245E-14  0.12500000000E+03  0.12500000000E+03 0.  0.
        -11    1    1    0    0    0 -0.29295175496E+02 -0.13925266964E+02  0.93835031157E+01  0.33766410801E+02  0.51100000000E-03 0.  1.
         11    1    1    0    0    0 -0.24932141883E+02 -0.11841759158E+02  0.79862513174E+01  0.28733589564E+02  0.51100000000E-03 0. -1.
         22    1    1    0    0    0  0.54227317380E+02  0.25767026122E+02 -0.17369754433E+02  0.62499999636E+02  0.00000000000E+00 0. -1.
</event>
<event>
 4    1  0.1956390E-002  0.9118800E+02  0.7818608E-02  0.1130116E+00
         25   -1    0    0    0    0  0.00000000000E+00  0.00000000000E+00  0.99999998245E-14  0.12500000000E+03  0.12500000000E+03 0.  0.
        -11    1    1    0    0    0  0.22567388790E+01  0.83516145437E+01 -0.56767781152E+01  0.10347373864E+02  0.51100000000E-03 0.  1.
         11    1    1    0    0    0  0.11413987273E+02  0.42094953682E+02 -0.28594271079E+02  0.52152627639E+02  0.51100000000E-03 0. -1.
         22    1    1    0    0    0 -0.13670726152E+02 -0.50446568225E+02  0.34271049194E+02  0.62499998496E+02  0.00000000000E+00 0. -1.
</event>
<event>
 4    1  0.1956390E-002  0.9118800E+02  0.7818608E-02  0.1130116E+00
         25   -1    0    0    0    0  0.00000000000E+00  0.00000000000E+00  0.99999998245E-14  0.12500000000E+03  0.12500000000E+03 0.  0.
        -11    1    1    0    0    0  0.10149700445E+01  0.81840725344E+01 -0.52913711414E+01  0.97983578347E+01  0.51100000000E-03 0. -1.
         11    1    1    0    0    0  0.92341469364E+01  0.39995087645E+02 -0.33116059753E+02  0.52740401204E+02  0.51100000000E-03 0.  1.
         22    1    1    0    0    0 -0.10249116981E+02 -0.48179160180E+02  0.38407430894E+02  0.62461240961E+02  0.00000000000E+00 0.  1.
</event>
<event>
 4    1  0.1956390E-002  0.9118800E+02  0.7818608E-02  0.1130116E+00
         25   -1    0    0    0    0  0.00000000000E+00  0.00000000000E+00  0.99999998245E-14  0.12500000000E+03  0.12500000000E+03 0.  0.
        -11    1    1    0    0    0 -0.31500395395E+01  0.11590353883E+02  0.35462402694E+01  0.12523373049E+02  0.51100000000E-03 0.  1.
         11    1    1    0    0    0 -0.12604502046E+02  0.46236694984E+02  0.14175965807E+02  0.49976628955E+02  0.51100000000E-03 0. -1.
         22    1    1    0    0    0  0.15754541586E+02 -0.57827048867E+02 -0.17722206076E+02  0.62499997995E+02  0.00000000000E+00 0. -1.
</event>
<event>
 4    1  0.1956390E-002  0.9118800E+02  0.7818608E-02  0.1130116E+00
         25   -1    0    0    0    0  0.00000000000E+00  0.00000000000E+00  0.99999998245E-14  0.12500000000E+03  0.12500000000E+03 0.  0.
        -11    1    1    0    0    0 -0.29880320528E+00 -0.18439409497E+02  0.56364853894E+00  0.18450441888E+02  0.51100000000E-03 0. -1.
         11    1    1    0    0    0  0.72080187875E+01 -0.42903379530E+02 -0.84483628864E+01  0.44317381981E+02  0.51100000000E-03 0.  1.
         22    1    1    0    0    0 -0.69092155823E+01  0.61342789027E+02  0.78847143474E+01  0.62232176130E+02  0.00000000000E+00 0.  1.
</event>
<event>
 4    1  0.1956390E-002  0.9118800E+02  0.7818608E-02  0.1130116E+00
         25   -1    0    0    0    0  0.00000000000E+00  0.00000000000E+00  0.99999998245E-14  0.12500000000E+03  0.12500000000E+03 0.  0.
        -11    1    1    0    0    0 -0.34813152431E+02 -0.51439825659E+02 -0.43463292925E+01  0.62264771939E+02  0.51100000000E-03 0.  1.
         11    1    1    0    0    0 -0.12159665195E-01 -0.25120323783E+00 -0.33150964321E-01  0.25367335632E+00  0.51100000000E-03 0. -1.
         22    1    1    0    0    0  0.34825312096E+02  0.51691028897E+02  0.43794802568E+01  0.62481554705E+02  0.00000000000E+00 0.  1.
</event>
<event>
 4    1  0.1956390E-002  0.9118800E+02  0.7818608E-02  0.1130116E+00
         25   -1    0    0    0    0  0.00000000000E+00  0.00000000000E+00  0.99999998245E-14  0.12500000000E+03  0.12500000000E+03 0.  0.
        -11    1    1    0    0    0  0.15039455472E+02 -0.37778990352E+02 -0.14017564689E+02  0.43010806235E+02  0.51100000000E-03 0. -1.
         11    1    1    0    0    0  0.76243079386E+01 -0.16282901623E+02 -0.75866119800E+01  0.19514600647E+02  0.51100000000E-03 0.  1.
         22    1    1    0    0    0 -0.22663763411E+02  0.54061891974E+02  0.21604176669E+02  0.62474593119E+02  0.00000000000E+00 0. -1.
</event>
<event>
 4    1  0.1956390E-002  0.9118800E+02  0.7818608E-02  0.1130116E+00
         25   -1    0    0    0    0  0.00000000000E+00  0.00000000000E+00  0.99999998245E-14  0.12500000000E+03  0.12500000000E+03 0.  0.
        -11    1    1    0    0    0  0.29415082539E+02 -0.11682277244E+02  0.32937581285E+02  0.45679392986E+02  0.51100000000E-03 0.  1.
         11    1    1    0    0    0  0.15519888865E+02 -0.10150811074E+02  0.15579169408E+01  0.18610024753E+02  0.51100000000E-03 0. -1.
         22    1    1    0    0    0 -0.44934971405E+02  0.21833088318E+02 -0.34495498226E+02  0.60710582261E+02  0.00000000000E+00 0.  1.
</event>
<event>
 4    1  0.1956390E-002  0.9118800E+02  0.7818608E-02  0.1130116E+00
         25   -1    0    0    0    0  0.00000000000E+00  0.00000000000E+00  0.99999998245E-14  0.12500000000E+03  0.12500000000E+03 0.  0.
        -11    1    1    0    0    0 -0.39631666988E+02  0.17575939544E+02 -0.20296585495E+02  0.47869970359E+02  0.51100000000E-03 0. -1.
         11    1    1    0    0    0 -0.12101778011E+02  0.53936974230E+01 -0.62042722700E+01  0.14630037512E+02  0.51100000000E-03 0.  1.
         22    1    1    0    0    0  0.51733445000E+02 -0.22969636967E+02  0.26500857765E+02  0.62499992130E+02  0.00000000000E+00 0. -1.
</event>
<event>
 4    1  0.1956390E-002  0.9118800E+02  0.7818608E-02  0.1130116E+00
         25   -1    0    0    0    0  0.00000000000E+00  0.00000000000E+00  0.99999998245E-14  0.12500000000E+03  0.12500000000E+03 0.  0.
        -11    1    1    0    0    0  0.34919314170E+02  0.15521387786E+02  0.15714858359E+02  0.41318624789E+02  0.51100000000E-03 0. -1.
         11    1    1    0    0    0  0.19004695421E+02  0.94022920387E+01  0.29621248626E+01  0.21409243975E+02  0.51100000000E-03 0.  1.
         22    1    1    0    0    0 -0.53924009591E+02 -0.24923679825E+02 -0.18676983222E+02  0.62272131236E+02  0.00000000000E+00 0.  1.
</event>
<event>
 4    1  0.1956390E-002  0.9118800E+02  0.7818608E-02  0.1130116E+00
         25   -1    0    0    0    0  0.00000000000E+00  0.00000000000E+00  0.99999998245E-14  0.12500000000E+03  0.12500000000E+03 0.  0.
        -11    1    1    0    0    0 -0.80651053676E+00 -0.50949607715E+00  0.37726975563E+00  0.10258548768E+01  0.51100000000E-03 0.  1.
         11    1    1    0    0    0 -0.48335072550E+02 -0.30510522342E+02  0.22625192168E+02  0.61474145239E+02  0.51100000000E-03 0. -1.
         22    1    1    0    0    0  0.49141583086E+02  0.31020018419E+02 -0.23002461924E+02  0.62499999884E+02  0.00000000000E+00 0. -1.
</event>
<event>
 4    1  0.1956390E-002  0.9118800E+02  0.7818608E-02  0.1130116E+00
         25   -1    0    0    0    0  0.00000000000E+00  0.00000000000E+00  0.99999998245E-14  0.12500000000E+03  0.12500000000E+03 0.  0.
        -11    1    1    0    0    0 -0.10176675117E+00  0.54495247855E+01 -0.12584045798E+02  0.13713711597E+02  0.51100000000E-03 0.  1.
         11    1    1    0    0    0  0.14074878023E+01  0.20675564640E+02 -0.44172464504E+02  0.48792075337E+02  0.51100000000E-03 0. -1.
         22    1    1    0    0    0 -0.13057210511E+01 -0.26125089426E+02  0.56756510302E+02  0.62494213065E+02  0.00000000000E+00 0.  1.
</event>
<event>
 4    1  0.1956390E-002  0.9118800E+02  0.7818608E-02  0.1130116E+00
         25   -1    0    0    0    0  0.00000000000E+00  0.00000000000E+00  0.99999998245E-14  0.12500000000E+03  0.12500000000E+03 0.  0.
        -11    1    1    0    0    0 -0.35800268263E+00  0.13337868509E+01  0.12273858122E+00  0.13864408768E+01  0.51100000000E-03 0. -1.
         11    1    1    0    0    0 -0.15733603436E+02  0.58807093187E+02  0.53894953163E+01  0.61113559430E+02  0.51100000000E-03 0.  1.
         22    1    1    0    0    0  0.16091606118E+02 -0.60140880038E+02 -0.55122338976E+01  0.62499999694E+02  0.00000000000E+00 0.  1.
</event>
<event>
 4    1  0.1956390E-002  0.9118800E+02  0.7818608E-02  0.1130116E+00
         25   -1    0    0    0    0  0.00000000000E+00  0.00000000000E+00  0.99999998245E-14  0.12500000000E+03  0.12500000000E+03 0.  0.
        -11    1    1    0    0    0 -0.38524684711E+02  0.21281857100E+02  0.41338221608E+02  0.60381432077E+02  0.51100000000E-03 0. -1.
         11    1    1    0    0    0 -0.13516194564E+01  0.74637208460E+00  0.14506493579E+01  0.21185679749E+01  0.51100000000E-03 0. -1.
         22    1    1    0    0    0  0.39876304167E+02 -0.22028229184E+02 -0.42788870966E+02  0.62499999948E+02  0.00000000000E+00 0. -1.
</event>
<event>
 4    1  0.1956390E-002  0.9118800E+02  0.7818608E-02  0.1130116E+00
         25   -1    0    0    0    0  0.00000000000E+00  0.00000000000E+00  0.99999998245E-14  0.12500000000E+03  0.12500000000E+03 0.  0.
        -11    1    1    0    0    0  0.19363571059E+01 -0.15836173271E+01 -0.38218487827E+00  0.25304916958E+01  0.51100000000E-03 0.  1.
         11    1    1    0    0    0  0.47863429150E+02 -0.35281699291E+02 -0.78005741230E+01  0.59971285727E+02  0.51100000000E-03 0. -1.
         22    1    1    0    0    0 -0.49799786255E+02  0.36865316618E+02  0.81827590012E+01  0.62498222577E+02  0.00000000000E+00 0. -1.
</event>
<event>
 4    1  0.1956390E-002  0.9118800E+02  0.7818608E-02  0.1130116E+00
         25   -1    0    0    0    0  0.00000000000E+00  0.00000000000E+00  0.99999998245E-14  0.12500000000E+03  0.12500000000E+03 0.  0.
        -11    1    1    0    0    0 -0.56587257831E+01  0.16034922046E+01 -0.14251874259E+02  0.15417791180E+02  0.51100000000E-03 0. -1.
         11    1    1    0    0    0 -0.15765251409E+02 -0.11914579172E+00 -0.44403382260E+02  0.47119186157E+02  0.51100000000E-03 0.  1.
         22    1    1    0    0    0  0.21423977192E+02 -0.14843464129E+01  0.58655256518E+02  0.62463022663E+02  0.00000000000E+00 0.  1.
</event>
<event>
 4    1  0.1956390E-002  0.9118800E+02  0.7818608E-02  0.1130116E+00
         25   -1    0    0    0    0  0.00000000000E+00  0.00000000000E+00  0.99999998245E-14  0.12500000000E+03  0.12500000000E+03 0.  0.
        -11    1    1    0    0    0  0.13368892041E+02 -0.13567195511E+02 -0.59482288175E+02  0.62457494948E+02  0.51100000000E-03 0.  1.
         11    1    1    0    0    0  0.95465027517E-02 -0.77987173315E-02 -0.40690833841E-01  0.42520122136E-01  0.51100000000E-03 0. -1.
         22    1    1    0    0    0 -0.13378438543E+02  0.13574994228E+02  0.59522979009E+02  0.62499984930E+02  0.00000000000E+00 0.  1.
</event>
<event>
 4    1  0.1956390E-002  0.9118800E+02  0.7818608E-02  0.1130116E+00
         25   -1    0    0    0    0  0.00000000000E+00  0.00000000000E+00  0.99999998245E-14  0.12500000000E+03  0.12500000000E+03 0.  0.
        -11    1    1    0    0    0 -0.12761870276E+02 -0.33210162622E+01  0.45257701352E+02  0.47139728615E+02  0.51100000000E-03 0.  1.
         11    1    1    0    0    0  0.43431349861E+01 -0.63187467148E+01  0.14685161876E+02  0.16566332157E+02  0.51100000000E-03 0. -1.
         22    1    1    0    0    0  0.84187352897E+01  0.96397629770E+01 -0.59942863228E+02  0.61293939228E+02  0.00000000000E+00 0.  1.
</event>
<event>
 4    1  0.1956390E-002  0.9118800E+02  0.7818608E-02  0.1130116E+00
         25   -1    0    0    0    0  0.00000000000E+00  0.00000000000E+00  0.99999998245E-14  0.12500000000E+03  0.12500000000E+03 0.  0.
        -11    1    1    0    0    0  0.74429455742E+01 -0.85929971830E+00  0.91768260401E+01  0.11846939320E+02  0.51100000000E-03 0.  1.
         11    1    1    0    0    0  0.31824610402E+02 -0.36698114613E+01  0.39235942899E+02  0.50653060706E+02  0.51100000000E-03 0.  1.
         22    1    1    0    0    0 -0.39267555976E+02  0.45291111796E+01 -0.48412768939E+02  0.62499999974E+02  0.00000000000E+00 0.  1.
</event>
<event>
 4    1  0.1956390E-002  0.9118800E+02  0.7818608E-02  0.1130116E+00
         25   -1    0    0    0    0  0.00000000000E+00  0.00000000000E+00  0.99999998245E-14  0.12500000000E+03  0.12500000000E+03 0.  0.
        -11    1    1    0    0    0  0.58507584523E+01  0.27967455069E+02 -0.40156022350E+02  0.49284034420E+02  0.51100000000E-03 0. -1.
         11    1    1    0    0    0  0.15664283950E+01  0.74982210122E+01 -0.10769620885E+02  0.13215965743E+02  0.51100000000E-03 0.  1.
         22    1    1    0    0    0 -0.74171868472E+01 -0.35465676082E+02  0.50925643235E+02  0.62499999836E+02  0.00000000000E+00 0.  1.
</event>
<event>
 4    1  0.1956390E-002  0.9118800E+02  0.7818608E-02  0.1130116E+00
         25   -1    0    0    0    0  0.00000000000E+00  0.00000000000E+00  0.99999998245E-14  0.12500000000E+03  0.12500000000E+03 0.  0.
        -11    1    1    0    0    0  0.15060371368E+02 -0.69253864199E+01  0.11170211360E+02  0.19988731448E+02  0.51100000000E-03 0.  1.
         11    1    1    0    0    0  0.32032722181E+02 -0.14729037595E+02  0.23752223462E+02  0.42511268606E+02  0.51100000000E-03 0. -1.
         22    1    1    0    0    0 -0.47093093549E+02  0.21654424015E+02 -0.34922434822E+02  0.62499999947E+02  0.00000000000E+00 0. -1.
</event>
<event>
 4    1  0.1956390E-002  0.9118800E+02  0.7818608E-02  0.1130116E+00
         25   -1    0    0    0    0  0.00000000000E+00  0.00000000000E+00  0.99999998245E-14  0.12500000000E+03  0.12500000000E+03 0.  0.
        -11    1    1    0    0    0  0.28688389862E+02  0.12567961558E+02  0.78997544138E+01  0.32301447191E+02  0.51100000000E-03 0.  1.
         11    1    1    0    0    0  0.26821228823E+02  0.11748277436E+02  0.73859497795E+01  0.30198552824E+02  0.51100000000E-03 0. -1.
         22    1    1    0    0    0 -0.55509618685E+02 -0.24316238994E+02 -0.15285704193E+02  0.62499999984E+02  0.00000000000E+00 0. -1.
</event>
<event>
 4    1  0.1956390E-002  0.9118800E+02  0.7818608E-02  0.1130116E+00
         25   -1    0    0    0    0  0.00000000000E+00  0.00000000000E+00  0.99999998245E-14  0.12500000000E+03  0.12500000000E+03 0.  0.
        -11    1    1    0    0    0 -0.32345236034E+02  0.47508777870E+02  0.24377351179E+02  0.62430389391E+02  0.51100000000E-03 0.  1.
         11    1    1    0    0    0 -0.35005168914E-01  0.52814812998E-01  0.28856829721E-01  0.69625742834E-01  0.51100000000E-03 0. -1.
         22    1    1    0    0    0  0.32380241203E+02 -0.47561592683E+02 -0.24406208009E+02  0.62499984866E+02  0.00000000000E+00 0.  1.
</event>
<event>
 4    1  0.1956390E-002  0.9118800E+02  0.7818608E-02  0.1130116E+00
         25   -1    0    0    0    0  0.00000000000E+00  0.00000000000E+00  0.99999998245E-14  0.12500000000E+03  0.12500000000E+03 0.  0.
        -11    1    1    0    0    0  0.95893250502E+01 -0.55211894394E+02  0.15086829000E+02  0.58033790562E+02  0.51100000000E-03 0.  1.
         11    1    1    0    0    0  0.74116095762E+00 -0.42491364384E+01  0.11586862836E+01  0.44662102729E+01  0.51100000000E-03 0. -1.
         22    1    1    0    0    0 -0.10330486008E+02  0.59461030832E+02 -0.16245515284E+02  0.62499999165E+02  0.00000000000E+00 0.  1.
</event>
<event>
 4    1  0.1956390E-002  0.9118800E+02  0.7818608E-02  0.1130116E+00
         25   -1    0    0    0    0  0.00000000000E+00  0.00000000000E+00  0.99999998245E-14  0.12500000000E+03  0.12500000000E+03 0.  0.
        -11    1    1    0    0    0 -0.20259311692E+02  0.13718269577E+02 -0.11134126898E+02  0.26881209282E+02  0.51100000000E-03 0. -1.
         11    1    1    0    0    0 -0.26699665281E+02  0.17659990943E+02 -0.15626157298E+02  0.35621962304E+02  0.51100000000E-03 0.  1.
         22    1    1    0    0    0  0.46958976973E+02 -0.31378260519E+02  0.26760284196E+02  0.62496828414E+02  0.00000000000E+00 0.  1.
</event>
<event>
 4    1  0.1956390E-002  0.9118800E+02  0.7818608E-02  0.1130116E+00
         25   -1    0    0    0    0  0.00000000000E+00  0.00000000000E+00  0.99999998245E-14  0.12500000000E+03  0.12500000000E+03 0.  0.
        -11    1    1    0    0    0  0.38583539521E+02  0.42083814124E+02  0.15868979889E+02  0.59258429411E+02  0.51100000000E-03 0.  1.
         11    1    1    0    0    0  0.25572945941E+01  0.19744802885E+01  0.52179731978E+00  0.32727054183E+01  0.51100000000E-03 0. -1.
         22    1    1    0    0    0 -0.41140834115E+02 -0.44058294413E+02 -0.16390777208E+02  0.62468865171E+02  0.00000000000E+00 0.  1.
</event>
<event>
 4    1  0.1956390E-002  0.9118800E+02  0.7818608E-02  0.1130116E+00
         25   -1    0    0    0    0  0.00000000000E+00  0.00000000000E+00  0.99999998245E-14  0.12500000000E+03  0.12500000000E+03 0.  0.
        -11    1    1    0    0    0  0.47386790125E+01 -0.29188945931E+02  0.15082668193E+02  0.33195429255E+02  0.51100000000E-03 0.  1.
         11    1    1    0    0    0  0.41825879730E+01 -0.25768274588E+02  0.13313896858E+02  0.29304570756E+02  0.51100000000E-03 0.  1.
         22    1    1    0    0    0 -0.89212669854E+01  0.54957220519E+02 -0.28396565052E+02  0.62499999988E+02  0.00000000000E+00 0.  1.
</event>
<event>
 4    1  0.1956390E-002  0.9118800E+02  0.7818608E-02  0.1130116E+00
         25   -1    0    0    0    0  0.00000000000E+00  0.00000000000E+00  0.99999998245E-14  0.12500000000E+03  0.12500000000E+03 0.  0.
        -11    1    1    0    0    0  0.73281461806E+01  0.10424680242E+02 -0.11192165932E+02  0.16959960587E+02  0.51100000000E-03 0. -1.
         11    1    1    0    0    0  0.19671179359E+02  0.27980674010E+02 -0.30066955685E+02  0.45540039963E+02  0.51100000000E-03 0.  1.
         22    1    1    0    0    0 -0.26999325540E+02 -0.38405354252E+02  0.41259121616E+02  0.62499999451E+02  0.00000000000E+00 0.  1.
</event>
<event>
 4    1  0.1956390E-002  0.9118800E+02  0.7818608E-02  0.1130116E+00
         25   -1    0    0    0    0  0.00000000000E+00  0.00000000000E+00  0.99999998245E-14  0.12500000000E+03  0.12500000000E+03 0.  0.
        -11    1    1    0    0    0 -0.26165661340E+02  0.14651311995E+02  0.23528174122E+02  0.38116633565E+02  0.51100000000E-03 0.  1.
         11    1    1    0    0    0 -0.17413917925E+02  0.78832508260E+01  0.15165026706E+02  0.24400168367E+02  0.51100000000E-03 0. -1.
         22    1    1    0    0    0  0.43579579265E+02 -0.22534562821E+02 -0.38693200828E+02  0.62483198068E+02  0.00000000000E+00 0.  1.
</event>
<event>
 4    1  0.1956390E-002  0.9118800E+02  0.7818608E-02  0.1130116E+00
         25   -1    0    0    0    0  0.00000000000E+00  0.00000000000E+00  0.99999998245E-14  0.12500000000E+03  0.12500000000E+03 0.  0.
        -11    1    1    0    0    0  0.11568863192E+02 -0.10519075611E+02  0.23980826948E+02  0.28628126181E+02  0.51100000000E-03 0. -1.
         11    1    1    0    0    0  0.13683327697E+02 -0.12498400254E+02  0.28352444480E+02  0.33871884713E+02  0.51100000000E-03 0.  1.
         22    1    1    0    0    0 -0.25252190889E+02  0.23017475865E+02 -0.52333271428E+02  0.62499989106E+02  0.00000000000E+00 0. -1.
</event>
<event>
 4    1  0.1956390E-002  0.9118800E+02  0.7818608E-02  0.1130116E+00
         25   -1    0    0    0    0  0.00000000000E+00  0.00000000000E+00  0.99999998245E-14  0.12500000000E+03  0.12500000000E+03 0.  0.
        -11    1    1    0    0    0 -0.28229010092E+02  0.28632969865E+02  0.94797493894E+01  0.41310889881E+02  0.51100000000E-03 0. -1.
         11    1    1    0    0    0 -0.14483309373E+02  0.14683202583E+02  0.48595998304E+01  0.21189110393E+02  0.51100000000E-03 0.  1.
         22    1    1    0    0    0  0.42712319465E+02 -0.43316172448E+02 -0.14339349220E+02  0.62499999725E+02  0.00000000000E+00 0.  1.
</event>
<event>
 4    1  0.1956390E-002  0.9118800E+02  0.7818608E-02  0.1130116E+00
         25   -1    0    0    0    0  0.00000000000E+00  0.00000000000E+00  0.99999998245E-14  0.12500000000E+03  0.12500000000E+03 0.  0.
        -11    1    1    0    0    0 -0.17968911274E+02  0.51116257168E+02  0.22877875807E+02  0.58814545148E+02  0.51100000000E-03 0.  1.
         11    1    1    0    0    0 -0.11256260547E+01  0.32034320368E+01  0.14330271383E+01  0.36854549068E+01  0.51100000000E-03 0.  1.
         22    1    1    0    0    0  0.19094537328E+02 -0.54319689205E+02 -0.24310902946E+02  0.62499999945E+02  0.00000000000E+00 0.  1.
</event>
<event>
 4    1  0.1956390E-002  0.9118800E+02  0.7818608E-02  0.1130116E+00
         25   -1    0    0    0    0  0.00000000000E+00  0.00000000000E+00  0.99999998245E-14  0.12500000000E+03  0.12500000000E+03 0.  0.
        -11    1    1    0    0    0  0.13697756299E+00  0.12830543028E+01 -0.57773218508E+00  0.14137771873E+01  0.51100000000E-03 0. -1.
         11    1    1    0    0    0  0.12944592657E+02  0.51048245801E+02 -0.30971365609E+02  0.61095919392E+02  0.51100000000E-03 0.  1.
         22    1    1    0    0    0 -0.13081570220E+02 -0.52331300104E+02  0.31549097794E+02  0.62490303421E+02  0.00000000000E+00 0.  1.
</event>
<event>
 4    1  0.1956390E-002  0.9118800E+02  0.7818608E-02  0.1130116E+00
         25   -1    0    0    0    0  0.00000000000E+00  0.00000000000E+00  0.99999998245E-14  0.12500000000E+03  0.12500000000E+03 0.  0.
        -11    1    1    0    0    0  0.84268042507E+01 -0.41213045954E+02 -0.17968653844E+02  0.45742744867E+02  0.51100000000E-03 0. -1.
         11    1    1    0    0    0  0.30922801517E+01 -0.15098312808E+02 -0.65790856427E+01  0.16757255573E+02  0.51100000000E-03 0.  1.
         22    1    1    0    0    0 -0.11519084402E+02  0.56311358762E+02  0.24547739487E+02  0.62499999560E+02  0.00000000000E+00 0. -1.
</event>
<event>
 4    1  0.1956390E-002  0.9118800E+02  0.7818608E-02  0.1130116E+00
         25   -1    0    0    0    0  0.00000000000E+00  0.00000000000E+00  0.99999998245E-14  0.12500000000E+03  0.12500000000E+03 0.  0.
        -11    1    1    0    0    0 -0.15732793700E+02 -0.40236518574E+02 -0.24310056819E+02  0.49572947132E+02  0.51100000000E-03 0.  1.
         11    1    1    0    0    0 -0.41010707407E+01 -0.10494089317E+02 -0.63375079708E+01  0.12927053003E+02  0.51100000000E-03 0. -1.
         22    1    1    0    0    0  0.19833864441E+02  0.50730607890E+02  0.30647564790E+02  0.62499999865E+02  0.00000000000E+00 0.  1.
</event>
<event>
 4    1  0.1956390E-002  0.9118800E+02  0.7818608E-02  0.1130116E+00
         25   -1    0    0    0    0  0.00000000000E+00  0.00000000000E+00  0.99999998245E-14  0.12500000000E+03  0.12500000000E+03 0.  0.
        -11    1    1    0    0    0 -0.29387518115E+02 -0.78826863879E+01 -0.15812821260E+02  0.34290060982E+02  0.51100000000E-03 0.  1.
         11    1    1    0    0    0 -0.19459533475E+02 -0.17892061684E+02 -0.11815006322E+02  0.28955028735E+02  0.51100000000E-03 0. -1.
         22    1    1    0    0    0  0.48847051590E+02  0.25774748072E+02  0.27627827582E+02  0.61754910284E+02  0.00000000000E+00 0.  1.
</event>
<event>
 4    1  0.1956390E-002  0.9118800E+02  0.7818608E-02  0.1130116E+00
         25   -1    0    0    0    0  0.00000000000E+00  0.00000000000E+00  0.99999998245E-14  0.12500000000E+03  0.12500000000E+03 0.  0.
        -11    1    1    0    0    0 -0.21349826484E+02 -0.12097135881E+02 -0.10600528396E+02  0.26730637665E+02  0.51100000000E-03 0. -1.
         11    1    1    0    0    0 -0.28569458028E+02 -0.16186804575E+02 -0.14185228505E+02  0.35769362342E+02  0.51100000000E-03 0.  1.
         22    1    1    0    0    0  0.49919284512E+02  0.28283940456E+02  0.24785756901E+02  0.62499999993E+02  0.00000000000E+00 0. -1.
</event>
<event>
 4    1  0.1956390E-002  0.9118800E+02  0.7818608E-02  0.1130116E+00
         25   -1    0    0    0    0  0.00000000000E+00  0.00000000000E+00  0.99999998245E-14  0.12500000000E+03  0.12500000000E+03 0.  0.
        -11    1    1    0    0    0  0.25080507460E+02 -0.24585434730E+02 -0.44584555029E+02  0.56756127447E+02  0.51100000000E-03 0. -1.
         11    1    1    0    0    0  0.10153694789E+02  0.45228659208E+01  0.91879081740E+01  0.14421216692E+02  0.51100000000E-03 0.  1.
         22    1    1    0    0    0 -0.35234202249E+02  0.20062568810E+02  0.35396646855E+02  0.53822655861E+02  0.00000000000E+00 0. -1.
</event>
<event>
 4    1  0.1956390E-002  0.9118800E+02  0.7818608E-02  0.1130116E+00
         25   -1    0    0    0    0  0.00000000000E+00  0.00000000000E+00  0.99999998245E-14  0.12500000000E+03  0.12500000000E+03 0.  0.
        -11    1    1    0    0    0  0.13047620176E+02  0.41261986289E+01 -0.50053798193E+01  0.14571195379E+02  0.51100000000E-03 0. -1.
         11    1    1    0    0    0  0.42919301429E+02  0.13573790657E+02 -0.16457706104E+02  0.47928804684E+02  0.51100000000E-03 0.  1.
         22    1    1    0    0    0 -0.55966921605E+02 -0.17699989286E+02  0.21463085924E+02  0.62499999937E+02  0.00000000000E+00 0.  1.
</event>
<event>
 4    1  0.1956390E-002  0.9118800E+02  0.7818608E-02  0.1130116E+00
         25   -1    0    0    0    0  0.00000000000E+00  0.00000000000E+00  0.99999998245E-14  0.12500000000E+03  0.12500000000E+03 0.  0.
        -11    1    1    0    0    0 -0.30543007665E+01 -0.20778225966E+02  0.12308324559E+02  0.24342520025E+02  0.51100000000E-03 0.  1.
         11    1    1    0    0    0 -0.19717223358E+01 -0.34986022353E+02  0.15293311161E+02  0.38233425371E+02  0.51100000000E-03 0. -1.
         22    1    1    0    0    0  0.50260231023E+01  0.55764248319E+02 -0.27601635719E+02  0.62424054604E+02  0.00000000000E+00 0. -1.
</event>
<event>
 4    1  0.1956390E-002  0.9118800E+02  0.7818608E-02  0.1130116E+00
         25   -1    0    0    0    0  0.00000000000E+00  0.00000000000E+00  0.99999998245E-14  0.12500000000E+03  0.12500000000E+03 0.  0.
        -11    1    1    0    0    0  0.10671124534E+02  0.37630931127E+00 -0.88520949232E+01  0.13869898785E+02  0.51100000000E-03 0.  1.
         11    1    1    0    0    0  0.36535559330E+02 -0.17675065299E+02 -0.27554624539E+02  0.49056216351E+02  0.51100000000E-03 0. -1.
         22    1    1    0    0    0 -0.47206683864E+02  0.17298755988E+02  0.36406719463E+02  0.62073884864E+02  0.00000000000E+00 0. -1.
</event>
<event>
 4    1  0.1956390E-002  0.9118800E+02  0.7818608E-02  0.1130116E+00
         25   -1    0    0    0    0  0.00000000000E+00  0.00000000000E+00  0.99999998245E-14  0.12500000000E+03  0.12500000000E+03 0.  0.
        -11    1    1    0    0    0  0.18804888294E+02 -0.15472099857E+02 -0.22526933880E+02  0.33173369561E+02  0.51100000000E-03 0. -1.
         11    1    1    0    0    0  0.16615911280E+02 -0.13684286056E+02 -0.19917406746E+02  0.29326630974E+02  0.51100000000E-03 0.  1.
         22    1    1    0    0    0 -0.35420799574E+02  0.29156385913E+02  0.42444340626E+02  0.62499999465E+02  0.00000000000E+00 0. -1.
</event>
<event>
 4    1  0.1956390E-002  0.9118800E+02  0.7818608E-02  0.1130116E+00
         25   -1    0    0    0    0  0.00000000000E+00  0.00000000000E+00  0.99999998245E-14  0.12500000000E+03  0.12500000000E+03 0.  0.
        -11    1    1    0    0    0 -0.24638548279E+02  0.13745953890E+02  0.34633187286E+01  0.28425409171E+02  0.51100000000E-03 0.  1.
         11    1    1    0    0    0 -0.29491591585E+02  0.16416297758E+02  0.46790477014E+01  0.34075538058E+02  0.51100000000E-03 0. -1.
         22    1    1    0    0    0  0.54130139864E+02 -0.30162251648E+02 -0.81423664300E+01  0.62499052771E+02  0.00000000000E+00 0.  1.
</event>
<event>
 4    1  0.1956390E-002  0.9118800E+02  0.7818608E-02  0.1130116E+00
         25   -1    0    0    0    0  0.00000000000E+00  0.00000000000E+00  0.99999998245E-14  0.12500000000E+03  0.12500000000E+03 0.  0.
        -11    1    1    0    0    0  0.21475324275E+01 -0.75555473423E+01  0.32509262930E+01  0.85009830722E+01  0.51100000000E-03 0.  1.
         11    1    1    0    0    0  0.13640648394E+02 -0.47974582120E+02  0.20694592778E+02  0.53999018405E+02  0.51100000000E-03 0. -1.
         22    1    1    0    0    0 -0.15788180821E+02  0.55530129462E+02 -0.23945519071E+02  0.62499998523E+02  0.00000000000E+00 0. -1.
</event>
<event>
 4    1  0.1956390E-002  0.9118800E+02  0.7818608E-02  0.1130116E+00
         25   -1    0    0    0    0  0.00000000000E+00  0.00000000000E+00  0.99999998245E-14  0.12500000000E+03  0.12500000000E+03 0.  0.
        -11    1    1    0    0    0 -0.26141775565E+01 -0.53481200841E+02  0.12920093630E+02  0.55081771825E+02  0.51100000000E-03 0. -1.
         11    1    1    0    0    0 -0.41406290580E+00 -0.72240020624E+01  0.16367796352E+01  0.74186725041E+01  0.51100000000E-03 0.  1.
         22    1    1    0    0    0  0.30282404623E+01  0.60705202903E+02 -0.14556873265E+02  0.62499555671E+02  0.00000000000E+00 0. -1.
</event>
<event>
 4    1  0.1956390E-002  0.9118800E+02  0.7818608E-02  0.1130116E+00
         25   -1    0    0    0    0  0.00000000000E+00  0.00000000000E+00  0.99999998245E-14  0.12500000000E+03  0.12500000000E+03 0.  0.
        -11    1    1    0    0    0  0.42284960449E+01 -0.48327175368E+01 -0.31482857638E+01  0.71517159552E+01  0.51100000000E-03 0. -1.
         11    1    1    0    0    0  0.32406152278E+02 -0.37483592297E+02 -0.24663037834E+02  0.55348385997E+02  0.51100000000E-03 0.  1.
         22    1    1    0    0    0 -0.36634648323E+02  0.42316309834E+02  0.27811323598E+02  0.62499898048E+02  0.00000000000E+00 0.  1.
</event>
<event>
 4    1  0.1956390E-002  0.9118800E+02  0.7818608E-02  0.1130116E+00
         25   -1    0    0    0    0  0.00000000000E+00  0.00000000000E+00  0.99999998245E-14  0.12500000000E+03  0.12500000000E+03 0.  0.
        -11    1    1    0    0    0  0.87930203070E+01 -0.25945575131E+01  0.84332395307E+01  0.12456663440E+02  0.51100000000E-03 0.  1.
         11    1    1    0    0    0  0.34755847087E+02 -0.10764666820E+02  0.34359211107E+02  0.50044004103E+02  0.51100000000E-03 0. -1.
         22    1    1    0    0    0 -0.43548867394E+02  0.13359224333E+02 -0.42792450637E+02  0.62499332458E+02  0.00000000000E+00 0. -1.
</event>
<event>
 4    1  0.1956390E-002  0.9118800E+02  0.7818608E-02  0.1130116E+00
         25   -1    0    0    0    0  0.00000000000E+00  0.00000000000E+00  0.99999998245E-14  0.12500000000E+03  0.12500000000E+03 0.  0.
        -11    1    1    0    0    0 -0.60154439817E+01 -0.49547939070E+00 -0.54413994281E+01  0.81264933472E+01  0.51100000000E-03 0.  1.
         11    1    1    0    0    0 -0.40215384851E+02 -0.32670172130E+01 -0.36448977756E+02  0.54373509726E+02  0.51100000000E-03 0. -1.
         22    1    1    0    0    0  0.46230828832E+02  0.37624966037E+01  0.41890377184E+02  0.62499996927E+02  0.00000000000E+00 0. -1.
</event>
<event>
 4    1  0.1956390E-002  0.9118800E+02  0.7818608E-02  0.1130116E+00
         25   -1    0    0    0    0  0.00000000000E+00  0.00000000000E+00  0.99999998245E-14  0.12500000000E+03  0.12500000000E+03 0.  0.
        -11    1    1    0    0    0 -0.38049697836E+02 -0.33893165680E+00  0.23853268084E+02  0.44909606752E+02  0.51100000000E-03 0. -1.
         11    1    1    0    0    0 -0.87681672189E+01  0.22730713873E+02 -0.10312761189E+02  0.26455985205E+02  0.51100000000E-03 0.  1.
         22    1    1    0    0    0  0.46817865055E+02 -0.22391782216E+02 -0.13540506894E+02  0.53634408043E+02  0.00000000000E+00 0. -1.
</event>
<event>
 4    1  0.1956390E-002  0.9118800E+02  0.7818608E-02  0.1130116E+00
         25   -1    0    0    0    0  0.00000000000E+00  0.00000000000E+00  0.99999998245E-14  0.12500000000E+03  0.12500000000E+03 0.  0.
        -11    1    1    0    0    0 -0.10153790948E+02 -0.36722765807E+02  0.18841967741E+02  0.42505067318E+02  0.51100000000E-03 0.  1.
         11    1    1    0    0    0 -0.56599382169E+01 -0.16044989354E+02  0.10588365710E+02  0.20039712389E+02  0.51100000000E-03 0. -1.
         22    1    1    0    0    0  0.15813729165E+02  0.52767755160E+02 -0.29430333451E+02  0.62455220293E+02  0.00000000000E+00 0.  1.
</event>
<event>
 4    1  0.1956390E-002  0.9118800E+02  0.7818608E-02  0.1130116E+00
         25   -1    0    0    0    0  0.00000000000E+00  0.00000000000E+00  0.99999998245E-14  0.12500000000E+03  0.12500000000E+03 0.  0.
        -11    1    1    0    0    0 -0.55433140223E+02 -0.21197416649E+02 -0.13069490680E+02  0.60769853500E+02  0.51100000000E-03 0.  1.
         11    1    1    0    0    0 -0.15069546465E+01 -0.70209797896E+00 -0.49393672602E+00  0.17343089774E+01  0.51100000000E-03 0. -1.
         22    1    1    0    0    0  0.56940094869E+02  0.21899514628E+02  0.13563427406E+02  0.62495837522E+02  0.00000000000E+00 0.  1.
</event>
<event>
 4    1  0.1956390E-002  0.9118800E+02  0.7818608E-02  0.1130116E+00
         25   -1    0    0    0    0  0.00000000000E+00  0.00000000000E+00  0.99999998245E-14  0.12500000000E+03  0.12500000000E+03 0.  0.
        -11    1    1    0    0    0  0.49579236360E+02  0.13928215815E+02 -0.72205171812E+01  0.52002228245E+02  0.51100000000E-03 0.  1.
         11    1    1    0    0    0  0.10198246830E+02  0.12052839765E+01 -0.25096650737E+01  0.10571441099E+02  0.51100000000E-03 0. -1.
         22    1    1    0    0    0 -0.59777483190E+02 -0.15133499792E+02  0.97301822549E+01  0.62426330656E+02  0.00000000000E+00 0.  1.
</event>
<event>
 4    1  0.1956390E-002  0.9118800E+02  0.7818608E-02  0.1130116E+00
         25   -1    0    0    0    0  0.00000000000E+00  0.00000000000E+00  0.99999998245E-14  0.12500000000E+03  0.12500000000E+03 0.  0.
        -11    1    1    0    0    0 -0.25761509836E+01  0.45569129430E+01 -0.32684815209E+01  0.61713030370E+01  0.51100000000E-03 0. -1.
         11    1    1    0    0    0 -0.23560136865E+02  0.41438829177E+02 -0.30011136904E+02  0.56328722258E+02  0.51100000000E-03 0.  1.
         22    1    1    0    0    0  0.26136287848E+02 -0.45995742120E+02  0.33279618425E+02  0.62499974705E+02  0.00000000000E+00 0.  1.
</event>
<event>
 4    1  0.1956390E-002  0.9118800E+02  0.7818608E-02  0.1130116E+00
         25   -1    0    0    0    0  0.00000000000E+00  0.00000000000E+00  0.99999998245E-14  0.12500000000E+03  0.12500000000E+03 0.  0.
        -11    1    1    0    0    0 -0.15993703145E+02 -0.33190805064E+01 -0.13578819227E+02  0.21241449281E+02  0.51100000000E-03 0. -1.
         11    1    1    0    0    0 -0.31073532980E+02 -0.64304842664E+01 -0.26369537143E+02  0.41258551467E+02  0.51100000000E-03 0.  1.
         22    1    1    0    0    0  0.47067236126E+02  0.97495647728E+01  0.39948356370E+02  0.62499999251E+02  0.00000000000E+00 0.  1.
</event>
<event>
 4    1  0.1956390E-002  0.9118800E+02  0.7818608E-02  0.1130116E+00
         25   -1    0    0    0    0  0.00000000000E+00  0.00000000000E+00  0.99999998245E-14  0.12500000000E+03  0.12500000000E+03 0.  0.
        -11    1    1    0    0    0 -0.42699492625E+00  0.78072212491E+01 -0.11307235696E+02  0.13747312743E+02  0.51100000000E-03 0.  1.
         11    1    1    0    0    0 -0.54880493001E+02 -0.56446582750E+01  0.86045998097E+01  0.55836993269E+02  0.51100000000E-03 0. -1.
         22    1    1    0    0    0  0.55307487928E+02 -0.21625629741E+01  0.27026358867E+01  0.55415693988E+02  0.00000000000E+00 0. -1.
</event>
<event>
 4    1  0.1956390E-002  0.9118800E+02  0.7818608E-02  0.1130116E+00
         25   -1    0    0    0    0  0.00000000000E+00  0.00000000000E+00  0.99999998245E-14  0.12500000000E+03  0.12500000000E+03 0.  0.
        -11    1    1    0    0    0  0.61167570682E+01 -0.16496513984E+00  0.78560859786E+01  0.99579123160E+01  0.51100000000E-03 0. -1.
         11    1    1    0    0    0  0.33633280209E+02 -0.28272126713E+01  0.40274593349E+02  0.52547440840E+02  0.51100000000E-03 0.  1.
         22    1    1    0    0    0 -0.39750037278E+02  0.29921778111E+01 -0.48130679328E+02  0.62494646844E+02  0.00000000000E+00 0.  1.
</event>
<event>
 4    1  0.1956390E-002  0.9118800E+02  0.7818608E-02  0.1130116E+00
         25   -1    0    0    0    0  0.00000000000E+00  0.00000000000E+00  0.99999998245E-14  0.12500000000E+03  0.12500000000E+03 0.  0.
        -11    1    1    0    0    0  0.54175056434E+01  0.25637191662E+02 -0.18239470043E+02  0.31926372037E+02  0.51100000000E-03 0.  1.
         11    1    1    0    0    0  0.21136647835E+01  0.22776844642E+02 -0.20419226979E+02  0.30662632981E+02  0.51100000000E-03 0. -1.
         22    1    1    0    0    0 -0.75311704269E+01 -0.48414036304E+02  0.38658697022E+02  0.62410994982E+02  0.00000000000E+00 0. -1.
</event>
<event>
 4    1  0.1956390E-002  0.9118800E+02  0.7818608E-02  0.1130116E+00
         25   -1    0    0    0    0  0.00000000000E+00  0.00000000000E+00  0.99999998245E-14  0.12500000000E+03  0.12500000000E+03 0.  0.
        -11    1    1    0    0    0 -0.22872319373E+02 -0.64745565389E+01  0.47187694989E+00  0.23775734352E+02  0.51100000000E-03 0.  1.
         11    1    1    0    0    0 -0.37575533196E+02 -0.92505750854E+01  0.15948210562E+01  0.38730314856E+02  0.51100000000E-03 0. -1.
         22    1    1    0    0    0  0.60447852569E+02  0.15725131624E+02 -0.20666980061E+01  0.62493950791E+02  0.00000000000E+00 0. -1.
</event>
<event>
 4    1  0.1956390E-002  0.9118800E+02  0.7818608E-02  0.1130116E+00
         25   -1    0    0    0    0  0.00000000000E+00  0.00000000000E+00  0.99999998245E-14  0.12500000000E+03  0.12500000000E+03 0.  0.
        -11    1    1    0    0    0 -0.80956652480E+01  0.50210325647E+02  0.25936693136E+02  0.57090530287E+02  0.51100000000E-03 0. -1.
         11    1    1    0    0    0 -0.77623912920E+00  0.47579254364E+01  0.24539773913E+01  0.54094738138E+01  0.51100000000E-03 0.  1.
         22    1    1    0    0    0  0.88719043772E+01 -0.54968251083E+02 -0.28390670528E+02  0.62499995899E+02  0.00000000000E+00 0. -1.
</event>
<event>
 4    1  0.1956390E-002  0.9118800E+02  0.7818608E-02  0.1130116E+00
         25   -1    0    0    0    0  0.00000000000E+00  0.00000000000E+00  0.99999998245E-14  0.12500000000E+03  0.12500000000E+03 0.  0.
        -11    1    1    0    0    0 -0.94031580022E+01 -0.49186363854E+02 -0.31129571072E+02  0.58964124389E+02  0.51100000000E-03 0. -1.
         11    1    1    0    0    0 -0.38540982674E+00 -0.31396731882E+01 -0.16005825798E+01  0.35451309312E+01  0.51100000000E-03 0.  1.
         22    1    1    0    0    0  0.97885678290E+01  0.52326037042E+02  0.32730153651E+02  0.62490744680E+02  0.00000000000E+00 0. -1.
</event>
<event>
 4    1  0.1956390E-002  0.9118800E+02  0.7818608E-02  0.1130116E+00
         25   -1    0    0    0    0  0.00000000000E+00  0.00000000000E+00  0.99999998245E-14  0.12500000000E+03  0.12500000000E+03 0.  0.
        -11    1    1    0    0    0 -0.54594466969E+02 -0.94499058664E+00 -0.23693044602E+02  0.59521501943E+02  0.51100000000E-03 0. -1.
         11    1    1    0    0    0 -0.27465261204E+01 -0.11626326734E+00 -0.11478560131E+01  0.29790093262E+01  0.51100000000E-03 0.  1.
         22    1    1    0    0    0  0.57340993089E+02  0.10612538540E+01  0.24840900615E+02  0.62499488730E+02  0.00000000000E+00 0. -1.
</event>
<event>
 4    1  0.1956390E-002  0.9118800E+02  0.7818608E-02  0.1130116E+00
         25   -1    0    0    0    0  0.00000000000E+00  0.00000000000E+00  0.99999998245E-14  0.12500000000E+03  0.12500000000E+03 0.  0.
        -11    1    1    0    0    0  0.30975615839E+01 -0.27805941001E+02 -0.39618477732E+02  0.48501433182E+02  0.51100000000E-03 0.  1.
         11    1    1    0    0    0  0.84578929609E+00 -0.77344544995E+01 -0.11639274300E+02  0.14000351868E+02  0.51100000000E-03 0. -1.
         22    1    1    0    0    0 -0.39433508800E+01  0.35540395500E+02  0.51257752032E+02  0.62498214949E+02  0.00000000000E+00 0.  1.
</event>
<event>
 4    1  0.1956390E-002  0.9118800E+02  0.7818608E-02  0.1130116E+00
         25   -1    0    0    0    0  0.00000000000E+00  0.00000000000E+00  0.99999998245E-14  0.12500000000E+03  0.12500000000E+03 0.  0.
        -11    1    1    0    0    0 -0.63912402646E+00 -0.21934985863E+02 -0.46188539709E+02  0.51136418383E+02  0.51100000000E-03 0.  1.
         11    1    1    0    0    0 -0.13374917530E+00 -0.48738404556E+01 -0.10264443758E+02  0.11363582866E+02  0.51100000000E-03 0. -1.
         22    1    1    0    0    0  0.77287320177E+00  0.26808826319E+02  0.56452983467E+02  0.62499998751E+02  0.00000000000E+00 0.  1.
</event>
<event>
 4    1  0.1956390E-002  0.9118800E+02  0.7818608E-02  0.1130116E+00
         25   -1    0    0    0    0  0.00000000000E+00  0.00000000000E+00  0.99999998245E-14  0.12500000000E+03  0.12500000000E+03 0.  0.
        -11    1    1    0    0    0  0.18259196108E+01 -0.14001160044E+02  0.13729093401E+02  0.19694021196E+02  0.51100000000E-03 0.  1.
         11    1    1    0    0    0  0.31029406025E+01 -0.33219775086E+02  0.26868299107E+02  0.42837917717E+02  0.51100000000E-03 0. -1.
         22    1    1    0    0    0 -0.49288602133E+01  0.47220935130E+02 -0.40597392508E+02  0.62468061087E+02  0.00000000000E+00 0. -1.
</event>
<event>
 4    1  0.1956390E-002  0.9118800E+02  0.7818608E-02  0.1130116E+00
         25   -1    0    0    0    0  0.00000000000E+00  0.00000000000E+00  0.99999998245E-14  0.12500000000E+03  0.12500000000E+03 0.  0.
        -11    1    1    0    0    0 -0.30551146932E+01  0.35693970012E+01  0.36195282619E+00  0.47122532668E+01  0.51100000000E-03 0. -1.
         11    1    1    0    0    0 -0.44951369290E+02  0.36333962424E+02 -0.21117743824E+01  0.57838067203E+02  0.51100000000E-03 0.  1.
         22    1    1    0    0    0  0.48006483983E+02 -0.39903359426E+02  0.17498215562E+01  0.62449679530E+02  0.00000000000E+00 0.  1.
</event>
<event>
 4    1  0.1956390E-002  0.9118800E+02  0.7818608E-02  0.1130116E+00
         25   -1    0    0    0    0  0.00000000000E+00  0.00000000000E+00  0.99999998245E-14  0.12500000000E+03  0.12500000000E+03 0.  0.
        -11    1    1    0    0    0 -0.33671638775E+01 -0.15349375603E+02  0.34897396819E+02  0.38272306293E+02  0.51100000000E-03 0.  1.
         11    1    1    0    0    0 -0.23844425468E+01 -0.96256155800E+01  0.22105775020E+02  0.24228151623E+02  0.51100000000E-03 0. -1.
         22    1    1    0    0    0  0.57516064242E+01  0.24974991183E+02 -0.57003171839E+02  0.62499542084E+02  0.00000000000E+00 0.  1.
</event>
<event>
 4    1  0.1956390E-002  0.9118800E+02  0.7818608E-02  0.1130116E+00
         25   -1    0    0    0    0  0.00000000000E+00  0.00000000000E+00  0.99999998245E-14  0.12500000000E+03  0.12500000000E+03 0.  0.
        -11    1    1    0    0    0 -0.27294582305E+02 -0.38480731759E+02 -0.36272396002E+02  0.59510063451E+02  0.51100000000E-03 0.  1.
         11    1    1    0    0    0 -0.13705612407E+01 -0.19329280283E+01 -0.18234781305E+01  0.29899367269E+01  0.51100000000E-03 0. -1.
         22    1    1    0    0    0  0.28665143545E+02  0.40413659787E+02  0.38095874133E+02  0.62499999823E+02  0.00000000000E+00 0.  1.
</event>
<event>
 4    1  0.1956390E-002  0.9118800E+02  0.7818608E-02  0.1130116E+00
         25   -1    0    0    0    0  0.00000000000E+00  0.00000000000E+00  0.99999998245E-14  0.12500000000E+03  0.12500000000E+03 0.  0.
        -11    1    1    0    0    0 -0.13706835336E+01  0.12374953936E+01 -0.16792604215E+02  0.16893836888E+02  0.51100000000E-03 0.  1.
         11    1    1    0    0    0 -0.37003897197E+01  0.33399281281E+01 -0.45332925233E+02  0.45606163119E+02  0.51100000000E-03 0.  1.
         22    1    1    0    0    0  0.50710732533E+01 -0.45774235217E+01  0.62125529448E+02  0.62499999994E+02  0.00000000000E+00 0.  1.
</event>
<event>
 4    1  0.1956390E-002  0.9118800E+02  0.7818608E-02  0.1130116E+00
         25   -1    0    0    0    0  0.00000000000E+00  0.00000000000E+00  0.99999998245E-14  0.12500000000E+03  0.12500000000E+03 0.  0.
        -11    1    1    0    0    0 -0.40089687795E+02 -0.33546743283E+01 -0.31498403874E+02  0.51093897426E+02  0.51100000000E-03 0.  1.
         11    1    1    0    0    0 -0.48906038643E+01  0.36331190147E+01 -0.10646244105E+02  0.12266216765E+02  0.51100000000E-03 0. -1.
         22    1    1    0    0    0  0.44980291659E+02 -0.27844468635E+00  0.42144647979E+02  0.61639885808E+02  0.00000000000E+00 0.  1.
</event>
<event>
 4    1  0.1956390E-002  0.9118800E+02  0.7818608E-02  0.1130116E+00
         25   -1    0    0    0    0  0.00000000000E+00  0.00000000000E+00  0.99999998245E-14  0.12500000000E+03  0.12500000000E+03 0.  0.
        -11    1    1    0    0    0 -0.42682106930E+02 -0.29019224500E+02  0.18516715108E+02  0.54833806919E+02  0.51100000000E-03 0. -1.
         11    1    1    0    0    0  0.10460934621E+02 -0.98054930162E+01  0.40451983824E+01  0.14897733943E+02  0.51100000000E-03 0.  1.
         22    1    1    0    0    0  0.32221172309E+02  0.38824717516E+02 -0.22561913490E+02  0.55268459138E+02  0.00000000000E+00 0. -1.
</event>
<event>
 4    1  0.1956390E-002  0.9118800E+02  0.7818608E-02  0.1130116E+00
         25   -1    0    0    0    0  0.00000000000E+00  0.00000000000E+00  0.99999998245E-14  0.12500000000E+03  0.12500000000E+03 0.  0.
        -11    1    1    0    0    0 -0.55622638839E+01 -0.48284952861E+02  0.14038591168E+02  0.50591081176E+02  0.51100000000E-03 0.  1.
         11    1    1    0    0    0 -0.12161139841E+01 -0.11333432082E+02  0.34509926991E+01  0.11909448637E+02  0.51100000000E-03 0. -1.
         22    1    1    0    0    0  0.67783778680E+01  0.59618384943E+02 -0.17489583868E+02  0.62499470186E+02  0.00000000000E+00 0.  1.
</event>
<event>
 4    1  0.1956390E-002  0.9118800E+02  0.7818608E-02  0.1130116E+00
         25   -1    0    0    0    0  0.00000000000E+00  0.00000000000E+00  0.99999998245E-14  0.12500000000E+03  0.12500000000E+03 0.  0.
        -11    1    1    0    0    0 -0.88939654363E+01 -0.50723794091E+02 -0.76856788920E+01  0.52067989864E+02  0.51100000000E-03 0.  1.
         11    1    1    0    0    0 -0.13882891569E+01 -0.10273928644E+02 -0.12088193765E+01  0.10437538078E+02  0.51100000000E-03 0. -1.
         22    1    1    0    0    0  0.10282254593E+02  0.60997722735E+02  0.88944982685E+01  0.62494472059E+02  0.00000000000E+00 0.  1.
</event>
<event>
 4    1  0.1956390E-002  0.9118800E+02  0.7818608E-02  0.1130116E+00
         25   -1    0    0    0    0  0.00000000000E+00  0.00000000000E+00  0.99999998245E-14  0.12500000000E+03  0.12500000000E+03 0.  0.
        -11    1    1    0    0    0  0.10566438053E+02 -0.41336226787E+01 -0.16233624207E+02  0.19805731613E+02  0.51100000000E-03 0.  1.
         11    1    1    0    0    0  0.22774985458E+02 -0.89106220512E+01 -0.34995734123E+02  0.42694268409E+02  0.51100000000E-03 0. -1.
         22    1    1    0    0    0 -0.33341423511E+02  0.13044244730E+02  0.51229358330E+02  0.62499999978E+02  0.00000000000E+00 0. -1.
</event>
<event>
 4    1  0.1956390E-002  0.9118800E+02  0.7818608E-02  0.1130116E+00
         25   -1    0    0    0    0  0.00000000000E+00  0.00000000000E+00  0.99999998245E-14  0.12500000000E+03  0.12500000000E+03 0.  0.
        -11    1    1    0    0    0 -0.36050255043E+02 -0.47722903302E+01  0.47052422366E+01  0.36667900791E+02  0.51100000000E-03 0.  1.
         11    1    1    0    0    0 -0.23507643225E+02  0.86522305253E+01  0.98207366309E+01  0.26905710384E+02  0.51100000000E-03 0. -1.
         22    1    1    0    0    0  0.59557898268E+02 -0.38799401950E+01 -0.14525978868E+02  0.61426388825E+02  0.00000000000E+00 0.  1.
</event>
<event>
 4    1  0.1956390E-002  0.9118800E+02  0.7818608E-02  0.1130116E+00
         25   -1    0    0    0    0  0.00000000000E+00  0.00000000000E+00  0.99999998245E-14  0.12500000000E+03  0.12500000000E+03 0.  0.
        -11    1    1    0    0    0 -0.23560184379E+02  0.33493245934E+01  0.13658071042E+02  0.27437987682E+02  0.51100000000E-03 0.  1.
         11    1    1    0    0    0 -0.30022050351E+02  0.42149770324E+01  0.17614294462E+02  0.35062129261E+02  0.51100000000E-03 0. -1.
         22    1    1    0    0    0  0.53582234730E+02 -0.75643016258E+01 -0.31272365505E+02  0.62499883056E+02  0.00000000000E+00 0.  1.
</event>
<event>
 4    1  0.1956390E-002  0.9118800E+02  0.7818608E-02  0.1130116E+00
         25   -1    0    0    0    0  0.00000000000E+00  0.00000000000E+00  0.99999998245E-14  0.12500000000E+03  0.12500000000E+03 0.  0.
        -11    1    1    0    0    0 -0.85790693150E+01 -0.36301034200E+01 -0.19524775443E+00  0.93175212958E+01  0.51100000000E-03 0.  1.
         11    1    1    0    0    0 -0.49100106635E+02 -0.19241233633E+02  0.72612919982E+01  0.53233184247E+02  0.51100000000E-03 0. -1.
         22    1    1    0    0    0  0.57679175950E+02  0.22871337053E+02 -0.70660442438E+01  0.62449294457E+02  0.00000000000E+00 0. -1.
</event>
<event>
 4    1  0.1956390E-002  0.9118800E+02  0.7818608E-02  0.1130116E+00
         25   -1    0    0    0    0  0.00000000000E+00  0.00000000000E+00  0.99999998245E-14  0.12500000000E+03  0.12500000000E+03 0.  0.
        -11    1    1    0    0    0  0.44541115168E+01  0.14571515706E+02  0.78078336634E+01  0.17121052717E+02  0.51100000000E-03 0.  1.
         11    1    1    0    0    0  0.11801295009E+02  0.38563587682E+02  0.20804569670E+02  0.45378970660E+02  0.51100000000E-03 0. -1.
         22    1    1    0    0    0 -0.16255406525E+02 -0.53135103388E+02 -0.28612403333E+02  0.62499976623E+02  0.00000000000E+00 0. -1.
</event>
<event>
 4    1  0.1956390E-002  0.9118800E+02  0.7818608E-02  0.1130116E+00
         25   -1    0    0    0    0  0.00000000000E+00  0.00000000000E+00  0.99999998245E-14  0.12500000000E+03  0.12500000000E+03 0.  0.
        -11    1    1    0    0    0 -0.20929910127E+01 -0.16575782412E+01 -0.26823601867E+01  0.37846047927E+01  0.51100000000E-03 0.  1.
         11    1    1    0    0    0 -0.81393525337E+01 -0.49595497233E+02 -0.30987884686E+02  0.59044147915E+02  0.51100000000E-03 0. -1.
         22    1    1    0    0    0  0.10232343546E+02  0.51253075474E+02  0.33670244873E+02  0.62171247292E+02  0.00000000000E+00 0. -1.
</event>
<event>
 4    1  0.1956390E-002  0.9118800E+02  0.7818608E-02  0.1130116E+00
         25   -1    0    0    0    0  0.00000000000E+00  0.00000000000E+00  0.99999998245E-14  0.12500000000E+03  0.12500000000E+03 0.  0.
        -11    1    1    0    0    0 -0.12954004861E+01 -0.69543904509E+01  0.11025354046E+02  0.13099619882E+02  0.51100000000E-03 0.  1.
         11    1    1    0    0    0  0.26166819469E+00 -0.30256053780E+02  0.39115423667E+02  0.49452134731E+02  0.51100000000E-03 0. -1.
         22    1    1    0    0    0  0.10337322914E+01  0.37210444231E+02 -0.50140777712E+02  0.62448245387E+02  0.00000000000E+00 0. -1.
</event>
<event>
 4    1  0.1956390E-002  0.9118800E+02  0.7818608E-02  0.1130116E+00
         25   -1    0    0    0    0  0.00000000000E+00  0.00000000000E+00  0.99999998245E-14  0.12500000000E+03  0.12500000000E+03 0.  0.
        -11    1    1    0    0    0  0.50502408646E+01 -0.54169488387E+02 -0.21286206044E+02  0.58420381485E+02  0.51100000000E-03 0.  1.
         11    1    1    0    0    0  0.86449590439E+00 -0.28686902061E+01 -0.30588931686E+01  0.42817711692E+01  0.51100000000E-03 0. -1.
         22    1    1    0    0    0 -0.59147367690E+01  0.57038178593E+02  0.24345099213E+02  0.62297847346E+02  0.00000000000E+00 0.  1.
</event>
<event>
 4    1  0.1956390E-002  0.9118800E+02  0.7818608E-02  0.1130116E+00
         25   -1    0    0    0    0  0.00000000000E+00  0.00000000000E+00  0.99999998245E-14  0.12500000000E+03  0.12500000000E+03 0.  0.
        -11    1    1    0    0    0 -0.72681080939E+01  0.38944833487E+02 -0.48891600109E+01  0.39917782209E+02  0.51100000000E-03 0. -1.
         11    1    1    0    0    0 -0.40459876739E+01  0.22037099633E+02 -0.28204828784E+01  0.22582269603E+02  0.51100000000E-03 0.  1.
         22    1    1    0    0    0  0.11314095768E+02 -0.60981933120E+02  0.77096428893E+01  0.62499948188E+02  0.00000000000E+00 0. -1.
</event>
<event>
 4    1  0.1956390E-002  0.9118800E+02  0.7818608E-02  0.1130116E+00
         25   -1    0    0    0    0  0.00000000000E+00  0.00000000000E+00  0.99999998245E-14  0.12500000000E+03  0.12500000000E+03 0.  0.
        -11    1    1    0    0    0 -0.29289515034E+01 -0.32754731621E+01  0.21663548644E+01  0.48990381713E+01  0.51100000000E-03 0.  1.
         11    1    1    0    0    0 -0.34485117598E+02 -0.38313220295E+02  0.25705026687E+02  0.57600994630E+02  0.51100000000E-03 0. -1.
         22    1    1    0    0    0  0.37414069102E+02  0.41588693457E+02 -0.27871381552E+02  0.62499967198E+02  0.00000000000E+00 0. -1.
</event>
<event>
 4    1  0.1956390E-002  0.9118800E+02  0.7818608E-02  0.1130116E+00
         25   -1    0    0    0    0  0.00000000000E+00  0.00000000000E+00  0.99999998245E-14  0.12500000000E+03  0.12500000000E+03 0.  0.
        -11    1    1    0    0    0 -0.75860416313E+01 -0.16760411199E+01  0.11126758732E+02  0.13570626426E+02  0.51100000000E-03 0.  1.
         11    1    1    0    0    0 -0.42602323434E+02 -0.29371842692E+02 -0.76826214779E+01  0.52313342258E+02  0.51100000000E-03 0. -1.
         22    1    1    0    0    0  0.50188365065E+02  0.31047883812E+02 -0.34441372538E+01  0.59116031316E+02  0.00000000000E+00 0. -1.
</event>
<event>
 4    1  0.1956390E-002  0.9118800E+02  0.7818608E-02  0.1130116E+00
         25   -1    0    0    0    0  0.00000000000E+00  0.00000000000E+00  0.99999998245E-14  0.12500000000E+03  0.12500000000E+03 0.  0.
        -11    1    1    0    0    0 -0.22575658034E+02 -0.10717566595E+01 -0.79351660803E+01  0.23953618912E+02  0.51100000000E-03 0. -1.
         11    1    1    0    0    0 -0.34989472491E+02 -0.21636158011E+01 -0.16105705930E+02  0.38578986278E+02  0.51100000000E-03 0.  1.
         22    1    1    0    0    0  0.57565130525E+02  0.32353724605E+01  0.24040872010E+02  0.62467394809E+02  0.00000000000E+00 0.  1.
</event>
<event>
 4    1  0.1956390E-002  0.9118800E+02  0.7818608E-02  0.1130116E+00
         25   -1    0    0    0    0  0.00000000000E+00  0.00000000000E+00  0.99999998245E-14  0.12500000000E+03  0.12500000000E+03 0.  0.
        -11    1    1    0    0    0  0.23395318919E+02  0.25496382744E+02  0.41063179575E+01  0.34846353149E+02  0.51100000000E-03 0.  1.
         11    1    1    0    0    0  0.18576996292E+02  0.20256206847E+02  0.30524599624E+01  0.27653864453E+02  0.51100000000E-03 0. -1.
         22    1    1    0    0    0 -0.41972315211E+02 -0.45752589592E+02 -0.71587779198E+01  0.62499782398E+02  0.00000000000E+00 0. -1.
</event>
<event>
 4    1  0.1956390E-002  0.9118800E+02  0.7818608E-02  0.1130116E+00
         25   -1    0    0    0    0  0.00000000000E+00  0.00000000000E+00  0.99999998245E-14  0.12500000000E+03  0.12500000000E+03 0.  0.
        -11    1    1    0    0    0  0.50627366666E+01 -0.21168297306E+02  0.19615893377E+01  0.21853511077E+02  0.51100000000E-03 0. -1.
         11    1    1    0    0    0  0.94133818130E+01 -0.39372432926E+02  0.36519630393E+01  0.40646488975E+02  0.51100000000E-03 0.  1.
         22    1    1    0    0    0 -0.14476118480E+02  0.60540730232E+02 -0.56135523770E+01  0.62499999948E+02  0.00000000000E+00 0.  1.
</event>
<event>
 4    1  0.1956390E-002  0.9118800E+02  0.7818608E-02  0.1130116E+00
         25   -1    0    0    0    0  0.00000000000E+00  0.00000000000E+00  0.99999998245E-14  0.12500000000E+03  0.12500000000E+03 0.  0.
        -11    1    1    0    0    0 -0.23405994175E+02  0.16394308498E+02  0.24458636088E+02  0.37614342929E+02  0.51100000000E-03 0. -1.
         11    1    1    0    0    0 -0.54374984229E+01  0.24181227911E+02  0.10120645230E+02  0.26771731967E+02  0.51100000000E-03 0.  1.
         22    1    1    0    0    0  0.28843492598E+02 -0.40575536409E+02 -0.34579281318E+02  0.60613925104E+02  0.00000000000E+00 0.  1.
</event>
<event>
 4    1  0.1956390E-002  0.9118800E+02  0.7818608E-02  0.1130116E+00
         25   -1    0    0    0    0  0.00000000000E+00  0.00000000000E+00  0.99999998245E-14  0.12500000000E+03  0.12500000000E+03 0.  0.
        -11    1    1    0    0    0  0.31000325076E+02 -0.48870590674E+02  0.39494028357E+01  0.58008211235E+02  0.51100000000E-03 0. -1.
         11    1    1    0    0    0  0.24137761166E+01 -0.37767517768E+01  0.29355571050E+00  0.44918085824E+01  0.51100000000E-03 0.  1.
         22    1    1    0    0    0 -0.33414101193E+02  0.52647342450E+02 -0.42429585462E+01  0.62499980183E+02  0.00000000000E+00 0. -1.
</event>
<event>
 4    1  0.1956390E-002  0.9118800E+02  0.7818608E-02  0.1130116E+00
         25   -1    0    0    0    0  0.00000000000E+00  0.00000000000E+00  0.99999998245E-14  0.12500000000E+03  0.12500000000E+03 0.  0.
        -11    1    1    0    0    0 -0.26701225770E+01  0.22516023468E+02  0.34758531169E+02  0.41500076586E+02  0.51100000000E-03 0. -1.
         11    1    1    0    0    0 -0.13506065724E+01  0.11389193562E+02  0.17591444639E+02  0.20999923639E+02  0.51100000000E-03 0.  1.
         22    1    1    0    0    0  0.40207291494E+01 -0.33905217030E+02 -0.52349975808E+02  0.62499999775E+02  0.00000000000E+00 0. -1.
</event>
<event>
 4    1  0.1956390E-002  0.9118800E+02  0.7818608E-02  0.1130116E+00
         25   -1    0    0    0    0  0.00000000000E+00  0.00000000000E+00  0.99999998245E-14  0.12500000000E+03  0.12500000000E+03 0.  0.
        -11    1    1    0    0    0 -0.24503374338E-01 -0.17471906277E+00  0.31642125648E+00  0.36228419634E+00  0.51100000000E-03 0.  1.
         11    1    1    0    0    0 -0.45209523663E+01 -0.31077350733E+02  0.53617722003E+02  0.62137757056E+02  0.51100000000E-03 0. -1.
         22    1    1    0    0    0  0.45454557406E+01  0.31252069795E+02 -0.53934143259E+02  0.62499958748E+02  0.00000000000E+00 0. -1.
</event>
<event>
 4    1  0.1956390E-002  0.9118800E+02  0.7818608E-02  0.1130116E+00
         25   -1    0    0    0    0  0.00000000000E+00  0.00000000000E+00  0.99999998245E-14  0.12500000000E+03  0.12500000000E+03 0.  0.
        -11    1    1    0    0    0  0.41932718111E+02 -0.19706089496E+02  0.23667435045E+02  0.52027207241E+02  0.51100000000E-03 0.  1.
         11    1    1    0    0    0  0.63900628663E+01 -0.47516773256E+01  0.71130809070E+01  0.10677418278E+02  0.51100000000E-03 0. -1.
         22    1    1    0    0    0 -0.48322780978E+02  0.24457766822E+02 -0.30780515952E+02  0.62295374480E+02  0.00000000000E+00 0.  1.
</event>
<event>
 4    1  0.1956390E-002  0.9118800E+02  0.7818608E-02  0.1130116E+00
         25   -1    0    0    0    0  0.00000000000E+00  0.00000000000E+00  0.99999998245E-14  0.12500000000E+03  0.12500000000E+03 0.  0.
        -11    1    1    0    0    0 -0.24076270855E+02  0.22449923673E+02 -0.16046927328E+02  0.36621984765E+02  0.51100000000E-03 0. -1.
         11    1    1    0    0    0 -0.17012537671E+02  0.15863969540E+02 -0.11339299137E+02  0.25878015240E+02  0.51100000000E-03 0. -1.
         22    1    1    0    0    0  0.41088808527E+02 -0.38313893213E+02  0.27386226465E+02  0.62499999994E+02  0.00000000000E+00 0. -1.
</event>
<event>
 4    1  0.1956390E-002  0.9118800E+02  0.7818608E-02  0.1130116E+00
         25   -1    0    0    0    0  0.00000000000E+00  0.00000000000E+00  0.99999998245E-14  0.12500000000E+03  0.12500000000E+03 0.  0.
        -11    1    1    0    0    0 -0.57338710801E+01 -0.16089036530E+02 -0.45093825300E+01  0.17665472116E+02  0.51100000000E-03 0. -1.
         11    1    1    0    0    0 -0.14432680207E+02 -0.40891035561E+02 -0.11391169453E+02  0.44834560207E+02  0.51100000000E-03 0.  1.
         22    1    1    0    0    0  0.20166551287E+02  0.56980072091E+02  0.15900551983E+02  0.62499967677E+02  0.00000000000E+00 0.  1.
</event>
<event>
 4    1  0.1956390E-002  0.9118800E+02  0.7818608E-02  0.1130116E+00
         25   -1    0    0    0    0  0.00000000000E+00  0.00000000000E+00  0.99999998245E-14  0.12500000000E+03  0.12500000000E+03 0.  0.
        -11    1    1    0    0    0 -0.10453985645E+02 -0.56462314098E+01  0.15110757763E+01  0.11977023640E+02  0.51100000000E-03 0. -1.
         11    1    1    0    0    0  0.39133688379E+02  0.46485901312E+02 -0.12223412568E+02  0.61982226501E+02  0.51100000000E-03 0.  1.
         22    1    1    0    0    0 -0.28679702734E+02 -0.40839669903E+02  0.10712336792E+02  0.51040749859E+02  0.00000000000E+00 0.  1.
</event>
<event>
 4    1  0.1956390E-002  0.9118800E+02  0.7818608E-02  0.1130116E+00
         25   -1    0    0    0    0  0.00000000000E+00  0.00000000000E+00  0.99999998245E-14  0.12500000000E+03  0.12500000000E+03 0.  0.
        -11    1    1    0    0    0 -0.19622440908E+02 -0.18007937659E+02  0.30500556270E+02  0.40492097240E+02  0.51100000000E-03 0. -1.
         11    1    1    0    0    0 -0.10667874989E+02 -0.97834320664E+01  0.16577958022E+02  0.22007902949E+02  0.51100000000E-03 0.  1.
         22    1    1    0    0    0  0.30290315897E+02  0.27791369725E+02 -0.47078514292E+02  0.62499999810E+02  0.00000000000E+00 0. -1.
</event>
<event>
 4    1  0.1956390E-002  0.9118800E+02  0.7818608E-02  0.1130116E+00
         25   -1    0    0    0    0  0.00000000000E+00  0.00000000000E+00  0.99999998245E-14  0.12500000000E+03  0.12500000000E+03 0.  0.
        -11    1    1    0    0    0 -0.19244036639E+02 -0.24832356697E+02  0.10939793403E+01  0.31435261671E+02  0.51100000000E-03 0. -1.
         11    1    1    0    0    0 -0.19016868199E+02 -0.24539958088E+02  0.10803464949E+01  0.31064738336E+02  0.51100000000E-03 0. -1.
         22    1    1    0    0    0  0.38260904838E+02  0.49372314785E+02 -0.21743258352E+01  0.62499999993E+02  0.00000000000E+00 0. -1.
</event>
<event>
 4    1  0.1956390E-002  0.9118800E+02  0.7818608E-02  0.1130116E+00
         25   -1    0    0    0    0  0.00000000000E+00  0.00000000000E+00  0.99999998245E-14  0.12500000000E+03  0.12500000000E+03 0.  0.
        -11    1    1    0    0    0  0.34303493757E+01 -0.54398500592E+01 -0.96693247824E+00  0.65034009705E+01  0.51100000000E-03 0.  1.
         11    1    1    0    0    0  0.29637164040E+02 -0.46770581835E+02 -0.83529094193E+01  0.55996606269E+02  0.51100000000E-03 0. -1.
         22    1    1    0    0    0 -0.33067513416E+02  0.52210431894E+02  0.93198418975E+01  0.62499992761E+02  0.00000000000E+00 0. -1.
</event>
<event>
 4    1  0.1956390E-002  0.9118800E+02  0.7818608E-02  0.1130116E+00
         25   -1    0    0    0    0  0.00000000000E+00  0.00000000000E+00  0.99999998245E-14  0.12500000000E+03  0.12500000000E+03 0.  0.
        -11    1    1    0    0    0 -0.15288251608E+02 -0.38176448236E+02 -0.22270840625E+02  0.46767105743E+02  0.51100000000E-03 0. -1.
         11    1    1    0    0    0  0.34898878942E+01 -0.15729176908E+02 -0.47408764684E+01  0.16794708502E+02  0.51100000000E-03 0.  1.
         22    1    1    0    0    0  0.11798363714E+02  0.53905625144E+02  0.27011717094E+02  0.61438185755E+02  0.00000000000E+00 0. -1.
</event>
<event>
 4    1  0.1956390E-002  0.9118800E+02  0.7818608E-02  0.1130116E+00
         25   -1    0    0    0    0  0.00000000000E+00  0.00000000000E+00  0.99999998245E-14  0.12500000000E+03  0.12500000000E+03 0.  0.
        -11    1    1    0    0    0  0.50399688666E+02 -0.32464828436E+02 -0.23974089284E+01  0.59998677259E+02  0.51100000000E-03 0.  1.
         11    1    1    0    0    0  0.20791826519E+01 -0.13880937411E+01 -0.87694703583E-01  0.25014986221E+01  0.51100000000E-03 0. -1.
         22    1    1    0    0    0 -0.52478871318E+02  0.33852922177E+02  0.24851036320E+01  0.62499824118E+02  0.00000000000E+00 0.  1.
</event>
<event>
 4    1  0.1956390E-002  0.9118800E+02  0.7818608E-02  0.1130116E+00
         25   -1    0    0    0    0  0.00000000000E+00  0.00000000000E+00  0.99999998245E-14  0.12500000000E+03  0.12500000000E+03 0.  0.
        -11    1    1    0    0    0 -0.12267571798E+02 -0.22088157194E+02  0.39644982629E+02  0.47011750170E+02  0.51100000000E-03 0.  1.
         11    1    1    0    0    0 -0.40242607574E+01 -0.72895488683E+01  0.13059627036E+02  0.15488255419E+02  0.51100000000E-03 0. -1.
         22    1    1    0    0    0  0.16291832556E+02  0.29377706063E+02 -0.52704609665E+02  0.62499994412E+02  0.00000000000E+00 0.  1.
</event>
<event>
 4    1  0.1956390E-002  0.9118800E+02  0.7818608E-02  0.1130116E+00
         25   -1    0    0    0    0  0.00000000000E+00  0.00000000000E+00  0.99999998245E-14  0.12500000000E+03  0.12500000000E+03 0.  0.
        -11    1    1    0    0    0 -0.15730843916E+02  0.20561130375E+02 -0.29250013311E+02  0.39061269969E+02  0.51100000000E-03 0. -1.
         11    1    1    0    0    0 -0.92964447168E+01  0.12318887471E+02 -0.17640980229E+02  0.23438921831E+02  0.51100000000E-03 0.  1.
         22    1    1    0    0    0  0.25027288633E+02 -0.32880017846E+02  0.46890993540E+02  0.62499808200E+02  0.00000000000E+00 0. -1.
</event>
<event>
 4    1  0.1956390E-002  0.9118800E+02  0.7818608E-02  0.1130116E+00
         25   -1    0    0    0    0  0.00000000000E+00  0.00000000000E+00  0.99999998245E-14  0.12500000000E+03  0.12500000000E+03 0.  0.
        -11    1    1    0    0    0 -0.29465731916E+00 -0.11183198352E+02  0.36478635420E+02  0.38155492274E+02  0.51100000000E-03 0. -1.
         11    1    1    0    0    0 -0.18338397644E+00 -0.71237598182E+01  0.23278176980E+02  0.24344508773E+02  0.51100000000E-03 0.  1.
         22    1    1    0    0    0  0.47804129560E+00  0.18306958170E+02 -0.59756812400E+02  0.62499998953E+02  0.00000000000E+00 0. -1.
</event>
<event>
 4    1  0.1956390E-002  0.9118800E+02  0.7818608E-02  0.1130116E+00
         25   -1    0    0    0    0  0.00000000000E+00  0.00000000000E+00  0.99999998245E-14  0.12500000000E+03  0.12500000000E+03 0.  0.
        -11    1    1    0    0    0 -0.46980616030E+01  0.45466217505E+01 -0.32916046183E+01  0.73197140240E+01  0.51100000000E-03 0.  1.
         11    1    1    0    0    0 -0.35601763842E+02  0.33704437283E+02 -0.25326383976E+02  0.55180616223E+02  0.51100000000E-03 0. -1.
         22    1    1    0    0    0  0.40299825445E+02 -0.38251059033E+02  0.28617988594E+02  0.62499669753E+02  0.00000000000E+00 0. -1.
</event>
<event>
 4    1  0.1956390E-002  0.9118800E+02  0.7818608E-02  0.1130116E+00
         25   -1    0    0    0    0  0.00000000000E+00  0.00000000000E+00  0.99999998245E-14  0.12500000000E+03  0.12500000000E+03 0.  0.
        -11    1    1    0    0    0 -0.17410436254E+01  0.38292258607E+02  0.15824528262E+02  0.41469796202E+02  0.51100000000E-03 0. -1.
         11    1    1    0    0    0 -0.89049244324E+00  0.19418295498E+02  0.80253544492E+01  0.21030204258E+02  0.51100000000E-03 0.  1.
         22    1    1    0    0    0  0.26315360687E+01 -0.57710554105E+02 -0.23849882711E+02  0.62499999540E+02  0.00000000000E+00 0. -1.
</event>
<event>
 4    1  0.1956390E-002  0.9118800E+02  0.7818608E-02  0.1130116E+00
         25   -1    0    0    0    0  0.00000000000E+00  0.00000000000E+00  0.99999998245E-14  0.12500000000E+03  0.12500000000E+03 0.  0.
        -11    1    1    0    0    0  0.61447414463E+01  0.14775884460E+00 -0.91565087221E+01  0.11028206217E+02  0.51100000000E-03 0.  1.
         11    1    1    0    0    0  0.17760080927E+02 -0.41669816620E+02  0.37061281445E+02  0.58526341713E+02  0.51100000000E-03 0. -1.
         22    1    1    0    0    0 -0.23904822373E+02  0.41522057776E+02 -0.27904772723E+02  0.55445452071E+02  0.00000000000E+00 0. -1.
</event>
<event>
 4    1  0.1956390E-002  0.9118800E+02  0.7818608E-02  0.1130116E+00
         25   -1    0    0    0    0  0.00000000000E+00  0.00000000000E+00  0.99999998245E-14  0.12500000000E+03  0.12500000000E+03 0.  0.
        -11    1    1    0    0    0 -0.25462796972E+02 -0.77781944774E+00  0.11867591294E+02  0.28103358449E+02  0.51100000000E-03 0.  1.
         11    1    1    0    0    0 -0.31156800561E+02 -0.86297344752E+00  0.14547849247E+02  0.34396669350E+02  0.51100000000E-03 0. -1.
         22    1    1    0    0    0  0.56619597533E+02  0.16407928953E+01 -0.26415440541E+02  0.62499972201E+02  0.00000000000E+00 0.  1.
</event>
<event>
 4    1  0.1956390E-002  0.9118800E+02  0.7818608E-02  0.1130116E+00
         25   -1    0    0    0    0  0.00000000000E+00  0.00000000000E+00  0.99999998245E-14  0.12500000000E+03  0.12500000000E+03 0.  0.
        -11    1    1    0    0    0  0.24741338315E+01 -0.20999771523E+00 -0.68912202501E+01  0.73249132454E+01  0.51100000000E-03 0. -1.
         11    1    1    0    0    0  0.23568108301E+02  0.14173092018E+02 -0.48008765092E+02  0.55327875363E+02  0.51100000000E-03 0.  1.
         22    1    1    0    0    0 -0.26042242133E+02 -0.13963094303E+02  0.54899985342E+02  0.62347211392E+02  0.00000000000E+00 0. -1.
</event>
<event>
 4    1  0.1956390E-002  0.9118800E+02  0.7818608E-02  0.1130116E+00
         25   -1    0    0    0    0  0.00000000000E+00  0.00000000000E+00  0.99999998245E-14  0.12500000000E+03  0.12500000000E+03 0.  0.
        -11    1    1    0    0    0 -0.17590225263E+02  0.19592022550E+02 -0.45990432962E+02  0.52994181724E+02  0.51100000000E-03 0. -1.
         11    1    1    0    0    0 -0.32383152543E+01  0.36376934120E+01 -0.81641625779E+01  0.95064741048E+01  0.51100000000E-03 0.  1.
         22    1    1    0    0    0  0.20828540517E+02 -0.23229715962E+02  0.54154595539E+02  0.62499344171E+02  0.00000000000E+00 0. -1.
</event>
<event>
 4    1  0.1956390E-002  0.9118800E+02  0.7818608E-02  0.1130116E+00
         25   -1    0    0    0    0  0.00000000000E+00  0.00000000000E+00  0.99999998245E-14  0.12500000000E+03  0.12500000000E+03 0.  0.
        -11    1    1    0    0    0  0.47983648073E+01 -0.89214454396E+01 -0.41296362929E+01  0.10939396223E+02  0.51100000000E-03 0.  1.
         11    1    1    0    0    0 -0.36531863345E+00 -0.52324154209E+02 -0.18965671971E+01  0.52359789331E+02  0.51100000000E-03 0. -1.
         22    1    1    0    0    0 -0.44330461738E+01  0.61245599649E+02  0.60262034900E+01  0.61700814446E+02  0.00000000000E+00 0. -1.
</event>
<event>
 4    1  0.1956390E-002  0.9118800E+02  0.7818608E-02  0.1130116E+00
         25   -1    0    0    0    0  0.00000000000E+00  0.00000000000E+00  0.99999998245E-14  0.12500000000E+03  0.12500000000E+03 0.  0.
        -11    1    1    0    0    0  0.49008068021E+01  0.28018490646E+01  0.97927062527E+01  0.11303334088E+02  0.51100000000E-03 0. -1.
         11    1    1    0    0    0  0.26495107844E+02  0.10187808935E+02  0.42635907663E+02  0.51221116867E+02  0.51100000000E-03 0.  1.
         22    1    1    0    0    0 -0.31395914647E+02 -0.12989657999E+02 -0.52428613915E+02  0.62475549045E+02  0.00000000000E+00 0.  1.
</event>
<event>
 4    1  0.1956390E-002  0.9118800E+02  0.7818608E-02  0.1130116E+00
         25   -1    0    0    0    0  0.00000000000E+00  0.00000000000E+00  0.99999998245E-14  0.12500000000E+03  0.12500000000E+03 0.  0.
        -11    1    1    0    0    0  0.40762461788E+02 -0.11854759525E+02 -0.15814478034E+02  0.45301339165E+02  0.51100000000E-03 0. -1.
         11    1    1    0    0    0  0.15473867345E+02 -0.48083423127E+01 -0.57695267016E+01  0.17200237354E+02  0.51100000000E-03 0.  1.
         22    1    1    0    0    0 -0.56236329133E+02  0.16663101838E+02  0.21584004736E+02  0.62498423481E+02  0.00000000000E+00 0. -1.
</event>
<event>
 4    1  0.1956390E-002  0.9118800E+02  0.7818608E-02  0.1130116E+00
         25   -1    0    0    0    0  0.00000000000E+00  0.00000000000E+00  0.99999998245E-14  0.12500000000E+03  0.12500000000E+03 0.  0.
        -11    1    1    0    0    0  0.25747052606E+01  0.51580947860E+01 -0.17730942401E+02  0.18644606933E+02  0.51100000000E-03 0.  1.
         11    1    1    0    0    0 -0.12328108640E+01  0.21400046321E+02 -0.38549824082E+02  0.44108624352E+02  0.51100000000E-03 0. -1.
         22    1    1    0    0    0 -0.13418943965E+01 -0.26558141107E+02  0.56280766483E+02  0.62246768716E+02  0.00000000000E+00 0. -1.
</event>
<event>
 4    1  0.1956390E-002  0.9118800E+02  0.7818608E-02  0.1130116E+00
         25   -1    0    0    0    0  0.00000000000E+00  0.00000000000E+00  0.99999998245E-14  0.12500000000E+03  0.12500000000E+03 0.  0.
        -11    1    1    0    0    0 -0.11737993181E+02  0.18929065247E+02 -0.10958614394E+02  0.24822997899E+02  0.51100000000E-03 0. -1.
         11    1    1    0    0    0 -0.18055264104E+02  0.28602168765E+02 -0.16598034758E+02  0.37677199711E+02  0.51100000000E-03 0.  1.
         22    1    1    0    0    0  0.29793257284E+02 -0.47531234012E+02  0.27556649152E+02  0.62499802390E+02  0.00000000000E+00 0.  1.
</event>
<event>
 4    1  0.1956390E-002  0.9118800E+02  0.7818608E-02  0.1130116E+00
         25   -1    0    0    0    0  0.00000000000E+00  0.00000000000E+00  0.99999998245E-14  0.12500000000E+03  0.12500000000E+03 0.  0.
        -11    1    1    0    0    0  0.26699676807E+02  0.30916567973E+01  0.28642242596E+01  0.27030258308E+02  0.51100000000E-03 0.  1.
         11    1    1    0    0    0  0.35025647865E+02  0.40888148630E+01  0.38195824000E+01  0.35469756488E+02  0.51100000000E-03 0. -1.
         22    1    1    0    0    0 -0.61725324671E+02 -0.71804716603E+01 -0.66838066596E+01  0.62499985204E+02  0.00000000000E+00 0.  1.
</event>
<event>
 4    1  0.1956390E-002  0.9118800E+02  0.7818608E-02  0.1130116E+00
         25   -1    0    0    0    0  0.00000000000E+00  0.00000000000E+00  0.99999998245E-14  0.12500000000E+03  0.12500000000E+03 0.  0.
        -11    1    1    0    0    0  0.27106100632E+02  0.31879590467E+01 -0.20236780207E+02  0.33976919339E+02  0.51100000000E-03 0. -1.
         11    1    1    0    0    0  0.19375041969E+02  0.69225047123E+00 -0.21131823349E+02  0.28677960533E+02  0.51100000000E-03 0.  1.
         22    1    1    0    0    0 -0.46481142602E+02 -0.38802095179E+01  0.41368603557E+02  0.62345120127E+02  0.00000000000E+00 0.  1.
</event>
<event>
 4    1  0.1956390E-002  0.9118800E+02  0.7818608E-02  0.1130116E+00
         25   -1    0    0    0    0  0.00000000000E+00  0.00000000000E+00  0.99999998245E-14  0.12500000000E+03  0.12500000000E+03 0.  0.
        -11    1    1    0    0    0 -0.77062134399E+01 -0.17600877380E+02  0.78255597709E+01  0.20746469486E+02  0.51100000000E-03 0.  1.
         11    1    1    0    0    0 -0.15503697206E+02 -0.35416702714E+02  0.15768637385E+02  0.41753531389E+02  0.51100000000E-03 0. -1.
         22    1    1    0    0    0  0.23209910646E+02  0.53017580094E+02 -0.23594197156E+02  0.62499999125E+02  0.00000000000E+00 0. -1.
</event>
<event>
 4    1  0.1956390E-002  0.9118800E+02  0.7818608E-02  0.1130116E+00
         25   -1    0    0    0    0  0.00000000000E+00  0.00000000000E+00  0.99999998245E-14  0.12500000000E+03  0.12500000000E+03 0.  0.
        -11    1    1    0    0    0 -0.19016891664E+02 -0.11994873017E+02  0.22109507196E+02  0.31533307089E+02  0.51100000000E-03 0. -1.
         11    1    1    0    0    0 -0.18892497792E+02 -0.11413499249E+02  0.21720665900E+02  0.30967430719E+02  0.51100000000E-03 0.  1.
         22    1    1    0    0    0  0.37909389456E+02  0.23408372266E+02 -0.43830173095E+02  0.62499262193E+02  0.00000000000E+00 0.  1.
</event>
<event>
 4    1  0.1956390E-002  0.9118800E+02  0.7818608E-02  0.1130116E+00
         25   -1    0    0    0    0  0.00000000000E+00  0.00000000000E+00  0.99999998245E-14  0.12500000000E+03  0.12500000000E+03 0.  0.
        -11    1    1    0    0    0  0.35134702872E+02 -0.43884634182E+02 -0.22993892334E+02  0.60737365337E+02  0.51100000000E-03 0. -1.
         11    1    1    0    0    0  0.10209597245E+01 -0.12734215813E+01 -0.66552380840E+00  0.17626353802E+01  0.51100000000E-03 0.  1.
         22    1    1    0    0    0 -0.36155662597E+02  0.45158055763E+02  0.23659416143E+02  0.62499999282E+02  0.00000000000E+00 0. -1.
</event>
<event>
 4    1  0.1956390E-002  0.9118800E+02  0.7818608E-02  0.1130116E+00
         25   -1    0    0    0    0  0.00000000000E+00  0.00000000000E+00  0.99999998245E-14  0.12500000000E+03  0.12500000000E+03 0.  0.
        -11    1    1    0    0    0  0.28354868326E+02  0.38288192687E+02 -0.19344003898E+02  0.51421539689E+02  0.51100000000E-03 0.  1.
         11    1    1    0    0    0  0.61575100451E+01  0.79366827478E+01 -0.46881810808E+01  0.11085346413E+02  0.51100000000E-03 0. -1.
         22    1    1    0    0    0 -0.34512378371E+02 -0.46224875435E+02  0.24032184978E+02  0.62493113897E+02  0.00000000000E+00 0.  1.
</event>
<event>
 4    1  0.1956390E-002  0.9118800E+02  0.7818608E-02  0.1130116E+00
         25   -1    0    0    0    0  0.00000000000E+00  0.00000000000E+00  0.99999998245E-14  0.12500000000E+03  0.12500000000E+03 0.  0.
        -11    1    1    0    0    0  0.20661297125E+02  0.31026590436E+02 -0.47606916249E+02  0.60464510152E+02  0.51100000000E-03 0. -1.
         11    1    1    0    0    0  0.58838927983E+00  0.10893883049E+01 -0.16176805154E+01  0.20371203535E+01  0.51100000000E-03 0.  1.
         22    1    1    0    0    0 -0.21249686404E+02 -0.32115978741E+02  0.49224596764E+02  0.62498369494E+02  0.00000000000E+00 0. -1.
</event>
<event>
 4    1  0.1956390E-002  0.9118800E+02  0.7818608E-02  0.1130116E+00
         25   -1    0    0    0    0  0.00000000000E+00  0.00000000000E+00  0.99999998245E-14  0.12500000000E+03  0.12500000000E+03 0.  0.
        -11    1    1    0    0    0  0.33517937234E+01 -0.27560158582E+02 -0.39594540133E+02  0.48358292679E+02  0.51100000000E-03 0.  1.
         11    1    1    0    0    0  0.91994296532E+00 -0.81445592253E+01 -0.11524456118E+02  0.14141896235E+02  0.51100000000E-03 0. -1.
         22    1    1    0    0    0 -0.42717366887E+01  0.35704717807E+02  0.51118996252E+02  0.62499811086E+02  0.00000000000E+00 0.  1.
</event>
<event>
 4    1  0.1956390E-002  0.9118800E+02  0.7818608E-02  0.1130116E+00
         25   -1    0    0    0    0  0.00000000000E+00  0.00000000000E+00  0.99999998245E-14  0.12500000000E+03  0.12500000000E+03 0.  0.
        -11    1    1    0    0    0 -0.26568975338E+02  0.29364401623E+02  0.45081623906E+02  0.60004427732E+02  0.51100000000E-03 0. -1.
         11    1    1    0    0    0 -0.11149497913E+01  0.12177805886E+01  0.18713198138E+01  0.24955842413E+01  0.51100000000E-03 0.  1.
         22    1    1    0    0    0  0.27683925129E+02 -0.30582182211E+02 -0.46952943720E+02  0.62499988027E+02  0.00000000000E+00 0. -1.
</event>
<event>
 4    1  0.1956390E-002  0.9118800E+02  0.7818608E-02  0.1130116E+00
         25   -1    0    0    0    0  0.00000000000E+00  0.00000000000E+00  0.99999998245E-14  0.12500000000E+03  0.12500000000E+03 0.  0.
        -11    1    1    0    0    0 -0.10697502454E+02  0.22768954096E+02 -0.20577591728E+02  0.32500755544E+02  0.51100000000E-03 0. -1.
         11    1    1    0    0    0 -0.98618851468E+01  0.21018389817E+02 -0.18998032094E+02  0.29999245205E+02  0.51100000000E-03 0.  1.
         22    1    1    0    0    0  0.20559387601E+02 -0.43787343913E+02  0.39575623822E+02  0.62499999251E+02  0.00000000000E+00 0. -1.
</event>
<event>
 4    1  0.1956390E-002  0.9118800E+02  0.7818608E-02  0.1130116E+00
         25   -1    0    0    0    0  0.00000000000E+00  0.00000000000E+00  0.99999998245E-14  0.12500000000E+03  0.12500000000E+03 0.  0.
        -11    1    1    0    0    0 -0.11853635509E+02 -0.11188189781E+01 -0.18954552148E+02  0.22383821793E+02  0.51100000000E-03 0. -1.
         11    1    1    0    0    0 -0.21297613181E+02 -0.20828290008E+01 -0.33932036583E+02  0.40116201351E+02  0.51100000000E-03 0.  1.
         22    1    1    0    0    0  0.33151248689E+02  0.32016479789E+01  0.52886588731E+02  0.62499976856E+02  0.00000000000E+00 0.  1.
</event>
<event>
 4    1  0.1956390E-002  0.9118800E+02  0.7818608E-02  0.1130116E+00
         25   -1    0    0    0    0  0.00000000000E+00  0.00000000000E+00  0.99999998245E-14  0.12500000000E+03  0.12500000000E+03 0.  0.
        -11    1    1    0    0    0 -0.13769357535E+02  0.23130460188E+02 -0.23566309516E+02  0.35776868782E+02  0.51100000000E-03 0. -1.
         11    1    1    0    0    0 -0.10481422214E+02  0.16679714191E+02 -0.18061732686E+02  0.26726377701E+02  0.51100000000E-03 0.  1.
         22    1    1    0    0    0  0.24250779749E+02 -0.39810174379E+02  0.41628042202E+02  0.62496753516E+02  0.00000000000E+00 0. -1.
</event>
<event>
 4    1  0.1956390E-002  0.9118800E+02  0.7818608E-02  0.1130116E+00
         25   -1    0    0    0    0  0.00000000000E+00  0.00000000000E+00  0.99999998245E-14  0.12500000000E+03  0.12500000000E+03 0.  0.
        -11    1    1    0    0    0  0.28524350151E+02 -0.10679430677E+02  0.39849231604E+02  0.50156256348E+02  0.51100000000E-03 0. -1.
         11    1    1    0    0    0  0.82243151388E+01 -0.53612262282E+01  0.78213235208E+01  0.12552099747E+02  0.51100000000E-03 0.  1.
         22    1    1    0    0    0 -0.36748665290E+02  0.16040656906E+02 -0.47670555125E+02  0.62291643906E+02  0.00000000000E+00 0. -1.
</event>
<event>
 4    1  0.1956390E-002  0.9118800E+02  0.7818608E-02  0.1130116E+00
         25   -1    0    0    0    0  0.00000000000E+00  0.00000000000E+00  0.99999998245E-14  0.12500000000E+03  0.12500000000E+03 0.  0.
        -11    1    1    0    0    0 -0.88117733630E-01 -0.78293727779E+00  0.36680841810E+00  0.86908238542E+00  0.51100000000E-03 0. -1.
         11    1    1    0    0    0  0.31554771068E+02 -0.19429035114E+02  0.49477618699E+02  0.61816063730E+02  0.51100000000E-03 0.  1.
         22    1    1    0    0    0 -0.31466653335E+02  0.20211972392E+02 -0.49844427117E+02  0.62314853885E+02  0.00000000000E+00 0.  1.
</event>
<event>
 4    1  0.1956390E-002  0.9118800E+02  0.7818608E-02  0.1130116E+00
         25   -1    0    0    0    0  0.00000000000E+00  0.00000000000E+00  0.99999998245E-14  0.12500000000E+03  0.12500000000E+03 0.  0.
        -11    1    1    0    0    0 -0.11117901622E+02  0.90069421660E+00 -0.22514585471E+01  0.11379281717E+02  0.51100000000E-03 0.  1.
         11    1    1    0    0    0 -0.49222205380E+02  0.97219892367E+01 -0.99483073322E+01  0.51149891458E+02  0.51100000000E-03 0. -1.
         22    1    1    0    0    0  0.60340107001E+02 -0.10622683453E+02  0.12199765879E+02  0.62470826825E+02  0.00000000000E+00 0. -1.
</event>
<event>
 4    1  0.1956390E-002  0.9118800E+02  0.7818608E-02  0.1130116E+00
         25   -1    0    0    0    0  0.00000000000E+00  0.00000000000E+00  0.99999998245E-14  0.12500000000E+03  0.12500000000E+03 0.  0.
        -11    1    1    0    0    0  0.42951966792E+02  0.57006684027E+01  0.37862376901E+01  0.43493731360E+02  0.51100000000E-03 0. -1.
         11    1    1    0    0    0  0.16814116837E+02  0.63255325488E+01 -0.94162466673E+01  0.20282815105E+02  0.51100000000E-03 0.  1.
         22    1    1    0    0    0 -0.59766083629E+02 -0.12026200952E+02  0.56300089772E+01  0.61223453535E+02  0.00000000000E+00 0. -1.
</event>
<event>
 4    1  0.1956390E-002  0.9118800E+02  0.7818608E-02  0.1130116E+00
         25   -1    0    0    0    0  0.00000000000E+00  0.00000000000E+00  0.99999998245E-14  0.12500000000E+03  0.12500000000E+03 0.  0.
        -11    1    1    0    0    0  0.37752063143E+01  0.15469238287E+01  0.51516813459E+01  0.65715277522E+01  0.51100000000E-03 0.  1.
         11    1    1    0    0    0  0.32125930411E+02  0.13172059414E+02  0.43845358456E+02  0.55928472287E+02  0.51100000000E-03 0. -1.
         22    1    1    0    0    0 -0.35901136725E+02 -0.14718983243E+02 -0.48997039802E+02  0.62499999961E+02  0.00000000000E+00 0. -1.
</event>
<event>
 4    1  0.1956390E-002  0.9118800E+02  0.7818608E-02  0.1130116E+00
         25   -1    0    0    0    0  0.00000000000E+00  0.00000000000E+00  0.99999998245E-14  0.12500000000E+03  0.12500000000E+03 0.  0.
        -11    1    1    0    0    0 -0.10843997332E+02  0.17103669826E+02 -0.89523826712E+01  0.22142108197E+02  0.51100000000E-03 0. -1.
         11    1    1    0    0    0 -0.24553629990E+02  0.30303726614E+02 -0.10822166949E+02  0.40476115057E+02  0.51100000000E-03 0.  1.
         22    1    1    0    0    0  0.35397627323E+02 -0.47407396440E+02  0.19774549621E+02  0.62381776746E+02  0.00000000000E+00 0.  1.
</event>
<event>
 4    1  0.1956390E-002  0.9118800E+02  0.7818608E-02  0.1130116E+00
         25   -1    0    0    0    0  0.00000000000E+00  0.00000000000E+00  0.99999998245E-14  0.12500000000E+03  0.12500000000E+03 0.  0.
        -11    1    1    0    0    0 -0.55538066864E+01 -0.22298863787E+02 -0.12488559216E+02  0.26154315255E+02  0.51100000000E-03 0. -1.
         11    1    1    0    0    0  0.44977651142E+00 -0.14235431431E+02 -0.35538712339E+02  0.38286419027E+02  0.51100000000E-03 0.  1.
         22    1    1    0    0    0  0.51040301750E+01  0.36534295218E+02  0.48027271556E+02  0.60559265717E+02  0.00000000000E+00 0.  1.
</event>
<event>
 4    1  0.1956390E-002  0.9118800E+02  0.7818608E-02  0.1130116E+00
         25   -1    0    0    0    0  0.00000000000E+00  0.00000000000E+00  0.99999998245E-14  0.12500000000E+03  0.12500000000E+03 0.  0.
        -11    1    1    0    0    0  0.56448084897E+02 -0.15151167844E+02  0.14996212387E+02  0.60339295337E+02  0.51100000000E-03 0.  1.
         11    1    1    0    0    0  0.22147236247E+01 -0.19434444437E+00 -0.12340023658E+00  0.22266563220E+01  0.51100000000E-03 0. -1.
         22    1    1    0    0    0 -0.58662808521E+02  0.15345512288E+02 -0.14872812150E+02  0.62434048341E+02  0.00000000000E+00 0.  1.
</event>
<event>
 4    1  0.1956390E-002  0.9118800E+02  0.7818608E-02  0.1130116E+00
         25   -1    0    0    0    0  0.00000000000E+00  0.00000000000E+00  0.99999998245E-14  0.12500000000E+03  0.12500000000E+03 0.  0.
        -11    1    1    0    0    0  0.27081035076E+01 -0.14454625393E+02 -0.33348439600E+02  0.36447063583E+02  0.51100000000E-03 0.  1.
         11    1    1    0    0    0  0.19391354548E+01 -0.10305641375E+02 -0.23849303023E+02  0.26052941204E+02  0.51100000000E-03 0. -1.
         22    1    1    0    0    0 -0.46472389624E+01  0.24760266768E+02  0.57197742623E+02  0.62499995212E+02  0.00000000000E+00 0.  1.
</event>
<event>
 4    1  0.1956390E-002  0.9118800E+02  0.7818608E-02  0.1130116E+00
         25   -1    0    0    0    0  0.00000000000E+00  0.00000000000E+00  0.99999998245E-14  0.12500000000E+03  0.12500000000E+03 0.  0.
        -11    1    1    0    0    0 -0.17934396173E+02 -0.13421613015E+02 -0.50466338865E+02  0.55214433083E+02  0.51100000000E-03 0.  1.
         11    1    1    0    0    0 -0.21085949187E+01 -0.19281924525E+01 -0.67049689075E+01  0.72883953636E+01  0.51100000000E-03 0. -1.
         22    1    1    0    0    0  0.20042991092E+02  0.15349805467E+02  0.57171307772E+02  0.62497171553E+02  0.00000000000E+00 0. -1.
</event>
<event>
 4    1  0.1956390E-002  0.9118800E+02  0.7818608E-02  0.1130116E+00
         25   -1    0    0    0    0  0.00000000000E+00  0.00000000000E+00  0.99999998245E-14  0.12500000000E+03  0.12500000000E+03 0.  0.
        -11    1    1    0    0    0 -0.60141650205E+02  0.14550094616E+02 -0.64534530478E+01  0.62212301028E+02  0.51100000000E-03 0.  1.
         11    1    1    0    0    0 -0.24897555185E+00  0.25251987005E-01 -0.18241092182E+00  0.30967804861E+00  0.51100000000E-03 0. -1.
         22    1    1    0    0    0  0.60390625757E+02 -0.14575346603E+02  0.66358639697E+01  0.62478020923E+02  0.00000000000E+00 0.  1.
</event>
<event>
 4    1  0.1956390E-002  0.9118800E+02  0.7818608E-02  0.1130116E+00
         25   -1    0    0    0    0  0.00000000000E+00  0.00000000000E+00  0.99999998245E-14  0.12500000000E+03  0.12500000000E+03 0.  0.
        -11    1    1    0    0    0 -0.26231171420E+02 -0.30196245234E+02  0.69086569973E+01  0.40590850226E+02  0.51100000000E-03 0. -1.
         11    1    1    0    0    0 -0.14175945066E+02 -0.16284674116E+02  0.37233032759E+01  0.21909153729E+02  0.51100000000E-03 0.  1.
         22    1    1    0    0    0  0.40407116486E+02  0.46480919350E+02 -0.10631960273E+02  0.62499996045E+02  0.00000000000E+00 0. -1.
</event>
<event>
 4    1  0.1956390E-002  0.9118800E+02  0.7818608E-02  0.1130116E+00
         25   -1    0    0    0    0  0.00000000000E+00  0.00000000000E+00  0.99999998245E-14  0.12500000000E+03  0.12500000000E+03 0.  0.
        -11    1    1    0    0    0 -0.29745280299E+02 -0.20113508744E+02  0.27756964260E+02  0.45384843277E+02  0.51100000000E-03 0. -1.
         11    1    1    0    0    0 -0.11217064021E+02 -0.75846166992E+01  0.10468030094E+02  0.17115156734E+02  0.51100000000E-03 0.  1.
         22    1    1    0    0    0  0.40962344320E+02  0.27698125443E+02 -0.38224994354E+02  0.62499999989E+02  0.00000000000E+00 0. -1.
</event>
<event>
 4    1  0.1956390E-002  0.9118800E+02  0.7818608E-02  0.1130116E+00
         25   -1    0    0    0    0  0.00000000000E+00  0.00000000000E+00  0.99999998245E-14  0.12500000000E+03  0.12500000000E+03 0.  0.
        -11    1    1    0    0    0 -0.11415693055E+02 -0.62255571381E+00 -0.25554885025E+01  0.11714783195E+02  0.51100000000E-03 0. -1.
         11    1    1    0    0    0 -0.48892541272E+02 -0.69758063810E+01 -0.11908326232E+02  0.50803057985E+02  0.51100000000E-03 0.  1.
         22    1    1    0    0    0  0.60308234327E+02  0.75983620948E+01  0.14463814734E+02  0.62482158821E+02  0.00000000000E+00 0.  1.
</event>
<event>
 4    1  0.1956390E-002  0.9118800E+02  0.7818608E-02  0.1130116E+00
         25   -1    0    0    0    0  0.00000000000E+00  0.00000000000E+00  0.99999998245E-14  0.12500000000E+03  0.12500000000E+03 0.  0.
        -11    1    1    0    0    0 -0.41970770763E+02 -0.22739368235E+02  0.21568855098E+02  0.52381675963E+02  0.51100000000E-03 0. -1.
         11    1    1    0    0    0 -0.89661444047E+01 -0.40948532577E+01 -0.97108017533E+01  0.13836879693E+02  0.51100000000E-03 0.  1.
         22    1    1    0    0    0  0.50936915168E+02  0.26834221493E+02 -0.11858053345E+02  0.58781444344E+02  0.00000000000E+00 0. -1.
</event>
<event>
 4    1  0.1956390E-002  0.9118800E+02  0.7818608E-02  0.1130116E+00
         25   -1    0    0    0    0  0.00000000000E+00  0.00000000000E+00  0.99999998245E-14  0.12500000000E+03  0.12500000000E+03 0.  0.
        -11    1    1    0    0    0 -0.33562354140E+02  0.59171403594E+01  0.35660146135E+02  0.49326364027E+02  0.51100000000E-03 0. -1.
         11    1    1    0    0    0 -0.74397545387E+01 -0.20310090685E+01  0.11001619058E+02  0.13435422122E+02  0.51100000000E-03 0.  1.
         22    1    1    0    0    0  0.41002108679E+02 -0.38861312908E+01 -0.46661765193E+02  0.62238213852E+02  0.00000000000E+00 0. -1.
</event>
<event>
 4    1  0.1956390E-002  0.9118800E+02  0.7818608E-02  0.1130116E+00
         25   -1    0    0    0    0  0.00000000000E+00  0.00000000000E+00  0.99999998245E-14  0.12500000000E+03  0.12500000000E+03 0.  0.
        -11    1    1    0    0    0 -0.21596876476E+02 -0.47156745566E+02 -0.12388002066E+01  0.51881772831E+02  0.51100000000E-03 0.  1.
         11    1    1    0    0    0 -0.44193927643E+01 -0.96515407206E+01 -0.25194977861E+00  0.10618227236E+02  0.51100000000E-03 0. -1.
         22    1    1    0    0    0  0.26016269240E+02  0.56808286287E+02  0.14907499852E+01  0.62499999932E+02  0.00000000000E+00 0.  1.
</event>
<event>
 4    1  0.1956390E-002  0.9118800E+02  0.7818608E-02  0.1130116E+00
         25   -1    0    0    0    0  0.00000000000E+00  0.00000000000E+00  0.99999998245E-14  0.12500000000E+03  0.12500000000E+03 0.  0.
        -11    1    1    0    0    0 -0.28455466553E+01 -0.17380184954E+00 -0.34263062039E+01  0.44572320239E+01  0.51100000000E-03 0. -1.
         11    1    1    0    0    0 -0.39123822750E+02 -0.30595887987E+01 -0.42769444372E+02  0.58045326792E+02  0.51100000000E-03 0.  1.
         22    1    1    0    0    0  0.41969369405E+02  0.32333906482E+01  0.46195750576E+02  0.62497441185E+02  0.00000000000E+00 0.  1.
</event>
<event>
 4    1  0.1956390E-002  0.9118800E+02  0.7818608E-02  0.1130116E+00
         25   -1    0    0    0    0  0.00000000000E+00  0.00000000000E+00  0.99999998245E-14  0.12500000000E+03  0.12500000000E+03 0.  0.
        -11    1    1    0    0    0  0.43805330661E+02 -0.20624206196E+02 -0.31973258335E+02  0.58022014136E+02  0.51100000000E-03 0. -1.
         11    1    1    0    0    0  0.33559376415E+01 -0.18691745720E+01 -0.23116132692E+01  0.44832674693E+01  0.51100000000E-03 0.  1.
         22    1    1    0    0    0 -0.47161268303E+02  0.22493380768E+02  0.34284871605E+02  0.62494718395E+02  0.00000000000E+00 0. -1.
</event>
<event>
 4    1  0.1956390E-002  0.9118800E+02  0.7818608E-02  0.1130116E+00
         25   -1    0    0    0    0  0.00000000000E+00  0.00000000000E+00  0.99999998245E-14  0.12500000000E+03  0.12500000000E+03 0.  0.
        -11    1    1    0    0    0  0.13134428824E+02  0.57210340430E+02  0.13478121802E+02  0.60226207254E+02  0.51100000000E-03 0.  1.
         11    1    1    0    0    0  0.49587029767E+00  0.21602781394E+01  0.50739080184E+00  0.22737930158E+01  0.51100000000E-03 0. -1.
         22    1    1    0    0    0 -0.13630299121E+02 -0.59370618569E+02 -0.13985512604E+02  0.62499999730E+02  0.00000000000E+00 0.  1.
</event>
<event>
 4    1  0.1956390E-002  0.9118800E+02  0.7818608E-02  0.1130116E+00
         25   -1    0    0    0    0  0.00000000000E+00  0.00000000000E+00  0.99999998245E-14  0.12500000000E+03  0.12500000000E+03 0.  0.
        -11    1    1    0    0    0 -0.23964211594E+02  0.35986469630E+02 -0.14104610553E+02  0.45478010872E+02  0.51100000000E-03 0. -1.
         11    1    1    0    0    0 -0.89627852627E+01  0.13458801591E+02 -0.53176921605E+01  0.17022006641E+02  0.51100000000E-03 0.  1.
         22    1    1    0    0    0  0.32926996857E+02 -0.49445271221E+02  0.19422302714E+02  0.62499982487E+02  0.00000000000E+00 0. -1.
</event>
<event>
 4    1  0.1956390E-002  0.9118800E+02  0.7818608E-02  0.1130116E+00
         25   -1    0    0    0    0  0.00000000000E+00  0.00000000000E+00  0.99999998245E-14  0.12500000000E+03  0.12500000000E+03 0.  0.
        -11    1    1    0    0    0 -0.39642288056E+02 -0.29932271691E+02  0.24185536657E+02  0.55248457667E+02  0.51100000000E-03 0.  1.
         11    1    1    0    0    0 -0.52038794178E+01 -0.39273602991E+01  0.31749562710E+01  0.72515424219E+01  0.51100000000E-03 0. -1.
         22    1    1    0    0    0  0.44846167474E+02  0.33859631990E+02 -0.27360492928E+02  0.62499999911E+02  0.00000000000E+00 0.  1.
</event>
<event>
 4    1  0.1956390E-002  0.9118800E+02  0.7818608E-02  0.1130116E+00
         25   -1    0    0    0    0  0.00000000000E+00  0.00000000000E+00  0.99999998245E-14  0.12500000000E+03  0.12500000000E+03 0.  0.
        -11    1    1    0    0    0 -0.35042854129E+01  0.28372382974E+01  0.12633347710E+00  0.45106427280E+01  0.51100000000E-03 0. -1.
         11    1    1    0    0    0 -0.45052294353E+02  0.36473521461E+02  0.16548711143E+01  0.57989357583E+02  0.51100000000E-03 0.  1.
         22    1    1    0    0    0  0.48556579766E+02 -0.39310759759E+02 -0.17812045914E+01  0.62499999689E+02  0.00000000000E+00 0.  1.
</event>
<event>
 4    1  0.1956390E-002  0.9118800E+02  0.7818608E-02  0.1130116E+00
         25   -1    0    0    0    0  0.00000000000E+00  0.00000000000E+00  0.99999998245E-14  0.12500000000E+03  0.12500000000E+03 0.  0.
        -11    1    1    0    0    0 -0.28896783804E+02  0.43753451292E+02 -0.16338357156E+02  0.54921130078E+02  0.51100000000E-03 0.  1.
         11    1    1    0    0    0 -0.39871347524E+01  0.60382549403E+01 -0.22542189794E+01  0.75788699505E+01  0.51100000000E-03 0. -1.
         22    1    1    0    0    0  0.32883918556E+02 -0.49791706232E+02  0.18592576136E+02  0.62499999972E+02  0.00000000000E+00 0.  1.
</event>
<event>
 4    1  0.1956390E-002  0.9118800E+02  0.7818608E-02  0.1130116E+00
         25   -1    0    0    0    0  0.00000000000E+00  0.00000000000E+00  0.99999998245E-14  0.12500000000E+03  0.12500000000E+03 0.  0.
        -11    1    1    0    0    0 -0.86050879668E+01 -0.33559503543E+01  0.48066059668E+02  0.48945439358E+02  0.51100000000E-03 0.  1.
         11    1    1    0    0    0 -0.23884957835E+01 -0.92032902076E+00  0.13310681435E+02  0.13554562263E+02  0.51100000000E-03 0. -1.
         22    1    1    0    0    0  0.10993583750E+02  0.42762793751E+01 -0.61376741103E+02  0.62499998379E+02  0.00000000000E+00 0. -1.
</event>
<event>
 4    1  0.1956390E-002  0.9118800E+02  0.7818608E-02  0.1130116E+00
         25   -1    0    0    0    0  0.00000000000E+00  0.00000000000E+00  0.99999998245E-14  0.12500000000E+03  0.12500000000E+03 0.  0.
        -11    1    1    0    0    0 -0.20133207865E+01 -0.54515356893E+01  0.61081370353E+01  0.84310165618E+01  0.51100000000E-03 0. -1.
         11    1    1    0    0    0 -0.12891766879E+02 -0.34885559154E+02  0.39246093592E+02  0.54068990681E+02  0.51100000000E-03 0.  1.
         22    1    1    0    0    0  0.14905087666E+02  0.40337094844E+02 -0.45354230628E+02  0.62499992757E+02  0.00000000000E+00 0.  1.
</event>
<event>
 4    1  0.1956390E-002  0.9118800E+02  0.7818608E-02  0.1130116E+00
         25   -1    0    0    0    0  0.00000000000E+00  0.00000000000E+00  0.99999998245E-14  0.12500000000E+03  0.12500000000E+03 0.  0.
        -11    1    1    0    0    0  0.71728407645E+01 -0.13182477181E+02  0.74568758371E+01  0.16758053192E+02  0.51100000000E-03 0.  1.
         11    1    1    0    0    0  0.19545235408E+02 -0.35984002053E+02  0.20382868528E+02  0.45741949681E+02  0.51100000000E-03 0. -1.
         22    1    1    0    0    0 -0.26718076173E+02  0.49166479234E+02 -0.27839744366E+02  0.62499997128E+02  0.00000000000E+00 0. -1.
</event>
<event>
 4    1  0.1956390E-002  0.9118800E+02  0.7818608E-02  0.1130116E+00
         25   -1    0    0    0    0  0.00000000000E+00  0.00000000000E+00  0.99999998245E-14  0.12500000000E+03  0.12500000000E+03 0.  0.
        -11    1    1    0    0    0 -0.29496659999E+02 -0.85965041436E+01 -0.13200128188E+02  0.33439441069E+02  0.51100000000E-03 0. -1.
         11    1    1    0    0    0 -0.25635553354E+02 -0.74710707897E+01 -0.11468112079E+02  0.29060559000E+02  0.51100000000E-03 0.  1.
         22    1    1    0    0    0  0.55132213353E+02  0.16067574933E+02  0.24668240267E+02  0.62499999930E+02  0.00000000000E+00 0. -1.
</event>
<event>
 4    1  0.1956390E-002  0.9118800E+02  0.7818608E-02  0.1130116E+00
         25   -1    0    0    0    0  0.00000000000E+00  0.00000000000E+00  0.99999998245E-14  0.12500000000E+03  0.12500000000E+03 0.  0.
        -11    1    1    0    0    0  0.19212194252E+01 -0.21328822031E+02 -0.48860267817E+01  0.21965495471E+02  0.51100000000E-03 0. -1.
         11    1    1    0    0    0  0.35506364427E+01 -0.39356042962E+02 -0.90300033098E+01  0.40534505015E+02  0.51100000000E-03 0.  1.
         22    1    1    0    0    0 -0.54718558679E+01  0.60684864993E+02  0.13916030091E+02  0.62499999515E+02  0.00000000000E+00 0.  1.
</event>
<event>
 4    1  0.1956390E-002  0.9118800E+02  0.7818608E-02  0.1130116E+00
         25   -1    0    0    0    0  0.00000000000E+00  0.00000000000E+00  0.99999998245E-14  0.12500000000E+03  0.12500000000E+03 0.  0.
        -11    1    1    0    0    0  0.12125957810E+02 -0.17509793536E+02 -0.60605853996E+01  0.22144128299E+02  0.51100000000E-03 0.  1.
         11    1    1    0    0    0  0.19993161030E+02 -0.34367758041E+02 -0.72230497531E+01  0.40410911011E+02  0.51100000000E-03 0. -1.
         22    1    1    0    0    0 -0.32119118840E+02  0.51877551577E+02  0.13283635153E+02  0.62444960690E+02  0.00000000000E+00 0. -1.
</event>
<event>
 4    1  0.1956390E-002  0.9118800E+02  0.7818608E-02  0.1130116E+00
         25   -1    0    0    0    0  0.00000000000E+00  0.00000000000E+00  0.99999998245E-14  0.12500000000E+03  0.12500000000E+03 0.  0.
        -11    1    1    0    0    0 -0.27016500251E+01 -0.90828455745E+01  0.63841007585E+01  0.11426011524E+02  0.51100000000E-03 0.  1.
         11    1    1    0    0    0 -0.12040378233E+02 -0.40614405987E+02  0.28531592259E+02  0.51073989846E+02  0.51100000000E-03 0. -1.
         22    1    1    0    0    0  0.14742028258E+02  0.49697251561E+02 -0.34915693017E+02  0.62499998630E+02  0.00000000000E+00 0. -1.
</event>
<event>
 4    1  0.1956390E-002  0.9118800E+02  0.7818608E-02  0.1130116E+00
         25   -1    0    0    0    0  0.00000000000E+00  0.00000000000E+00  0.99999998245E-14  0.12500000000E+03  0.12500000000E+03 0.  0.
        -11    1    1    0    0    0 -0.18279456878E+02  0.31650292651E+02 -0.23114373671E+02  0.43245275339E+02  0.51100000000E-03 0. -1.
         11    1    1    0    0    0 -0.81371879465E+01  0.14094292110E+02 -0.10289874999E+02  0.19254724758E+02  0.51100000000E-03 0.  1.
         22    1    1    0    0    0  0.26416644825E+02 -0.45744584761E+02  0.33404248670E+02  0.62499999903E+02  0.00000000000E+00 0. -1.
</event>
<event>
 4    1  0.1956390E-002  0.9118800E+02  0.7818608E-02  0.1130116E+00
         25   -1    0    0    0    0  0.00000000000E+00  0.00000000000E+00  0.99999998245E-14  0.12500000000E+03  0.12500000000E+03 0.  0.
        -11    1    1    0    0    0  0.16928561019E+02 -0.35686630581E+02  0.12067825355E+02  0.41300656042E+02  0.51100000000E-03 0. -1.
         11    1    1    0    0    0  0.86875067224E+01 -0.18318008902E+02  0.61959634430E+01  0.21199344010E+02  0.51100000000E-03 0. -1.
         22    1    1    0    0    0 -0.25616067742E+02  0.54004639484E+02 -0.18263788798E+02  0.62499999948E+02  0.00000000000E+00 0. -1.
</event>
<event>
 4    1  0.1956390E-002  0.9118800E+02  0.7818608E-02  0.1130116E+00
         25   -1    0    0    0    0  0.00000000000E+00  0.00000000000E+00  0.99999998245E-14  0.12500000000E+03  0.12500000000E+03 0.  0.
        -11    1    1    0    0    0  0.30603929192E+01  0.77031019210E+01 -0.20063224708E+02  0.21707988621E+02  0.51100000000E-03 0. -1.
         11    1    1    0    0    0  0.31146310535E+01  0.94049189048E+01 -0.39650609763E+02  0.40869600940E+02  0.51100000000E-03 0.  1.
         22    1    1    0    0    0 -0.61750239728E+01 -0.17108020826E+02  0.59713834471E+02  0.62422410438E+02  0.00000000000E+00 0.  1.
</event>
<event>
 4    1  0.1956390E-002  0.9118800E+02  0.7818608E-02  0.1130116E+00
         25   -1    0    0    0    0  0.00000000000E+00  0.00000000000E+00  0.99999998245E-14  0.12500000000E+03  0.12500000000E+03 0.  0.
        -11    1    1    0    0    0  0.92508605024E+00  0.13979310863E+00 -0.18974009385E+00  0.95463494484E+00  0.51100000000E-03 0.  1.
         11    1    1    0    0    0  0.60785546723E+02  0.77913510055E+01 -0.57088148083E+01  0.61548179565E+02  0.51100000000E-03 0. -1.
         22    1    1    0    0    0 -0.61710632774E+02 -0.79311441142E+01  0.58985549022E+01  0.62497185490E+02  0.00000000000E+00 0. -1.
</event>
<event>
 4    1  0.1956390E-002  0.9118800E+02  0.7818608E-02  0.1130116E+00
         25   -1    0    0    0    0  0.00000000000E+00  0.00000000000E+00  0.99999998245E-14  0.12500000000E+03  0.12500000000E+03 0.  0.
        -11    1    1    0    0    0 -0.24131548365E+02 -0.27101752150E+02  0.67740539951E+01  0.36915097235E+02  0.51100000000E-03 0.  1.
         11    1    1    0    0    0 -0.15928619491E+02 -0.19140081478E+02  0.59330670544E+01  0.25598142957E+02  0.51100000000E-03 0. -1.
         22    1    1    0    0    0  0.40060167856E+02  0.46241833629E+02 -0.12707121049E+02  0.62486759808E+02  0.00000000000E+00 0. -1.
</event>
<event>
 4    1  0.1956390E-002  0.9118800E+02  0.7818608E-02  0.1130116E+00
         25   -1    0    0    0    0  0.00000000000E+00  0.00000000000E+00  0.99999998245E-14  0.12500000000E+03  0.12500000000E+03 0.  0.
        -11    1    1    0    0    0 -0.90617295663E+01  0.28768358931E+01 -0.14206493794E+02  0.17094314659E+02  0.51100000000E-03 0. -1.
         11    1    1    0    0    0 -0.24009527449E+02  0.76194818451E+01 -0.37777813053E+02  0.45405694260E+02  0.51100000000E-03 0.  1.
         22    1    1    0    0    0  0.33071257015E+02 -0.10496317738E+02  0.51984306847E+02  0.62499991080E+02  0.00000000000E+00 0.  1.
</event>
<event>
 4    1  0.1956390E-002  0.9118800E+02  0.7818608E-02  0.1130116E+00
         25   -1    0    0    0    0  0.00000000000E+00  0.00000000000E+00  0.99999998245E-14  0.12500000000E+03  0.12500000000E+03 0.  0.
        -11    1    1    0    0    0  0.11627569088E+02 -0.66683483851E+01 -0.24021761071E+02  0.27508403048E+02  0.51100000000E-03 0.  1.
         11    1    1    0    0    0  0.14798160496E+02 -0.84247610720E+01 -0.30568782768E+02  0.34991608042E+02  0.51100000000E-03 0. -1.
         22    1    1    0    0    0 -0.26425729584E+02  0.15093109457E+02  0.54590543839E+02  0.62499988910E+02  0.00000000000E+00 0. -1.
</event>
<event>
 4    1  0.1956390E-002  0.9118800E+02  0.7818608E-02  0.1130116E+00
         25   -1    0    0    0    0  0.00000000000E+00  0.00000000000E+00  0.99999998245E-14  0.12500000000E+03  0.12500000000E+03 0.  0.
        -11    1    1    0    0    0 -0.13217334255E+02 -0.37049837684E+02  0.32034771595E+02  0.50730809068E+02  0.51100000000E-03 0.  1.
         11    1    1    0    0    0 -0.30783437079E+01 -0.85966790174E+01  0.74252839544E+01  0.11769194203E+02  0.51100000000E-03 0. -1.
         22    1    1    0    0    0  0.16295677963E+02  0.45646516701E+02 -0.39460055550E+02  0.62499996730E+02  0.00000000000E+00 0.  1.
</event>
<event>
 4    1  0.1956390E-002  0.9118800E+02  0.7818608E-02  0.1130116E+00
         25   -1    0    0    0    0  0.00000000000E+00  0.00000000000E+00  0.99999998245E-14  0.12500000000E+03  0.12500000000E+03 0.  0.
        -11    1    1    0    0    0 -0.13832763902E+02  0.20088033247E+02  0.20309955256E+01  0.24474463834E+02  0.51100000000E-03 0. -1.
         11    1    1    0    0    0 -0.21308836224E+02  0.30154097006E+02  0.95284727043E+01  0.38133028463E+02  0.51100000000E-03 0.  1.
         22    1    1    0    0    0  0.35141600126E+02 -0.50242130252E+02 -0.11559468230E+02  0.62392507703E+02  0.00000000000E+00 0.  1.
</event>
<event>
 4    1  0.1956390E-002  0.9118800E+02  0.7818608E-02  0.1130116E+00
         25   -1    0    0    0    0  0.00000000000E+00  0.00000000000E+00  0.99999998245E-14  0.12500000000E+03  0.12500000000E+03 0.  0.
        -11    1    1    0    0    0  0.20782626810E+02 -0.27315590953E+02 -0.38294413499E+01  0.34535832227E+02  0.51100000000E-03 0. -1.
         11    1    1    0    0    0  0.16827456386E+02 -0.22117827416E+02 -0.31037241688E+01  0.27964167823E+02  0.51100000000E-03 0.  1.
         22    1    1    0    0    0 -0.37610083197E+02  0.49433418369E+02  0.69331655187E+01  0.62499999951E+02  0.00000000000E+00 0.  1.
</event>
<event>
 4    1  0.1956390E-002  0.9118800E+02  0.7818608E-02  0.1130116E+00
         25   -1    0    0    0    0  0.00000000000E+00  0.00000000000E+00  0.99999998245E-14  0.12500000000E+03  0.12500000000E+03 0.  0.
        -11    1    1    0    0    0 -0.45612079845E+02  0.18582345659E+02 -0.29033829523E+02  0.57172796460E+02  0.51100000000E-03 0.  1.
         11    1    1    0    0    0 -0.42059429993E+01  0.17332723416E+01 -0.27727019240E+01  0.53274821204E+01  0.51100000000E-03 0. -1.
         22    1    1    0    0    0  0.49818022844E+02 -0.20315618001E+02  0.31806531447E+02  0.62499721420E+02  0.00000000000E+00 0.  1.
</event>
<event>
 4    1  0.1956390E-002  0.9118800E+02  0.7818608E-02  0.1130116E+00
         25   -1    0    0    0    0  0.00000000000E+00  0.00000000000E+00  0.99999998245E-14  0.12500000000E+03  0.12500000000E+03 0.  0.
        -11    1    1    0    0    0  0.48288559984E+01 -0.14919103011E+02  0.20161832097E+02  0.25542062538E+02  0.51100000000E-03 0. -1.
         11    1    1    0    0    0  0.69909800837E+01 -0.21583247606E+02  0.29174968185E+02  0.36957937559E+02  0.51100000000E-03 0.  1.
         22    1    1    0    0    0 -0.11819836082E+02  0.36502350618E+02 -0.49336800283E+02  0.62499999902E+02  0.00000000000E+00 0.  1.
</event>
<event>
 4    1  0.1956390E-002  0.9118800E+02  0.7818608E-02  0.1130116E+00
         25   -1    0    0    0    0  0.00000000000E+00  0.00000000000E+00  0.99999998245E-14  0.12500000000E+03  0.12500000000E+03 0.  0.
        -11    1    1    0    0    0  0.60744956531E+01 -0.12002331376E+02 -0.60874351476E+02  0.62342939647E+02  0.51100000000E-03 0.  1.
         11    1    1    0    0    0  0.16524543385E-01 -0.22707655403E-01 -0.15462519050E+00  0.15715568334E+00  0.51100000000E-03 0. -1.
         22    1    1    0    0    0 -0.60910201965E+01  0.12025039032E+02  0.61028976667E+02  0.62499904670E+02  0.00000000000E+00 0.  1.
</event>
<event>
 4    1  0.1956390E-002  0.9118800E+02  0.7818608E-02  0.1130116E+00
         25   -1    0    0    0    0  0.00000000000E+00  0.00000000000E+00  0.99999998245E-14  0.12500000000E+03  0.12500000000E+03 0.  0.
        -11    1    1    0    0    0 -0.20567384431E+01  0.51550547560E+00 -0.30766932711E+01  0.37365707091E+01  0.51100000000E-03 0.  1.
         11    1    1    0    0    0 -0.31392951717E+02  0.98695414584E+01 -0.48686117351E+02  0.58764473018E+02  0.51100000000E-03 0. -1.
         22    1    1    0    0    0  0.33449690160E+02 -0.10385046934E+02  0.51762810623E+02  0.62498956273E+02  0.00000000000E+00 0. -1.
</event>
<event>
 4    1  0.1956390E-002  0.9118800E+02  0.7818608E-02  0.1130116E+00
         25   -1    0    0    0    0  0.00000000000E+00  0.00000000000E+00  0.99999998245E-14  0.12500000000E+03  0.12500000000E+03 0.  0.
        -11    1    1    0    0    0 -0.33504045806E+02  0.24123009207E+02  0.44979195784E+01  0.41529169741E+02  0.51100000000E-03 0. -1.
         11    1    1    0    0    0 -0.17074629900E+02  0.11989763169E+02  0.21227213349E+01  0.20971489055E+02  0.51100000000E-03 0.  1.
         22    1    1    0    0    0  0.50578675705E+02 -0.36112772377E+02 -0.66206409133E+01  0.62499341204E+02  0.00000000000E+00 0. -1.
</event>
<event>
 4    1  0.1956390E-002  0.9118800E+02  0.7818608E-02  0.1130116E+00
         25   -1    0    0    0    0  0.00000000000E+00  0.00000000000E+00  0.99999998245E-14  0.12500000000E+03  0.12500000000E+03 0.  0.
        -11    1    1    0    0    0  0.10454741406E+02 -0.32567435095E+02 -0.16105219938E+01  0.34242272528E+02  0.51100000000E-03 0.  1.
         11    1    1    0    0    0  0.36403009884E+01 -0.26921360574E+02 -0.91829598702E+01  0.28676439784E+02  0.51100000000E-03 0. -1.
         22    1    1    0    0    0 -0.14095042394E+02  0.59488795669E+02  0.10793481864E+02  0.62081287688E+02  0.00000000000E+00 0.  1.
</event>
<event>
 4    1  0.1956390E-002  0.9118800E+02  0.7818608E-02  0.1130116E+00
         25   -1    0    0    0    0  0.00000000000E+00  0.00000000000E+00  0.99999998245E-14  0.12500000000E+03  0.12500000000E+03 0.  0.
        -11    1    1    0    0    0  0.26710818463E+02 -0.19711900432E+00 -0.17344857045E+01  0.26767800055E+02  0.51100000000E-03 0.  1.
         11    1    1    0    0    0  0.35664930411E+02 -0.10073492372E+01  0.32460819045E+01  0.35826513390E+02  0.51100000000E-03 0. -1.
         22    1    1    0    0    0 -0.62375748874E+02  0.12044682415E+01 -0.15115961999E+01  0.62405686555E+02  0.00000000000E+00 0. -1.
</event>
<event>
 4    1  0.1956390E-002  0.9118800E+02  0.7818608E-02  0.1130116E+00
         25   -1    0    0    0    0  0.00000000000E+00  0.00000000000E+00  0.99999998245E-14  0.12500000000E+03  0.12500000000E+03 0.  0.
        -11    1    1    0    0    0 -0.13967786269E+02 -0.47368782744E+01  0.15415028605E+02  0.21334483265E+02  0.51100000000E-03 0. -1.
         11    1    1    0    0    0 -0.26932986332E+02 -0.91302395581E+01  0.29763280718E+02  0.41165518417E+02  0.51100000000E-03 0.  1.
         22    1    1    0    0    0  0.40900772602E+02  0.13867117832E+02 -0.45178309323E+02  0.62499998318E+02  0.00000000000E+00 0. -1.
</event>
<event>
 4    1  0.1956390E-002  0.9118800E+02  0.7818608E-02  0.1130116E+00
         25   -1    0    0    0    0  0.00000000000E+00  0.00000000000E+00  0.99999998245E-14  0.12500000000E+03  0.12500000000E+03 0.  0.
        -11    1    1    0    0    0 -0.16369082070E+01 -0.23006006785E+00  0.38518489273E+01  0.41915553835E+01  0.51100000000E-03 0.  1.
         11    1    1    0    0    0 -0.18615945196E+02  0.53409151868E+01  0.55026281641E+02  0.58334984890E+02  0.51100000000E-03 0. -1.
         22    1    1    0    0    0  0.20252853403E+02 -0.51108551189E+01 -0.58878130568E+02  0.62473459727E+02  0.00000000000E+00 0. -1.
</event>
<event>
 4    1  0.1956390E-002  0.9118800E+02  0.7818608E-02  0.1130116E+00
         25   -1    0    0    0    0  0.00000000000E+00  0.00000000000E+00  0.99999998245E-14  0.12500000000E+03  0.12500000000E+03 0.  0.
        -11    1    1    0    0    0 -0.23289107824E+02 -0.46777097207E+02  0.13878598289E+02  0.54065653211E+02  0.51100000000E-03 0. -1.
         11    1    1    0    0    0 -0.36310228410E+01 -0.72983840740E+01  0.21650568425E+01  0.84343469430E+01  0.51100000000E-03 0. -1.
         22    1    1    0    0    0  0.26920130665E+02  0.54075481281E+02 -0.16043655132E+02  0.62499999846E+02  0.00000000000E+00 0. -1.
</event>
<event>
 4    1  0.1956390E-002  0.9118800E+02  0.7818608E-02  0.1130116E+00
         25   -1    0    0    0    0  0.00000000000E+00  0.00000000000E+00  0.99999998245E-14  0.12500000000E+03  0.12500000000E+03 0.  0.
        -11    1    1    0    0    0  0.91836975011E+01 -0.14835457463E+02  0.10157122552E+02  0.20189062304E+02  0.51100000000E-03 0. -1.
         11    1    1    0    0    0  0.30104440952E+02 -0.25944746610E+02  0.15481194883E+02  0.42650611214E+02  0.51100000000E-03 0.  1.
         22    1    1    0    0    0 -0.39288138453E+02  0.40780204073E+02 -0.25638317435E+02  0.62160326481E+02  0.00000000000E+00 0.  1.
</event>
<event>
 4    1  0.1956390E-002  0.9118800E+02  0.7818608E-02  0.1130116E+00
         25   -1    0    0    0    0  0.00000000000E+00  0.00000000000E+00  0.99999998245E-14  0.12500000000E+03  0.12500000000E+03 0.  0.
        -11    1    1    0    0    0  0.15816551686E+02 -0.43064759325E+02 -0.89444609316E+01  0.46741204355E+02  0.51100000000E-03 0. -1.
         11    1    1    0    0    0  0.53325922926E+01 -0.14518611550E+02 -0.30187782411E+01  0.15758795773E+02  0.51100000000E-03 0.  1.
         22    1    1    0    0    0 -0.21149143978E+02  0.57583370875E+02  0.11963239173E+02  0.62499999871E+02  0.00000000000E+00 0. -1.
</event>
<event>
 4    1  0.1956390E-002  0.9118800E+02  0.7818608E-02  0.1130116E+00
         25   -1    0    0    0    0  0.00000000000E+00  0.00000000000E+00  0.99999998245E-14  0.12500000000E+03  0.12500000000E+03 0.  0.
        -11    1    1    0    0    0 -0.76993726802E+00  0.48225737454E+01 -0.86651356690E+00  0.49599261032E+01  0.51100000000E-03 0.  1.
         11    1    1    0    0    0 -0.94981845219E+01  0.55750959932E+02 -0.10606671955E+02  0.57540303551E+02  0.51100000000E-03 0. -1.
         22    1    1    0    0    0  0.10268121790E+02 -0.60573533677E+02  0.11473185522E+02  0.62499770346E+02  0.00000000000E+00 0. -1.
</event>
<event>
 4    1  0.1956390E-002  0.9118800E+02  0.7818608E-02  0.1130116E+00
         25   -1    0    0    0    0  0.00000000000E+00  0.00000000000E+00  0.99999998245E-14  0.12500000000E+03  0.12500000000E+03 0.  0.
        -11    1    1    0    0    0  0.23116600607E+02 -0.33339102985E+02 -0.29346390515E+02  0.50070786373E+02  0.51100000000E-03 0. -1.
         11    1    1    0    0    0  0.59631929076E+01 -0.82187227372E+01 -0.71697380404E+01  0.12430294321E+02  0.51100000000E-03 0.  1.
         22    1    1    0    0    0 -0.29079793515E+02  0.41557825723E+02  0.36516128556E+02  0.62498919305E+02  0.00000000000E+00 0. -1.
</event>
<event>
 4    1  0.1956390E-002  0.9118800E+02  0.7818608E-02  0.1130116E+00
         25   -1    0    0    0    0  0.00000000000E+00  0.00000000000E+00  0.99999998245E-14  0.12500000000E+03  0.12500000000E+03 0.  0.
        -11    1    1    0    0    0 -0.15945511525E+02  0.23683041949E+00 -0.10294541971E+02  0.18981386174E+02  0.51100000000E-03 0. -1.
         11    1    1    0    0    0 -0.36492711223E+02  0.65473458134E+00 -0.23700783147E+02  0.43518660042E+02  0.51100000000E-03 0.  1.
         22    1    1    0    0    0  0.52438222748E+02 -0.89156500083E+00  0.33995325118E+02  0.62499953784E+02  0.00000000000E+00 0.  1.
</event>
<event>
 4    1  0.1956390E-002  0.9118800E+02  0.7818608E-02  0.1130116E+00
         25   -1    0    0    0    0  0.00000000000E+00  0.00000000000E+00  0.99999998245E-14  0.12500000000E+03  0.12500000000E+03 0.  0.
        -11    1    1    0    0    0 -0.17649224631E+02 -0.97123407690E+01  0.56320903513E+02  0.59815289568E+02  0.51100000000E-03 0.  1.
         11    1    1    0    0    0 -0.84220018804E+00 -0.60469752280E+00  0.24796484054E+01  0.26876786874E+01  0.51100000000E-03 0. -1.
         22    1    1    0    0    0  0.18491424819E+02  0.10317038292E+02 -0.58800551919E+02  0.62497031745E+02  0.00000000000E+00 0.  1.
</event>
<event>
 4    1  0.1956390E-002  0.9118800E+02  0.7818608E-02  0.1130116E+00
         25   -1    0    0    0    0  0.00000000000E+00  0.00000000000E+00  0.99999998245E-14  0.12500000000E+03  0.12500000000E+03 0.  0.
        -11    1    1    0    0    0  0.65360426950E+01 -0.11616091205E+01 -0.29594698757E+01  0.72682633460E+01  0.51100000000E-03 0. -1.
         11    1    1    0    0    0  0.49633734181E+02 -0.94108079599E+01 -0.22327007523E+02  0.55231930443E+02  0.51100000000E-03 0.  1.
         22    1    1    0    0    0 -0.56169776876E+02  0.10572417080E+02  0.25286477399E+02  0.62499806211E+02  0.00000000000E+00 0.  1.
</event>
<event>
 4    1  0.1956390E-002  0.9118800E+02  0.7818608E-02  0.1130116E+00
         25   -1    0    0    0    0  0.00000000000E+00  0.00000000000E+00  0.99999998245E-14  0.12500000000E+03  0.12500000000E+03 0.  0.
        -11    1    1    0    0    0 -0.19825376513E+01 -0.18756710728E+02  0.43090379782E+01  0.19347156417E+02  0.51100000000E-03 0.  1.
         11    1    1    0    0    0  0.41169043398E+02 -0.23457121821E+02  0.35740591084E+01  0.47517371531E+02  0.51100000000E-03 0. -1.
         22    1    1    0    0    0 -0.39186505746E+02  0.42213832549E+02 -0.78830970866E+01  0.58135472052E+02  0.00000000000E+00 0. -1.
</event>
<event>
 4    1  0.1956390E-002  0.9118800E+02  0.7818608E-02  0.1130116E+00
         25   -1    0    0    0    0  0.00000000000E+00  0.00000000000E+00  0.99999998245E-14  0.12500000000E+03  0.12500000000E+03 0.  0.
        -11    1    1    0    0    0 -0.21334474376E+02 -0.29636101975E+01 -0.11494029694E+02  0.24414247913E+02  0.51100000000E-03 0. -1.
         11    1    1    0    0    0 -0.34016239521E+02 -0.31964194682E+01 -0.16850337357E+02  0.38095347720E+02  0.51100000000E-03 0.  1.
         22    1    1    0    0    0  0.55350713897E+02  0.61600296657E+01  0.28344367051E+02  0.62490404367E+02  0.00000000000E+00 0.  1.
</event>
<event>
 4    1  0.1956390E-002  0.9118800E+02  0.7818608E-02  0.1130116E+00
         25   -1    0    0    0    0  0.00000000000E+00  0.00000000000E+00  0.99999998245E-14  0.12500000000E+03  0.12500000000E+03 0.  0.
        -11    1    1    0    0    0  0.18458436086E+01  0.29524141798E+00 -0.11175175367E+01  0.21778778268E+01  0.51100000000E-03 0. -1.
         11    1    1    0    0    0  0.51148805306E+02  0.81505832171E+01 -0.30921289997E+02  0.60322122529E+02  0.51100000000E-03 0.  1.
         22    1    1    0    0    0 -0.52994648915E+02 -0.84458246351E+01  0.32038807534E+02  0.62499999644E+02  0.00000000000E+00 0.  1.
</event>
<event>
 4    1  0.1956390E-002  0.9118800E+02  0.7818608E-02  0.1130116E+00
         25   -1    0    0    0    0  0.00000000000E+00  0.00000000000E+00  0.99999998245E-14  0.12500000000E+03  0.12500000000E+03 0.  0.
        -11    1    1    0    0    0  0.11619021686E+02  0.92543408941E+01 -0.16884713320E+01  0.14949763410E+02  0.51100000000E-03 0.  1.
         11    1    1    0    0    0  0.36923857468E+02  0.29504633353E+02 -0.52090481142E+01  0.47550276783E+02  0.51100000000E-03 0. -1.
         22    1    1    0    0    0 -0.48542879154E+02 -0.38758974247E+02  0.68975194462E+01  0.62499959806E+02  0.00000000000E+00 0. -1.
</event>
<event>
 4    1  0.1956390E-002  0.9118800E+02  0.7818608E-02  0.1130116E+00
         25   -1    0    0    0    0  0.00000000000E+00  0.00000000000E+00  0.99999998245E-14  0.12500000000E+03  0.12500000000E+03 0.  0.
        -11    1    1    0    0    0  0.40702318537E+02 -0.38260554336E+02 -0.27972357930E+02  0.62474007081E+02  0.51100000000E-03 0.  1.
         11    1    1    0    0    0 -0.29099398333E+01  0.36986987577E+01  0.24404056673E+01  0.53012925231E+01  0.51100000000E-03 0. -1.
         22    1    1    0    0    0 -0.37792378703E+02  0.34561855578E+02  0.25531952262E+02  0.57224700396E+02  0.00000000000E+00 0.  1.
</event>
<event>
 4    1  0.1956390E-002  0.9118800E+02  0.7818608E-02  0.1130116E+00
         25   -1    0    0    0    0  0.00000000000E+00  0.00000000000E+00  0.99999998245E-14  0.12500000000E+03  0.12500000000E+03 0.  0.
        -11    1    1    0    0    0 -0.23201875512E+02  0.32783320036E+02  0.25739704009E+02  0.47703306620E+02  0.51100000000E-03 0.  1.
         11    1    1    0    0    0 -0.71980016058E+01  0.10169006624E+02  0.79826194528E+01  0.14796693429E+02  0.51100000000E-03 0. -1.
         22    1    1    0    0    0  0.30399877117E+02 -0.42952326660E+02 -0.33722323461E+02  0.62499999951E+02  0.00000000000E+00 0.  1.
</event>
<event>
 4    1  0.1956390E-002  0.9118800E+02  0.7818608E-02  0.1130116E+00
         25   -1    0    0    0    0  0.00000000000E+00  0.00000000000E+00  0.99999998245E-14  0.12500000000E+03  0.12500000000E+03 0.  0.
        -11    1    1    0    0    0  0.15826312017E+02  0.29995290906E+02 -0.13965027364E+01  0.33943185601E+02  0.51100000000E-03 0. -1.
         11    1    1    0    0    0 -0.35222087650E+02  0.17706149613E+02 -0.18055014827E+01  0.39463439136E+02  0.51100000000E-03 0.  1.
         22    1    1    0    0    0  0.19395775634E+02 -0.47701440519E+02  0.32020042191E+01  0.51593375263E+02  0.00000000000E+00 0.  1.
</event>
<event>
 4    1  0.1956390E-002  0.9118800E+02  0.7818608E-02  0.1130116E+00
         25   -1    0    0    0    0  0.00000000000E+00  0.00000000000E+00  0.99999998245E-14  0.12500000000E+03  0.12500000000E+03 0.  0.
        -11    1    1    0    0    0 -0.55379206144E+01  0.97568854646E+01 -0.11963339059E+02  0.16400818895E+02  0.51100000000E-03 0. -1.
         11    1    1    0    0    0 -0.15569093516E+02  0.27424149151E+02 -0.33625196963E+02  0.46099181127E+02  0.51100000000E-03 0. -1.
         22    1    1    0    0    0  0.21107014130E+02 -0.37181034616E+02  0.45588536022E+02  0.62499999978E+02  0.00000000000E+00 0. -1.
</event>
<event>
 4    1  0.1956390E-002  0.9118800E+02  0.7818608E-02  0.1130116E+00
         25   -1    0    0    0    0  0.00000000000E+00  0.00000000000E+00  0.99999998245E-14  0.12500000000E+03  0.12500000000E+03 0.  0.
        -11    1    1    0    0    0  0.37358290245E+02  0.25901384674E+01 -0.59426846349E+01  0.37916568519E+02  0.51100000000E-03 0. -1.
         11    1    1    0    0    0  0.23864277198E+02  0.29104919715E+01 -0.52395012205E+01  0.24605427511E+02  0.51100000000E-03 0.  1.
         22    1    1    0    0    0 -0.61222567443E+02 -0.55006304389E+01  0.11182185855E+02  0.62478003970E+02  0.00000000000E+00 0. -1.
</event>
<event>
 4    1  0.1956390E-002  0.9118800E+02  0.7818608E-02  0.1130116E+00
         25   -1    0    0    0    0  0.00000000000E+00  0.00000000000E+00  0.99999998245E-14  0.12500000000E+03  0.12500000000E+03 0.  0.
        -11    1    1    0    0    0  0.43721050516E+01 -0.23120141990E+02 -0.50914652295E+02  0.56088841019E+02  0.51100000000E-03 0. -1.
         11    1    1    0    0    0  0.50103480816E+00 -0.26449938025E+01 -0.58185853032E+01  0.64111592778E+01  0.51100000000E-03 0.  1.
         22    1    1    0    0    0 -0.48731398597E+01  0.25765135793E+02  0.56733237599E+02  0.62499999703E+02  0.00000000000E+00 0. -1.
</event>
<event>
 4    1  0.1956390E-002  0.9118800E+02  0.7818608E-02  0.1130116E+00
         25   -1    0    0    0    0  0.00000000000E+00  0.00000000000E+00  0.99999998245E-14  0.12500000000E+03  0.12500000000E+03 0.  0.
        -11    1    1    0    0    0 -0.35693644790E+02 -0.21137621813E+02 -0.15058101713E+02  0.44131414681E+02  0.51100000000E-03 0. -1.
         11    1    1    0    0    0 -0.14856738023E+02 -0.87942409992E+01 -0.62724477321E+01  0.18368585690E+02  0.51100000000E-03 0.  1.
         22    1    1    0    0    0  0.50550382813E+02  0.29931862812E+02  0.21330549445E+02  0.62499999629E+02  0.00000000000E+00 0. -1.
</event>
<event>
 4    1  0.1956390E-002  0.9118800E+02  0.7818608E-02  0.1130116E+00
         25   -1    0    0    0    0  0.00000000000E+00  0.00000000000E+00  0.99999998245E-14  0.12500000000E+03  0.12500000000E+03 0.  0.
        -11    1    1    0    0    0  0.19805279741E+02  0.46633105723E+01  0.96083325562E+01  0.22501458306E+02  0.51100000000E-03 0. -1.
         11    1    1    0    0    0  0.35206568447E+02  0.82875603800E+01  0.17079145756E+02  0.39998541709E+02  0.51100000000E-03 0. -1.
         22    1    1    0    0    0 -0.55011848188E+02 -0.12950870952E+02 -0.26687478312E+02  0.62499999985E+02  0.00000000000E+00 0. -1.
</event>
<event>
 4    1  0.1956390E-002  0.9118800E+02  0.7818608E-02  0.1130116E+00
         25   -1    0    0    0    0  0.00000000000E+00  0.00000000000E+00  0.99999998245E-14  0.12500000000E+03  0.12500000000E+03 0.  0.
        -11    1    1    0    0    0  0.18736369351E+01  0.74634730832E-01 -0.24767093814E+00  0.18914086979E+01  0.51100000000E-03 0.  1.
         11    1    1    0    0    0  0.60310952093E+02  0.17626243368E+01 -0.57413905470E+01  0.60609251378E+02  0.51100000000E-03 0. -1.
         22    1    1    0    0    0 -0.62184589028E+02 -0.18372590676E+01  0.59890614851E+01  0.62499339924E+02  0.00000000000E+00 0. -1.
</event>
<event>
 4    1  0.1956390E-002  0.9118800E+02  0.7818608E-02  0.1130116E+00
         25   -1    0    0    0    0  0.00000000000E+00  0.00000000000E+00  0.99999998245E-14  0.12500000000E+03  0.12500000000E+03 0.  0.
        -11    1    1    0    0    0  0.73243003578E+01 -0.34810671914E+01  0.25099773733E+02  0.26377297932E+02  0.51100000000E-03 0. -1.
         11    1    1    0    0    0 -0.25016953694E+02  0.39375875493E+02 -0.33876168934E+02  0.57653294484E+02  0.51100000000E-03 0.  1.
         22    1    1    0    0    0  0.17692653336E+02 -0.35894808301E+02  0.87763952012E+01  0.40969407584E+02  0.00000000000E+00 0.  1.
</event>
<event>
 4    1  0.1956390E-002  0.9118800E+02  0.7818608E-02  0.1130116E+00
         25   -1    0    0    0    0  0.00000000000E+00  0.00000000000E+00  0.99999998245E-14  0.12500000000E+03  0.12500000000E+03 0.  0.
        -11    1    1    0    0    0 -0.15115042734E+02 -0.21337939811E+02  0.11620520793E+01  0.26174845893E+02  0.51100000000E-03 0.  1.
         11    1    1    0    0    0  0.14620192005E+02 -0.27264983066E+02 -0.29344155323E+02  0.42640459282E+02  0.51100000000E-03 0. -1.
         22    1    1    0    0    0  0.49485072945E+00  0.48602922876E+02  0.28182103244E+02  0.56184694825E+02  0.00000000000E+00 0. -1.
</event>
<event>
 4    1  0.1956390E-002  0.9118800E+02  0.7818608E-02  0.1130116E+00
         25   -1    0    0    0    0  0.00000000000E+00  0.00000000000E+00  0.99999998245E-14  0.12500000000E+03  0.12500000000E+03 0.  0.
        -11    1    1    0    0    0 -0.10285233359E+02  0.93632218047E+01 -0.49038532795E+02  0.50972871675E+02  0.51100000000E-03 0. -1.
         11    1    1    0    0    0 -0.23261577841E+01  0.21175567025E+01 -0.11089618160E+02  0.11527128333E+02  0.51100000000E-03 0. -1.
         22    1    1    0    0    0  0.12611391144E+02 -0.11480778507E+02  0.60128150955E+02  0.62499999992E+02  0.00000000000E+00 0. -1.
</event>
<event>
 4    1  0.1956390E-002  0.9118800E+02  0.7818608E-02  0.1130116E+00
         25   -1    0    0    0    0  0.00000000000E+00  0.00000000000E+00  0.99999998245E-14  0.12500000000E+03  0.12500000000E+03 0.  0.
        -11    1    1    0    0    0  0.27748771774E+02 -0.46282967848E+01  0.27916239107E+00  0.28133492460E+02  0.51100000000E-03 0.  1.
         11    1    1    0    0    0  0.33896439234E+02 -0.56543304298E+01  0.34175345644E+00  0.34366507548E+02  0.51100000000E-03 0. -1.
         22    1    1    0    0    0 -0.61645211007E+02  0.10282627215E+02 -0.62091584751E+00  0.62499999993E+02  0.00000000000E+00 0. -1.
</event>
<event>
 4    1  0.1956390E-002  0.9118800E+02  0.7818608E-02  0.1130116E+00
         25   -1    0    0    0    0  0.00000000000E+00  0.00000000000E+00  0.99999998245E-14  0.12500000000E+03  0.12500000000E+03 0.  0.
        -11    1    1    0    0    0  0.38480483110E+02  0.34849461416E+02 -0.19805814637E+02  0.55565302438E+02  0.51100000000E-03 0.  1.
         11    1    1    0    0    0  0.53199530041E+01  0.47047326536E+01 -0.24068024162E+00  0.71059367114E+01  0.51100000000E-03 0. -1.
         22    1    1    0    0    0 -0.43800436114E+02 -0.39554194069E+02  0.20046494879E+02  0.62328760851E+02  0.00000000000E+00 0.  1.
</event>
<event>
 4    1  0.1956390E-002  0.9118800E+02  0.7818608E-02  0.1130116E+00
         25   -1    0    0    0    0  0.00000000000E+00  0.00000000000E+00  0.99999998245E-14  0.12500000000E+03  0.12500000000E+03 0.  0.
        -11    1    1    0    0    0  0.94058747730E+01  0.13244969787E+02 -0.83681325300E+01  0.18273624359E+02  0.51100000000E-03 0.  1.
         11    1    1    0    0    0  0.22746839451E+02  0.32063787666E+02 -0.20259989627E+02  0.44226376344E+02  0.51100000000E-03 0. -1.
         22    1    1    0    0    0 -0.32152714224E+02 -0.45308757453E+02  0.28628122157E+02  0.62499999298E+02  0.00000000000E+00 0. -1.
</event>
<event>
 4    1  0.1956390E-002  0.9118800E+02  0.7818608E-02  0.1130116E+00
         25   -1    0    0    0    0  0.00000000000E+00  0.00000000000E+00  0.99999998245E-14  0.12500000000E+03  0.12500000000E+03 0.  0.
        -11    1    1    0    0    0 -0.24412454112E+02 -0.30260798201E+01 -0.24316970334E+02  0.34589595565E+02  0.51100000000E-03 0. -1.
         11    1    1    0    0    0 -0.19931938397E+02 -0.19086794780E+01 -0.19446532670E+02  0.27912234929E+02  0.51100000000E-03 0.  1.
         22    1    1    0    0    0  0.44344392509E+02  0.49347592981E+01  0.43763503005E+02  0.62498169505E+02  0.00000000000E+00 0. -1.
</event>
<event>
 4    1  0.1956390E-002  0.9118800E+02  0.7818608E-02  0.1130116E+00
         25   -1    0    0    0    0  0.00000000000E+00  0.00000000000E+00  0.99999998245E-14  0.12500000000E+03  0.12500000000E+03 0.  0.
        -11    1    1    0    0    0 -0.57114381268E+02  0.19506039630E+02 -0.13145015280E+02  0.61768354006E+02  0.51100000000E-03 0.  1.
         11    1    1    0    0    0  0.10765605628E+02  0.13484064957E+01  0.51736003703E+00  0.10862049820E+02  0.51100000000E-03 0. -1.
         22    1    1    0    0    0  0.46348775640E+02 -0.20854446125E+02  0.12627655243E+02  0.52369596174E+02  0.00000000000E+00 0.  1.
</event>
<event>
 4    1  0.1956390E-002  0.9118800E+02  0.7818608E-02  0.1130116E+00
         25   -1    0    0    0    0  0.00000000000E+00  0.00000000000E+00  0.99999998245E-14  0.12500000000E+03  0.12500000000E+03 0.  0.
        -11    1    1    0    0    0 -0.22751879782E+02 -0.20389489197E+01 -0.49451226006E+02  0.54472278271E+02  0.51100000000E-03 0.  1.
         11    1    1    0    0    0 -0.33508480523E+01 -0.30442005897E+00 -0.72885849704E+01  0.80277223030E+01  0.51100000000E-03 0. -1.
         22    1    1    0    0    0  0.26102727834E+02  0.23433689787E+01  0.56739810977E+02  0.62499999426E+02  0.00000000000E+00 0.  1.
</event>
<event>
 4    1  0.1956390E-002  0.9118800E+02  0.7818608E-02  0.1130116E+00
         25   -1    0    0    0    0  0.00000000000E+00  0.00000000000E+00  0.99999998245E-14  0.12500000000E+03  0.12500000000E+03 0.  0.
        -11    1    1    0    0    0  0.23002343263E+02  0.37289700675E+02  0.33114140243E+02  0.54919721925E+02  0.51100000000E-03 0.  1.
         11    1    1    0    0    0  0.26294162782E+01  0.57826255291E+01  0.41812964992E+01  0.76049870907E+01  0.51100000000E-03 0. -1.
         22    1    1    0    0    0 -0.25631759541E+02 -0.43072326204E+02 -0.37295436742E+02  0.62475290984E+02  0.00000000000E+00 0.  1.
</event>
<event>
 4    1  0.1956390E-002  0.9118800E+02  0.7818608E-02  0.1130116E+00
         25   -1    0    0    0    0  0.00000000000E+00  0.00000000000E+00  0.99999998245E-14  0.12500000000E+03  0.12500000000E+03 0.  0.
        -11    1    1    0    0    0 -0.17502896147E+02 -0.15746780405E+02 -0.37630521090E+02  0.44388834006E+02  0.51100000000E-03 0.  1.
         11    1    1    0    0    0 -0.71411513822E+01 -0.64246429832E+01 -0.15353900257E+02  0.18111166000E+02  0.51100000000E-03 0. -1.
         22    1    1    0    0    0  0.24644047529E+02  0.22171423389E+02  0.52984421347E+02  0.62499999993E+02  0.00000000000E+00 0.  1.
</event>
<event>
 4    1  0.1956390E-002  0.9118800E+02  0.7818608E-02  0.1130116E+00
         25   -1    0    0    0    0  0.00000000000E+00  0.00000000000E+00  0.99999998245E-14  0.12500000000E+03  0.12500000000E+03 0.  0.
        -11    1    1    0    0    0  0.12115430970E+02  0.23117096264E+01 -0.97268841239E+01  0.15707957983E+02  0.51100000000E-03 0.  1.
         11    1    1    0    0    0  0.36092549467E+02  0.68876070496E+01 -0.28972123507E+02  0.46792042044E+02  0.51100000000E-03 0. -1.
         22    1    1    0    0    0 -0.48207980436E+02 -0.91993166760E+01  0.38699007630E+02  0.62499999973E+02  0.00000000000E+00 0. -1.
</event>
<event>
 4    1  0.1956390E-002  0.9118800E+02  0.7818608E-02  0.1130116E+00
         25   -1    0    0    0    0  0.00000000000E+00  0.00000000000E+00  0.99999998245E-14  0.12500000000E+03  0.12500000000E+03 0.  0.
        -11    1    1    0    0    0 -0.17658613376E+01 -0.75049737237E+01 -0.23465478786E+01  0.80591056616E+01  0.51100000000E-03 0.  1.
         11    1    1    0    0    0 -0.10702282333E+02 -0.51142023642E+02 -0.15293636647E+02  0.54442086216E+02  0.51100000000E-03 0. -1.
         22    1    1    0    0    0  0.12468143671E+02  0.58646997366E+02  0.17640184526E+02  0.62498808123E+02  0.00000000000E+00 0. -1.
</event>
<event>
 4    1  0.1956390E-002  0.9118800E+02  0.7818608E-02  0.1130116E+00
         25   -1    0    0    0    0  0.00000000000E+00  0.00000000000E+00  0.99999998245E-14  0.12500000000E+03  0.12500000000E+03 0.  0.
        -11    1    1    0    0    0 -0.28200275959E+02 -0.35578602793E+02 -0.34851143881E+02  0.57233685631E+02  0.51100000000E-03 0. -1.
         11    1    1    0    0    0 -0.17702757079E+01 -0.41098923213E+01 -0.28960044856E+01  0.53302845343E+01  0.51100000000E-03 0.  1.
         22    1    1    0    0    0  0.29970551667E+02  0.39688495114E+02  0.37747148367E+02  0.62436029834E+02  0.00000000000E+00 0. -1.
</event>
<event>
 4    1  0.1956390E-002  0.9118800E+02  0.7818608E-02  0.1130116E+00
         25   -1    0    0    0    0  0.00000000000E+00  0.00000000000E+00  0.99999998245E-14  0.12500000000E+03  0.12500000000E+03 0.  0.
        -11    1    1    0    0    0 -0.19289802066E+02 -0.53097224757E+02 -0.11015077118E+02  0.57556438952E+02  0.51100000000E-03 0.  1.
         11    1    1    0    0    0  0.15260843374E+01 -0.50302838640E+01 -0.13277506171E+01  0.54217719538E+01  0.51100000000E-03 0. -1.
         22    1    1    0    0    0  0.17763717729E+02  0.58127508621E+02  0.12342827735E+02  0.62021789095E+02  0.00000000000E+00 0.  1.
</event>
<event>
 4    1  0.1956390E-002  0.9118800E+02  0.7818608E-02  0.1130116E+00
         25   -1    0    0    0    0  0.00000000000E+00  0.00000000000E+00  0.99999998245E-14  0.12500000000E+03  0.12500000000E+03 0.  0.
        -11    1    1    0    0    0  0.18945396195E+01  0.78045309601E+01 -0.29511189481E+01  0.85562308982E+01  0.51100000000E-03 0.  1.
         11    1    1    0    0    0  0.14690356333E+02  0.48842036584E+02 -0.17583396392E+02  0.53949299678E+02  0.51100000000E-03 0. -1.
         22    1    1    0    0    0 -0.16584895952E+02 -0.56646567544E+02  0.20534515340E+02  0.62494469423E+02  0.00000000000E+00 0. -1.
</event>
<event>
 4    1  0.1956390E-002  0.9118800E+02  0.7818608E-02  0.1130116E+00
         25   -1    0    0    0    0  0.00000000000E+00  0.00000000000E+00  0.99999998245E-14  0.12500000000E+03  0.12500000000E+03 0.  0.
        -11    1    1    0    0    0  0.43105363203E+02  0.64005929540E+00  0.13081262863E+02  0.45051098224E+02  0.51100000000E-03 0. -1.
         11    1    1    0    0    0  0.16699549994E+02  0.29399627453E+00  0.50501127648E+01  0.17448926701E+02  0.51100000000E-03 0.  1.
         22    1    1    0    0    0 -0.59804913197E+02 -0.93405556993E+00 -0.18131375628E+02  0.62499975076E+02  0.00000000000E+00 0. -1.
</event>
<event>
 4    1  0.1956390E-002  0.9118800E+02  0.7818608E-02  0.1130116E+00
         25   -1    0    0    0    0  0.00000000000E+00  0.00000000000E+00  0.99999998245E-14  0.12500000000E+03  0.12500000000E+03 0.  0.
        -11    1    1    0    0    0 -0.36049151192E+01  0.29519748406E+01 -0.20393287019E+02  0.20918788784E+02  0.51100000000E-03 0.  1.
         11    1    1    0    0    0 -0.71659531467E+01  0.58675542280E+01 -0.40536626022E+02  0.41581211221E+02  0.51100000000E-03 0.  1.
         22    1    1    0    0    0  0.10770868266E+02 -0.88195290686E+01  0.60929913041E+02  0.62499999995E+02  0.00000000000E+00 0.  1.
</event>
<event>
 4    1  0.1956390E-002  0.9118800E+02  0.7818608E-02  0.1130116E+00
         25   -1    0    0    0    0  0.00000000000E+00  0.00000000000E+00  0.99999998245E-14  0.12500000000E+03  0.12500000000E+03 0.  0.
        -11    1    1    0    0    0  0.33873429630E+02  0.47040284651E+02 -0.17900711316E+02  0.60668221342E+02  0.51100000000E-03 0.  1.
         11    1    1    0    0    0  0.97601168978E+00  0.14497895927E+01 -0.54995470177E+00  0.18321951634E+01  0.51100000000E-03 0. -1.
         22    1    1    0    0    0 -0.34849441320E+02 -0.48490074244E+02  0.18450666018E+02  0.62499583494E+02  0.00000000000E+00 0.  1.
</event>
<event>
 4    1  0.1956390E-002  0.9118800E+02  0.7818608E-02  0.1130116E+00
         25   -1    0    0    0    0  0.00000000000E+00  0.00000000000E+00  0.99999998245E-14  0.12500000000E+03  0.12500000000E+03 0.  0.
        -11    1    1    0    0    0  0.41443860071E+02  0.30862151007E+02 -0.15351075907E+02  0.53904744078E+02  0.51100000000E-03 0. -1.
         11    1    1    0    0    0  0.43375584391E+01 -0.22410336601E+02  0.39646376925E+01  0.23167994132E+02  0.51100000000E-03 0.  1.
         22    1    1    0    0    0 -0.45781418510E+02 -0.84518144056E+01  0.11386438214E+02  0.47927261791E+02  0.00000000000E+00 0. -1.
</event>
<event>
 4    1  0.1956390E-002  0.9118800E+02  0.7818608E-02  0.1130116E+00
         25   -1    0    0    0    0  0.00000000000E+00  0.00000000000E+00  0.99999998245E-14  0.12500000000E+03  0.12500000000E+03 0.  0.
        -11    1    1    0    0    0  0.90158203230E+00 -0.80583654407E-01 -0.18213129234E+01  0.20338448595E+01  0.51100000000E-03 0.  1.
         11    1    1    0    0    0  0.76414087648E+01  0.52722668152E+02 -0.29723429586E+02  0.61004533697E+02  0.51100000000E-03 0. -1.
         22    1    1    0    0    0 -0.85429907971E+01 -0.52642084497E+02  0.31544742509E+02  0.61961621444E+02  0.00000000000E+00 0. -1.
</event>
<event>
 4    1  0.1956390E-002  0.9118800E+02  0.7818608E-02  0.1130116E+00
         25   -1    0    0    0    0  0.00000000000E+00  0.00000000000E+00  0.99999998245E-14  0.12500000000E+03  0.12500000000E+03 0.  0.
        -11    1    1    0    0    0  0.15837802381E+02  0.31920612323E+02  0.26468797573E+02  0.44388722898E+02  0.51100000000E-03 0. -1.
         11    1    1    0    0    0  0.48434536082E+01  0.12596961883E+02  0.12145600623E+02  0.18156489371E+02  0.51100000000E-03 0.  1.
         22    1    1    0    0    0 -0.20681255989E+02 -0.44517574206E+02 -0.38614398196E+02  0.62454787731E+02  0.00000000000E+00 0. -1.
</event>
<event>
 4    1  0.1956390E-002  0.9118800E+02  0.7818608E-02  0.1130116E+00
         25   -1    0    0    0    0  0.00000000000E+00  0.00000000000E+00  0.99999998245E-14  0.12500000000E+03  0.12500000000E+03 0.  0.
        -11    1    1    0    0    0  0.12356387421E+02 -0.49711120139E+02  0.99484966173E+01  0.52180919509E+02  0.51100000000E-03 0. -1.
         11    1    1    0    0    0  0.24505825024E+01 -0.98183343478E+01  0.20198043980E+01  0.10319140179E+02  0.51100000000E-03 0.  1.
         22    1    1    0    0    0 -0.14806969923E+02  0.59529454487E+02 -0.11968301015E+02  0.62499940312E+02  0.00000000000E+00 0. -1.
</event>
<event>
 4    1  0.1956390E-002  0.9118800E+02  0.7818608E-02  0.1130116E+00
         25   -1    0    0    0    0  0.00000000000E+00  0.00000000000E+00  0.99999998245E-14  0.12500000000E+03  0.12500000000E+03 0.  0.
        -11    1    1    0    0    0  0.45161215383E+01 -0.83304161877E+01 -0.32824262897E+01  0.10028235648E+02  0.51100000000E-03 0. -1.
         11    1    1    0    0    0  0.23562221334E+02 -0.43539398201E+02 -0.17390597326E+02  0.52471805243E+02  0.51100000000E-03 0.  1.
         22    1    1    0    0    0 -0.28078342872E+02  0.51869814389E+02  0.20673023616E+02  0.62499959108E+02  0.00000000000E+00 0.  1.
</event>
<event>
 4    1  0.1956390E-002  0.9118800E+02  0.7818608E-02  0.1130116E+00
         25   -1    0    0    0    0  0.00000000000E+00  0.00000000000E+00  0.99999998245E-14  0.12500000000E+03  0.12500000000E+03 0.  0.
        -11    1    1    0    0    0  0.12764105838E+02 -0.23525545728E+01  0.74475373612E+01  0.14964047710E+02  0.51100000000E-03 0.  1.
         11    1    1    0    0    0  0.40608160934E+02 -0.82244946832E+01  0.23304178370E+02  0.47536825482E+02  0.51100000000E-03 0. -1.
         22    1    1    0    0    0 -0.53372266771E+02  0.10577049256E+02 -0.30751715731E+02  0.62499126807E+02  0.00000000000E+00 0. -1.
</event>
<event>
 4    1  0.1956390E-002  0.9118800E+02  0.7818608E-02  0.1130116E+00
         25   -1    0    0    0    0  0.00000000000E+00  0.00000000000E+00  0.99999998245E-14  0.12500000000E+03  0.12500000000E+03 0.  0.
        -11    1    1    0    0    0  0.22636297509E+02  0.63624261920E+01  0.48696891215E+02  0.54076516588E+02  0.51100000000E-03 0.  1.
         11    1    1    0    0    0  0.36112061544E+01  0.10220419038E+01  0.75414907777E+01  0.84237439986E+01  0.51100000000E-03 0. -1.
         22    1    1    0    0    0 -0.26247503663E+02 -0.73844680957E+01 -0.56238381993E+02  0.62499739414E+02  0.00000000000E+00 0.  1.
</event>
<event>
 4    1  0.1956390E-002  0.9118800E+02  0.7818608E-02  0.1130116E+00
         25   -1    0    0    0    0  0.00000000000E+00  0.00000000000E+00  0.99999998245E-14  0.12500000000E+03  0.12500000000E+03 0.  0.
        -11    1    1    0    0    0 -0.15870277745E+02  0.19857454049E+01 -0.12359704540E+02  0.20213144166E+02  0.51100000000E-03 0. -1.
         11    1    1    0    0    0 -0.30368222522E+02  0.37546038915E+01 -0.29240873609E+02  0.42324398155E+02  0.51100000000E-03 0.  1.
         22    1    1    0    0    0  0.46238500267E+02 -0.57403492964E+01  0.41600578149E+02  0.62462457679E+02  0.00000000000E+00 0.  1.
</event>
<event>
 4    1  0.1956390E-002  0.9118800E+02  0.7818608E-02  0.1130116E+00
         25   -1    0    0    0    0  0.00000000000E+00  0.00000000000E+00  0.99999998245E-14  0.12500000000E+03  0.12500000000E+03 0.  0.
        -11    1    1    0    0    0 -0.46998403889E+01 -0.14744671874E+02 -0.40280457799E+01  0.15991216384E+02  0.51100000000E-03 0. -1.
         11    1    1    0    0    0 -0.13725211595E+02 -0.42852764440E+02 -0.11761245511E+02  0.46508792176E+02  0.51100000000E-03 0.  1.
         22    1    1    0    0    0  0.18425051983E+02  0.57597436314E+02  0.15789291290E+02  0.62499991440E+02  0.00000000000E+00 0.  1.
</event>
<event>
 4    1  0.1956390E-002  0.9118800E+02  0.7818608E-02  0.1130116E+00
         25   -1    0    0    0    0  0.00000000000E+00  0.00000000000E+00  0.99999998245E-14  0.12500000000E+03  0.12500000000E+03 0.  0.
        -11    1    1    0    0    0  0.40260836967E+02 -0.32518651284E+02 -0.22057946508E+02  0.56257894371E+02  0.51100000000E-03 0.  1.
         11    1    1    0    0    0  0.44664213199E+01 -0.36088492041E+01 -0.24476868868E+01  0.62421056818E+01  0.51100000000E-03 0. -1.
         22    1    1    0    0    0 -0.44727258287E+02  0.36127500488E+02  0.24505633395E+02  0.62499999948E+02  0.00000000000E+00 0.  1.
</event>
<event>
 4    1  0.1956390E-002  0.9118800E+02  0.7818608E-02  0.1130116E+00
         25   -1    0    0    0    0  0.00000000000E+00  0.00000000000E+00  0.99999998245E-14  0.12500000000E+03  0.12500000000E+03 0.  0.
        -11    1    1    0    0    0  0.29674861463E+02 -0.35230056801E+02  0.41094945051E+02  0.61729642912E+02  0.51100000000E-03 0. -1.
         11    1    1    0    0    0  0.39203742640E+00 -0.48202402330E+00  0.45825928432E+00  0.77203778115E+00  0.51100000000E-03 0.  1.
         22    1    1    0    0    0 -0.30066898889E+02  0.35712080824E+02 -0.41553204336E+02  0.62498319307E+02  0.00000000000E+00 0. -1.
</event>
<event>
 4    1  0.1956390E-002  0.9118800E+02  0.7818608E-02  0.1130116E+00
         25   -1    0    0    0    0  0.00000000000E+00  0.00000000000E+00  0.99999998245E-14  0.12500000000E+03  0.12500000000E+03 0.  0.
        -11    1    1    0    0    0  0.56403749550E+00 -0.59999033251E+01  0.17317663882E+01  0.62702466691E+01  0.51100000000E-03 0.  1.
         11    1    1    0    0    0  0.50574681759E+01 -0.53795004632E+02  0.15566140306E+02  0.56229753974E+02  0.51100000000E-03 0. -1.
         22    1    1    0    0    0 -0.56215056714E+01  0.59794907957E+02 -0.17297906694E+02  0.62499999357E+02  0.00000000000E+00 0. -1.
</event>
<event>
 4    1  0.1956390E-002  0.9118800E+02  0.7818608E-02  0.1130116E+00
         25   -1    0    0    0    0  0.00000000000E+00  0.00000000000E+00  0.99999998245E-14  0.12500000000E+03  0.12500000000E+03 0.  0.
        -11    1    1    0    0    0 -0.11982307038E+02  0.59521883443E+01 -0.54552015191E+02  0.56168733203E+02  0.51100000000E-03 0.  1.
         11    1    1    0    0    0 -0.11112674398E+01 -0.41291676593E+00 -0.62641963166E+01  0.63753879358E+01  0.51100000000E-03 0. -1.
         22    1    1    0    0    0  0.13093574478E+02 -0.55392715784E+01  0.60816211507E+02  0.62455878861E+02  0.00000000000E+00 0.  1.
</event>
<event>
 4    1  0.1956390E-002  0.9118800E+02  0.7818608E-02  0.1130116E+00
         25   -1    0    0    0    0  0.00000000000E+00  0.00000000000E+00  0.99999998245E-14  0.12500000000E+03  0.12500000000E+03 0.  0.
        -11    1    1    0    0    0 -0.51212272227E+00  0.18693773731E+02  0.34675974334E+02  0.39397241557E+02  0.51100000000E-03 0. -1.
         11    1    1    0    0    0 -0.19271792100E+01  0.10943447614E+02  0.20275600573E+02  0.23120835716E+02  0.51100000000E-03 0.  1.
         22    1    1    0    0    0  0.24393019323E+01 -0.29637221345E+02 -0.54951574907E+02  0.62481922727E+02  0.00000000000E+00 0. -1.
</event>
<event>
 4    1  0.1956390E-002  0.9118800E+02  0.7818608E-02  0.1130116E+00
         25   -1    0    0    0    0  0.00000000000E+00  0.00000000000E+00  0.99999998245E-14  0.12500000000E+03  0.12500000000E+03 0.  0.
        -11    1    1    0    0    0 -0.67159812426E+01  0.58849154827E+01 -0.21871569169E+01  0.91934917159E+01  0.51100000000E-03 0.  1.
         11    1    1    0    0    0 -0.14635512893E+02  0.41351990732E+02 -0.31482143940E+02  0.53993617794E+02  0.51100000000E-03 0. -1.
         22    1    1    0    0    0  0.21351494136E+02 -0.47236906214E+02  0.33669300857E+02  0.61812890490E+02  0.00000000000E+00 0. -1.
</event>
<event>
 4    1  0.1956390E-002  0.9118800E+02  0.7818608E-02  0.1130116E+00
         25   -1    0    0    0    0  0.00000000000E+00  0.00000000000E+00  0.99999998245E-14  0.12500000000E+03  0.12500000000E+03 0.  0.
        -11    1    1    0    0    0  0.13693814446E+02 -0.45212400138E+02  0.18681645051E+02  0.50800448250E+02  0.51100000000E-03 0. -1.
         11    1    1    0    0    0  0.30017286553E+01 -0.10592492688E+02  0.39669302323E+01  0.11702470337E+02  0.51100000000E-03 0.  1.
         22    1    1    0    0    0 -0.16695543102E+02  0.55804892826E+02 -0.22648575283E+02  0.62497081413E+02  0.00000000000E+00 0. -1.
</event>
<event>
 4    1  0.1956390E-002  0.9118800E+02  0.7818608E-02  0.1130116E+00
         25   -1    0    0    0    0  0.00000000000E+00  0.00000000000E+00  0.99999998245E-14  0.12500000000E+03  0.12500000000E+03 0.  0.
        -11    1    1    0    0    0  0.48847241987E+02  0.21193842975E+02 -0.32376672780E+01  0.53345238958E+02  0.51100000000E-03 0.  1.
         11    1    1    0    0    0  0.83838180067E+01  0.36355415851E+01 -0.55144502777E+00  0.91547615406E+01  0.51100000000E-03 0. -1.
         22    1    1    0    0    0 -0.57231059994E+02 -0.24829384560E+02  0.37891123058E+01  0.62499999502E+02  0.00000000000E+00 0.  1.
</event>
<event>
 4    1  0.1956390E-002  0.9118800E+02  0.7818608E-02  0.1130116E+00
         25   -1    0    0    0    0  0.00000000000E+00  0.00000000000E+00  0.99999998245E-14  0.12500000000E+03  0.12500000000E+03 0.  0.
        -11    1    1    0    0    0  0.55129054624E+02 -0.48727794997E+01  0.20982859653E+02  0.59188149517E+02  0.51100000000E-03 0.  1.
         11    1    1    0    0    0  0.30833340687E+01 -0.27494628476E+00  0.11772073176E+01  0.33118517129E+01  0.51100000000E-03 0. -1.
         22    1    1    0    0    0 -0.58212388693E+02  0.51477257844E+01 -0.22160066970E+02  0.62499998770E+02  0.00000000000E+00 0.  1.
</event>
<event>
 4    1  0.1956390E-002  0.9118800E+02  0.7818608E-02  0.1130116E+00
         25   -1    0    0    0    0  0.00000000000E+00  0.00000000000E+00  0.99999998245E-14  0.12500000000E+03  0.12500000000E+03 0.  0.
        -11    1    1    0    0    0 -0.38439388506E+02 -0.25280814203E+02  0.15787478093E+02  0.48641038437E+02  0.51100000000E-03 0.  1.
         11    1    1    0    0    0 -0.10951438862E+02 -0.72341271074E+01  0.44503342249E+01  0.13859007292E+02  0.51100000000E-03 0. -1.
         22    1    1    0    0    0  0.49390827367E+02  0.32514941310E+02 -0.20237812318E+02  0.62499954271E+02  0.00000000000E+00 0.  1.
</event>
<event>
 4    1  0.1956390E-002  0.9118800E+02  0.7818608E-02  0.1130116E+00
         25   -1    0    0    0    0  0.00000000000E+00  0.00000000000E+00  0.99999998245E-14  0.12500000000E+03  0.12500000000E+03 0.  0.
        -11    1    1    0    0    0 -0.25837146672E+01 -0.14302102426E+01  0.22038067328E+01  0.36848130477E+01  0.51100000000E-03 0.  1.
         11    1    1    0    0    0 -0.41242369571E+02 -0.22825625014E+02  0.35175048166E+02  0.58815186975E+02  0.51100000000E-03 0.  1.
         22    1    1    0    0    0  0.43826084238E+02  0.24255835257E+02 -0.37378854899E+02  0.62499999978E+02  0.00000000000E+00 0.  1.
</event>
<event>
 4    1  0.1956390E-002  0.9118800E+02  0.7818608E-02  0.1130116E+00
         25   -1    0    0    0    0  0.00000000000E+00  0.00000000000E+00  0.99999998245E-14  0.12500000000E+03  0.12500000000E+03 0.  0.
        -11    1    1    0    0    0 -0.27391698876E+02  0.35545617488E+02 -0.12295614059E+02  0.46529326400E+02  0.51100000000E-03 0. -1.
         11    1    1    0    0    0 -0.94373491428E+01  0.12209892632E+02 -0.41136497772E+01  0.15970821885E+02  0.51100000000E-03 0.  1.
         22    1    1    0    0    0  0.36829048019E+02 -0.47755510120E+02  0.16409263836E+02  0.62499851715E+02  0.00000000000E+00 0. -1.
</event>
<event>
 4    1  0.1956390E-002  0.9118800E+02  0.7818608E-02  0.1130116E+00
         25   -1    0    0    0    0  0.00000000000E+00  0.00000000000E+00  0.99999998245E-14  0.12500000000E+03  0.12500000000E+03 0.  0.
        -11    1    1    0    0    0  0.30793852681E-01  0.25404302704E+00 -0.11185786192E+00  0.27928222884E+00  0.51100000000E-03 0. -1.
         11    1    1    0    0    0  0.74541147125E+01  0.56090377101E+02 -0.25879082953E+02  0.62220745449E+02  0.51100000000E-03 0.  1.
         22    1    1    0    0    0 -0.74849085652E+01 -0.56344420128E+02  0.25990940815E+02  0.62499972322E+02  0.00000000000E+00 0.  1.
</event>
<event>
 4    1  0.1956390E-002  0.9118800E+02  0.7818608E-02  0.1130116E+00
         25   -1    0    0    0    0  0.00000000000E+00  0.00000000000E+00  0.99999998245E-14  0.12500000000E+03  0.12500000000E+03 0.  0.
        -11    1    1    0    0    0  0.16079015643E+02 -0.14737945891E+02 -0.10458873219E+01  0.21836567351E+02  0.51100000000E-03 0. -1.
         11    1    1    0    0    0  0.39022040113E+02 -0.86046673443E+01  0.13232893153E+02  0.42093578800E+02  0.51100000000E-03 0.  1.
         22    1    1    0    0    0 -0.55101055756E+02  0.23342613236E+02 -0.12187005831E+02  0.61069853849E+02  0.00000000000E+00 0.  1.
</event>
<event>
 4    1  0.1956390E-002  0.9118800E+02  0.7818608E-02  0.1130116E+00
         25   -1    0    0    0    0  0.00000000000E+00  0.00000000000E+00  0.99999998245E-14  0.12500000000E+03  0.12500000000E+03 0.  0.
        -11    1    1    0    0    0 -0.26912693198E+02  0.32959827855E+02  0.60284768696E+01  0.42976573165E+02  0.51100000000E-03 0. -1.
         11    1    1    0    0    0 -0.12217887931E+02  0.14986722113E+02  0.26992940989E+01  0.19523442680E+02  0.51100000000E-03 0.  1.
         22    1    1    0    0    0  0.39130581129E+02 -0.47946549968E+02 -0.87277709686E+01  0.62499984155E+02  0.00000000000E+00 0. -1.
</event>
<event>
 4    1  0.1956390E-002  0.9118800E+02  0.7818608E-02  0.1130116E+00
         25   -1    0    0    0    0  0.00000000000E+00  0.00000000000E+00  0.99999998245E-14  0.12500000000E+03  0.12500000000E+03 0.  0.
        -11    1    1    0    0    0 -0.17403641386E+02  0.28559513521E+02  0.23436657965E+02  0.40838823231E+02  0.51100000000E-03 0.  1.
         11    1    1    0    0    0 -0.11072104739E+02  0.13759895225E+02  0.12610673880E+02  0.21701504923E+02  0.51100000000E-03 0. -1.
         22    1    1    0    0    0  0.28475746125E+02 -0.42319408746E+02 -0.36047331845E+02  0.62459671846E+02  0.00000000000E+00 0.  1.
</event>
<event>
 4    1  0.1956390E-002  0.9118800E+02  0.7818608E-02  0.1130116E+00
         25   -1    0    0    0    0  0.00000000000E+00  0.00000000000E+00  0.99999998245E-14  0.12500000000E+03  0.12500000000E+03 0.  0.
        -11    1    1    0    0    0  0.38456417703E+02 -0.56408866435E+01  0.41615890592E+02  0.56943814543E+02  0.51100000000E-03 0.  1.
         11    1    1    0    0    0  0.37622152715E+01 -0.54721915276E+00  0.40518598426E+01  0.55561930307E+01  0.51100000000E-03 0. -1.
         22    1    1    0    0    0 -0.42218632975E+02  0.61881057962E+01 -0.45667750434E+02  0.62499992426E+02  0.00000000000E+00 0.  1.
</event>
<event>
 4    1  0.1956390E-002  0.9118800E+02  0.7818608E-02  0.1130116E+00
         25   -1    0    0    0    0  0.00000000000E+00  0.00000000000E+00  0.99999998245E-14  0.12500000000E+03  0.12500000000E+03 0.  0.
        -11    1    1    0    0    0  0.47433537115E+01  0.14854270257E+02  0.81267204014E+01  0.17583865731E+02  0.51100000000E-03 0. -1.
         11    1    1    0    0    0  0.11970018911E+02  0.38058915498E+02  0.20632591724E+02  0.44916213588E+02  0.51100000000E-03 0.  1.
         22    1    1    0    0    0 -0.16713372622E+02 -0.52913185755E+02 -0.28759312125E+02  0.62499920681E+02  0.00000000000E+00 0.  1.
</event>
<event>
 4    1  0.1956390E-002  0.9118800E+02  0.7818608E-02  0.1130116E+00
         25   -1    0    0    0    0  0.00000000000E+00  0.00000000000E+00  0.99999998245E-14  0.12500000000E+03  0.12500000000E+03 0.  0.
        -11    1    1    0    0    0  0.13896525137E+02  0.22223188948E+02  0.53882074597E+01  0.26758481231E+02  0.51100000000E-03 0.  1.
         11    1    1    0    0    0  0.18559570110E+02  0.29682783681E+02  0.72063092935E+01  0.35741519045E+02  0.51100000000E-03 0. -1.
         22    1    1    0    0    0 -0.32456095247E+02 -0.51905972629E+02 -0.12594516753E+02  0.62499999724E+02  0.00000000000E+00 0.  1.
</event>
<event>
 4    1  0.1956390E-002  0.9118800E+02  0.7818608E-02  0.1130116E+00
         25   -1    0    0    0    0  0.00000000000E+00  0.00000000000E+00  0.99999998245E-14  0.12500000000E+03  0.12500000000E+03 0.  0.
        -11    1    1    0    0    0 -0.57645938265E+00  0.12941611178E+02  0.82243199516E+01  0.15344609615E+02  0.51100000000E-03 0. -1.
         11    1    1    0    0    0 -0.17629411463E+01  0.39779743208E+02  0.25260541422E+02  0.47155390831E+02  0.51100000000E-03 0.  1.
         22    1    1    0    0    0  0.23394005289E+01 -0.52721354386E+02 -0.33484861374E+02  0.62499999555E+02  0.00000000000E+00 0.  1.
</event>
<event>
 4    1  0.1956390E-002  0.9118800E+02  0.7818608E-02  0.1130116E+00
         25   -1    0    0    0    0  0.00000000000E+00  0.00000000000E+00  0.99999998245E-14  0.12500000000E+03  0.12500000000E+03 0.  0.
        -11    1    1    0    0    0 -0.19951897608E+02  0.53073000204E+02  0.81339728529E+01  0.57279866301E+02  0.51100000000E-03 0.  1.
         11    1    1    0    0    0 -0.18149731615E+01  0.48382757997E+01  0.73943431850E+00  0.52201344488E+01  0.51100000000E-03 0. -1.
         22    1    1    0    0    0  0.21766870770E+02 -0.57911276004E+02 -0.88734071714E+01  0.62499999250E+02  0.00000000000E+00 0.  1.
</event>
<event>
 4    1  0.1956390E-002  0.9118800E+02  0.7818608E-02  0.1130116E+00
         25   -1    0    0    0    0  0.00000000000E+00  0.00000000000E+00  0.99999998245E-14  0.12500000000E+03  0.12500000000E+03 0.  0.
        -11    1    1    0    0    0  0.50053949455E+02 -0.34531512493E+01  0.77019549106E+01  0.50760636514E+02  0.51100000000E-03 0.  1.
         11    1    1    0    0    0  0.11574613861E+02 -0.79725388078E+00  0.17903604432E+01  0.11739364998E+02  0.51100000000E-03 0. -1.
         22    1    1    0    0    0 -0.61628563316E+02  0.42504051301E+01 -0.94923153539E+01  0.62499998488E+02  0.00000000000E+00 0.  1.
</event>
<event>
 4    1  0.1956390E-002  0.9118800E+02  0.7818608E-02  0.1130116E+00
         25   -1    0    0    0    0  0.00000000000E+00  0.00000000000E+00  0.99999998245E-14  0.12500000000E+03  0.12500000000E+03 0.  0.
        -11    1    1    0    0    0  0.60589083168E+01 -0.77186178667E+01  0.15793261120E+02  0.18593400142E+02  0.51100000000E-03 0. -1.
         11    1    1    0    0    0  0.14308991777E+02 -0.18226377124E+02  0.37293986685E+02  0.43906599867E+02  0.51100000000E-03 0. -1.
         22    1    1    0    0    0 -0.20367900094E+02  0.25944994991E+02 -0.53087247805E+02  0.62499999991E+02  0.00000000000E+00 0. -1.
</event>
<event>
 4    1  0.1956390E-002  0.9118800E+02  0.7818608E-02  0.1130116E+00
         25   -1    0    0    0    0  0.00000000000E+00  0.00000000000E+00  0.99999998245E-14  0.12500000000E+03  0.12500000000E+03 0.  0.
        -11    1    1    0    0    0 -0.30005738268E+02  0.47918209598E+02 -0.19312600973E+02  0.59745089311E+02  0.51100000000E-03 0.  1.
         11    1    1    0    0    0 -0.28837010146E+01 -0.10535208025E+00 -0.19133255633E+01  0.34623179482E+01  0.51100000000E-03 0. -1.
         22    1    1    0    0    0  0.32889439283E+02 -0.47812857518E+02  0.21225926536E+02  0.61792592741E+02  0.00000000000E+00 0.  1.
</event>
<event>
 4    1  0.1956390E-002  0.9118800E+02  0.7818608E-02  0.1130116E+00
         25   -1    0    0    0    0  0.00000000000E+00  0.00000000000E+00  0.99999998245E-14  0.12500000000E+03  0.12500000000E+03 0.  0.
        -11    1    1    0    0    0  0.39011745441E+01  0.81598446363E+01  0.16783930464E+02  0.19065742823E+02  0.51100000000E-03 0.  1.
         11    1    1    0    0    0  0.89377471662E+01  0.18710455094E+02  0.38165084029E+02  0.43434296281E+02  0.51100000000E-03 0. -1.
         22    1    1    0    0    0 -0.12838921710E+02 -0.26870299730E+02 -0.54949014493E+02  0.62499960896E+02  0.00000000000E+00 0. -1.
</event>
<event>
 4    1  0.1956390E-002  0.9118800E+02  0.7818608E-02  0.1130116E+00
         25   -1    0    0    0    0  0.00000000000E+00  0.00000000000E+00  0.99999998245E-14  0.12500000000E+03  0.12500000000E+03 0.  0.
        -11    1    1    0    0    0 -0.53028665165E+01 -0.61062177161E+01  0.20759407781E+01  0.83495998984E+01  0.51100000000E-03 0. -1.
         11    1    1    0    0    0 -0.34359248005E+02 -0.39662572006E+02  0.13363729715E+02  0.54150409175E+02  0.51100000000E-03 0.  1.
         22    1    1    0    0    0  0.39662114522E+02  0.45768789722E+02 -0.15439670493E+02  0.62499990927E+02  0.00000000000E+00 0.  1.
</event>
<event>
 4    1  0.1956390E-002  0.9118800E+02  0.7818608E-02  0.1130116E+00
         25   -1    0    0    0    0  0.00000000000E+00  0.00000000000E+00  0.99999998245E-14  0.12500000000E+03  0.12500000000E+03 0.  0.
        -11    1    1    0    0    0  0.22887593657E+02 -0.73377566354E+01  0.53243452546E+02  0.58417033947E+02  0.51100000000E-03 0.  1.
         11    1    1    0    0    0  0.15989708429E+01 -0.51263494344E+00  0.37217078943E+01  0.40829661097E+01  0.51100000000E-03 0. -1.
         22    1    1    0    0    0 -0.24486564500E+02  0.78503915788E+01 -0.56965160440E+02  0.62499999944E+02  0.00000000000E+00 0.  1.
</event>
<event>
 4    1  0.1956390E-002  0.9118800E+02  0.7818608E-02  0.1130116E+00
         25   -1    0    0    0    0  0.00000000000E+00  0.00000000000E+00  0.99999998245E-14  0.12500000000E+03  0.12500000000E+03 0.  0.
        -11    1    1    0    0    0 -0.37563936306E+01  0.33462544537E+02  0.17497596568E+02  0.37947572596E+02  0.51100000000E-03 0. -1.
         11    1    1    0    0    0 -0.24326137477E+01  0.21653788672E+02  0.11314483453E+02  0.24552427773E+02  0.51100000000E-03 0.  1.
         22    1    1    0    0    0  0.61890073784E+01 -0.55116333209E+02 -0.28812080021E+02  0.62499999631E+02  0.00000000000E+00 0. -1.
</event>
<event>
 4    1  0.1956390E-002  0.9118800E+02  0.7818608E-02  0.1130116E+00
         25   -1    0    0    0    0  0.00000000000E+00  0.00000000000E+00  0.99999998245E-14  0.12500000000E+03  0.12500000000E+03 0.  0.
        -11    1    1    0    0    0  0.19404713923E+02  0.10308640396E+00  0.12330996591E+02  0.22991455509E+02  0.51100000000E-03 0. -1.
         11    1    1    0    0    0  0.12485312845E+02 -0.39055999297E+02 -0.27570726699E+02  0.49410515974E+02  0.51100000000E-03 0.  1.
         22    1    1    0    0    0 -0.31890026768E+02  0.38952912893E+02  0.15239730108E+02  0.52598028517E+02  0.00000000000E+00 0.  1.
</event>
<event>
 4    1  0.1956390E-002  0.9118800E+02  0.7818608E-02  0.1130116E+00
         25   -1    0    0    0    0  0.00000000000E+00  0.00000000000E+00  0.99999998245E-14  0.12500000000E+03  0.12500000000E+03 0.  0.
        -11    1    1    0    0    0  0.31127958395E+02 -0.18011100251E+02 -0.11958393754E+02  0.37899244155E+02  0.51100000000E-03 0.  1.
         11    1    1    0    0    0  0.20617406866E+02 -0.96057227179E+01 -0.94936965504E+01  0.24647061676E+02  0.51100000000E-03 0. -1.
         22    1    1    0    0    0 -0.51745365261E+02  0.27616822969E+02  0.21452090305E+02  0.62453694169E+02  0.00000000000E+00 0. -1.
</event>
<event>
 4    1  0.1956390E-002  0.9118800E+02  0.7818608E-02  0.1130116E+00
         25   -1    0    0    0    0  0.00000000000E+00  0.00000000000E+00  0.99999998245E-14  0.12500000000E+03  0.12500000000E+03 0.  0.
        -11    1    1    0    0    0 -0.13377266945E+02  0.76163366863E-01 -0.50739478663E+02  0.52473343395E+02  0.51100000000E-03 0. -1.
         11    1    1    0    0    0 -0.25715105877E+01  0.63300035010E-01 -0.96911440534E+01  0.10026711670E+02  0.51100000000E-03 0.  1.
         22    1    1    0    0    0  0.15948777533E+02 -0.13946340187E+00  0.60430622717E+02  0.62499944934E+02  0.00000000000E+00 0. -1.
</event>
<event>
 4    1  0.1956390E-002  0.9118800E+02  0.7818608E-02  0.1130116E+00
         25   -1    0    0    0    0  0.00000000000E+00  0.00000000000E+00  0.99999998245E-14  0.12500000000E+03  0.12500000000E+03 0.  0.
        -11    1    1    0    0    0  0.44098564275E+02 -0.38849282266E+01  0.26583770374E+02  0.51637901642E+02  0.51100000000E-03 0. -1.
         11    1    1    0    0    0  0.86030445295E+01 -0.51380298246E+01  0.50661680493E+01  0.11228436428E+02  0.51100000000E-03 0.  1.
         22    1    1    0    0    0 -0.52701608805E+02  0.90229580511E+01 -0.31649938423E+02  0.62133661930E+02  0.00000000000E+00 0. -1.
</event>
<event>
 4    1  0.1956390E-002  0.9118800E+02  0.7818608E-02  0.1130116E+00
         25   -1    0    0    0    0  0.00000000000E+00  0.00000000000E+00  0.99999998245E-14  0.12500000000E+03  0.12500000000E+03 0.  0.
        -11    1    1    0    0    0 -0.25999915931E+01 -0.17880455843E+00  0.18207476221E+01  0.31791586181E+01  0.51100000000E-03 0. -1.
         11    1    1    0    0    0 -0.48587153784E+02 -0.33011443804E+01  0.33872608194E+02  0.59320845014E+02  0.51100000000E-03 0.  1.
         22    1    1    0    0    0  0.51187145377E+02  0.34799489388E+01 -0.35693355816E+02  0.62499996368E+02  0.00000000000E+00 0.  1.
</event>
<event>
 4    1  0.1956390E-002  0.9118800E+02  0.7818608E-02  0.1130116E+00
         25   -1    0    0    0    0  0.00000000000E+00  0.00000000000E+00  0.99999998245E-14  0.12500000000E+03  0.12500000000E+03 0.  0.
        -11    1    1    0    0    0  0.33044578382E+02  0.19204649117E+02 -0.21966033617E+02  0.44082528753E+02  0.51100000000E-03 0.  1.
         11    1    1    0    0    0  0.13805143376E+02  0.80223372061E+01 -0.91795082463E+01  0.18417471319E+02  0.51100000000E-03 0. -1.
         22    1    1    0    0    0 -0.46849721757E+02 -0.27226986323E+02  0.31145541864E+02  0.62499999928E+02  0.00000000000E+00 0.  1.
</event>
<event>
 4    1  0.1956390E-002  0.9118800E+02  0.7818608E-02  0.1130116E+00
         25   -1    0    0    0    0  0.00000000000E+00  0.00000000000E+00  0.99999998245E-14  0.12500000000E+03  0.12500000000E+03 0.  0.
        -11    1    1    0    0    0  0.19621188024E+02  0.12971040562E+01  0.21521935409E+02  0.29152481926E+02  0.51100000000E-03 0.  1.
         11    1    1    0    0    0  0.22753055588E+02  0.10293799322E+01  0.24359430140E+02  0.33348808054E+02  0.51100000000E-03 0. -1.
         22    1    1    0    0    0 -0.42374243612E+02 -0.23264839884E+01 -0.45881365549E+02  0.62498710020E+02  0.00000000000E+00 0.  1.
</event>
<event>
 4    1  0.1956390E-002  0.9118800E+02  0.7818608E-02  0.1130116E+00
         25   -1    0    0    0    0  0.00000000000E+00  0.00000000000E+00  0.99999998245E-14  0.12500000000E+03  0.12500000000E+03 0.  0.
        -11    1    1    0    0    0 -0.10064284399E+01  0.55906382375E+02  0.95408386965E+01  0.56723576154E+02  0.51100000000E-03 0. -1.
         11    1    1    0    0    0 -0.10323244891E+00  0.56930044663E+01  0.97268512488E+00  0.57764239288E+01  0.51100000000E-03 0.  1.
         22    1    1    0    0    0  0.11096608888E+01 -0.61599386841E+02 -0.10513523821E+02  0.62499999917E+02  0.00000000000E+00 0. -1.
</event>
<event>
 4    1  0.1956390E-002  0.9118800E+02  0.7818608E-02  0.1130116E+00
         25   -1    0    0    0    0  0.00000000000E+00  0.00000000000E+00  0.99999998245E-14  0.12500000000E+03  0.12500000000E+03 0.  0.
        -11    1    1    0    0    0  0.63355408446E+01  0.86371918324E+01  0.10542290589E+02  0.15029306427E+02  0.51100000000E-03 0. -1.
         11    1    1    0    0    0  0.19964709916E+02  0.26852292776E+02  0.33672996784E+02  0.47471106812E+02  0.51100000000E-03 0.  1.
         22    1    1    0    0    0 -0.26300250760E+02 -0.35489484608E+02 -0.44215287373E+02  0.62499586761E+02  0.00000000000E+00 0.  1.
</event>
<event>
 4    1  0.1956390E-002  0.9118800E+02  0.7818608E-02  0.1130116E+00
         25   -1    0    0    0    0  0.00000000000E+00  0.00000000000E+00  0.99999998245E-14  0.12500000000E+03  0.12500000000E+03 0.  0.
        -11    1    1    0    0    0 -0.24218072122E+02 -0.57644862323E+01 -0.52813185893E+01  0.25448706158E+02  0.51100000000E-03 0. -1.
         11    1    1    0    0    0 -0.35259657958E+02 -0.83919848644E+01 -0.76895699637E+01  0.37051293848E+02  0.51100000000E-03 0. -1.
         22    1    1    0    0    0  0.59477730080E+02  0.14156471097E+02  0.12970888553E+02  0.62499999994E+02  0.00000000000E+00 0. -1.
</event>
<event>
 4    1  0.1956390E-002  0.9118800E+02  0.7818608E-02  0.1130116E+00
         25   -1    0    0    0    0  0.00000000000E+00  0.00000000000E+00  0.99999998245E-14  0.12500000000E+03  0.12500000000E+03 0.  0.
        -11    1    1    0    0    0  0.77099461483E+00  0.14648183138E+01 -0.16599815183E+02  0.16682145838E+02  0.51100000000E-03 0.  1.
         11    1    1    0    0    0  0.63505862368E+01  0.18194143259E+02 -0.41940303449E+02  0.46155669729E+02  0.51100000000E-03 0. -1.
         22    1    1    0    0    0 -0.71215808516E+01 -0.19658961572E+02  0.58540118633E+02  0.62162184433E+02  0.00000000000E+00 0. -1.
</event>
<event>
 4    1  0.1956390E-002  0.9118800E+02  0.7818608E-02  0.1130116E+00
         25   -1    0    0    0    0  0.00000000000E+00  0.00000000000E+00  0.99999998245E-14  0.12500000000E+03  0.12500000000E+03 0.  0.
        -11    1    1    0    0    0 -0.54433175354E+01 -0.62719280155E+00  0.32681987096E+02  0.33138125436E+02  0.51100000000E-03 0.  1.
         11    1    1    0    0    0  0.11579036302E+01 -0.26764424862E+02  0.19252802317E+02  0.32990083000E+02  0.51100000000E-03 0. -1.
         22    1    1    0    0    0  0.42854139052E+01  0.27391617664E+02 -0.51934789413E+02  0.58871791564E+02  0.00000000000E+00 0.  1.
</event>
<event>
 4    1  0.1956390E-002  0.9118800E+02  0.7818608E-02  0.1130116E+00
         25   -1    0    0    0    0  0.00000000000E+00  0.00000000000E+00  0.99999998245E-14  0.12500000000E+03  0.12500000000E+03 0.  0.
        -11    1    1    0    0    0 -0.15601327714E+02 -0.13125271771E+02 -0.12650794524E+02  0.23994099021E+02  0.51100000000E-03 0.  1.
         11    1    1    0    0    0 -0.38163647454E+02  0.12506303078E+02  0.22956321924E+02  0.46258667514E+02  0.51100000000E-03 0. -1.
         22    1    1    0    0    0  0.53764975167E+02  0.61896869248E+00 -0.10305527400E+02  0.54747233464E+02  0.00000000000E+00 0.  1.
</event>
<event>
 4    1  0.1956390E-002  0.9118800E+02  0.7818608E-02  0.1130116E+00
         25   -1    0    0    0    0  0.00000000000E+00  0.00000000000E+00  0.99999998245E-14  0.12500000000E+03  0.12500000000E+03 0.  0.
        -11    1    1    0    0    0  0.27689352544E+02  0.36434868516E+02 -0.34050978014E+02  0.57040941367E+02  0.51100000000E-03 0.  1.
         11    1    1    0    0    0  0.26670233409E+01  0.34518190330E+01 -0.32824081168E+01  0.54591456697E+01  0.51100000000E-03 0. -1.
         22    1    1    0    0    0 -0.30356375885E+02 -0.39886687549E+02  0.37333386130E+02  0.62499912963E+02  0.00000000000E+00 0.  1.
</event>
<event>
 4    1  0.1956390E-002  0.9118800E+02  0.7818608E-02  0.1130116E+00
         25   -1    0    0    0    0  0.00000000000E+00  0.00000000000E+00  0.99999998245E-14  0.12500000000E+03  0.12500000000E+03 0.  0.
        -11    1    1    0    0    0  0.20429844055E+00  0.54326911954E+00  0.63910488640E-01  0.58392122820E+00  0.51100000000E-03 0. -1.
         11    1    1    0    0    0 -0.47748579963E+02  0.36667942378E+02  0.15299335816E+02  0.62117103630E+02  0.51100000000E-03 0.  1.
         22    1    1    0    0    0  0.47544281523E+02 -0.37211211498E+02 -0.15363246305E+02  0.62298975141E+02  0.00000000000E+00 0.  1.
</event>
<event>
 4    1  0.1956390E-002  0.9118800E+02  0.7818608E-02  0.1130116E+00
         25   -1    0    0    0    0  0.00000000000E+00  0.00000000000E+00  0.99999998245E-14  0.12500000000E+03  0.12500000000E+03 0.  0.
        -11    1    1    0    0    0  0.29707272804E+02 -0.29552251552E+02 -0.19520898249E+02  0.46226865543E+02  0.51100000000E-03 0. -1.
         11    1    1    0    0    0  0.11018148444E+02 -0.73996757106E+01 -0.97579732203E+01  0.16473397870E+02  0.51100000000E-03 0.  1.
         22    1    1    0    0    0 -0.40725421248E+02  0.36951927263E+02  0.29278871469E+02  0.62299736587E+02  0.00000000000E+00 0. -1.
</event>
<event>
 4    1  0.1956390E-002  0.9118800E+02  0.7818608E-02  0.1130116E+00
         25   -1    0    0    0    0  0.00000000000E+00  0.00000000000E+00  0.99999998245E-14  0.12500000000E+03  0.12500000000E+03 0.  0.
        -11    1    1    0    0    0 -0.58380296890E+00  0.24084864344E+01 -0.91638907975E+01  0.94930778792E+01  0.51100000000E-03 0.  1.
         11    1    1    0    0    0 -0.28016933375E+01  0.13861649580E+02 -0.51085892481E+02  0.53007199751E+02  0.51100000000E-03 0. -1.
         22    1    1    0    0    0  0.33854963064E+01 -0.16270136014E+02  0.60249783279E+02  0.62499722370E+02  0.00000000000E+00 0. -1.
</event>
<event>
 4    1  0.1956390E-002  0.9118800E+02  0.7818608E-02  0.1130116E+00
         25   -1    0    0    0    0  0.00000000000E+00  0.00000000000E+00  0.99999998245E-14  0.12500000000E+03  0.12500000000E+03 0.  0.
        -11    1    1    0    0    0 -0.46958815503E+02  0.15653107371E+02 -0.37422499265E+02  0.62053151212E+02  0.51100000000E-03 0.  1.
         11    1    1    0    0    0  0.74557812251E+01 -0.39803921690E+01  0.21600916277E+01  0.87234277435E+01  0.51100000000E-03 0. -1.
         22    1    1    0    0    0  0.39503034278E+02 -0.11672715202E+02  0.35262407637E+02  0.54223421044E+02  0.00000000000E+00 0.  1.
</event>
<event>
 4    1  0.1956390E-002  0.9118800E+02  0.7818608E-02  0.1130116E+00
         25   -1    0    0    0    0  0.00000000000E+00  0.00000000000E+00  0.99999998245E-14  0.12500000000E+03  0.12500000000E+03 0.  0.
        -11    1    1    0    0    0  0.36307817921E+02 -0.40324824691E+02 -0.89835930570E+01  0.55000491571E+02  0.51100000000E-03 0.  1.
         11    1    1    0    0    0  0.49509154846E+01 -0.55036520328E+01 -0.12004799448E+01  0.74995267979E+01  0.51100000000E-03 0. -1.
         22    1    1    0    0    0 -0.41258733405E+02  0.45828476724E+02  0.10184073002E+02  0.62499981632E+02  0.00000000000E+00 0.  1.
</event>
<event>
 4    1  0.1956390E-002  0.9118800E+02  0.7818608E-02  0.1130116E+00
         25   -1    0    0    0    0  0.00000000000E+00  0.00000000000E+00  0.99999998245E-14  0.12500000000E+03  0.12500000000E+03 0.  0.
        -11    1    1    0    0    0  0.17931052845E+01  0.13045815890E+01 -0.18051764577E+01  0.28593394321E+01  0.51100000000E-03 0. -1.
         11    1    1    0    0    0  0.37413176581E+02  0.27191799566E+02 -0.37654596826E+02  0.59640660694E+02  0.51100000000E-03 0.  1.
         22    1    1    0    0    0 -0.39206281866E+02 -0.28496381155E+02  0.39459773284E+02  0.62499999874E+02  0.00000000000E+00 0.  1.
</event>
<event>
 4    1  0.1956390E-002  0.9118800E+02  0.7818608E-02  0.1130116E+00
         25   -1    0    0    0    0  0.00000000000E+00  0.00000000000E+00  0.99999998245E-14  0.12500000000E+03  0.12500000000E+03 0.  0.
        -11    1    1    0    0    0  0.15605171548E+01  0.31458216820E+02 -0.23587178791E+02  0.39349836377E+02  0.51100000000E-03 0. -1.
         11    1    1    0    0    0  0.13594163447E+01  0.18413415533E+02 -0.13967637265E+02  0.23151604166E+02  0.51100000000E-03 0.  1.
         22    1    1    0    0    0 -0.29199334995E+01 -0.49871632354E+02  0.37554816056E+02  0.62498559458E+02  0.00000000000E+00 0.  1.
</event>
<event>
 4    1  0.1956390E-002  0.9118800E+02  0.7818608E-02  0.1130116E+00
         25   -1    0    0    0    0  0.00000000000E+00  0.00000000000E+00  0.99999998245E-14  0.12500000000E+03  0.12500000000E+03 0.  0.
        -11    1    1    0    0    0 -0.29649424437E+02 -0.17574627777E+02 -0.35736226961E+02  0.49649107027E+02  0.51100000000E-03 0. -1.
         11    1    1    0    0    0 -0.76697691281E+01 -0.45514106160E+01 -0.92522843742E+01  0.12850893489E+02  0.51100000000E-03 0.  1.
         22    1    1    0    0    0  0.37319193565E+02  0.22126038393E+02  0.44988511335E+02  0.62499999484E+02  0.00000000000E+00 0. -1.
</event>
<event>
 4    1  0.1956390E-002  0.9118800E+02  0.7818608E-02  0.1130116E+00
         25   -1    0    0    0    0  0.00000000000E+00  0.00000000000E+00  0.99999998245E-14  0.12500000000E+03  0.12500000000E+03 0.  0.
        -11    1    1    0    0    0 -0.94454358379E+01 -0.54696448900E+02  0.19429870769E+02  0.58808482881E+02  0.51100000000E-03 0. -1.
         11    1    1    0    0    0 -0.79025579730E+00 -0.35120382347E+01  0.86530300602E+00  0.37023865736E+01  0.51100000000E-03 0.  1.
         22    1    1    0    0    0  0.10235691635E+02  0.58208487135E+02 -0.20295173775E+02  0.62489130545E+02  0.00000000000E+00 0. -1.
</event>
<event>
 4    1  0.1956390E-002  0.9118800E+02  0.7818608E-02  0.1130116E+00
         25   -1    0    0    0    0  0.00000000000E+00  0.00000000000E+00  0.99999998245E-14  0.12500000000E+03  0.12500000000E+03 0.  0.
        -11    1    1    0    0    0 -0.51047509031E+00 -0.11013194492E+02 -0.68863346036E+01  0.12998947737E+02  0.51100000000E-03 0. -1.
         11    1    1    0    0    0 -0.77793364537E+00 -0.44172310088E+02 -0.22377551281E+02  0.49523256768E+02  0.51100000000E-03 0.  1.
         22    1    1    0    0    0  0.12884087357E+01  0.55185504580E+02  0.29263885885E+02  0.62477795495E+02  0.00000000000E+00 0.  1.
</event>
<event>
 4    1  0.1956390E-002  0.9118800E+02  0.7818608E-02  0.1130116E+00
         25   -1    0    0    0    0  0.00000000000E+00  0.00000000000E+00  0.99999998245E-14  0.12500000000E+03  0.12500000000E+03 0.  0.
        -11    1    1    0    0    0  0.49751066383E+01  0.79009837329E+01  0.27251552701E+02  0.28806672055E+02  0.51100000000E-03 0. -1.
         11    1    1    0    0    0  0.58197205611E+01  0.92423897603E+01  0.31873961670E+02  0.33693327956E+02  0.51100000000E-03 0. -1.
         22    1    1    0    0    0 -0.10794827199E+02 -0.17143373493E+02 -0.59125514371E+02  0.62499999989E+02  0.00000000000E+00 0. -1.
</event>
<event>
 4    1  0.1956390E-002  0.9118800E+02  0.7818608E-02  0.1130116E+00
         25   -1    0    0    0    0  0.00000000000E+00  0.00000000000E+00  0.99999998245E-14  0.12500000000E+03  0.12500000000E+03 0.  0.
        -11    1    1    0    0    0  0.18428993561E+02 -0.29049152585E+01 -0.56928782069E+02  0.59907867300E+02  0.51100000000E-03 0. -1.
         11    1    1    0    0    0  0.72135428338E+00  0.67524760710E+01  0.24531072613E+01  0.72203892269E+01  0.51100000000E-03 0.  1.
         22    1    1    0    0    0 -0.19150347845E+02 -0.38475608125E+01  0.54475674808E+02  0.57871743473E+02  0.00000000000E+00 0. -1.
</event>
<event>
 4    1  0.1956390E-002  0.9118800E+02  0.7818608E-02  0.1130116E+00
         25   -1    0    0    0    0  0.00000000000E+00  0.00000000000E+00  0.99999998245E-14  0.12500000000E+03  0.12500000000E+03 0.  0.
        -11    1    1    0    0    0 -0.13797453962E+02 -0.37862221516E+01  0.26518838872E+02  0.30132275543E+02  0.51100000000E-03 0.  1.
         11    1    1    0    0    0 -0.15894812904E+02 -0.33764484549E+01  0.28001316724E+02  0.32374669419E+02  0.51100000000E-03 0. -1.
         22    1    1    0    0    0  0.29692266867E+02  0.71626706066E+01 -0.54520155596E+02  0.62493055039E+02  0.00000000000E+00 0. -1.
</event>
<event>
 4    1  0.1956390E-002  0.9118800E+02  0.7818608E-02  0.1130116E+00
         25   -1    0    0    0    0  0.00000000000E+00  0.00000000000E+00  0.99999998245E-14  0.12500000000E+03  0.12500000000E+03 0.  0.
        -11    1    1    0    0    0  0.45659486223E-01  0.41048590563E+02 -0.39230092401E+02  0.56780181596E+02  0.51100000000E-03 0.  1.
         11    1    1    0    0    0  0.22194843822E-02  0.41339102366E+01 -0.39531136539E+01  0.57198187552E+01  0.51100000000E-03 0. -1.
         22    1    1    0    0    0 -0.47878970605E-01 -0.45182500800E+02  0.43183206055E+02  0.62499999649E+02  0.00000000000E+00 0.  1.
</event>
<event>
 4    1  0.1956390E-002  0.9118800E+02  0.7818608E-02  0.1130116E+00
         25   -1    0    0    0    0  0.00000000000E+00  0.00000000000E+00  0.99999998245E-14  0.12500000000E+03  0.12500000000E+03 0.  0.
        -11    1    1    0    0    0 -0.12292259247E+02  0.14329924848E+02  0.42726865556E+02  0.46712219215E+02  0.51100000000E-03 0. -1.
         11    1    1    0    0    0 -0.20619084703E+01  0.16574814508E+01  0.15759352867E+02  0.15979859648E+02  0.51100000000E-03 0.  1.
         22    1    1    0    0    0  0.14354167717E+02 -0.15987406299E+02 -0.58486218423E+02  0.62307921137E+02  0.00000000000E+00 0. -1.
</event>
<event>
 4    1  0.1956390E-002  0.9118800E+02  0.7818608E-02  0.1130116E+00
         25   -1    0    0    0    0  0.00000000000E+00  0.00000000000E+00  0.99999998245E-14  0.12500000000E+03  0.12500000000E+03 0.  0.
        -11    1    1    0    0    0  0.86595535893E+01 -0.22488553147E+02  0.21958960588E+02  0.32602436126E+02  0.51100000000E-03 0. -1.
         11    1    1    0    0    0  0.79360511143E+01 -0.20621410450E+02  0.20140527787E+02  0.29897564048E+02  0.51100000000E-03 0.  1.
         22    1    1    0    0    0 -0.16595604704E+02  0.43109963596E+02 -0.42099488375E+02  0.62499999826E+02  0.00000000000E+00 0. -1.
</event>
<event>
 4    1  0.1956390E-002  0.9118800E+02  0.7818608E-02  0.1130116E+00
         25   -1    0    0    0    0  0.00000000000E+00  0.00000000000E+00  0.99999998245E-14  0.12500000000E+03  0.12500000000E+03 0.  0.
        -11    1    1    0    0    0 -0.54281443663E+01 -0.12834843781E+02 -0.74084008568E+01  0.15782343605E+02  0.51100000000E-03 0.  1.
         11    1    1    0    0    0 -0.36785327749E+02 -0.22549270792E+02 -0.20157537550E+02  0.47623064487E+02  0.51100000000E-03 0. -1.
         22    1    1    0    0    0  0.42213472115E+02  0.35384114573E+02  0.27565938406E+02  0.61594591908E+02  0.00000000000E+00 0. -1.
</event>
<event>
 4    1  0.1956390E-002  0.9118800E+02  0.7818608E-02  0.1130116E+00
         25   -1    0    0    0    0  0.00000000000E+00  0.00000000000E+00  0.99999998245E-14  0.12500000000E+03  0.12500000000E+03 0.  0.
        -11    1    1    0    0    0 -0.50409987001E+01  0.23217859259E+02  0.21127506949E+02  0.31793902035E+02  0.51100000000E-03 0.  1.
         11    1    1    0    0    0 -0.48638268594E+01  0.22421477835E+02  0.20407963682E+02  0.30706098123E+02  0.51100000000E-03 0. -1.
         22    1    1    0    0    0  0.99048255594E+01 -0.45639337094E+02 -0.41535470631E+02  0.62499999842E+02  0.00000000000E+00 0.  1.
</event>
<event>
 4    1  0.1956390E-002  0.9118800E+02  0.7818608E-02  0.1130116E+00
         25   -1    0    0    0    0  0.00000000000E+00  0.00000000000E+00  0.99999998245E-14  0.12500000000E+03  0.12500000000E+03 0.  0.
        -11    1    1    0    0    0  0.22488521052E+01 -0.47721453692E+01  0.31488354061E+01  0.61437669139E+01  0.51100000000E-03 0. -1.
         11    1    1    0    0    0  0.20582824660E+02 -0.43775918576E+02  0.28914381175E+02  0.56356234412E+02  0.51100000000E-03 0.  1.
         22    1    1    0    0    0 -0.22831676765E+02  0.48548063945E+02 -0.32063216581E+02  0.62499998674E+02  0.00000000000E+00 0.  1.
</event>
<event>
 4    1  0.1956390E-002  0.9118800E+02  0.7818608E-02  0.1130116E+00
         25   -1    0    0    0    0  0.00000000000E+00  0.00000000000E+00  0.99999998245E-14  0.12500000000E+03  0.12500000000E+03 0.  0.
        -11    1    1    0    0    0 -0.93741147589E+01  0.21946571906E+01  0.95346778581E+00  0.96746911463E+01  0.51100000000E-03 0.  1.
         11    1    1    0    0    0 -0.51195384933E+02  0.11921416591E+02  0.52369860623E+01  0.52825312448E+02  0.51100000000E-03 0. -1.
         22    1    1    0    0    0  0.60569499691E+02 -0.14116073782E+02 -0.61904538482E+01  0.62499996406E+02  0.00000000000E+00 0. -1.
</event>
<event>
 4    1  0.1956390E-002  0.9118800E+02  0.7818608E-02  0.1130116E+00
         25   -1    0    0    0    0  0.00000000000E+00  0.00000000000E+00  0.99999998245E-14  0.12500000000E+03  0.12500000000E+03 0.  0.
        -11    1    1    0    0    0 -0.35938630793E+02  0.32719211284E+02  0.32792201177E+02  0.58629859531E+02  0.51100000000E-03 0.  1.
         11    1    1    0    0    0 -0.23722612179E+01  0.21600466957E+01  0.21643849409E+01  0.38701404945E+01  0.51100000000E-03 0.  1.
         22    1    1    0    0    0  0.38310892010E+02 -0.34879257980E+02 -0.34956586118E+02  0.62499999975E+02  0.00000000000E+00 0.  1.
</event>
<event>
 4    1  0.1956390E-002  0.9118800E+02  0.7818608E-02  0.1130116E+00
         25   -1    0    0    0    0  0.00000000000E+00  0.00000000000E+00  0.99999998245E-14  0.12500000000E+03  0.12500000000E+03 0.  0.
        -11    1    1    0    0    0 -0.17247846233E+01 -0.16893992275E+00  0.24717949954E+02  0.24778629359E+02  0.51100000000E-03 0.  1.
         11    1    1    0    0    0 -0.26309816644E+01 -0.30853785511E+00  0.37628248317E+02  0.37721377650E+02  0.51100000000E-03 0. -1.
         22    1    1    0    0    0  0.43557662877E+01  0.47747777785E+00 -0.62346198272E+02  0.62499992991E+02  0.00000000000E+00 0. -1.
</event>
<event>
 4    1  0.1956390E-002  0.9118800E+02  0.7818608E-02  0.1130116E+00
         25   -1    0    0    0    0  0.00000000000E+00  0.00000000000E+00  0.99999998245E-14  0.12500000000E+03  0.12500000000E+03 0.  0.
        -11    1    1    0    0    0 -0.50508980379E+01  0.17980612426E+02 -0.59389034749E+02  0.62256497194E+02  0.51100000000E-03 0.  1.
         11    1    1    0    0    0 -0.21644776432E-01  0.69592853951E-01 -0.23234429769E+00  0.24350728009E+00  0.51100000000E-03 0. -1.
         22    1    1    0    0    0  0.50725428143E+01 -0.18050205280E+02  0.59621379047E+02  0.62499995526E+02  0.00000000000E+00 0.  1.
</event>
<event>
 4    1  0.1956390E-002  0.9118800E+02  0.7818608E-02  0.1130116E+00
         25   -1    0    0    0    0  0.00000000000E+00  0.00000000000E+00  0.99999998245E-14  0.12500000000E+03  0.12500000000E+03 0.  0.
        -11    1    1    0    0    0 -0.14267018702E+01 -0.41340187152E+02 -0.10406203751E+02  0.42653670754E+02  0.51100000000E-03 0.  1.
         11    1    1    0    0    0  0.10021397875E+01 -0.19158497827E+02 -0.51780794088E+01  0.19871206047E+02  0.51100000000E-03 0. -1.
         22    1    1    0    0    0  0.42456208269E+00  0.60498684979E+02  0.15584283160E+02  0.62475123199E+02  0.00000000000E+00 0.  1.
</event>
<event>
 4    1  0.1956390E-002  0.9118800E+02  0.7818608E-02  0.1130116E+00
         25   -1    0    0    0    0  0.00000000000E+00  0.00000000000E+00  0.99999998245E-14  0.12500000000E+03  0.12500000000E+03 0.  0.
        -11    1    1    0    0    0 -0.27702997297E+02 -0.37025890195E+02 -0.19981007880E+02  0.50374728586E+02  0.51100000000E-03 0. -1.
         11    1    1    0    0    0 -0.66276733288E+01 -0.89301679457E+01 -0.48321062512E+01  0.12125312548E+02  0.51100000000E-03 0.  1.
         22    1    1    0    0    0  0.34330670626E+02  0.45956058140E+02  0.24813114131E+02  0.62499958866E+02  0.00000000000E+00 0. -1.
</event>
<event>
 4    1  0.1956390E-002  0.9118800E+02  0.7818608E-02  0.1130116E+00
         25   -1    0    0    0    0  0.00000000000E+00  0.00000000000E+00  0.99999998245E-14  0.12500000000E+03  0.12500000000E+03 0.  0.
        -11    1    1    0    0    0 -0.13280649612E+01 -0.12485429264E+02  0.70002593836E+01  0.14375441981E+02  0.51100000000E-03 0.  1.
         11    1    1    0    0    0 -0.12408454455E+02 -0.39735279917E+02  0.24310190109E+02  0.48206302031E+02  0.51100000000E-03 0. -1.
         22    1    1    0    0    0  0.13736519416E+02  0.52220709182E+02 -0.31310449493E+02  0.62418255988E+02  0.00000000000E+00 0.  1.
</event>
<event>
 4    1  0.1956390E-002  0.9118800E+02  0.7818608E-02  0.1130116E+00
         25   -1    0    0    0    0  0.00000000000E+00  0.00000000000E+00  0.99999998245E-14  0.12500000000E+03  0.12500000000E+03 0.  0.
        -11    1    1    0    0    0  0.10231265866E+02  0.27807614265E+01 -0.13494071466E+02  0.17161043101E+02  0.51100000000E-03 0. -1.
         11    1    1    0    0    0  0.28209310665E+02  0.13522841305E+02 -0.32915764728E+02  0.45410131172E+02  0.51100000000E-03 0.  1.
         22    1    1    0    0    0 -0.38440576531E+02 -0.16303602731E+02  0.46409836194E+02  0.62428825727E+02  0.00000000000E+00 0.  1.
</event>
<event>
 4    1  0.1956390E-002  0.9118800E+02  0.7818608E-02  0.1130116E+00
         25   -1    0    0    0    0  0.00000000000E+00  0.00000000000E+00  0.99999998245E-14  0.12500000000E+03  0.12500000000E+03 0.  0.
        -11    1    1    0    0    0 -0.11365067239E+01  0.10820481634E+02 -0.26935628394E+02  0.29050000819E+02  0.51100000000E-03 0. -1.
         11    1    1    0    0    0 -0.13021404480E+01  0.12476233069E+02 -0.31008878882E+02  0.33450000466E+02  0.51100000000E-03 0.  1.
         22    1    1    0    0    0  0.24386471719E+01 -0.23296714703E+02  0.57944507276E+02  0.62499998716E+02  0.00000000000E+00 0. -1.
</event>
<event>
 4    1  0.1956390E-002  0.9118800E+02  0.7818608E-02  0.1130116E+00
         25   -1    0    0    0    0  0.00000000000E+00  0.00000000000E+00  0.99999998245E-14  0.12500000000E+03  0.12500000000E+03 0.  0.
        -11    1    1    0    0    0 -0.17339045857E+02  0.46294808620E+02 -0.16351988482E+02  0.52069562549E+02  0.51100000000E-03 0. -1.
         11    1    1    0    0    0 -0.41185876101E+01  0.90943797469E+01 -0.30546272319E+01  0.10440366597E+02  0.51100000000E-03 0.  1.
         22    1    1    0    0    0  0.21457633467E+02 -0.55389188367E+02  0.19406615714E+02  0.62490070855E+02  0.00000000000E+00 0. -1.
</event>
<event>
 4    1  0.1956390E-002  0.9118800E+02  0.7818608E-02  0.1130116E+00
         25   -1    0    0    0    0  0.00000000000E+00  0.00000000000E+00  0.99999998245E-14  0.12500000000E+03  0.12500000000E+03 0.  0.
        -11    1    1    0    0    0 -0.22513818872E+02 -0.20434791225E+02  0.48766847643E+02  0.57468758138E+02  0.51100000000E-03 0.  1.
         11    1    1    0    0    0 -0.39810379233E+01 -0.34076186224E+01  0.19078015636E+01  0.55767584393E+01  0.51100000000E-03 0. -1.
         22    1    1    0    0    0  0.26494856795E+02  0.23842409847E+02 -0.50674649207E+02  0.61954483423E+02  0.00000000000E+00 0.  1.
</event>
<event>
 4    1  0.1956390E-002  0.9118800E+02  0.7818608E-02  0.1130116E+00
         25   -1    0    0    0    0  0.00000000000E+00  0.00000000000E+00  0.99999998245E-14  0.12500000000E+03  0.12500000000E+03 0.  0.
        -11    1    1    0    0    0 -0.11158022391E+02  0.12566318016E+02  0.12601010608E+02  0.21004744244E+02  0.51100000000E-03 0.  1.
         11    1    1    0    0    0 -0.22053738249E+02  0.24806895833E+02  0.24901945416E+02  0.41495256806E+02  0.51100000000E-03 0. -1.
         22    1    1    0    0    0  0.33211760639E+02 -0.37373213849E+02 -0.37502956024E+02  0.62499998950E+02  0.00000000000E+00 0. -1.
</event>
<event>
 4    1  0.1956390E-002  0.9118800E+02  0.7818608E-02  0.1130116E+00
         25   -1    0    0    0    0  0.00000000000E+00  0.00000000000E+00  0.99999998245E-14  0.12500000000E+03  0.12500000000E+03 0.  0.
        -11    1    1    0    0    0  0.59583924421E+00 -0.29736183462E+01  0.22139302450E+01  0.37548525756E+01  0.51100000000E-03 0. -1.
         11    1    1    0    0    0  0.14520404632E+02 -0.45131841009E+02  0.34700679537E+02  0.58752552150E+02  0.51100000000E-03 0.  1.
         22    1    1    0    0    0 -0.15116243876E+02  0.48105459355E+02 -0.36914609782E+02  0.62492595274E+02  0.00000000000E+00 0.  1.
</event>
<event>
 4    1  0.1956390E-002  0.9118800E+02  0.7818608E-02  0.1130116E+00
         25   -1    0    0    0    0  0.00000000000E+00  0.00000000000E+00  0.99999998245E-14  0.12500000000E+03  0.12500000000E+03 0.  0.
        -11    1    1    0    0    0 -0.10338318768E+02  0.16257764438E+02 -0.20092104752E+02  0.27836817582E+02  0.51100000000E-03 0. -1.
         11    1    1    0    0    0 -0.19328935254E+02  0.19073727748E+02 -0.21817702479E+02  0.34834278663E+02  0.51100000000E-03 0.  1.
         22    1    1    0    0    0  0.29667254021E+02 -0.35331492186E+02  0.41909807230E+02  0.62328903755E+02  0.00000000000E+00 0. -1.
</event>
<event>
 4    1  0.1956390E-002  0.9118800E+02  0.7818608E-02  0.1130116E+00
         25   -1    0    0    0    0  0.00000000000E+00  0.00000000000E+00  0.99999998245E-14  0.12500000000E+03  0.12500000000E+03 0.  0.
        -11    1    1    0    0    0 -0.32624548161E+02  0.20785562093E+02  0.13587597699E+02  0.41000287142E+02  0.51100000000E-03 0.  1.
         11    1    1    0    0    0 -0.14072560438E+02  0.45460241990E+00  0.18682054915E+02  0.23393648641E+02  0.51100000000E-03 0. -1.
         22    1    1    0    0    0  0.46697108598E+02 -0.21240164513E+02 -0.32269652615E+02  0.60606064217E+02  0.00000000000E+00 0.  1.
</event>
<event>
 4    1  0.1956390E-002  0.9118800E+02  0.7818608E-02  0.1130116E+00
         25   -1    0    0    0    0  0.00000000000E+00  0.00000000000E+00  0.99999998245E-14  0.12500000000E+03  0.12500000000E+03 0.  0.
        -11    1    1    0    0    0 -0.20844990787E+02  0.10281843577E+02  0.87328502480E+01  0.24829269461E+02  0.51100000000E-03 0.  1.
         11    1    1    0    0    0 -0.31713670017E+02  0.15454451170E+02  0.13209581381E+02  0.37670810549E+02  0.51100000000E-03 0. -1.
         22    1    1    0    0    0  0.52558660805E+02 -0.25736294747E+02 -0.21942431629E+02  0.62499919989E+02  0.00000000000E+00 0.  1.
</event>
<event>
 4    1  0.1956390E-002  0.9118800E+02  0.7818608E-02  0.1130116E+00
         25   -1    0    0    0    0  0.00000000000E+00  0.00000000000E+00  0.99999998245E-14  0.12500000000E+03  0.12500000000E+03 0.  0.
        -11    1    1    0    0    0  0.16337077151E+02  0.21185925459E+02  0.13255232186E+02  0.29857071322E+02  0.51100000000E-03 0. -1.
         11    1    1    0    0    0  0.17779871058E+02  0.23171774227E+02  0.14577695923E+02  0.32642980169E+02  0.51100000000E-03 0.  1.
         22    1    1    0    0    0 -0.34116948208E+02 -0.44357699685E+02 -0.27832928109E+02  0.62499948509E+02  0.00000000000E+00 0. -1.
</event>
<event>
 4    1  0.1956390E-002  0.9118800E+02  0.7818608E-02  0.1130116E+00
         25   -1    0    0    0    0  0.00000000000E+00  0.00000000000E+00  0.99999998245E-14  0.12500000000E+03  0.12500000000E+03 0.  0.
        -11    1    1    0    0    0  0.14976622215E+02  0.93494378207E+01  0.20593868019E+02  0.27125976495E+02  0.51100000000E-03 0. -1.
         11    1    1    0    0    0  0.19525056578E+02  0.12278519668E+02  0.26820394313E+02  0.35374050248E+02  0.51100000000E-03 0.  1.
         22    1    1    0    0    0 -0.34501678793E+02 -0.21627957488E+02 -0.47414262332E+02  0.62499973257E+02  0.00000000000E+00 0. -1.
</event>
<event>
 4    1  0.1956390E-002  0.9118800E+02  0.7818608E-02  0.1130116E+00
         25   -1    0    0    0    0  0.00000000000E+00  0.00000000000E+00  0.99999998245E-14  0.12500000000E+03  0.12500000000E+03 0.  0.
        -11    1    1    0    0    0  0.25405467035E+01  0.93301602340E+01 -0.10344081192E+02  0.14160024135E+02  0.51100000000E-03 0.  1.
         11    1    1    0    0    0  0.62596875739E+01  0.28415753824E+02 -0.38644140507E+02  0.48373632794E+02  0.51100000000E-03 0. -1.
         22    1    1    0    0    0 -0.88002342774E+01 -0.37745914058E+02  0.48988221699E+02  0.62466343071E+02  0.00000000000E+00 0. -1.
</event>
<event>
 4    1  0.1956390E-002  0.9118800E+02  0.7818608E-02  0.1130116E+00
         25   -1    0    0    0    0  0.00000000000E+00  0.00000000000E+00  0.99999998245E-14  0.12500000000E+03  0.12500000000E+03 0.  0.
        -11    1    1    0    0    0  0.28140751380E+02  0.23611070662E+02  0.42577620632E+02  0.56233782773E+02  0.51100000000E-03 0.  1.
         11    1    1    0    0    0  0.31362675545E+01  0.26305948495E+01  0.47443940583E+01  0.62662172542E+01  0.51100000000E-03 0.  1.
         22    1    1    0    0    0 -0.31277018934E+02 -0.26241665511E+02 -0.47322014691E+02  0.62499999973E+02  0.00000000000E+00 0.  1.
</event>
<event>
 4    1  0.1956390E-002  0.9118800E+02  0.7818608E-02  0.1130116E+00
         25   -1    0    0    0    0  0.00000000000E+00  0.00000000000E+00  0.99999998245E-14  0.12500000000E+03  0.12500000000E+03 0.  0.
        -11    1    1    0    0    0  0.28654197264E+02 -0.26221702835E+02  0.33321912865E+02  0.51176074465E+02  0.51100000000E-03 0. -1.
         11    1    1    0    0    0  0.72851645706E+01  0.46926419185E+00  0.96955274960E+01  0.12136601064E+02  0.51100000000E-03 0.  1.
         22    1    1    0    0    0 -0.35939361834E+02  0.25752438644E+02 -0.43017440361E+02  0.61687324471E+02  0.00000000000E+00 0. -1.
</event>
<event>
 4    1  0.1956390E-002  0.9118800E+02  0.7818608E-02  0.1130116E+00
         25   -1    0    0    0    0  0.00000000000E+00  0.00000000000E+00  0.99999998245E-14  0.12500000000E+03  0.12500000000E+03 0.  0.
        -11    1    1    0    0    0  0.36741188766E+02  0.14246522802E+02 -0.44726759945E+02  0.59610078169E+02  0.51100000000E-03 0.  1.
         11    1    1    0    0    0  0.66715342030E+00  0.91560744062E+00 -0.28089096874E+01  0.30287628770E+01  0.51100000000E-03 0. -1.
         22    1    1    0    0    0 -0.37408342186E+02 -0.15162130243E+02  0.47535669633E+02  0.62361158954E+02  0.00000000000E+00 0.  1.
</event>
<event>
 4    1  0.1956390E-002  0.9118800E+02  0.7818608E-02  0.1130116E+00
         25   -1    0    0    0    0  0.00000000000E+00  0.00000000000E+00  0.99999998245E-14  0.12500000000E+03  0.12500000000E+03 0.  0.
        -11    1    1    0    0    0  0.32660839224E+01  0.51190091808E+01 -0.22648567472E+01  0.64808283057E+01  0.51100000000E-03 0. -1.
         11    1    1    0    0    0  0.28325333238E+02  0.44240034465E+02 -0.19458767456E+02  0.56019182283E+02  0.51100000000E-03 0.  1.
         22    1    1    0    0    0 -0.31591417161E+02 -0.49359043646E+02  0.21723624203E+02  0.62499989411E+02  0.00000000000E+00 0.  1.
</event>
<event>
 4    1  0.1956390E-002  0.9118800E+02  0.7818608E-02  0.1130116E+00
         25   -1    0    0    0    0  0.00000000000E+00  0.00000000000E+00  0.99999998245E-14  0.12500000000E+03  0.12500000000E+03 0.  0.
        -11    1    1    0    0    0 -0.28087369845E+02 -0.40231153951E+02  0.10981851225E+02  0.50279689236E+02  0.51100000000E-03 0. -1.
         11    1    1    0    0    0 -0.68262825066E+01 -0.97782922408E+01  0.26688692638E+01  0.12220310774E+02  0.51100000000E-03 0. -1.
         22    1    1    0    0    0  0.34913652352E+02  0.50009446192E+02 -0.13650720489E+02  0.62499999990E+02  0.00000000000E+00 0. -1.
</event>
<event>
 4    1  0.1956390E-002  0.9118800E+02  0.7818608E-02  0.1130116E+00
         25   -1    0    0    0    0  0.00000000000E+00  0.00000000000E+00  0.99999998245E-14  0.12500000000E+03  0.12500000000E+03 0.  0.
        -11    1    1    0    0    0 -0.91469839091E+01  0.26791585397E+02  0.63312208824E+01  0.29009321275E+02  0.51100000000E-03 0.  1.
         11    1    1    0    0    0 -0.10551134100E+02  0.30925978850E+02  0.73405185224E+01  0.33490682452E+02  0.51100000000E-03 0. -1.
         22    1    1    0    0    0  0.19698118009E+02 -0.57717564247E+02 -0.13671739405E+02  0.62499996273E+02  0.00000000000E+00 0. -1.
</event>
<event>
 4    1  0.1956390E-002  0.9118800E+02  0.7818608E-02  0.1130116E+00
         25   -1    0    0    0    0  0.00000000000E+00  0.00000000000E+00  0.99999998245E-14  0.12500000000E+03  0.12500000000E+03 0.  0.
        -11    1    1    0    0    0  0.13174672251E+02  0.17761969367E+01  0.32241183906E+01  0.13679247206E+02  0.51100000000E-03 0.  1.
         11    1    1    0    0    0  0.44894282391E+02  0.16666005619E+02  0.10129185713E+02  0.48947448739E+02  0.51100000000E-03 0. -1.
         22    1    1    0    0    0 -0.58068954641E+02 -0.18442202555E+02 -0.13353304103E+02  0.62373304054E+02  0.00000000000E+00 0. -1.
</event>
<event>
 4    1  0.1956390E-002  0.9118800E+02  0.7818608E-02  0.1130116E+00
         25   -1    0    0    0    0  0.00000000000E+00  0.00000000000E+00  0.99999998245E-14  0.12500000000E+03  0.12500000000E+03 0.  0.
        -11    1    1    0    0    0  0.40474624291E+01  0.44566102167E+00  0.72351783229E+01  0.83023112136E+01  0.51100000000E-03 0.  1.
         11    1    1    0    0    0  0.32999795762E+02 -0.27507286980E+00  0.43046943350E+02  0.54241142295E+02  0.51100000000E-03 0. -1.
         22    1    1    0    0    0 -0.37047258191E+02 -0.17058815187E+00 -0.50282121672E+02  0.62456546492E+02  0.00000000000E+00 0. -1.
</event>
<event>
 4    1  0.1956390E-002  0.9118800E+02  0.7818608E-02  0.1130116E+00
         25   -1    0    0    0    0  0.00000000000E+00  0.00000000000E+00  0.99999998245E-14  0.12500000000E+03  0.12500000000E+03 0.  0.
        -11    1    1    0    0    0 -0.73747450598E+01 -0.18599438525E+01  0.13545511886E+01  0.77253520965E+01  0.51100000000E-03 0. -1.
         11    1    1    0    0    0 -0.52294817152E+02 -0.13194433807E+02  0.95614427288E+01  0.54774648988E+02  0.51100000000E-03 0.  1.
         22    1    1    0    0    0  0.59669562212E+02  0.15054377660E+02 -0.10915993917E+02  0.62499998916E+02  0.00000000000E+00 0.  1.
</event>
<event>
 4    1  0.1956390E-002  0.9118800E+02  0.7818608E-02  0.1130116E+00
         25   -1    0    0    0    0  0.00000000000E+00  0.00000000000E+00  0.99999998245E-14  0.12500000000E+03  0.12500000000E+03 0.  0.
        -11    1    1    0    0    0 -0.15987370587E+02 -0.37732257523E+01  0.71893779455E+01  0.17930990111E+02  0.51100000000E-03 0. -1.
         11    1    1    0    0    0 -0.39767132603E+02 -0.93838995824E+01  0.17802107157E+02  0.44569018683E+02  0.51100000000E-03 0.  1.
         22    1    1    0    0    0  0.55754503190E+02  0.13157125335E+02 -0.24991485103E+02  0.62499991206E+02  0.00000000000E+00 0.  1.
</event>
<event>
 4    1  0.1956390E-002  0.9118800E+02  0.7818608E-02  0.1130116E+00
         25   -1    0    0    0    0  0.00000000000E+00  0.00000000000E+00  0.99999998245E-14  0.12500000000E+03  0.12500000000E+03 0.  0.
        -11    1    1    0    0    0  0.40923996323E+02  0.15860997573E+02 -0.36048361144E+02  0.56796382460E+02  0.51100000000E-03 0.  1.
         11    1    1    0    0    0  0.42039516454E+01  0.14596089588E+01 -0.35694325340E+01  0.57047801558E+01  0.51100000000E-03 0. -1.
         22    1    1    0    0    0 -0.45127947968E+02 -0.17320606532E+02  0.39617793678E+02  0.62498837384E+02  0.00000000000E+00 0.  1.
</event>
<event>
 4    1  0.1956390E-002  0.9118800E+02  0.7818608E-02  0.1130116E+00
         25   -1    0    0    0    0  0.00000000000E+00  0.00000000000E+00  0.99999998245E-14  0.12500000000E+03  0.12500000000E+03 0.  0.
        -11    1    1    0    0    0  0.17476741924E+02 -0.41397453989E+01  0.12381519891E+02  0.21814583089E+02  0.51100000000E-03 0.  1.
         11    1    1    0    0    0  0.32596284827E+02 -0.77164219209E+01  0.23092037616E+02  0.40685416961E+02  0.51100000000E-03 0. -1.
         22    1    1    0    0    0 -0.50073026751E+02  0.11856167320E+02 -0.35473557507E+02  0.62499999950E+02  0.00000000000E+00 0. -1.
</event>
<event>
 4    1  0.1956390E-002  0.9118800E+02  0.7818608E-02  0.1130116E+00
         25   -1    0    0    0    0  0.00000000000E+00  0.00000000000E+00  0.99999998245E-14  0.12500000000E+03  0.12500000000E+03 0.  0.
        -11    1    1    0    0    0  0.64267602239E+01  0.46159070623E+02 -0.17063250081E+02  0.49629805070E+02  0.51100000000E-03 0.  1.
         11    1    1    0    0    0 -0.22753231946E+01  0.12274926992E+02 -0.40125382915E+01  0.13113023759E+02  0.51100000000E-03 0. -1.
         22    1    1    0    0    0 -0.41514370292E+01 -0.58433997615E+02  0.21075788372E+02  0.62257171171E+02  0.00000000000E+00 0.  1.
</event>
<event>
 4    1  0.1956390E-002  0.9118800E+02  0.7818608E-02  0.1130116E+00
         25   -1    0    0    0    0  0.00000000000E+00  0.00000000000E+00  0.99999998245E-14  0.12500000000E+03  0.12500000000E+03 0.  0.
        -11    1    1    0    0    0 -0.41134592436E+00 -0.18590524931E+00  0.22008623802E+00  0.50219960623E+00  0.51100000000E-03 0. -1.
         11    1    1    0    0    0 -0.49824540154E+02 -0.20168820031E+02  0.30895820099E+02  0.61998530650E+02  0.51100000000E-03 0.  1.
         22    1    1    0    0    0  0.50235886078E+02  0.20354725280E+02 -0.31115906337E+02  0.62499269743E+02  0.00000000000E+00 0.  1.
</event>
<event>
 4    1  0.1956390E-002  0.9118800E+02  0.7818608E-02  0.1130116E+00
         25   -1    0    0    0    0  0.00000000000E+00  0.00000000000E+00  0.99999998245E-14  0.12500000000E+03  0.12500000000E+03 0.  0.
        -11    1    1    0    0    0 -0.70360105011E+01 -0.32364208451E+01  0.28417549539E+01  0.82495718154E+01  0.51100000000E-03 0.  1.
         11    1    1    0    0    0 -0.50929319549E+02 -0.96852308775E+01 -0.18982307188E+02  0.55208036311E+02  0.51100000000E-03 0. -1.
         22    1    1    0    0    0  0.57965330050E+02  0.12921651723E+02  0.16140552234E+02  0.61542391873E+02  0.00000000000E+00 0. -1.
</event>
<event>
 4    1  0.1956390E-002  0.9118800E+02  0.7818608E-02  0.1130116E+00
         25   -1    0    0    0    0  0.00000000000E+00  0.00000000000E+00  0.99999998245E-14  0.12500000000E+03  0.12500000000E+03 0.  0.
        -11    1    1    0    0    0 -0.29400374853E+02 -0.21488919353E+02  0.16534226314E+02  0.39994203787E+02  0.51100000000E-03 0. -1.
         11    1    1    0    0    0  0.53862032040E+01 -0.47161686133E+01  0.27499678212E+02  0.28416293449E+02  0.51100000000E-03 0.  1.
         22    1    1    0    0    0  0.24014171650E+02  0.26205087967E+02 -0.44033904526E+02  0.56589502764E+02  0.00000000000E+00 0. -1.
</event>
<event>
 4    1  0.1956390E-002  0.9118800E+02  0.7818608E-02  0.1130116E+00
         25   -1    0    0    0    0  0.00000000000E+00  0.00000000000E+00  0.99999998245E-14  0.12500000000E+03  0.12500000000E+03 0.  0.
        -11    1    1    0    0    0 -0.95442574828E+01  0.24510632293E+01  0.27652735825E+01  0.10234612846E+02  0.51100000000E-03 0.  1.
         11    1    1    0    0    0 -0.48737931252E+02  0.12517442171E+02  0.14127929695E+02  0.52265387198E+02  0.51100000000E-03 0. -1.
         22    1    1    0    0    0  0.58282188734E+02 -0.14968505401E+02 -0.16893203278E+02  0.62499999957E+02  0.00000000000E+00 0. -1.
</event>
<event>
 4    1  0.1956390E-002  0.9118800E+02  0.7818608E-02  0.1130116E+00
         25   -1    0    0    0    0  0.00000000000E+00  0.00000000000E+00  0.99999998245E-14  0.12500000000E+03  0.12500000000E+03 0.  0.
        -11    1    1    0    0    0 -0.12380992418E+01  0.74480384067E+01 -0.51173245501E+01  0.91210293636E+01  0.51100000000E-03 0. -1.
         11    1    1    0    0    0  0.15392178487E+02 -0.34823023466E+01 -0.53327746959E+02  0.55613794909E+02  0.51100000000E-03 0.  1.
         22    1    1    0    0    0 -0.14154079245E+02 -0.39657360600E+01  0.58445071509E+02  0.60265175727E+02  0.00000000000E+00 0.  1.
</event>
<event>
 4    1  0.1956390E-002  0.9118800E+02  0.7818608E-02  0.1130116E+00
         25   -1    0    0    0    0  0.00000000000E+00  0.00000000000E+00  0.99999998245E-14  0.12500000000E+03  0.12500000000E+03 0.  0.
        -11    1    1    0    0    0  0.18778027152E+02 -0.25304841237E+02  0.35810472614E+02  0.47700516170E+02  0.51100000000E-03 0. -1.
         11    1    1    0    0    0  0.58267845224E+01 -0.78553227448E+01  0.11107079721E+02  0.14799484231E+02  0.51100000000E-03 0.  1.
         22    1    1    0    0    0 -0.24604811675E+02  0.33160163982E+02 -0.46917552335E+02  0.62499999600E+02  0.00000000000E+00 0. -1.
</event>
<event>
 4    1  0.1956390E-002  0.9118800E+02  0.7818608E-02  0.1130116E+00
         25   -1    0    0    0    0  0.00000000000E+00  0.00000000000E+00  0.99999998245E-14  0.12500000000E+03  0.12500000000E+03 0.  0.
        -11    1    1    0    0    0  0.40146741750E+01 -0.22013961281E+01 -0.98967624015E+01  0.10904570598E+02  0.51100000000E-03 0.  1.
         11    1    1    0    0    0  0.19314266683E+02 -0.10188124124E+02 -0.46746802179E+02  0.51595564586E+02  0.51100000000E-03 0. -1.
         22    1    1    0    0    0 -0.23328940857E+02  0.12389520252E+02  0.56643564581E+02  0.62499864816E+02  0.00000000000E+00 0. -1.
</event>
<event>
 4    1  0.1956390E-002  0.9118800E+02  0.7818608E-02  0.1130116E+00
         25   -1    0    0    0    0  0.00000000000E+00  0.00000000000E+00  0.99999998245E-14  0.12500000000E+03  0.12500000000E+03 0.  0.
        -11    1    1    0    0    0 -0.28228687445E+01 -0.40664697564E+01  0.10548244127E+01  0.50613653327E+01  0.51100000000E-03 0.  1.
         11    1    1    0    0    0 -0.32095123710E+02 -0.46053118514E+02  0.12174245469E+02  0.57438653744E+02  0.51100000000E-03 0. -1.
         22    1    1    0    0    0  0.34917992455E+02  0.50119588271E+02 -0.13229069882E+02  0.62499980924E+02  0.00000000000E+00 0. -1.
</event>
<event>
 4    1  0.1956390E-002  0.9118800E+02  0.7818608E-02  0.1130116E+00
         25   -1    0    0    0    0  0.00000000000E+00  0.00000000000E+00  0.99999998245E-14  0.12500000000E+03  0.12500000000E+03 0.  0.
        -11    1    1    0    0    0  0.13465311964E+01  0.52410182412E+01 -0.10901590045E+01  0.55199515744E+01  0.51100000000E-03 0.  1.
         11    1    1    0    0    0  0.13912558858E+02  0.54101437072E+02 -0.11233928803E+02  0.56980048648E+02  0.51100000000E-03 0. -1.
         22    1    1    0    0    0 -0.15259090054E+02 -0.59342455314E+02  0.12324087808E+02  0.62499999778E+02  0.00000000000E+00 0. -1.
</event>
<event>
 4    1  0.1956390E-002  0.9118800E+02  0.7818608E-02  0.1130116E+00
         25   -1    0    0    0    0  0.00000000000E+00  0.00000000000E+00  0.99999998245E-14  0.12500000000E+03  0.12500000000E+03 0.  0.
        -11    1    1    0    0    0  0.30335542855E+02  0.29210960424E+02  0.13249491734E+02  0.44148322739E+02  0.51100000000E-03 0.  1.
         11    1    1    0    0    0  0.13580144469E+02  0.10776573084E+02  0.61114643119E+01  0.18382188323E+02  0.51100000000E-03 0. -1.
         22    1    1    0    0    0 -0.43915687324E+02 -0.39987533508E+02 -0.19360956046E+02  0.62469488938E+02  0.00000000000E+00 0.  1.
</event>
<event>
 4    1  0.1956390E-002  0.9118800E+02  0.7818608E-02  0.1130116E+00
         25   -1    0    0    0    0  0.00000000000E+00  0.00000000000E+00  0.99999998245E-14  0.12500000000E+03  0.12500000000E+03 0.  0.
        -11    1    1    0    0    0  0.32381674492E+01  0.10460009569E+02  0.58536022968E+01  0.12416206696E+02  0.51100000000E-03 0.  1.
         11    1    1    0    0    0 -0.15049311153E+02  0.12017575465E+02  0.48722102379E+02  0.52390334478E+02  0.51100000000E-03 0. -1.
         22    1    1    0    0    0  0.11811143704E+02 -0.22477585034E+02 -0.54575704676E+02  0.60193458826E+02  0.00000000000E+00 0. -1.
</event>
<event>
 4    1  0.1956390E-002  0.9118800E+02  0.7818608E-02  0.1130116E+00
         25   -1    0    0    0    0  0.00000000000E+00  0.00000000000E+00  0.99999998245E-14  0.12500000000E+03  0.12500000000E+03 0.  0.
        -11    1    1    0    0    0 -0.37489035280E+02  0.15118748763E+02 -0.43997209288E+02  0.59747458153E+02  0.51100000000E-03 0. -1.
         11    1    1    0    0    0 -0.11710714940E+01  0.27668982248E+00 -0.25480536168E+01  0.28178969458E+01  0.51100000000E-03 0.  1.
         22    1    1    0    0    0  0.38660106774E+02 -0.15395438585E+02  0.46545262905E+02  0.62434644901E+02  0.00000000000E+00 0. -1.
</event>
<event>
 4    1  0.1956390E-002  0.9118800E+02  0.7818608E-02  0.1130116E+00
         25   -1    0    0    0    0  0.00000000000E+00  0.00000000000E+00  0.99999998245E-14  0.12500000000E+03  0.12500000000E+03 0.  0.
        -11    1    1    0    0    0  0.15270548306E+01  0.56618381358E+01  0.51750158633E+01  0.78210675089E+01  0.51100000000E-03 0.  1.
         11    1    1    0    0    0  0.10800380258E+02  0.38942341192E+02  0.36833203675E+02  0.54679420667E+02  0.51100000000E-03 0. -1.
         22    1    1    0    0    0 -0.12327435088E+02 -0.44604179328E+02 -0.42008219539E+02  0.62499511824E+02  0.00000000000E+00 0. -1.
</event>
<event>
 4    1  0.1956390E-002  0.9118800E+02  0.7818608E-02  0.1130116E+00
         25   -1    0    0    0    0  0.00000000000E+00  0.00000000000E+00  0.99999998245E-14  0.12500000000E+03  0.12500000000E+03 0.  0.
        -11    1    1    0    0    0  0.63821259327E+01  0.52770575729E+01 -0.11867383047E+02  0.14471131563E+02  0.51100000000E-03 0. -1.
         11    1    1    0    0    0  0.44046101088E+02  0.11643378648E+02 -0.18623113239E+02  0.49218366840E+02  0.51100000000E-03 0.  1.
         22    1    1    0    0    0 -0.50428227021E+02 -0.16920436221E+02  0.30490496286E+02  0.61310501598E+02  0.00000000000E+00 0.  1.
</event>
<event>
 4    1  0.1956390E-002  0.9118800E+02  0.7818608E-02  0.1130116E+00
         25   -1    0    0    0    0  0.00000000000E+00  0.00000000000E+00  0.99999998245E-14  0.12500000000E+03  0.12500000000E+03 0.  0.
        -11    1    1    0    0    0  0.30940037390E+02  0.26140635635E+02  0.17279559257E+01  0.40541393378E+02  0.51100000000E-03 0.  1.
         11    1    1    0    0    0  0.16761576670E+02  0.14154856848E+02  0.93273341161E+00  0.21958606894E+02  0.51100000000E-03 0. -1.
         22    1    1    0    0    0 -0.47701614060E+02 -0.40295492482E+02 -0.26606893373E+01  0.62499999728E+02  0.00000000000E+00 0.  1.
</event>
<event>
 4    1  0.1956390E-002  0.9118800E+02  0.7818608E-02  0.1130116E+00
         25   -1    0    0    0    0  0.00000000000E+00  0.00000000000E+00  0.99999998245E-14  0.12500000000E+03  0.12500000000E+03 0.  0.
        -11    1    1    0    0    0 -0.23458857494E+02  0.41405349354E+02  0.38257779366E+02  0.61060450640E+02  0.51100000000E-03 0.  1.
         11    1    1    0    0    0 -0.49166337917E+00  0.97078583258E+00  0.94385254156E+00  0.14404915454E+01  0.51100000000E-03 0. -1.
         22    1    1    0    0    0  0.23950520873E+02 -0.42376135187E+02 -0.39201631908E+02  0.62499057815E+02  0.00000000000E+00 0.  1.
</event>
<event>
 4    1  0.1956390E-002  0.9118800E+02  0.7818608E-02  0.1130116E+00
         25   -1    0    0    0    0  0.00000000000E+00  0.00000000000E+00  0.99999998245E-14  0.12500000000E+03  0.12500000000E+03 0.  0.
        -11    1    1    0    0    0  0.19434461716E+01  0.63553763289E+01 -0.69263630687E+01  0.95990779205E+01  0.51100000000E-03 0.  1.
         11    1    1    0    0    0  0.10743067952E+02  0.35010801624E+02 -0.38175095492E+02  0.52900923012E+02  0.51100000000E-03 0. -1.
         22    1    1    0    0    0 -0.12686514124E+02 -0.41366177953E+02  0.45101458561E+02  0.62499999067E+02  0.00000000000E+00 0. -1.
</event>
<event>
 4    1  0.1956390E-002  0.9118800E+02  0.7818608E-02  0.1130116E+00
         25   -1    0    0    0    0  0.00000000000E+00  0.00000000000E+00  0.99999998245E-14  0.12500000000E+03  0.12500000000E+03 0.  0.
        -11    1    1    0    0    0 -0.74515983144E+01  0.67247046532E+01 -0.50489049296E+01  0.11235631329E+02  0.51100000000E-03 0.  1.
         11    1    1    0    0    0 -0.33728379087E+02  0.30698404072E+02 -0.23410662658E+02  0.51264555930E+02  0.51100000000E-03 0. -1.
         22    1    1    0    0    0  0.41179977401E+02 -0.37423108725E+02  0.28459567588E+02  0.62499812741E+02  0.00000000000E+00 0. -1.
</event>
<event>
 4    1  0.1956390E-002  0.9118800E+02  0.7818608E-02  0.1130116E+00
         25   -1    0    0    0    0  0.00000000000E+00  0.00000000000E+00  0.99999998245E-14  0.12500000000E+03  0.12500000000E+03 0.  0.
        -11    1    1    0    0    0 -0.15396759832E+02  0.64797999884E+01  0.10381024531E+01  0.16736955463E+02  0.51100000000E-03 0. -1.
         11    1    1    0    0    0 -0.42098370226E+02  0.17718210840E+02  0.28369834117E+01  0.45763044546E+02  0.51100000000E-03 0.  1.
         22    1    1    0    0    0  0.57495130057E+02 -0.24198010828E+02 -0.38750858648E+01  0.62499999991E+02  0.00000000000E+00 0.  1.
</event>
<event>
 4    1  0.1956390E-002  0.9118800E+02  0.7818608E-02  0.1130116E+00
         25   -1    0    0    0    0  0.00000000000E+00  0.00000000000E+00  0.99999998245E-14  0.12500000000E+03  0.12500000000E+03 0.  0.
        -11    1    1    0    0    0 -0.52230847679E+01  0.59989514945E+02  0.15584824798E+02  0.62200556928E+02  0.51100000000E-03 0. -1.
         11    1    1    0    0    0 -0.78873864952E+00 -0.30382277230E+00 -0.15805268820E+00  0.85988246149E+00  0.51100000000E-03 0.  1.
         22    1    1    0    0    0  0.60118234174E+01 -0.59685692173E+02 -0.15426772110E+02  0.61939560611E+02  0.00000000000E+00 0. -1.
</event>
<event>
 4    1  0.1956390E-002  0.9118800E+02  0.7818608E-02  0.1130116E+00
         25   -1    0    0    0    0  0.00000000000E+00  0.00000000000E+00  0.99999998245E-14  0.12500000000E+03  0.12500000000E+03 0.  0.
        -11    1    1    0    0    0  0.65911413590E+00 -0.11151034996E+01  0.12138877934E+01  0.17752214214E+01  0.51100000000E-03 0.  1.
         11    1    1    0    0    0  0.22513870317E+02 -0.38022696170E+02  0.41652123803E+02  0.60724782406E+02  0.51100000000E-03 0. -1.
         22    1    1    0    0    0 -0.23172984452E+02  0.39137799669E+02 -0.42866011597E+02  0.62499996173E+02  0.00000000000E+00 0. -1.
</event>
<event>
 4    1  0.1956390E-002  0.9118800E+02  0.7818608E-02  0.1130116E+00
         25   -1    0    0    0    0  0.00000000000E+00  0.00000000000E+00  0.99999998245E-14  0.12500000000E+03  0.12500000000E+03 0.  0.
        -11    1    1    0    0    0 -0.14825423653E+02 -0.10558842951E+02  0.48557136802E+02  0.51856319630E+02  0.51100000000E-03 0.  1.
         11    1    1    0    0    0 -0.27244479618E+00 -0.14096380907E+01  0.10719198961E+02  0.10814921745E+02  0.51100000000E-03 0. -1.
         22    1    1    0    0    0  0.15097868449E+02  0.11968481042E+02 -0.59276335763E+02  0.62328758625E+02  0.00000000000E+00 0.  1.
</event>
<event>
 4    1  0.1956390E-002  0.9118800E+02  0.7818608E-02  0.1130116E+00
         25   -1    0    0    0    0  0.00000000000E+00  0.00000000000E+00  0.99999998245E-14  0.12500000000E+03  0.12500000000E+03 0.  0.
        -11    1    1    0    0    0 -0.83109859807E+01 -0.20533619967E+01  0.17531801222E+01  0.87385596217E+01  0.51100000000E-03 0. -1.
         11    1    1    0    0    0 -0.51134831819E+02 -0.12641548142E+02  0.10756987158E+02  0.53761440992E+02  0.51100000000E-03 0.  1.
         22    1    1    0    0    0  0.59445817800E+02  0.14694910138E+02 -0.12510167280E+02  0.62499999386E+02  0.00000000000E+00 0.  1.
</event>
<event>
 4    1  0.1956390E-002  0.9118800E+02  0.7818608E-02  0.1130116E+00
         25   -1    0    0    0    0  0.00000000000E+00  0.00000000000E+00  0.99999998245E-14  0.12500000000E+03  0.12500000000E+03 0.  0.
        -11    1    1    0    0    0  0.29130406309E+01 -0.12096957839E+02  0.60477134358E+02  0.61743873989E+02  0.51100000000E-03 0. -1.
         11    1    1    0    0    0 -0.21091044717E+00 -0.26157008131E+00  0.70438666495E+00  0.78042485804E+00  0.51100000000E-03 0.  1.
         22    1    1    0    0    0 -0.27021301837E+01  0.12358527920E+02 -0.61181521023E+02  0.62475701153E+02  0.00000000000E+00 0. -1.
</event>
<event>
 4    1  0.1956390E-002  0.9118800E+02  0.7818608E-02  0.1130116E+00
         25   -1    0    0    0    0  0.00000000000E+00  0.00000000000E+00  0.99999998245E-14  0.12500000000E+03  0.12500000000E+03 0.  0.
        -11    1    1    0    0    0  0.69555454272E+01  0.10815359758E+02  0.37050879890E+02  0.39218864336E+02  0.51100000000E-03 0.  1.
         11    1    1    0    0    0  0.22602075286E+01  0.66149555747E+01  0.22232203346E+02  0.23305300711E+02  0.51100000000E-03 0. -1.
         22    1    1    0    0    0 -0.92157529557E+01 -0.17430315332E+02 -0.59283083237E+02  0.62475834954E+02  0.00000000000E+00 0.  1.
</event>
<event>
 4    1  0.1956390E-002  0.9118800E+02  0.7818608E-02  0.1130116E+00
         25   -1    0    0    0    0  0.00000000000E+00  0.00000000000E+00  0.99999998245E-14  0.12500000000E+03  0.12500000000E+03 0.  0.
        -11    1    1    0    0    0  0.76307784147E+01  0.15366726248E+02  0.16633291272E+02  0.23896264009E+02  0.51100000000E-03 0. -1.
         11    1    1    0    0    0  0.12228639275E+02  0.24836794399E+02  0.26904359604E+02  0.38603763294E+02  0.51100000000E-03 0.  1.
         22    1    1    0    0    0 -0.19859417690E+02 -0.40203520647E+02 -0.43537650875E+02  0.62499972697E+02  0.00000000000E+00 0. -1.
</event>
<event>
 4    1  0.1956390E-002  0.9118800E+02  0.7818608E-02  0.1130116E+00
         25   -1    0    0    0    0  0.00000000000E+00  0.00000000000E+00  0.99999998245E-14  0.12500000000E+03  0.12500000000E+03 0.  0.
        -11    1    1    0    0    0 -0.17370894033E+02 -0.48500978036E+01  0.34737107032E+01  0.18366765489E+02  0.51100000000E-03 0.  1.
         11    1    1    0    0    0 -0.42500409123E+02 -0.97033754275E+01  0.69451454756E+01  0.44143802694E+02  0.51100000000E-03 0. -1.
         22    1    1    0    0    0  0.59871303157E+02  0.14553473231E+02 -0.10418856179E+02  0.62489431817E+02  0.00000000000E+00 0. -1.
</event>
<event>
 4    1  0.1956390E-002  0.9118800E+02  0.7818608E-02  0.1130116E+00
         25   -1    0    0    0    0  0.00000000000E+00  0.00000000000E+00  0.99999998245E-14  0.12500000000E+03  0.12500000000E+03 0.  0.
        -11    1    1    0    0    0 -0.18832235579E+02 -0.10120846450E+02  0.26015060913E+02  0.33672956869E+02  0.51100000000E-03 0. -1.
         11    1    1    0    0    0 -0.15826918091E+02 -0.87361096030E+01  0.22454874984E+02  0.28827631849E+02  0.51100000000E-03 0.  1.
         22    1    1    0    0    0  0.34659153669E+02  0.18856956053E+02 -0.48469935897E+02  0.62499411281E+02  0.00000000000E+00 0. -1.
</event>
<event>
 4    1  0.1956390E-002  0.9118800E+02  0.7818608E-02  0.1130116E+00
         25   -1    0    0    0    0  0.00000000000E+00  0.00000000000E+00  0.99999998245E-14  0.12500000000E+03  0.12500000000E+03 0.  0.
        -11    1    1    0    0    0 -0.26871312212E+02 -0.20547438789E+02  0.53785080951E+01  0.34251905208E+02  0.51100000000E-03 0. -1.
         11    1    1    0    0    0 -0.22072725601E+02 -0.17003736883E+02  0.46517116790E+01  0.28248375268E+02  0.51100000000E-03 0.  1.
         22    1    1    0    0    0  0.48944037813E+02  0.37551175673E+02 -0.10030219774E+02  0.62499719524E+02  0.00000000000E+00 0. -1.
</event>
<event>
 4    1  0.1956390E-002  0.9118800E+02  0.7818608E-02  0.1130116E+00
         25   -1    0    0    0    0  0.00000000000E+00  0.00000000000E+00  0.99999998245E-14  0.12500000000E+03  0.12500000000E+03 0.  0.
        -11    1    1    0    0    0  0.50646111456E+02  0.22865223614E+02  0.22134772333E+01  0.55612467471E+02  0.51100000000E-03 0. -1.
         11    1    1    0    0    0  0.70937054425E+01  0.39087922408E+00 -0.29825131822E+00  0.71107241250E+01  0.51100000000E-03 0.  1.
         22    1    1    0    0    0 -0.57739816898E+02 -0.23256102838E+02 -0.19152259151E+01  0.62276808404E+02  0.00000000000E+00 0. -1.
</event>
<event>
 4    1  0.1956390E-002  0.9118800E+02  0.7818608E-02  0.1130116E+00
         25   -1    0    0    0    0  0.00000000000E+00  0.00000000000E+00  0.99999998245E-14  0.12500000000E+03  0.12500000000E+03 0.  0.
        -11    1    1    0    0    0 -0.53113647411E+01  0.61923131655E+02 -0.32100261569E+01  0.62233343937E+02  0.51100000000E-03 0. -1.
         11    1    1    0    0    0  0.38346862034E+00  0.92291794718E-01  0.28576238455E+00  0.48705888730E+00  0.51100000000E-03 0.  1.
         22    1    1    0    0    0  0.49278961208E+01 -0.62015423450E+02  0.29242637724E+01  0.62279597176E+02  0.00000000000E+00 0. -1.
</event>
<event>
 4    1  0.1956390E-002  0.9118800E+02  0.7818608E-02  0.1130116E+00
         25   -1    0    0    0    0  0.00000000000E+00  0.00000000000E+00  0.99999998245E-14  0.12500000000E+03  0.12500000000E+03 0.  0.
        -11    1    1    0    0    0 -0.14750325971E+02 -0.21701085852E+02 -0.52119050712E+02  0.58351561169E+02  0.51100000000E-03 0.  1.
         11    1    1    0    0    0 -0.10488370107E+01 -0.15435026712E+01 -0.37050081422E+01  0.41484388829E+01  0.51100000000E-03 0. -1.
         22    1    1    0    0    0  0.15799162982E+02  0.23244588523E+02  0.55824058855E+02  0.62499999948E+02  0.00000000000E+00 0.  1.
</event>
<event>
 4    1  0.1956390E-002  0.9118800E+02  0.7818608E-02  0.1130116E+00
         25   -1    0    0    0    0  0.00000000000E+00  0.00000000000E+00  0.99999998245E-14  0.12500000000E+03  0.12500000000E+03 0.  0.
        -11    1    1    0    0    0  0.42661648192E+02  0.39434407302E+02 -0.23610813658E+00  0.58095993434E+02  0.51100000000E-03 0.  1.
         11    1    1    0    0    0  0.48649250937E+01 -0.87683307413E+00  0.27413946582E+01  0.56525726303E+01  0.51100000000E-03 0. -1.
         22    1    1    0    0    0 -0.47526573286E+02 -0.38557574228E+02 -0.25052865216E+01  0.61251433936E+02  0.00000000000E+00 0.  1.
</event>
<event>
 4    1  0.1956390E-002  0.9118800E+02  0.7818608E-02  0.1130116E+00
         25   -1    0    0    0    0  0.00000000000E+00  0.00000000000E+00  0.99999998245E-14  0.12500000000E+03  0.12500000000E+03 0.  0.
        -11    1    1    0    0    0  0.15747164787E+01 -0.42926514805E+02 -0.38707342263E+02  0.57822346465E+02  0.51100000000E-03 0.  1.
         11    1    1    0    0    0  0.14632327692E+01 -0.19542996768E+01 -0.42989130134E+01  0.49437830375E+01  0.51100000000E-03 0. -1.
         22    1    1    0    0    0 -0.30379492479E+01  0.44880814482E+02  0.43006255277E+02  0.62233870498E+02  0.00000000000E+00 0.  1.
</event>
<event>
 4    1  0.1956390E-002  0.9118800E+02  0.7818608E-02  0.1130116E+00
         25   -1    0    0    0    0  0.00000000000E+00  0.00000000000E+00  0.99999998245E-14  0.12500000000E+03  0.12500000000E+03 0.  0.
        -11    1    1    0    0    0 -0.73932789207E+00 -0.31406887871E+00 -0.49232913256E+00  0.94214289174E+00  0.51100000000E-03 0.  1.
         11    1    1    0    0    0 -0.48316963155E+02 -0.20568877741E+02 -0.32121054700E+02  0.61557857462E+02  0.51100000000E-03 0. -1.
         22    1    1    0    0    0  0.49056291047E+02  0.20882946620E+02  0.32613383832E+02  0.62499999646E+02  0.00000000000E+00 0. -1.
</event>
<event>
 4    1  0.1956390E-002  0.9118800E+02  0.7818608E-02  0.1130116E+00
         25   -1    0    0    0    0  0.00000000000E+00  0.00000000000E+00  0.99999998245E-14  0.12500000000E+03  0.12500000000E+03 0.  0.
        -11    1    1    0    0    0  0.50645209061E+00  0.49722528074E+01 -0.49514031287E+01  0.70353525076E+01  0.51100000000E-03 0. -1.
         11    1    1    0    0    0  0.47801759161E+01  0.39554317471E+02 -0.38587385016E+02  0.55465127738E+02  0.51100000000E-03 0.  1.
         22    1    1    0    0    0 -0.52866280067E+01 -0.44526570278E+02  0.43538788145E+02  0.62499519754E+02  0.00000000000E+00 0.  1.
</event>
<event>
 4    1  0.1956390E-002  0.9118800E+02  0.7818608E-02  0.1130116E+00
         25   -1    0    0    0    0  0.00000000000E+00  0.00000000000E+00  0.99999998245E-14  0.12500000000E+03  0.12500000000E+03 0.  0.
        -11    1    1    0    0    0 -0.36947040923E+02  0.91381452315E+00 -0.43968556627E+01  0.37218963311E+02  0.51100000000E-03 0. -1.
         11    1    1    0    0    0 -0.25114568970E+02  0.12047860738E+01 -0.26591960734E+01  0.25283678689E+02  0.51100000000E-03 0.  1.
         22    1    1    0    0    0  0.62061609893E+02 -0.21186005969E+01  0.70560517361E+01  0.62497358001E+02  0.00000000000E+00 0.  1.
</event>
<event>
 4    1  0.1956390E-002  0.9118800E+02  0.7818608E-02  0.1130116E+00
         25   -1    0    0    0    0  0.00000000000E+00  0.00000000000E+00  0.99999998245E-14  0.12500000000E+03  0.12500000000E+03 0.  0.
        -11    1    1    0    0    0  0.35716799500E+02 -0.17268055260E+02 -0.31395411203E+02  0.50591969164E+02  0.51100000000E-03 0.  1.
         11    1    1    0    0    0  0.84074200584E+01 -0.40635458073E+01 -0.73894575059E+01  0.11908030864E+02  0.51100000000E-03 0. -1.
         22    1    1    0    0    0 -0.44124219558E+02  0.21331601068E+02  0.38784868709E+02  0.62499999972E+02  0.00000000000E+00 0.  1.
</event>
<event>
 4    1  0.1956390E-002  0.9118800E+02  0.7818608E-02  0.1130116E+00
         25   -1    0    0    0    0  0.00000000000E+00  0.00000000000E+00  0.99999998245E-14  0.12500000000E+03  0.12500000000E+03 0.  0.
        -11    1    1    0    0    0  0.91452809487E+01  0.26247155631E+01  0.26615868202E+02  0.28265345139E+02  0.51100000000E-03 0.  1.
         11    1    1    0    0    0  0.11075921106E+02  0.31785971041E+01  0.32237122790E+02  0.34234654868E+02  0.51100000000E-03 0.  1.
         22    1    1    0    0    0 -0.20221202054E+02 -0.58033126672E+01 -0.58852990992E+02  0.62499999993E+02  0.00000000000E+00 0.  1.
</event>
<event>
 4    1  0.1956390E-002  0.9118800E+02  0.7818608E-02  0.1130116E+00
         25   -1    0    0    0    0  0.00000000000E+00  0.00000000000E+00  0.99999998245E-14  0.12500000000E+03  0.12500000000E+03 0.  0.
        -11    1    1    0    0    0  0.34375646944E+02 -0.23486278271E+02 -0.32893924321E+02  0.53059406586E+02  0.51100000000E-03 0.  1.
         11    1    1    0    0    0  0.61182340638E+01 -0.41796649631E+01 -0.58499932958E+01  0.94405936829E+01  0.51100000000E-03 0. -1.
         22    1    1    0    0    0 -0.40493881007E+02  0.27665943234E+02  0.38743917617E+02  0.62499999731E+02  0.00000000000E+00 0.  1.
</event>
<event>
 4    1  0.1956390E-002  0.9118800E+02  0.7818608E-02  0.1130116E+00
         25   -1    0    0    0    0  0.00000000000E+00  0.00000000000E+00  0.99999998245E-14  0.12500000000E+03  0.12500000000E+03 0.  0.
        -11    1    1    0    0    0 -0.37301543978E+01  0.98443665557E+01 -0.14357595595E+02  0.17803543362E+02  0.51100000000E-03 0.  1.
         11    1    1    0    0    0 -0.93503449660E+01  0.24892067799E+02 -0.35926811122E+02  0.44696529485E+02  0.51100000000E-03 0. -1.
         22    1    1    0    0    0  0.13080499364E+02 -0.34736434355E+02  0.50284406717E+02  0.62499927153E+02  0.00000000000E+00 0. -1.
</event>
<event>
 4    1  0.1956390E-002  0.9118800E+02  0.7818608E-02  0.1130116E+00
         25   -1    0    0    0    0  0.00000000000E+00  0.00000000000E+00  0.99999998245E-14  0.12500000000E+03  0.12500000000E+03 0.  0.
        -11    1    1    0    0    0 -0.18689484182E+02  0.24320127745E+02  0.38865446263E+02  0.49510487232E+02  0.51100000000E-03 0. -1.
         11    1    1    0    0    0 -0.49034006343E+01  0.63806383543E+01  0.10196644461E+02  0.12989512774E+02  0.51100000000E-03 0. -1.
         22    1    1    0    0    0  0.23592884817E+02 -0.30700766099E+02 -0.49062090723E+02  0.62499999994E+02  0.00000000000E+00 0. -1.
</event>
<event>
 4    1  0.1956390E-002  0.9118800E+02  0.7818608E-02  0.1130116E+00
         25   -1    0    0    0    0  0.00000000000E+00  0.00000000000E+00  0.99999998245E-14  0.12500000000E+03  0.12500000000E+03 0.  0.
        -11    1    1    0    0    0  0.84814045040E+01 -0.11175184865E+02 -0.23846448806E+01  0.14230443092E+02  0.51100000000E-03 0. -1.
         11    1    1    0    0    0  0.28812740551E+02 -0.38032115230E+02 -0.73079233559E+01  0.48270296777E+02  0.51100000000E-03 0.  1.
         22    1    1    0    0    0 -0.37294145055E+02  0.49207300094E+02  0.96925682365E+01  0.62499260131E+02  0.00000000000E+00 0.  1.
</event>
<event>
 4    1  0.1956390E-002  0.9118800E+02  0.7818608E-02  0.1130116E+00
         25   -1    0    0    0    0  0.00000000000E+00  0.00000000000E+00  0.99999998245E-14  0.12500000000E+03  0.12500000000E+03 0.  0.
        -11    1    1    0    0    0 -0.43874531840E+02  0.71146960137E+01  0.16045945461E+02  0.47255325726E+02  0.51100000000E-03 0.  1.
         11    1    1    0    0    0 -0.14559271881E+02 -0.23384054768E+01  0.48198996389E+01  0.15513605985E+02  0.51100000000E-03 0. -1.
         22    1    1    0    0    0  0.58433803721E+02 -0.47762905369E+01 -0.20865845099E+02  0.62231068288E+02  0.00000000000E+00 0.  1.
</event>
<event>
 4    1  0.1956390E-002  0.9118800E+02  0.7818608E-02  0.1130116E+00
         25   -1    0    0    0    0  0.00000000000E+00  0.00000000000E+00  0.99999998245E-14  0.12500000000E+03  0.12500000000E+03 0.  0.
        -11    1    1    0    0    0 -0.61646520246E+01 -0.10581538358E+02  0.29525114640E+01  0.12597190671E+02  0.51100000000E-03 0.  1.
         11    1    1    0    0    0 -0.24710009916E+02 -0.41712836909E+02  0.11821983399E+02  0.49902952265E+02  0.51100000000E-03 0. -1.
         22    1    1    0    0    0  0.30874661941E+02  0.52294375267E+02 -0.14774494863E+02  0.62499857063E+02  0.00000000000E+00 0. -1.
</event>
<event>
 4    1  0.1956390E-002  0.9118800E+02  0.7818608E-02  0.1130116E+00
         25   -1    0    0    0    0  0.00000000000E+00  0.00000000000E+00  0.99999998245E-14  0.12500000000E+03  0.12500000000E+03 0.  0.
        -11    1    1    0    0    0  0.60374058833E+00  0.47744814469E+02 -0.27961538732E+02  0.55333348533E+02  0.51100000000E-03 0.  1.
         11    1    1    0    0    0  0.79211115828E-01  0.61829831286E+01 -0.36228911052E+01  0.71666515884E+01  0.51100000000E-03 0. -1.
         22    1    1    0    0    0 -0.68295170416E+00 -0.53927797597E+02  0.31584429837E+02  0.62499999879E+02  0.00000000000E+00 0.  1.
</event>
<event>
 4    1  0.1956390E-002  0.9118800E+02  0.7818608E-02  0.1130116E+00
         25   -1    0    0    0    0  0.00000000000E+00  0.00000000000E+00  0.99999998245E-14  0.12500000000E+03  0.12500000000E+03 0.  0.
        -11    1    1    0    0    0 -0.68721387865E+01  0.28854761015E+02  0.20174115471E+02  0.35872251951E+02  0.51100000000E-03 0.  1.
         11    1    1    0    0    0 -0.51071410937E+01  0.21419855172E+02  0.14971435969E+02  0.26627748327E+02  0.51100000000E-03 0. -1.
         22    1    1    0    0    0  0.11979279880E+02 -0.50274616187E+02 -0.35145551440E+02  0.62499999722E+02  0.00000000000E+00 0.  1.
</event>
<event>
 4    1  0.1956390E-002  0.9118800E+02  0.7818608E-02  0.1130116E+00
         25   -1    0    0    0    0  0.00000000000E+00  0.00000000000E+00  0.99999998245E-14  0.12500000000E+03  0.12500000000E+03 0.  0.
        -11    1    1    0    0    0 -0.43613473745E+02  0.16531902371E+02  0.39796620784E+02  0.61312396090E+02  0.51100000000E-03 0. -1.
         11    1    1    0    0    0 -0.84486928390E+00  0.32034767720E+00  0.77069851570E+00  0.11876039762E+01  0.51100000000E-03 0. -1.
         22    1    1    0    0    0  0.44458343029E+02 -0.16852250048E+02 -0.40567319300E+02  0.62499999934E+02  0.00000000000E+00 0. -1.
</event>
<event>
 4    1  0.1956390E-002  0.9118800E+02  0.7818608E-02  0.1130116E+00
         25   -1    0    0    0    0  0.00000000000E+00  0.00000000000E+00  0.99999998245E-14  0.12500000000E+03  0.12500000000E+03 0.  0.
        -11    1    1    0    0    0  0.19141187088E+01  0.48471475231E+00  0.10540903816E+01  0.22382818447E+01  0.51100000000E-03 0. -1.
         11    1    1    0    0    0  0.51675695381E+02  0.79872629100E+01  0.29963395815E+02  0.60265902058E+02  0.51100000000E-03 0.  1.
         22    1    1    0    0    0 -0.53589814090E+02 -0.84719776623E+01 -0.31017486196E+02  0.62495816097E+02  0.00000000000E+00 0.  1.
</event>
<event>
 4    1  0.1956390E-002  0.9118800E+02  0.7818608E-02  0.1130116E+00
         25   -1    0    0    0    0  0.00000000000E+00  0.00000000000E+00  0.99999998245E-14  0.12500000000E+03  0.12500000000E+03 0.  0.
        -11    1    1    0    0    0 -0.19276562335E+02 -0.19521654135E+02  0.58432815185E+01  0.28050397053E+02  0.51100000000E-03 0.  1.
         11    1    1    0    0    0 -0.23670979815E+02 -0.23977469758E+02  0.71791926541E+01  0.34449603029E+02  0.51100000000E-03 0. -1.
         22    1    1    0    0    0  0.42947542150E+02  0.43499123894E+02 -0.13022474173E+02  0.62499999919E+02  0.00000000000E+00 0. -1.
</event>
<event>
 4    1  0.1956390E-002  0.9118800E+02  0.7818608E-02  0.1130116E+00
         25   -1    0    0    0    0  0.00000000000E+00  0.00000000000E+00  0.99999998245E-14  0.12500000000E+03  0.12500000000E+03 0.  0.
        -11    1    1    0    0    0  0.24383518229E+02 -0.44816028049E+02  0.93650309855E+01  0.51872306069E+02  0.51100000000E-03 0. -1.
         11    1    1    0    0    0  0.60494203895E+01 -0.82236714525E+01  0.32018192675E+01  0.10699341386E+02  0.51100000000E-03 0.  1.
         22    1    1    0    0    0 -0.30432938619E+02  0.53039699502E+02 -0.12566850253E+02  0.62428352545E+02  0.00000000000E+00 0. -1.
</event>
<event>
 4    1  0.1956390E-002  0.9118800E+02  0.7818608E-02  0.1130116E+00
         25   -1    0    0    0    0  0.00000000000E+00  0.00000000000E+00  0.99999998245E-14  0.12500000000E+03  0.12500000000E+03 0.  0.
        -11    1    1    0    0    0  0.71908945235E+01 -0.13216511291E+02  0.37315457716E+01  0.15501921457E+02  0.51100000000E-03 0.  1.
         11    1    1    0    0    0  0.21774901246E+02 -0.40081279644E+02  0.11320962639E+02  0.46998079722E+02  0.51100000000E-03 0. -1.
         22    1    1    0    0    0 -0.28965795769E+02  0.53297790936E+02 -0.15052508411E+02  0.62499998821E+02  0.00000000000E+00 0. -1.
</event>
<event>
 4    1  0.1956390E-002  0.9118800E+02  0.7818608E-02  0.1130116E+00
         25   -1    0    0    0    0  0.00000000000E+00  0.00000000000E+00  0.99999998245E-14  0.12500000000E+03  0.12500000000E+03 0.  0.
        -11    1    1    0    0    0 -0.19495717280E+01  0.24286249997E+01 -0.16591719496E+01  0.35287251425E+01  0.51100000000E-03 0. -1.
         11    1    1    0    0    0 -0.50900167658E+01  0.57713176065E+02  0.14158859766E+02  0.59642202108E+02  0.51100000000E-03 0.  1.
         22    1    1    0    0    0  0.70395884938E+01 -0.60141801065E+02 -0.12499687817E+02  0.61829072749E+02  0.00000000000E+00 0.  1.
</event>
<event>
 4    1  0.1956390E-002  0.9118800E+02  0.7818608E-02  0.1130116E+00
         25   -1    0    0    0    0  0.00000000000E+00  0.00000000000E+00  0.99999998245E-14  0.12500000000E+03  0.12500000000E+03 0.  0.
        -11    1    1    0    0    0  0.13245129973E+02 -0.28830186979E+02 -0.22823122945E+02  0.39083347995E+02  0.51100000000E-03 0. -1.
         11    1    1    0    0    0  0.86209057520E+01 -0.17569471854E+02 -0.12872775592E+02  0.23424660273E+02  0.51100000000E-03 0.  1.
         22    1    1    0    0    0 -0.21866035725E+02  0.46399658833E+02  0.35695898537E+02  0.62491991732E+02  0.00000000000E+00 0. -1.
</event>
<event>
 4    1  0.1956390E-002  0.9118800E+02  0.7818608E-02  0.1130116E+00
         25   -1    0    0    0    0  0.00000000000E+00  0.00000000000E+00  0.99999998245E-14  0.12500000000E+03  0.12500000000E+03 0.  0.
        -11    1    1    0    0    0 -0.95958450027E+00 -0.33796002323E+01  0.88919569765E+01  0.95608262863E+01  0.51100000000E-03 0. -1.
         11    1    1    0    0    0 -0.53103637868E+01 -0.18714686362E+02  0.49235319292E+02  0.52939173730E+02  0.51100000000E-03 0. -1.
         22    1    1    0    0    0  0.62699482871E+01  0.22094286594E+02 -0.58127276268E+02  0.62499999984E+02  0.00000000000E+00 0. -1.
</event>
<event>
 4    1  0.1956390E-002  0.9118800E+02  0.7818608E-02  0.1130116E+00
         25   -1    0    0    0    0  0.00000000000E+00  0.00000000000E+00  0.99999998245E-14  0.12500000000E+03  0.12500000000E+03 0.  0.
        -11    1    1    0    0    0  0.42289661641E+01 -0.76336023477E+01  0.12792508472E+02  0.15485616323E+02  0.51100000000E-03 0.  1.
         11    1    1    0    0    0  0.12178379400E+02 -0.23994484076E+02  0.38554522467E+02  0.47015948292E+02  0.51100000000E-03 0. -1.
         22    1    1    0    0    0 -0.16407345565E+02  0.31628086423E+02 -0.51347030939E+02  0.62498435385E+02  0.00000000000E+00 0. -1.
</event>
<event>
 4    1  0.1956390E-002  0.9118800E+02  0.7818608E-02  0.1130116E+00
         25   -1    0    0    0    0  0.00000000000E+00  0.00000000000E+00  0.99999998245E-14  0.12500000000E+03  0.12500000000E+03 0.  0.
        -11    1    1    0    0    0  0.55939029856E+01 -0.26800971497E+01 -0.18531748090E+01  0.64737105649E+01  0.51100000000E-03 0. -1.
         11    1    1    0    0    0  0.49466055825E+02 -0.23470703245E+02 -0.11921400418E+02  0.56034671212E+02  0.51100000000E-03 0.  1.
         22    1    1    0    0    0 -0.55059958810E+02  0.26150800394E+02  0.13774575227E+02  0.62491618223E+02  0.00000000000E+00 0.  1.
</event>
<event>
 4    1  0.1956390E-002  0.9118800E+02  0.7818608E-02  0.1130116E+00
         25   -1    0    0    0    0  0.00000000000E+00  0.00000000000E+00  0.99999998245E-14  0.12500000000E+03  0.12500000000E+03 0.  0.
        -11    1    1    0    0    0  0.70602292232E+01 -0.20387107499E+00 -0.37633665265E+01  0.80032073554E+01  0.51100000000E-03 0. -1.
         11    1    1    0    0    0  0.47966198276E+02 -0.10854767829E+01 -0.25845225511E+02  0.54496881735E+02  0.51100000000E-03 0.  1.
         22    1    1    0    0    0 -0.55026427499E+02  0.12893478579E+01  0.29608592037E+02  0.62499910909E+02  0.00000000000E+00 0.  1.
</event>
<event>
 4    1  0.1956390E-002  0.9118800E+02  0.7818608E-02  0.1130116E+00
         25   -1    0    0    0    0  0.00000000000E+00  0.00000000000E+00  0.99999998245E-14  0.12500000000E+03  0.12500000000E+03 0.  0.
        -11    1    1    0    0    0 -0.41385711249E+01  0.52214970384E+01  0.16553506540E+02  0.17844057310E+02  0.51100000000E-03 0. -1.
         11    1    1    0    0    0 -0.10640028799E+02  0.13109416543E+02  0.41341249624E+02  0.44656085092E+02  0.51100000000E-03 0.  1.
         22    1    1    0    0    0  0.14778599924E+02 -0.18330913582E+02 -0.57894756164E+02  0.62499857598E+02  0.00000000000E+00 0.  1.
</event>
<event>
 4    1  0.1956390E-002  0.9118800E+02  0.7818608E-02  0.1130116E+00
         25   -1    0    0    0    0  0.00000000000E+00  0.00000000000E+00  0.99999998245E-14  0.12500000000E+03  0.12500000000E+03 0.  0.
        -11    1    1    0    0    0  0.71042837892E+01  0.10760845329E+02  0.39608441217E+02  0.41654474625E+02  0.51100000000E-03 0.  1.
         11    1    1    0    0    0 -0.33362568609E+01  0.11899400673E+02  0.17709830278E+02  0.21595472557E+02  0.51100000000E-03 0. -1.
         22    1    1    0    0    0 -0.37680269283E+01 -0.22660246002E+02 -0.57318271496E+02  0.61750052818E+02  0.00000000000E+00 0.  1.
</event>
<event>
 4    1  0.1956390E-002  0.9118800E+02  0.7818608E-02  0.1130116E+00
         25   -1    0    0    0    0  0.00000000000E+00  0.00000000000E+00  0.99999998245E-14  0.12500000000E+03  0.12500000000E+03 0.  0.
        -11    1    1    0    0    0 -0.60792138070E+01  0.86340344661E+01  0.43034537252E+02  0.44311113599E+02  0.51100000000E-03 0.  1.
         11    1    1    0    0    0 -0.24961602389E+01  0.35447471817E+01  0.17664640961E+02  0.18188886416E+02  0.51100000000E-03 0.  1.
         22    1    1    0    0    0  0.85753740459E+01 -0.12178781648E+02 -0.60699178212E+02  0.62499999985E+02  0.00000000000E+00 0.  1.
</event>
<event>
 4    1  0.1956390E-002  0.9118800E+02  0.7818608E-02  0.1130116E+00
         25   -1    0    0    0    0  0.00000000000E+00  0.00000000000E+00  0.99999998245E-14  0.12500000000E+03  0.12500000000E+03 0.  0.
        -11    1    1    0    0    0 -0.35027681086E+02  0.22360277089E+02 -0.34394558977E+02  0.53943545687E+02  0.51100000000E-03 0. -1.
         11    1    1    0    0    0 -0.54832571656E+01  0.35981725964E+01 -0.54958238558E+01  0.85566953488E+01  0.51100000000E-03 0.  1.
         22    1    1    0    0    0  0.40510938251E+02 -0.25958449685E+02  0.39890382833E+02  0.62499758965E+02  0.00000000000E+00 0. -1.
</event>
<event>
 4    1  0.1956390E-002  0.9118800E+02  0.7818608E-02  0.1130116E+00
         25   -1    0    0    0    0  0.00000000000E+00  0.00000000000E+00  0.99999998245E-14  0.12500000000E+03  0.12500000000E+03 0.  0.
        -11    1    1    0    0    0  0.18060967062E+02 -0.51717525857E+02 -0.20793946566E+02  0.58594276393E+02  0.51100000000E-03 0.  1.
         11    1    1    0    0    0  0.12024451974E+01 -0.34483971510E+01 -0.13846883394E+01  0.39057239306E+01  0.51100000000E-03 0. -1.
         22    1    1    0    0    0 -0.19263412260E+02  0.55165923008E+02  0.22178634905E+02  0.62499999676E+02  0.00000000000E+00 0.  1.
</event>
<event>
 4    1  0.1956390E-002  0.9118800E+02  0.7818608E-02  0.1130116E+00
         25   -1    0    0    0    0  0.00000000000E+00  0.00000000000E+00  0.99999998245E-14  0.12500000000E+03  0.12500000000E+03 0.  0.
        -11    1    1    0    0    0 -0.65013899914E+01  0.64141909813E+01 -0.14517996546E+02  0.17151738738E+02  0.51100000000E-03 0.  1.
         11    1    1    0    0    0 -0.17191226437E+02  0.16967111088E+02 -0.38380251270E+02  0.45348261409E+02  0.51100000000E-03 0. -1.
         22    1    1    0    0    0  0.23692616429E+02 -0.23381302069E+02  0.52898247815E+02  0.62499999853E+02  0.00000000000E+00 0. -1.
</event>
<event>
 4    1  0.1956390E-002  0.9118800E+02  0.7818608E-02  0.1130116E+00
         25   -1    0    0    0    0  0.00000000000E+00  0.00000000000E+00  0.99999998245E-14  0.12500000000E+03  0.12500000000E+03 0.  0.
        -11    1    1    0    0    0 -0.29995754075E+02  0.95045024843E+01  0.76581567441E+01  0.32384073169E+02  0.51100000000E-03 0. -1.
         11    1    1    0    0    0 -0.25171365807E+02  0.34723354351E+01  0.17249077912E+02  0.30711324606E+02  0.51100000000E-03 0.  1.
         22    1    1    0    0    0  0.55167119882E+02 -0.12976837919E+02 -0.24907234656E+02  0.61904602226E+02  0.00000000000E+00 0.  1.
</event>
<event>
 4    1  0.1956390E-002  0.9118800E+02  0.7818608E-02  0.1130116E+00
         25   -1    0    0    0    0  0.00000000000E+00  0.00000000000E+00  0.99999998245E-14  0.12500000000E+03  0.12500000000E+03 0.  0.
        -11    1    1    0    0    0  0.16751695286E+02  0.15359882220E+02  0.29018779609E+02  0.36859664229E+02  0.51100000000E-03 0. -1.
         11    1    1    0    0    0  0.10524837447E+02  0.10331807253E+02  0.20988334062E+02  0.25652068364E+02  0.51100000000E-03 0.  1.
         22    1    1    0    0    0 -0.27276532733E+02 -0.25691689473E+02 -0.50007113671E+02  0.62488267408E+02  0.00000000000E+00 0. -1.
</event>
<event>
 4    1  0.1956390E-002  0.9118800E+02  0.7818608E-02  0.1130116E+00
         25   -1    0    0    0    0  0.00000000000E+00  0.00000000000E+00  0.99999998245E-14  0.12500000000E+03  0.12500000000E+03 0.  0.
        -11    1    1    0    0    0 -0.29363852470E+02 -0.21706005830E+02 -0.18060161898E+02  0.40737648055E+02  0.51100000000E-03 0. -1.
         11    1    1    0    0    0 -0.15925578371E+02 -0.84307845886E+01 -0.12439117244E+02  0.21895977104E+02  0.51100000000E-03 0.  1.
         22    1    1    0    0    0  0.45289430841E+02  0.30136790419E+02  0.30499279142E+02  0.62366374842E+02  0.00000000000E+00 0. -1.
</event>
<event>
 4    1  0.1956390E-002  0.9118800E+02  0.7818608E-02  0.1130116E+00
         25   -1    0    0    0    0  0.00000000000E+00  0.00000000000E+00  0.99999998245E-14  0.12500000000E+03  0.12500000000E+03 0.  0.
        -11    1    1    0    0    0 -0.43364877104E+02 -0.26098583937E+02  0.34146524670E+02  0.61054351172E+02  0.51100000000E-03 0.  1.
         11    1    1    0    0    0 -0.70102288171E+00 -0.75821285742E+00  0.10561649716E+01  0.14770932693E+01  0.51100000000E-03 0. -1.
         22    1    1    0    0    0  0.44065899986E+02  0.26856796794E+02 -0.35202689642E+02  0.62468555559E+02  0.00000000000E+00 0.  1.
</event>
<event>
 4    1  0.1956390E-002  0.9118800E+02  0.7818608E-02  0.1130116E+00
         25   -1    0    0    0    0  0.00000000000E+00  0.00000000000E+00  0.99999998245E-14  0.12500000000E+03  0.12500000000E+03 0.  0.
        -11    1    1    0    0    0  0.15112888845E+00 -0.55353958352E+00  0.29841973471E+00  0.64676163355E+00  0.51100000000E-03 0.  1.
         11    1    1    0    0    0  0.14128733223E+02 -0.52972892791E+02  0.28636955774E+02  0.61853243322E+02  0.51100000000E-03 0. -1.
         22    1    1    0    0    0 -0.14279862112E+02  0.53526432375E+02 -0.28935375509E+02  0.62499995044E+02  0.00000000000E+00 0. -1.
</event>
<event>
 4    1  0.1956390E-002  0.9118800E+02  0.7818608E-02  0.1130116E+00
         25   -1    0    0    0    0  0.00000000000E+00  0.00000000000E+00  0.99999998245E-14  0.12500000000E+03  0.12500000000E+03 0.  0.
        -11    1    1    0    0    0 -0.37335501860E+01  0.58594704771E+01 -0.80230624239E+01  0.10613308729E+02  0.51100000000E-03 0. -1.
         11    1    1    0    0    0 -0.18206245812E+02  0.28681924210E+02 -0.39218731028E+02  0.51886694120E+02  0.51100000000E-03 0.  1.
         22    1    1    0    0    0  0.21939795998E+02 -0.34541394687E+02  0.47241793452E+02  0.62499997151E+02  0.00000000000E+00 0.  1.
</event>
<event>
 4    1  0.1956390E-002  0.9118800E+02  0.7818608E-02  0.1130116E+00
         25   -1    0    0    0    0  0.00000000000E+00  0.00000000000E+00  0.99999998245E-14  0.12500000000E+03  0.12500000000E+03 0.  0.
        -11    1    1    0    0    0  0.31354718790E+02  0.11939674427E+02 -0.15542826841E+02  0.36976393581E+02  0.51100000000E-03 0.  1.
         11    1    1    0    0    0  0.21541193440E+02  0.83736116590E+01 -0.10831688082E+02  0.25523829141E+02  0.51100000000E-03 0. -1.
         22    1    1    0    0    0 -0.52895912231E+02 -0.20313286086E+02  0.26374514923E+02  0.62499777277E+02  0.00000000000E+00 0. -1.
</event>
<event>
 4    1  0.1956390E-002  0.9118800E+02  0.7818608E-02  0.1130116E+00
         25   -1    0    0    0    0  0.00000000000E+00  0.00000000000E+00  0.99999998245E-14  0.12500000000E+03  0.12500000000E+03 0.  0.
        -11    1    1    0    0    0 -0.37236669481E+01 -0.55141786809E+01 -0.24969301394E+02  0.25840624498E+02  0.51100000000E-03 0.  1.
         11    1    1    0    0    0 -0.51522253689E+01 -0.78844034737E+01 -0.35428870654E+02  0.36659434263E+02  0.51100000000E-03 0. -1.
         22    1    1    0    0    0  0.88758923170E+01  0.13398582155E+02  0.60398172048E+02  0.62499941239E+02  0.00000000000E+00 0.  1.
</event>
<event>
 4    1  0.1956390E-002  0.9118800E+02  0.7818608E-02  0.1130116E+00
         25   -1    0    0    0    0  0.00000000000E+00  0.00000000000E+00  0.99999998245E-14  0.12500000000E+03  0.12500000000E+03 0.  0.
        -11    1    1    0    0    0 -0.12218007150E+02 -0.11936205849E+02  0.16361498140E+02  0.23652723531E+02  0.51100000000E-03 0. -1.
         11    1    1    0    0    0  0.23184150338E+01  0.19350281027E+02  0.39546374072E+02  0.44087686791E+02  0.51100000000E-03 0.  1.
         22    1    1    0    0    0  0.98995921166E+01 -0.74140751778E+01 -0.55907872212E+02  0.57259589678E+02  0.00000000000E+00 0. -1.
</event>
<event>
 4    1  0.1956390E-002  0.9118800E+02  0.7818608E-02  0.1130116E+00
         25   -1    0    0    0    0  0.00000000000E+00  0.00000000000E+00  0.99999998245E-14  0.12500000000E+03  0.12500000000E+03 0.  0.
        -11    1    1    0    0    0 -0.18578981623E+00 -0.10495715264E+02  0.58533675392E+01  0.12019004475E+02  0.51100000000E-03 0. -1.
         11    1    1    0    0    0 -0.73797508859E+00 -0.44079884748E+02  0.24591670158E+02  0.50480997296E+02  0.51100000000E-03 0.  1.
         22    1    1    0    0    0  0.92376490483E+00  0.54575600012E+02 -0.30445037697E+02  0.62499998229E+02  0.00000000000E+00 0.  1.
</event>
<event>
 4    1  0.1956390E-002  0.9118800E+02  0.7818608E-02  0.1130116E+00
         25   -1    0    0    0    0  0.00000000000E+00  0.00000000000E+00  0.99999998245E-14  0.12500000000E+03  0.12500000000E+03 0.  0.
        -11    1    1    0    0    0 -0.13942022365E+01  0.26970267481E+00 -0.22796393068E+00  0.14382305879E+01  0.51100000000E-03 0.  1.
         11    1    1    0    0    0 -0.58481432483E+02  0.12909171107E+02 -0.11912294339E+02  0.61062487672E+02  0.51100000000E-03 0. -1.
         22    1    1    0    0    0  0.59875634720E+02 -0.13178873782E+02  0.12140258270E+02  0.62499281741E+02  0.00000000000E+00 0. -1.
</event>
<event>
 4    1  0.1956390E-002  0.9118800E+02  0.7818608E-02  0.1130116E+00
         25   -1    0    0    0    0  0.00000000000E+00  0.00000000000E+00  0.99999998245E-14  0.12500000000E+03  0.12500000000E+03 0.  0.
        -11    1    1    0    0    0  0.25221814908E+01  0.49432002522E+00  0.75351962478E+01  0.79614656008E+01  0.51100000000E-03 0.  1.
         11    1    1    0    0    0  0.16348522266E+02  0.25864100587E+01  0.51967215872E+02  0.54539483157E+02  0.51100000000E-03 0. -1.
         22    1    1    0    0    0 -0.18870703756E+02 -0.30807300839E+01 -0.59502412120E+02  0.62499051242E+02  0.00000000000E+00 0. -1.
</event>
<event>
 4    1  0.1956390E-002  0.9118800E+02  0.7818608E-02  0.1130116E+00
         25   -1    0    0    0    0  0.00000000000E+00  0.00000000000E+00  0.99999998245E-14  0.12500000000E+03  0.12500000000E+03 0.  0.
        -11    1    1    0    0    0 -0.13317981215E+01  0.83061347670E+01 -0.18258840045E+01  0.86081016294E+01  0.51100000000E-03 0. -1.
         11    1    1    0    0    0 -0.76011746388E+01  0.52196586215E+02 -0.11051026591E+02  0.53892361772E+02  0.51100000000E-03 0.  1.
         22    1    1    0    0    0  0.89329727603E+01 -0.60502720982E+02  0.12876910596E+02  0.62499536599E+02  0.00000000000E+00 0.  1.
</event>
<event>
 4    1  0.1956390E-002  0.9118800E+02  0.7818608E-02  0.1130116E+00
         25   -1    0    0    0    0  0.00000000000E+00  0.00000000000E+00  0.99999998245E-14  0.12500000000E+03  0.12500000000E+03 0.  0.
        -11    1    1    0    0    0  0.17128368635E+02 -0.11317568540E+01 -0.20885957019E+02  0.27034886471E+02  0.51100000000E-03 0. -1.
         11    1    1    0    0    0  0.23124886797E+02 -0.17485749398E+01 -0.26835294312E+02  0.35467603877E+02  0.51100000000E-03 0.  1.
         22    1    1    0    0    0 -0.40253255432E+02  0.28803317937E+01  0.47721251331E+02  0.62497509652E+02  0.00000000000E+00 0. -1.
</event>
<event>
 4    1  0.1956390E-002  0.9118800E+02  0.7818608E-02  0.1130116E+00
         25   -1    0    0    0    0  0.00000000000E+00  0.00000000000E+00  0.99999998245E-14  0.12500000000E+03  0.12500000000E+03 0.  0.
        -11    1    1    0    0    0  0.28690524843E+02  0.24248497766E+02  0.12098997320E+02  0.39465448129E+02  0.51100000000E-03 0.  1.
         11    1    1    0    0    0  0.17024522879E+02  0.13679890519E+02  0.73304029572E+01  0.23037113353E+02  0.51100000000E-03 0. -1.
         22    1    1    0    0    0 -0.45715047722E+02 -0.37928388284E+02 -0.19429400277E+02  0.62497438517E+02  0.00000000000E+00 0.  1.
</event>
<event>
 4    1  0.1956390E-002  0.9118800E+02  0.7818608E-02  0.1130116E+00
         25   -1    0    0    0    0  0.00000000000E+00  0.00000000000E+00  0.99999998245E-14  0.12500000000E+03  0.12500000000E+03 0.  0.
        -11    1    1    0    0    0  0.36641297123E+02  0.26411489988E+02 -0.37658669997E+02  0.58807541051E+02  0.51100000000E-03 0. -1.
         11    1    1    0    0    0  0.26532542256E+01  0.16276657614E+01 -0.20153479789E+01  0.37081911431E+01  0.51100000000E-03 0.  1.
         22    1    1    0    0    0 -0.39294551349E+02 -0.28039155749E+02  0.39674017976E+02  0.62484267806E+02  0.00000000000E+00 0. -1.
</event>
<event>
 4    1  0.1956390E-002  0.9118800E+02  0.7818608E-02  0.1130116E+00
         25   -1    0    0    0    0  0.00000000000E+00  0.00000000000E+00  0.99999998245E-14  0.12500000000E+03  0.12500000000E+03 0.  0.
        -11    1    1    0    0    0  0.57706964176E-01  0.67315848078E+00 -0.10555613761E+00  0.68382365656E+00  0.51100000000E-03 0. -1.
         11    1    1    0    0    0 -0.13386440852E+02  0.54916657144E+02  0.25197151957E+02  0.61886448416E+02  0.51100000000E-03 0.  1.
         22    1    1    0    0    0  0.13328733888E+02 -0.55589815625E+02 -0.25091595820E+02  0.62429727927E+02  0.00000000000E+00 0.  1.
</event>
<event>
 4    1  0.1956390E-002  0.9118800E+02  0.7818608E-02  0.1130116E+00
         25   -1    0    0    0    0  0.00000000000E+00  0.00000000000E+00  0.99999998245E-14  0.12500000000E+03  0.12500000000E+03 0.  0.
        -11    1    1    0    0    0  0.48192769041E+01  0.10747587233E+02  0.44776183712E+01  0.12600997094E+02  0.51100000000E-03 0.  1.
         11    1    1    0    0    0 -0.19567474093E+01  0.48549526584E+02 -0.17458410886E+02  0.51630238261E+02  0.51100000000E-03 0. -1.
         22    1    1    0    0    0 -0.28625294949E+01 -0.59297113817E+02  0.12980792515E+02  0.60768764645E+02  0.00000000000E+00 0. -1.
</event>
<event>
 4    1  0.1956390E-002  0.9118800E+02  0.7818608E-02  0.1130116E+00
         25   -1    0    0    0    0  0.00000000000E+00  0.00000000000E+00  0.99999998245E-14  0.12500000000E+03  0.12500000000E+03 0.  0.
        -11    1    1    0    0    0  0.52231055708E+02  0.75833549993E+01  0.31227050019E+02  0.61324702255E+02  0.51100000000E-03 0. -1.
         11    1    1    0    0    0  0.12323927616E+01  0.65696233128E+00 -0.85076026823E+00  0.16352934656E+01  0.51100000000E-03 0.  1.
         22    1    1    0    0    0 -0.53463448470E+02 -0.82403173306E+01 -0.30376289751E+02  0.62040004280E+02  0.00000000000E+00 0. -1.
</event>
<event>
 4    1  0.1956390E-002  0.9118800E+02  0.7818608E-02  0.1130116E+00
         25   -1    0    0    0    0  0.00000000000E+00  0.00000000000E+00  0.99999998245E-14  0.12500000000E+03  0.12500000000E+03 0.  0.
        -11    1    1    0    0    0  0.82832153705E+01  0.31108723327E+02 -0.42680197833E+02  0.53459925283E+02  0.51100000000E-03 0. -1.
         11    1    1    0    0    0  0.15818656471E+01  0.53174006050E+01 -0.71389039792E+01  0.90410728570E+01  0.51100000000E-03 0.  1.
         22    1    1    0    0    0 -0.98650810176E+01 -0.36426123932E+02  0.49819101812E+02  0.62499001860E+02  0.00000000000E+00 0. -1.
</event>
<event>
 4    1  0.1956390E-002  0.9118800E+02  0.7818608E-02  0.1130116E+00
         25   -1    0    0    0    0  0.00000000000E+00  0.00000000000E+00  0.99999998245E-14  0.12500000000E+03  0.12500000000E+03 0.  0.
        -11    1    1    0    0    0 -0.72734163250E+01 -0.21769123654E+01  0.36283170085E+01  0.84146430143E+01  0.51100000000E-03 0. -1.
         11    1    1    0    0    0 -0.46763935806E+02 -0.15416994799E+02  0.22380185384E+02  0.54087171481E+02  0.51100000000E-03 0.  1.
         22    1    1    0    0    0  0.54037352131E+02  0.17593907165E+02 -0.26008502393E+02  0.62498185505E+02  0.00000000000E+00 0.  1.
</event>
<event>
 4    1  0.1956390E-002  0.9118800E+02  0.7818608E-02  0.1130116E+00
         25   -1    0    0    0    0  0.00000000000E+00  0.00000000000E+00  0.99999998245E-14  0.12500000000E+03  0.12500000000E+03 0.  0.
        -11    1    1    0    0    0 -0.31100243486E+01 -0.36417990651E+02  0.36114544858E+02  0.51382902264E+02  0.51100000000E-03 0. -1.
         11    1    1    0    0    0  0.34186286116E+01 -0.95059747643E+01  0.56213761537E+01  0.11560728694E+02  0.51100000000E-03 0.  1.
         22    1    1    0    0    0 -0.30860426302E+00  0.45923965415E+02 -0.41735921012E+02  0.62056369043E+02  0.00000000000E+00 0. -1.
</event>
<event>
 4    1  0.1956390E-002  0.9118800E+02  0.7818608E-02  0.1130116E+00
         25   -1    0    0    0    0  0.00000000000E+00  0.00000000000E+00  0.99999998245E-14  0.12500000000E+03  0.12500000000E+03 0.  0.
        -11    1    1    0    0    0 -0.21192144592E+02 -0.43150322359E+02 -0.11249608484E+02  0.49372168308E+02  0.51100000000E-03 0.  1.
         11    1    1    0    0    0 -0.56297222431E+01 -0.11475605718E+02 -0.29927711297E+01  0.13127832206E+02  0.51100000000E-03 0. -1.
         22    1    1    0    0    0  0.26821866835E+02  0.54625928077E+02  0.14242379613E+02  0.62499999487E+02  0.00000000000E+00 0.  1.
</event>
<event>
 4    1  0.1956390E-002  0.9118800E+02  0.7818608E-02  0.1130116E+00
         25   -1    0    0    0    0  0.00000000000E+00  0.00000000000E+00  0.99999998245E-14  0.12500000000E+03  0.12500000000E+03 0.  0.
        -11    1    1    0    0    0 -0.48447373522E+02 -0.12779257262E+02 -0.24970125076E+02  0.55981823514E+02  0.51100000000E-03 0. -1.
         11    1    1    0    0    0 -0.56408068543E+01 -0.14878371999E+01 -0.29076215589E+01  0.65181765005E+01  0.51100000000E-03 0.  1.
         22    1    1    0    0    0  0.54088180376E+02  0.14267094462E+02  0.27877746635E+02  0.62499999986E+02  0.00000000000E+00 0. -1.
</event>
<event>
 4    1  0.1956390E-002  0.9118800E+02  0.7818608E-02  0.1130116E+00
         25   -1    0    0    0    0  0.00000000000E+00  0.00000000000E+00  0.99999998245E-14  0.12500000000E+03  0.12500000000E+03 0.  0.
        -11    1    1    0    0    0  0.14471057150E+02 -0.67698576170E+01  0.10836901998E+01  0.16013021323E+02  0.51100000000E-03 0. -1.
         11    1    1    0    0    0  0.41731781743E+02 -0.20247684381E+02  0.30958646355E+01  0.46487575849E+02  0.51100000000E-03 0.  1.
         22    1    1    0    0    0 -0.56202838893E+02  0.27017541998E+02 -0.41795548353E+01  0.62499402828E+02  0.00000000000E+00 0.  1.
</event>
<event>
 4    1  0.1956390E-002  0.9118800E+02  0.7818608E-02  0.1130116E+00
         25   -1    0    0    0    0  0.00000000000E+00  0.00000000000E+00  0.99999998245E-14  0.12500000000E+03  0.12500000000E+03 0.  0.
        -11    1    1    0    0    0 -0.14792162967E+02 -0.39957582239E+02  0.13602687710E+02  0.44726385689E+02  0.51100000000E-03 0.  1.
         11    1    1    0    0    0 -0.58791825436E+01 -0.15878877871E+02  0.54035004956E+01  0.17773614368E+02  0.51100000000E-03 0. -1.
         22    1    1    0    0    0  0.20671345511E+02  0.55836460110E+02 -0.19006188205E+02  0.62499999943E+02  0.00000000000E+00 0. -1.
</event>
<event>
 4    1  0.1956390E-002  0.9118800E+02  0.7818608E-02  0.1130116E+00
         25   -1    0    0    0    0  0.00000000000E+00  0.00000000000E+00  0.99999998245E-14  0.12500000000E+03  0.12500000000E+03 0.  0.
        -11    1    1    0    0    0 -0.15606236007E+01 -0.72242953731E+00 -0.30738539524E+01  0.35222193063E+01  0.51100000000E-03 0. -1.
         11    1    1    0    0    0 -0.26212462528E+02 -0.12090175089E+02 -0.51430665175E+02  0.58977782648E+02  0.51100000000E-03 0.  1.
         22    1    1    0    0    0  0.27773086129E+02  0.12812604627E+02  0.54504519127E+02  0.62499998046E+02  0.00000000000E+00 0.  1.
</event>
<event>
 4    1  0.1956390E-002  0.9118800E+02  0.7818608E-02  0.1130116E+00
         25   -1    0    0    0    0  0.00000000000E+00  0.00000000000E+00  0.99999998245E-14  0.12500000000E+03  0.12500000000E+03 0.  0.
        -11    1    1    0    0    0 -0.50216219704E+02  0.35857554884E+02  0.59377954919E+01  0.61989437642E+02  0.51100000000E-03 0.  1.
         11    1    1    0    0    0 -0.41340857858E+00  0.29562290663E+00  0.48726904642E-01  0.51056256044E+00  0.51100000000E-03 0. -1.
         22    1    1    0    0    0  0.50629628282E+02 -0.36153177790E+02 -0.59865223966E+01  0.62499999798E+02  0.00000000000E+00 0.  1.
</event>
<event>
 4    1  0.1956390E-002  0.9118800E+02  0.7818608E-02  0.1130116E+00
         25   -1    0    0    0    0  0.00000000000E+00  0.00000000000E+00  0.99999998245E-14  0.12500000000E+03  0.12500000000E+03 0.  0.
        -11    1    1    0    0    0 -0.87945268206E+01  0.36746874427E+01  0.79117572777E+01  0.12387208454E+02  0.51100000000E-03 0. -1.
         11    1    1    0    0    0 -0.35582213121E+02  0.14863804818E+02  0.32004144974E+02  0.50112791581E+02  0.51100000000E-03 0.  1.
         22    1    1    0    0    0  0.44376739941E+02 -0.18538492261E+02 -0.39915902252E+02  0.62499999965E+02  0.00000000000E+00 0.  1.
</event>
<event>
 4    1  0.1956390E-002  0.9118800E+02  0.7818608E-02  0.1130116E+00
         25   -1    0    0    0    0  0.00000000000E+00  0.00000000000E+00  0.99999998245E-14  0.12500000000E+03  0.12500000000E+03 0.  0.
        -11    1    1    0    0    0 -0.98363286115E+01 -0.32462089390E+02 -0.19713316651E+02  0.39232071852E+02  0.51100000000E-03 0. -1.
         11    1    1    0    0    0 -0.59779167063E+01 -0.20108588235E+02 -0.10115442030E+02  0.23289761199E+02  0.51100000000E-03 0.  1.
         22    1    1    0    0    0  0.15814245318E+02  0.52570677626E+02  0.29828758681E+02  0.62478166950E+02  0.00000000000E+00 0. -1.
</event>
<event>
 4    1  0.1956390E-002  0.9118800E+02  0.7818608E-02  0.1130116E+00
         25   -1    0    0    0    0  0.00000000000E+00  0.00000000000E+00  0.99999998245E-14  0.12500000000E+03  0.12500000000E+03 0.  0.
        -11    1    1    0    0    0  0.55835036215E+00  0.57965527657E+00  0.17154335519E-03  0.80483268890E+00  0.51100000000E-03 0.  1.
         11    1    1    0    0    0 -0.15246327455E+02  0.33127575763E+02 -0.50152028022E+02  0.62008972672E+02  0.51100000000E-03 0. -1.
         22    1    1    0    0    0  0.14687977093E+02 -0.33707231039E+02  0.50151856479E+02  0.62186194639E+02  0.00000000000E+00 0. -1.
</event>
<event>
 4    1  0.1956390E-002  0.9118800E+02  0.7818608E-02  0.1130116E+00
         25   -1    0    0    0    0  0.00000000000E+00  0.00000000000E+00  0.99999998245E-14  0.12500000000E+03  0.12500000000E+03 0.  0.
        -11    1    1    0    0    0 -0.24364579566E+02 -0.30856525103E+02 -0.17586955794E+02  0.43070394626E+02  0.51100000000E-03 0.  1.
         11    1    1    0    0    0 -0.11139047377E+02 -0.13538369017E+02 -0.83827742797E+01  0.19432877219E+02  0.51100000000E-03 0. -1.
         22    1    1    0    0    0  0.35503626943E+02  0.44394894120E+02  0.25969730074E+02  0.62496728156E+02  0.00000000000E+00 0.  1.
</event>
<event>
 4    1  0.1956390E-002  0.9118800E+02  0.7818608E-02  0.1130116E+00
         25   -1    0    0    0    0  0.00000000000E+00  0.00000000000E+00  0.99999998245E-14  0.12500000000E+03  0.12500000000E+03 0.  0.
        -11    1    1    0    0    0 -0.27233080561E+02 -0.32353244469E+00 -0.41447567630E+02  0.49594820423E+02  0.51100000000E-03 0.  1.
         11    1    1    0    0    0 -0.70417008116E+01 -0.14673237934E+00 -0.10813845275E+02  0.12905283050E+02  0.51100000000E-03 0. -1.
         22    1    1    0    0    0  0.34274781373E+02  0.47026482403E+00  0.52261412904E+02  0.62499896527E+02  0.00000000000E+00 0.  1.
</event>
<event>
 4    1  0.1956390E-002  0.9118800E+02  0.7818608E-02  0.1130116E+00
         25   -1    0    0    0    0  0.00000000000E+00  0.00000000000E+00  0.99999998245E-14  0.12500000000E+03  0.12500000000E+03 0.  0.
        -11    1    1    0    0    0 -0.99448835197E+00  0.13450337079E+02  0.57428460644E+01  0.14658814952E+02  0.51100000000E-03 0.  1.
         11    1    1    0    0    0 -0.32508578817E+01  0.43898933768E+02  0.18737516665E+02  0.47841185123E+02  0.51100000000E-03 0. -1.
         22    1    1    0    0    0  0.42453462337E+01 -0.57349270847E+02 -0.24480362730E+02  0.62499999925E+02  0.00000000000E+00 0. -1.
</event>
<event>
 4    1  0.1956390E-002  0.9118800E+02  0.7818608E-02  0.1130116E+00
         25   -1    0    0    0    0  0.00000000000E+00  0.00000000000E+00  0.99999998245E-14  0.12500000000E+03  0.12500000000E+03 0.  0.
        -11    1    1    0    0    0 -0.10113204547E+02  0.19948801874E+02  0.89593060640E+01  0.24093583541E+02  0.51100000000E-03 0. -1.
         11    1    1    0    0    0 -0.16585847214E+02  0.31568334462E+02  0.14263757093E+02  0.38407093553E+02  0.51100000000E-03 0.  1.
         22    1    1    0    0    0  0.26699051762E+02 -0.51517136336E+02 -0.23223063157E+02  0.62499322906E+02  0.00000000000E+00 0. -1.
</event>
<event>
 4    1  0.1956390E-002  0.9118800E+02  0.7818608E-02  0.1130116E+00
         25   -1    0    0    0    0  0.00000000000E+00  0.00000000000E+00  0.99999998245E-14  0.12500000000E+03  0.12500000000E+03 0.  0.
        -11    1    1    0    0    0 -0.10733300049E+02 -0.16990743804E+01  0.11712367182E+02  0.15977175250E+02  0.51100000000E-03 0. -1.
         11    1    1    0    0    0 -0.31268893470E+02 -0.49574795620E+01  0.34088898404E+02  0.46522825550E+02  0.51100000000E-03 0.  1.
         22    1    1    0    0    0  0.42002193519E+02  0.66565539424E+01 -0.45801265586E+02  0.62499999201E+02  0.00000000000E+00 0.  1.
</event>
<event>
 4    1  0.1956390E-002  0.9118800E+02  0.7818608E-02  0.1130116E+00
         25   -1    0    0    0    0  0.00000000000E+00  0.00000000000E+00  0.99999998245E-14  0.12500000000E+03  0.12500000000E+03 0.  0.
        -11    1    1    0    0    0  0.14137103631E+02  0.18339309877E+02 -0.10934478348E+01  0.23181536064E+02  0.51100000000E-03 0. -1.
         11    1    1    0    0    0  0.23976468485E+02  0.31106459982E+02 -0.18597629957E+01  0.39318464012E+02  0.51100000000E-03 0.  1.
         22    1    1    0    0    0 -0.38113572116E+02 -0.49445769859E+02  0.29532108305E+01  0.62499999924E+02  0.00000000000E+00 0. -1.
</event>
<event>
 4    1  0.1956390E-002  0.9118800E+02  0.7818608E-02  0.1130116E+00
         25   -1    0    0    0    0  0.00000000000E+00  0.00000000000E+00  0.99999998245E-14  0.12500000000E+03  0.12500000000E+03 0.  0.
        -11    1    1    0    0    0 -0.10418221311E+01  0.32551883200E+02  0.46119963753E+01  0.32893479659E+02  0.51100000000E-03 0.  1.
         11    1    1    0    0    0 -0.25810996669E+01  0.29304728309E+02  0.34575017536E+01  0.29620659942E+02  0.51100000000E-03 0. -1.
         22    1    1    0    0    0  0.36229217980E+01 -0.61856611509E+02 -0.80694981290E+01  0.62485860399E+02  0.00000000000E+00 0.  1.
</event>
<event>
 4    1  0.1956390E-002  0.9118800E+02  0.7818608E-02  0.1130116E+00
         25   -1    0    0    0    0  0.00000000000E+00  0.00000000000E+00  0.99999998245E-14  0.12500000000E+03  0.12500000000E+03 0.  0.
        -11    1    1    0    0    0 -0.53488567887E+01  0.28973582315E+02  0.12026984517E+02  0.31823373453E+02  0.51100000000E-03 0. -1.
         11    1    1    0    0    0 -0.51213294842E+01  0.27971602198E+02  0.11507368190E+02  0.30676669769E+02  0.51100000000E-03 0.  1.
         22    1    1    0    0    0  0.10470186273E+02 -0.56945184513E+02 -0.23534352708E+02  0.62499956777E+02  0.00000000000E+00 0. -1.
</event>
<event>
 4    1  0.1956390E-002  0.9118800E+02  0.7818608E-02  0.1130116E+00
         25   -1    0    0    0    0  0.00000000000E+00  0.00000000000E+00  0.99999998245E-14  0.12500000000E+03  0.12500000000E+03 0.  0.
        -11    1    1    0    0    0 -0.16350524547E+02 -0.13869228088E+01  0.44001460556E+02  0.46961598558E+02  0.51100000000E-03 0.  1.
         11    1    1    0    0    0 -0.54293301594E+01 -0.45833447272E+00  0.14551782814E+02  0.15538406605E+02  0.51100000000E-03 0. -1.
         22    1    1    0    0    0  0.21779854707E+02  0.18452572815E+01 -0.58553243370E+02  0.62499994837E+02  0.00000000000E+00 0.  1.
</event>
<event>
 4    1  0.1956390E-002  0.9118800E+02  0.7818608E-02  0.1130116E+00
         25   -1    0    0    0    0  0.00000000000E+00  0.00000000000E+00  0.99999998245E-14  0.12500000000E+03  0.12500000000E+03 0.  0.
        -11    1    1    0    0    0  0.10446454810E+01  0.47427150615E+01  0.12529870809E+01  0.50154368924E+01  0.51100000000E-03 0. -1.
         11    1    1    0    0    0  0.11767316318E+02  0.54352677477E+02  0.14553174814E+02  0.57484590802E+02  0.51100000000E-03 0.  1.
         22    1    1    0    0    0 -0.12811961799E+02 -0.59095392538E+02 -0.15806161895E+02  0.62499972306E+02  0.00000000000E+00 0.  1.
</event>
<event>
 4    1  0.1956390E-002  0.9118800E+02  0.7818608E-02  0.1130116E+00
         25   -1    0    0    0    0  0.00000000000E+00  0.00000000000E+00  0.99999998245E-14  0.12500000000E+03  0.12500000000E+03 0.  0.
        -11    1    1    0    0    0 -0.21273112378E+01  0.60710252329E+01  0.36518509585E+01  0.73972167850E+01  0.51100000000E-03 0.  1.
         11    1    1    0    0    0 -0.25465286852E+02  0.12220830583E+02  0.48327468284E+02  0.55976546210E+02  0.51100000000E-03 0. -1.
         22    1    1    0    0    0  0.27592598089E+02 -0.18291855816E+02 -0.51979319242E+02  0.61626237005E+02  0.00000000000E+00 0. -1.
</event>
<event>
 4    1  0.1956390E-002  0.9118800E+02  0.7818608E-02  0.1130116E+00
         25   -1    0    0    0    0  0.00000000000E+00  0.00000000000E+00  0.99999998245E-14  0.12500000000E+03  0.12500000000E+03 0.  0.
        -11    1    1    0    0    0 -0.82409247573E+01  0.64686313169E+01  0.34860859466E+01  0.11041233059E+02  0.51100000000E-03 0. -1.
         11    1    1    0    0    0 -0.37483212995E+02  0.30744530943E+02  0.17262248053E+02  0.51460690312E+02  0.51100000000E-03 0.  1.
         22    1    1    0    0    0  0.45724137752E+02 -0.37213162260E+02 -0.20748334000E+02  0.62498076629E+02  0.00000000000E+00 0.  1.
</event>
<event>
 4    1  0.1956390E-002  0.9118800E+02  0.7818608E-02  0.1130116E+00
         25   -1    0    0    0    0  0.00000000000E+00  0.00000000000E+00  0.99999998245E-14  0.12500000000E+03  0.12500000000E+03 0.  0.
        -11    1    1    0    0    0 -0.19718343005E+02  0.51739594433E+02 -0.44861986201E+01  0.55551099550E+02  0.51100000000E-03 0.  1.
         11    1    1    0    0    0 -0.24607105315E+01  0.64757480047E+01 -0.54492870757E+00  0.69489104252E+01  0.51100000000E-03 0. -1.
         22    1    1    0    0    0  0.22179053537E+02 -0.58215342437E+02  0.50311273277E+01  0.62499990025E+02  0.00000000000E+00 0.  1.
</event>
<event>
 4    1  0.1956390E-002  0.9118800E+02  0.7818608E-02  0.1130116E+00
         25   -1    0    0    0    0  0.00000000000E+00  0.00000000000E+00  0.99999998245E-14  0.12500000000E+03  0.12500000000E+03 0.  0.
        -11    1    1    0    0    0 -0.40606492443E+01 -0.10139790673E+02 -0.67139394774E+01  0.12821123615E+02  0.51100000000E-03 0.  1.
         11    1    1    0    0    0 -0.15708726294E+02 -0.39321581419E+02 -0.25981535738E+02  0.49678879281E+02  0.51100000000E-03 0. -1.
         22    1    1    0    0    0  0.19769375538E+02  0.49461372092E+02  0.32695475215E+02  0.62499997104E+02  0.00000000000E+00 0. -1.
</event>
<event>
 4    1  0.1956390E-002  0.9118800E+02  0.7818608E-02  0.1130116E+00
         25   -1    0    0    0    0  0.00000000000E+00  0.00000000000E+00  0.99999998245E-14  0.12500000000E+03  0.12500000000E+03 0.  0.
        -11    1    1    0    0    0  0.36128099657E+01 -0.36592606631E+02 -0.71036351702E+01  0.37450405723E+02  0.51100000000E-03 0. -1.
         11    1    1    0    0    0  0.24152737066E+01 -0.24475988426E+02 -0.47512753445E+01  0.25049594291E+02  0.51100000000E-03 0.  1.
         22    1    1    0    0    0 -0.60280836723E+01  0.61068595057E+02  0.11854910515E+02  0.62499999986E+02  0.00000000000E+00 0. -1.
</event>
<event>
 4    1  0.1956390E-002  0.9118800E+02  0.7818608E-02  0.1130116E+00
         25   -1    0    0    0    0  0.00000000000E+00  0.00000000000E+00  0.99999998245E-14  0.12500000000E+03  0.12500000000E+03 0.  0.
        -11    1    1    0    0    0 -0.12838553855E+02  0.23910269776E+02 -0.48207348957E+02  0.55321586741E+02  0.51100000000E-03 0.  1.
         11    1    1    0    0    0 -0.16654502509E+01  0.31021255303E+01 -0.62556142525E+01  0.71784132844E+01  0.51100000000E-03 0. -1.
         22    1    1    0    0    0  0.14504004106E+02 -0.27012395306E+02  0.54462963209E+02  0.62499999975E+02  0.00000000000E+00 0.  1.
</event>
<event>
 4    1  0.1956390E-002  0.9118800E+02  0.7818608E-02  0.1130116E+00
         25   -1    0    0    0    0  0.00000000000E+00  0.00000000000E+00  0.99999998245E-14  0.12500000000E+03  0.12500000000E+03 0.  0.
        -11    1    1    0    0    0  0.67649089914E+01 -0.21674339504E+02 -0.48636484527E+02  0.53675400455E+02  0.51100000000E-03 0. -1.
         11    1    1    0    0    0  0.11280818950E+01 -0.35868796941E+01 -0.79834639431E+01  0.88246230227E+01  0.51100000000E-03 0.  1.
         22    1    1    0    0    0 -0.78929908865E+01  0.25261219198E+02  0.56619948470E+02  0.62499976522E+02  0.00000000000E+00 0. -1.
</event>
<event>
 4    1  0.1956390E-002  0.9118800E+02  0.7818608E-02  0.1130116E+00
         25   -1    0    0    0    0  0.00000000000E+00  0.00000000000E+00  0.99999998245E-14  0.12500000000E+03  0.12500000000E+03 0.  0.
        -11    1    1    0    0    0 -0.85645941685E+01  0.31371027599E+01  0.10603250510E+01  0.91824820431E+01  0.51100000000E-03 0. -1.
         11    1    1    0    0    0 -0.49716816509E+02  0.18248711494E+02  0.61628324188E+01  0.53317518872E+02  0.51100000000E-03 0.  1.
         22    1    1    0    0    0  0.58281410677E+02 -0.21385814254E+02 -0.72231574697E+01  0.62499999085E+02  0.00000000000E+00 0.  1.
</event>
<event>
 4    1  0.1956390E-002  0.9118800E+02  0.7818608E-02  0.1130116E+00
         25   -1    0    0    0    0  0.00000000000E+00  0.00000000000E+00  0.99999998245E-14  0.12500000000E+03  0.12500000000E+03 0.  0.
        -11    1    1    0    0    0 -0.10007066283E+01  0.40303526989E+00  0.12129309859E+01  0.16232846400E+01  0.51100000000E-03 0.  1.
         11    1    1    0    0    0 -0.37495741618E+02  0.15369999057E+02  0.45429152227E+02  0.60876722833E+02  0.51100000000E-03 0. -1.
         22    1    1    0    0    0  0.38496448246E+02 -0.15773034327E+02 -0.46642083213E+02  0.62499992527E+02  0.00000000000E+00 0. -1.
</event>
<event>
 4    1  0.1956390E-002  0.9118800E+02  0.7818608E-02  0.1130116E+00
         25   -1    0    0    0    0  0.00000000000E+00  0.00000000000E+00  0.99999998245E-14  0.12500000000E+03  0.12500000000E+03 0.  0.
        -11    1    1    0    0    0 -0.14772168048E+02 -0.42417957040E+01  0.13170250134E+02  0.20240189438E+02  0.51100000000E-03 0.  1.
         11    1    1    0    0    0 -0.30844855962E+02 -0.88562119348E+01  0.27496435422E+02  0.42259810581E+02  0.51100000000E-03 0. -1.
         22    1    1    0    0    0  0.45617024010E+02  0.13098007639E+02 -0.40666685556E+02  0.62499999982E+02  0.00000000000E+00 0. -1.
</event>
<event>
 4    1  0.1956390E-002  0.9118800E+02  0.7818608E-02  0.1130116E+00
         25   -1    0    0    0    0  0.00000000000E+00  0.00000000000E+00  0.99999998245E-14  0.12500000000E+03  0.12500000000E+03 0.  0.
        -11    1    1    0    0    0 -0.11111824554E+02  0.42835770839E+02 -0.22543829671E+02  0.49664878584E+02  0.51100000000E-03 0. -1.
         11    1    1    0    0    0 -0.15617873997E+01  0.12179179761E+02 -0.40495047680E+01  0.12929427236E+02  0.51100000000E-03 0.  1.
         22    1    1    0    0    0  0.12673611953E+02 -0.55014950600E+02  0.26593334439E+02  0.62405694180E+02  0.00000000000E+00 0. -1.
</event>
<event>
 4    1  0.1956390E-002  0.9118800E+02  0.7818608E-02  0.1130116E+00
         25   -1    0    0    0    0  0.00000000000E+00  0.00000000000E+00  0.99999998245E-14  0.12500000000E+03  0.12500000000E+03 0.  0.
        -11    1    1    0    0    0  0.36671935364E+02 -0.29341600691E+02  0.57896140171E+01  0.47321031320E+02  0.51100000000E-03 0. -1.
         11    1    1    0    0    0  0.11768203791E+02 -0.94086199359E+01  0.18407756981E+01  0.15178972462E+02  0.51100000000E-03 0.  1.
         22    1    1    0    0    0 -0.48440139155E+02  0.38750220627E+02 -0.76303897152E+01  0.62499996218E+02  0.00000000000E+00 0. -1.
</event>
<event>
 4    1  0.1956390E-002  0.9118800E+02  0.7818608E-02  0.1130116E+00
         25   -1    0    0    0    0  0.00000000000E+00  0.00000000000E+00  0.99999998245E-14  0.12500000000E+03  0.12500000000E+03 0.  0.
        -11    1    1    0    0    0  0.53972656568E+02  0.68359192613E+01  0.73295053183E+01  0.54895346776E+02  0.51100000000E-03 0.  1.
         11    1    1    0    0    0  0.37112210532E+01 -0.76839578860E+01 -0.89842063792E+01  0.12390816560E+02  0.51100000000E-03 0. -1.
         22    1    1    0    0    0 -0.57683877621E+02  0.84803862468E+00  0.16547010609E+01  0.57713836664E+02  0.00000000000E+00 0.  1.
</event>
<event>
 4    1  0.1956390E-002  0.9118800E+02  0.7818608E-02  0.1130116E+00
         25   -1    0    0    0    0  0.00000000000E+00  0.00000000000E+00  0.99999998245E-14  0.12500000000E+03  0.12500000000E+03 0.  0.
        -11    1    1    0    0    0  0.35784571528E+02 -0.11423618139E+02  0.41770363723E+02  0.56176488824E+02  0.51100000000E-03 0. -1.
         11    1    1    0    0    0 -0.94676731857E+01 -0.28459654973E+01 -0.37259755950E+02  0.38549004772E+02  0.51100000000E-03 0.  1.
         22    1    1    0    0    0 -0.26316898342E+02  0.14269583636E+02 -0.45106077726E+01  0.30274506404E+02  0.00000000000E+00 0. -1.
</event>
<event>
 4    1  0.1956390E-002  0.9118800E+02  0.7818608E-02  0.1130116E+00
         25   -1    0    0    0    0  0.00000000000E+00  0.00000000000E+00  0.99999998245E-14  0.12500000000E+03  0.12500000000E+03 0.  0.
        -11    1    1    0    0    0 -0.10902533366E+02  0.29298765973E+02 -0.63904425074E+00  0.31268055570E+02  0.51100000000E-03 0. -1.
         11    1    1    0    0    0 -0.10891487400E+02  0.29264393500E+02 -0.63649794421E+00  0.31231944458E+02  0.51100000000E-03 0. -1.
         22    1    1    0    0    0  0.21794020766E+02 -0.58563159473E+02  0.12755421949E+01  0.62499999972E+02  0.00000000000E+00 0. -1.
</event>
<event>
 4    1  0.1956390E-002  0.9118800E+02  0.7818608E-02  0.1130116E+00
         25   -1    0    0    0    0  0.00000000000E+00  0.00000000000E+00  0.99999998245E-14  0.12500000000E+03  0.12500000000E+03 0.  0.
        -11    1    1    0    0    0  0.11603883949E+01 -0.60608226493E+01 -0.22830847261E+02  0.23650109077E+02  0.51100000000E-03 0.  1.
         11    1    1    0    0    0  0.19593407209E+01 -0.10067734433E+02 -0.37471573575E+02  0.38849930748E+02  0.51100000000E-03 0. -1.
         22    1    1    0    0    0 -0.31197291158E+01  0.16128557082E+02  0.60302420836E+02  0.62499960176E+02  0.00000000000E+00 0. -1.
</event>
<event>
 4    1  0.1956390E-002  0.9118800E+02  0.7818608E-02  0.1130116E+00
         25   -1    0    0    0    0  0.00000000000E+00  0.00000000000E+00  0.99999998245E-14  0.12500000000E+03  0.12500000000E+03 0.  0.
        -11    1    1    0    0    0  0.14719864369E+02 -0.10397009212E+02 -0.24940800660E+02  0.30770371226E+02  0.51100000000E-03 0.  1.
         11    1    1    0    0    0  0.15187541360E+02 -0.10723097167E+02 -0.25712315057E+02  0.31729629233E+02  0.51100000000E-03 0. -1.
         22    1    1    0    0    0 -0.29907405729E+02  0.21120106379E+02  0.50653115716E+02  0.62499999541E+02  0.00000000000E+00 0. -1.
</event>
<event>
 4    1  0.1956390E-002  0.9118800E+02  0.7818608E-02  0.1130116E+00
         25   -1    0    0    0    0  0.00000000000E+00  0.00000000000E+00  0.99999998245E-14  0.12500000000E+03  0.12500000000E+03 0.  0.
        -11    1    1    0    0    0 -0.23975043588E+02 -0.22165179038E+02  0.29665962827E+02  0.44115385383E+02  0.51100000000E-03 0. -1.
         11    1    1    0    0    0 -0.99863319260E+01 -0.92841602716E+01  0.12331777290E+02  0.18384645459E+02  0.51100000000E-03 0.  1.
         22    1    1    0    0    0  0.33961375514E+02  0.31449339309E+02 -0.41997740116E+02  0.62499969157E+02  0.00000000000E+00 0.  1.
</event>
<event>
 4    1  0.1956390E-002  0.9118800E+02  0.7818608E-02  0.1130116E+00
         25   -1    0    0    0    0  0.00000000000E+00  0.00000000000E+00  0.99999998245E-14  0.12500000000E+03  0.12500000000E+03 0.  0.
        -11    1    1    0    0    0 -0.20202389727E+02 -0.53775443239E+02  0.33170093688E+01  0.57540745543E+02  0.51100000000E-03 0.  1.
         11    1    1    0    0    0 -0.17405483372E+01 -0.46349960096E+01  0.28549677841E+00  0.49592544999E+01  0.51100000000E-03 0.  1.
         22    1    1    0    0    0  0.21942938064E+02  0.58410439249E+02 -0.36025061472E+01  0.62499999957E+02  0.00000000000E+00 0.  1.
</event>
<event>
 4    1  0.1956390E-002  0.9118800E+02  0.7818608E-02  0.1130116E+00
         25   -1    0    0    0    0  0.00000000000E+00  0.00000000000E+00  0.99999998245E-14  0.12500000000E+03  0.12500000000E+03 0.  0.
        -11    1    1    0    0    0 -0.17670813009E+01 -0.48998902924E+01 -0.64914590522E+01  0.83228926515E+01  0.51100000000E-03 0. -1.
         11    1    1    0    0    0 -0.11188051196E+02 -0.30112565598E+02 -0.43629850446E+02  0.54180281899E+02  0.51100000000E-03 0.  1.
         22    1    1    0    0    0  0.12955132497E+02  0.35012455890E+02  0.50121309498E+02  0.62496825450E+02  0.00000000000E+00 0.  1.
</event>
<event>
 4    1  0.1956390E-002  0.9118800E+02  0.7818608E-02  0.1130116E+00
         25   -1    0    0    0    0  0.00000000000E+00  0.00000000000E+00  0.99999998245E-14  0.12500000000E+03  0.12500000000E+03 0.  0.
        -11    1    1    0    0    0 -0.17100366196E+01  0.34109035316E+01  0.52304766454E+01  0.64742856240E+01  0.51100000000E-03 0. -1.
         11    1    1    0    0    0 -0.12627960427E+02  0.36925938085E+02  0.40252690132E+02  0.56064867351E+02  0.51100000000E-03 0.  1.
         22    1    1    0    0    0  0.14337997046E+02 -0.40336841617E+02 -0.45483166777E+02  0.62460847025E+02  0.00000000000E+00 0.  1.
</event>
<event>
 4    1  0.1956390E-002  0.9118800E+02  0.7818608E-02  0.1130116E+00
         25   -1    0    0    0    0  0.00000000000E+00  0.00000000000E+00  0.99999998245E-14  0.12500000000E+03  0.12500000000E+03 0.  0.
        -11    1    1    0    0    0  0.56556490059E+02 -0.39415960738E+01  0.21857153391E+02  0.60761072259E+02  0.51100000000E-03 0.  1.
         11    1    1    0    0    0  0.16131642170E+01 -0.10687758815E+00  0.64053792010E+00  0.17389682855E+01  0.51100000000E-03 0. -1.
         22    1    1    0    0    0 -0.58169654276E+02  0.40484736619E+01 -0.22497691311E+02  0.62499959456E+02  0.00000000000E+00 0.  1.
</event>
<event>
 4    1  0.1956390E-002  0.9118800E+02  0.7818608E-02  0.1130116E+00
         25   -1    0    0    0    0  0.00000000000E+00  0.00000000000E+00  0.99999998245E-14  0.12500000000E+03  0.12500000000E+03 0.  0.
        -11    1    1    0    0    0  0.25640223944E+02 -0.34994076681E+01  0.18263234069E+02  0.31673532434E+02  0.51100000000E-03 0.  1.
         11    1    1    0    0    0  0.25107568246E+02 -0.30923767251E+01  0.17616908754E+02  0.30827070107E+02  0.51100000000E-03 0. -1.
         22    1    1    0    0    0 -0.50747792191E+02  0.65917843933E+01 -0.35880142823E+02  0.62499397459E+02  0.00000000000E+00 0.  1.
</event>
<event>
 4    1  0.1956390E-002  0.9118800E+02  0.7818608E-02  0.1130116E+00
         25   -1    0    0    0    0  0.00000000000E+00  0.00000000000E+00  0.99999998245E-14  0.12500000000E+03  0.12500000000E+03 0.  0.
        -11    1    1    0    0    0 -0.19842473045E+01  0.32307934126E+02 -0.27326081763E+02  0.42361003171E+02  0.51100000000E-03 0.  1.
         11    1    1    0    0    0 -0.10855398625E+01  0.15714345991E+02 -0.12552877402E+02  0.20141841973E+02  0.51100000000E-03 0. -1.
         22    1    1    0    0    0  0.30697871670E+01 -0.48022280117E+02  0.39878959166E+02  0.62497154856E+02  0.00000000000E+00 0.  1.
</event>
<event>
 4    1  0.1956390E-002  0.9118800E+02  0.7818608E-02  0.1130116E+00
         25   -1    0    0    0    0  0.00000000000E+00  0.00000000000E+00  0.99999998245E-14  0.12500000000E+03  0.12500000000E+03 0.  0.
        -11    1    1    0    0    0 -0.22238663358E+00 -0.57859699417E+01 -0.17406307029E+02  0.18344111552E+02  0.51100000000E-03 0. -1.
         11    1    1    0    0    0 -0.68193252829E+00 -0.13532471646E+02 -0.42025921563E+02  0.44156210257E+02  0.51100000000E-03 0.  1.
         22    1    1    0    0    0  0.90431916187E+00  0.19318441588E+02  0.59432228592E+02  0.62499678191E+02  0.00000000000E+00 0.  1.
</event>
<event>
 4    1  0.1956390E-002  0.9118800E+02  0.7818608E-02  0.1130116E+00
         25   -1    0    0    0    0  0.00000000000E+00  0.00000000000E+00  0.99999998245E-14  0.12500000000E+03  0.12500000000E+03 0.  0.
        -11    1    1    0    0    0  0.50440982716E+02 -0.21383396290E+01  0.24679760919E+02  0.56195692299E+02  0.51100000000E-03 0. -1.
         11    1    1    0    0    0  0.54282473175E+01  0.43401675981E-01  0.32298929782E+01  0.63166416359E+01  0.51100000000E-03 0.  1.
         22    1    1    0    0    0 -0.55869230034E+02  0.20949379530E+01 -0.27909653897E+02  0.62487666065E+02  0.00000000000E+00 0. -1.
</event>
<event>
 4    1  0.1956390E-002  0.9118800E+02  0.7818608E-02  0.1130116E+00
         25   -1    0    0    0    0  0.00000000000E+00  0.00000000000E+00  0.99999998245E-14  0.12500000000E+03  0.12500000000E+03 0.  0.
        -11    1    1    0    0    0  0.17269079626E+01 -0.87406360527E+00  0.13712137204E+01  0.23720087743E+01  0.51100000000E-03 0.  1.
         11    1    1    0    0    0  0.42351411867E+02 -0.27381914106E+02  0.32750529513E+02  0.60133256114E+02  0.51100000000E-03 0. -1.
         22    1    1    0    0    0 -0.44078319829E+02  0.28255977711E+02 -0.34121743234E+02  0.62494735112E+02  0.00000000000E+00 0. -1.
</event>
<event>
 4    1  0.1956390E-002  0.9118800E+02  0.7818608E-02  0.1130116E+00
         25   -1    0    0    0    0  0.00000000000E+00  0.00000000000E+00  0.99999998245E-14  0.12500000000E+03  0.12500000000E+03 0.  0.
        -11    1    1    0    0    0 -0.49050937655E+02  0.25341159216E+02 -0.10330143997E+02  0.56168324797E+02  0.51100000000E-03 0.  1.
         11    1    1    0    0    0 -0.60613980546E+01  0.73193341860E+00 -0.23788777281E+01  0.65525058117E+01  0.51100000000E-03 0. -1.
         22    1    1    0    0    0  0.55112335709E+02 -0.26073092635E+02  0.12709021725E+02  0.62279169391E+02  0.00000000000E+00 0.  1.
</event>
<event>
 4    1  0.1956390E-002  0.9118800E+02  0.7818608E-02  0.1130116E+00
         25   -1    0    0    0    0  0.00000000000E+00  0.00000000000E+00  0.99999998245E-14  0.12500000000E+03  0.12500000000E+03 0.  0.
        -11    1    1    0    0    0 -0.13530662514E+02 -0.24299028719E+02 -0.16408818862E+02  0.32291964348E+02  0.51100000000E-03 0. -1.
         11    1    1    0    0    0 -0.24413466514E+02 -0.27318834350E+00  0.35952276883E+02  0.43458695246E+02  0.51100000000E-03 0.  1.
         22    1    1    0    0    0  0.37944129028E+02  0.24572217062E+02 -0.19543458022E+02  0.49249340407E+02  0.00000000000E+00 0.  1.
</event>
<event>
 4    1  0.1956390E-002  0.9118800E+02  0.7818608E-02  0.1130116E+00
         25   -1    0    0    0    0  0.00000000000E+00  0.00000000000E+00  0.99999998245E-14  0.12500000000E+03  0.12500000000E+03 0.  0.
        -11    1    1    0    0    0 -0.76063194558E+01  0.52880755299E+01  0.76437491889E+01  0.12010276450E+02  0.51100000000E-03 0. -1.
         11    1    1    0    0    0 -0.31976110471E+02  0.22231963898E+02  0.32132231876E+02  0.50489723561E+02  0.51100000000E-03 0. -1.
         22    1    1    0    0    0  0.39582429927E+02 -0.27520039428E+02 -0.39775981065E+02  0.62499999990E+02  0.00000000000E+00 0. -1.
</event>
<event>
 4    1  0.1956390E-002  0.9118800E+02  0.7818608E-02  0.1130116E+00
         25   -1    0    0    0    0  0.00000000000E+00  0.00000000000E+00  0.99999998245E-14  0.12500000000E+03  0.12500000000E+03 0.  0.
        -11    1    1    0    0    0  0.24606599945E+01 -0.85364588590E+01  0.43079416702E+01  0.98734157795E+01  0.51100000000E-03 0.  1.
         11    1    1    0    0    0  0.13104961518E+02 -0.45497241838E+02  0.22974297769E+02  0.52626584437E+02  0.51100000000E-03 0. -1.
         22    1    1    0    0    0 -0.15565621513E+02  0.54033700697E+02 -0.27282239440E+02  0.62499999783E+02  0.00000000000E+00 0. -1.
</event>
<event>
 4    1  0.1956390E-002  0.9118800E+02  0.7818608E-02  0.1130116E+00
         25   -1    0    0    0    0  0.00000000000E+00  0.00000000000E+00  0.99999998245E-14  0.12500000000E+03  0.12500000000E+03 0.  0.
        -11    1    1    0    0    0  0.17150667325E+01 -0.69101244079E+01 -0.30521592768E+01  0.77464152834E+01  0.51100000000E-03 0. -1.
         11    1    1    0    0    0 -0.73287985864E+01 -0.60828696494E+01 -0.55859423639E+02  0.56665578630E+02  0.51100000000E-03 0.  1.
         22    1    1    0    0    0  0.56137318538E+01  0.12992994057E+02  0.58911582916E+02  0.60588006087E+02  0.00000000000E+00 0.  1.
</event>
<event>
 4    1  0.1956390E-002  0.9118800E+02  0.7818608E-02  0.1130116E+00
         25   -1    0    0    0    0  0.00000000000E+00  0.00000000000E+00  0.99999998245E-14  0.12500000000E+03  0.12500000000E+03 0.  0.
        -11    1    1    0    0    0  0.15342371296E+00  0.69863472397E+00  0.68266617759E+01  0.68640323846E+01  0.51100000000E-03 0. -1.
         11    1    1    0    0    0  0.12476075655E+01  0.56714016754E+01  0.55332084516E+02  0.55635967672E+02  0.51100000000E-03 0.  1.
         22    1    1    0    0    0 -0.14010312784E+01 -0.63700363994E+01 -0.62158746292E+02  0.62499999944E+02  0.00000000000E+00 0.  1.
</event>
<event>
 4    1  0.1956390E-002  0.9118800E+02  0.7818608E-02  0.1130116E+00
         25   -1    0    0    0    0  0.00000000000E+00  0.00000000000E+00  0.99999998245E-14  0.12500000000E+03  0.12500000000E+03 0.  0.
        -11    1    1    0    0    0  0.22730972713E+00  0.26410126002E+02  0.12140885038E+02  0.29067980923E+02  0.51100000000E-03 0. -1.
         11    1    1    0    0    0  0.26138793447E+00  0.30375141598E+02  0.13963608016E+02  0.33432019081E+02  0.51100000000E-03 0. -1.
         22    1    1    0    0    0 -0.48869766161E+00 -0.56785267601E+02 -0.26104493054E+02  0.62499999996E+02  0.00000000000E+00 0. -1.
</event>
<event>
 4    1  0.1956390E-002  0.9118800E+02  0.7818608E-02  0.1130116E+00
         25   -1    0    0    0    0  0.00000000000E+00  0.00000000000E+00  0.99999998245E-14  0.12500000000E+03  0.12500000000E+03 0.  0.
        -11    1    1    0    0    0  0.25434990300E+02 -0.16000020923E+02  0.12016050232E+02  0.32362398930E+02  0.51100000000E-03 0.  1.
         11    1    1    0    0    0  0.24669492523E+02 -0.14035568677E+02  0.10168955595E+02  0.30149439590E+02  0.51100000000E-03 0. -1.
         22    1    1    0    0    0 -0.50104482823E+02  0.30035589601E+02 -0.22185005826E+02  0.62488161480E+02  0.00000000000E+00 0.  1.
</event>
<event>
 4    1  0.1956390E-002  0.9118800E+02  0.7818608E-02  0.1130116E+00
         25   -1    0    0    0    0  0.00000000000E+00  0.00000000000E+00  0.99999998245E-14  0.12500000000E+03  0.12500000000E+03 0.  0.
        -11    1    1    0    0    0 -0.15682974341E+02 -0.63916269820E+01  0.16068062439E+02  0.23345046808E+02  0.51100000000E-03 0.  1.
         11    1    1    0    0    0 -0.26302926947E+02 -0.10719765623E+02  0.26950937257E+02  0.39154953203E+02  0.51100000000E-03 0.  1.
         22    1    1    0    0    0  0.41985901288E+02  0.17111392605E+02 -0.43018999696E+02  0.62499999990E+02  0.00000000000E+00 0.  1.
</event>
<event>
 4    1  0.1956390E-002  0.9118800E+02  0.7818608E-02  0.1130116E+00
         25   -1    0    0    0    0  0.00000000000E+00  0.00000000000E+00  0.99999998245E-14  0.12500000000E+03  0.12500000000E+03 0.  0.
        -11    1    1    0    0    0  0.10324807095E+02 -0.52727125081E+02  0.28255410370E+02  0.60705185744E+02  0.51100000000E-03 0.  1.
         11    1    1    0    0    0  0.30082232705E+00 -0.15674647403E+01  0.82101385750E+00  0.17948548131E+01  0.51100000000E-03 0. -1.
         22    1    1    0    0    0 -0.10625629422E+02  0.54294589821E+02 -0.29076424228E+02  0.62499959442E+02  0.00000000000E+00 0.  1.
</event>
<event>
 4    1  0.1956390E-002  0.9118800E+02  0.7818608E-02  0.1130116E+00
         25   -1    0    0    0    0  0.00000000000E+00  0.00000000000E+00  0.99999998245E-14  0.12500000000E+03  0.12500000000E+03 0.  0.
        -11    1    1    0    0    0  0.75544415468E+00 -0.46052896327E+00 -0.54910854349E+00  0.10412988286E+01  0.51100000000E-03 0. -1.
         11    1    1    0    0    0  0.49253515467E+02 -0.14496121269E+02 -0.33803310228E+02  0.61471213591E+02  0.51100000000E-03 0.  1.
         22    1    1    0    0    0 -0.50008959622E+02  0.14956650233E+02  0.34352418772E+02  0.62487487580E+02  0.00000000000E+00 0.  1.
</event>
<event>
 4    1  0.1956390E-002  0.9118800E+02  0.7818608E-02  0.1130116E+00
         25   -1    0    0    0    0  0.00000000000E+00  0.00000000000E+00  0.99999998245E-14  0.12500000000E+03  0.12500000000E+03 0.  0.
        -11    1    1    0    0    0  0.17579104826E+02 -0.23946943215E+02 -0.55950622329E+01  0.30228889120E+02  0.51100000000E-03 0.  1.
         11    1    1    0    0    0  0.18767001483E+02 -0.25564455388E+02 -0.59735143397E+01  0.32271110885E+02  0.51100000000E-03 0.  1.
         22    1    1    0    0    0 -0.36346106309E+02  0.49511398602E+02  0.11568576573E+02  0.62499999994E+02  0.00000000000E+00 0.  1.
</event>
<event>
 4    1  0.1956390E-002  0.9118800E+02  0.7818608E-02  0.1130116E+00
         25   -1    0    0    0    0  0.00000000000E+00  0.00000000000E+00  0.99999998245E-14  0.12500000000E+03  0.12500000000E+03 0.  0.
        -11    1    1    0    0    0  0.10204523105E+02  0.19064132546E+02  0.18013080464E+02  0.28143285338E+02  0.51100000000E-03 0. -1.
         11    1    1    0    0    0  0.12456143388E+02  0.23274713626E+02  0.21988998185E+02  0.34356714684E+02  0.51100000000E-03 0. -1.
         22    1    1    0    0    0 -0.22660666493E+02 -0.42338846171E+02 -0.40002078649E+02  0.62499999978E+02  0.00000000000E+00 0. -1.
</event>
<event>
 4    1  0.1956390E-002  0.9118800E+02  0.7818608E-02  0.1130116E+00
         25   -1    0    0    0    0  0.00000000000E+00  0.00000000000E+00  0.99999998245E-14  0.12500000000E+03  0.12500000000E+03 0.  0.
        -11    1    1    0    0    0  0.17285461815E+02  0.56940379525E+00  0.36394295366E+01  0.17673620412E+02  0.51100000000E-03 0. -1.
         11    1    1    0    0    0  0.43845025418E+02  0.13947524460E+01  0.92235065799E+01  0.44826383550E+02  0.51100000000E-03 0.  1.
         22    1    1    0    0    0 -0.61130487234E+02 -0.19641562412E+01 -0.12862936117E+02  0.62499996038E+02  0.00000000000E+00 0.  1.
</event>
<event>
 4    1  0.1956390E-002  0.9118800E+02  0.7818608E-02  0.1130116E+00
         25   -1    0    0    0    0  0.00000000000E+00  0.00000000000E+00  0.99999998245E-14  0.12500000000E+03  0.12500000000E+03 0.  0.
        -11    1    1    0    0    0  0.51009922593E+02 -0.19130553171E+02 -0.24609487269E+02  0.59779738470E+02  0.51100000000E-03 0. -1.
         11    1    1    0    0    0  0.22977619834E+01 -0.90784570199E+00 -0.11388723735E+01  0.27204640221E+01  0.51100000000E-03 0.  1.
         22    1    1    0    0    0 -0.53307684576E+02  0.20038398873E+02  0.25748359643E+02  0.62499797508E+02  0.00000000000E+00 0. -1.
</event>
<event>
 4    1  0.1956390E-002  0.9118800E+02  0.7818608E-02  0.1130116E+00
         25   -1    0    0    0    0  0.00000000000E+00  0.00000000000E+00  0.99999998245E-14  0.12500000000E+03  0.12500000000E+03 0.  0.
        -11    1    1    0    0    0 -0.13167073871E+02  0.96461599869E+01  0.96381606046E+01  0.18955589596E+02  0.51100000000E-03 0.  1.
         11    1    1    0    0    0 -0.29683325291E+02  0.21557888690E+02  0.23465775670E+02  0.43548650876E+02  0.51100000000E-03 0. -1.
         22    1    1    0    0    0  0.42850399162E+02 -0.31204048677E+02 -0.33103936274E+02  0.62495759528E+02  0.00000000000E+00 0. -1.
</event>
<event>
 4    1  0.1956390E-002  0.9118800E+02  0.7818608E-02  0.1130116E+00
         25   -1    0    0    0    0  0.00000000000E+00  0.00000000000E+00  0.99999998245E-14  0.12500000000E+03  0.12500000000E+03 0.  0.
        -11    1    1    0    0    0  0.96638964571E+01 -0.10749293462E+02  0.89630084801E+01  0.17008048858E+02  0.51100000000E-03 0. -1.
         11    1    1    0    0    0  0.72048261642E+01 -0.40449407316E+02  0.21187017237E+02  0.46227197318E+02  0.51100000000E-03 0.  1.
         22    1    1    0    0    0 -0.16868722621E+02  0.51198700778E+02 -0.30150025717E+02  0.61764753824E+02  0.00000000000E+00 0.  1.
</event>
<event>
 4    1  0.1956390E-002  0.9118800E+02  0.7818608E-02  0.1130116E+00
         25   -1    0    0    0    0  0.00000000000E+00  0.00000000000E+00  0.99999998245E-14  0.12500000000E+03  0.12500000000E+03 0.  0.
        -11    1    1    0    0    0 -0.27682299941E+02 -0.40082325946E+01  0.19792250388E+02  0.34265271548E+02  0.51100000000E-03 0.  1.
         11    1    1    0    0    0 -0.22809963722E+02 -0.33022859866E+01  0.16309517259E+02  0.28234728460E+02  0.51100000000E-03 0. -1.
         22    1    1    0    0    0  0.50492263663E+02  0.73105185812E+01 -0.36101767647E+02  0.62499999992E+02  0.00000000000E+00 0.  1.
</event>
<event>
 4    1  0.1956390E-002  0.9118800E+02  0.7818608E-02  0.1130116E+00
         25   -1    0    0    0    0  0.00000000000E+00  0.00000000000E+00  0.99999998245E-14  0.12500000000E+03  0.12500000000E+03 0.  0.
        -11    1    1    0    0    0  0.66694956643E+01 -0.11241708888E+01 -0.46539182358E+02  0.47028091897E+02  0.51100000000E-03 0. -1.
         11    1    1    0    0    0  0.21807512218E+01 -0.36071322692E+00 -0.15313205140E+02  0.15471911383E+02  0.51100000000E-03 0.  1.
         22    1    1    0    0    0 -0.88502468861E+01  0.14848841158E+01  0.61852387498E+02  0.62499996720E+02  0.00000000000E+00 0. -1.
</event>
<event>
 4    1  0.1956390E-002  0.9118800E+02  0.7818608E-02  0.1130116E+00
         25   -1    0    0    0    0  0.00000000000E+00  0.00000000000E+00  0.99999998245E-14  0.12500000000E+03  0.12500000000E+03 0.  0.
        -11    1    1    0    0    0 -0.51904862206E+02 -0.44163732372E+01 -0.29125287376E+01  0.52173766368E+02  0.51100000000E-03 0. -1.
         11    1    1    0    0    0 -0.76556472795E+01 -0.15171331627E+01 -0.88779554436E+01  0.11820690395E+02  0.51100000000E-03 0.  1.
         22    1    1    0    0    0  0.59560509485E+02  0.59335064000E+01  0.11790484181E+02  0.61005543236E+02  0.00000000000E+00 0. -1.
</event>
<event>
 4    1  0.1956390E-002  0.9118800E+02  0.7818608E-02  0.1130116E+00
         25   -1    0    0    0    0  0.00000000000E+00  0.00000000000E+00  0.99999998245E-14  0.12500000000E+03  0.12500000000E+03 0.  0.
        -11    1    1    0    0    0  0.26187163104E+02 -0.45468417432E+02 -0.63687053264E+01  0.52855509675E+02  0.51100000000E-03 0. -1.
         11    1    1    0    0    0  0.47780586732E+01 -0.82968917448E+01 -0.11610068018E+01  0.96444903631E+01  0.51100000000E-03 0.  1.
         22    1    1    0    0    0 -0.30965221777E+02  0.53765309176E+02  0.75297121282E+01  0.62499999962E+02  0.00000000000E+00 0. -1.
</event>
<event>
 4    1  0.1956390E-002  0.9118800E+02  0.7818608E-02  0.1130116E+00
         25   -1    0    0    0    0  0.00000000000E+00  0.00000000000E+00  0.99999998245E-14  0.12500000000E+03  0.12500000000E+03 0.  0.
        -11    1    1    0    0    0 -0.32605811357E+02 -0.39963732696E+01  0.84999096581E+01  0.33931672491E+02  0.51100000000E-03 0.  1.
         11    1    1    0    0    0 -0.27452010752E+02 -0.33651606059E+01  0.71562655393E+01  0.28568327514E+02  0.51100000000E-03 0.  1.
         22    1    1    0    0    0  0.60057822109E+02  0.73615338755E+01 -0.15656175197E+02  0.62499999995E+02  0.00000000000E+00 0.  1.
</event>
<event>
 4    1  0.1956390E-002  0.9118800E+02  0.7818608E-02  0.1130116E+00
         25   -1    0    0    0    0  0.00000000000E+00  0.00000000000E+00  0.99999998245E-14  0.12500000000E+03  0.12500000000E+03 0.  0.
        -11    1    1    0    0    0 -0.62067396319E+01  0.32237458196E+00 -0.33757519525E+01  0.70727112012E+01  0.51100000000E-03 0.  1.
         11    1    1    0    0    0 -0.48691441999E+02  0.27122208873E+01 -0.26343395423E+02  0.55427314104E+02  0.51100000000E-03 0. -1.
         22    1    1    0    0    0  0.54898181631E+02 -0.30345954692E+01  0.29719147376E+02  0.62499974695E+02  0.00000000000E+00 0. -1.
</event>
<event>
 4    1  0.1956390E-002  0.9118800E+02  0.7818608E-02  0.1130116E+00
         25   -1    0    0    0    0  0.00000000000E+00  0.00000000000E+00  0.99999998245E-14  0.12500000000E+03  0.12500000000E+03 0.  0.
        -11    1    1    0    0    0  0.10883962981E+02 -0.57102769024E+02  0.74901641719E+01  0.58611342247E+02  0.51100000000E-03 0. -1.
         11    1    1    0    0    0 -0.77558143222E+01 -0.90038301857E+00 -0.18791061551E+01  0.80308396563E+01  0.51100000000E-03 0.  1.
         22    1    1    0    0    0 -0.31281486588E+01  0.58003152043E+02 -0.56110580168E+01  0.58357818097E+02  0.00000000000E+00 0. -1.
</event>
<event>
 4    1  0.1956390E-002  0.9118800E+02  0.7818608E-02  0.1130116E+00
         25   -1    0    0    0    0  0.00000000000E+00  0.00000000000E+00  0.99999998245E-14  0.12500000000E+03  0.12500000000E+03 0.  0.
        -11    1    1    0    0    0  0.93040054532E+01  0.20846809281E+02 -0.53904777179E+01  0.23456581698E+02  0.51100000000E-03 0.  1.
         11    1    1    0    0    0  0.15487264451E+02  0.34698592712E+02 -0.89744536036E+01  0.39043418320E+02  0.51100000000E-03 0.  1.
         22    1    1    0    0    0 -0.24791269904E+02 -0.55545401992E+02  0.14364931322E+02  0.62499999983E+02  0.00000000000E+00 0.  1.
</event>
<event>
 4    1  0.1956390E-002  0.9118800E+02  0.7818608E-02  0.1130116E+00
         25   -1    0    0    0    0  0.00000000000E+00  0.00000000000E+00  0.99999998245E-14  0.12500000000E+03  0.12500000000E+03 0.  0.
        -11    1    1    0    0    0  0.93058516251E+01  0.11718534785E+02  0.73126015930E+01  0.16655241646E+02  0.51100000000E-03 0. -1.
         11    1    1    0    0    0  0.25595992705E+02  0.32268525254E+02  0.20132793532E+02  0.45844759137E+02  0.51100000000E-03 0.  1.
         22    1    1    0    0    0 -0.34901844330E+02 -0.43987060039E+02 -0.27445395125E+02  0.62499999217E+02  0.00000000000E+00 0.  1.
</event>
<event>
 4    1  0.1956390E-002  0.9118800E+02  0.7818608E-02  0.1130116E+00
         25   -1    0    0    0    0  0.00000000000E+00  0.00000000000E+00  0.99999998245E-14  0.12500000000E+03  0.12500000000E+03 0.  0.
        -11    1    1    0    0    0 -0.36252733024E+00 -0.56388916934E+00 -0.20564183220E+00  0.70120316938E+00  0.51100000000E-03 0.  1.
         11    1    1    0    0    0 -0.32022173888E+02 -0.49539755645E+02 -0.18425117862E+02  0.61798802403E+02  0.51100000000E-03 0. -1.
         22    1    1    0    0    0  0.32384701219E+02  0.50103644814E+02  0.18630759694E+02  0.62499994428E+02  0.00000000000E+00 0. -1.
</event>
<event>
 4    1  0.1956390E-002  0.9118800E+02  0.7818608E-02  0.1130116E+00
         25   -1    0    0    0    0  0.00000000000E+00  0.00000000000E+00  0.99999998245E-14  0.12500000000E+03  0.12500000000E+03 0.  0.
        -11    1    1    0    0    0 -0.13415585776E+01 -0.45302821471E+02 -0.41554183788E+02  0.61488987658E+02  0.51100000000E-03 0.  1.
         11    1    1    0    0    0 -0.23642415570E+01  0.55437879410E+00  0.14918391016E+00  0.24329467909E+01  0.51100000000E-03 0. -1.
         22    1    1    0    0    0  0.37058001346E+01  0.44748442677E+02  0.41404999877E+02  0.61078065551E+02  0.00000000000E+00 0.  1.
</event>
<event>
 4    1  0.1956390E-002  0.9118800E+02  0.7818608E-02  0.1130116E+00
         25   -1    0    0    0    0  0.00000000000E+00  0.00000000000E+00  0.99999998245E-14  0.12500000000E+03  0.12500000000E+03 0.  0.
        -11    1    1    0    0    0  0.25895865447E+01  0.33302076353E+02 -0.14101546769E+01  0.33432361334E+02  0.51100000000E-03 0.  1.
         11    1    1    0    0    0  0.23332299240E+01  0.28966946807E+02 -0.69133932570E+00  0.29068985526E+02  0.51100000000E-03 0. -1.
         22    1    1    0    0    0 -0.49228164687E+01 -0.62269023160E+02  0.21014940026E+01  0.62498653140E+02  0.00000000000E+00 0. -1.
</event>
<event>
 4    1  0.1956390E-002  0.9118800E+02  0.7818608E-02  0.1130116E+00
         25   -1    0    0    0    0  0.00000000000E+00  0.00000000000E+00  0.99999998245E-14  0.12500000000E+03  0.12500000000E+03 0.  0.
        -11    1    1    0    0    0  0.55674632279E+01  0.93060637443E+01  0.36521581293E+02  0.38097576952E+02  0.51100000000E-03 0. -1.
         11    1    1    0    0    0  0.36420364863E+01  0.59774024726E+01  0.23377048568E+02  0.24402462378E+02  0.51100000000E-03 0.  1.
         22    1    1    0    0    0 -0.92094997142E+01 -0.15283466217E+02 -0.59898629861E+02  0.62499960670E+02  0.00000000000E+00 0.  1.
</event>
<event>
 4    1  0.1956390E-002  0.9118800E+02  0.7818608E-02  0.1130116E+00
         25   -1    0    0    0    0  0.00000000000E+00  0.00000000000E+00  0.99999998245E-14  0.12500000000E+03  0.12500000000E+03 0.  0.
        -11    1    1    0    0    0 -0.84815422825E+00 -0.20428555951E+01  0.54002105604E+01  0.58356575409E+01  0.51100000000E-03 0.  1.
         11    1    1    0    0    0 -0.81585487236E+01 -0.19933211402E+02  0.52411388255E+02  0.56664349049E+02  0.51100000000E-03 0. -1.
         22    1    1    0    0    0  0.90067029518E+01  0.21976066997E+02 -0.57811598815E+02  0.62499993410E+02  0.00000000000E+00 0. -1.
</event>
<event>
 4    1  0.1956390E-002  0.9118800E+02  0.7818608E-02  0.1130116E+00
         25   -1    0    0    0    0  0.00000000000E+00  0.00000000000E+00  0.99999998245E-14  0.12500000000E+03  0.12500000000E+03 0.  0.
        -11    1    1    0    0    0 -0.21985921860E+00 -0.87806202862E-01 -0.12189229687E+00  0.26628180265E+00  0.51100000000E-03 0.  1.
         11    1    1    0    0    0 -0.51137101861E+02 -0.20105340195E+02 -0.29220018150E+02  0.62233731626E+02  0.51100000000E-03 0. -1.
         22    1    1    0    0    0  0.51356961080E+02  0.20193146398E+02  0.29341910447E+02  0.62499986572E+02  0.00000000000E+00 0. -1.
</event>
<event>
 4    1  0.1956390E-002  0.9118800E+02  0.7818608E-02  0.1130116E+00
         25   -1    0    0    0    0  0.00000000000E+00  0.00000000000E+00  0.99999998245E-14  0.12500000000E+03  0.12500000000E+03 0.  0.
        -11    1    1    0    0    0 -0.50738771640E+01  0.14271892369E+02 -0.39286203137E+00  0.15152078474E+02  0.51100000000E-03 0.  1.
         11    1    1    0    0    0 -0.23149211948E+02  0.41357033505E+02 -0.18181542952E+01  0.47429905328E+02  0.51100000000E-03 0. -1.
         22    1    1    0    0    0  0.28223089112E+02 -0.55628925873E+02  0.22110163266E+01  0.62418016198E+02  0.00000000000E+00 0. -1.
</event>
<event>
 4    1  0.1956390E-002  0.9118800E+02  0.7818608E-02  0.1130116E+00
         25   -1    0    0    0    0  0.00000000000E+00  0.00000000000E+00  0.99999998245E-14  0.12500000000E+03  0.12500000000E+03 0.  0.
        -11    1    1    0    0    0 -0.69882084728E+01  0.27408402206E+02  0.30243285462E+02  0.41409079740E+02  0.51100000000E-03 0. -1.
         11    1    1    0    0    0 -0.42915890895E+01  0.14043944152E+02  0.15145261783E+02  0.21095711862E+02  0.51100000000E-03 0.  1.
         22    1    1    0    0    0  0.11279797562E+02 -0.41452346357E+02 -0.45388547245E+02  0.62495208397E+02  0.00000000000E+00 0.  1.
</event>
<event>
 4    1  0.1956390E-002  0.9118800E+02  0.7818608E-02  0.1130116E+00
         25   -1    0    0    0    0  0.00000000000E+00  0.00000000000E+00  0.99999998245E-14  0.12500000000E+03  0.12500000000E+03 0.  0.
        -11    1    1    0    0    0 -0.18165194066E+02  0.22658178763E+02  0.90356829214E+01  0.30413991952E+02  0.51100000000E-03 0.  1.
         11    1    1    0    0    0 -0.22207963052E+02  0.21007253622E+02  0.99679140161E+01  0.32153656678E+02  0.51100000000E-03 0. -1.
         22    1    1    0    0    0  0.40373157118E+02 -0.43665432385E+02 -0.19003596938E+02  0.62432351370E+02  0.00000000000E+00 0. -1.
</event>
<event>
 4    1  0.1956390E-002  0.9118800E+02  0.7818608E-02  0.1130116E+00
         25   -1    0    0    0    0  0.00000000000E+00  0.00000000000E+00  0.99999998245E-14  0.12500000000E+03  0.12500000000E+03 0.  0.
        -11    1    1    0    0    0  0.82443582739E+01  0.39331653705E+01 -0.42499618486E+01  0.10074790775E+02  0.51100000000E-03 0. -1.
         11    1    1    0    0    0  0.43257134622E+02  0.20197415486E+02 -0.21663789894E+02  0.52425519367E+02  0.51100000000E-03 0.  1.
         22    1    1    0    0    0 -0.51501492896E+02 -0.24130580857E+02  0.25913751742E+02  0.62499689858E+02  0.00000000000E+00 0.  1.
</event>
<event>
 4    1  0.1956390E-002  0.9118800E+02  0.7818608E-02  0.1130116E+00
         25   -1    0    0    0    0  0.00000000000E+00  0.00000000000E+00  0.99999998245E-14  0.12500000000E+03  0.12500000000E+03 0.  0.
        -11    1    1    0    0    0  0.11614592627E+02  0.68354260791E+01 -0.33527923389E+01  0.13887513395E+02  0.51100000000E-03 0.  1.
         11    1    1    0    0    0  0.40657028930E+02  0.23924267939E+02 -0.11739218809E+02  0.48612486630E+02  0.51100000000E-03 0. -1.
         22    1    1    0    0    0 -0.52271621557E+02 -0.30759694018E+02  0.15092011148E+02  0.62499999975E+02  0.00000000000E+00 0. -1.
</event>
<event>
 4    1  0.1956390E-002  0.9118800E+02  0.7818608E-02  0.1130116E+00
         25   -1    0    0    0    0  0.00000000000E+00  0.00000000000E+00  0.99999998245E-14  0.12500000000E+03  0.12500000000E+03 0.  0.
        -11    1    1    0    0    0  0.48591334401E+02 -0.13208037590E+00  0.20697370399E+02  0.52815872291E+02  0.51100000000E-03 0.  1.
         11    1    1    0    0    0  0.89290044453E+01 -0.24715861657E+00  0.37438467766E+01  0.96852773174E+01  0.51100000000E-03 0. -1.
         22    1    1    0    0    0 -0.57520338847E+02  0.37923899247E+00 -0.24441217176E+02  0.62498850392E+02  0.00000000000E+00 0.  1.
</event>
<event>
 4    1  0.1956390E-002  0.9118800E+02  0.7818608E-02  0.1130116E+00
         25   -1    0    0    0    0  0.00000000000E+00  0.00000000000E+00  0.99999998245E-14  0.12500000000E+03  0.12500000000E+03 0.  0.
        -11    1    1    0    0    0 -0.23897320455E+01 -0.30785446065E+02  0.94024179327E+01  0.32277855752E+02  0.51100000000E-03 0. -1.
         11    1    1    0    0    0 -0.21813138567E+01 -0.28834267093E+02  0.87866846588E+01  0.30222159362E+02  0.51100000000E-03 0.  1.
         22    1    1    0    0    0  0.45710459022E+01  0.59619713158E+02 -0.18189102592E+02  0.62499984886E+02  0.00000000000E+00 0. -1.
</event>
<event>
 4    1  0.1956390E-002  0.9118800E+02  0.7818608E-02  0.1130116E+00
         25   -1    0    0    0    0  0.00000000000E+00  0.00000000000E+00  0.99999998245E-14  0.12500000000E+03  0.12500000000E+03 0.  0.
        -11    1    1    0    0    0  0.28426475945E+01 -0.29095067483E+01 -0.70483002461E+00  0.41282757284E+01  0.51100000000E-03 0. -1.
         11    1    1    0    0    0  0.45217456707E+02 -0.35656586915E+02 -0.96476628131E+01  0.58387395725E+02  0.51100000000E-03 0.  1.
         22    1    1    0    0    0 -0.48060104302E+02  0.38566093664E+02  0.10352492838E+02  0.62484328547E+02  0.00000000000E+00 0.  1.
</event>
<event>
 4    1  0.1956390E-002  0.9118800E+02  0.7818608E-02  0.1130116E+00
         25   -1    0    0    0    0  0.00000000000E+00  0.00000000000E+00  0.99999998245E-14  0.12500000000E+03  0.12500000000E+03 0.  0.
        -11    1    1    0    0    0  0.30566498415E+02 -0.24003400346E+02  0.28380216767E+02  0.48123910456E+02  0.51100000000E-03 0.  1.
         11    1    1    0    0    0  0.10660013555E+02 -0.54315613061E+01  0.81028309860E+01  0.14449692643E+02  0.51100000000E-03 0. -1.
         22    1    1    0    0    0 -0.41226511970E+02  0.29434961653E+02 -0.36483047753E+02  0.62426396901E+02  0.00000000000E+00 0.  1.
</event>
<event>
 4    1  0.1956390E-002  0.9118800E+02  0.7818608E-02  0.1130116E+00
         25   -1    0    0    0    0  0.00000000000E+00  0.00000000000E+00  0.99999998245E-14  0.12500000000E+03  0.12500000000E+03 0.  0.
        -11    1    1    0    0    0  0.21544238899E+01  0.57683833149E+01 -0.14633438820E+01  0.63290729134E+01  0.51100000000E-03 0. -1.
         11    1    1    0    0    0  0.19572571429E+02  0.50871317250E+02 -0.13573120349E+02  0.56171220989E+02  0.51100000000E-03 0.  1.
         22    1    1    0    0    0 -0.21726995319E+02 -0.56639700565E+02  0.15036464231E+02  0.62499706098E+02  0.00000000000E+00 0.  1.
</event>
<event>
 4    1  0.1956390E-002  0.9118800E+02  0.7818608E-02  0.1130116E+00
         25   -1    0    0    0    0  0.00000000000E+00  0.00000000000E+00  0.99999998245E-14  0.12500000000E+03  0.12500000000E+03 0.  0.
        -11    1    1    0    0    0 -0.55494908728E+00 -0.32647195023E+01  0.18424473646E+01  0.37895876386E+01  0.51100000000E-03 0. -1.
         11    1    1    0    0    0 -0.85991831803E+01 -0.50583534227E+02  0.28535462820E+02  0.58710412406E+02  0.51100000000E-03 0.  1.
         22    1    1    0    0    0  0.91541322675E+01  0.53848253729E+02 -0.30377910184E+02  0.62499999956E+02  0.00000000000E+00 0.  1.
</event>
<event>
 4    1  0.1956390E-002  0.9118800E+02  0.7818608E-02  0.1130116E+00
         25   -1    0    0    0    0  0.00000000000E+00  0.00000000000E+00  0.99999998245E-14  0.12500000000E+03  0.12500000000E+03 0.  0.
        -11    1    1    0    0    0  0.22702779387E+02 -0.11840527239E+02  0.13505606999E+02  0.28948500788E+02  0.51100000000E-03 0. -1.
         11    1    1    0    0    0  0.26421289537E+02 -0.13401734548E+02  0.15749313831E+02  0.33551928649E+02  0.51100000000E-03 0.  1.
         22    1    1    0    0    0 -0.49124068924E+02  0.25242261787E+02 -0.29254920830E+02  0.62499570563E+02  0.00000000000E+00 0.  1.
</event>
<event>
 4    1  0.1956390E-002  0.9118800E+02  0.7818608E-02  0.1130116E+00
         25   -1    0    0    0    0  0.00000000000E+00  0.00000000000E+00  0.99999998245E-14  0.12500000000E+03  0.12500000000E+03 0.  0.
        -11    1    1    0    0    0  0.48156314004E+01  0.39353768912E+01  0.20519362362E+01  0.65488884278E+01  0.51100000000E-03 0. -1.
         11    1    1    0    0    0  0.41145452556E+02  0.33619857272E+02  0.17529512796E+02  0.55951111590E+02  0.51100000000E-03 0. -1.
         22    1    1    0    0    0 -0.45961083956E+02 -0.37555234164E+02 -0.19581449032E+02  0.62499999982E+02  0.00000000000E+00 0. -1.
</event>
<event>
 4    1  0.1956390E-002  0.9118800E+02  0.7818608E-02  0.1130116E+00
         25   -1    0    0    0    0  0.00000000000E+00  0.00000000000E+00  0.99999998245E-14  0.12500000000E+03  0.12500000000E+03 0.  0.
        -11    1    1    0    0    0 -0.21047293198E+02  0.28663752899E+02 -0.24850760530E+02  0.43383863134E+02  0.51100000000E-03 0. -1.
         11    1    1    0    0    0 -0.92154016225E+01  0.12552106105E+02 -0.11088628005E+02  0.19116397830E+02  0.51100000000E-03 0.  1.
         22    1    1    0    0    0  0.30262694821E+02 -0.41215859004E+02  0.35939388535E+02  0.62499739035E+02  0.00000000000E+00 0. -1.
</event>
<event>
 4    1  0.1956390E-002  0.9118800E+02  0.7818608E-02  0.1130116E+00
         25   -1    0    0    0    0  0.00000000000E+00  0.00000000000E+00  0.99999998245E-14  0.12500000000E+03  0.12500000000E+03 0.  0.
        -11    1    1    0    0    0 -0.55202667159E+01 -0.13139199489E+01  0.20599832165E+01  0.60368254373E+01  0.51100000000E-03 0.  1.
         11    1    1    0    0    0 -0.51634519039E+02 -0.12292416811E+02  0.19257804146E+02  0.56463174621E+02  0.51100000000E-03 0. -1.
         22    1    1    0    0    0  0.57154785755E+02  0.13606336760E+02 -0.21317787363E+02  0.62499999942E+02  0.00000000000E+00 0. -1.
</event>
<event>
 4    1  0.1956390E-002  0.9118800E+02  0.7818608E-02  0.1130116E+00
         25   -1    0    0    0    0  0.00000000000E+00  0.00000000000E+00  0.99999998245E-14  0.12500000000E+03  0.12500000000E+03 0.  0.
        -11    1    1    0    0    0  0.12571663521E+02  0.48712801747E+02 -0.20909222839E+02  0.54481000153E+02  0.51100000000E-03 0.  1.
         11    1    1    0    0    0  0.41500456528E+01  0.67981354941E+01 -0.19504480946E+01  0.82001081180E+01  0.51100000000E-03 0. -1.
         22    1    1    0    0    0 -0.16721709174E+02 -0.55510937241E+02  0.22859670934E+02  0.62318891729E+02  0.00000000000E+00 0.  1.
</event>
<event>
 4    1  0.1956390E-002  0.9118800E+02  0.7818608E-02  0.1130116E+00
         25   -1    0    0    0    0  0.00000000000E+00  0.00000000000E+00  0.99999998245E-14  0.12500000000E+03  0.12500000000E+03 0.  0.
        -11    1    1    0    0    0 -0.18636270497E+02  0.41302958577E+01  0.17343053622E+02  0.25790529873E+02  0.51100000000E-03 0. -1.
         11    1    1    0    0    0 -0.26123650006E+02  0.68598946850E+01  0.24866054639E+02  0.36712721478E+02  0.51100000000E-03 0.  1.
         22    1    1    0    0    0  0.44759920504E+02 -0.10990190543E+02 -0.42209108260E+02  0.62496748650E+02  0.00000000000E+00 0. -1.
</event>
<event>
 4    1  0.1956390E-002  0.9118800E+02  0.7818608E-02  0.1130116E+00
         25   -1    0    0    0    0  0.00000000000E+00  0.00000000000E+00  0.99999998245E-14  0.12500000000E+03  0.12500000000E+03 0.  0.
        -11    1    1    0    0    0 -0.15366856596E+01 -0.25791041686E+00 -0.11177995025E+01  0.19176539283E+01  0.51100000000E-03 0. -1.
         11    1    1    0    0    0 -0.46685764084E+02 -0.10240935570E+02 -0.37228482902E+02  0.60583803684E+02  0.51100000000E-03 0.  1.
         22    1    1    0    0    0  0.48222449743E+02  0.10498845987E+02  0.38346282405E+02  0.62498542387E+02  0.00000000000E+00 0.  1.
</event>
<event>
 4    1  0.1956390E-002  0.9118800E+02  0.7818608E-02  0.1130116E+00
         25   -1    0    0    0    0  0.00000000000E+00  0.00000000000E+00  0.99999998245E-14  0.12500000000E+03  0.12500000000E+03 0.  0.
        -11    1    1    0    0    0 -0.52116924136E+01  0.34376816581E+00  0.14918766686E+02  0.15806628801E+02  0.51100000000E-03 0. -1.
         11    1    1    0    0    0 -0.15398075335E+02  0.10107480460E+01  0.44069814865E+02  0.46693371244E+02  0.51100000000E-03 0.  1.
         22    1    1    0    0    0  0.20609767749E+02 -0.13545162119E+01 -0.58988581551E+02  0.62499999954E+02  0.00000000000E+00 0.  1.
</event>
<event>
 4    1  0.1956390E-002  0.9118800E+02  0.7818608E-02  0.1130116E+00
         25   -1    0    0    0    0  0.00000000000E+00  0.00000000000E+00  0.99999998245E-14  0.12500000000E+03  0.12500000000E+03 0.  0.
        -11    1    1    0    0    0 -0.25703519939E+01 -0.14357196282E+01  0.35333219371E+01  0.45991699681E+01  0.51100000000E-03 0.  1.
         11    1    1    0    0    0 -0.20370550418E+02 -0.39177639702E+02  0.37762853338E+02  0.58102322410E+02  0.51100000000E-03 0. -1.
         22    1    1    0    0    0  0.22940902412E+02  0.40613359330E+02 -0.41296175275E+02  0.62298507622E+02  0.00000000000E+00 0. -1.
</event>
<event>
 4    1  0.1956390E-002  0.9118800E+02  0.7818608E-02  0.1130116E+00
         25   -1    0    0    0    0  0.00000000000E+00  0.00000000000E+00  0.99999998245E-14  0.12500000000E+03  0.12500000000E+03 0.  0.
        -11    1    1    0    0    0 -0.16472926720E+02  0.16223129384E+02 -0.46946642441E+02  0.52331008766E+02  0.51100000000E-03 0.  1.
         11    1    1    0    0    0 -0.32659664811E+01  0.31046543761E+01 -0.91162331895E+01  0.10169126004E+02  0.51100000000E-03 0. -1.
         22    1    1    0    0    0  0.19738893201E+02 -0.19327783760E+02  0.56062875630E+02  0.62499865230E+02  0.00000000000E+00 0.  1.
</event>
<event>
 4    1  0.1956390E-002  0.9118800E+02  0.7818608E-02  0.1130116E+00
         25   -1    0    0    0    0  0.00000000000E+00  0.00000000000E+00  0.99999998245E-14  0.12500000000E+03  0.12500000000E+03 0.  0.
        -11    1    1    0    0    0 -0.13937612694E+02 -0.17794580061E+02  0.27519724849E+02  0.35612348745E+02  0.51100000000E-03 0. -1.
         11    1    1    0    0    0 -0.96609259845E+01 -0.13330060619E+02  0.21265097707E+02  0.26892905900E+02  0.51100000000E-03 0.  1.
         22    1    1    0    0    0  0.23598538679E+02  0.31124640680E+02 -0.48784822555E+02  0.62494745355E+02  0.00000000000E+00 0.  1.
</event>
<event>
 4    1  0.1956390E-002  0.9118800E+02  0.7818608E-02  0.1130116E+00
         25   -1    0    0    0    0  0.00000000000E+00  0.00000000000E+00  0.99999998245E-14  0.12500000000E+03  0.12500000000E+03 0.  0.
        -11    1    1    0    0    0  0.14297933363E+02 -0.15384704691E+02 -0.28586802167E+01  0.21196511263E+02  0.51100000000E-03 0.  1.
         11    1    1    0    0    0  0.27861890704E+02 -0.29978585710E+02 -0.55657552095E+01  0.41303488788E+02  0.51100000000E-03 0. -1.
         22    1    1    0    0    0 -0.42159824067E+02  0.45363290401E+02  0.84244354262E+01  0.62499999949E+02  0.00000000000E+00 0. -1.
</event>
<event>
 4    1  0.1956390E-002  0.9118800E+02  0.7818608E-02  0.1130116E+00
         25   -1    0    0    0    0  0.00000000000E+00  0.00000000000E+00  0.99999998245E-14  0.12500000000E+03  0.12500000000E+03 0.  0.
        -11    1    1    0    0    0 -0.32669030403E+02 -0.24216577222E+02 -0.61644799531E+01  0.41130389898E+02  0.51100000000E-03 0.  1.
         11    1    1    0    0    0 -0.16983675019E+02 -0.12591932211E+02 -0.31082584480E+01  0.21369680503E+02  0.51100000000E-03 0. -1.
         22    1    1    0    0    0  0.49652705422E+02  0.36808509433E+02  0.92727384010E+01  0.62499929599E+02  0.00000000000E+00 0.  1.
</event>
<event>
 4    1  0.1956390E-002  0.9118800E+02  0.7818608E-02  0.1130116E+00
         25   -1    0    0    0    0  0.00000000000E+00  0.00000000000E+00  0.99999998245E-14  0.12500000000E+03  0.12500000000E+03 0.  0.
        -11    1    1    0    0    0 -0.31831515215E+02 -0.28437630798E+02  0.62841395268E+01  0.43144346282E+02  0.51100000000E-03 0.  1.
         11    1    1    0    0    0 -0.14360016815E+02 -0.12658088027E+02  0.28653816214E+01  0.19355817924E+02  0.51100000000E-03 0. -1.
         22    1    1    0    0    0  0.46191532029E+02  0.41095718825E+02 -0.91495211482E+01  0.62499835794E+02  0.00000000000E+00 0.  1.
</event>
<event>
 4    1  0.1956390E-002  0.9118800E+02  0.7818608E-02  0.1130116E+00
         25   -1    0    0    0    0  0.00000000000E+00  0.00000000000E+00  0.99999998245E-14  0.12500000000E+03  0.12500000000E+03 0.  0.
        -11    1    1    0    0    0  0.39118936234E+02  0.16769798687E+02  0.10714980547E+02  0.43889954756E+02  0.51100000000E-03 0.  1.
         11    1    1    0    0    0  0.16586700921E+02  0.71114474833E+01  0.45433964622E+01  0.18610045256E+02  0.51100000000E-03 0.  1.
         22    1    1    0    0    0 -0.55705637156E+02 -0.23881246170E+02 -0.15258377010E+02  0.62499999988E+02  0.00000000000E+00 0.  1.
</event>
<event>
 4    1  0.1956390E-002  0.9118800E+02  0.7818608E-02  0.1130116E+00
         25   -1    0    0    0    0  0.00000000000E+00  0.00000000000E+00  0.99999998245E-14  0.12500000000E+03  0.12500000000E+03 0.  0.
        -11    1    1    0    0    0 -0.16166002829E+01  0.31532431266E+01  0.25490242160E+01  0.43650731271E+01  0.51100000000E-03 0.  1.
         11    1    1    0    0    0 -0.21516769252E+02  0.41987243865E+02  0.33967186205E+02  0.58134927070E+02  0.51100000000E-03 0. -1.
         22    1    1    0    0    0  0.23133369535E+02 -0.45140486992E+02 -0.36516210421E+02  0.62499999803E+02  0.00000000000E+00 0. -1.
</event>
<event>
 4    1  0.1956390E-002  0.9118800E+02  0.7818608E-02  0.1130116E+00
         25   -1    0    0    0    0  0.00000000000E+00  0.00000000000E+00  0.99999998245E-14  0.12500000000E+03  0.12500000000E+03 0.  0.
        -11    1    1    0    0    0  0.25203055297E+00 -0.19707325100E-02 -0.83268425163E-01  0.26543770487E+00  0.51100000000E-03 0.  1.
         11    1    1    0    0    0  0.58759282357E+02  0.37053066580E+01 -0.20169189695E+02  0.62234867830E+02  0.51100000000E-03 0. -1.
         22    1    1    0    0    0 -0.59011312910E+02 -0.37033359255E+01  0.20252458120E+02  0.62499694465E+02  0.00000000000E+00 0. -1.
</event>
<event>
 4    1  0.1956390E-002  0.9118800E+02  0.7818608E-02  0.1130116E+00
         25   -1    0    0    0    0  0.00000000000E+00  0.00000000000E+00  0.99999998245E-14  0.12500000000E+03  0.12500000000E+03 0.  0.
        -11    1    1    0    0    0 -0.77717604472E+01 -0.16130365164E+01 -0.12479961772E+01  0.80349014910E+01  0.51100000000E-03 0.  1.
         11    1    1    0    0    0 -0.52679554018E+02 -0.10936133332E+02 -0.84683255686E+01  0.54465098567E+02  0.51100000000E-03 0. -1.
         22    1    1    0    0    0  0.60451314465E+02  0.12549169848E+02  0.97163217459E+01  0.62499999942E+02  0.00000000000E+00 0. -1.
</event>
<event>
 4    1  0.1956390E-002  0.9118800E+02  0.7818608E-02  0.1130116E+00
         25   -1    0    0    0    0  0.00000000000E+00  0.00000000000E+00  0.99999998245E-14  0.12500000000E+03  0.12500000000E+03 0.  0.
        -11    1    1    0    0    0 -0.20965189120E+01 -0.12582063905E+02 -0.47758568069E+02  0.49432626350E+02  0.51100000000E-03 0. -1.
         11    1    1    0    0    0  0.85733109176E+01  0.92861261617E+00 -0.11754902034E+02  0.14578810088E+02  0.51100000000E-03 0.  1.
         22    1    1    0    0    0 -0.64767920056E+01  0.11653451289E+02  0.59513470103E+02  0.60988563562E+02  0.00000000000E+00 0. -1.
</event>
<event>
 4    1  0.1956390E-002  0.9118800E+02  0.7818608E-02  0.1130116E+00
         25   -1    0    0    0    0  0.00000000000E+00  0.00000000000E+00  0.99999998245E-14  0.12500000000E+03  0.12500000000E+03 0.  0.
        -11    1    1    0    0    0  0.54787406384E+01  0.24991582999E+02 -0.14471808353E+02  0.29394371180E+02  0.51100000000E-03 0.  1.
         11    1    1    0    0    0  0.58651897353E+01  0.28207591991E+02 -0.16307567596E+02  0.33105973143E+02  0.51100000000E-03 0. -1.
         22    1    1    0    0    0 -0.11343930374E+02 -0.53199174990E+02  0.30779375949E+02  0.62499655677E+02  0.00000000000E+00 0.  1.
</event>
<event>
 4    1  0.1956390E-002  0.9118800E+02  0.7818608E-02  0.1130116E+00
         25   -1    0    0    0    0  0.00000000000E+00  0.00000000000E+00  0.99999998245E-14  0.12500000000E+03  0.12500000000E+03 0.  0.
        -11    1    1    0    0    0  0.96659203938E+01 -0.49712564431E+01  0.14949002685E+02  0.18482859336E+02  0.51100000000E-03 0.  1.
         11    1    1    0    0    0  0.23017199421E+02 -0.11834103945E+02  0.35604370420E+02  0.44017140737E+02  0.51100000000E-03 0. -1.
         22    1    1    0    0    0 -0.32683119815E+02  0.16805360388E+02 -0.50553373106E+02  0.62499999927E+02  0.00000000000E+00 0. -1.
</event>
<event>
 4    1  0.1956390E-002  0.9118800E+02  0.7818608E-02  0.1130116E+00
         25   -1    0    0    0    0  0.00000000000E+00  0.00000000000E+00  0.99999998245E-14  0.12500000000E+03  0.12500000000E+03 0.  0.
        -11    1    1    0    0    0  0.25904018416E+02  0.38944826632E+02  0.11618145099E+02  0.48194387508E+02  0.51100000000E-03 0.  1.
         11    1    1    0    0    0  0.76931364154E+01  0.11559489665E+02  0.34415730408E+01  0.14305613390E+02  0.51100000000E-03 0. -1.
         22    1    1    0    0    0 -0.33597154831E+02 -0.50504316296E+02 -0.15059718139E+02  0.62499999102E+02  0.00000000000E+00 0.  1.
</event>
<event>
 4    1  0.1956390E-002  0.9118800E+02  0.7818608E-02  0.1130116E+00
         25   -1    0    0    0    0  0.00000000000E+00  0.00000000000E+00  0.99999998245E-14  0.12500000000E+03  0.12500000000E+03 0.  0.
        -11    1    1    0    0    0  0.91008361680E+01 -0.13467345310E+01 -0.19694281780E+02  0.21737149030E+02  0.51100000000E-03 0. -1.
         11    1    1    0    0    0  0.17118816088E+02 -0.24338757828E+01 -0.36913878102E+02  0.40762875418E+02  0.51100000000E-03 0.  1.
         22    1    1    0    0    0 -0.26219652256E+02  0.37806103138E+01  0.56608159882E+02  0.62499975552E+02  0.00000000000E+00 0.  1.
</event>
<event>
 4    1  0.1956390E-002  0.9118800E+02  0.7818608E-02  0.1130116E+00
         25   -1    0    0    0    0  0.00000000000E+00  0.00000000000E+00  0.99999998245E-14  0.12500000000E+03  0.12500000000E+03 0.  0.
        -11    1    1    0    0    0  0.18283813051E+02  0.94303665257E+01 -0.10243934067E+02  0.22981901965E+02  0.51100000000E-03 0.  1.
         11    1    1    0    0    0  0.30791071697E+02  0.17087028406E+02 -0.17940452066E+02  0.39521088757E+02  0.51100000000E-03 0. -1.
         22    1    1    0    0    0 -0.49074884748E+02 -0.26517394931E+02  0.28184386133E+02  0.62497009278E+02  0.00000000000E+00 0. -1.
</event>
<event>
 4    1  0.1956390E-002  0.9118800E+02  0.7818608E-02  0.1130116E+00
         25   -1    0    0    0    0  0.00000000000E+00  0.00000000000E+00  0.99999998245E-14  0.12500000000E+03  0.12500000000E+03 0.  0.
        -11    1    1    0    0    0  0.30500985418E+01 -0.27292920476E+02  0.18273352577E+02  0.32986694649E+02  0.51100000000E-03 0. -1.
         11    1    1    0    0    0  0.27386139013E+01 -0.24469611972E+02  0.16271925284E+02  0.29513343913E+02  0.51100000000E-03 0.  1.
         22    1    1    0    0    0 -0.57887124431E+01  0.51762532448E+02 -0.34545277862E+02  0.62499961438E+02  0.00000000000E+00 0. -1.
</event>
<event>
 4    1  0.1956390E-002  0.9118800E+02  0.7818608E-02  0.1130116E+00
         25   -1    0    0    0    0  0.00000000000E+00  0.00000000000E+00  0.99999998245E-14  0.12500000000E+03  0.12500000000E+03 0.  0.
        -11    1    1    0    0    0  0.27000136261E+02  0.11363003895E+02  0.19979971382E+02  0.35458771444E+02  0.51100000000E-03 0. -1.
         11    1    1    0    0    0  0.20316714164E+02  0.97281589154E+01  0.14972758692E+02  0.27047910334E+02  0.51100000000E-03 0.  1.
         22    1    1    0    0    0 -0.47316850425E+02 -0.21091162811E+02 -0.34952730074E+02  0.62493318222E+02  0.00000000000E+00 0. -1.
</event>
<event>
 4    1  0.1956390E-002  0.9118800E+02  0.7818608E-02  0.1130116E+00
         25   -1    0    0    0    0  0.00000000000E+00  0.00000000000E+00  0.99999998245E-14  0.12500000000E+03  0.12500000000E+03 0.  0.
        -11    1    1    0    0    0 -0.31297896531E+01  0.39291888386E+00 -0.85949102527E+00  0.32693567571E+01  0.51100000000E-03 0. -1.
         11    1    1    0    0    0 -0.56726698536E+02  0.71296576617E+01 -0.15476401740E+02  0.59230645414E+02  0.51100000000E-03 0.  1.
         22    1    1    0    0    0  0.59856488189E+02 -0.75225765456E+01  0.16335892765E+02  0.62499997829E+02  0.00000000000E+00 0.  1.
</event>
<event>
 4    1  0.1956390E-002  0.9118800E+02  0.7818608E-02  0.1130116E+00
         25   -1    0    0    0    0  0.00000000000E+00  0.00000000000E+00  0.99999998245E-14  0.12500000000E+03  0.12500000000E+03 0.  0.
        -11    1    1    0    0    0  0.79068227195E+00  0.71674198471E+01 -0.79896787315E+01  0.10762530010E+02  0.51100000000E-03 0. -1.
         11    1    1    0    0    0  0.38106544131E+02  0.19865945879E+02  0.38661567789E+02  0.57805547618E+02  0.51100000000E-03 0.  1.
         22    1    1    0    0    0 -0.38897226403E+02 -0.27033365726E+02 -0.30671889057E+02  0.56431922372E+02  0.00000000000E+00 0.  1.
</event>
<event>
 4    1  0.1956390E-002  0.9118800E+02  0.7818608E-02  0.1130116E+00
         25   -1    0    0    0    0  0.00000000000E+00  0.00000000000E+00  0.99999998245E-14  0.12500000000E+03  0.12500000000E+03 0.  0.
        -11    1    1    0    0    0 -0.52634738698E+02 -0.15780279628E+02  0.26728071405E+02  0.61105014068E+02  0.51100000000E-03 0.  1.
         11    1    1    0    0    0 -0.10306518654E+01 -0.50666020664E+00  0.82074211401E+00  0.14115826974E+01  0.51100000000E-03 0. -1.
         22    1    1    0    0    0  0.53665390564E+02  0.16286939835E+02 -0.27548813519E+02  0.62483403235E+02  0.00000000000E+00 0.  1.
</event>
<event>
 4    1  0.1956390E-002  0.9118800E+02  0.7818608E-02  0.1130116E+00
         25   -1    0    0    0    0  0.00000000000E+00  0.00000000000E+00  0.99999998245E-14  0.12500000000E+03  0.12500000000E+03 0.  0.
        -11    1    1    0    0    0  0.32407949362E+01  0.52507541086E+01 -0.92434191347E+01  0.11113683822E+02  0.51100000000E-03 0. -1.
         11    1    1    0    0    0  0.14533075063E+02  0.23449199702E+02 -0.43354251316E+02  0.51387414265E+02  0.51100000000E-03 0.  1.
         22    1    1    0    0    0 -0.17773869999E+02 -0.28699953810E+02  0.52597670451E+02  0.62498901913E+02  0.00000000000E+00 0.  1.
</event>
<event>
 4    1  0.1956390E-002  0.9118800E+02  0.7818608E-02  0.1130116E+00
         25   -1    0    0    0    0  0.00000000000E+00  0.00000000000E+00  0.99999998245E-14  0.12500000000E+03  0.12500000000E+03 0.  0.
        -11    1    1    0    0    0  0.66039480243E+00 -0.52488155036E+00  0.13706181981E+01  0.16094149381E+01  0.51100000000E-03 0. -1.
         11    1    1    0    0    0  0.25057280279E+02 -0.19731483900E+02  0.51869691327E+02  0.60890587372E+02  0.51100000000E-03 0.  1.
         22    1    1    0    0    0 -0.25717675082E+02  0.20256365451E+02 -0.53240309525E+02  0.62499997690E+02  0.00000000000E+00 0.  1.
</event>
<event>
 4    1  0.1956390E-002  0.9118800E+02  0.7818608E-02  0.1130116E+00
         25   -1    0    0    0    0  0.00000000000E+00  0.00000000000E+00  0.99999998245E-14  0.12500000000E+03  0.12500000000E+03 0.  0.
        -11    1    1    0    0    0 -0.84045484632E+00 -0.22186277378E+01 -0.40307786577E+01  0.46771626266E+01  0.51100000000E-03 0. -1.
         11    1    1    0    0    0 -0.10389628005E+02 -0.27425027193E+02 -0.49833764030E+02  0.57822837394E+02  0.51100000000E-03 0. -1.
         22    1    1    0    0    0  0.11230082852E+02  0.29643654930E+02  0.53864542688E+02  0.62499999980E+02  0.00000000000E+00 0. -1.
</event>
<event>
 4    1  0.1956390E-002  0.9118800E+02  0.7818608E-02  0.1130116E+00
         25   -1    0    0    0    0  0.00000000000E+00  0.00000000000E+00  0.99999998245E-14  0.12500000000E+03  0.12500000000E+03 0.  0.
        -11    1    1    0    0    0 -0.15875932221E+02 -0.11397734275E+02  0.29406789363E+02  0.35308820872E+02  0.51100000000E-03 0. -1.
         11    1    1    0    0    0 -0.12154227702E+02 -0.57006145535E+01  0.23709384820E+02  0.27246232513E+02  0.51100000000E-03 0.  1.
         22    1    1    0    0    0  0.28030159923E+02  0.17098348829E+02 -0.53116174183E+02  0.62444946615E+02  0.00000000000E+00 0. -1.
</event>
<event>
 4    1  0.1956390E-002  0.9118800E+02  0.7818608E-02  0.1130116E+00
         25   -1    0    0    0    0  0.00000000000E+00  0.00000000000E+00  0.99999998245E-14  0.12500000000E+03  0.12500000000E+03 0.  0.
        -11    1    1    0    0    0 -0.15797715520E+00  0.54858895187E+01 -0.18659093889E+02  0.19449465947E+02  0.51100000000E-03 0.  1.
         11    1    1    0    0    0 -0.24566851263E+01  0.14126606093E+02 -0.40609480992E+02  0.43066532809E+02  0.51100000000E-03 0. -1.
         22    1    1    0    0    0  0.26146622815E+01 -0.19612495611E+02  0.59268574881E+02  0.62484001244E+02  0.00000000000E+00 0. -1.
</event>
<event>
 4    1  0.1956390E-002  0.9118800E+02  0.7818608E-02  0.1130116E+00
         25   -1    0    0    0    0  0.00000000000E+00  0.00000000000E+00  0.99999998245E-14  0.12500000000E+03  0.12500000000E+03 0.  0.
        -11    1    1    0    0    0 -0.26549581047E+02  0.14744788335E+01 -0.52421088996E+02  0.58779459962E+02  0.51100000000E-03 0.  1.
         11    1    1    0    0    0 -0.36856936043E+01 -0.86604646345E+00 -0.17568658650E+01  0.41738413662E+01  0.51100000000E-03 0. -1.
         22    1    1    0    0    0  0.30235274651E+02 -0.60843237007E+00  0.54177954861E+02  0.62046698672E+02  0.00000000000E+00 0.  1.
</event>
<event>
 4    1  0.1956390E-002  0.9118800E+02  0.7818608E-02  0.1130116E+00
         25   -1    0    0    0    0  0.00000000000E+00  0.00000000000E+00  0.99999998245E-14  0.12500000000E+03  0.12500000000E+03 0.  0.
        -11    1    1    0    0    0  0.31698034344E+02 -0.17996165528E+02 -0.17516933096E+02  0.40440948311E+02  0.51100000000E-03 0. -1.
         11    1    1    0    0    0  0.17046836256E+02 -0.96254257091E+01 -0.10174150456E+02  0.22062565223E+02  0.51100000000E-03 0.  1.
         22    1    1    0    0    0 -0.48744870600E+02  0.27621591237E+02  0.27691083553E+02  0.62496486466E+02  0.00000000000E+00 0. -1.
</event>
<event>
 4    1  0.1956390E-002  0.9118800E+02  0.7818608E-02  0.1130116E+00
         25   -1    0    0    0    0  0.00000000000E+00  0.00000000000E+00  0.99999998245E-14  0.12500000000E+03  0.12500000000E+03 0.  0.
        -11    1    1    0    0    0 -0.17637157521E+02  0.70373852099E+01 -0.25940506672E+01  0.19165678050E+02  0.51100000000E-03 0. -1.
         11    1    1    0    0    0 -0.39630921961E+02  0.16377754012E+02 -0.62520612702E+01  0.43335079005E+02  0.51100000000E-03 0.  1.
         22    1    1    0    0    0  0.57268079482E+02 -0.23415139222E+02  0.88461119374E+01  0.62499242945E+02  0.00000000000E+00 0.  1.
</event>
<event>
 4    1  0.1956390E-002  0.9118800E+02  0.7818608E-02  0.1130116E+00
         25   -1    0    0    0    0  0.00000000000E+00  0.00000000000E+00  0.99999998245E-14  0.12500000000E+03  0.12500000000E+03 0.  0.
        -11    1    1    0    0    0 -0.46223298383E+02  0.14403278022E+01 -0.29463257726E+02  0.54833852807E+02  0.51100000000E-03 0.  1.
         11    1    1    0    0    0 -0.64643240832E+01  0.32108867115E+00 -0.41092045165E+01  0.76665602330E+01  0.51100000000E-03 0. -1.
         22    1    1    0    0    0  0.52687622466E+02 -0.17614164734E+01  0.33572462242E+02  0.62499586960E+02  0.00000000000E+00 0.  1.
</event>
<event>
 4    1  0.1956390E-002  0.9118800E+02  0.7818608E-02  0.1130116E+00
         25   -1    0    0    0    0  0.00000000000E+00  0.00000000000E+00  0.99999998245E-14  0.12500000000E+03  0.12500000000E+03 0.  0.
        -11    1    1    0    0    0 -0.42936562420E+02 -0.37048366480E+02 -0.15679163261E+02  0.58838473911E+02  0.51100000000E-03 0.  1.
         11    1    1    0    0    0 -0.26687023885E+01 -0.23078168595E+01 -0.97918086469E+00  0.36615278945E+01  0.51100000000E-03 0. -1.
         22    1    1    0    0    0  0.45605264809E+02  0.39356183340E+02  0.16658344126E+02  0.62499998195E+02  0.00000000000E+00 0.  1.
</event>
<event>
 4    1  0.1956390E-002  0.9118800E+02  0.7818608E-02  0.1130116E+00
         25   -1    0    0    0    0  0.00000000000E+00  0.00000000000E+00  0.99999998245E-14  0.12500000000E+03  0.12500000000E+03 0.  0.
        -11    1    1    0    0    0  0.17559242879E+01  0.91542431592E+01 -0.64700765598E+01  0.11346599882E+02  0.51100000000E-03 0.  1.
         11    1    1    0    0    0  0.79313788488E+01  0.41279196016E+02 -0.29151185349E+02  0.51153400686E+02  0.51100000000E-03 0. -1.
         22    1    1    0    0    0 -0.96873031366E+01 -0.50433439176E+02  0.35621261909E+02  0.62499999433E+02  0.00000000000E+00 0. -1.
</event>
<event>
 4    1  0.1956390E-002  0.9118800E+02  0.7818608E-02  0.1130116E+00
         25   -1    0    0    0    0  0.00000000000E+00  0.00000000000E+00  0.99999998245E-14  0.12500000000E+03  0.12500000000E+03 0.  0.
        -11    1    1    0    0    0  0.55982861421E+01  0.46184565528E+01  0.34354118647E+01  0.80295083038E+01  0.51100000000E-03 0. -1.
         11    1    1    0    0    0  0.37963577540E+02  0.31358670781E+02  0.23290235956E+02  0.54470492415E+02  0.51100000000E-03 0.  1.
         22    1    1    0    0    0 -0.43561863682E+02 -0.35977127334E+02 -0.26725647820E+02  0.62499999281E+02  0.00000000000E+00 0.  1.
</event>
<event>
 4    1  0.1956390E-002  0.9118800E+02  0.7818608E-02  0.1130116E+00
         25   -1    0    0    0    0  0.00000000000E+00  0.00000000000E+00  0.99999998245E-14  0.12500000000E+03  0.12500000000E+03 0.  0.
        -11    1    1    0    0    0 -0.17284202770E+02  0.15140145449E+02 -0.72109989862E+00  0.22988859366E+02  0.51100000000E-03 0.  1.
         11    1    1    0    0    0 -0.30066443888E+02  0.25625930260E+02 -0.74105113275E+00  0.39512384221E+02  0.51100000000E-03 0. -1.
         22    1    1    0    0    0  0.47350646658E+02 -0.40766075709E+02  0.14621510314E+01  0.62498756414E+02  0.00000000000E+00 0. -1.
</event>
<event>
 4    1  0.1956390E-002  0.9118800E+02  0.7818608E-02  0.1130116E+00
         25   -1    0    0    0    0  0.00000000000E+00  0.00000000000E+00  0.99999998245E-14  0.12500000000E+03  0.12500000000E+03 0.  0.
        -11    1    1    0    0    0  0.11791811021E+01  0.64990909173E+01  0.17643926158E+02  0.18839765958E+02  0.51100000000E-03 0.  1.
         11    1    1    0    0    0  0.18141748843E+02  0.40341227604E+02  0.14031961327E+02  0.46405103541E+02  0.51100000000E-03 0. -1.
         22    1    1    0    0    0 -0.19320929945E+02 -0.46840318522E+02 -0.31675887485E+02  0.59755130501E+02  0.00000000000E+00 0.  1.
</event>
<event>
 4    1  0.1956390E-002  0.9118800E+02  0.7818608E-02  0.1130116E+00
         25   -1    0    0    0    0  0.00000000000E+00  0.00000000000E+00  0.99999998245E-14  0.12500000000E+03  0.12500000000E+03 0.  0.
        -11    1    1    0    0    0  0.19727852735E+02  0.51856213081E+01 -0.13950047405E+02  0.24711994349E+02  0.51100000000E-03 0.  1.
         11    1    1    0    0    0  0.26510022255E+02 -0.10285437871E+02 -0.26330325229E+02  0.38753806769E+02  0.51100000000E-03 0. -1.
         22    1    1    0    0    0 -0.46237874989E+02  0.50998165631E+01  0.40280372634E+02  0.61534198882E+02  0.00000000000E+00 0. -1.
</event>
<event>
 4    1  0.1956390E-002  0.9118800E+02  0.7818608E-02  0.1130116E+00
         25   -1    0    0    0    0  0.00000000000E+00  0.00000000000E+00  0.99999998245E-14  0.12500000000E+03  0.12500000000E+03 0.  0.
        -11    1    1    0    0    0 -0.71237562954E+01 -0.10527070212E+02 -0.24281927543E+02  0.27407647044E+02  0.51100000000E-03 0. -1.
         11    1    1    0    0    0 -0.18497150592E+02  0.67334021560E+01 -0.30898348897E+02  0.36635928396E+02  0.51100000000E-03 0.  1.
         22    1    1    0    0    0  0.25620906888E+02  0.37936680561E+01  0.55180276440E+02  0.60956424560E+02  0.00000000000E+00 0.  1.
</event>
<event>
 4    1  0.1956390E-002  0.9118800E+02  0.7818608E-02  0.1130116E+00
         25   -1    0    0    0    0  0.00000000000E+00  0.00000000000E+00  0.99999998245E-14  0.12500000000E+03  0.12500000000E+03 0.  0.
        -11    1    1    0    0    0 -0.99843620050E+00  0.15840310098E+02  0.27146147748E+01  0.16102218247E+02  0.51100000000E-03 0.  1.
         11    1    1    0    0    0 -0.28372373978E+01  0.45610180491E+02  0.80262935833E+01  0.46397843370E+02  0.51100000000E-03 0. -1.
         22    1    1    0    0    0  0.38356735983E+01 -0.61450490588E+02 -0.10740908358E+02  0.62499938383E+02  0.00000000000E+00 0. -1.
</event>
<event>
 4    1  0.1956390E-002  0.9118800E+02  0.7818608E-02  0.1130116E+00
         25   -1    0    0    0    0  0.00000000000E+00  0.00000000000E+00  0.99999998245E-14  0.12500000000E+03  0.12500000000E+03 0.  0.
        -11    1    1    0    0    0  0.12206578351E+02 -0.39291148823E+02 -0.26085092196E+02  0.48715777383E+02  0.51100000000E-03 0.  1.
         11    1    1    0    0    0  0.34555818893E+01 -0.11116893508E+02 -0.73809502696E+01  0.13784222670E+02  0.51100000000E-03 0. -1.
         22    1    1    0    0    0 -0.15662160240E+02  0.50408042332E+02  0.33466042465E+02  0.62499999947E+02  0.00000000000E+00 0. -1.
</event>
<event>
 4    1  0.1956390E-002  0.9118800E+02  0.7818608E-02  0.1130116E+00
         25   -1    0    0    0    0  0.00000000000E+00  0.00000000000E+00  0.99999998245E-14  0.12500000000E+03  0.12500000000E+03 0.  0.
        -11    1    1    0    0    0 -0.38697368131E+01 -0.34553831002E+02  0.27123677294E+01  0.34875479049E+02  0.51100000000E-03 0. -1.
         11    1    1    0    0    0  0.28467014432E+02 -0.16857728701E+02 -0.45877219458E+00  0.33087224117E+02  0.51100000000E-03 0.  1.
         22    1    1    0    0    0 -0.24597277618E+02  0.51411559703E+02 -0.22535955348E+01  0.57037296834E+02  0.00000000000E+00 0. -1.
</event>
<event>
 4    1  0.1956390E-002  0.9118800E+02  0.7818608E-02  0.1130116E+00
         25   -1    0    0    0    0  0.00000000000E+00  0.00000000000E+00  0.99999998245E-14  0.12500000000E+03  0.12500000000E+03 0.  0.
        -11    1    1    0    0    0  0.13380992089E+02  0.36270000798E+02  0.12079471092E+02  0.40502808906E+02  0.51100000000E-03 0.  1.
         11    1    1    0    0    0  0.71256064575E+01  0.19777752328E+02  0.64771484138E+01  0.21997436359E+02  0.51100000000E-03 0. -1.
         22    1    1    0    0    0 -0.20506598546E+02 -0.56047753126E+02 -0.18556619506E+02  0.62499754735E+02  0.00000000000E+00 0.  1.
</event>
<event>
 4    1  0.1956390E-002  0.9118800E+02  0.7818608E-02  0.1130116E+00
         25   -1    0    0    0    0  0.00000000000E+00  0.00000000000E+00  0.99999998245E-14  0.12500000000E+03  0.12500000000E+03 0.  0.
        -11    1    1    0    0    0 -0.22326572839E+01 -0.38321690449E+02 -0.67574318087E+00  0.38392620991E+02  0.51100000000E-03 0. -1.
         11    1    1    0    0    0 -0.14444750625E+01 -0.24061275179E+02 -0.36846436522E+00  0.24107410431E+02  0.51100000000E-03 0.  1.
         22    1    1    0    0    0  0.36771323464E+01  0.62382965628E+02  0.10442075461E+01  0.62499968578E+02  0.00000000000E+00 0. -1.
</event>
<event>
 4    1  0.1956390E-002  0.9118800E+02  0.7818608E-02  0.1130116E+00
         25   -1    0    0    0    0  0.00000000000E+00  0.00000000000E+00  0.99999998245E-14  0.12500000000E+03  0.12500000000E+03 0.  0.
        -11    1    1    0    0    0  0.32669740827E+02  0.82490546920E+01 -0.44847767863E+02  0.56095286357E+02  0.51100000000E-03 0.  1.
         11    1    1    0    0    0  0.37982511057E+01  0.11263487463E+01 -0.50344485518E+01  0.64063285462E+01  0.51100000000E-03 0. -1.
         22    1    1    0    0    0 -0.36467991933E+02 -0.93754034382E+01  0.49882216414E+02  0.62498385096E+02  0.00000000000E+00 0.  1.
</event>
<event>
 4    1  0.1956390E-002  0.9118800E+02  0.7818608E-02  0.1130116E+00
         25   -1    0    0    0    0  0.00000000000E+00  0.00000000000E+00  0.99999998245E-14  0.12500000000E+03  0.12500000000E+03 0.  0.
        -11    1    1    0    0    0 -0.37042699384E+02  0.28910054437E+02 -0.30309986843E+02  0.55916438799E+02  0.51100000000E-03 0. -1.
         11    1    1    0    0    0 -0.47484481689E+01  0.29913253915E+01 -0.34634745133E+01  0.65948042864E+01  0.51100000000E-03 0.  1.
         22    1    1    0    0    0  0.41791147553E+02 -0.31901379829E+02  0.33773461356E+02  0.62488756915E+02  0.00000000000E+00 0. -1.
</event>
<event>
 4    1  0.1956390E-002  0.9118800E+02  0.7818608E-02  0.1130116E+00
         25   -1    0    0    0    0  0.00000000000E+00  0.00000000000E+00  0.99999998245E-14  0.12500000000E+03  0.12500000000E+03 0.  0.
        -11    1    1    0    0    0  0.50890321444E+02  0.23793922521E+01 -0.11203180561E+02  0.52163182218E+02  0.51100000000E-03 0. -1.
         11    1    1    0    0    0  0.10083073338E+02  0.46104695160E+00 -0.22291142577E+01  0.10336821700E+02  0.51100000000E-03 0.  1.
         22    1    1    0    0    0 -0.60973394782E+02 -0.28404392037E+01  0.13432294818E+02  0.62499996082E+02  0.00000000000E+00 0. -1.
</event>
<event>
 4    1  0.1956390E-002  0.9118800E+02  0.7818608E-02  0.1130116E+00
         25   -1    0    0    0    0  0.00000000000E+00  0.00000000000E+00  0.99999998245E-14  0.12500000000E+03  0.12500000000E+03 0.  0.
        -11    1    1    0    0    0 -0.21178637462E+02 -0.14390074927E+02  0.64295964592E+01  0.26399785076E+02  0.51100000000E-03 0. -1.
         11    1    1    0    0    0 -0.29086323437E+02 -0.19441072541E+02  0.89035827170E+01  0.36100461189E+02  0.51100000000E-03 0.  1.
         22    1    1    0    0    0  0.50264960899E+02  0.33831147468E+02 -0.15333179176E+02  0.62499753735E+02  0.00000000000E+00 0.  1.
</event>
<event>
 4    1  0.1956390E-002  0.9118800E+02  0.7818608E-02  0.1130116E+00
         25   -1    0    0    0    0  0.00000000000E+00  0.00000000000E+00  0.99999998245E-14  0.12500000000E+03  0.12500000000E+03 0.  0.
        -11    1    1    0    0    0 -0.83695396672E+01  0.25196375209E+02  0.24811420287E+01  0.26665756767E+02  0.51100000000E-03 0. -1.
         11    1    1    0    0    0 -0.10430853709E+02  0.34128311996E+02  0.32721555517E+01  0.35836453382E+02  0.51100000000E-03 0.  1.
         22    1    1    0    0    0  0.18800393376E+02 -0.59324687206E+02 -0.57532975803E+01  0.62497789851E+02  0.00000000000E+00 0.  1.
</event>
<event>
 4    1  0.1956390E-002  0.9118800E+02  0.7818608E-02  0.1130116E+00
         25   -1    0    0    0    0  0.00000000000E+00  0.00000000000E+00  0.99999998245E-14  0.12500000000E+03  0.12500000000E+03 0.  0.
        -11    1    1    0    0    0  0.38001211715E+02  0.32160991689E+01  0.28973244298E+01  0.38246959027E+02  0.51100000000E-03 0. -1.
         11    1    1    0    0    0  0.24097116421E+02  0.20395802899E+01  0.18382298912E+01  0.24253040984E+02  0.51100000000E-03 0. -1.
         22    1    1    0    0    0 -0.62098328136E+02 -0.52556794587E+01 -0.47355543210E+01  0.62499999989E+02  0.00000000000E+00 0. -1.
</event>
<event>
 4    1  0.1956390E-002  0.9118800E+02  0.7818608E-02  0.1130116E+00
         25   -1    0    0    0    0  0.00000000000E+00  0.00000000000E+00  0.99999998245E-14  0.12500000000E+03  0.12500000000E+03 0.  0.
        -11    1    1    0    0    0  0.31065788788E+02  0.31917740360E+02  0.11260276640E+02  0.45941475956E+02  0.51100000000E-03 0.  1.
         11    1    1    0    0    0  0.12805591088E+02  0.10929349023E+02 -0.84365457651E+00  0.16856618478E+02  0.51100000000E-03 0. -1.
         22    1    1    0    0    0 -0.43871379877E+02 -0.42847089383E+02 -0.10416622064E+02  0.62201905567E+02  0.00000000000E+00 0.  1.
</event>
<event>
 4    1  0.1956390E-002  0.9118800E+02  0.7818608E-02  0.1130116E+00
         25   -1    0    0    0    0  0.00000000000E+00  0.00000000000E+00  0.99999998245E-14  0.12500000000E+03  0.12500000000E+03 0.  0.
        -11    1    1    0    0    0  0.97686175494E+01 -0.14428800781E+02  0.36023045003E+01  0.17793054229E+02  0.51100000000E-03 0.  1.
         11    1    1    0    0    0  0.24544145020E+02 -0.36254531088E+02  0.90501337787E+01  0.44706945779E+02  0.51100000000E-03 0.  1.
         22    1    1    0    0    0 -0.34312762570E+02  0.50683331870E+02 -0.12652438279E+02  0.62499999992E+02  0.00000000000E+00 0.  1.
</event>
<event>
 4    1  0.1956390E-002  0.9118800E+02  0.7818608E-02  0.1130116E+00
         25   -1    0    0    0    0  0.00000000000E+00  0.00000000000E+00  0.99999998245E-14  0.12500000000E+03  0.12500000000E+03 0.  0.
        -11    1    1    0    0    0  0.12983616772E+02  0.44525252387E+02  0.41464816504E+01  0.46564640178E+02  0.51100000000E-03 0. -1.
         11    1    1    0    0    0  0.44441382298E+01  0.15237315073E+02  0.14175889342E+01  0.15935359860E+02  0.51100000000E-03 0. -1.
         22    1    1    0    0    0 -0.17427755002E+02 -0.59762567459E+02 -0.55640705846E+01  0.62499999962E+02  0.00000000000E+00 0. -1.
</event>
<event>
 4    1  0.1956390E-002  0.9118800E+02  0.7818608E-02  0.1130116E+00
         25   -1    0    0    0    0  0.00000000000E+00  0.00000000000E+00  0.99999998245E-14  0.12500000000E+03  0.12500000000E+03 0.  0.
        -11    1    1    0    0    0  0.17634821000E+02  0.63457657120E+01  0.49153084372E+00  0.18748260106E+02  0.51100000000E-03 0. -1.
         11    1    1    0    0    0  0.41159137624E+02  0.14792947216E+02  0.11440674850E+01  0.43751740399E+02  0.51100000000E-03 0.  1.
         22    1    1    0    0    0 -0.58793958624E+02 -0.21138712929E+02 -0.16355983288E+01  0.62499999495E+02  0.00000000000E+00 0.  1.
</event>
<event>
 4    1  0.1956390E-002  0.9118800E+02  0.7818608E-02  0.1130116E+00
         25   -1    0    0    0    0  0.00000000000E+00  0.00000000000E+00  0.99999998245E-14  0.12500000000E+03  0.12500000000E+03 0.  0.
        -11    1    1    0    0    0  0.25994383868E+01  0.26968794865E+02  0.10834651743E+02  0.29179833020E+02  0.51100000000E-03 0. -1.
         11    1    1    0    0    0  0.30582206954E+01  0.30701691302E+02  0.12581779620E+02  0.33320380269E+02  0.51100000000E-03 0.  1.
         22    1    1    0    0    0 -0.56576590822E+01 -0.57670486168E+02 -0.23416431363E+02  0.62499786711E+02  0.00000000000E+00 0. -1.
</event>
<event>
 4    1  0.1956390E-002  0.9118800E+02  0.7818608E-02  0.1130116E+00
         25   -1    0    0    0    0  0.00000000000E+00  0.00000000000E+00  0.99999998245E-14  0.12500000000E+03  0.12500000000E+03 0.  0.
        -11    1    1    0    0    0 -0.14364063928E+02  0.10400599316E+02 -0.24065775138E+02  0.29894152136E+02  0.51100000000E-03 0. -1.
         11    1    1    0    0    0 -0.15663991464E+02  0.11338430611E+02 -0.26253013001E+02  0.32605848083E+02  0.51100000000E-03 0.  1.
         22    1    1    0    0    0  0.30028055392E+02 -0.21739029926E+02  0.50318788140E+02  0.62499999781E+02  0.00000000000E+00 0. -1.
</event>
<event>
 4    1  0.1956390E-002  0.9118800E+02  0.7818608E-02  0.1130116E+00
         25   -1    0    0    0    0  0.00000000000E+00  0.00000000000E+00  0.99999998245E-14  0.12500000000E+03  0.12500000000E+03 0.  0.
        -11    1    1    0    0    0  0.57161425739E+02 -0.13870909484E+02  0.97478179876E+01  0.59622568531E+02  0.51100000000E-03 0.  1.
         11    1    1    0    0    0  0.27587535832E+01 -0.66933303284E+00  0.46998276426E+00  0.28774315111E+01  0.51100000000E-03 0. -1.
         22    1    1    0    0    0 -0.59920179323E+02  0.14540242517E+02 -0.10217800752E+02  0.62499999958E+02  0.00000000000E+00 0.  1.
</event>
<event>
 4    1  0.1956390E-002  0.9118800E+02  0.7818608E-02  0.1130116E+00
         25   -1    0    0    0    0  0.00000000000E+00  0.00000000000E+00  0.99999998245E-14  0.12500000000E+03  0.12500000000E+03 0.  0.
        -11    1    1    0    0    0  0.10881116773E+02 -0.94543773918E+01  0.20591925942E+02  0.25135858219E+02  0.51100000000E-03 0. -1.
         11    1    1    0    0    0  0.16174078282E+02 -0.14054243982E+02  0.30609745328E+02  0.37364141787E+02  0.51100000000E-03 0. -1.
         22    1    1    0    0    0 -0.27055195056E+02  0.23508621373E+02 -0.51201671271E+02  0.62499999994E+02  0.00000000000E+00 0. -1.
</event>
<event>
 4    1  0.1956390E-002  0.9118800E+02  0.7818608E-02  0.1130116E+00
         25   -1    0    0    0    0  0.00000000000E+00  0.00000000000E+00  0.99999998245E-14  0.12500000000E+03  0.12500000000E+03 0.  0.
        -11    1    1    0    0    0  0.40645666939E+01 -0.83489498107E+00  0.49893332765E+02  0.50065581058E+02  0.51100000000E-03 0. -1.
         11    1    1    0    0    0  0.10188793541E+01 -0.25123129813E+00  0.12390090772E+02  0.12434451411E+02  0.51100000000E-03 0.  1.
         22    1    1    0    0    0 -0.50834460480E+01  0.10861262792E+01 -0.62283423536E+02  0.62499967531E+02  0.00000000000E+00 0. -1.
</event>
<event>
 4    1  0.1956390E-002  0.9118800E+02  0.7818608E-02  0.1130116E+00
         25   -1    0    0    0    0  0.00000000000E+00  0.00000000000E+00  0.99999998245E-14  0.12500000000E+03  0.12500000000E+03 0.  0.
        -11    1    1    0    0    0  0.21986099709E+00 -0.44061414850E+00  0.92065068652E+00  0.10440678300E+01  0.51100000000E-03 0. -1.
         11    1    1    0    0    0  0.13247817373E+02 -0.25756309874E+02  0.54202772032E+02  0.61455940801E+02  0.51100000000E-03 0.  1.
         22    1    1    0    0    0 -0.13467678370E+02  0.26196924022E+02 -0.55123422719E+02  0.62499991369E+02  0.00000000000E+00 0.  1.
</event>
<event>
 4    1  0.1956390E-002  0.9118800E+02  0.7818608E-02  0.1130116E+00
         25   -1    0    0    0    0  0.00000000000E+00  0.00000000000E+00  0.99999998245E-14  0.12500000000E+03  0.12500000000E+03 0.  0.
        -11    1    1    0    0    0  0.24050407323E+01 -0.34299382388E+01  0.41614502255E+02  0.41824819132E+02  0.51100000000E-03 0.  1.
         11    1    1    0    0    0  0.56832573489E+00 -0.22382282106E+00  0.20686911972E+02  0.20695927570E+02  0.51100000000E-03 0. -1.
         22    1    1    0    0    0 -0.29733664672E+01  0.36537610599E+01 -0.62301414227E+02  0.62479253298E+02  0.00000000000E+00 0.  1.
</event>
<event>
 4    1  0.1956390E-002  0.9118800E+02  0.7818608E-02  0.1130116E+00
         25   -1    0    0    0    0  0.00000000000E+00  0.00000000000E+00  0.99999998245E-14  0.12500000000E+03  0.12500000000E+03 0.  0.
        -11    1    1    0    0    0 -0.35160041368E+02  0.14313466402E+01 -0.32010050421E+02  0.47570164919E+02  0.51100000000E-03 0.  1.
         11    1    1    0    0    0 -0.10837407572E+02  0.81499969450E+00 -0.10240432438E+02  0.14932517677E+02  0.51100000000E-03 0. -1.
         22    1    1    0    0    0  0.45997448940E+02 -0.22463463347E+01  0.42250482859E+02  0.62497317404E+02  0.00000000000E+00 0.  1.
</event>
<event>
 4    1  0.1956390E-002  0.9118800E+02  0.7818608E-02  0.1130116E+00
         25   -1    0    0    0    0  0.00000000000E+00  0.00000000000E+00  0.99999998245E-14  0.12500000000E+03  0.12500000000E+03 0.  0.
        -11    1    1    0    0    0  0.80623601742E+01  0.15080107003E+02 -0.13611511846E+02  0.21855995374E+02  0.51100000000E-03 0. -1.
         11    1    1    0    0    0  0.16970002112E+02  0.31334104039E+02 -0.19751449247E+02  0.40742199194E+02  0.51100000000E-03 0.  1.
         22    1    1    0    0    0 -0.25032362286E+02 -0.46414211042E+02  0.33362961092E+02  0.62401805432E+02  0.00000000000E+00 0.  1.
</event>
<event>
 4    1  0.1956390E-002  0.9118800E+02  0.7818608E-02  0.1130116E+00
         25   -1    0    0    0    0  0.00000000000E+00  0.00000000000E+00  0.99999998245E-14  0.12500000000E+03  0.12500000000E+03 0.  0.
        -11    1    1    0    0    0  0.22505359088E+02 -0.53885881799E+01  0.52735031021E+01  0.23734740476E+02  0.51100000000E-03 0. -1.
         11    1    1    0    0    0  0.36286349614E+02 -0.10564520424E+02  0.86643098982E+01  0.38773425518E+02  0.51100000000E-03 0.  1.
         22    1    1    0    0    0 -0.58791708702E+02  0.15953108604E+02 -0.13937813000E+02  0.62491834006E+02  0.00000000000E+00 0.  1.
</event>
<event>
 4    1  0.1956390E-002  0.9118800E+02  0.7818608E-02  0.1130116E+00
         25   -1    0    0    0    0  0.00000000000E+00  0.00000000000E+00  0.99999998245E-14  0.12500000000E+03  0.12500000000E+03 0.  0.
        -11    1    1    0    0    0 -0.13670136627E+01 -0.84423288843E+01 -0.22107028655E+01  0.88333940682E+01  0.51100000000E-03 0. -1.
         11    1    1    0    0    0 -0.80645695325E+01 -0.51329052814E+02 -0.13431300891E+02  0.53666645026E+02  0.51100000000E-03 0.  1.
         22    1    1    0    0    0  0.94315831953E+01  0.59771381698E+02  0.15642003757E+02  0.62499960905E+02  0.00000000000E+00 0.  1.
</event>
<event>
 4    1  0.1956390E-002  0.9118800E+02  0.7818608E-02  0.1130116E+00
         25   -1    0    0    0    0  0.00000000000E+00  0.00000000000E+00  0.99999998245E-14  0.12500000000E+03  0.12500000000E+03 0.  0.
        -11    1    1    0    0    0 -0.66176099814E+01  0.10750401892E+02 -0.20505698914E+02  0.24080024728E+02  0.51100000000E-03 0.  1.
         11    1    1    0    0    0 -0.10559268620E+02  0.17151708928E+02 -0.32717200785E+02  0.38419975279E+02  0.51100000000E-03 0.  1.
         22    1    1    0    0    0  0.17176878602E+02 -0.27902110820E+02  0.53222899699E+02  0.62499999993E+02  0.00000000000E+00 0.  1.
</event>
<event>
 4    1  0.1956390E-002  0.9118800E+02  0.7818608E-02  0.1130116E+00
         25   -1    0    0    0    0  0.00000000000E+00  0.00000000000E+00  0.99999998245E-14  0.12500000000E+03  0.12500000000E+03 0.  0.
        -11    1    1    0    0    0  0.50983200088E+02  0.10312633677E+02  0.26598319698E+02  0.58421808561E+02  0.51100000000E-03 0. -1.
         11    1    1    0    0    0  0.30017001939E+01  0.26512252924E+01  0.15943203523E+01  0.43105750489E+01  0.51100000000E-03 0.  1.
         22    1    1    0    0    0 -0.53984900282E+02 -0.12963858970E+02 -0.28192640051E+02  0.62267616390E+02  0.00000000000E+00 0. -1.
</event>
<event>
 4    1  0.1956390E-002  0.9118800E+02  0.7818608E-02  0.1130116E+00
         25   -1    0    0    0    0  0.00000000000E+00  0.00000000000E+00  0.99999998245E-14  0.12500000000E+03  0.12500000000E+03 0.  0.
        -11    1    1    0    0    0 -0.15738988024E+02  0.23198691039E+02 -0.21121478871E+02  0.35100026780E+02  0.51100000000E-03 0.  1.
         11    1    1    0    0    0 -0.12230587146E+02  0.18172322188E+02 -0.16460260359E+02  0.27400013266E+02  0.51100000000E-03 0. -1.
         22    1    1    0    0    0  0.27969575170E+02 -0.41371013227E+02  0.37581739231E+02  0.62499959954E+02  0.00000000000E+00 0.  1.
</event>
<event>
 4    1  0.1956390E-002  0.9118800E+02  0.7818608E-02  0.1130116E+00
         25   -1    0    0    0    0  0.00000000000E+00  0.00000000000E+00  0.99999998245E-14  0.12500000000E+03  0.12500000000E+03 0.  0.
        -11    1    1    0    0    0  0.30186713728E+01 -0.60835398046E+02  0.11391413523E+01  0.60920896871E+02  0.51100000000E-03 0. -1.
         11    1    1    0    0    0  0.81029403511E-01 -0.15766908954E+01  0.32475435571E-01  0.15791057149E+01  0.51100000000E-03 0.  1.
         22    1    1    0    0    0 -0.30997007763E+01  0.62412088941E+02 -0.11716167879E+01  0.62499997414E+02  0.00000000000E+00 0. -1.
</event>
<event>
 4    1  0.1956390E-002  0.9118800E+02  0.7818608E-02  0.1130116E+00
         25   -1    0    0    0    0  0.00000000000E+00  0.00000000000E+00  0.99999998245E-14  0.12500000000E+03  0.12500000000E+03 0.  0.
        -11    1    1    0    0    0 -0.33463434777E+01  0.20556715058E+01  0.32359352455E+01  0.50887205843E+01  0.51100000000E-03 0. -1.
         11    1    1    0    0    0 -0.38322361941E+02  0.22430239715E+02  0.36391939749E+02  0.57411604727E+02  0.51100000000E-03 0.  1.
         22    1    1    0    0    0  0.41668705418E+02 -0.24485911221E+02 -0.39627874995E+02  0.62499674688E+02  0.00000000000E+00 0.  1.
</event>
<event>
 4    1  0.1956390E-002  0.9118800E+02  0.7818608E-02  0.1130116E+00
         25   -1    0    0    0    0  0.00000000000E+00  0.00000000000E+00  0.99999998245E-14  0.12500000000E+03  0.12500000000E+03 0.  0.
        -11    1    1    0    0    0 -0.26727550603E+01 -0.85311579992E+01  0.21804681123E+01  0.92021039914E+01  0.51100000000E-03 0. -1.
         11    1    1    0    0    0 -0.14313226243E+02 -0.48992693071E+02  0.15368111119E+02  0.53304139234E+02  0.51100000000E-03 0.  1.
         22    1    1    0    0    0  0.16985981304E+02  0.57523851070E+02 -0.17548579232E+02  0.62493756775E+02  0.00000000000E+00 0.  1.
</event>
<event>
 4    1  0.1956390E-002  0.9118800E+02  0.7818608E-02  0.1130116E+00
         25   -1    0    0    0    0  0.00000000000E+00  0.00000000000E+00  0.99999998245E-14  0.12500000000E+03  0.12500000000E+03 0.  0.
        -11    1    1    0    0    0 -0.44655029366E+01  0.63107143098E+01 -0.83756533486E+01  0.11398131463E+02  0.51100000000E-03 0. -1.
         11    1    1    0    0    0 -0.20021101944E+02  0.28295366581E+02 -0.37549016981E+02  0.51101868552E+02  0.51100000000E-03 0. -1.
         22    1    1    0    0    0  0.24486604880E+02 -0.34606080890E+02  0.45924670330E+02  0.62499999985E+02  0.00000000000E+00 0. -1.
</event>
<event>
 4    1  0.1956390E-002  0.9118800E+02  0.7818608E-02  0.1130116E+00
         25   -1    0    0    0    0  0.00000000000E+00  0.00000000000E+00  0.99999998245E-14  0.12500000000E+03  0.12500000000E+03 0.  0.
        -11    1    1    0    0    0  0.28113345737E+00  0.17665248675E+00  0.13367017588E+01  0.13773213042E+01  0.51100000000E-03 0.  1.
         11    1    1    0    0    0 -0.57612953908E+02 -0.20983023888E+02  0.83042617756E+01  0.61874877886E+02  0.51100000000E-03 0. -1.
         22    1    1    0    0    0  0.57331820450E+02  0.20806371402E+02 -0.96409635344E+01  0.61747800810E+02  0.00000000000E+00 0. -1.
</event>
<event>
 4    1  0.1956390E-002  0.9118800E+02  0.7818608E-02  0.1130116E+00
         25   -1    0    0    0    0  0.00000000000E+00  0.00000000000E+00  0.99999998245E-14  0.12500000000E+03  0.12500000000E+03 0.  0.
        -11    1    1    0    0    0 -0.47916830980E+01  0.76585905662E+01 -0.40392946948E+01  0.98959657570E+01  0.51100000000E-03 0.  1.
         11    1    1    0    0    0 -0.25438017281E+02  0.40725082097E+02 -0.21483935842E+02  0.52604035344E+02  0.51100000000E-03 0. -1.
         22    1    1    0    0    0  0.30229700379E+02 -0.48383672663E+02  0.25523230536E+02  0.62499998899E+02  0.00000000000E+00 0. -1.
</event>
<event>
 4    1  0.1956390E-002  0.9118800E+02  0.7818608E-02  0.1130116E+00
         25   -1    0    0    0    0  0.00000000000E+00  0.00000000000E+00  0.99999998245E-14  0.12500000000E+03  0.12500000000E+03 0.  0.
        -11    1    1    0    0    0  0.41957638878E+01  0.98210529980E+00  0.11798634119E+02  0.12560920856E+02  0.51100000000E-03 0. -1.
         11    1    1    0    0    0  0.15967585099E+02  0.23698923631E+01  0.47261314574E+02  0.49942086653E+02  0.51100000000E-03 0.  1.
         22    1    1    0    0    0 -0.20163348987E+02 -0.33519976629E+01 -0.59059948693E+02  0.62496992491E+02  0.00000000000E+00 0.  1.
</event>
<event>
 4    1  0.1956390E-002  0.9118800E+02  0.7818608E-02  0.1130116E+00
         25   -1    0    0    0    0  0.00000000000E+00  0.00000000000E+00  0.99999998245E-14  0.12500000000E+03  0.12500000000E+03 0.  0.
        -11    1    1    0    0    0  0.12649195921E+02  0.13518841817E+02 -0.53281819661E+02  0.56406679996E+02  0.51100000000E-03 0.  1.
         11    1    1    0    0    0  0.14291148492E+01  0.14693972273E+01 -0.57383793438E+01  0.60934797299E+01  0.51100000000E-03 0. -1.
         22    1    1    0    0    0 -0.14078310771E+02 -0.14988239044E+02  0.59020199004E+02  0.62499840274E+02  0.00000000000E+00 0.  1.
</event>
<event>
 4    1  0.1956390E-002  0.9118800E+02  0.7818608E-02  0.1130116E+00
         25   -1    0    0    0    0  0.00000000000E+00  0.00000000000E+00  0.99999998245E-14  0.12500000000E+03  0.12500000000E+03 0.  0.
        -11    1    1    0    0    0 -0.22669140294E+01  0.22262959873E+02  0.28304439503E+02  0.36082122684E+02  0.51100000000E-03 0.  1.
         11    1    1    0    0    0 -0.16665712641E+01  0.16296695562E+02  0.20725455696E+02  0.26417877660E+02  0.51100000000E-03 0. -1.
         22    1    1    0    0    0  0.39334852934E+01 -0.38559655434E+02 -0.49029895199E+02  0.62499999656E+02  0.00000000000E+00 0.  1.
</event>
<event>
 4    1  0.1956390E-002  0.9118800E+02  0.7818608E-02  0.1130116E+00
         25   -1    0    0    0    0  0.00000000000E+00  0.00000000000E+00  0.99999998245E-14  0.12500000000E+03  0.12500000000E+03 0.  0.
        -11    1    1    0    0    0  0.51899676105E+01 -0.27332920950E+01  0.74340899943E+01  0.94695482352E+01  0.51100000000E-03 0.  1.
         11    1    1    0    0    0  0.29720455197E+02 -0.22516601929E+02  0.37775983915E+02  0.53078505825E+02  0.51100000000E-03 0. -1.
         22    1    1    0    0    0 -0.34910422807E+02  0.25249894024E+02 -0.45210073909E+02  0.62451945940E+02  0.00000000000E+00 0. -1.
</event>
<event>
 4    1  0.1956390E-002  0.9118800E+02  0.7818608E-02  0.1130116E+00
         25   -1    0    0    0    0  0.00000000000E+00  0.00000000000E+00  0.99999998245E-14  0.12500000000E+03  0.12500000000E+03 0.  0.
        -11    1    1    0    0    0  0.28047722309E+02  0.39272169687E+02  0.29351999973E+02  0.56484669968E+02  0.51100000000E-03 0. -1.
         11    1    1    0    0    0  0.32409829294E+01  0.44443465622E+01  0.24847806387E+01  0.60357536230E+01  0.51100000000E-03 0.  1.
         22    1    1    0    0    0 -0.31288705239E+02 -0.43716516249E+02 -0.31836780612E+02  0.62479576409E+02  0.00000000000E+00 0. -1.
</event>
<event>
 4    1  0.1956390E-002  0.9118800E+02  0.7818608E-02  0.1130116E+00
         25   -1    0    0    0    0  0.00000000000E+00  0.00000000000E+00  0.99999998245E-14  0.12500000000E+03  0.12500000000E+03 0.  0.
        -11    1    1    0    0    0 -0.17883731408E+02 -0.59667273471E+01  0.18867500994E+02  0.26672312954E+02  0.51100000000E-03 0. -1.
         11    1    1    0    0    0 -0.22702536375E+02 -0.58512850932E+01  0.27129915497E+02  0.35856310605E+02  0.51100000000E-03 0.  1.
         22    1    1    0    0    0  0.40586267783E+02  0.11818012440E+02 -0.45997416490E+02  0.62471376441E+02  0.00000000000E+00 0.  1.
</event>
<event>
 4    1  0.1956390E-002  0.9118800E+02  0.7818608E-02  0.1130116E+00
         25   -1    0    0    0    0  0.00000000000E+00  0.00000000000E+00  0.99999998245E-14  0.12500000000E+03  0.12500000000E+03 0.  0.
        -11    1    1    0    0    0  0.69305031402E+01 -0.32626354920E+02 -0.50059018125E+02  0.60153272605E+02  0.51100000000E-03 0. -1.
         11    1    1    0    0    0  0.26791499369E+00 -0.12729978034E+01 -0.19531590935E+01  0.23467280535E+01  0.51100000000E-03 0.  1.
         22    1    1    0    0    0 -0.71984181339E+01  0.33899352724E+02  0.52012177219E+02  0.62499999342E+02  0.00000000000E+00 0. -1.
</event>
<event>
 4    1  0.1956390E-002  0.9118800E+02  0.7818608E-02  0.1130116E+00
         25   -1    0    0    0    0  0.00000000000E+00  0.00000000000E+00  0.99999998245E-14  0.12500000000E+03  0.12500000000E+03 0.  0.
        -11    1    1    0    0    0  0.22094028483E+01 -0.45793152612E+01  0.11597783804E+02  0.12663339948E+02  0.51100000000E-03 0. -1.
         11    1    1    0    0    0  0.13027475725E+02 -0.21793207884E+02  0.42931600513E+02  0.49877663904E+02  0.51100000000E-03 0.  1.
         22    1    1    0    0    0 -0.15236878573E+02  0.26372523145E+02 -0.54529384318E+02  0.62458996148E+02  0.00000000000E+00 0.  1.
</event>
<event>
 4    1  0.1956390E-002  0.9118800E+02  0.7818608E-02  0.1130116E+00
         25   -1    0    0    0    0  0.00000000000E+00  0.00000000000E+00  0.99999998245E-14  0.12500000000E+03  0.12500000000E+03 0.  0.
        -11    1    1    0    0    0 -0.58805467072E+02 -0.15052641004E+02  0.88707299186E+01  0.61346188214E+02  0.51100000000E-03 0. -1.
         11    1    1    0    0    0 -0.11072166964E+01 -0.27734032769E+00  0.16868240373E+00  0.11538199533E+01  0.51100000000E-03 0.  1.
         22    1    1    0    0    0  0.59912683769E+02  0.15329981332E+02 -0.90394123224E+01  0.62499991833E+02  0.00000000000E+00 0. -1.
</event>
<event>
 4    1  0.1956390E-002  0.9118800E+02  0.7818608E-02  0.1130116E+00
         25   -1    0    0    0    0  0.00000000000E+00  0.00000000000E+00  0.99999998245E-14  0.12500000000E+03  0.12500000000E+03 0.  0.
        -11    1    1    0    0    0 -0.60483707816E+01 -0.99785896181E+01  0.30146783869E+02  0.32326206362E+02  0.51100000000E-03 0.  1.
         11    1    1    0    0    0 -0.57326598746E-01 -0.51081546790E+01  0.29965171996E+02  0.30397500943E+02  0.51100000000E-03 0. -1.
         22    1    1    0    0    0  0.61056973803E+01  0.15086744297E+02 -0.60111955865E+02  0.62276292695E+02  0.00000000000E+00 0.  1.
</event>
<event>
 4    1  0.1956390E-002  0.9118800E+02  0.7818608E-02  0.1130116E+00
         25   -1    0    0    0    0  0.00000000000E+00  0.00000000000E+00  0.99999998245E-14  0.12500000000E+03  0.12500000000E+03 0.  0.
        -11    1    1    0    0    0 -0.66278396610E+01  0.30684615675E+01 -0.65940118536E+01  0.98399546518E+01  0.51100000000E-03 0. -1.
         11    1    1    0    0    0 -0.35468119893E+02  0.16419824665E+02 -0.35291389981E+02  0.52660045365E+02  0.51100000000E-03 0. -1.
         22    1    1    0    0    0  0.42095959554E+02 -0.19488286232E+02  0.41885401835E+02  0.62499999983E+02  0.00000000000E+00 0. -1.
</event>
<event>
 4    1  0.1956390E-002  0.9118800E+02  0.7818608E-02  0.1130116E+00
         25   -1    0    0    0    0  0.00000000000E+00  0.00000000000E+00  0.99999998245E-14  0.12500000000E+03  0.12500000000E+03 0.  0.
        -11    1    1    0    0    0  0.39307871913E+02 -0.19678772252E+01  0.21387951901E+02  0.44793144809E+02  0.51100000000E-03 0.  1.
         11    1    1    0    0    0  0.15539727220E+02 -0.77544151178E+00  0.84527092240E+01  0.17706855314E+02  0.51100000000E-03 0. -1.
         22    1    1    0    0    0 -0.54847599133E+02  0.27433187370E+01 -0.29840661125E+02  0.62499999878E+02  0.00000000000E+00 0.  1.
</event>
<event>
 4    1  0.1956390E-002  0.9118800E+02  0.7818608E-02  0.1130116E+00
         25   -1    0    0    0    0  0.00000000000E+00  0.00000000000E+00  0.99999998245E-14  0.12500000000E+03  0.12500000000E+03 0.  0.
        -11    1    1    0    0    0 -0.36698308929E+02 -0.26997551195E+02  0.29843353987E+02  0.54463376926E+02  0.51100000000E-03 0.  1.
         11    1    1    0    0    0 -0.85959729158E+01 -0.18756878442E+01  0.55753134848E+00  0.88158832073E+01  0.51100000000E-03 0. -1.
         22    1    1    0    0    0  0.45294281845E+02  0.28873239039E+02 -0.30400885336E+02  0.61720739866E+02  0.00000000000E+00 0.  1.
</event>
<event>
 4    1  0.1956390E-002  0.9118800E+02  0.7818608E-02  0.1130116E+00
         25   -1    0    0    0    0  0.00000000000E+00  0.00000000000E+00  0.99999998245E-14  0.12500000000E+03  0.12500000000E+03 0.  0.
        -11    1    1    0    0    0  0.13726648939E+02 -0.27589021997E+02 -0.51965585159E+01  0.31250267943E+02  0.51100000000E-03 0.  1.
         11    1    1    0    0    0  0.13732652619E+02 -0.27584345617E+02 -0.52022980679E+01  0.31249732423E+02  0.51100000000E-03 0. -1.
         22    1    1    0    0    0 -0.27459301558E+02  0.55173367614E+02  0.10398856584E+02  0.62499999634E+02  0.00000000000E+00 0. -1.
</event>
<event>
 4    1  0.1956390E-002  0.9118800E+02  0.7818608E-02  0.1130116E+00
         25   -1    0    0    0    0  0.00000000000E+00  0.00000000000E+00  0.99999998245E-14  0.12500000000E+03  0.12500000000E+03 0.  0.
        -11    1    1    0    0    0  0.10069868221E+02  0.17269463927E+02 -0.33230186046E+02  0.38779916132E+02  0.51100000000E-03 0.  1.
         11    1    1    0    0    0  0.61536302105E+01  0.10768207586E+02 -0.20219729579E+02  0.23720432625E+02  0.51100000000E-03 0. -1.
         22    1    1    0    0    0 -0.16223498432E+02 -0.28037671513E+02  0.53449915625E+02  0.62499651243E+02  0.00000000000E+00 0.  1.
</event>
<event>
 4    1  0.1956390E-002  0.9118800E+02  0.7818608E-02  0.1130116E+00
         25   -1    0    0    0    0  0.00000000000E+00  0.00000000000E+00  0.99999998245E-14  0.12500000000E+03  0.12500000000E+03 0.  0.
        -11    1    1    0    0    0 -0.64907095037E+00  0.29553679491E+02 -0.29545675696E+02  0.41794595550E+02  0.51100000000E-03 0. -1.
         11    1    1    0    0    0 -0.10533111875E+01  0.13648671357E+02 -0.15559929193E+02  0.20724552855E+02  0.51100000000E-03 0.  1.
         22    1    1    0    0    0  0.17023821378E+01 -0.43202350848E+02  0.45105604889E+02  0.62480851596E+02  0.00000000000E+00 0. -1.
</event>
<event>
 4    1  0.1956390E-002  0.9118800E+02  0.7818608E-02  0.1130116E+00
         25   -1    0    0    0    0  0.00000000000E+00  0.00000000000E+00  0.99999998245E-14  0.12500000000E+03  0.12500000000E+03 0.  0.
        -11    1    1    0    0    0  0.31933129185E+00 -0.65392387459E+01  0.46641612173E+02  0.47098870498E+02  0.51100000000E-03 0. -1.
         11    1    1    0    0    0  0.98258592925E-01 -0.21403423823E+01  0.15251363397E+02  0.15401130023E+02  0.51100000000E-03 0.  1.
         22    1    1    0    0    0 -0.41758988477E+00  0.86795811283E+01 -0.61892975570E+02  0.62499999478E+02  0.00000000000E+00 0. -1.
</event>
<event>
 4    1  0.1956390E-002  0.9118800E+02  0.7818608E-02  0.1130116E+00
         25   -1    0    0    0    0  0.00000000000E+00  0.00000000000E+00  0.99999998245E-14  0.12500000000E+03  0.12500000000E+03 0.  0.
        -11    1    1    0    0    0  0.12530646214E+02  0.36178502671E+02  0.28039731865E+02  0.47456587671E+02  0.51100000000E-03 0.  1.
         11    1    1    0    0    0  0.35337131057E+01  0.11742477364E+02  0.87202977706E+01  0.15047142467E+02  0.51100000000E-03 0. -1.
         22    1    1    0    0    0 -0.16064359320E+02 -0.47920980035E+02 -0.36760029636E+02  0.62496269862E+02  0.00000000000E+00 0.  1.
</event>
<event>
 4    1  0.1956390E-002  0.9118800E+02  0.7818608E-02  0.1130116E+00
         25   -1    0    0    0    0  0.00000000000E+00  0.00000000000E+00  0.99999998245E-14  0.12500000000E+03  0.12500000000E+03 0.  0.
        -11    1    1    0    0    0  0.11358692356E+02 -0.10899241325E+02  0.17032409012E+02  0.23193022885E+02  0.51100000000E-03 0. -1.
         11    1    1    0    0    0  0.19015409423E+02 -0.18676515033E+02  0.28890458250E+02  0.39307207831E+02  0.51100000000E-03 0.  1.
         22    1    1    0    0    0 -0.30374101779E+02  0.29575756359E+02 -0.45922867262E+02  0.62499769285E+02  0.00000000000E+00 0. -1.
</event>
<event>
 4    1  0.1956390E-002  0.9118800E+02  0.7818608E-02  0.1130116E+00
         25   -1    0    0    0    0  0.00000000000E+00  0.00000000000E+00  0.99999998245E-14  0.12500000000E+03  0.12500000000E+03 0.  0.
        -11    1    1    0    0    0 -0.18940107450E+00  0.37180404828E+01  0.17198975489E+02  0.17597285470E+02  0.51100000000E-03 0. -1.
         11    1    1    0    0    0 -0.99919488956E+00  0.97850629336E+01  0.43812768020E+02  0.44903279266E+02  0.51100000000E-03 0.  1.
         22    1    1    0    0    0  0.11885959641E+01 -0.13503103416E+02 -0.61011743509E+02  0.62499435263E+02  0.00000000000E+00 0.  1.
</event>
<event>
 4    1  0.1956390E-002  0.9118800E+02  0.7818608E-02  0.1130116E+00
         25   -1    0    0    0    0  0.00000000000E+00  0.00000000000E+00  0.99999998245E-14  0.12500000000E+03  0.12500000000E+03 0.  0.
        -11    1    1    0    0    0 -0.24808300527E+02 -0.42527376873E+02 -0.93594384634E+01  0.50116151562E+02  0.51100000000E-03 0. -1.
         11    1    1    0    0    0 -0.57585635693E+01 -0.10662013705E+02 -0.25713293044E+01  0.12387547186E+02  0.51100000000E-03 0.  1.
         22    1    1    0    0    0  0.30566864096E+02  0.53189390578E+02  0.11930767768E+02  0.62496301253E+02  0.00000000000E+00 0. -1.
</event>
<event>
 4    1  0.1956390E-002  0.9118800E+02  0.7818608E-02  0.1130116E+00
         25   -1    0    0    0    0  0.00000000000E+00  0.00000000000E+00  0.99999998245E-14  0.12500000000E+03  0.12500000000E+03 0.  0.
        -11    1    1    0    0    0  0.31800875455E+02  0.49533996379E+02 -0.40066010982E+00  0.58864870727E+02  0.51100000000E-03 0. -1.
         11    1    1    0    0    0  0.20841148068E+01  0.29674986092E+01  0.40094970408E+00  0.36483343391E+01  0.51100000000E-03 0.  1.
         22    1    1    0    0    0 -0.33884990262E+02 -0.52501494988E+02 -0.28959425565E-03  0.62486794934E+02  0.00000000000E+00 0. -1.
</event>
<event>
 4    1  0.1956390E-002  0.9118800E+02  0.7818608E-02  0.1130116E+00
         25   -1    0    0    0    0  0.00000000000E+00  0.00000000000E+00  0.99999998245E-14  0.12500000000E+03  0.12500000000E+03 0.  0.
        -11    1    1    0    0    0  0.10428116569E+01  0.46702363812E+01  0.65577288660E+01  0.81180276021E+01  0.51100000000E-03 0.  1.
         11    1    1    0    0    0  0.25969548708E+01  0.37754740001E+02  0.39124229034E+02  0.54432250229E+02  0.51100000000E-03 0. -1.
         22    1    1    0    0    0 -0.36397665276E+01 -0.42424976382E+02 -0.45681957900E+02  0.62449722169E+02  0.00000000000E+00 0. -1.
</event>
<event>
 4    1  0.1956390E-002  0.9118800E+02  0.7818608E-02  0.1130116E+00
         25   -1    0    0    0    0  0.00000000000E+00  0.00000000000E+00  0.99999998245E-14  0.12500000000E+03  0.12500000000E+03 0.  0.
        -11    1    1    0    0    0 -0.51650805908E+02  0.14485278380E+02  0.95370571384E-01  0.53643621583E+02  0.51100000000E-03 0. -1.
         11    1    1    0    0    0  0.94445504128E+01 -0.91098503624E+01  0.20301201481E+02  0.24172870909E+02  0.51100000000E-03 0.  1.
         22    1    1    0    0    0  0.42206255495E+02 -0.53754280175E+01 -0.20396572053E+02  0.47183507509E+02  0.00000000000E+00 0. -1.
</event>
<event>
 4    1  0.1956390E-002  0.9118800E+02  0.7818608E-02  0.1130116E+00
         25   -1    0    0    0    0  0.00000000000E+00  0.00000000000E+00  0.99999998245E-14  0.12500000000E+03  0.12500000000E+03 0.  0.
        -11    1    1    0    0    0 -0.25083130806E+02 -0.54438089525E+01  0.85513700156E+01  0.27054102025E+02  0.51100000000E-03 0. -1.
         11    1    1    0    0    0 -0.32863899268E+02 -0.71301777989E+01  0.11204301581E+02  0.35445897995E+02  0.51100000000E-03 0.  1.
         22    1    1    0    0    0  0.57947030074E+02  0.12573986751E+02 -0.19755671597E+02  0.62499999980E+02  0.00000000000E+00 0.  1.
</event>
<event>
 4    1  0.1956390E-002  0.9118800E+02  0.7818608E-02  0.1130116E+00
         25   -1    0    0    0    0  0.00000000000E+00  0.00000000000E+00  0.99999998245E-14  0.12500000000E+03  0.12500000000E+03 0.  0.
        -11    1    1    0    0    0  0.19006144757E+02 -0.45827378963E+02 -0.31140332693E+01  0.49709952772E+02  0.51100000000E-03 0.  1.
         11    1    1    0    0    0  0.48664517673E+01 -0.11784468760E+02 -0.10243493482E+01  0.12790830645E+02  0.51100000000E-03 0. -1.
         22    1    1    0    0    0 -0.23872596524E+02  0.57611847722E+02  0.41383826175E+01  0.62499216583E+02  0.00000000000E+00 0.  1.
</event>
<event>
 4    1  0.1956390E-002  0.9118800E+02  0.7818608E-02  0.1130116E+00
         25   -1    0    0    0    0  0.00000000000E+00  0.00000000000E+00  0.99999998245E-14  0.12500000000E+03  0.12500000000E+03 0.  0.
        -11    1    1    0    0    0 -0.57328569395E+01 -0.12407991015E+02  0.50062883055E+02  0.51895242072E+02  0.51100000000E-03 0. -1.
         11    1    1    0    0    0 -0.11773476995E+01 -0.25361001873E+01  0.10229513840E+02  0.10604758621E+02  0.51100000000E-03 0.  1.
         22    1    1    0    0    0  0.69102046390E+01  0.14944091202E+02 -0.60292396894E+02  0.62499999306E+02  0.00000000000E+00 0. -1.
</event>
<event>
 4    1  0.1956390E-002  0.9118800E+02  0.7818608E-02  0.1130116E+00
         25   -1    0    0    0    0  0.00000000000E+00  0.00000000000E+00  0.99999998245E-14  0.12500000000E+03  0.12500000000E+03 0.  0.
        -11    1    1    0    0    0  0.34910098424E+02  0.43785921322E+02 -0.16073794149E+02  0.58260524685E+02  0.51100000000E-03 0. -1.
         11    1    1    0    0    0  0.44775412471E+01  0.82416702357E+00 -0.13187442655E+01  0.47399064971E+01  0.51100000000E-03 0.  1.
         22    1    1    0    0    0 -0.39387639671E+02 -0.44610088346E+02  0.17392538414E+02  0.61999568818E+02  0.00000000000E+00 0. -1.
</event>
<event>
 4    1  0.1956390E-002  0.9118800E+02  0.7818608E-02  0.1130116E+00
         25   -1    0    0    0    0  0.00000000000E+00  0.00000000000E+00  0.99999998245E-14  0.12500000000E+03  0.12500000000E+03 0.  0.
        -11    1    1    0    0    0 -0.34573104119E+01 -0.13060383884E+02  0.10115391885E+01  0.13548056476E+02  0.51100000000E-03 0.  1.
         11    1    1    0    0    0 -0.12499191582E+02 -0.47187973073E+02  0.36548855258E+01  0.48951943592E+02  0.51100000000E-03 0. -1.
         22    1    1    0    0    0  0.15956501993E+02  0.60248356957E+02 -0.46664247143E+01  0.62499999932E+02  0.00000000000E+00 0. -1.
</event>
<event>
 4    1  0.1956390E-002  0.9118800E+02  0.7818608E-02  0.1130116E+00
         25   -1    0    0    0    0  0.00000000000E+00  0.00000000000E+00  0.99999998245E-14  0.12500000000E+03  0.12500000000E+03 0.  0.
        -11    1    1    0    0    0 -0.19516277078E+02  0.12322823961E+02 -0.47594300975E+00  0.23086004058E+02  0.51100000000E-03 0.  1.
         11    1    1    0    0    0 -0.33264607150E+02  0.21130307573E+02 -0.66716684026E+00  0.39414072345E+02  0.51100000000E-03 0. -1.
         22    1    1    0    0    0  0.52780884229E+02 -0.33453131534E+02  0.11431098500E+01  0.62499923596E+02  0.00000000000E+00 0. -1.
</event>
<event>
 4    1  0.1956390E-002  0.9118800E+02  0.7818608E-02  0.1130116E+00
         25   -1    0    0    0    0  0.00000000000E+00  0.00000000000E+00  0.99999998245E-14  0.12500000000E+03  0.12500000000E+03 0.  0.
        -11    1    1    0    0    0 -0.22732468285E+02  0.43698782981E+01  0.75135076603E+01  0.24337496755E+02  0.51100000000E-03 0. -1.
         11    1    1    0    0    0 -0.35731137129E+02  0.69683656970E+01  0.11451186589E+02  0.38162834742E+02  0.51100000000E-03 0.  1.
         22    1    1    0    0    0  0.58463605414E+02 -0.11338243995E+02 -0.18964694250E+02  0.62499668502E+02  0.00000000000E+00 0.  1.
</event>
<event>
 4    1  0.1956390E-002  0.9118800E+02  0.7818608E-02  0.1130116E+00
         25   -1    0    0    0    0  0.00000000000E+00  0.00000000000E+00  0.99999998245E-14  0.12500000000E+03  0.12500000000E+03 0.  0.
        -11    1    1    0    0    0 -0.67029297474E+01 -0.15929703689E+02 -0.38181723756E+02  0.41910962242E+02  0.51100000000E-03 0.  1.
         11    1    1    0    0    0 -0.33051931553E+01 -0.78154220807E+01 -0.18759089493E+02  0.20589039875E+02  0.51100000000E-03 0. -1.
         22    1    1    0    0    0  0.10008122903E+02  0.23745125770E+02  0.56940813249E+02  0.62499997883E+02  0.00000000000E+00 0.  1.
</event>
<event>
 4    1  0.1956390E-002  0.9118800E+02  0.7818608E-02  0.1130116E+00
         25   -1    0    0    0    0  0.00000000000E+00  0.00000000000E+00  0.99999998245E-14  0.12500000000E+03  0.12500000000E+03 0.  0.
        -11    1    1    0    0    0 -0.15526636338E+02  0.46956615584E+02  0.37120343792E+02  0.61837853347E+02  0.51100000000E-03 0.  1.
         11    1    1    0    0    0 -0.12932703616E+00  0.52141384248E+00  0.38823789002E+00  0.66281731855E+00  0.51100000000E-03 0. -1.
         22    1    1    0    0    0  0.15655963375E+02 -0.47478029427E+02 -0.37508581682E+02  0.62499329334E+02  0.00000000000E+00 0.  1.
</event>
<event>
 4    1  0.1956390E-002  0.9118800E+02  0.7818608E-02  0.1130116E+00
         25   -1    0    0    0    0  0.00000000000E+00  0.00000000000E+00  0.99999998245E-14  0.12500000000E+03  0.12500000000E+03 0.  0.
        -11    1    1    0    0    0  0.20233286302E+02 -0.40593963168E+02  0.92422427245E+01  0.46289035106E+02  0.51100000000E-03 0. -1.
         11    1    1    0    0    0  0.69126650877E+01 -0.14289994334E+02  0.32894763582E+01  0.16211401286E+02  0.51100000000E-03 0.  1.
         22    1    1    0    0    0 -0.27145951390E+02  0.54883957502E+02 -0.12531719083E+02  0.62499563607E+02  0.00000000000E+00 0. -1.
</event>
<event>
 4    1  0.1956390E-002  0.9118800E+02  0.7818608E-02  0.1130116E+00
         25   -1    0    0    0    0  0.00000000000E+00  0.00000000000E+00  0.99999998245E-14  0.12500000000E+03  0.12500000000E+03 0.  0.
        -11    1    1    0    0    0  0.89255385503E+01 -0.15142978751E+01  0.16411494074E+02  0.18742877967E+02  0.51100000000E-03 0. -1.
         11    1    1    0    0    0  0.36936476592E+01 -0.42745174766E+02  0.20224649506E+02  0.47432367079E+02  0.51100000000E-03 0.  1.
         22    1    1    0    0    0 -0.12619186210E+02  0.44259472641E+02 -0.36636143580E+02  0.58824754955E+02  0.00000000000E+00 0.  1.
</event>
<event>
 4    1  0.1956390E-002  0.9118800E+02  0.7818608E-02  0.1130116E+00
         25   -1    0    0    0    0  0.00000000000E+00  0.00000000000E+00  0.99999998245E-14  0.12500000000E+03  0.12500000000E+03 0.  0.
        -11    1    1    0    0    0 -0.62247830478E+01 -0.17016711899E+02 -0.13557024428E+02  0.22629832511E+02  0.51100000000E-03 0. -1.
         11    1    1    0    0    0 -0.14667359789E+02 -0.30818175089E+02 -0.20716304840E+02  0.39925638949E+02  0.51100000000E-03 0.  1.
         22    1    1    0    0    0  0.20892142837E+02  0.47834886989E+02  0.34273329268E+02  0.62444528540E+02  0.00000000000E+00 0.  1.
</event>
<event>
 4    1  0.1956390E-002  0.9118800E+02  0.7818608E-02  0.1130116E+00
         25   -1    0    0    0    0  0.00000000000E+00  0.00000000000E+00  0.99999998245E-14  0.12500000000E+03  0.12500000000E+03 0.  0.
        -11    1    1    0    0    0 -0.34280489741E+01 -0.51179671191E+01  0.65683190800E+01  0.90048832862E+01  0.51100000000E-03 0. -1.
         11    1    1    0    0    0 -0.20363222749E+02 -0.30414644646E+02  0.39013024429E+02  0.53495116833E+02  0.51100000000E-03 0.  1.
         22    1    1    0    0    0  0.23791271723E+02  0.35532611765E+02 -0.45581343509E+02  0.62499999881E+02  0.00000000000E+00 0.  1.
</event>
<event>
 4    1  0.1956390E-002  0.9118800E+02  0.7818608E-02  0.1130116E+00
         25   -1    0    0    0    0  0.00000000000E+00  0.00000000000E+00  0.99999998245E-14  0.12500000000E+03  0.12500000000E+03 0.  0.
        -11    1    1    0    0    0 -0.25295341413E+01  0.88900927963E+01 -0.59207351128E+01  0.10976675154E+02  0.51100000000E-03 0. -1.
         11    1    1    0    0    0 -0.38860015445E+02  0.35884408155E+02  0.24928591955E+01  0.52952864854E+02  0.51100000000E-03 0.  1.
         22    1    1    0    0    0  0.41389549586E+02 -0.44774500951E+02  0.34278759173E+01  0.61070459992E+02  0.00000000000E+00 0.  1.
</event>
<event>
 4    1  0.1956390E-002  0.9118800E+02  0.7818608E-02  0.1130116E+00
         25   -1    0    0    0    0  0.00000000000E+00  0.00000000000E+00  0.99999998245E-14  0.12500000000E+03  0.12500000000E+03 0.  0.
        -11    1    1    0    0    0 -0.54670598052E+01  0.27154301681E+02  0.27986041379E+02  0.39375923545E+02  0.51100000000E-03 0.  1.
         11    1    1    0    0    0 -0.32010593162E+01  0.15951382172E+02  0.16432576656E+02  0.23124077274E+02  0.51100000000E-03 0. -1.
         22    1    1    0    0    0  0.86681191214E+01 -0.43105683853E+02 -0.44418618035E+02  0.62499999181E+02  0.00000000000E+00 0.  1.
</event>
<event>
 4    1  0.1956390E-002  0.9118800E+02  0.7818608E-02  0.1130116E+00
         25   -1    0    0    0    0  0.00000000000E+00  0.00000000000E+00  0.99999998245E-14  0.12500000000E+03  0.12500000000E+03 0.  0.
        -11    1    1    0    0    0 -0.13267610071E+02 -0.18403525642E+02  0.22337729906E+01  0.22797126465E+02  0.51100000000E-03 0. -1.
         11    1    1    0    0    0 -0.23136241624E+02 -0.32026599246E+02  0.39153309294E+01  0.39702878387E+02  0.51100000000E-03 0.  1.
         22    1    1    0    0    0  0.36403851694E+02  0.50430124888E+02 -0.61491039200E+01  0.62499995147E+02  0.00000000000E+00 0.  1.
</event>
<event>
 4    1  0.1956390E-002  0.9118800E+02  0.7818608E-02  0.1130116E+00
         25   -1    0    0    0    0  0.00000000000E+00  0.00000000000E+00  0.99999998245E-14  0.12500000000E+03  0.12500000000E+03 0.  0.
        -11    1    1    0    0    0 -0.12133564499E+01  0.57568465905E+00  0.90340613782E+00  0.16185764153E+01  0.51100000000E-03 0.  1.
         11    1    1    0    0    0 -0.45676145269E+02  0.21852492626E+02  0.33803949405E+02  0.60881431292E+02  0.51100000000E-03 0. -1.
         22    1    1    0    0    0  0.46889501719E+02 -0.22428177285E+02 -0.34707355542E+02  0.62499992292E+02  0.00000000000E+00 0. -1.
</event>
<event>
 4    1  0.1956390E-002  0.9118800E+02  0.7818608E-02  0.1130116E+00
         25   -1    0    0    0    0  0.00000000000E+00  0.00000000000E+00  0.99999998245E-14  0.12500000000E+03  0.12500000000E+03 0.  0.
        -11    1    1    0    0    0 -0.16274170960E+02 -0.19498464923E+01  0.11191403419E+02  0.19846865055E+02  0.51100000000E-03 0.  1.
         11    1    1    0    0    0 -0.34983551315E+02 -0.41793720621E+01  0.24041088907E+02  0.42653135518E+02  0.51100000000E-03 0. -1.
         22    1    1    0    0    0  0.51257722275E+02  0.61292185544E+01 -0.35232492326E+02  0.62499999427E+02  0.00000000000E+00 0. -1.
</event>
<event>
 4    1  0.1956390E-002  0.9118800E+02  0.7818608E-02  0.1130116E+00
         25   -1    0    0    0    0  0.00000000000E+00  0.00000000000E+00  0.99999998245E-14  0.12500000000E+03  0.12500000000E+03 0.  0.
        -11    1    1    0    0    0  0.13455749901E+02 -0.24833923327E+02 -0.22922610929E+01  0.28337879497E+02  0.51100000000E-03 0. -1.
         11    1    1    0    0    0  0.16179849445E+02 -0.29964235976E+02 -0.27218464559E+01  0.34162134214E+02  0.51100000000E-03 0.  1.
         22    1    1    0    0    0 -0.29635599345E+02  0.54798159303E+02  0.50141075488E+01  0.62499986289E+02  0.00000000000E+00 0. -1.
</event>
<event>
 4    1  0.1956390E-002  0.9118800E+02  0.7818608E-02  0.1130116E+00
         25   -1    0    0    0    0  0.00000000000E+00  0.00000000000E+00  0.99999998245E-14  0.12500000000E+03  0.12500000000E+03 0.  0.
        -11    1    1    0    0    0  0.40000604396E+00 -0.20367544248E+02  0.64790875860E+01  0.21376983879E+02  0.51100000000E-03 0. -1.
         11    1    1    0    0    0 -0.28902112301E+02  0.61187084914E+01  0.38482419608E+02  0.48514609225E+02  0.51100000000E-03 0.  1.
         22    1    1    0    0    0  0.28502106257E+02  0.14248835757E+02 -0.44961507194E+02  0.55108406897E+02  0.00000000000E+00 0.  1.
</event>
<event>
 4    1  0.1956390E-002  0.9118800E+02  0.7818608E-02  0.1130116E+00
         25   -1    0    0    0    0  0.00000000000E+00  0.00000000000E+00  0.99999998245E-14  0.12500000000E+03  0.12500000000E+03 0.  0.
        -11    1    1    0    0    0 -0.54935766903E+01 -0.46965272983E+02 -0.30035366022E+02  0.56018206536E+02  0.51100000000E-03 0.  1.
         11    1    1    0    0    0 -0.63324363525E+00 -0.54355039000E+01 -0.34738955739E+01  0.64817938002E+01  0.51100000000E-03 0. -1.
         22    1    1    0    0    0  0.61268203255E+01  0.52400776883E+02  0.33509261596E+02  0.62499999663E+02  0.00000000000E+00 0.  1.
</event>
<event>
 4    1  0.1956390E-002  0.9118800E+02  0.7818608E-02  0.1130116E+00
         25   -1    0    0    0    0  0.00000000000E+00  0.00000000000E+00  0.99999998245E-14  0.12500000000E+03  0.12500000000E+03 0.  0.
        -11    1    1    0    0    0  0.49677398403E+01  0.88066331448E+01  0.40448156274E+02  0.41692788018E+02  0.51100000000E-03 0. -1.
         11    1    1    0    0    0  0.24800841554E+01  0.43954506263E+01  0.20185868005E+02  0.20807211995E+02  0.51100000000E-03 0.  1.
         22    1    1    0    0    0 -0.74478239957E+01 -0.13202083771E+02 -0.60634024279E+02  0.62499999987E+02  0.00000000000E+00 0.  1.
</event>
<event>
 4    1  0.1956390E-002  0.9118800E+02  0.7818608E-02  0.1130116E+00
         25   -1    0    0    0    0  0.00000000000E+00  0.00000000000E+00  0.99999998245E-14  0.12500000000E+03  0.12500000000E+03 0.  0.
        -11    1    1    0    0    0 -0.74279212942E+01  0.36541507633E+00  0.16975794409E+01  0.76281923907E+01  0.51100000000E-03 0. -1.
         11    1    1    0    0    0 -0.53430774743E+02  0.26247878386E+01  0.12213847535E+02  0.54871807631E+02  0.51100000000E-03 0. -1.
         22    1    1    0    0    0  0.60858696037E+02 -0.29902029150E+01 -0.13911426976E+02  0.62499999978E+02  0.00000000000E+00 0. -1.
</event>
<event>
 4    1  0.1956390E-002  0.9118800E+02  0.7818608E-02  0.1130116E+00
         25   -1    0    0    0    0  0.00000000000E+00  0.00000000000E+00  0.99999998245E-14  0.12500000000E+03  0.12500000000E+03 0.  0.
        -11    1    1    0    0    0 -0.73042992421E+01  0.31329163574E+00  0.33929322528E+02  0.34708066304E+02  0.51100000000E-03 0.  1.
         11    1    1    0    0    0 -0.58614809511E+01  0.20337084063E+00  0.27166043737E+02  0.27791945798E+02  0.51100000000E-03 0. -1.
         22    1    1    0    0    0  0.13165780193E+02 -0.51666247637E+00 -0.61095366265E+02  0.62499987898E+02  0.00000000000E+00 0.  1.
</event>
<event>
 4    1  0.1956390E-002  0.9118800E+02  0.7818608E-02  0.1130116E+00
         25   -1    0    0    0    0  0.00000000000E+00  0.00000000000E+00  0.99999998245E-14  0.12500000000E+03  0.12500000000E+03 0.  0.
        -11    1    1    0    0    0 -0.13520054278E+02 -0.19263922045E+02 -0.21746762839E+01  0.23635138616E+02  0.51100000000E-03 0. -1.
         11    1    1    0    0    0 -0.22267945521E+02 -0.31645744396E+02 -0.36282033785E+01  0.38864873551E+02  0.51100000000E-03 0.  1.
         22    1    1    0    0    0  0.35787999799E+02  0.50909666441E+02  0.58028796624E+01  0.62499987833E+02  0.00000000000E+00 0. -1.
</event>
<event>
 4    1  0.1956390E-002  0.9118800E+02  0.7818608E-02  0.1130116E+00
         25   -1    0    0    0    0  0.00000000000E+00  0.00000000000E+00  0.99999998245E-14  0.12500000000E+03  0.12500000000E+03 0.  0.
        -11    1    1    0    0    0 -0.19561472626E+01  0.24216000480E+02 -0.28740155749E+02  0.37632934301E+02  0.51100000000E-03 0.  1.
         11    1    1    0    0    0 -0.12456451622E+01  0.15959741752E+02 -0.19029124893E+02  0.24867098406E+02  0.51100000000E-03 0. -1.
         22    1    1    0    0    0  0.32017924248E+01 -0.40175742231E+02  0.47769280643E+02  0.62499967293E+02  0.00000000000E+00 0.  1.
</event>
<event>
 4    1  0.1956390E-002  0.9118800E+02  0.7818608E-02  0.1130116E+00
         25   -1    0    0    0    0  0.00000000000E+00  0.00000000000E+00  0.99999998245E-14  0.12500000000E+03  0.12500000000E+03 0.  0.
        -11    1    1    0    0    0  0.36185889453E+01 -0.24685864813E+02 -0.25139582649E+02  0.35418705843E+02  0.51100000000E-03 0.  1.
         11    1    1    0    0    0  0.24880790898E+01 -0.18662974551E+02 -0.19466665365E+02  0.27082249119E+02  0.51100000000E-03 0. -1.
         22    1    1    0    0    0 -0.61066680351E+01  0.43348839365E+02  0.44606248014E+02  0.62499045038E+02  0.00000000000E+00 0.  1.
</event>
<event>
 4    1  0.1956390E-002  0.9118800E+02  0.7818608E-02  0.1130116E+00
         25   -1    0    0    0    0  0.00000000000E+00  0.00000000000E+00  0.99999998245E-14  0.12500000000E+03  0.12500000000E+03 0.  0.
        -11    1    1    0    0    0 -0.25515560782E+02  0.37326503709E+02  0.34566212204E+02  0.56913396908E+02  0.51100000000E-03 0. -1.
         11    1    1    0    0    0 -0.33424614358E+01  0.41261485868E+01  0.20603400040E+01  0.56958012434E+01  0.51100000000E-03 0.  1.
         22    1    1    0    0    0  0.28858022217E+02 -0.41452652296E+02 -0.36626552208E+02  0.62390801849E+02  0.00000000000E+00 0. -1.
</event>
<event>
 4    1  0.1956390E-002  0.9118800E+02  0.7818608E-02  0.1130116E+00
         25   -1    0    0    0    0  0.00000000000E+00  0.00000000000E+00  0.99999998245E-14  0.12500000000E+03  0.12500000000E+03 0.  0.
        -11    1    1    0    0    0  0.56591841906E+01 -0.14667237931E+02  0.12679719277E+02  0.20197265048E+02  0.51100000000E-03 0.  1.
         11    1    1    0    0    0  0.11852113717E+02 -0.30721210615E+02  0.26556656486E+02  0.42302734961E+02  0.51100000000E-03 0.  1.
         22    1    1    0    0    0 -0.17511297908E+02  0.45388448546E+02 -0.39236375763E+02  0.62499999991E+02  0.00000000000E+00 0.  1.
</event>
<event>
 4    1  0.1956390E-002  0.9118800E+02  0.7818608E-02  0.1130116E+00
         25   -1    0    0    0    0  0.00000000000E+00  0.00000000000E+00  0.99999998245E-14  0.12500000000E+03  0.12500000000E+03 0.  0.
        -11    1    1    0    0    0 -0.63515378281E+01 -0.10824759075E+02  0.37910881960E+01  0.13110674726E+02  0.51100000000E-03 0.  1.
         11    1    1    0    0    0 -0.23922537050E+02 -0.40779041918E+02  0.14285916733E+02  0.49389325323E+02  0.51100000000E-03 0. -1.
         22    1    1    0    0    0  0.30274074878E+02  0.51603800993E+02 -0.18077004929E+02  0.62499999951E+02  0.00000000000E+00 0. -1.
</event>
<event>
 4    1  0.1956390E-002  0.9118800E+02  0.7818608E-02  0.1130116E+00
         25   -1    0    0    0    0  0.00000000000E+00  0.00000000000E+00  0.99999998245E-14  0.12500000000E+03  0.12500000000E+03 0.  0.
        -11    1    1    0    0    0  0.50778745089E+01  0.17719565501E+01 -0.18731789216E+01  0.56950363544E+01  0.51100000000E-03 0. -1.
         11    1    1    0    0    0  0.50676202894E+02  0.17504390542E+02 -0.18770305185E+02  0.56804978523E+02  0.51100000000E-03 0.  1.
         22    1    1    0    0    0 -0.55754077403E+02 -0.19276347092E+02  0.20643484107E+02  0.62499985123E+02  0.00000000000E+00 0.  1.
</event>
<event>
 4    1  0.1956390E-002  0.9118800E+02  0.7818608E-02  0.1130116E+00
         25   -1    0    0    0    0  0.00000000000E+00  0.00000000000E+00  0.99999998245E-14  0.12500000000E+03  0.12500000000E+03 0.  0.
        -11    1    1    0    0    0  0.23472419506E+01 -0.16146001566E+02  0.17872817746E+02  0.24200010864E+02  0.51100000000E-03 0. -1.
         11    1    1    0    0    0  0.33590673649E+01 -0.25633526252E+02  0.28258698902E+02  0.38300327225E+02  0.51100000000E-03 0.  1.
         22    1    1    0    0    0 -0.57063093155E+01  0.41779527818E+02 -0.46131516648E+02  0.62499661911E+02  0.00000000000E+00 0.  1.
</event>
<event>
 4    1  0.1956390E-002  0.9118800E+02  0.7818608E-02  0.1130116E+00
         25   -1    0    0    0    0  0.00000000000E+00  0.00000000000E+00  0.99999998245E-14  0.12500000000E+03  0.12500000000E+03 0.  0.
        -11    1    1    0    0    0 -0.26417419836E+02  0.19552349294E+02 -0.44105740437E+02  0.55004461396E+02  0.51100000000E-03 0.  1.
         11    1    1    0    0    0  0.24942412649E+00  0.29697907577E+01 -0.74063025268E+01  0.79834320263E+01  0.51100000000E-03 0. -1.
         22    1    1    0    0    0  0.26167995709E+02 -0.22522140052E+02  0.51512042964E+02  0.62012106578E+02  0.00000000000E+00 0.  1.
</event>
<event>
 4    1  0.1956390E-002  0.9118800E+02  0.7818608E-02  0.1130116E+00
         25   -1    0    0    0    0  0.00000000000E+00  0.00000000000E+00  0.99999998245E-14  0.12500000000E+03  0.12500000000E+03 0.  0.
        -11    1    1    0    0    0 -0.42742169100E+01 -0.48300678612E+02 -0.29818989370E+02  0.56924481656E+02  0.51100000000E-03 0. -1.
         11    1    1    0    0    0 -0.45170392243E+00 -0.47321219667E+01 -0.29137450405E+01  0.55755650084E+01  0.51100000000E-03 0.  1.
         22    1    1    0    0    0  0.47259208324E+01  0.53032800578E+02  0.32732734411E+02  0.62499953335E+02  0.00000000000E+00 0. -1.
</event>
<event>
 4    1  0.1956390E-002  0.9118800E+02  0.7818608E-02  0.1130116E+00
         25   -1    0    0    0    0  0.00000000000E+00  0.00000000000E+00  0.99999998245E-14  0.12500000000E+03  0.12500000000E+03 0.  0.
        -11    1    1    0    0    0  0.44380655803E+01  0.17698392560E+02 -0.41712564284E+01  0.18717075246E+02  0.51100000000E-03 0. -1.
         11    1    1    0    0    0  0.10374065121E+02  0.41402022306E+02 -0.97568350904E+01  0.43782924861E+02  0.51100000000E-03 0.  1.
         22    1    1    0    0    0 -0.14812130701E+02 -0.59100414866E+02  0.13928091519E+02  0.62499999893E+02  0.00000000000E+00 0.  1.
</event>
<event>
 4    1  0.1956390E-002  0.9118800E+02  0.7818608E-02  0.1130116E+00
         25   -1    0    0    0    0  0.00000000000E+00  0.00000000000E+00  0.99999998245E-14  0.12500000000E+03  0.12500000000E+03 0.  0.
        -11    1    1    0    0    0  0.70851096464E+01 -0.55368472079E+01  0.42697376138E+02  0.43633947621E+02  0.51100000000E-03 0. -1.
         11    1    1    0    0    0  0.29997074295E+01 -0.24316455273E+01  0.18466691904E+02  0.18866103328E+02  0.51100000000E-03 0.  1.
         22    1    1    0    0    0 -0.10084817076E+02  0.79684927352E+01 -0.61164068042E+02  0.62499949051E+02  0.00000000000E+00 0. -1.
</event>
<event>
 4    1  0.1956390E-002  0.9118800E+02  0.7818608E-02  0.1130116E+00
         25   -1    0    0    0    0  0.00000000000E+00  0.00000000000E+00  0.99999998245E-14  0.12500000000E+03  0.12500000000E+03 0.  0.
        -11    1    1    0    0    0  0.19982631258E+01 -0.10502345465E+02  0.47658402325E+01  0.11704936957E+02  0.51100000000E-03 0. -1.
         11    1    1    0    0    0  0.86902621512E+01 -0.45571719240E+02  0.20684202036E+02  0.50795063390E+02  0.51100000000E-03 0.  1.
         22    1    1    0    0    0 -0.10688525277E+02  0.56074064705E+02 -0.25450042268E+02  0.62499999653E+02  0.00000000000E+00 0.  1.
</event>
<event>
 4    1  0.1956390E-002  0.9118800E+02  0.7818608E-02  0.1130116E+00
         25   -1    0    0    0    0  0.00000000000E+00  0.00000000000E+00  0.99999998245E-14  0.12500000000E+03  0.12500000000E+03 0.  0.
        -11    1    1    0    0    0  0.41380581900E+02 -0.56565355365E+01  0.67336572841E+01  0.42304740791E+02  0.51100000000E-03 0.  1.
         11    1    1    0    0    0  0.19755201007E+02 -0.26957090484E+01  0.32114935636E+01  0.20195259476E+02  0.51100000000E-03 0. -1.
         22    1    1    0    0    0 -0.61135782908E+02  0.83522445849E+01 -0.99451508478E+01  0.62499999734E+02  0.00000000000E+00 0.  1.
</event>
<event>
 4    1  0.1956390E-002  0.9118800E+02  0.7818608E-02  0.1130116E+00
         25   -1    0    0    0    0  0.00000000000E+00  0.00000000000E+00  0.99999998245E-14  0.12500000000E+03  0.12500000000E+03 0.  0.
        -11    1    1    0    0    0 -0.23014247432E+02  0.14852807607E+02 -0.79622401398E+01  0.28524704152E+02  0.51100000000E-03 0.  1.
         11    1    1    0    0    0 -0.27408408953E+02  0.17695989641E+02 -0.94842925881E+01  0.33975295980E+02  0.51100000000E-03 0. -1.
         22    1    1    0    0    0  0.50422656385E+02 -0.32548797248E+02  0.17446532728E+02  0.62499999868E+02  0.00000000000E+00 0. -1.
</event>
<event>
 4    1  0.1956390E-002  0.9118800E+02  0.7818608E-02  0.1130116E+00
         25   -1    0    0    0    0  0.00000000000E+00  0.00000000000E+00  0.99999998245E-14  0.12500000000E+03  0.12500000000E+03 0.  0.
        -11    1    1    0    0    0 -0.43927735803E+02 -0.30006522300E+02 -0.13215717834E+02  0.54815075951E+02  0.51100000000E-03 0.  1.
         11    1    1    0    0    0 -0.61511507570E+01 -0.42045751799E+01 -0.18823812624E+01  0.76849507193E+01  0.51100000000E-03 0. -1.
         22    1    1    0    0    0  0.50078886560E+02  0.34211097480E+02  0.15098099096E+02  0.62499973330E+02  0.00000000000E+00 0.  1.
</event>
<event>
 4    1  0.1956390E-002  0.9118800E+02  0.7818608E-02  0.1130116E+00
         25   -1    0    0    0    0  0.00000000000E+00  0.00000000000E+00  0.99999998245E-14  0.12500000000E+03  0.12500000000E+03 0.  0.
        -11    1    1    0    0    0 -0.35398347268E+02  0.37033143725E+02  0.34909440465E+01  0.51348645689E+02  0.51100000000E-03 0.  1.
         11    1    1    0    0    0 -0.96079355336E+01  0.59671010174E+01 -0.51645519850E-01  0.11310233742E+02  0.51100000000E-03 0. -1.
         22    1    1    0    0    0  0.45006282801E+02 -0.43000244743E+02 -0.34392985266E+01  0.62341120570E+02  0.00000000000E+00 0.  1.
</event>
<event>
 4    1  0.1956390E-002  0.9118800E+02  0.7818608E-02  0.1130116E+00
         25   -1    0    0    0    0  0.00000000000E+00  0.00000000000E+00  0.99999998245E-14  0.12500000000E+03  0.12500000000E+03 0.  0.
        -11    1    1    0    0    0  0.56562297014E+00  0.67384055605E+00 -0.58023525563E+01  0.58686698568E+01  0.51100000000E-03 0.  1.
         11    1    1    0    0    0  0.54262905210E+01  0.68771730307E+01 -0.55949746560E+02  0.56631389513E+02  0.51100000000E-03 0. -1.
         22    1    1    0    0    0 -0.59919134911E+01 -0.75510135867E+01  0.61752099117E+02  0.62499940630E+02  0.00000000000E+00 0. -1.
</event>
<event>
 4    1  0.1956390E-002  0.9118800E+02  0.7818608E-02  0.1130116E+00
         25   -1    0    0    0    0  0.00000000000E+00  0.00000000000E+00  0.99999998245E-14  0.12500000000E+03  0.12500000000E+03 0.  0.
        -11    1    1    0    0    0  0.53078437549E+01 -0.95210846253E+01  0.49142336775E+02  0.50336800869E+02  0.51100000000E-03 0.  1.
         11    1    1    0    0    0  0.11409208919E+01 -0.19663640827E+01  0.11951174319E+02  0.12165478044E+02  0.51100000000E-03 0. -1.
         22    1    1    0    0    0 -0.64487646469E+01  0.11487448708E+02 -0.61093511094E+02  0.62497721087E+02  0.00000000000E+00 0.  1.
</event>
<event>
 4    1  0.1956390E-002  0.9118800E+02  0.7818608E-02  0.1130116E+00
         25   -1    0    0    0    0  0.00000000000E+00  0.00000000000E+00  0.99999998245E-14  0.12500000000E+03  0.12500000000E+03 0.  0.
        -11    1    1    0    0    0 -0.17069047769E+01 -0.46271119769E+01  0.37286147788E+02  0.37610909406E+02  0.51100000000E-03 0. -1.
         11    1    1    0    0    0 -0.11422414028E+01 -0.33867428589E+01  0.24631776400E+02  0.24889739884E+02  0.51100000000E-03 0.  1.
         22    1    1    0    0    0  0.28491461797E+01  0.80138548358E+01 -0.61917924189E+02  0.62499350710E+02  0.00000000000E+00 0.  1.
</event>
<event>
 4    1  0.1956390E-002  0.9118800E+02  0.7818608E-02  0.1130116E+00
         25   -1    0    0    0    0  0.00000000000E+00  0.00000000000E+00  0.99999998245E-14  0.12500000000E+03  0.12500000000E+03 0.  0.
        -11    1    1    0    0    0 -0.39942589355E+01 -0.18557121677E+02  0.28509243552E+01  0.19195016002E+02  0.51100000000E-03 0.  1.
         11    1    1    0    0    0 -0.90112690246E+01 -0.41864426886E+02  0.64411524545E+01  0.43304984161E+02  0.51100000000E-03 0. -1.
         22    1    1    0    0    0  0.13005527960E+02  0.60421548563E+02 -0.92920768097E+01  0.62499999838E+02  0.00000000000E+00 0. -1.
</event>
<event>
 4    1  0.1956390E-002  0.9118800E+02  0.7818608E-02  0.1130116E+00
         25   -1    0    0    0    0  0.00000000000E+00  0.00000000000E+00  0.99999998245E-14  0.12500000000E+03  0.12500000000E+03 0.  0.
        -11    1    1    0    0    0  0.14749932485E+01 -0.42409509498E+02  0.21654233903E+02  0.47640822276E+02  0.51100000000E-03 0.  1.
         11    1    1    0    0    0  0.66316146647E+00 -0.13151253652E+02  0.68865483358E+01  0.14860006864E+02  0.51100000000E-03 0. -1.
         22    1    1    0    0    0 -0.21381547149E+01  0.55560763150E+02 -0.28540782239E+02  0.62499170860E+02  0.00000000000E+00 0.  1.
</event>
<event>
 4    1  0.1956390E-002  0.9118800E+02  0.7818608E-02  0.1130116E+00
         25   -1    0    0    0    0  0.00000000000E+00  0.00000000000E+00  0.99999998245E-14  0.12500000000E+03  0.12500000000E+03 0.  0.
        -11    1    1    0    0    0  0.22550745465E+02  0.32789481023E+02 -0.27039228129E+02  0.48112431292E+02  0.51100000000E-03 0.  1.
         11    1    1    0    0    0  0.47244534500E+01  0.99572970146E+01 -0.93673774074E+01  0.14464300328E+02  0.51100000000E-03 0. -1.
         22    1    1    0    0    0 -0.27275198915E+02 -0.42746778038E+02  0.36406605536E+02  0.62423268379E+02  0.00000000000E+00 0.  1.
</event>
<event>
 4    1  0.1956390E-002  0.9118800E+02  0.7818608E-02  0.1130116E+00
         25   -1    0    0    0    0  0.00000000000E+00  0.00000000000E+00  0.99999998245E-14  0.12500000000E+03  0.12500000000E+03 0.  0.
        -11    1    1    0    0    0  0.47369125430E+01 -0.51488342000E+01 -0.11282946612E+01  0.70867399531E+01  0.51100000000E-03 0.  1.
         11    1    1    0    0    0  0.37055543107E+02 -0.40250900572E+02 -0.87966570759E+01  0.55413260578E+02  0.51100000000E-03 0. -1.
         22    1    1    0    0    0 -0.41792455650E+02  0.45399734772E+02  0.99249517371E+01  0.62499999469E+02  0.00000000000E+00 0. -1.
</event>
<event>
 4    1  0.1956390E-002  0.9118800E+02  0.7818608E-02  0.1130116E+00
         25   -1    0    0    0    0  0.00000000000E+00  0.00000000000E+00  0.99999998245E-14  0.12500000000E+03  0.12500000000E+03 0.  0.
        -11    1    1    0    0    0 -0.79987178815E+01 -0.29552982209E+02  0.40434610034E+02  0.50718004043E+02  0.51100000000E-03 0. -1.
         11    1    1    0    0    0  0.44349351209E+01  0.19238864256E+01  0.13083182359E+02  0.13947747109E+02  0.51100000000E-03 0.  1.
         22    1    1    0    0    0  0.35637827606E+01  0.27629095784E+02 -0.53517792394E+02  0.60334248848E+02  0.00000000000E+00 0. -1.
</event>
<event>
 4    1  0.1956390E-002  0.9118800E+02  0.7818608E-02  0.1130116E+00
         25   -1    0    0    0    0  0.00000000000E+00  0.00000000000E+00  0.99999998245E-14  0.12500000000E+03  0.12500000000E+03 0.  0.
        -11    1    1    0    0    0  0.14982875680E+01 -0.16278181455E+01 -0.19573295860E+01  0.29539459915E+01  0.51100000000E-03 0. -1.
         11    1    1    0    0    0 -0.41286942566E+02 -0.43264106689E+02 -0.10662661100E+02  0.60746085438E+02  0.51100000000E-03 0.  1.
         22    1    1    0    0    0  0.39788654998E+02  0.44891924835E+02  0.12619990686E+02  0.61299968571E+02  0.00000000000E+00 0.  1.
</event>
<event>
 4    1  0.1956390E-002  0.9118800E+02  0.7818608E-02  0.1130116E+00
         25   -1    0    0    0    0  0.00000000000E+00  0.00000000000E+00  0.99999998245E-14  0.12500000000E+03  0.12500000000E+03 0.  0.
        -11    1    1    0    0    0  0.63345592210E+01  0.35207907949E+02 -0.32537751823E+02  0.48357302619E+02  0.51100000000E-03 0.  1.
         11    1    1    0    0    0  0.18529199505E+01  0.10296985273E+02 -0.95160218093E+01  0.14142697388E+02  0.51100000000E-03 0.  1.
         22    1    1    0    0    0 -0.81874791716E+01 -0.45504893222E+02  0.42053773633E+02  0.62499999993E+02  0.00000000000E+00 0.  1.
</event>
<event>
 4    1  0.1956390E-002  0.9118800E+02  0.7818608E-02  0.1130116E+00
         25   -1    0    0    0    0  0.00000000000E+00  0.00000000000E+00  0.99999998245E-14  0.12500000000E+03  0.12500000000E+03 0.  0.
        -11    1    1    0    0    0  0.12303322913E+02  0.10232988489E+02  0.28577898190E+02  0.32753352093E+02  0.51100000000E-03 0.  1.
         11    1    1    0    0    0  0.11039301056E+02  0.93473677264E+01  0.25992874032E+02  0.29746746913E+02  0.51100000000E-03 0. -1.
         22    1    1    0    0    0 -0.23342623969E+02 -0.19580356216E+02 -0.54570772222E+02  0.62499900994E+02  0.00000000000E+00 0.  1.
</event>
<event>
 4    1  0.1956390E-002  0.9118800E+02  0.7818608E-02  0.1130116E+00
         25   -1    0    0    0    0  0.00000000000E+00  0.00000000000E+00  0.99999998245E-14  0.12500000000E+03  0.12500000000E+03 0.  0.
        -11    1    1    0    0    0 -0.25304721631E+01  0.11288132240E+02  0.16705432242E+01  0.11688281900E+02  0.51100000000E-03 0. -1.
         11    1    1    0    0    0 -0.10999672950E+02  0.49072330899E+02  0.72625224240E+01  0.50811718108E+02  0.51100000000E-03 0. -1.
         22    1    1    0    0    0  0.13530145113E+02 -0.60360463139E+02 -0.89330656482E+01  0.62499999992E+02  0.00000000000E+00 0. -1.
</event>
<event>
 4    1  0.1956390E-002  0.9118800E+02  0.7818608E-02  0.1130116E+00
         25   -1    0    0    0    0  0.00000000000E+00  0.00000000000E+00  0.99999998245E-14  0.12500000000E+03  0.12500000000E+03 0.  0.
        -11    1    1    0    0    0 -0.53345282406E+01 -0.24079818909E+02 -0.19444196092E+02  0.31406553968E+02  0.51100000000E-03 0. -1.
         11    1    1    0    0    0 -0.58333589189E+01 -0.23679904711E+02 -0.19290407165E+02  0.31094786899E+02  0.51100000000E-03 0.  1.
         22    1    1    0    0    0  0.11167887159E+02  0.47759723621E+02  0.38734603257E+02  0.62498659133E+02  0.00000000000E+00 0. -1.
</event>
<event>
 4    1  0.1956390E-002  0.9118800E+02  0.7818608E-02  0.1130116E+00
         25   -1    0    0    0    0  0.00000000000E+00  0.00000000000E+00  0.99999998245E-14  0.12500000000E+03  0.12500000000E+03 0.  0.
        -11    1    1    0    0    0 -0.12977993069E+02  0.58353752957E+01  0.90360901890E+01  0.16856180917E+02  0.51100000000E-03 0. -1.
         11    1    1    0    0    0 -0.35146716976E+02  0.15802450988E+02  0.24461174520E+02  0.45643819194E+02  0.51100000000E-03 0.  1.
         22    1    1    0    0    0  0.48124710045E+02 -0.21637826284E+02 -0.33497264709E+02  0.62499999889E+02  0.00000000000E+00 0.  1.
</event>
<event>
 4    1  0.1956390E-002  0.9118800E+02  0.7818608E-02  0.1130116E+00
         25   -1    0    0    0    0  0.00000000000E+00  0.00000000000E+00  0.99999998245E-14  0.12500000000E+03  0.12500000000E+03 0.  0.
        -11    1    1    0    0    0  0.35787110323E+00 -0.91644457704E+00 -0.39275339465E+00  0.10593384159E+01  0.51100000000E-03 0.  1.
         11    1    1    0    0    0  0.20733903096E+02 -0.53143062023E+02 -0.22822689270E+02  0.61440661817E+02  0.51100000000E-03 0. -1.
         22    1    1    0    0    0 -0.21091774199E+02  0.54059506600E+02  0.23215442664E+02  0.62499999767E+02  0.00000000000E+00 0. -1.
</event>
<event>
 4    1  0.1956390E-002  0.9118800E+02  0.7818608E-02  0.1130116E+00
         25   -1    0    0    0    0  0.00000000000E+00  0.00000000000E+00  0.99999998245E-14  0.12500000000E+03  0.12500000000E+03 0.  0.
        -11    1    1    0    0    0 -0.22689988555E+02 -0.44821382382E+02 -0.28362267332E+02  0.57690641423E+02  0.51100000000E-03 0.  1.
         11    1    1    0    0    0 -0.22556555804E+01 -0.34390801669E+01 -0.25154107629E+01  0.48210523809E+01  0.51100000000E-03 0. -1.
         22    1    1    0    0    0  0.24945644136E+02  0.48260462549E+02  0.30877678095E+02  0.62488306197E+02  0.00000000000E+00 0.  1.
</event>
<event>
 4    1  0.1956390E-002  0.9118800E+02  0.7818608E-02  0.1130116E+00
         25   -1    0    0    0    0  0.00000000000E+00  0.00000000000E+00  0.99999998245E-14  0.12500000000E+03  0.12500000000E+03 0.  0.
        -11    1    1    0    0    0  0.26833774821E+01  0.37804174861E+02 -0.31851675803E+02  0.49506417800E+02  0.51100000000E-03 0.  1.
         11    1    1    0    0    0  0.70177330549E+00  0.99242417098E+01 -0.83576387314E+01  0.12993582443E+02  0.51100000000E-03 0. -1.
         22    1    1    0    0    0 -0.33851507876E+01 -0.47728416571E+02  0.40209314535E+02  0.62499999757E+02  0.00000000000E+00 0.  1.
</event>
<event>
 4    1  0.1956390E-002  0.9118800E+02  0.7818608E-02  0.1130116E+00
         25   -1    0    0    0    0  0.00000000000E+00  0.00000000000E+00  0.99999998245E-14  0.12500000000E+03  0.12500000000E+03 0.  0.
        -11    1    1    0    0    0 -0.56604983246E+01  0.17449326215E+01  0.82749941003E+01  0.10176519973E+02  0.51100000000E-03 0.  1.
         11    1    1    0    0    0 -0.28676616567E+02  0.78051118971E+01  0.43065369286E+02  0.52324890267E+02  0.51100000000E-03 0. -1.
         22    1    1    0    0    0  0.34337114892E+02 -0.95500445186E+01 -0.51340363386E+02  0.62498589760E+02  0.00000000000E+00 0. -1.
</event>
<event>
 4    1  0.1956390E-002  0.9118800E+02  0.7818608E-02  0.1130116E+00
         25   -1    0    0    0    0  0.00000000000E+00  0.00000000000E+00  0.99999998245E-14  0.12500000000E+03  0.12500000000E+03 0.  0.
        -11    1    1    0    0    0 -0.23767841793E+01 -0.20730398382E+01  0.62898128035E+01  0.70362164954E+01  0.51100000000E-03 0. -1.
         11    1    1    0    0    0 -0.18300405563E+02 -0.16563977035E+02  0.49668651960E+02  0.55463908686E+02  0.51100000000E-03 0.  1.
         22    1    1    0    0    0  0.20677189742E+02  0.18637016873E+02 -0.55958464764E+02  0.62499874818E+02  0.00000000000E+00 0.  1.
</event>
<event>
 4    1  0.1956390E-002  0.9118800E+02  0.7818608E-02  0.1130116E+00
         25   -1    0    0    0    0  0.00000000000E+00  0.00000000000E+00  0.99999998245E-14  0.12500000000E+03  0.12500000000E+03 0.  0.
        -11    1    1    0    0    0  0.48919636558E+02  0.15234890729E+02  0.76771559600E+01  0.51808990150E+02  0.51100000000E-03 0.  1.
         11    1    1    0    0    0  0.10094660893E+02  0.31442114889E+01  0.15841234713E+01  0.10691009861E+02  0.51100000000E-03 0.  1.
         22    1    1    0    0    0 -0.59014297450E+02 -0.18379102217E+02 -0.92612794314E+01  0.62499999989E+02  0.00000000000E+00 0.  1.
</event>
<event>
 4    1  0.1956390E-002  0.9118800E+02  0.7818608E-02  0.1130116E+00
         25   -1    0    0    0    0  0.00000000000E+00  0.00000000000E+00  0.99999998245E-14  0.12500000000E+03  0.12500000000E+03 0.  0.
        -11    1    1    0    0    0  0.25941311165E+02  0.37787639429E+02 -0.25776711974E+00  0.45835834919E+02  0.51100000000E-03 0.  1.
         11    1    1    0    0    0  0.94121206740E+01  0.13751124586E+02 -0.11542953001E+00  0.16664176163E+02  0.51100000000E-03 0. -1.
         22    1    1    0    0    0 -0.35353431839E+02 -0.51538764015E+02  0.37319664975E+00  0.62499988918E+02  0.00000000000E+00 0.  1.
</event>
<event>
 4    1  0.1956390E-002  0.9118800E+02  0.7818608E-02  0.1130116E+00
         25   -1    0    0    0    0  0.00000000000E+00  0.00000000000E+00  0.99999998245E-14  0.12500000000E+03  0.12500000000E+03 0.  0.
        -11    1    1    0    0    0 -0.15302087225E+02  0.42345522687E+02 -0.39574537540E+02  0.59945318306E+02  0.51100000000E-03 0.  1.
         11    1    1    0    0    0 -0.63959517252E+00  0.18097111659E+01 -0.16859269861E+01  0.25546989161E+01  0.51100000000E-03 0. -1.
         22    1    1    0    0    0  0.15941682398E+02 -0.44155233853E+02  0.41260464526E+02  0.62499982777E+02  0.00000000000E+00 0.  1.
</event>
<event>
 4    1  0.1956390E-002  0.9118800E+02  0.7818608E-02  0.1130116E+00
         25   -1    0    0    0    0  0.00000000000E+00  0.00000000000E+00  0.99999998245E-14  0.12500000000E+03  0.12500000000E+03 0.  0.
        -11    1    1    0    0    0 -0.30504911545E+01 -0.88744818515E+01  0.72077877123E+01  0.11832756584E+02  0.51100000000E-03 0.  1.
         11    1    1    0    0    0 -0.13412193518E+02 -0.38159200300E+02  0.30515299853E+02  0.50667494786E+02  0.51100000000E-03 0. -1.
         22    1    1    0    0    0  0.16462684673E+02  0.47033682151E+02 -0.37723087565E+02  0.62499748630E+02  0.00000000000E+00 0. -1.
</event>
<event>
 4    1  0.1956390E-002  0.9118800E+02  0.7818608E-02  0.1130116E+00
         25   -1    0    0    0    0  0.00000000000E+00  0.00000000000E+00  0.99999998245E-14  0.12500000000E+03  0.12500000000E+03 0.  0.
        -11    1    1    0    0    0  0.26840902954E+02  0.45784315189E+02  0.15366624058E+02  0.55251884347E+02  0.51100000000E-03 0.  1.
         11    1    1    0    0    0  0.35209772101E+01  0.60072174661E+01  0.20127699572E+01  0.72481159870E+01  0.51100000000E-03 0. -1.
         22    1    1    0    0    0 -0.30361880164E+02 -0.51791532655E+02 -0.17379394015E+02  0.62499999666E+02  0.00000000000E+00 0.  1.
</event>
<event>
 4    1  0.1956390E-002  0.9118800E+02  0.7818608E-02  0.1130116E+00
         25   -1    0    0    0    0  0.00000000000E+00  0.00000000000E+00  0.99999998245E-14  0.12500000000E+03  0.12500000000E+03 0.  0.
        -11    1    1    0    0    0 -0.16006715236E+02  0.54952710871E+01 -0.18014423224E+01  0.17019345807E+02  0.51100000000E-03 0.  1.
         11    1    1    0    0    0 -0.42780502540E+02  0.14677982914E+02 -0.47828307089E+01  0.45480655776E+02  0.51100000000E-03 0. -1.
         22    1    1    0    0    0  0.58787217776E+02 -0.20173254001E+02  0.65842730313E+01  0.62499998417E+02  0.00000000000E+00 0. -1.
</event>
<event>
 4    1  0.1956390E-002  0.9118800E+02  0.7818608E-02  0.1130116E+00
         25   -1    0    0    0    0  0.00000000000E+00  0.00000000000E+00  0.99999998245E-14  0.12500000000E+03  0.12500000000E+03 0.  0.
        -11    1    1    0    0    0  0.14583598410E+01  0.49474909621E+02 -0.28470864154E+02  0.57100644491E+02  0.51100000000E-03 0.  1.
         11    1    1    0    0    0 -0.68536161127E+00  0.47681580166E+01 -0.25055334214E+01  0.54298019666E+01  0.51100000000E-03 0. -1.
         22    1    1    0    0    0 -0.77299822976E+00 -0.54243067637E+02  0.30976397576E+02  0.62469553542E+02  0.00000000000E+00 0.  1.
</event>
<event>
 4    1  0.1956390E-002  0.9118800E+02  0.7818608E-02  0.1130116E+00
         25   -1    0    0    0    0  0.00000000000E+00  0.00000000000E+00  0.99999998245E-14  0.12500000000E+03  0.12500000000E+03 0.  0.
        -11    1    1    0    0    0 -0.57644345689E+01 -0.10415794073E+02 -0.65024958132E+01  0.13564657170E+02  0.51100000000E-03 0.  1.
         11    1    1    0    0    0 -0.20773886228E+02 -0.37586379136E+02 -0.23460127806E+02  0.48935343490E+02  0.51100000000E-03 0. -1.
         22    1    1    0    0    0  0.26538320797E+02  0.48002173209E+02  0.29962623619E+02  0.62499999341E+02  0.00000000000E+00 0. -1.
</event>
<event>
 4    1  0.1956390E-002  0.9118800E+02  0.7818608E-02  0.1130116E+00
         25   -1    0    0    0    0  0.00000000000E+00  0.00000000000E+00  0.99999998245E-14  0.12500000000E+03  0.12500000000E+03 0.  0.
        -11    1    1    0    0    0  0.56482333397E+02  0.86711499238E+01  0.78562469980E+01  0.57681569362E+02  0.51100000000E-03 0.  1.
         11    1    1    0    0    0  0.47240408917E+01  0.99319093437E+00  0.20462939327E+00  0.48316523083E+01  0.51100000000E-03 0. -1.
         22    1    1    0    0    0 -0.61206374289E+02 -0.96643408582E+01 -0.80608763912E+01  0.62486778329E+02  0.00000000000E+00 0.  1.
</event>
<event>
 4    1  0.1956390E-002  0.9118800E+02  0.7818608E-02  0.1130116E+00
         25   -1    0    0    0    0  0.00000000000E+00  0.00000000000E+00  0.99999998245E-14  0.12500000000E+03  0.12500000000E+03 0.  0.
        -11    1    1    0    0    0  0.81574810325E+01 -0.41935489338E+01  0.19511452424E+02  0.21559849847E+02  0.51100000000E-03 0. -1.
         11    1    1    0    0    0  0.15490721774E+02 -0.79640545870E+01  0.37050064350E+02  0.40940150160E+02  0.51100000000E-03 0. -1.
         22    1    1    0    0    0 -0.23648202806E+02  0.12157603521E+02 -0.56561516774E+02  0.62499999993E+02  0.00000000000E+00 0. -1.
</event>
<event>
 4    1  0.1956390E-002  0.9118800E+02  0.7818608E-02  0.1130116E+00
         25   -1    0    0    0    0  0.00000000000E+00  0.00000000000E+00  0.99999998245E-14  0.12500000000E+03  0.12500000000E+03 0.  0.
        -11    1    1    0    0    0 -0.36850953359E+02 -0.17469562588E-01 -0.75689957283E+01  0.37620244088E+02  0.51100000000E-03 0.  1.
         11    1    1    0    0    0 -0.24393292386E+02  0.70986007745E+00 -0.48609395408E+01  0.24883033341E+02  0.51100000000E-03 0. -1.
         22    1    1    0    0    0  0.61244245744E+02 -0.69239051487E+00  0.12429935269E+02  0.62496722572E+02  0.00000000000E+00 0.  1.
</event>
<event>
 4    1  0.1956390E-002  0.9118800E+02  0.7818608E-02  0.1130116E+00
         25   -1    0    0    0    0  0.00000000000E+00  0.00000000000E+00  0.99999998245E-14  0.12500000000E+03  0.12500000000E+03 0.  0.
        -11    1    1    0    0    0 -0.10729101562E+01 -0.17484759247E+02 -0.50559197447E+01  0.18232670316E+02  0.51100000000E-03 0.  1.
         11    1    1    0    0    0 -0.40856929209E+01 -0.42256003636E+02 -0.12556699552E+02  0.44271135448E+02  0.51100000000E-03 0. -1.
         22    1    1    0    0    0  0.51586030772E+01  0.59740762883E+02  0.17612619297E+02  0.62496194236E+02  0.00000000000E+00 0. -1.
</event>
<event>
 4    1  0.1956390E-002  0.9118800E+02  0.7818608E-02  0.1130116E+00
         25   -1    0    0    0    0  0.00000000000E+00  0.00000000000E+00  0.99999998245E-14  0.12500000000E+03  0.12500000000E+03 0.  0.
        -11    1    1    0    0    0 -0.21104863417E+02  0.27387745598E+01 -0.48286969592E+02  0.52768812556E+02  0.51100000000E-03 0. -1.
         11    1    1    0    0    0 -0.36819658770E+01  0.57225305735E+00 -0.89908466547E+01  0.97324031005E+01  0.51100000000E-03 0.  1.
         22    1    1    0    0    0  0.24786829294E+02 -0.33110276171E+01  0.57277816247E+02  0.62498784343E+02  0.00000000000E+00 0. -1.
</event>
<event>
 4    1  0.1956390E-002  0.9118800E+02  0.7818608E-02  0.1130116E+00
         25   -1    0    0    0    0  0.00000000000E+00  0.00000000000E+00  0.99999998245E-14  0.12500000000E+03  0.12500000000E+03 0.  0.
        -11    1    1    0    0    0 -0.90843297016E+01 -0.37047857005E+01 -0.10075738278E+02  0.14063107243E+02  0.51100000000E-03 0.  1.
         11    1    1    0    0    0 -0.31250218663E+02 -0.12769052804E+02 -0.34734823896E+02  0.48436895724E+02  0.51100000000E-03 0. -1.
         22    1    1    0    0    0  0.40334548364E+02  0.16473838505E+02  0.44810562174E+02  0.62499997034E+02  0.00000000000E+00 0. -1.
</event>
<event>
 4    1  0.1956390E-002  0.9118800E+02  0.7818608E-02  0.1130116E+00
         25   -1    0    0    0    0  0.00000000000E+00  0.00000000000E+00  0.99999998245E-14  0.12500000000E+03  0.12500000000E+03 0.  0.
        -11    1    1    0    0    0 -0.12250062502E+02 -0.35011397846E+02  0.26863305873E+02  0.45798462999E+02  0.51100000000E-03 0.  1.
         11    1    1    0    0    0 -0.45219823029E+01 -0.12768102226E+02  0.97708706870E+01  0.16701576951E+02  0.51100000000E-03 0. -1.
         22    1    1    0    0    0  0.16772044805E+02  0.47779500072E+02 -0.36634176560E+02  0.62499960050E+02  0.00000000000E+00 0. -1.
</event>
<event>
 4    1  0.1956390E-002  0.9118800E+02  0.7818608E-02  0.1130116E+00
         25   -1    0    0    0    0  0.00000000000E+00  0.00000000000E+00  0.99999998245E-14  0.12500000000E+03  0.12500000000E+03 0.  0.
        -11    1    1    0    0    0  0.14505365208E+02  0.56192634407E+01  0.51415520400E+01  0.16383445885E+02  0.51100000000E-03 0. -1.
         11    1    1    0    0    0  0.40850246031E+02  0.15678532659E+02  0.14566444546E+02  0.46116594564E+02  0.51100000000E-03 0.  1.
         22    1    1    0    0    0 -0.55355611240E+02 -0.21297796100E+02 -0.19707996586E+02  0.62499959551E+02  0.00000000000E+00 0. -1.
</event>
<event>
 4    1  0.1956390E-002  0.9118800E+02  0.7818608E-02  0.1130116E+00
         25   -1    0    0    0    0  0.00000000000E+00  0.00000000000E+00  0.99999998245E-14  0.12500000000E+03  0.12500000000E+03 0.  0.
        -11    1    1    0    0    0  0.80421248890E+01 -0.90342840837E+01  0.53199556067E+01  0.13213477572E+02  0.51100000000E-03 0. -1.
         11    1    1    0    0    0  0.29243194043E+02 -0.36546215837E+02  0.15532356482E+02  0.49315762065E+02  0.51100000000E-03 0.  1.
         22    1    1    0    0    0 -0.37285318932E+02  0.45580499921E+02 -0.20852312089E+02  0.62470760363E+02  0.00000000000E+00 0.  1.
</event>
<event>
 4    1  0.1956390E-002  0.9118800E+02  0.7818608E-02  0.1130116E+00
         25   -1    0    0    0    0  0.00000000000E+00  0.00000000000E+00  0.99999998245E-14  0.12500000000E+03  0.12500000000E+03 0.  0.
        -11    1    1    0    0    0 -0.57989450331E-01 -0.35946399892E+01  0.88815776663E+00  0.37031910439E+01  0.51100000000E-03 0. -1.
         11    1    1    0    0    0 -0.82588052468E+00 -0.57047328532E+02  0.14212164607E+02  0.58796814492E+02  0.51100000000E-03 0.  1.
         22    1    1    0    0    0  0.88386997501E+00  0.60641968521E+02 -0.15100322373E+02  0.62499994464E+02  0.00000000000E+00 0.  1.
</event>
<event>
 4    1  0.1956390E-002  0.9118800E+02  0.7818608E-02  0.1130116E+00
         25   -1    0    0    0    0  0.00000000000E+00  0.00000000000E+00  0.99999998245E-14  0.12500000000E+03  0.12500000000E+03 0.  0.
        -11    1    1    0    0    0  0.11119324047E+02  0.75179061455E+01  0.15999991103E+02  0.20884395985E+02  0.51100000000E-03 0.  1.
         11    1    1    0    0    0  0.22163824545E+02  0.14983597324E+02  0.31876562011E+02  0.41615604202E+02  0.51100000000E-03 0. -1.
         22    1    1    0    0    0 -0.33283148592E+02 -0.22501503469E+02 -0.47876553114E+02  0.62499999813E+02  0.00000000000E+00 0. -1.
</event>
<event>
 4    1  0.1956390E-002  0.9118800E+02  0.7818608E-02  0.1130116E+00
         25   -1    0    0    0    0  0.00000000000E+00  0.00000000000E+00  0.99999998245E-14  0.12500000000E+03  0.12500000000E+03 0.  0.
        -11    1    1    0    0    0 -0.44257863387E+02  0.26649824418E+02 -0.25954008700E+02  0.57815068805E+02  0.51100000000E-03 0.  1.
         11    1    1    0    0    0 -0.35859517035E+01  0.21605209476E+01 -0.21027792074E+01  0.46849312739E+01  0.51100000000E-03 0. -1.
         22    1    1    0    0    0  0.47843815090E+02 -0.28810345366E+02  0.28056787907E+02  0.62499999921E+02  0.00000000000E+00 0.  1.
</event>
<event>
 4    1  0.1956390E-002  0.9118800E+02  0.7818608E-02  0.1130116E+00
         25   -1    0    0    0    0  0.00000000000E+00  0.00000000000E+00  0.99999998245E-14  0.12500000000E+03  0.12500000000E+03 0.  0.
        -11    1    1    0    0    0  0.41643330065E+01 -0.72171293773E+01  0.16952923800E+02  0.18889951071E+02  0.51100000000E-03 0.  1.
         11    1    1    0    0    0  0.95969288591E+01 -0.16662739436E+02  0.39141901905E+02  0.43610049461E+02  0.51100000000E-03 0. -1.
         22    1    1    0    0    0 -0.13761261866E+02  0.23879868813E+02 -0.56094825705E+02  0.62499999468E+02  0.00000000000E+00 0.  1.
</event>
<event>
 4    1  0.1956390E-002  0.9118800E+02  0.7818608E-02  0.1130116E+00
         25   -1    0    0    0    0  0.00000000000E+00  0.00000000000E+00  0.99999998245E-14  0.12500000000E+03  0.12500000000E+03 0.  0.
        -11    1    1    0    0    0  0.15109024097E+01  0.17854171548E+00  0.29121647686E+01  0.32856364887E+01  0.51100000000E-03 0.  1.
         11    1    1    0    0    0  0.24966416337E+02  0.34937059903E+01  0.53581538475E+02  0.59215784989E+02  0.51100000000E-03 0. -1.
         22    1    1    0    0    0 -0.26477318747E+02 -0.36722477057E+01 -0.56493703243E+02  0.62498578523E+02  0.00000000000E+00 0. -1.
</event>
<event>
 4    1  0.1956390E-002  0.9118800E+02  0.7818608E-02  0.1130116E+00
         25   -1    0    0    0    0  0.00000000000E+00  0.00000000000E+00  0.99999998245E-14  0.12500000000E+03  0.12500000000E+03 0.  0.
        -11    1    1    0    0    0 -0.58266594485E+01  0.40924624512E+02  0.19151440525E+02  0.45558232255E+02  0.51100000000E-03 0. -1.
         11    1    1    0    0    0 -0.21670381296E+01  0.15218606793E+02  0.71218991365E+01  0.16941767751E+02  0.51100000000E-03 0. -1.
         22    1    1    0    0    0  0.79936975781E+01 -0.56143231304E+02 -0.26273339662E+02  0.62499999994E+02  0.00000000000E+00 0. -1.
</event>
<event>
 4    1  0.1956390E-002  0.9118800E+02  0.7818608E-02  0.1130116E+00
         25   -1    0    0    0    0  0.00000000000E+00  0.00000000000E+00  0.99999998245E-14  0.12500000000E+03  0.12500000000E+03 0.  0.
        -11    1    1    0    0    0  0.17168684634E+01  0.11623060869E+02  0.38376686212E+01  0.12360051861E+02  0.51100000000E-03 0.  1.
         11    1    1    0    0    0  0.12418548315E+02  0.40647273906E+02  0.26974370980E+02  0.50339228325E+02  0.51100000000E-03 0. -1.
         22    1    1    0    0    0 -0.14135416779E+02 -0.52270334776E+02 -0.30812039601E+02  0.62300719815E+02  0.00000000000E+00 0. -1.
</event>
<event>
 4    1  0.1956390E-002  0.9118800E+02  0.7818608E-02  0.1130116E+00
         25   -1    0    0    0    0  0.00000000000E+00  0.00000000000E+00  0.99999998245E-14  0.12500000000E+03  0.12500000000E+03 0.  0.
        -11    1    1    0    0    0 -0.13943031638E+01 -0.33862825341E+01  0.62596646341E+00  0.37152153353E+01  0.51100000000E-03 0.  1.
         11    1    1    0    0    0 -0.21960879441E+02 -0.53782387616E+02  0.89917597853E+01  0.58785008189E+02  0.51100000000E-03 0. -1.
         22    1    1    0    0    0  0.23355182605E+02  0.57168670150E+02 -0.96177262487E+01  0.62499776475E+02  0.00000000000E+00 0. -1.
</event>
<event>
 4    1  0.1956390E-002  0.9118800E+02  0.7818608E-02  0.1130116E+00
         25   -1    0    0    0    0  0.00000000000E+00  0.00000000000E+00  0.99999998245E-14  0.12500000000E+03  0.12500000000E+03 0.  0.
        -11    1    1    0    0    0  0.20309330761E+02 -0.22127289391E+02  0.26369195227E+02  0.39967740854E+02  0.51100000000E-03 0. -1.
         11    1    1    0    0    0  0.11443286834E+02 -0.12559990529E+02  0.14798794441E+02  0.22532343261E+02  0.51100000000E-03 0.  1.
         22    1    1    0    0    0 -0.31752617595E+02  0.34687279921E+02 -0.41167989667E+02  0.62499915886E+02  0.00000000000E+00 0. -1.
</event>
<event>
 4    1  0.1956390E-002  0.9118800E+02  0.7818608E-02  0.1130116E+00
         25   -1    0    0    0    0  0.00000000000E+00  0.00000000000E+00  0.99999998245E-14  0.12500000000E+03  0.12500000000E+03 0.  0.
        -11    1    1    0    0    0  0.26447911897E+02  0.20719005193E+02 -0.19719403673E+02  0.38956695206E+02  0.51100000000E-03 0.  1.
         11    1    1    0    0    0  0.14997480291E+02  0.16502668262E+02 -0.81659196967E+01  0.23747520283E+02  0.51100000000E-03 0. -1.
         22    1    1    0    0    0 -0.41445392188E+02 -0.37221673455E+02  0.27885323370E+02  0.62295784511E+02  0.00000000000E+00 0. -1.
</event>
<event>
 4    1  0.1956390E-002  0.9118800E+02  0.7818608E-02  0.1130116E+00
         25   -1    0    0    0    0  0.00000000000E+00  0.00000000000E+00  0.99999998245E-14  0.12500000000E+03  0.12500000000E+03 0.  0.
        -11    1    1    0    0    0 -0.27430602810E+02  0.16181897047E+02  0.18413405074E+02  0.36787841052E+02  0.51100000000E-03 0.  1.
         11    1    1    0    0    0 -0.19171085829E+02  0.11312239538E+02  0.12869258888E+02  0.25712158988E+02  0.51100000000E-03 0. -1.
         22    1    1    0    0    0  0.46601688639E+02 -0.27494136585E+02 -0.31282663962E+02  0.62499999961E+02  0.00000000000E+00 0.  1.
</event>
<event>
 4    1  0.1956390E-002  0.9118800E+02  0.7818608E-02  0.1130116E+00
         25   -1    0    0    0    0  0.00000000000E+00  0.00000000000E+00  0.99999998245E-14  0.12500000000E+03  0.12500000000E+03 0.  0.
        -11    1    1    0    0    0  0.14628993862E+02  0.19639475354E+02 -0.11983544038E+01  0.24518411594E+02  0.51100000000E-03 0. -1.
         11    1    1    0    0    0  0.22687086798E+02  0.30405757423E+02 -0.18404627688E+01  0.37981591532E+02  0.51100000000E-03 0.  1.
         22    1    1    0    0    0 -0.37316080659E+02 -0.50045232776E+02  0.30388171726E+01  0.62499996874E+02  0.00000000000E+00 0.  1.
</event>
<event>
 4    1  0.1956390E-002  0.9118800E+02  0.7818608E-02  0.1130116E+00
         25   -1    0    0    0    0  0.00000000000E+00  0.00000000000E+00  0.99999998245E-14  0.12500000000E+03  0.12500000000E+03 0.  0.
        -11    1    1    0    0    0 -0.18945825765E+02  0.40719348184E+02 -0.22405696288E+02  0.50189887994E+02  0.51100000000E-03 0.  1.
         11    1    1    0    0    0 -0.46876570322E+01  0.10001104209E+02 -0.54355157818E+01  0.12310200889E+02  0.51100000000E-03 0. -1.
         22    1    1    0    0    0  0.23633482797E+02 -0.50720452393E+02  0.27841212070E+02  0.62499911117E+02  0.00000000000E+00 0.  1.
</event>
<event>
 4    1  0.1956390E-002  0.9118800E+02  0.7818608E-02  0.1130116E+00
         25   -1    0    0    0    0  0.00000000000E+00  0.00000000000E+00  0.99999998245E-14  0.12500000000E+03  0.12500000000E+03 0.  0.
        -11    1    1    0    0    0  0.71114686054E+01 -0.33812795745E+01 -0.20134746756E+01  0.81277375583E+01  0.51100000000E-03 0.  1.
         11    1    1    0    0    0  0.47564530270E+02 -0.22631849981E+02 -0.13481757115E+02  0.54372262677E+02  0.51100000000E-03 0. -1.
         22    1    1    0    0    0 -0.54675998876E+02  0.26013129555E+02  0.15495231791E+02  0.62499999765E+02  0.00000000000E+00 0. -1.
</event>
<event>
 4    1  0.1956390E-002  0.9118800E+02  0.7818608E-02  0.1130116E+00
         25   -1    0    0    0    0  0.00000000000E+00  0.00000000000E+00  0.99999998245E-14  0.12500000000E+03  0.12500000000E+03 0.  0.
        -11    1    1    0    0    0  0.64585578875E+00 -0.80800492341E+01  0.14582003351E+02  0.16683499253E+02  0.51100000000E-03 0.  1.
         11    1    1    0    0    0  0.29860172500E+01 -0.23138107608E+02  0.39436394131E+02  0.45820492195E+02  0.51100000000E-03 0. -1.
         22    1    1    0    0    0 -0.36318730387E+01  0.31218156842E+02 -0.54018397482E+02  0.62496008552E+02  0.00000000000E+00 0. -1.
</event>
<event>
 4    1  0.1956390E-002  0.9118800E+02  0.7818608E-02  0.1130116E+00
         25   -1    0    0    0    0  0.00000000000E+00  0.00000000000E+00  0.99999998245E-14  0.12500000000E+03  0.12500000000E+03 0.  0.
        -11    1    1    0    0    0  0.38580340578E+01 -0.54321381600E+02  0.52515608114E+00  0.54460744715E+02  0.51100000000E-03 0.  1.
         11    1    1    0    0    0  0.50925873352E+00 -0.80232122801E+01  0.30196484115E-01  0.80394148940E+01  0.51100000000E-03 0. -1.
         22    1    1    0    0    0 -0.43672927913E+01  0.62344593880E+02 -0.55535256526E+00  0.62499840391E+02  0.00000000000E+00 0.  1.
</event>
<event>
 4    1  0.1956390E-002  0.9118800E+02  0.7818608E-02  0.1130116E+00
         25   -1    0    0    0    0  0.00000000000E+00  0.00000000000E+00  0.99999998245E-14  0.12500000000E+03  0.12500000000E+03 0.  0.
        -11    1    1    0    0    0 -0.49741247511E+02 -0.43314906915E+01 -0.37220632224E+02  0.62276231252E+02  0.51100000000E-03 0. -1.
         11    1    1    0    0    0  0.27109918398E+01 -0.23605683342E+00  0.25968798354E+00  0.27336125720E+01  0.51100000000E-03 0.  1.
         22    1    1    0    0    0  0.47030255671E+02  0.45675475249E+01  0.36960944240E+02  0.59990156176E+02  0.00000000000E+00 0. -1.
</event>
<event>
 4    1  0.1956390E-002  0.9118800E+02  0.7818608E-02  0.1130116E+00
         25   -1    0    0    0    0  0.00000000000E+00  0.00000000000E+00  0.99999998245E-14  0.12500000000E+03  0.12500000000E+03 0.  0.
        -11    1    1    0    0    0 -0.36652999748E+02  0.15153878646E+02  0.31681509025E+02  0.50762195016E+02  0.51100000000E-03 0. -1.
         11    1    1    0    0    0  0.15269429401E+02 -0.34082305769E+02 -0.10853274411E+02  0.38891549294E+02  0.51100000000E-03 0.  1.
         22    1    1    0    0    0  0.21383570348E+02  0.18928427123E+02 -0.20828234614E+02  0.35346255690E+02  0.00000000000E+00 0. -1.
</event>
<event>
 4    1  0.1956390E-002  0.9118800E+02  0.7818608E-02  0.1130116E+00
         25   -1    0    0    0    0  0.00000000000E+00  0.00000000000E+00  0.99999998245E-14  0.12500000000E+03  0.12500000000E+03 0.  0.
        -11    1    1    0    0    0 -0.23992302561E+02 -0.20010828577E+02 -0.82829043106E+01  0.32321360531E+02  0.51100000000E-03 0. -1.
         11    1    1    0    0    0 -0.22400137293E+02 -0.18686415354E+02 -0.77331761041E+01  0.30178639507E+02  0.51100000000E-03 0.  1.
         22    1    1    0    0    0  0.46392439854E+02  0.38697243931E+02  0.16016080415E+02  0.62499999962E+02  0.00000000000E+00 0. -1.
</event>
<event>
 4    1  0.1956390E-002  0.9118800E+02  0.7818608E-02  0.1130116E+00
         25   -1    0    0    0    0  0.00000000000E+00  0.00000000000E+00  0.99999998245E-14  0.12500000000E+03  0.12500000000E+03 0.  0.
        -11    1    1    0    0    0 -0.24901699525E+01  0.15437870990E+02  0.88636928288E+01  0.17974811763E+02  0.51100000000E-03 0. -1.
         11    1    1    0    0    0 -0.62083391215E+01  0.38249802519E+02  0.21929474767E+02  0.44525192096E+02  0.51100000000E-03 0.  1.
         22    1    1    0    0    0  0.86985090740E+01 -0.53687673509E+02 -0.30793167596E+02  0.62499996140E+02  0.00000000000E+00 0.  1.
</event>
<event>
 4    1  0.1956390E-002  0.9118800E+02  0.7818608E-02  0.1130116E+00
         25   -1    0    0    0    0  0.00000000000E+00  0.00000000000E+00  0.99999998245E-14  0.12500000000E+03  0.12500000000E+03 0.  0.
        -11    1    1    0    0    0  0.23329188169E+02 -0.14173636491E+02 -0.29637820166E+02  0.40293217499E+02  0.51100000000E-03 0. -1.
         11    1    1    0    0    0  0.12859995574E+02 -0.78154321304E+01 -0.16330362381E+02  0.22206782777E+02  0.51100000000E-03 0.  1.
         22    1    1    0    0    0 -0.36189183743E+02  0.21989068621E+02  0.45968182547E+02  0.62499999724E+02  0.00000000000E+00 0.  1.
</event>
<event>
 4    1  0.1956390E-002  0.9118800E+02  0.7818608E-02  0.1130116E+00
         25   -1    0    0    0    0  0.00000000000E+00  0.00000000000E+00  0.99999998245E-14  0.12500000000E+03  0.12500000000E+03 0.  0.
        -11    1    1    0    0    0  0.27956308305E+02  0.39829509248E+02  0.19026241186E+02  0.52248854867E+02  0.51100000000E-03 0.  1.
         11    1    1    0    0    0  0.48058866400E+01  0.82623985179E+01  0.37415188009E+01  0.10264635350E+02  0.51100000000E-03 0. -1.
         22    1    1    0    0    0 -0.32762194945E+02 -0.48091907766E+02 -0.22767759987E+02  0.62486509784E+02  0.00000000000E+00 0.  1.
</event>
<event>
 4    1  0.1956390E-002  0.9118800E+02  0.7818608E-02  0.1130116E+00
         25   -1    0    0    0    0  0.00000000000E+00  0.00000000000E+00  0.99999998245E-14  0.12500000000E+03  0.12500000000E+03 0.  0.
        -11    1    1    0    0    0 -0.22952704376E+01 -0.60324954764E+01 -0.27040770614E+02  0.27800405459E+02  0.51100000000E-03 0.  1.
         11    1    1    0    0    0  0.25046083702E+02 -0.28600592643E+02  0.38602225966E+02  0.54179627703E+02  0.51100000000E-03 0. -1.
         22    1    1    0    0    0 -0.22750813264E+02  0.34633088119E+02 -0.11561455352E+02  0.43019966837E+02  0.00000000000E+00 0. -1.
</event>
<event>
 4    1  0.1956390E-002  0.9118800E+02  0.7818608E-02  0.1130116E+00
         25   -1    0    0    0    0  0.00000000000E+00  0.00000000000E+00  0.99999998245E-14  0.12500000000E+03  0.12500000000E+03 0.  0.
        -11    1    1    0    0    0 -0.61051567500E+01 -0.61469631843E+00  0.11162962188E+01  0.62367385720E+01  0.51100000000E-03 0.  1.
         11    1    1    0    0    0 -0.55080842855E+02 -0.55277707551E+01  0.10054805669E+02  0.56263261694E+02  0.51100000000E-03 0. -1.
         22    1    1    0    0    0  0.61185999605E+02  0.61424670735E+01 -0.11171101887E+02  0.62499999734E+02  0.00000000000E+00 0. -1.
</event>
<event>
 4    1  0.1956390E-002  0.9118800E+02  0.7818608E-02  0.1130116E+00
         25   -1    0    0    0    0  0.00000000000E+00  0.00000000000E+00  0.99999998245E-14  0.12500000000E+03  0.12500000000E+03 0.  0.
        -11    1    1    0    0    0 -0.95753860638E+00  0.74423180087E-01  0.44428392495E+00  0.10582095537E+01  0.51100000000E-03 0.  1.
         11    1    1    0    0    0  0.41075429987E+02 -0.46771324654E+02  0.26161022237E+01  0.62302421700E+02  0.51100000000E-03 0. -1.
         22    1    1    0    0    0 -0.40117891381E+02  0.46696901474E+02 -0.30603861487E+01  0.61639368747E+02  0.00000000000E+00 0. -1.
</event>
<event>
 4    1  0.1956390E-002  0.9118800E+02  0.7818608E-02  0.1130116E+00
         25   -1    0    0    0    0  0.00000000000E+00  0.00000000000E+00  0.99999998245E-14  0.12500000000E+03  0.12500000000E+03 0.  0.
        -11    1    1    0    0    0 -0.12847494750E+02  0.50647350497E+01 -0.11118527074E+02  0.17729391051E+02  0.51100000000E-03 0. -1.
         11    1    1    0    0    0 -0.31898868019E+02  0.11810930487E+02 -0.29115328797E+02  0.44774303245E+02  0.51100000000E-03 0.  1.
         22    1    1    0    0    0  0.44746362769E+02 -0.16875665537E+02  0.40233855872E+02  0.62496305704E+02  0.00000000000E+00 0.  1.
</event>
<event>
 4    1  0.1956390E-002  0.9118800E+02  0.7818608E-02  0.1130116E+00
         25   -1    0    0    0    0  0.00000000000E+00  0.00000000000E+00  0.99999998245E-14  0.12500000000E+03  0.12500000000E+03 0.  0.
        -11    1    1    0    0    0 -0.17410780627E+01  0.19548425817E+02 -0.11094036181E+02  0.22544399388E+02  0.51100000000E-03 0.  1.
         11    1    1    0    0    0 -0.30898115257E+01  0.34658290504E+02 -0.19639401923E+02  0.39955602162E+02  0.51100000000E-03 0. -1.
         22    1    1    0    0    0  0.48308895885E+01 -0.54206716321E+02  0.30733438104E+02  0.62499998450E+02  0.00000000000E+00 0. -1.
</event>
<event>
 4    1  0.1956390E-002  0.9118800E+02  0.7818608E-02  0.1130116E+00
         25   -1    0    0    0    0  0.00000000000E+00  0.00000000000E+00  0.99999998245E-14  0.12500000000E+03  0.12500000000E+03 0.  0.
        -11    1    1    0    0    0 -0.40517321537E+01  0.61601650326E+01  0.30180433537E+01  0.79669788891E+01  0.51100000000E-03 0.  1.
         11    1    1    0    0    0 -0.27448671810E+02  0.42402661496E+02  0.20553456203E+02  0.54533107818E+02  0.51100000000E-03 0. -1.
         22    1    1    0    0    0  0.31500403964E+02 -0.48562826529E+02 -0.23571499556E+02  0.62499913293E+02  0.00000000000E+00 0. -1.
</event>
<event>
 4    1  0.1956390E-002  0.9118800E+02  0.7818608E-02  0.1130116E+00
         25   -1    0    0    0    0  0.00000000000E+00  0.00000000000E+00  0.99999998245E-14  0.12500000000E+03  0.12500000000E+03 0.  0.
        -11    1    1    0    0    0  0.45505590384E+00 -0.25435892379E+02 -0.46457474551E+01  0.25860678001E+02  0.51100000000E-03 0. -1.
         11    1    1    0    0    0  0.73819718767E+00 -0.36166458552E+02 -0.58313053302E+01  0.36640984995E+02  0.51100000000E-03 0.  1.
         22    1    1    0    0    0 -0.11932530915E+01  0.61602350931E+02  0.10477052785E+02  0.62498337004E+02  0.00000000000E+00 0.  1.
</event>
<event>
 4    1  0.1956390E-002  0.9118800E+02  0.7818608E-02  0.1130116E+00
         25   -1    0    0    0    0  0.00000000000E+00  0.00000000000E+00  0.99999998245E-14  0.12500000000E+03  0.12500000000E+03 0.  0.
        -11    1    1    0    0    0  0.11882242113E+02  0.16350687090E+02 -0.10586045755E+02  0.22816595077E+02  0.51100000000E-03 0. -1.
         11    1    1    0    0    0  0.18262137380E+02  0.31009794794E+02 -0.16804592621E+02  0.39717846974E+02  0.51100000000E-03 0.  1.
         22    1    1    0    0    0 -0.30144379493E+02 -0.47360481884E+02  0.27390638375E+02  0.62465557949E+02  0.00000000000E+00 0.  1.
</event>
<event>
 4    1  0.1956390E-002  0.9118800E+02  0.7818608E-02  0.1130116E+00
         25   -1    0    0    0    0  0.00000000000E+00  0.00000000000E+00  0.99999998245E-14  0.12500000000E+03  0.12500000000E+03 0.  0.
        -11    1    1    0    0    0  0.22829819317E+02  0.34925071063E+02  0.42814046506E+02  0.59782972637E+02  0.51100000000E-03 0.  1.
         11    1    1    0    0    0 -0.27011731569E+01 -0.83765865911E+01  0.23354027473E+01  0.91059126723E+01  0.51100000000E-03 0. -1.
         22    1    1    0    0    0 -0.20128646161E+02 -0.26548484471E+02 -0.45149449253E+02  0.56111114691E+02  0.00000000000E+00 0.  1.
</event>
<event>
 4    1  0.1956390E-002  0.9118800E+02  0.7818608E-02  0.1130116E+00
         25   -1    0    0    0    0  0.00000000000E+00  0.00000000000E+00  0.99999998245E-14  0.12500000000E+03  0.12500000000E+03 0.  0.
        -11    1    1    0    0    0 -0.20918721488E+02 -0.51079501260E+01 -0.31845675161E+02  0.38442568721E+02  0.51100000000E-03 0. -1.
         11    1    1    0    0    0 -0.13091162650E+02 -0.31966362686E+01 -0.19928948209E+02  0.24057431283E+02  0.51100000000E-03 0. -1.
         22    1    1    0    0    0  0.34009884138E+02  0.83045863946E+01  0.51774623370E+02  0.62499999995E+02  0.00000000000E+00 0. -1.
</event>
<event>
 4    1  0.1956390E-002  0.9118800E+02  0.7818608E-02  0.1130116E+00
         25   -1    0    0    0    0  0.00000000000E+00  0.00000000000E+00  0.99999998245E-14  0.12500000000E+03  0.12500000000E+03 0.  0.
        -11    1    1    0    0    0 -0.20802583233E+02 -0.32575469961E+02 -0.34887260157E+02  0.52067548759E+02  0.51100000000E-03 0. -1.
         11    1    1    0    0    0  0.12187896096E+02  0.38097445574E+01 -0.11823369058E+02  0.17402615349E+02  0.51100000000E-03 0.  1.
         22    1    1    0    0    0  0.86146871361E+01  0.28765725403E+02  0.46710629215E+02  0.55529835891E+02  0.00000000000E+00 0. -1.
</event>
<event>
 4    1  0.1956390E-002  0.9118800E+02  0.7818608E-02  0.1130116E+00
         25   -1    0    0    0    0  0.00000000000E+00  0.00000000000E+00  0.99999998245E-14  0.12500000000E+03  0.12500000000E+03 0.  0.
        -11    1    1    0    0    0 -0.33058176679E+02  0.15707894351E+02  0.24811859174E+02  0.44217749221E+02  0.51100000000E-03 0.  1.
         11    1    1    0    0    0 -0.14773873255E+02  0.73894446598E+01  0.79939164678E+01  0.18351401148E+02  0.51100000000E-03 0. -1.
         22    1    1    0    0    0  0.47832049933E+02 -0.23097339011E+02 -0.32805775642E+02  0.62430849631E+02  0.00000000000E+00 0.  1.
</event>
<event>
 4    1  0.1956390E-002  0.9118800E+02  0.7818608E-02  0.1130116E+00
         25   -1    0    0    0    0  0.00000000000E+00  0.00000000000E+00  0.99999998245E-14  0.12500000000E+03  0.12500000000E+03 0.  0.
        -11    1    1    0    0    0 -0.28058818406E+02  0.40805361771E+01  0.55115008965E+01  0.28884679473E+02  0.51100000000E-03 0. -1.
         11    1    1    0    0    0 -0.32654731178E+02  0.47475566853E+01  0.64124108193E+01  0.33615320549E+02  0.51100000000E-03 0.  1.
         22    1    1    0    0    0  0.60713549585E+02 -0.88280928624E+01 -0.11923911716E+02  0.62499999979E+02  0.00000000000E+00 0.  1.
</event>
<event>
 4    1  0.1956390E-002  0.9118800E+02  0.7818608E-02  0.1130116E+00
         25   -1    0    0    0    0  0.00000000000E+00  0.00000000000E+00  0.99999998245E-14  0.12500000000E+03  0.12500000000E+03 0.  0.
        -11    1    1    0    0    0 -0.72056180419E+01 -0.59126563104E+01  0.54947701497E+01  0.10820024735E+02  0.51100000000E-03 0. -1.
         11    1    1    0    0    0  0.52987433041E+02 -0.18602040633E+02 -0.21041969390E+02  0.59970563213E+02  0.51100000000E-03 0.  1.
         22    1    1    0    0    0 -0.45781814999E+02  0.24514696944E+02  0.15547199240E+02  0.54209412052E+02  0.00000000000E+00 0.  1.
</event>
<event>
 4    1  0.1956390E-002  0.9118800E+02  0.7818608E-02  0.1130116E+00
         25   -1    0    0    0    0  0.00000000000E+00  0.00000000000E+00  0.99999998245E-14  0.12500000000E+03  0.12500000000E+03 0.  0.
        -11    1    1    0    0    0  0.34106433159E+01 -0.39462100476E+02 -0.22052331297E+02  0.45334260529E+02  0.51100000000E-03 0.  1.
         11    1    1    0    0    0  0.61475417525E+00 -0.14601136703E+02 -0.90258211727E+01  0.17176628419E+02  0.51100000000E-03 0. -1.
         22    1    1    0    0    0 -0.40253974912E+01  0.54063237179E+02  0.31078152470E+02  0.62489111053E+02  0.00000000000E+00 0.  1.
</event>
<event>
 4    1  0.1956390E-002  0.9118800E+02  0.7818608E-02  0.1130116E+00
         25   -1    0    0    0    0  0.00000000000E+00  0.00000000000E+00  0.99999998245E-14  0.12500000000E+03  0.12500000000E+03 0.  0.
        -11    1    1    0    0    0  0.38859574048E+01  0.14676595635E+01 -0.80232384698E+01  0.90347686938E+01  0.51100000000E-03 0. -1.
         11    1    1    0    0    0  0.22121950223E+02  0.12759839025E+02 -0.46985208221E+02  0.53477134978E+02  0.51100000000E-03 0.  1.
         22    1    1    0    0    0 -0.26007907628E+02 -0.14227498589E+02  0.55008446691E+02  0.62488096328E+02  0.00000000000E+00 0.  1.
</event>
<event>
 4    1  0.1956390E-002  0.9118800E+02  0.7818608E-02  0.1130116E+00
         25   -1    0    0    0    0  0.00000000000E+00  0.00000000000E+00  0.99999998245E-14  0.12500000000E+03  0.12500000000E+03 0.  0.
        -11    1    1    0    0    0 -0.22937350287E+02 -0.24532929939E+02  0.47144400521E+02  0.57884205016E+02  0.51100000000E-03 0. -1.
         11    1    1    0    0    0 -0.18319692843E+01 -0.19522232305E+01  0.37600914953E+01  0.46157962817E+01  0.51100000000E-03 0.  1.
         22    1    1    0    0    0  0.24769319571E+02  0.26485153170E+02 -0.50904492016E+02  0.62499998703E+02  0.00000000000E+00 0. -1.
</event>
<event>
 4    1  0.1956390E-002  0.9118800E+02  0.7818608E-02  0.1130116E+00
         25   -1    0    0    0    0  0.00000000000E+00  0.00000000000E+00  0.99999998245E-14  0.12500000000E+03  0.12500000000E+03 0.  0.
        -11    1    1    0    0    0 -0.51794038954E+02  0.29535906554E+02 -0.96895098978E+01  0.60405950448E+02  0.51100000000E-03 0. -1.
         11    1    1    0    0    0  0.50527712365E+01  0.36173138688E+01 -0.10184233571E+01  0.62970344757E+01  0.51100000000E-03 0.  1.
         22    1    1    0    0    0  0.46741267717E+02 -0.33153220423E+02  0.10707933255E+02  0.58297015077E+02  0.00000000000E+00 0. -1.
</event>
<event>
 4    1  0.1956390E-002  0.9118800E+02  0.7818608E-02  0.1130116E+00
         25   -1    0    0    0    0  0.00000000000E+00  0.00000000000E+00  0.99999998245E-14  0.12500000000E+03  0.12500000000E+03 0.  0.
        -11    1    1    0    0    0 -0.15057135338E+02 -0.65714277382E+00 -0.21579662221E+02  0.26321682754E+02  0.51100000000E-03 0. -1.
         11    1    1    0    0    0 -0.20911357925E+02 -0.11026963343E+01 -0.29502428041E+02  0.36178641352E+02  0.51100000000E-03 0.  1.
         22    1    1    0    0    0  0.35968493263E+02  0.17598391081E+01  0.51082090262E+02  0.62499675894E+02  0.00000000000E+00 0.  1.
</event>
<event>
 4    1  0.1956390E-002  0.9118800E+02  0.7818608E-02  0.1130116E+00
         25   -1    0    0    0    0  0.00000000000E+00  0.00000000000E+00  0.99999998245E-14  0.12500000000E+03  0.12500000000E+03 0.  0.
        -11    1    1    0    0    0 -0.14184689509E+02 -0.25641117071E+02 -0.38671023058E+02  0.48519277877E+02  0.51100000000E-03 0.  1.
         11    1    1    0    0    0 -0.40892734216E+01 -0.73874251952E+01 -0.11142907376E+02  0.13980722198E+02  0.51100000000E-03 0.  1.
         22    1    1    0    0    0  0.18273962930E+02  0.33028542266E+02  0.49813930434E+02  0.62499999925E+02  0.00000000000E+00 0.  1.
</event>
<event>
 4    1  0.1956390E-002  0.9118800E+02  0.7818608E-02  0.1130116E+00
         25   -1    0    0    0    0  0.00000000000E+00  0.00000000000E+00  0.99999998245E-14  0.12500000000E+03  0.12500000000E+03 0.  0.
        -11    1    1    0    0    0 -0.14228465987E+01  0.40267981245E+01 -0.19260671747E+02  0.19728483773E+02  0.51100000000E-03 0.  1.
         11    1    1    0    0    0 -0.30805669511E+01  0.87361063149E+01 -0.41756354759E+02  0.42771516331E+02  0.51100000000E-03 0. -1.
         22    1    1    0    0    0  0.45034135498E+01 -0.12762904439E+02  0.61017026506E+02  0.62499999895E+02  0.00000000000E+00 0. -1.
</event>
<event>
 4    1  0.1956390E-002  0.9118800E+02  0.7818608E-02  0.1130116E+00
         25   -1    0    0    0    0  0.00000000000E+00  0.00000000000E+00  0.99999998245E-14  0.12500000000E+03  0.12500000000E+03 0.  0.
        -11    1    1    0    0    0 -0.32444335428E+01 -0.14882365357E+02  0.11298021858E+02  0.18964610352E+02  0.51100000000E-03 0. -1.
         11    1    1    0    0    0 -0.74657391169E+01 -0.34154099919E+02  0.25943986266E+02  0.43535390494E+02  0.51100000000E-03 0.  1.
         22    1    1    0    0    0  0.10710172660E+02  0.49036465276E+02 -0.37242008124E+02  0.62499999154E+02  0.00000000000E+00 0.  1.
</event>
<event>
 4    1  0.1956390E-002  0.9118800E+02  0.7818608E-02  0.1130116E+00
         25   -1    0    0    0    0  0.00000000000E+00  0.00000000000E+00  0.99999998245E-14  0.12500000000E+03  0.12500000000E+03 0.  0.
        -11    1    1    0    0    0 -0.18505389700E+02  0.20750778078E+01  0.25487451233E+02  0.31565258853E+02  0.51100000000E-03 0. -1.
         11    1    1    0    0    0 -0.18087866711E+02  0.20942117332E+01  0.25008064573E+02  0.30934769094E+02  0.51100000000E-03 0.  1.
         22    1    1    0    0    0  0.36593256412E+02 -0.41692895410E+01 -0.50495515806E+02  0.62499972053E+02  0.00000000000E+00 0.  1.
</event>
<event>
 4    1  0.1956390E-002  0.9118800E+02  0.7818608E-02  0.1130116E+00
         25   -1    0    0    0    0  0.00000000000E+00  0.00000000000E+00  0.99999998245E-14  0.12500000000E+03  0.12500000000E+03 0.  0.
        -11    1    1    0    0    0  0.30213394980E+01  0.26565557324E+02 -0.19990976117E+02  0.33384074866E+02  0.51100000000E-03 0.  1.
         11    1    1    0    0    0  0.26221303743E+01  0.23165522636E+02 -0.17441907869E+02  0.29115926176E+02  0.51100000000E-03 0. -1.
         22    1    1    0    0    0 -0.56434698723E+01 -0.49731079960E+02  0.37432883986E+02  0.62499998958E+02  0.00000000000E+00 0.  1.
</event>
<event>
 4    1  0.1956390E-002  0.9118800E+02  0.7818608E-02  0.1130116E+00
         25   -1    0    0    0    0  0.00000000000E+00  0.00000000000E+00  0.99999998245E-14  0.12500000000E+03  0.12500000000E+03 0.  0.
        -11    1    1    0    0    0 -0.12319188439E+01  0.62410574343E+01 -0.11978227813E+02  0.13562682764E+02  0.51100000000E-03 0. -1.
         11    1    1    0    0    0 -0.44310438981E+01  0.22523111157E+02 -0.43219629284E+02  0.48937317477E+02  0.51100000000E-03 0.  1.
         22    1    1    0    0    0  0.56629627420E+01 -0.28764168591E+02  0.55197857097E+02  0.62499999759E+02  0.00000000000E+00 0.  1.
</event>
<event>
 4    1  0.1956390E-002  0.9118800E+02  0.7818608E-02  0.1130116E+00
         25   -1    0    0    0    0  0.00000000000E+00  0.00000000000E+00  0.99999998245E-14  0.12500000000E+03  0.12500000000E+03 0.  0.
        -11    1    1    0    0    0  0.47453902825E+02  0.31750227625E+02  0.23898447101E+02  0.61895764165E+02  0.51100000000E-03 0. -1.
         11    1    1    0    0    0  0.46389677672E+00  0.30850873453E+00  0.23393244493E+00  0.60423712949E+00  0.51100000000E-03 0.  1.
         22    1    1    0    0    0 -0.47917799601E+02 -0.32058736360E+02 -0.24132379545E+02  0.62499998705E+02  0.00000000000E+00 0. -1.
</event>
<event>
 4    1  0.1956390E-002  0.9118800E+02  0.7818608E-02  0.1130116E+00
         25   -1    0    0    0    0  0.00000000000E+00  0.00000000000E+00  0.99999998245E-14  0.12500000000E+03  0.12500000000E+03 0.  0.
        -11    1    1    0    0    0 -0.77241173117E+01 -0.11005991841E+02 -0.15290008783E+01  0.13532615733E+02  0.51100000000E-03 0.  1.
         11    1    1    0    0    0  0.19632514524E+01  0.35349330808E+02 -0.45827220850E+02  0.57909962148E+02  0.51100000000E-03 0. -1.
         22    1    1    0    0    0  0.57608658592E+01 -0.24343338968E+02  0.47356221729E+02  0.53557422118E+02  0.00000000000E+00 0. -1.
</event>
<event>
 4    1  0.1956390E-002  0.9118800E+02  0.7818608E-02  0.1130116E+00
         25   -1    0    0    0    0  0.00000000000E+00  0.00000000000E+00  0.99999998245E-14  0.12500000000E+03  0.12500000000E+03 0.  0.
        -11    1    1    0    0    0  0.15149491145E+01  0.77988349415E+00  0.25092496114E+01  0.30330880234E+01  0.51100000000E-03 0. -1.
         11    1    1    0    0    0  0.29673755058E+02  0.15323519836E+02  0.49203370518E+02  0.59466912397E+02  0.51100000000E-03 0.  1.
         22    1    1    0    0    0 -0.31188704173E+02 -0.16103403330E+02 -0.51712620130E+02  0.62499999580E+02  0.00000000000E+00 0.  1.
</event>
<event>
 4    1  0.1956390E-002  0.9118800E+02  0.7818608E-02  0.1130116E+00
         25   -1    0    0    0    0  0.00000000000E+00  0.00000000000E+00  0.99999998245E-14  0.12500000000E+03  0.12500000000E+03 0.  0.
        -11    1    1    0    0    0  0.54145591703E+00 -0.24722724588E+00  0.29928622276E+01  0.30514783950E+01  0.51100000000E-03 0. -1.
         11    1    1    0    0    0  0.10415684719E+02 -0.49254232476E+01  0.58321361159E+02  0.59448527737E+02  0.51100000000E-03 0.  1.
         22    1    1    0    0    0 -0.10957140636E+02  0.51726504935E+01 -0.61314223387E+02  0.62499993868E+02  0.00000000000E+00 0.  1.
</event>
<event>
 4    1  0.1956390E-002  0.9118800E+02  0.7818608E-02  0.1130116E+00
         25   -1    0    0    0    0  0.00000000000E+00  0.00000000000E+00  0.99999998245E-14  0.12500000000E+03  0.12500000000E+03 0.  0.
        -11    1    1    0    0    0  0.54132569292E+02  0.14824893342E+02  0.29326014887E+00  0.56126629353E+02  0.51100000000E-03 0. -1.
         11    1    1    0    0    0  0.58234231900E+01  0.23947588879E+01  0.14807541415E+01  0.64683661670E+01  0.51100000000E-03 0.  1.
         22    1    1    0    0    0 -0.59955992482E+02 -0.17219652230E+02 -0.17740142903E+01  0.62405004480E+02  0.00000000000E+00 0. -1.
</event>
<event>
 4    1  0.1956390E-002  0.9118800E+02  0.7818608E-02  0.1130116E+00
         25   -1    0    0    0    0  0.00000000000E+00  0.00000000000E+00  0.99999998245E-14  0.12500000000E+03  0.12500000000E+03 0.  0.
        -11    1    1    0    0    0  0.58234410694E+00  0.15238048230E+01  0.44708078981E-01  0.16319022247E+01  0.51100000000E-03 0. -1.
         11    1    1    0    0    0  0.22166584798E+02  0.56646864305E+02  0.21695545178E+01  0.60868149999E+02  0.51100000000E-03 0.  1.
         22    1    1    0    0    0 -0.22748928905E+02 -0.58170669128E+02 -0.22142625968E+01  0.62499947776E+02  0.00000000000E+00 0.  1.
</event>
<event>
 4    1  0.1956390E-002  0.9118800E+02  0.7818608E-02  0.1130116E+00
         25   -1    0    0    0    0  0.00000000000E+00  0.00000000000E+00  0.99999998245E-14  0.12500000000E+03  0.12500000000E+03 0.  0.
        -11    1    1    0    0    0 -0.14960138543E+02 -0.31727766490E+02  0.25185704534E+02  0.43183059466E+02  0.51100000000E-03 0.  1.
         11    1    1    0    0    0 -0.66708522718E+01 -0.14243154855E+02  0.11215096994E+02  0.19316990736E+02  0.51100000000E-03 0. -1.
         22    1    1    0    0    0  0.21630990815E+02  0.45970921345E+02 -0.36400801528E+02  0.62499949798E+02  0.00000000000E+00 0.  1.
</event>
<event>
 4    1  0.1956390E-002  0.9118800E+02  0.7818608E-02  0.1130116E+00
         25   -1    0    0    0    0  0.00000000000E+00  0.00000000000E+00  0.99999998245E-14  0.12500000000E+03  0.12500000000E+03 0.  0.
        -11    1    1    0    0    0  0.36908383012E+02  0.13197513368E+02 -0.87706737941E+01  0.40166252187E+02  0.51100000000E-03 0.  1.
         11    1    1    0    0    0  0.21133707818E+02  0.49596861660E+01 -0.54411427581E+01  0.22379413035E+02  0.51100000000E-03 0. -1.
         22    1    1    0    0    0 -0.58042090830E+02 -0.18157199534E+02  0.14211816552E+02  0.62454334778E+02  0.00000000000E+00 0.  1.
</event>
<event>
 4    1  0.1956390E-002  0.9118800E+02  0.7818608E-02  0.1130116E+00
         25   -1    0    0    0    0  0.00000000000E+00  0.00000000000E+00  0.99999998245E-14  0.12500000000E+03  0.12500000000E+03 0.  0.
        -11    1    1    0    0    0 -0.91219281490E+01 -0.43413480515E+02 -0.13407532013E+02  0.46343303491E+02  0.51100000000E-03 0. -1.
         11    1    1    0    0    0 -0.31591337144E+01 -0.15139600552E+02 -0.46745462398E+01  0.16156701814E+02  0.51100000000E-03 0.  1.
         22    1    1    0    0    0  0.12281061863E+02  0.58553081067E+02  0.18082078253E+02  0.62499994695E+02  0.00000000000E+00 0. -1.
</event>
<event>
 4    1  0.1956390E-002  0.9118800E+02  0.7818608E-02  0.1130116E+00
         25   -1    0    0    0    0  0.00000000000E+00  0.00000000000E+00  0.99999998245E-14  0.12500000000E+03  0.12500000000E+03 0.  0.
        -11    1    1    0    0    0 -0.66548902690E+00 -0.30884659814E+02 -0.36781383249E+02  0.48033064044E+02  0.51100000000E-03 0. -1.
         11    1    1    0    0    0 -0.36967269655E+00 -0.90562672633E+01 -0.11277816913E+02  0.14468648493E+02  0.51100000000E-03 0.  1.
         22    1    1    0    0    0  0.10351617234E+01  0.39940927078E+02  0.48059200162E+02  0.62498287463E+02  0.00000000000E+00 0. -1.
</event>
<event>
 4    1  0.1956390E-002  0.9118800E+02  0.7818608E-02  0.1130116E+00
         25   -1    0    0    0    0  0.00000000000E+00  0.00000000000E+00  0.99999998245E-14  0.12500000000E+03  0.12500000000E+03 0.  0.
        -11    1    1    0    0    0  0.32211498049E+01 -0.28439837254E+01 -0.29162813038E+02  0.29477681626E+02  0.51100000000E-03 0. -1.
         11    1    1    0    0    0  0.32473662600E+01 -0.37573568658E+01 -0.32648403419E+02  0.33023951374E+02  0.51100000000E-03 0.  1.
         22    1    1    0    0    0 -0.64685160648E+01  0.66013405912E+01  0.61811216458E+02  0.62498367000E+02  0.00000000000E+00 0.  1.
</event>
<event>
 4    1  0.1956390E-002  0.9118800E+02  0.7818608E-02  0.1130116E+00
         25   -1    0    0    0    0  0.00000000000E+00  0.00000000000E+00  0.99999998245E-14  0.12500000000E+03  0.12500000000E+03 0.  0.
        -11    1    1    0    0    0  0.45532534907E+01 -0.11456853158E+02  0.42225290572E+02  0.43988257135E+02  0.51100000000E-03 0.  1.
         11    1    1    0    0    0  0.64878883540E+01 -0.13070721091E+02  0.13026216015E+02  0.19560642859E+02  0.51100000000E-03 0. -1.
         22    1    1    0    0    0 -0.11041141845E+02  0.24527574249E+02 -0.55251506587E+02  0.61451100006E+02  0.00000000000E+00 0.  1.
</event>
<event>
 4    1  0.1956390E-002  0.9118800E+02  0.7818608E-02  0.1130116E+00
         25   -1    0    0    0    0  0.00000000000E+00  0.00000000000E+00  0.99999998245E-14  0.12500000000E+03  0.12500000000E+03 0.  0.
        -11    1    1    0    0    0 -0.15966491023E+02 -0.57425534097E+01  0.37939444781E+01  0.17386769976E+02  0.51100000000E-03 0. -1.
         11    1    1    0    0    0 -0.38687884533E+02 -0.23103207065E+02 -0.75957654192E+01  0.45696895287E+02  0.51100000000E-03 0.  1.
         22    1    1    0    0    0  0.54654375556E+02  0.28845760475E+02  0.38018209410E+01  0.61916334737E+02  0.00000000000E+00 0.  1.
</event>
<event>
 4    1  0.1956390E-002  0.9118800E+02  0.7818608E-02  0.1130116E+00
         25   -1    0    0    0    0  0.00000000000E+00  0.00000000000E+00  0.99999998245E-14  0.12500000000E+03  0.12500000000E+03 0.  0.
        -11    1    1    0    0    0  0.37461946197E+02 -0.30289343431E+02 -0.31444379514E+02  0.57529042592E+02  0.51100000000E-03 0.  1.
         11    1    1    0    0    0  0.32360408788E+01 -0.26167420688E+01 -0.27186613536E+01  0.49709575979E+01  0.51100000000E-03 0.  1.
         22    1    1    0    0    0 -0.40697987076E+02  0.32906085500E+02  0.34163040867E+02  0.62499999810E+02  0.00000000000E+00 0.  1.
</event>
<event>
 4    1  0.1956390E-002  0.9118800E+02  0.7818608E-02  0.1130116E+00
         25   -1    0    0    0    0  0.00000000000E+00  0.00000000000E+00  0.99999998245E-14  0.12500000000E+03  0.12500000000E+03 0.  0.
        -11    1    1    0    0    0  0.44484819833E+02  0.32483011998E+01 -0.13224640602E+02  0.46522486773E+02  0.51100000000E-03 0. -1.
         11    1    1    0    0    0  0.15277176031E+02  0.11143269786E+01 -0.45439079030E+01  0.15977513305E+02  0.51100000000E-03 0.  1.
         22    1    1    0    0    0 -0.59761995864E+02 -0.43626281784E+01  0.17768548505E+02  0.62499999922E+02  0.00000000000E+00 0. -1.
</event>
<event>
 4    1  0.1956390E-002  0.9118800E+02  0.7818608E-02  0.1130116E+00
         25   -1    0    0    0    0  0.00000000000E+00  0.00000000000E+00  0.99999998245E-14  0.12500000000E+03  0.12500000000E+03 0.  0.
        -11    1    1    0    0    0 -0.10293870008E+02  0.31292516076E+02 -0.17543467164E+02  0.37322360088E+02  0.51100000000E-03 0. -1.
         11    1    1    0    0    0 -0.60044476857E+01  0.21391538367E+02 -0.11855369372E+02  0.25183349438E+02  0.51100000000E-03 0.  1.
         22    1    1    0    0    0  0.16298317694E+02 -0.52684054443E+02  0.29398836536E+02  0.62494290474E+02  0.00000000000E+00 0.  1.
</event>
<event>
 4    1  0.1956390E-002  0.9118800E+02  0.7818608E-02  0.1130116E+00
         25   -1    0    0    0    0  0.00000000000E+00  0.00000000000E+00  0.99999998245E-14  0.12500000000E+03  0.12500000000E+03 0.  0.
        -11    1    1    0    0    0 -0.44357431772E+01  0.12061334284E+01 -0.21037749024E+01  0.50553382164E+01  0.51100000000E-03 0.  1.
         11    1    1    0    0    0 -0.52821526145E+02  0.10787434824E+02 -0.19865740667E+02  0.57455461245E+02  0.51100000000E-03 0. -1.
         22    1    1    0    0    0  0.57257269322E+02 -0.11993568253E+02  0.21969515569E+02  0.62489200539E+02  0.00000000000E+00 0. -1.
</event>
<event>
 4    1  0.1956390E-002  0.9118800E+02  0.7818608E-02  0.1130116E+00
         25   -1    0    0    0    0  0.00000000000E+00  0.00000000000E+00  0.99999998245E-14  0.12500000000E+03  0.12500000000E+03 0.  0.
        -11    1    1    0    0    0  0.11451340021E+02 -0.28447238131E+02  0.83284407381E+01  0.31776429487E+02  0.51100000000E-03 0.  1.
         11    1    1    0    0    0  0.11061198916E+02 -0.27510455523E+02  0.80475179094E+01  0.30723571233E+02  0.51100000000E-03 0. -1.
         22    1    1    0    0    0 -0.22512538937E+02  0.55957693654E+02 -0.16375958648E+02  0.62499999280E+02  0.00000000000E+00 0. -1.
</event>
<event>
 4    1  0.1956390E-002  0.9118800E+02  0.7818608E-02  0.1130116E+00
         25   -1    0    0    0    0  0.00000000000E+00  0.00000000000E+00  0.99999998245E-14  0.12500000000E+03  0.12500000000E+03 0.  0.
        -11    1    1    0    0    0  0.30867338306E+02 -0.35916825025E+02 -0.33444517066E+02  0.57977121488E+02  0.51100000000E-03 0.  1.
         11    1    1    0    0    0  0.23925061421E+01 -0.29421545847E+01 -0.24686925934E+01  0.45249091286E+01  0.51100000000E-03 0. -1.
         22    1    1    0    0    0 -0.33259844448E+02  0.38858979610E+02  0.35913209659E+02  0.62497969384E+02  0.00000000000E+00 0.  1.
</event>
<event>
 4    1  0.1956390E-002  0.9118800E+02  0.7818608E-02  0.1130116E+00
         25   -1    0    0    0    0  0.00000000000E+00  0.00000000000E+00  0.99999998245E-14  0.12500000000E+03  0.12500000000E+03 0.  0.
        -11    1    1    0    0    0 -0.12631709994E+01  0.10100669201E+02 -0.19824346913E+02  0.22285058897E+02  0.51100000000E-03 0. -1.
         11    1    1    0    0    0 -0.22774089065E+01  0.18225023547E+02 -0.35775737804E+02  0.40214941133E+02  0.51100000000E-03 0.  1.
         22    1    1    0    0    0  0.35405799059E+01 -0.28325692748E+02  0.55600084717E+02  0.62499999970E+02  0.00000000000E+00 0.  1.
</event>
<event>
 4    1  0.1956390E-002  0.9118800E+02  0.7818608E-02  0.1130116E+00
         25   -1    0    0    0    0  0.00000000000E+00  0.00000000000E+00  0.99999998245E-14  0.12500000000E+03  0.12500000000E+03 0.  0.
        -11    1    1    0    0    0 -0.13038941816E+01  0.19248938624E+00 -0.47951956198E+01  0.49730366472E+01  0.51100000000E-03 0.  1.
         11    1    1    0    0    0 -0.16766041676E+02  0.56888359822E+01 -0.54740289117E+02  0.57532271476E+02  0.51100000000E-03 0. -1.
         22    1    1    0    0    0  0.18069935858E+02 -0.58813253684E+01  0.59535484736E+02  0.62494691877E+02  0.00000000000E+00 0. -1.
</event>
<event>
 4    1  0.1956390E-002  0.9118800E+02  0.7818608E-02  0.1130116E+00
         25   -1    0    0    0    0  0.00000000000E+00  0.00000000000E+00  0.99999998245E-14  0.12500000000E+03  0.12500000000E+03 0.  0.
        -11    1    1    0    0    0 -0.25600134155E+02 -0.11907913083E+02  0.23033947976E+02  0.36438002448E+02  0.51100000000E-03 0. -1.
         11    1    1    0    0    0 -0.26421793415E+02  0.15146514361E+00  0.70258425304E+01  0.27340383546E+02  0.51100000000E-03 0.  1.
         22    1    1    0    0    0  0.52021927569E+02  0.11756447940E+02 -0.30059790507E+02  0.61221614006E+02  0.00000000000E+00 0. -1.
</event>
<event>
 4    1  0.1956390E-002  0.9118800E+02  0.7818608E-02  0.1130116E+00
         25   -1    0    0    0    0  0.00000000000E+00  0.00000000000E+00  0.99999998245E-14  0.12500000000E+03  0.12500000000E+03 0.  0.
        -11    1    1    0    0    0  0.29314484488E+01  0.31210168323E+01  0.79658355236E+01  0.90437089695E+01  0.51100000000E-03 0.  1.
         11    1    1    0    0    0  0.17577507599E+02  0.18282004430E+02  0.47057211616E+02  0.53456352520E+02  0.51100000000E-03 0. -1.
         22    1    1    0    0    0 -0.20508956048E+02 -0.21403021262E+02 -0.55023047140E+02  0.62499938511E+02  0.00000000000E+00 0. -1.
</event>
<event>
 4    1  0.1956390E-002  0.9118800E+02  0.7818608E-02  0.1130116E+00
         25   -1    0    0    0    0  0.00000000000E+00  0.00000000000E+00  0.99999998245E-14  0.12500000000E+03  0.12500000000E+03 0.  0.
        -11    1    1    0    0    0 -0.29738135656E+02 -0.18453321536E+02  0.45205795357E+02  0.57170322040E+02  0.51100000000E-03 0. -1.
         11    1    1    0    0    0  0.46599460515E-01 -0.26034094630E+01  0.51056320557E+01  0.57312643711E+01  0.51100000000E-03 0.  1.
         22    1    1    0    0    0  0.29691536195E+02  0.21056730999E+02 -0.50311427413E+02  0.62098413589E+02  0.00000000000E+00 0. -1.
</event>
<event>
 4    1  0.1956390E-002  0.9118800E+02  0.7818608E-02  0.1130116E+00
         25   -1    0    0    0    0  0.00000000000E+00  0.00000000000E+00  0.99999998245E-14  0.12500000000E+03  0.12500000000E+03 0.  0.
        -11    1    1    0    0    0 -0.17786642078E+02  0.36853194091E+02 -0.44797078269E+02  0.60673723907E+02  0.51100000000E-03 0. -1.
         11    1    1    0    0    0 -0.53552991699E+00  0.11079362260E+01 -0.13494334672E+01  0.18262765169E+01  0.51100000000E-03 0.  1.
         22    1    1    0    0    0  0.18322171995E+02 -0.37961130317E+02  0.46146511736E+02  0.62499999576E+02  0.00000000000E+00 0. -1.
</event>
<event>
 4    1  0.1956390E-002  0.9118800E+02  0.7818608E-02  0.1130116E+00
         25   -1    0    0    0    0  0.00000000000E+00  0.00000000000E+00  0.99999998245E-14  0.12500000000E+03  0.12500000000E+03 0.  0.
        -11    1    1    0    0    0  0.84916276083E+00  0.74328735845E+00 -0.95353650368E+00  0.14774253337E+01  0.51100000000E-03 0. -1.
         11    1    1    0    0    0  0.35066375965E+02  0.30731336013E+02 -0.39366088243E+02  0.61022574842E+02  0.51100000000E-03 0.  1.
         22    1    1    0    0    0 -0.35915538726E+02 -0.31474623372E+02  0.40319624746E+02  0.62499999825E+02  0.00000000000E+00 0.  1.
</event>
<event>
 4    1  0.1956390E-002  0.9118800E+02  0.7818608E-02  0.1130116E+00
         25   -1    0    0    0    0  0.00000000000E+00  0.00000000000E+00  0.99999998245E-14  0.12500000000E+03  0.12500000000E+03 0.  0.
        -11    1    1    0    0    0 -0.42561601907E+02  0.39600501309E+02  0.77621241321E+01  0.58651003676E+02  0.51100000000E-03 0. -1.
         11    1    1    0    0    0 -0.25298829572E+01  0.29175582029E+01  0.18174458463E+00  0.38659390838E+01  0.51100000000E-03 0.  1.
         22    1    1    0    0    0  0.45091484865E+02 -0.42518059512E+02 -0.79438687167E+01  0.62483057241E+02  0.00000000000E+00 0. -1.
</event>
<event>
 4    1  0.1956390E-002  0.9118800E+02  0.7818608E-02  0.1130116E+00
         25   -1    0    0    0    0  0.00000000000E+00  0.00000000000E+00  0.99999998245E-14  0.12500000000E+03  0.12500000000E+03 0.  0.
        -11    1    1    0    0    0  0.24977311586E+02 -0.36063027501E+02 -0.11663500540E+02  0.45392128080E+02  0.51100000000E-03 0. -1.
         11    1    1    0    0    0  0.94139524969E+01 -0.13591755817E+02 -0.43955606914E+01  0.17107871927E+02  0.51100000000E-03 0. -1.
         22    1    1    0    0    0 -0.34391264083E+02  0.49654783318E+02  0.16059061231E+02  0.62499999993E+02  0.00000000000E+00 0. -1.
</event>
<event>
 4    1  0.1956390E-002  0.9118800E+02  0.7818608E-02  0.1130116E+00
         25   -1    0    0    0    0  0.00000000000E+00  0.00000000000E+00  0.99999998245E-14  0.12500000000E+03  0.12500000000E+03 0.  0.
        -11    1    1    0    0    0 -0.49713852505E+02 -0.12789880886E+02  0.34432610825E+02  0.61811429950E+02  0.51100000000E-03 0.  1.
         11    1    1    0    0    0  0.41015134905E+01 -0.22447250611E+01 -0.50730579867E+01  0.68990666840E+01  0.51100000000E-03 0. -1.
         22    1    1    0    0    0  0.45612339014E+02  0.15034605947E+02 -0.29359552838E+02  0.56289503366E+02  0.00000000000E+00 0.  1.
</event>
<event>
 4    1  0.1956390E-002  0.9118800E+02  0.7818608E-02  0.1130116E+00
         25   -1    0    0    0    0  0.00000000000E+00  0.00000000000E+00  0.99999998245E-14  0.12500000000E+03  0.12500000000E+03 0.  0.
        -11    1    1    0    0    0 -0.10468309522E+02  0.22873635655E+02 -0.44331790782E+01  0.25542940107E+02  0.51100000000E-03 0.  1.
         11    1    1    0    0    0 -0.15117847515E+02  0.33103836977E+02 -0.64351542248E+01  0.36957063550E+02  0.51100000000E-03 0. -1.
         22    1    1    0    0    0  0.25586157037E+02 -0.55977472631E+02  0.10868333303E+02  0.62499996343E+02  0.00000000000E+00 0.  1.
</event>
<event>
 4    1  0.1956390E-002  0.9118800E+02  0.7818608E-02  0.1130116E+00
         25   -1    0    0    0    0  0.00000000000E+00  0.00000000000E+00  0.99999998245E-14  0.12500000000E+03  0.12500000000E+03 0.  0.
        -11    1    1    0    0    0 -0.12151449725E+02  0.33747465920E+02  0.51175275406E+02  0.62493663675E+02  0.51100000000E-03 0. -1.
         11    1    1    0    0    0  0.20702265834E-01 -0.35796277770E-02 -0.32140450409E-02  0.21260027098E-01  0.51100000000E-03 0.  1.
         22    1    1    0    0    0  0.12130747459E+02 -0.33743886292E+02 -0.51172061361E+02  0.62485076298E+02  0.00000000000E+00 0. -1.
</event>
<event>
 4    1  0.1956390E-002  0.9118800E+02  0.7818608E-02  0.1130116E+00
         25   -1    0    0    0    0  0.00000000000E+00  0.00000000000E+00  0.99999998245E-14  0.12500000000E+03  0.12500000000E+03 0.  0.
        -11    1    1    0    0    0  0.41339432833E+02 -0.18931926067E+02 -0.31677059690E+02  0.55414823310E+02  0.51100000000E-03 0.  1.
         11    1    1    0    0    0  0.57939673721E+01 -0.31349124247E+01 -0.27997899046E+01  0.71579716115E+01  0.51100000000E-03 0. -1.
         22    1    1    0    0    0 -0.47133400205E+02  0.22066838492E+02  0.34476849595E+02  0.62427205079E+02  0.00000000000E+00 0.  1.
</event>
<event>
 4    1  0.1956390E-002  0.9118800E+02  0.7818608E-02  0.1130116E+00
         25   -1    0    0    0    0  0.00000000000E+00  0.00000000000E+00  0.99999998245E-14  0.12500000000E+03  0.12500000000E+03 0.  0.
        -11    1    1    0    0    0 -0.55375916719E+02  0.15501210210E+02 -0.14773905247E+02  0.59372114220E+02  0.51100000000E-03 0. -1.
         11    1    1    0    0    0 -0.29153095410E+01  0.82544294137E+00 -0.77673901907E+00  0.31278921871E+01  0.51100000000E-03 0.  1.
         22    1    1    0    0    0  0.58291226260E+02 -0.16326653151E+02  0.15550644266E+02  0.62499993593E+02  0.00000000000E+00 0. -1.
</event>
<event>
 4    1  0.1956390E-002  0.9118800E+02  0.7818608E-02  0.1130116E+00
         25   -1    0    0    0    0  0.00000000000E+00  0.00000000000E+00  0.99999998245E-14  0.12500000000E+03  0.12500000000E+03 0.  0.
        -11    1    1    0    0    0 -0.29764572727E+02  0.84235788711E+01 -0.33924135646E+02  0.45910058269E+02  0.51100000000E-03 0.  1.
         11    1    1    0    0    0 -0.10755086841E+02  0.30359590290E+01 -0.12261209240E+02  0.16589942510E+02  0.51100000000E-03 0. -1.
         22    1    1    0    0    0  0.40519659568E+02 -0.11459537900E+02  0.46185344887E+02  0.62499999222E+02  0.00000000000E+00 0.  1.
</event>
<event>
 4    1  0.1956390E-002  0.9118800E+02  0.7818608E-02  0.1130116E+00
         25   -1    0    0    0    0  0.00000000000E+00  0.00000000000E+00  0.99999998245E-14  0.12500000000E+03  0.12500000000E+03 0.  0.
        -11    1    1    0    0    0  0.14347910044E+00 -0.42337346556E+01 -0.43110104166E+01  0.60439975562E+01  0.51100000000E-03 0.  1.
         11    1    1    0    0    0  0.13039068098E+01 -0.39543344617E+02 -0.40272869302E+02  0.56456003033E+02  0.51100000000E-03 0. -1.
         22    1    1    0    0    0 -0.14473859102E+01  0.43777079272E+02  0.44583879718E+02  0.62499999411E+02  0.00000000000E+00 0. -1.
</event>
<event>
 4    1  0.1956390E-002  0.9118800E+02  0.7818608E-02  0.1130116E+00
         25   -1    0    0    0    0  0.00000000000E+00  0.00000000000E+00  0.99999998245E-14  0.12500000000E+03  0.12500000000E+03 0.  0.
        -11    1    1    0    0    0 -0.39133090474E+01  0.77281270279E+01  0.93663401074E+00  0.87129339829E+01  0.51100000000E-03 0. -1.
         11    1    1    0    0    0 -0.19815071233E+02  0.49464785777E+02  0.74409837098E+01  0.53803069790E+02  0.51100000000E-03 0.  1.
         22    1    1    0    0    0  0.23728380280E+02 -0.57192912805E+02 -0.83776177206E+01  0.62483996227E+02  0.00000000000E+00 0.  1.
</event>
<event>
 4    1  0.1956390E-002  0.9118800E+02  0.7818608E-02  0.1130116E+00
         25   -1    0    0    0    0  0.00000000000E+00  0.00000000000E+00  0.99999998245E-14  0.12500000000E+03  0.12500000000E+03 0.  0.
        -11    1    1    0    0    0 -0.19207575893E+01  0.29489187535E+01 -0.52732701734E+01  0.63397799737E+01  0.51100000000E-03 0.  1.
         11    1    1    0    0    0 -0.17061947973E+02  0.25609884362E+02 -0.46978836838E+02  0.56160371763E+02  0.51100000000E-03 0. -1.
         22    1    1    0    0    0  0.18982705562E+02 -0.28558803115E+02  0.52252107011E+02  0.62499848263E+02  0.00000000000E+00 0. -1.
</event>
<event>
 4    1  0.1956390E-002  0.9118800E+02  0.7818608E-02  0.1130116E+00
         25   -1    0    0    0    0  0.00000000000E+00  0.00000000000E+00  0.99999998245E-14  0.12500000000E+03  0.12500000000E+03 0.  0.
        -11    1    1    0    0    0  0.81187235397E-01 -0.37199348353E+01 -0.63314714494E+01  0.73438435116E+01  0.51100000000E-03 0.  1.
         11    1    1    0    0    0 -0.31323837555E+01 -0.25093320034E+02 -0.49032052452E+02  0.55169091946E+02  0.51100000000E-03 0. -1.
         22    1    1    0    0    0  0.30511965201E+01  0.28813254869E+02  0.55363523901E+02  0.62487064542E+02  0.00000000000E+00 0. -1.
</event>
<event>
 4    1  0.1956390E-002  0.9118800E+02  0.7818608E-02  0.1130116E+00
         25   -1    0    0    0    0  0.00000000000E+00  0.00000000000E+00  0.99999998245E-14  0.12500000000E+03  0.12500000000E+03 0.  0.
        -11    1    1    0    0    0 -0.33900094632E+02  0.10788060976E+01 -0.32218730990E+02  0.46780624894E+02  0.51100000000E-03 0. -1.
         11    1    1    0    0    0 -0.11542073286E+02  0.49459759097E+00 -0.10661140635E+02  0.15720178193E+02  0.51100000000E-03 0.  1.
         22    1    1    0    0    0  0.45442167917E+02 -0.15734036886E+01  0.42879871625E+02  0.62499196913E+02  0.00000000000E+00 0. -1.
</event>
<event>
 4    1  0.1956390E-002  0.9118800E+02  0.7818608E-02  0.1130116E+00
         25   -1    0    0    0    0  0.00000000000E+00  0.00000000000E+00  0.99999998245E-14  0.12500000000E+03  0.12500000000E+03 0.  0.
        -11    1    1    0    0    0  0.75214691031E-01 -0.88572019080E+00  0.14266272327E+01  0.16808994701E+01  0.51100000000E-03 0.  1.
         11    1    1    0    0    0 -0.53359849889E+01 -0.46978589410E+02  0.38337292315E+02  0.60870424519E+02  0.51100000000E-03 0. -1.
         22    1    1    0    0    0  0.52607702978E+01  0.47864309601E+02 -0.39763919548E+02  0.62448676011E+02  0.00000000000E+00 0. -1.
</event>
<event>
 4    1  0.1956390E-002  0.9118800E+02  0.7818608E-02  0.1130116E+00
         25   -1    0    0    0    0  0.00000000000E+00  0.00000000000E+00  0.99999998245E-14  0.12500000000E+03  0.12500000000E+03 0.  0.
        -11    1    1    0    0    0 -0.87205265432E+01 -0.87177500840E+00 -0.12014221267E+02  0.14871082266E+02  0.51100000000E-03 0.  1.
         11    1    1    0    0    0 -0.23601029859E+02 -0.16771115678E+02  0.49650029895E+02  0.57475250329E+02  0.51100000000E-03 0. -1.
         22    1    1    0    0    0  0.32321556403E+02  0.17642890687E+02 -0.37635808629E+02  0.52653667405E+02  0.00000000000E+00 0. -1.
</event>
<event>
 4    1  0.1956390E-002  0.9118800E+02  0.7818608E-02  0.1130116E+00
         25   -1    0    0    0    0  0.00000000000E+00  0.00000000000E+00  0.99999998245E-14  0.12500000000E+03  0.12500000000E+03 0.  0.
        -11    1    1    0    0    0  0.41170770153E+01  0.30769622635E+02 -0.24557763622E+02  0.39582871986E+02  0.51100000000E-03 0. -1.
         11    1    1    0    0    0  0.23851137819E+01  0.17814549559E+02 -0.14217869508E+02  0.22917128034E+02  0.51100000000E-03 0.  1.
         22    1    1    0    0    0 -0.65021907971E+01 -0.48584172194E+02  0.38775633130E+02  0.62499999980E+02  0.00000000000E+00 0. -1.
</event>
<event>
 4    1  0.1956390E-002  0.9118800E+02  0.7818608E-02  0.1130116E+00
         25   -1    0    0    0    0  0.00000000000E+00  0.00000000000E+00  0.99999998245E-14  0.12500000000E+03  0.12500000000E+03 0.  0.
        -11    1    1    0    0    0  0.34633550726E+00 -0.19588234483E+01 -0.88074424247E+00  0.21754650691E+01  0.51100000000E-03 0. -1.
         11    1    1    0    0    0  0.94331929952E+01 -0.53924654681E+02 -0.25341939602E+02  0.60324683303E+02  0.51100000000E-03 0.  1.
         22    1    1    0    0    0 -0.97795285025E+01  0.55883478129E+02  0.26222683845E+02  0.62499851628E+02  0.00000000000E+00 0.  1.
</event>
<event>
 4    1  0.1956390E-002  0.9118800E+02  0.7818608E-02  0.1130116E+00
         25   -1    0    0    0    0  0.00000000000E+00  0.00000000000E+00  0.99999998245E-14  0.12500000000E+03  0.12500000000E+03 0.  0.
        -11    1    1    0    0    0  0.42995428658E+02 -0.28998136825E+02 -0.84027931452E+01  0.52536708669E+02  0.51100000000E-03 0. -1.
         11    1    1    0    0    0  0.51228539371E+01 -0.85843520210E+01 -0.28149755928E+01  0.10385510095E+02  0.51100000000E-03 0.  1.
         22    1    1    0    0    0 -0.48118282596E+02  0.37582488846E+02  0.11217768738E+02  0.62077781236E+02  0.00000000000E+00 0. -1.
</event>
<event>
 4    1  0.1956390E-002  0.9118800E+02  0.7818608E-02  0.1130116E+00
         25   -1    0    0    0    0  0.00000000000E+00  0.00000000000E+00  0.99999998245E-14  0.12500000000E+03  0.12500000000E+03 0.  0.
        -11    1    1    0    0    0 -0.85448219391E+01  0.89261991810E+01 -0.21080949728E+02  0.24435577658E+02  0.51100000000E-03 0.  1.
         11    1    1    0    0    0 -0.10256968722E+02  0.67593820222E+01 -0.36222574392E+02  0.38248784929E+02  0.51100000000E-03 0. -1.
         22    1    1    0    0    0  0.18801790661E+02 -0.15685581203E+02  0.57303524120E+02  0.62315637414E+02  0.00000000000E+00 0.  1.
</event>
<event>
 4    1  0.1956390E-002  0.9118800E+02  0.7818608E-02  0.1130116E+00
         25   -1    0    0    0    0  0.00000000000E+00  0.00000000000E+00  0.99999998245E-14  0.12500000000E+03  0.12500000000E+03 0.  0.
        -11    1    1    0    0    0  0.15369918066E+02  0.19090230715E+02 -0.40394033750E+02  0.47247743364E+02  0.51100000000E-03 0.  1.
         11    1    1    0    0    0 -0.20168603363E+02 -0.28781240914E+01 -0.11346385259E+02  0.23319447219E+02  0.51100000000E-03 0. -1.
         22    1    1    0    0    0  0.47986852979E+01 -0.16212106623E+02  0.51740419009E+02  0.54432809417E+02  0.00000000000E+00 0. -1.
</event>
<event>
 4    1  0.1956390E-002  0.9118800E+02  0.7818608E-02  0.1130116E+00
         25   -1    0    0    0    0  0.00000000000E+00  0.00000000000E+00  0.99999998245E-14  0.12500000000E+03  0.12500000000E+03 0.  0.
        -11    1    1    0    0    0 -0.57170191139E+02  0.64585392616E+01 -0.15849243619E+02  0.59676980552E+02  0.51100000000E-03 0. -1.
         11    1    1    0    0    0 -0.11748673479E+00 -0.19884389591E+01 -0.40498522297E+01  0.45132024074E+01  0.51100000000E-03 0.  1.
         22    1    1    0    0    0  0.57287677874E+02 -0.44701003025E+01  0.19899095849E+02  0.60809817040E+02  0.00000000000E+00 0. -1.
</event>
<event>
 4    1  0.1956390E-002  0.9118800E+02  0.7818608E-02  0.1130116E+00
         25   -1    0    0    0    0  0.00000000000E+00  0.00000000000E+00  0.99999998245E-14  0.12500000000E+03  0.12500000000E+03 0.  0.
        -11    1    1    0    0    0 -0.59059812418E+01  0.24273592104E+01 -0.49153377244E+01  0.80581159318E+01  0.51100000000E-03 0.  1.
         11    1    1    0    0    0 -0.39931493621E+02  0.16169536461E+02 -0.33285800299E+02  0.54441919455E+02  0.51100000000E-03 0. -1.
         22    1    1    0    0    0  0.45837474863E+02 -0.18596895671E+02  0.38201138023E+02  0.62499964613E+02  0.00000000000E+00 0. -1.
</event>
<event>
 4    1  0.1956390E-002  0.9118800E+02  0.7818608E-02  0.1130116E+00
         25   -1    0    0    0    0  0.00000000000E+00  0.00000000000E+00  0.99999998245E-14  0.12500000000E+03  0.12500000000E+03 0.  0.
        -11    1    1    0    0    0  0.95880863945E+01  0.56843589812E+02 -0.15078752707E+02  0.59586020902E+02  0.51100000000E-03 0. -1.
         11    1    1    0    0    0 -0.20087683135E+00  0.29335942206E+01 -0.36888294660E+00  0.29635116740E+01  0.51100000000E-03 0.  1.
         22    1    1    0    0    0 -0.93872095632E+01 -0.59777184033E+02  0.15447635653E+02  0.62450467424E+02  0.00000000000E+00 0. -1.
</event>
<event>
 4    1  0.1956390E-002  0.9118800E+02  0.7818608E-02  0.1130116E+00
         25   -1    0    0    0    0  0.00000000000E+00  0.00000000000E+00  0.99999998245E-14  0.12500000000E+03  0.12500000000E+03 0.  0.
        -11    1    1    0    0    0  0.11684210742E+01 -0.28585841129E+01  0.14934567227E+01  0.34303242093E+01  0.51100000000E-03 0.  1.
         11    1    1    0    0    0  0.20132194957E+02 -0.49205866335E+02  0.25743039381E+02  0.59069676081E+02  0.51100000000E-03 0.  1.
         22    1    1    0    0    0 -0.21300616031E+02  0.52064450448E+02 -0.27236496103E+02  0.62499999710E+02  0.00000000000E+00 0.  1.
</event>
<event>
 4    1  0.1956390E-002  0.9118800E+02  0.7818608E-02  0.1130116E+00
         25   -1    0    0    0    0  0.00000000000E+00  0.00000000000E+00  0.99999998245E-14  0.12500000000E+03  0.12500000000E+03 0.  0.
        -11    1    1    0    0    0 -0.98745905908E+01 -0.10800562394E+02 -0.42415507567E+01  0.15236483861E+02  0.51100000000E-03 0. -1.
         11    1    1    0    0    0 -0.30626815149E+02 -0.33505186420E+02 -0.13162091029E+02  0.47263516201E+02  0.51100000000E-03 0.  1.
         22    1    1    0    0    0  0.40501405740E+02  0.44305748814E+02  0.17403641786E+02  0.62499999938E+02  0.00000000000E+00 0.  1.
</event>
<event>
 4    1  0.1956390E-002  0.9118800E+02  0.7818608E-02  0.1130116E+00
         25   -1    0    0    0    0  0.00000000000E+00  0.00000000000E+00  0.99999998245E-14  0.12500000000E+03  0.12500000000E+03 0.  0.
        -11    1    1    0    0    0  0.10640438439E+02  0.52940613619E+02 -0.83997409516E+01  0.54648725043E+02  0.51100000000E-03 0.  1.
         11    1    1    0    0    0  0.15360736524E+01  0.76058032830E+01 -0.11978360675E+01  0.78512787080E+01  0.51100000000E-03 0. -1.
         22    1    1    0    0    0 -0.12176512091E+02 -0.60546416902E+02  0.95975770192E+01  0.62499996248E+02  0.00000000000E+00 0. -1.
</event>
<event>
 4    1  0.1956390E-002  0.9118800E+02  0.7818608E-02  0.1130116E+00
         25   -1    0    0    0    0  0.00000000000E+00  0.00000000000E+00  0.99999998245E-14  0.12500000000E+03  0.12500000000E+03 0.  0.
        -11    1    1    0    0    0  0.31573294722E+02 -0.27328553953E+02  0.22390888129E+02  0.47382218946E+02  0.51100000000E-03 0.  1.
         11    1    1    0    0    0  0.22618840593E+01 -0.16310692349E+02  0.31699494297E+01  0.16769119954E+02  0.51100000000E-03 0. -1.
         22    1    1    0    0    0 -0.33835178781E+02  0.43639246302E+02 -0.25560837559E+02  0.60848661100E+02  0.00000000000E+00 0.  1.
</event>
<event>
 4    1  0.1956390E-002  0.9118800E+02  0.7818608E-02  0.1130116E+00
         25   -1    0    0    0    0  0.00000000000E+00  0.00000000000E+00  0.99999998245E-14  0.12500000000E+03  0.12500000000E+03 0.  0.
        -11    1    1    0    0    0  0.27543271416E+01 -0.35609922400E+01  0.12117023593E+02  0.12926300505E+02  0.51100000000E-03 0.  1.
         11    1    1    0    0    0  0.10571525099E+02 -0.13654958178E+02  0.46468663248E+02  0.49573699580E+02  0.51100000000E-03 0. -1.
         22    1    1    0    0    0 -0.13325852241E+02  0.17215950418E+02 -0.58585686841E+02  0.62499999915E+02  0.00000000000E+00 0. -1.
</event>
<event>
 4    1  0.1956390E-002  0.9118800E+02  0.7818608E-02  0.1130116E+00
         25   -1    0    0    0    0  0.00000000000E+00  0.00000000000E+00  0.99999998245E-14  0.12500000000E+03  0.12500000000E+03 0.  0.
        -11    1    1    0    0    0  0.10004541997E-01  0.99095366031E+00  0.58194220604E+00  0.11492372427E+01  0.51100000000E-03 0.  1.
         11    1    1    0    0    0 -0.27700209082E+00  0.52800040710E+02  0.31241022567E+02  0.61350815157E+02  0.51100000000E-03 0. -1.
         22    1    1    0    0    0  0.26699754882E+00 -0.53790994371E+02 -0.31822964773E+02  0.62499947600E+02  0.00000000000E+00 0. -1.
</event>
<event>
 4    1  0.1956390E-002  0.9118800E+02  0.7818608E-02  0.1130116E+00
         25   -1    0    0    0    0  0.00000000000E+00  0.00000000000E+00  0.99999998245E-14  0.12500000000E+03  0.12500000000E+03 0.  0.
        -11    1    1    0    0    0  0.37381305306E+01  0.10383539167E+02 -0.23123031259E+01  0.11275559920E+02  0.51100000000E-03 0. -1.
         11    1    1    0    0    0  0.17005143395E+02  0.47156825938E+02 -0.10535762092E+02  0.51224441604E+02  0.51100000000E-03 0.  1.
         22    1    1    0    0    0 -0.20743273926E+02 -0.57540365106E+02  0.12848065218E+02  0.62499998476E+02  0.00000000000E+00 0.  1.
</event>
<event>
 4    1  0.1956390E-002  0.9118800E+02  0.7818608E-02  0.1130116E+00
         25   -1    0    0    0    0  0.00000000000E+00  0.00000000000E+00  0.99999998245E-14  0.12500000000E+03  0.12500000000E+03 0.  0.
        -11    1    1    0    0    0 -0.83679315428E+00  0.98314808004E+00  0.58622660964E+00  0.14179086111E+01  0.51100000000E-03 0. -1.
         11    1    1    0    0    0  0.18107581284E+02 -0.52958492798E+02  0.27131539963E+02  0.62198126342E+02  0.51100000000E-03 0.  1.
         22    1    1    0    0    0 -0.17270788130E+02  0.51975344717E+02 -0.27717766573E+02  0.61383965047E+02  0.00000000000E+00 0.  1.
</event>
<event>
 4    1  0.1956390E-002  0.9118800E+02  0.7818608E-02  0.1130116E+00
         25   -1    0    0    0    0  0.00000000000E+00  0.00000000000E+00  0.99999998245E-14  0.12500000000E+03  0.12500000000E+03 0.  0.
        -11    1    1    0    0    0 -0.46184977726E+01 -0.22131950313E+00 -0.13354707365E+02  0.14132505548E+02  0.51100000000E-03 0. -1.
         11    1    1    0    0    0 -0.51579858397E+01 -0.10796867234E+02 -0.47124695180E+02  0.48620099301E+02  0.51100000000E-03 0.  1.
         22    1    1    0    0    0  0.97764836124E+01  0.11018186737E+02  0.60479402545E+02  0.62247395151E+02  0.00000000000E+00 0.  1.
</event>
<event>
 4    1  0.1956390E-002  0.9118800E+02  0.7818608E-02  0.1130116E+00
         25   -1    0    0    0    0  0.00000000000E+00  0.00000000000E+00  0.99999998245E-14  0.12500000000E+03  0.12500000000E+03 0.  0.
        -11    1    1    0    0    0  0.10639863974E+02  0.89976420357E+01  0.29072478843E+02  0.32239312864E+02  0.51100000000E-03 0. -1.
         11    1    1    0    0    0  0.99229888946E+01  0.84150718594E+01  0.27320900580E+02  0.30260713008E+02  0.51100000000E-03 0.  1.
         22    1    1    0    0    0 -0.20562852869E+02 -0.17412713895E+02 -0.56393379423E+02  0.62499974128E+02  0.00000000000E+00 0. -1.
</event>
<event>
 4    1  0.1956390E-002  0.9118800E+02  0.7818608E-02  0.1130116E+00
         25   -1    0    0    0    0  0.00000000000E+00  0.00000000000E+00  0.99999998245E-14  0.12500000000E+03  0.12500000000E+03 0.  0.
        -11    1    1    0    0    0 -0.11155893253E+02  0.40311394071E+02  0.14656849348E+02  0.44320262626E+02  0.51100000000E-03 0.  1.
         11    1    1    0    0    0 -0.85057426608E+01  0.14023160601E+02  0.84480731090E+01  0.18449027914E+02  0.51100000000E-03 0. -1.
         22    1    1    0    0    0  0.19661635914E+02 -0.54334554671E+02 -0.23104922457E+02  0.62230709460E+02  0.00000000000E+00 0. -1.
</event>
<event>
 4    1  0.1956390E-002  0.9118800E+02  0.7818608E-02  0.1130116E+00
         25   -1    0    0    0    0  0.00000000000E+00  0.00000000000E+00  0.99999998245E-14  0.12500000000E+03  0.12500000000E+03 0.  0.
        -11    1    1    0    0    0  0.15081624275E+02  0.13908787001E+02 -0.32081713847E+02  0.38080784002E+02  0.51100000000E-03 0. -1.
         11    1    1    0    0    0  0.96686100757E+01  0.89186116389E+01 -0.20573635020E+02  0.24419216051E+02  0.51100000000E-03 0.  1.
         22    1    1    0    0    0 -0.24750234351E+02 -0.22827398640E+02  0.52655348867E+02  0.62499999947E+02  0.00000000000E+00 0. -1.
</event>
<event>
 4    1  0.1956390E-002  0.9118800E+02  0.7818608E-02  0.1130116E+00
         25   -1    0    0    0    0  0.00000000000E+00  0.00000000000E+00  0.99999998245E-14  0.12500000000E+03  0.12500000000E+03 0.  0.
        -11    1    1    0    0    0  0.15492005532E+02  0.47605140695E+02  0.85502030644E+01  0.50787376667E+02  0.51100000000E-03 0.  1.
         11    1    1    0    0    0  0.35921322253E+01  0.10971932722E+02  0.19745879767E+01  0.11712630769E+02  0.51100000000E-03 0. -1.
         22    1    1    0    0    0 -0.19084137758E+02 -0.58577073417E+02 -0.10524791041E+02  0.62499992564E+02  0.00000000000E+00 0.  1.
</event>
<event>
 4    1  0.1956390E-002  0.9118800E+02  0.7818608E-02  0.1130116E+00
         25   -1    0    0    0    0  0.00000000000E+00  0.00000000000E+00  0.99999998245E-14  0.12500000000E+03  0.12500000000E+03 0.  0.
        -11    1    1    0    0    0  0.20525243583E+02 -0.49539694646E+02 -0.12867818046E+02  0.55145695310E+02  0.51100000000E-03 0. -1.
         11    1    1    0    0    0  0.26367622169E+01 -0.65738831965E+01 -0.19887375261E+01  0.73568697473E+01  0.51100000000E-03 0.  1.
         22    1    1    0    0    0 -0.23162005800E+02  0.56113577842E+02  0.14856555572E+02  0.62497434942E+02  0.00000000000E+00 0. -1.
</event>
<event>
 4    1  0.1956390E-002  0.9118800E+02  0.7818608E-02  0.1130116E+00
         25   -1    0    0    0    0  0.00000000000E+00  0.00000000000E+00  0.99999998245E-14  0.12500000000E+03  0.12500000000E+03 0.  0.
        -11    1    1    0    0    0 -0.16892960546E+02  0.18143460068E+02  0.10620424934E+02  0.26969439840E+02  0.51100000000E-03 0. -1.
         11    1    1    0    0    0 -0.24474452787E+02  0.26274687719E+02  0.22687948242E+01  0.35979236848E+02  0.51100000000E-03 0.  1.
         22    1    1    0    0    0  0.41367413334E+02 -0.44418147787E+02 -0.12889219758E+02  0.62051323312E+02  0.00000000000E+00 0.  1.
</event>
<event>
 4    1  0.1956390E-002  0.9118800E+02  0.7818608E-02  0.1130116E+00
         25   -1    0    0    0    0  0.00000000000E+00  0.00000000000E+00  0.99999998245E-14  0.12500000000E+03  0.12500000000E+03 0.  0.
        -11    1    1    0    0    0  0.11822242731E+02  0.41937801998E+02  0.16757994178E+02  0.46683776933E+02  0.51100000000E-03 0.  1.
         11    1    1    0    0    0  0.40131385712E+01  0.14205618834E+02  0.56787366978E+01  0.15816223898E+02  0.51100000000E-03 0. -1.
         22    1    1    0    0    0 -0.15835381302E+02 -0.56143420832E+02 -0.22436730876E+02  0.62499999169E+02  0.00000000000E+00 0. -1.
</event>
<event>
 4    1  0.1956390E-002  0.9118800E+02  0.7818608E-02  0.1130116E+00
         25   -1    0    0    0    0  0.00000000000E+00  0.00000000000E+00  0.99999998245E-14  0.12500000000E+03  0.12500000000E+03 0.  0.
        -11    1    1    0    0    0  0.48303984648E-01 -0.18590477163E+00 -0.78029406056E+00  0.80358754415E+00  0.51100000000E-03 0. -1.
         11    1    1    0    0    0 -0.40517455322E+02  0.23119146038E+02 -0.40672679694E+02  0.61890435230E+02  0.51100000000E-03 0.  1.
         22    1    1    0    0    0  0.40469151337E+02 -0.22933241267E+02  0.41452973754E+02  0.62305977225E+02  0.00000000000E+00 0.  1.
</event>
<event>
 4    1  0.1956390E-002  0.9118800E+02  0.7818608E-02  0.1130116E+00
         25   -1    0    0    0    0  0.00000000000E+00  0.00000000000E+00  0.99999998245E-14  0.12500000000E+03  0.12500000000E+03 0.  0.
        -11    1    1    0    0    0  0.14249464366E+02  0.55125158831E+02 -0.16158419564E+02  0.59185512534E+02  0.51100000000E-03 0. -1.
         11    1    1    0    0    0  0.80213344685E+00  0.30857947445E+01 -0.90569806925E+00  0.33144888785E+01  0.51100000000E-03 0.  1.
         22    1    1    0    0    0 -0.15051597813E+02 -0.58210953575E+02  0.17064117634E+02  0.62499998588E+02  0.00000000000E+00 0. -1.
</event>
<event>
 4    1  0.1956390E-002  0.9118800E+02  0.7818608E-02  0.1130116E+00
         25   -1    0    0    0    0  0.00000000000E+00  0.00000000000E+00  0.99999998245E-14  0.12500000000E+03  0.12500000000E+03 0.  0.
        -11    1    1    0    0    0  0.11759394455E+02  0.11232404723E+02 -0.31293254460E+02  0.35266386954E+02  0.51100000000E-03 0.  1.
         11    1    1    0    0    0 -0.64258219910E+01  0.24302452014E+01  0.58459063454E+02  0.58861357274E+02  0.51100000000E-03 0. -1.
         22    1    1    0    0    0 -0.53335724643E+01 -0.13662649924E+02 -0.27165808994E+02  0.30872255772E+02  0.00000000000E+00 0. -1.
</event>
<event>
 4    1  0.1956390E-002  0.9118800E+02  0.7818608E-02  0.1130116E+00
         25   -1    0    0    0    0  0.00000000000E+00  0.00000000000E+00  0.99999998245E-14  0.12500000000E+03  0.12500000000E+03 0.  0.
        -11    1    1    0    0    0 -0.43247291630E+01  0.41648856403E+01 -0.11060015424E+02  0.12584653201E+02  0.51100000000E-03 0.  1.
         11    1    1    0    0    0 -0.17108517982E+02  0.16465593019E+02 -0.43905869138E+02  0.49915353210E+02  0.51100000000E-03 0. -1.
         22    1    1    0    0    0  0.21433247145E+02 -0.20630478660E+02  0.54965884563E+02  0.62499993589E+02  0.00000000000E+00 0. -1.
</event>
<event>
 4    1  0.1956390E-002  0.9118800E+02  0.7818608E-02  0.1130116E+00
         25   -1    0    0    0    0  0.00000000000E+00  0.00000000000E+00  0.99999998245E-14  0.12500000000E+03  0.12500000000E+03 0.  0.
        -11    1    1    0    0    0  0.88085065142E+00  0.50059436849E+01 -0.13986973801E+02  0.14881895256E+02  0.51100000000E-03 0.  1.
         11    1    1    0    0    0  0.31824207157E+01  0.17827438289E+02 -0.44045477943E+02  0.47622993239E+02  0.51100000000E-03 0. -1.
         22    1    1    0    0    0 -0.40632713671E+01 -0.22833381974E+02  0.58032451744E+02  0.62495111505E+02  0.00000000000E+00 0. -1.
</event>
<event>
 4    1  0.1956390E-002  0.9118800E+02  0.7818608E-02  0.1130116E+00
         25   -1    0    0    0    0  0.00000000000E+00  0.00000000000E+00  0.99999998245E-14  0.12500000000E+03  0.12500000000E+03 0.  0.
        -11    1    1    0    0    0  0.47318787251E+01  0.37874959279E+01  0.22702726582E+01  0.64722438054E+01  0.51100000000E-03 0.  1.
         11    1    1    0    0    0  0.40951093492E+02  0.32810964715E+02  0.19635632232E+02  0.56027756666E+02  0.51100000000E-03 0. -1.
         22    1    1    0    0    0 -0.45682972217E+02 -0.36598460642E+02 -0.21905904890E+02  0.62499999528E+02  0.00000000000E+00 0. -1.
</event>
<event>
 4    1  0.1956390E-002  0.9118800E+02  0.7818608E-02  0.1130116E+00
         25   -1    0    0    0    0  0.00000000000E+00  0.00000000000E+00  0.99999998245E-14  0.12500000000E+03  0.12500000000E+03 0.  0.
        -11    1    1    0    0    0 -0.27226030580E+02 -0.10688005236E+02  0.31593138533E+02  0.43053647926E+02  0.51100000000E-03 0.  1.
         11    1    1    0    0    0 -0.12353658266E+02 -0.48779384896E+01  0.14204115927E+02  0.19446440960E+02  0.51100000000E-03 0. -1.
         22    1    1    0    0    0  0.39579688846E+02  0.15565943725E+02 -0.45797254460E+02  0.62499911115E+02  0.00000000000E+00 0. -1.
</event>
<event>
 4    1  0.1956390E-002  0.9118800E+02  0.7818608E-02  0.1130116E+00
         25   -1    0    0    0    0  0.00000000000E+00  0.00000000000E+00  0.99999998245E-14  0.12500000000E+03  0.12500000000E+03 0.  0.
        -11    1    1    0    0    0 -0.35544940479E+02  0.17569169160E+02 -0.45765914339E+00  0.39652590720E+02  0.51100000000E-03 0. -1.
         11    1    1    0    0    0 -0.20507875842E+02  0.10064796051E+02 -0.36854201541E+00  0.22847514407E+02  0.51100000000E-03 0.  1.
         22    1    1    0    0    0  0.56052816321E+02 -0.27633965211E+02  0.82620115880E+00  0.62499894873E+02  0.00000000000E+00 0. -1.
</event>
<event>
 4    1  0.1956390E-002  0.9118800E+02  0.7818608E-02  0.1130116E+00
         25   -1    0    0    0    0  0.00000000000E+00  0.00000000000E+00  0.99999998245E-14  0.12500000000E+03  0.12500000000E+03 0.  0.
        -11    1    1    0    0    0  0.27178677626E+02 -0.33247509683E+02  0.13810390378E+02  0.45108805130E+02  0.51100000000E-03 0.  1.
         11    1    1    0    0    0  0.10435424220E+02 -0.12836995380E+02  0.53636255421E+01  0.17391233661E+02  0.51100000000E-03 0. -1.
         22    1    1    0    0    0 -0.37614101845E+02  0.46084505064E+02 -0.19174015920E+02  0.62499961209E+02  0.00000000000E+00 0.  1.
</event>
<event>
 4    1  0.1956390E-002  0.9118800E+02  0.7818608E-02  0.1130116E+00
         25   -1    0    0    0    0  0.00000000000E+00  0.00000000000E+00  0.99999998245E-14  0.12500000000E+03  0.12500000000E+03 0.  0.
        -11    1    1    0    0    0  0.23687342445E+02 -0.92030214566E+01  0.37939133930E+02  0.45663592497E+02  0.51100000000E-03 0. -1.
         11    1    1    0    0    0  0.61259305334E+01 -0.15914448493E+01  0.15755264836E+02  0.16979048616E+02  0.51100000000E-03 0.  1.
         22    1    1    0    0    0 -0.29813272979E+02  0.10794466306E+02 -0.53694398766E+02  0.62357358887E+02  0.00000000000E+00 0. -1.
</event>
<event>
 4    1  0.1956390E-002  0.9118800E+02  0.7818608E-02  0.1130116E+00
         25   -1    0    0    0    0  0.00000000000E+00  0.00000000000E+00  0.99999998245E-14  0.12500000000E+03  0.12500000000E+03 0.  0.
        -11    1    1    0    0    0  0.49184102320E+00 -0.44029634092E+01  0.19200262899E+02  0.19704773280E+02  0.51100000000E-03 0. -1.
         11    1    1    0    0    0  0.10642297756E+01 -0.95631419521E+01  0.41699462391E+02  0.42795226755E+02  0.51100000000E-03 0.  1.
         22    1    1    0    0    0 -0.15560707988E+01  0.13966105361E+02 -0.60899725290E+02  0.62499999965E+02  0.00000000000E+00 0.  1.
</event>
<event>
 4    1  0.1956390E-002  0.9118800E+02  0.7818608E-02  0.1130116E+00
         25   -1    0    0    0    0  0.00000000000E+00  0.00000000000E+00  0.99999998245E-14  0.12500000000E+03  0.12500000000E+03 0.  0.
        -11    1    1    0    0    0  0.13583799192E+02 -0.29149975601E+01  0.88875482968E+01  0.16492583977E+02  0.51100000000E-03 0.  1.
         11    1    1    0    0    0  0.37832109259E+02 -0.79050638598E+01  0.24958659984E+02  0.46007534536E+02  0.51100000000E-03 0. -1.
         22    1    1    0    0    0 -0.51415908450E+02  0.10820061420E+02 -0.33846208281E+02  0.62499881487E+02  0.00000000000E+00 0. -1.
</event>
<event>
 4    1  0.1956390E-002  0.9118800E+02  0.7818608E-02  0.1130116E+00
         25   -1    0    0    0    0  0.00000000000E+00  0.00000000000E+00  0.99999998245E-14  0.12500000000E+03  0.12500000000E+03 0.  0.
        -11    1    1    0    0    0 -0.78031494909E+01 -0.81449877824E+01  0.90306770372E+01  0.14449328565E+02  0.51100000000E-03 0.  1.
         11    1    1    0    0    0 -0.25945974097E+02 -0.27097044987E+02  0.30023717772E+02  0.48050671671E+02  0.51100000000E-03 0. -1.
         22    1    1    0    0    0  0.33749123588E+02  0.35242032770E+02 -0.39054394809E+02  0.62499999765E+02  0.00000000000E+00 0. -1.
</event>
<event>
 4    1  0.1956390E-002  0.9118800E+02  0.7818608E-02  0.1130116E+00
         25   -1    0    0    0    0  0.00000000000E+00  0.00000000000E+00  0.99999998245E-14  0.12500000000E+03  0.12500000000E+03 0.  0.
        -11    1    1    0    0    0 -0.15156276853E+01 -0.91751720543E+00 -0.30024004599E+00  0.17969723006E+01  0.51100000000E-03 0.  1.
         11    1    1    0    0    0 -0.51546289573E+02 -0.30498184387E+02 -0.98845629767E+01  0.60703079041E+02  0.51100000000E-03 0. -1.
         22    1    1    0    0    0  0.53061917258E+02  0.31415701592E+02  0.10184803023E+02  0.62499948658E+02  0.00000000000E+00 0. -1.
</event>
<event>
 4    1  0.1956390E-002  0.9118800E+02  0.7818608E-02  0.1130116E+00
         25   -1    0    0    0    0  0.00000000000E+00  0.00000000000E+00  0.99999998245E-14  0.12500000000E+03  0.12500000000E+03 0.  0.
        -11    1    1    0    0    0 -0.31738553558E+02 -0.26360112918E+02 -0.30704381827E+01  0.41371716497E+02  0.51100000000E-03 0.  1.
         11    1    1    0    0    0 -0.16197447934E+02 -0.13471251001E+02 -0.16040385352E+01  0.21128295317E+02  0.51100000000E-03 0. -1.
         22    1    1    0    0    0  0.47936001493E+02  0.39831363918E+02  0.46744767179E+01  0.62499988186E+02  0.00000000000E+00 0.  1.
</event>
<event>
 4    1  0.1956390E-002  0.9118800E+02  0.7818608E-02  0.1130116E+00
         25   -1    0    0    0    0  0.00000000000E+00  0.00000000000E+00  0.99999998245E-14  0.12500000000E+03  0.12500000000E+03 0.  0.
        -11    1    1    0    0    0  0.56988576638E+01  0.31961843037E+01 -0.34247388048E+01  0.73770867501E+01  0.51100000000E-03 0. -1.
         11    1    1    0    0    0 -0.39083010120E+02  0.36949893965E+02  0.27177315505E+02  0.60260956036E+02  0.51100000000E-03 0.  1.
         22    1    1    0    0    0  0.33384152456E+02 -0.40146078268E+02 -0.23752576700E+02  0.57361957214E+02  0.00000000000E+00 0.  1.
</event>
<event>
 4    1  0.1956390E-002  0.9118800E+02  0.7818608E-02  0.1130116E+00
         25   -1    0    0    0    0  0.00000000000E+00  0.00000000000E+00  0.99999998245E-14  0.12500000000E+03  0.12500000000E+03 0.  0.
        -11    1    1    0    0    0  0.46998871485E+02  0.24267049815E+02 -0.56020341759E+01  0.53189908956E+02  0.51100000000E-03 0.  1.
         11    1    1    0    0    0  0.82206091841E+01  0.42586658768E+01 -0.98143356335E+00  0.93100946562E+01  0.51100000000E-03 0. -1.
         22    1    1    0    0    0 -0.55219480669E+02 -0.28525715692E+02  0.65834677393E+01  0.62499996388E+02  0.00000000000E+00 0.  1.
</event>
<event>
 4    1  0.1956390E-002  0.9118800E+02  0.7818608E-02  0.1130116E+00
         25   -1    0    0    0    0  0.00000000000E+00  0.00000000000E+00  0.99999998245E-14  0.12500000000E+03  0.12500000000E+03 0.  0.
        -11    1    1    0    0    0 -0.26007974072E+01 -0.68485621064E+01  0.10703985931E+01  0.74035601901E+01  0.51100000000E-03 0. -1.
         11    1    1    0    0    0 -0.50854804360E+02 -0.19689945121E+02 -0.14489553164E+02  0.56425634392E+02  0.51100000000E-03 0.  1.
         22    1    1    0    0    0  0.53455601767E+02  0.26538507227E+02  0.13419154571E+02  0.61170805418E+02  0.00000000000E+00 0.  1.
</event>
<event>
 4    1  0.1956390E-002  0.9118800E+02  0.7818608E-02  0.1130116E+00
         25   -1    0    0    0    0  0.00000000000E+00  0.00000000000E+00  0.99999998245E-14  0.12500000000E+03  0.12500000000E+03 0.  0.
        -11    1    1    0    0    0  0.35342443579E+02 -0.29402586012E+02  0.96217422116E+01  0.46969972384E+02  0.51100000000E-03 0. -1.
         11    1    1    0    0    0  0.11684720576E+02 -0.97218766621E+01  0.31834225042E+01  0.15530027684E+02  0.51100000000E-03 0.  1.
         22    1    1    0    0    0 -0.47027164155E+02  0.39124462674E+02 -0.12805164716E+02  0.62499999931E+02  0.00000000000E+00 0. -1.
</event>
<event>
 4    1  0.1956390E-002  0.9118800E+02  0.7818608E-02  0.1130116E+00
         25   -1    0    0    0    0  0.00000000000E+00  0.00000000000E+00  0.99999998245E-14  0.12500000000E+03  0.12500000000E+03 0.  0.
        -11    1    1    0    0    0 -0.42856928599E+02  0.15794958744E+02  0.34442700256E+02  0.57205739675E+02  0.51100000000E-03 0.  1.
         11    1    1    0    0    0 -0.39663487027E+01  0.14616733954E+01  0.31875980182E+01  0.52942603386E+01  0.51100000000E-03 0.  1.
         22    1    1    0    0    0  0.46823277301E+02 -0.17256632139E+02 -0.37630298274E+02  0.62499999986E+02  0.00000000000E+00 0.  1.
</event>
<event>
 4    1  0.1956390E-002  0.9118800E+02  0.7818608E-02  0.1130116E+00
         25   -1    0    0    0    0  0.00000000000E+00  0.00000000000E+00  0.99999998245E-14  0.12500000000E+03  0.12500000000E+03 0.  0.
        -11    1    1    0    0    0  0.26723141839E+01  0.20746971620E+02 -0.11907624004E+02  0.24070097719E+02  0.51100000000E-03 0. -1.
         11    1    1    0    0    0  0.42624061307E+01  0.33122594237E+02 -0.19015336997E+02  0.38429902372E+02  0.51100000000E-03 0.  1.
         22    1    1    0    0    0 -0.69347203146E+01 -0.53869565857E+02  0.30922961002E+02  0.62499999908E+02  0.00000000000E+00 0.  1.
</event>
<event>
 4    1  0.1956390E-002  0.9118800E+02  0.7818608E-02  0.1130116E+00
         25   -1    0    0    0    0  0.00000000000E+00  0.00000000000E+00  0.99999998245E-14  0.12500000000E+03  0.12500000000E+03 0.  0.
        -11    1    1    0    0    0  0.48220081021E+01 -0.57185212622E+01  0.26277758639E+02  0.27321673575E+02  0.51100000000E-03 0. -1.
         11    1    1    0    0    0 -0.21043355410E+02  0.55537698562E+01  0.31151937760E+02  0.38001452512E+02  0.51100000000E-03 0.  1.
         22    1    1    0    0    0  0.16221347308E+02  0.16475140604E+00 -0.57429696400E+02  0.59676873913E+02  0.00000000000E+00 0.  1.
</event>
<event>
 4    1  0.1956390E-002  0.9118800E+02  0.7818608E-02  0.1130116E+00
         25   -1    0    0    0    0  0.00000000000E+00  0.00000000000E+00  0.99999998245E-14  0.12500000000E+03  0.12500000000E+03 0.  0.
        -11    1    1    0    0    0 -0.22802383918E+02 -0.35658262770E+01 -0.15208227296E+01  0.23129564013E+02  0.51100000000E-03 0. -1.
         11    1    1    0    0    0 -0.38770293838E+02 -0.63161137666E+01 -0.26484902529E+01  0.39370591541E+02  0.51100000000E-03 0.  1.
         22    1    1    0    0    0  0.61572677756E+02  0.98819400436E+01  0.41693129825E+01  0.62499844446E+02  0.00000000000E+00 0. -1.
</event>
<event>
 4    1  0.1956390E-002  0.9118800E+02  0.7818608E-02  0.1130116E+00
         25   -1    0    0    0    0  0.00000000000E+00  0.00000000000E+00  0.99999998245E-14  0.12500000000E+03  0.12500000000E+03 0.  0.
        -11    1    1    0    0    0 -0.40225580129E+01 -0.18425685696E+02  0.36065928226E+02  0.40699361732E+02  0.51100000000E-03 0. -1.
         11    1    1    0    0    0 -0.21544169045E+01 -0.98700370848E+01  0.19318609801E+02  0.21800638274E+02  0.51100000000E-03 0. -1.
         22    1    1    0    0    0  0.61769749175E+01  0.28295722780E+02 -0.55384538027E+02  0.62499999994E+02  0.00000000000E+00 0. -1.
</event>
<event>
 4    1  0.1956390E-002  0.9118800E+02  0.7818608E-02  0.1130116E+00
         25   -1    0    0    0    0  0.00000000000E+00  0.00000000000E+00  0.99999998245E-14  0.12500000000E+03  0.12500000000E+03 0.  0.
        -11    1    1    0    0    0 -0.82466909149E+01 -0.10421656649E+02  0.58687216289E+02  0.60173151774E+02  0.51100000000E-03 0. -1.
         11    1    1    0    0    0 -0.70822930058E+00 -0.20826846240E+00  0.22274493012E+01  0.23465922410E+01  0.51100000000E-03 0.  1.
         22    1    1    0    0    0  0.89549202155E+01  0.10629925111E+02 -0.60914665591E+02  0.62480255985E+02  0.00000000000E+00 0. -1.
</event>
<event>
 4    1  0.1956390E-002  0.9118800E+02  0.7818608E-02  0.1130116E+00
         25   -1    0    0    0    0  0.00000000000E+00  0.00000000000E+00  0.99999998245E-14  0.12500000000E+03  0.12500000000E+03 0.  0.
        -11    1    1    0    0    0  0.64125369219E+01  0.26676602080E+01  0.18902457312E+02  0.20138022084E+02  0.51100000000E-03 0. -1.
         11    1    1    0    0    0  0.13513548460E+02  0.56108809146E+01  0.39754739365E+02  0.42361979166E+02  0.51100000000E-03 0.  1.
         22    1    1    0    0    0 -0.19926085382E+02 -0.82785411226E+01 -0.58657196677E+02  0.62499998750E+02  0.00000000000E+00 0. -1.
</event>
<event>
 4    1  0.1956390E-002  0.9118800E+02  0.7818608E-02  0.1130116E+00
         25   -1    0    0    0    0  0.00000000000E+00  0.00000000000E+00  0.99999998245E-14  0.12500000000E+03  0.12500000000E+03 0.  0.
        -11    1    1    0    0    0  0.24194468606E+02  0.15012332000E+02  0.57943811316E+01  0.29057138127E+02  0.51100000000E-03 0.  1.
         11    1    1    0    0    0  0.28033844852E+02  0.17003731633E+02  0.65900534582E+01  0.33443267656E+02  0.51100000000E-03 0. -1.
         22    1    1    0    0    0 -0.52228313457E+02 -0.32016063634E+02 -0.12384434590E+02  0.62499594217E+02  0.00000000000E+00 0. -1.
</event>
<event>
 4    1  0.1956390E-002  0.9118800E+02  0.7818608E-02  0.1130116E+00
         25   -1    0    0    0    0  0.00000000000E+00  0.00000000000E+00  0.99999998245E-14  0.12500000000E+03  0.12500000000E+03 0.  0.
        -11    1    1    0    0    0 -0.70832196893E+01 -0.72513500137E+00 -0.21264430117E+01  0.74309879613E+01  0.51100000000E-03 0. -1.
         11    1    1    0    0    0 -0.31013273519E+02 -0.17687587444E+02 -0.42878705552E+02  0.55796570450E+02  0.51100000000E-03 0.  1.
         22    1    1    0    0    0  0.38096493208E+02  0.18412722445E+02  0.45005148563E+02  0.61772441589E+02  0.00000000000E+00 0.  1.
</event>
<event>
 4    1  0.1956390E-002  0.9118800E+02  0.7818608E-02  0.1130116E+00
         25   -1    0    0    0    0  0.00000000000E+00  0.00000000000E+00  0.99999998245E-14  0.12500000000E+03  0.12500000000E+03 0.  0.
        -11    1    1    0    0    0  0.46137242269E+01  0.20221318086E+02  0.46944433771E+01  0.21265604982E+02  0.51100000000E-03 0.  1.
         11    1    1    0    0    0  0.89331184233E+01  0.39210144198E+02  0.91125937867E+01  0.41234395577E+02  0.51100000000E-03 0. -1.
         22    1    1    0    0    0 -0.13546842650E+02 -0.59431462284E+02 -0.13807037164E+02  0.62499999442E+02  0.00000000000E+00 0. -1.
</event>
<event>
 4    1  0.1956390E-002  0.9118800E+02  0.7818608E-02  0.1130116E+00
         25   -1    0    0    0    0  0.00000000000E+00  0.00000000000E+00  0.99999998245E-14  0.12500000000E+03  0.12500000000E+03 0.  0.
        -11    1    1    0    0    0  0.56684847392E+00  0.12843056774E+00 -0.96856376272E+00  0.11295696644E+01  0.51100000000E-03 0.  1.
         11    1    1    0    0    0  0.30684483863E+02  0.69115788635E+01 -0.52697461601E+02  0.61370432064E+02  0.51100000000E-03 0. -1.
         22    1    1    0    0    0 -0.31251332337E+02 -0.70400094312E+01  0.53666025363E+02  0.62499998271E+02  0.00000000000E+00 0. -1.
</event>
<event>
 4    1  0.1956390E-002  0.9118800E+02  0.7818608E-02  0.1130116E+00
         25   -1    0    0    0    0  0.00000000000E+00  0.00000000000E+00  0.99999998245E-14  0.12500000000E+03  0.12500000000E+03 0.  0.
        -11    1    1    0    0    0  0.35675092306E+01 -0.95694866619E+00 -0.29606898636E+01  0.47337678005E+01  0.51100000000E-03 0. -1.
         11    1    1    0    0    0 -0.61943963347E+01 -0.57722602048E+02 -0.12803848973E+02  0.59449204217E+02  0.51100000000E-03 0.  1.
         22    1    1    0    0    0  0.26268871041E+01  0.58679550715E+02  0.15764538837E+02  0.60817027983E+02  0.00000000000E+00 0.  1.
</event>
<event>
 4    1  0.1956390E-002  0.9118800E+02  0.7818608E-02  0.1130116E+00
         25   -1    0    0    0    0  0.00000000000E+00  0.00000000000E+00  0.99999998245E-14  0.12500000000E+03  0.12500000000E+03 0.  0.
        -11    1    1    0    0    0 -0.28400218548E+02 -0.49198471773E+02  0.11239528072E+02  0.57908453872E+02  0.51100000000E-03 0. -1.
         11    1    1    0    0    0 -0.22907507207E+01 -0.38519437350E+01  0.10024129501E+01  0.45923677320E+01  0.51100000000E-03 0.  1.
         22    1    1    0    0    0  0.30690969268E+02  0.53050415508E+02 -0.12241941022E+02  0.62499178396E+02  0.00000000000E+00 0. -1.
</event>
<event>
 4    1  0.1956390E-002  0.9118800E+02  0.7818608E-02  0.1130116E+00
         25   -1    0    0    0    0  0.00000000000E+00  0.00000000000E+00  0.99999998245E-14  0.12500000000E+03  0.12500000000E+03 0.  0.
        -11    1    1    0    0    0 -0.10011208558E+02  0.56143352379E+02  0.17199722406E+02  0.59566188096E+02  0.51100000000E-03 0.  1.
         11    1    1    0    0    0 -0.49256211897E+00  0.27660922690E+01  0.84461340551E+00  0.29338125277E+01  0.51100000000E-03 0. -1.
         22    1    1    0    0    0  0.10503770677E+02 -0.58909444648E+02 -0.18044335812E+02  0.62499999377E+02  0.00000000000E+00 0.  1.
</event>
<event>
 4    1  0.1956390E-002  0.9118800E+02  0.7818608E-02  0.1130116E+00
         25   -1    0    0    0    0  0.00000000000E+00  0.00000000000E+00  0.99999998245E-14  0.12500000000E+03  0.12500000000E+03 0.  0.
        -11    1    1    0    0    0 -0.24365997255E+01 -0.63324433808E+01 -0.79307397654E+01  0.10437120814E+02  0.51100000000E-03 0.  1.
         11    1    1    0    0    0 -0.46074255528E+02 -0.27806307905E+02 -0.43344221194E+01  0.53989026636E+02  0.51100000000E-03 0. -1.
         22    1    1    0    0    0  0.48510855253E+02  0.34138751286E+02  0.12265161885E+02  0.60573852550E+02  0.00000000000E+00 0. -1.
</event>
<event>
 4    1  0.1956390E-002  0.9118800E+02  0.7818608E-02  0.1130116E+00
         25   -1    0    0    0    0  0.00000000000E+00  0.00000000000E+00  0.99999998245E-14  0.12500000000E+03  0.12500000000E+03 0.  0.
        -11    1    1    0    0    0  0.16201775512E+02 -0.73129722271E+01 -0.12902023323E+02  0.21964500873E+02  0.51100000000E-03 0.  1.
         11    1    1    0    0    0  0.29903439028E+02 -0.13491532765E+02 -0.23809442939E+02  0.40535499200E+02  0.51100000000E-03 0. -1.
         22    1    1    0    0    0 -0.46105214540E+02  0.20804504992E+02  0.36711466262E+02  0.62499999927E+02  0.00000000000E+00 0.  1.
</event>
<event>
 4    1  0.1956390E-002  0.9118800E+02  0.7818608E-02  0.1130116E+00
         25   -1    0    0    0    0  0.00000000000E+00  0.00000000000E+00  0.99999998245E-14  0.12500000000E+03  0.12500000000E+03 0.  0.
        -11    1    1    0    0    0  0.26591839187E+02 -0.12690927121E+02 -0.27986296446E+02  0.40637646728E+02  0.51100000000E-03 0.  1.
         11    1    1    0    0    0  0.14272807733E+02 -0.69881724750E+01 -0.15014133975E+02  0.21862566510E+02  0.51100000000E-03 0. -1.
         22    1    1    0    0    0 -0.40864646920E+02  0.19679099596E+02  0.43000430421E+02  0.62499786762E+02  0.00000000000E+00 0.  1.
</event>
<event>
 4    1  0.1956390E-002  0.9118800E+02  0.7818608E-02  0.1130116E+00
         25   -1    0    0    0    0  0.00000000000E+00  0.00000000000E+00  0.99999998245E-14  0.12500000000E+03  0.12500000000E+03 0.  0.
        -11    1    1    0    0    0  0.34473621080E+02  0.24988129296E+02 -0.52628960008E+01  0.42901459540E+02  0.51100000000E-03 0. -1.
         11    1    1    0    0    0  0.15748582807E+02  0.11415318783E+02 -0.24032114147E+01  0.19598540474E+02  0.51100000000E-03 0.  1.
         22    1    1    0    0    0 -0.50222203887E+02 -0.36403448079E+02  0.76661074155E+01  0.62499999986E+02  0.00000000000E+00 0. -1.
</event>
<event>
 4    1  0.1956390E-002  0.9118800E+02  0.7818608E-02  0.1130116E+00
         25   -1    0    0    0    0  0.00000000000E+00  0.00000000000E+00  0.99999998245E-14  0.12500000000E+03  0.12500000000E+03 0.  0.
        -11    1    1    0    0    0 -0.40348437955E+01  0.19296354185E+01 -0.20152226274E+01  0.49055662060E+01  0.51100000000E-03 0. -1.
         11    1    1    0    0    0 -0.46202798495E+02  0.23623982252E+02 -0.24989748423E+02  0.57595821486E+02  0.51100000000E-03 0.  1.
         22    1    1    0    0    0  0.50237642290E+02 -0.25553617670E+02  0.27004971050E+02  0.62498612308E+02  0.00000000000E+00 0.  1.
</event>
<event>
 4    1  0.1956390E-002  0.9118800E+02  0.7818608E-02  0.1130116E+00
         25   -1    0    0    0    0  0.00000000000E+00  0.00000000000E+00  0.99999998245E-14  0.12500000000E+03  0.12500000000E+03 0.  0.
        -11    1    1    0    0    0 -0.23971649525E+01  0.17209609776E+02 -0.99646808881E+01  0.20030275433E+02  0.51100000000E-03 0. -1.
         11    1    1    0    0    0 -0.45844118737E+01  0.36470702054E+02 -0.21274205725E+02  0.42470233929E+02  0.51100000000E-03 0.  1.
         22    1    1    0    0    0  0.69815768262E+01 -0.53680311830E+02  0.31238886613E+02  0.62499490638E+02  0.00000000000E+00 0.  1.
</event>
<event>
 4    1  0.1956390E-002  0.9118800E+02  0.7818608E-02  0.1130116E+00
         25   -1    0    0    0    0  0.00000000000E+00  0.00000000000E+00  0.99999998245E-14  0.12500000000E+03  0.12500000000E+03 0.  0.
        -11    1    1    0    0    0 -0.95013447365E+00  0.19433336930E+01 -0.20389017495E+02  0.20503446930E+02  0.51100000000E-03 0.  1.
         11    1    1    0    0    0  0.85851529559E+01 -0.20461092891E+01 -0.41352933277E+02  0.42284234715E+02  0.51100000000E-03 0. -1.
         22    1    1    0    0    0 -0.76350184822E+01  0.10277559609E+00  0.61741950772E+02  0.62212318355E+02  0.00000000000E+00 0.  1.
</event>
<event>
 4    1  0.1956390E-002  0.9118800E+02  0.7818608E-02  0.1130116E+00
         25   -1    0    0    0    0  0.00000000000E+00  0.00000000000E+00  0.99999998245E-14  0.12500000000E+03  0.12500000000E+03 0.  0.
        -11    1    1    0    0    0 -0.22091809047E+02  0.46296689211E+01  0.41823276249E+02  0.47525448948E+02  0.51100000000E-03 0.  1.
         11    1    1    0    0    0 -0.69654623311E+01  0.14614321187E+01  0.13175118358E+02  0.14974551523E+02  0.51100000000E-03 0. -1.
         22    1    1    0    0    0  0.29057271378E+02 -0.60911010398E+01 -0.54998394606E+02  0.62499999529E+02  0.00000000000E+00 0.  1.
</event>
<event>
 4    1  0.1956390E-002  0.9118800E+02  0.7818608E-02  0.1130116E+00
         25   -1    0    0    0    0  0.00000000000E+00  0.00000000000E+00  0.99999998245E-14  0.12500000000E+03  0.12500000000E+03 0.  0.
        -11    1    1    0    0    0  0.14222021195E+02 -0.23412442306E+02 -0.45536433963E+02  0.53141087305E+02  0.51100000000E-03 0.  1.
         11    1    1    0    0    0  0.25050102866E+01 -0.41234090722E+01 -0.80194555849E+01  0.93589127067E+01  0.51100000000E-03 0.  1.
         22    1    1    0    0    0 -0.16727031481E+02  0.27535851378E+02  0.53555889548E+02  0.62499999989E+02  0.00000000000E+00 0.  1.
</event>
<event>
 4    1  0.1956390E-002  0.9118800E+02  0.7818608E-02  0.1130116E+00
         25   -1    0    0    0    0  0.00000000000E+00  0.00000000000E+00  0.99999998245E-14  0.12500000000E+03  0.12500000000E+03 0.  0.
        -11    1    1    0    0    0  0.42501498012E+02 -0.83995288400E+00 -0.14634700120E+02  0.44958395233E+02  0.51100000000E-03 0.  1.
         11    1    1    0    0    0  0.17291956444E+02 -0.47966273338E+00 -0.32828229695E+01  0.17607349627E+02  0.51100000000E-03 0. -1.
         22    1    1    0    0    0 -0.59793454456E+02  0.13196156174E+01  0.17917523090E+02  0.62434255139E+02  0.00000000000E+00 0.  1.
</event>
<event>
 4    1  0.1956390E-002  0.9118800E+02  0.7818608E-02  0.1130116E+00
         25   -1    0    0    0    0  0.00000000000E+00  0.00000000000E+00  0.99999998245E-14  0.12500000000E+03  0.12500000000E+03 0.  0.
        -11    1    1    0    0    0  0.11811633704E+02 -0.23143803012E-01 -0.24469465510E+01  0.12062453070E+02  0.51100000000E-03 0.  1.
         11    1    1    0    0    0  0.49374063279E+02 -0.91888829694E-01 -0.10302430785E+02  0.50437551968E+02  0.51100000000E-03 0. -1.
         22    1    1    0    0    0 -0.61185696982E+02  0.11503263271E+00  0.12749377336E+02  0.62499994962E+02  0.00000000000E+00 0. -1.
</event>
<event>
 4    1  0.1956390E-002  0.9118800E+02  0.7818608E-02  0.1130116E+00
         25   -1    0    0    0    0  0.00000000000E+00  0.00000000000E+00  0.99999998245E-14  0.12500000000E+03  0.12500000000E+03 0.  0.
        -11    1    1    0    0    0  0.46425537008E+01  0.12177764635E+01  0.25659189765E+01  0.54424465854E+01  0.51100000000E-03 0.  1.
         11    1    1    0    0    0  0.39120414114E+02  0.40485599882E+02  0.11571352034E+02  0.57475097098E+02  0.51100000000E-03 0. -1.
         22    1    1    0    0    0 -0.43762967815E+02 -0.41703376346E+02 -0.14137271011E+02  0.62082456316E+02  0.00000000000E+00 0. -1.
</event>
<event>
 4    1  0.1956390E-002  0.9118800E+02  0.7818608E-02  0.1130116E+00
         25   -1    0    0    0    0  0.00000000000E+00  0.00000000000E+00  0.99999998245E-14  0.12500000000E+03  0.12500000000E+03 0.  0.
        -11    1    1    0    0    0  0.27307890763E+00  0.36153617088E+02  0.72204998701E+01  0.36868607504E+02  0.51100000000E-03 0. -1.
         11    1    1    0    0    0  0.42768053730E+00  0.25116638689E+02  0.50949263228E+01  0.25631752265E+02  0.51100000000E-03 0.  1.
         22    1    1    0    0    0 -0.70075944493E+00 -0.61270255777E+02 -0.12315426193E+02  0.62499640231E+02  0.00000000000E+00 0. -1.
</event>
<event>
 4    1  0.1956390E-002  0.9118800E+02  0.7818608E-02  0.1130116E+00
         25   -1    0    0    0    0  0.00000000000E+00  0.00000000000E+00  0.99999998245E-14  0.12500000000E+03  0.12500000000E+03 0.  0.
        -11    1    1    0    0    0 -0.36350860530E+02  0.20490209728E+02  0.28682047898E+02  0.50634905232E+02  0.51100000000E-03 0. -1.
         11    1    1    0    0    0 -0.73587907913E+01  0.87666840284E+01  0.43622086491E+01  0.12248894453E+02  0.51100000000E-03 0.  1.
         22    1    1    0    0    0  0.43709651321E+02 -0.29256893757E+02 -0.33044256547E+02  0.62116200315E+02  0.00000000000E+00 0. -1.
</event>
<event>
 4    1  0.1956390E-002  0.9118800E+02  0.7818608E-02  0.1130116E+00
         25   -1    0    0    0    0  0.00000000000E+00  0.00000000000E+00  0.99999998245E-14  0.12500000000E+03  0.12500000000E+03 0.  0.
        -11    1    1    0    0    0 -0.27551082797E+02 -0.13110266809E+02 -0.34036198364E+02  0.45709999545E+02  0.51100000000E-03 0.  1.
         11    1    1    0    0    0 -0.10111403001E+02 -0.48528340154E+01 -0.12494566835E+02  0.16790016953E+02  0.51100000000E-03 0. -1.
         22    1    1    0    0    0  0.37662485798E+02  0.17963100825E+02  0.46530765199E+02  0.62499983502E+02  0.00000000000E+00 0.  1.
</event>
<event>
 4    1  0.1956390E-002  0.9118800E+02  0.7818608E-02  0.1130116E+00
         25   -1    0    0    0    0  0.00000000000E+00  0.00000000000E+00  0.99999998245E-14  0.12500000000E+03  0.12500000000E+03 0.  0.
        -11    1    1    0    0    0 -0.70758826007E+00  0.26878634050E+01 -0.24241533605E+00  0.27899921659E+01  0.51100000000E-03 0. -1.
         11    1    1    0    0    0 -0.16566709379E+02  0.57121235108E+02 -0.52955429730E+01  0.59710418987E+02  0.51100000000E-03 0.  1.
         22    1    1    0    0    0  0.17274297639E+02 -0.59809098513E+02  0.55379583091E+01  0.62499588847E+02  0.00000000000E+00 0.  1.
</event>
<event>
 4    1  0.1956390E-002  0.9118800E+02  0.7818608E-02  0.1130116E+00
         25   -1    0    0    0    0  0.00000000000E+00  0.00000000000E+00  0.99999998245E-14  0.12500000000E+03  0.12500000000E+03 0.  0.
        -11    1    1    0    0    0 -0.61000625375E+00  0.10171284922E+02 -0.10382706328E+02  0.14547430548E+02  0.51100000000E-03 0.  1.
         11    1    1    0    0    0 -0.20325440826E+01  0.33455827824E+02 -0.34293242352E+02  0.47952582017E+02  0.51100000000E-03 0. -1.
         22    1    1    0    0    0  0.26425503363E+01 -0.43627112746E+02  0.44675948681E+02  0.62499987435E+02  0.00000000000E+00 0. -1.
</event>
<event>
 4    1  0.1956390E-002  0.9118800E+02  0.7818608E-02  0.1130116E+00
         25   -1    0    0    0    0  0.00000000000E+00  0.00000000000E+00  0.99999998245E-14  0.12500000000E+03  0.12500000000E+03 0.  0.
        -11    1    1    0    0    0  0.66516554832E+01  0.25775985731E+02  0.51812812556E+00  0.26625446815E+02  0.51100000000E-03 0. -1.
         11    1    1    0    0    0  0.89664153080E+01  0.34729076252E+02  0.69154785472E+00  0.35874553370E+02  0.51100000000E-03 0.  1.
         22    1    1    0    0    0 -0.15618070791E+02 -0.60505061984E+02 -0.12096759803E+01  0.62499999815E+02  0.00000000000E+00 0.  1.
</event>
<event>
 4    1  0.1956390E-002  0.9118800E+02  0.7818608E-02  0.1130116E+00
         25   -1    0    0    0    0  0.00000000000E+00  0.00000000000E+00  0.99999998245E-14  0.12500000000E+03  0.12500000000E+03 0.  0.
        -11    1    1    0    0    0  0.10912517195E+02 -0.18825965567E+02  0.15655467235E+02  0.26806597428E+02  0.51100000000E-03 0. -1.
         11    1    1    0    0    0  0.19751638242E+02 -0.25089044002E+02  0.16272076434E+02  0.35838077709E+02  0.51100000000E-03 0.  1.
         22    1    1    0    0    0 -0.30664155436E+02  0.43915009569E+02 -0.31927543669E+02  0.62355324863E+02  0.00000000000E+00 0. -1.
</event>
<event>
 4    1  0.1956390E-002  0.9118800E+02  0.7818608E-02  0.1130116E+00
         25   -1    0    0    0    0  0.00000000000E+00  0.00000000000E+00  0.99999998245E-14  0.12500000000E+03  0.12500000000E+03 0.  0.
        -11    1    1    0    0    0 -0.28306177710E+01  0.95673505154E+00  0.38263652252E+01  0.48547718816E+01  0.51100000000E-03 0.  1.
         11    1    1    0    0    0 -0.32872453722E+02  0.12206096401E+02  0.45754106396E+02  0.57645687223E+02  0.51100000000E-03 0. -1.
         22    1    1    0    0    0  0.35703071493E+02 -0.13162831452E+02 -0.49580471622E+02  0.62499540895E+02  0.00000000000E+00 0. -1.
</event>
<event>
 4    1  0.1956390E-002  0.9118800E+02  0.7818608E-02  0.1130116E+00
         25   -1    0    0    0    0  0.00000000000E+00  0.00000000000E+00  0.99999998245E-14  0.12500000000E+03  0.12500000000E+03 0.  0.
        -11    1    1    0    0    0  0.78539118507E-01  0.25624554209E-01  0.39055447202E-01  0.91381617361E-01  0.51100000000E-03 0. -1.
         11    1    1    0    0    0  0.53671702680E+02  0.17463028918E+02  0.26631310387E+02  0.62408619123E+02  0.51100000000E-03 0. -1.
         22    1    1    0    0    0 -0.53750241799E+02 -0.17488653472E+02 -0.26670365834E+02  0.62499999260E+02  0.00000000000E+00 0. -1.
</event>
<event>
 4    1  0.1956390E-002  0.9118800E+02  0.7818608E-02  0.1130116E+00
         25   -1    0    0    0    0  0.00000000000E+00  0.00000000000E+00  0.99999998245E-14  0.12500000000E+03  0.12500000000E+03 0.  0.
        -11    1    1    0    0    0  0.34202464724E+02  0.60058077439E+01  0.47442844534E+02  0.58793722603E+02  0.51100000000E-03 0. -1.
         11    1    1    0    0    0 -0.13102422889E+02  0.33479115882E+01 -0.85111452640E-01  0.13523654898E+02  0.51100000000E-03 0.  1.
         22    1    1    0    0    0 -0.21100041835E+02 -0.93537193321E+01 -0.47357733081E+02  0.52682622499E+02  0.00000000000E+00 0. -1.
</event>
<event>
 4    1  0.1956390E-002  0.9118800E+02  0.7818608E-02  0.1130116E+00
         25   -1    0    0    0    0  0.00000000000E+00  0.00000000000E+00  0.99999998245E-14  0.12500000000E+03  0.12500000000E+03 0.  0.
        -11    1    1    0    0    0  0.35331416227E+02  0.21589015079E+02 -0.17503603059E+02  0.44952982826E+02  0.51100000000E-03 0.  1.
         11    1    1    0    0    0 -0.13157488762E+02  0.13105510622E+02 -0.17863570541E+02  0.25767830175E+02  0.51100000000E-03 0. -1.
         22    1    1    0    0    0 -0.22173927465E+02 -0.34694525701E+02  0.35367173600E+02  0.54279186999E+02  0.00000000000E+00 0.  1.
</event>
<event>
 4    1  0.1956390E-002  0.9118800E+02  0.7818608E-02  0.1130116E+00
         25   -1    0    0    0    0  0.00000000000E+00  0.00000000000E+00  0.99999998245E-14  0.12500000000E+03  0.12500000000E+03 0.  0.
        -11    1    1    0    0    0  0.43871218164E+02  0.18112691448E+02  0.22563468470E+02  0.52553434563E+02  0.51100000000E-03 0.  1.
         11    1    1    0    0    0  0.86058667499E+01  0.30546399440E+01  0.39598143319E+01  0.99534867010E+01  0.51100000000E-03 0. -1.
         22    1    1    0    0    0 -0.52477084914E+02 -0.21167331392E+02 -0.26523282802E+02  0.62493078736E+02  0.00000000000E+00 0.  1.
</event>
<event>
 4    1  0.1956390E-002  0.9118800E+02  0.7818608E-02  0.1130116E+00
         25   -1    0    0    0    0  0.00000000000E+00  0.00000000000E+00  0.99999998245E-14  0.12500000000E+03  0.12500000000E+03 0.  0.
        -11    1    1    0    0    0  0.31161501352E+01 -0.40575039659E+02  0.96261080793E+01  0.41817534504E+02  0.51100000000E-03 0.  1.
         11    1    1    0    0    0  0.21817745805E+02 -0.54077801320E+01 -0.19728733151E+02  0.29907875718E+02  0.51100000000E-03 0. -1.
         22    1    1    0    0    0 -0.24933895940E+02  0.45982819791E+02  0.10102625072E+02  0.53274589778E+02  0.00000000000E+00 0.  1.
</event>
<event>
 4    1  0.1956390E-002  0.9118800E+02  0.7818608E-02  0.1130116E+00
         25   -1    0    0    0    0  0.00000000000E+00  0.00000000000E+00  0.99999998245E-14  0.12500000000E+03  0.12500000000E+03 0.  0.
        -11    1    1    0    0    0 -0.49129876060E+01  0.19021009774E+02 -0.64230862189E+01  0.20668630745E+02  0.51100000000E-03 0. -1.
         11    1    1    0    0    0 -0.99574971890E+01  0.38475054398E+02 -0.13053063765E+02  0.41831376204E+02  0.51100000000E-03 0.  1.
         22    1    1    0    0    0  0.14870484795E+02 -0.57496064171E+02  0.19476149984E+02  0.62499993052E+02  0.00000000000E+00 0.  1.
</event>
<event>
 4    1  0.1956390E-002  0.9118800E+02  0.7818608E-02  0.1130116E+00
         25   -1    0    0    0    0  0.00000000000E+00  0.00000000000E+00  0.99999998245E-14  0.12500000000E+03  0.12500000000E+03 0.  0.
        -11    1    1    0    0    0 -0.51056636541E+02 -0.19465293804E+02  0.35663065942E+00  0.54642519923E+02  0.51100000000E-03 0. -1.
         11    1    1    0    0    0 -0.67725969439E+01 -0.40567245250E+01  0.62955514088E+00  0.79196858002E+01  0.51100000000E-03 0.  1.
         22    1    1    0    0    0  0.57829233485E+02  0.23522018329E+02 -0.98618580031E+00  0.62437794277E+02  0.00000000000E+00 0. -1.
</event>
<event>
 4    1  0.1956390E-002  0.9118800E+02  0.7818608E-02  0.1130116E+00
         25   -1    0    0    0    0  0.00000000000E+00  0.00000000000E+00  0.99999998245E-14  0.12500000000E+03  0.12500000000E+03 0.  0.
        -11    1    1    0    0    0  0.14332245217E+02  0.11657151497E+02 -0.79343746579E+01  0.20106136761E+02  0.51100000000E-03 0. -1.
         11    1    1    0    0    0  0.31032181634E+02  0.23908396717E+02 -0.16212756349E+02  0.42396476260E+02  0.51100000000E-03 0.  1.
         22    1    1    0    0    0 -0.45364426851E+02 -0.35565548214E+02  0.24147131007E+02  0.62497386979E+02  0.00000000000E+00 0.  1.
</event>
<event>
 4    1  0.1956390E-002  0.9118800E+02  0.7818608E-02  0.1130116E+00
         25   -1    0    0    0    0  0.00000000000E+00  0.00000000000E+00  0.99999998245E-14  0.12500000000E+03  0.12500000000E+03 0.  0.
        -11    1    1    0    0    0 -0.13770421794E+02 -0.16331432803E+02 -0.12426355382E+02  0.24713448204E+02  0.51100000000E-03 0.  1.
         11    1    1    0    0    0 -0.88246075649E+01 -0.38349225114E+02 -0.19504294132E+01  0.39399758130E+02  0.51100000000E-03 0. -1.
         22    1    1    0    0    0  0.22595029359E+02  0.54680657917E+02  0.14376784795E+02  0.60886793667E+02  0.00000000000E+00 0. -1.
</event>
<event>
 4    1  0.1956390E-002  0.9118800E+02  0.7818608E-02  0.1130116E+00
         25   -1    0    0    0    0  0.00000000000E+00  0.00000000000E+00  0.99999998245E-14  0.12500000000E+03  0.12500000000E+03 0.  0.
        -11    1    1    0    0    0  0.39471554655E+02 -0.28415573100E+02  0.28918327968E+02  0.56583726584E+02  0.51100000000E-03 0.  1.
         11    1    1    0    0    0  0.41268554638E+01 -0.29707185970E+01  0.30242662363E+01  0.59162734496E+01  0.51100000000E-03 0. -1.
         22    1    1    0    0    0 -0.43598410119E+02  0.31386291697E+02 -0.31942594204E+02  0.62499999966E+02  0.00000000000E+00 0.  1.
</event>
<event>
 4    1  0.1956390E-002  0.9118800E+02  0.7818608E-02  0.1130116E+00
         25   -1    0    0    0    0  0.00000000000E+00  0.00000000000E+00  0.99999998245E-14  0.12500000000E+03  0.12500000000E+03 0.  0.
        -11    1    1    0    0    0 -0.18066735099E+02 -0.31600501808E+02  0.27002673940E+02  0.45322654730E+02  0.51100000000E-03 0.  1.
         11    1    1    0    0    0 -0.64900208115E+01 -0.12080388478E+02  0.10346972999E+02  0.17178940783E+02  0.51100000000E-03 0. -1.
         22    1    1    0    0    0  0.24556755910E+02  0.43680890286E+02 -0.37349646938E+02  0.62498404487E+02  0.00000000000E+00 0.  1.
</event>
<event>
 4    1  0.1956390E-002  0.9118800E+02  0.7818608E-02  0.1130116E+00
         25   -1    0    0    0    0  0.00000000000E+00  0.00000000000E+00  0.99999998245E-14  0.12500000000E+03  0.12500000000E+03 0.  0.
        -11    1    1    0    0    0  0.11671246925E+02  0.21010636508E+02 -0.46301402743E+02  0.52167851666E+02  0.51100000000E-03 0. -1.
         11    1    1    0    0    0  0.23115320164E+01  0.41643795839E+01 -0.91688634154E+01  0.10332148575E+02  0.51100000000E-03 0.  1.
         22    1    1    0    0    0 -0.13982778942E+02 -0.25175016092E+02  0.55470266158E+02  0.62499999759E+02  0.00000000000E+00 0. -1.
</event>
<event>
 4    1  0.1956390E-002  0.9118800E+02  0.7818608E-02  0.1130116E+00
         25   -1    0    0    0    0  0.00000000000E+00  0.00000000000E+00  0.99999998245E-14  0.12500000000E+03  0.12500000000E+03 0.  0.
        -11    1    1    0    0    0  0.76226206492E+01 -0.42236727004E+02 -0.44325980097E+01  0.43147344981E+02  0.51100000000E-03 0.  1.
         11    1    1    0    0    0  0.34186458554E+01 -0.18944295913E+02 -0.19879057166E+01  0.19352655025E+02  0.51100000000E-03 0.  1.
         22    1    1    0    0    0 -0.11041266505E+02  0.61181022917E+02  0.64205037263E+01  0.62499999994E+02  0.00000000000E+00 0.  1.
</event>
<event>
 4    1  0.1956390E-002  0.9118800E+02  0.7818608E-02  0.1130116E+00
         25   -1    0    0    0    0  0.00000000000E+00  0.00000000000E+00  0.99999998245E-14  0.12500000000E+03  0.12500000000E+03 0.  0.
        -11    1    1    0    0    0  0.12534481031E+02  0.14539356356E+02 -0.48078593777E+02  0.51769269628E+02  0.51100000000E-03 0.  1.
         11    1    1    0    0    0  0.61380532959E+01  0.48564628663E+00 -0.92397673296E+01  0.11103371161E+02  0.51100000000E-03 0. -1.
         22    1    1    0    0    0 -0.18672534327E+02 -0.15025002642E+02  0.57318361107E+02  0.62127359211E+02  0.00000000000E+00 0.  1.
</event>
<event>
 4    1  0.1956390E-002  0.9118800E+02  0.7818608E-02  0.1130116E+00
         25   -1    0    0    0    0  0.00000000000E+00  0.00000000000E+00  0.99999998245E-14  0.12500000000E+03  0.12500000000E+03 0.  0.
        -11    1    1    0    0    0  0.54874164490E+02  0.36966682102E+01 -0.13522866975E+02  0.56636624332E+02  0.51100000000E-03 0. -1.
         11    1    1    0    0    0  0.59817460922E+01 -0.41251218675E+00  0.31556358910E+00  0.60042512652E+01  0.51100000000E-03 0.  1.
         22    1    1    0    0    0 -0.60855910582E+02 -0.32841560234E+01  0.13207303385E+02  0.62359124402E+02  0.00000000000E+00 0. -1.
</event>
<event>
 4    1  0.1956390E-002  0.9118800E+02  0.7818608E-02  0.1130116E+00
         25   -1    0    0    0    0  0.00000000000E+00  0.00000000000E+00  0.99999998245E-14  0.12500000000E+03  0.12500000000E+03 0.  0.
        -11    1    1    0    0    0  0.96032759919E+01 -0.13695898136E+02 -0.67300936043E+01  0.18030382572E+02  0.51100000000E-03 0. -1.
         11    1    1    0    0    0  0.23500411287E+02 -0.34749367337E+02 -0.14777625697E+02  0.44476579033E+02  0.51100000000E-03 0.  1.
         22    1    1    0    0    0 -0.33103687279E+02  0.48445265473E+02  0.21507719302E+02  0.62493038394E+02  0.00000000000E+00 0.  1.
</event>
<event>
 4    1  0.1956390E-002  0.9118800E+02  0.7818608E-02  0.1130116E+00
         25   -1    0    0    0    0  0.00000000000E+00  0.00000000000E+00  0.99999998245E-14  0.12500000000E+03  0.12500000000E+03 0.  0.
        -11    1    1    0    0    0  0.20598175528E+02  0.82027698090E+01 -0.20003268941E+01  0.22261436961E+02  0.51100000000E-03 0. -1.
         11    1    1    0    0    0  0.37230755100E+02  0.14829850315E+02 -0.36177855895E+01  0.40238563078E+02  0.51100000000E-03 0.  1.
         22    1    1    0    0    0 -0.57828930628E+02 -0.23032620124E+02  0.56181124836E+01  0.62499999962E+02  0.00000000000E+00 0. -1.
</event>
<event>
 4    1  0.1956390E-002  0.9118800E+02  0.7818608E-02  0.1130116E+00
         25   -1    0    0    0    0  0.00000000000E+00  0.00000000000E+00  0.99999998245E-14  0.12500000000E+03  0.12500000000E+03 0.  0.
        -11    1    1    0    0    0 -0.43338572899E+01  0.14987174917E+02 -0.13374275933E+01  0.15658430439E+02  0.51100000000E-03 0. -1.
         11    1    1    0    0    0 -0.12958554128E+02  0.44834249330E+02 -0.40123088246E+01  0.46841569791E+02  0.51100000000E-03 0.  1.
         22    1    1    0    0    0  0.17292411418E+02 -0.59821424247E+02  0.53497364179E+01  0.62499999770E+02  0.00000000000E+00 0.  1.
</event>
<event>
 4    1  0.1956390E-002  0.9118800E+02  0.7818608E-02  0.1130116E+00
         25   -1    0    0    0    0  0.00000000000E+00  0.00000000000E+00  0.99999998245E-14  0.12500000000E+03  0.12500000000E+03 0.  0.
        -11    1    1    0    0    0  0.63789808540E+01  0.37735580883E+02 -0.36965583934E+02  0.53208268691E+02  0.51100000000E-03 0. -1.
         11    1    1    0    0    0 -0.31531355235E+01 -0.59490936585E+00 -0.10761736703E+02  0.11229922435E+02  0.51100000000E-03 0.  1.
         22    1    1    0    0    0 -0.32258453305E+01 -0.37140671517E+02  0.47727320636E+02  0.60561808873E+02  0.00000000000E+00 0. -1.
</event>
<event>
 4    1  0.1956390E-002  0.9118800E+02  0.7818608E-02  0.1130116E+00
         25   -1    0    0    0    0  0.00000000000E+00  0.00000000000E+00  0.99999998245E-14  0.12500000000E+03  0.12500000000E+03 0.  0.
        -11    1    1    0    0    0  0.72748821567E+01  0.42127696285E+02 -0.29448913601E+02  0.51912476508E+02  0.51100000000E-03 0. -1.
         11    1    1    0    0    0  0.14866232675E+01  0.85903215685E+01 -0.60076605937E+01  0.10587523764E+02  0.51100000000E-03 0.  1.
         22    1    1    0    0    0 -0.87615054242E+01 -0.50718017854E+02  0.35456574195E+02  0.62499999727E+02  0.00000000000E+00 0. -1.
</event>
<event>
 4    1  0.1956390E-002  0.9118800E+02  0.7818608E-02  0.1130116E+00
         25   -1    0    0    0    0  0.00000000000E+00  0.00000000000E+00  0.99999998245E-14  0.12500000000E+03  0.12500000000E+03 0.  0.
        -11    1    1    0    0    0  0.12754772677E+02  0.98472526337E+01  0.12603758524E+01  0.16162956352E+02  0.51100000000E-03 0. -1.
         11    1    1    0    0    0  0.36604606546E+02  0.28181272768E+02  0.36112001869E+01  0.46337049132E+02  0.51100000000E-03 0.  1.
         22    1    1    0    0    0 -0.49359379223E+02 -0.38028525402E+02 -0.48715760394E+01  0.62499994517E+02  0.00000000000E+00 0. -1.
</event>
<event>
 4    1  0.1956390E-002  0.9118800E+02  0.7818608E-02  0.1130116E+00
         25   -1    0    0    0    0  0.00000000000E+00  0.00000000000E+00  0.99999998245E-14  0.12500000000E+03  0.12500000000E+03 0.  0.
        -11    1    1    0    0    0 -0.16859451804E+02 -0.29523691441E+02 -0.20027688159E+02  0.39458810989E+02  0.51100000000E-03 0.  1.
         11    1    1    0    0    0 -0.10810207741E+02 -0.17048231610E+02 -0.11126606815E+02  0.23050036267E+02  0.51100000000E-03 0. -1.
         22    1    1    0    0    0  0.27669659544E+02  0.46571923051E+02  0.31154294973E+02  0.62491152744E+02  0.00000000000E+00 0.  1.
</event>
<event>
 4    1  0.1956390E-002  0.9118800E+02  0.7818608E-02  0.1130116E+00
         25   -1    0    0    0    0  0.00000000000E+00  0.00000000000E+00  0.99999998245E-14  0.12500000000E+03  0.12500000000E+03 0.  0.
        -11    1    1    0    0    0 -0.82475262273E+01  0.32268181514E+02 -0.18205776326E+02  0.37956653158E+02  0.51100000000E-03 0.  1.
         11    1    1    0    0    0 -0.47406316195E+01  0.20833673193E+02 -0.12082902056E+02  0.24546120859E+02  0.51100000000E-03 0. -1.
         22    1    1    0    0    0  0.12988157847E+02 -0.53101854707E+02  0.30288678381E+02  0.62497225983E+02  0.00000000000E+00 0. -1.
</event>
<event>
 4    1  0.1956390E-002  0.9118800E+02  0.7818608E-02  0.1130116E+00
         25   -1    0    0    0    0  0.00000000000E+00  0.00000000000E+00  0.99999998245E-14  0.12500000000E+03  0.12500000000E+03 0.  0.
        -11    1    1    0    0    0  0.52046804165E+01  0.49940304697E+02 -0.23723617238E+02  0.55533167986E+02  0.51100000000E-03 0.  1.
         11    1    1    0    0    0  0.65247826081E+00  0.62814274190E+01 -0.29419937685E+01  0.69668777725E+01  0.51100000000E-03 0. -1.
         22    1    1    0    0    0 -0.58571586773E+01 -0.56221732116E+02  0.26665611007E+02  0.62499954242E+02  0.00000000000E+00 0.  1.
</event>
<event>
 4    1  0.1956390E-002  0.9118800E+02  0.7818608E-02  0.1130116E+00
         25   -1    0    0    0    0  0.00000000000E+00  0.00000000000E+00  0.99999998245E-14  0.12500000000E+03  0.12500000000E+03 0.  0.
        -11    1    1    0    0    0  0.32101323613E+02 -0.17264496294E+02  0.33318288821E+02  0.49382853099E+02  0.51100000000E-03 0.  1.
         11    1    1    0    0    0  0.85082276874E+01 -0.46198986187E+01  0.88502393289E+01  0.13117169591E+02  0.51100000000E-03 0. -1.
         22    1    1    0    0    0 -0.40609551301E+02  0.21884394912E+02 -0.42168528149E+02  0.62499977311E+02  0.00000000000E+00 0.  1.
</event>
<event>
 4    1  0.1956390E-002  0.9118800E+02  0.7818608E-02  0.1130116E+00
         25   -1    0    0    0    0  0.00000000000E+00  0.00000000000E+00  0.99999998245E-14  0.12500000000E+03  0.12500000000E+03 0.  0.
        -11    1    1    0    0    0  0.20003479712E+01 -0.28011769924E+00  0.59894631772E+00  0.21067973049E+01  0.51100000000E-03 0.  1.
         11    1    1    0    0    0  0.57264379791E+02 -0.85083455659E+01  0.17197144286E+02  0.60393235623E+02  0.51100000000E-03 0. -1.
         22    1    1    0    0    0 -0.59264727762E+02  0.87884632651E+01 -0.17796090604E+02  0.62499967072E+02  0.00000000000E+00 0. -1.
</event>
<event>
 4    1  0.1956390E-002  0.9118800E+02  0.7818608E-02  0.1130116E+00
         25   -1    0    0    0    0  0.00000000000E+00  0.00000000000E+00  0.99999998245E-14  0.12500000000E+03  0.12500000000E+03 0.  0.
        -11    1    1    0    0    0 -0.15648960994E+02 -0.16686688410E+02 -0.39781129827E+01  0.23219839221E+02  0.51100000000E-03 0.  1.
         11    1    1    0    0    0 -0.25621076719E+02 -0.28689779743E+02 -0.79911168214E+01  0.39286142369E+02  0.51100000000E-03 0. -1.
         22    1    1    0    0    0  0.41270037713E+02  0.45376468153E+02  0.11969229804E+02  0.62494018410E+02  0.00000000000E+00 0. -1.
</event>
<event>
 4    1  0.1956390E-002  0.9118800E+02  0.7818608E-02  0.1130116E+00
         25   -1    0    0    0    0  0.00000000000E+00  0.00000000000E+00  0.99999998245E-14  0.12500000000E+03  0.12500000000E+03 0.  0.
        -11    1    1    0    0    0 -0.32192522118E+02  0.24186626757E+02  0.17870359841E+01  0.40305643427E+02  0.51100000000E-03 0. -1.
         11    1    1    0    0    0 -0.60870922233E+01  0.22990263115E+02  0.16823230989E+01  0.23841877046E+02  0.51100000000E-03 0.  1.
         22    1    1    0    0    0  0.38279614342E+02 -0.47176889871E+02 -0.34693590830E+01  0.60852479527E+02  0.00000000000E+00 0. -1.
</event>
<event>
 4    1  0.1956390E-002  0.9118800E+02  0.7818608E-02  0.1130116E+00
         25   -1    0    0    0    0  0.00000000000E+00  0.00000000000E+00  0.99999998245E-14  0.12500000000E+03  0.12500000000E+03 0.  0.
        -11    1    1    0    0    0  0.34241478701E+01  0.53079283147E+01  0.24490756223E+02  0.25292212878E+02  0.51100000000E-03 0.  1.
         11    1    1    0    0    0  0.52627724036E+01  0.98514346643E+01  0.35504679514E+02  0.37220018887E+02  0.51100000000E-03 0. -1.
         22    1    1    0    0    0 -0.86869202736E+01 -0.15159362979E+02 -0.59995435737E+02  0.62487768235E+02  0.00000000000E+00 0.  1.
</event>
<event>
 4    1  0.1956390E-002  0.9118800E+02  0.7818608E-02  0.1130116E+00
         25   -1    0    0    0    0  0.00000000000E+00  0.00000000000E+00  0.99999998245E-14  0.12500000000E+03  0.12500000000E+03 0.  0.
        -11    1    1    0    0    0  0.21761708023E+02 -0.25316897503E+02 -0.44377381835E+02  0.55532596320E+02  0.51100000000E-03 0. -1.
         11    1    1    0    0    0  0.27337805591E+01 -0.31766150966E+01 -0.55659932693E+01  0.69674041760E+01  0.51100000000E-03 0.  1.
         22    1    1    0    0    0 -0.24495488582E+02  0.28493512599E+02  0.49943375105E+02  0.62499999504E+02  0.00000000000E+00 0. -1.
</event>
<event>
 4    1  0.1956390E-002  0.9118800E+02  0.7818608E-02  0.1130116E+00
         25   -1    0    0    0    0  0.00000000000E+00  0.00000000000E+00  0.99999998245E-14  0.12500000000E+03  0.12500000000E+03 0.  0.
        -11    1    1    0    0    0 -0.18755584438E+02  0.17314496793E+02 -0.56775227893E+01  0.26149531776E+02  0.51100000000E-03 0. -1.
         11    1    1    0    0    0 -0.26494677351E+02  0.23767748173E+02 -0.73886501715E+01  0.36351972887E+02  0.51100000000E-03 0.  1.
         22    1    1    0    0    0  0.45250261789E+02 -0.41082244967E+02  0.13066172961E+02  0.62498495337E+02  0.00000000000E+00 0.  1.
</event>
<event>
 4    1  0.1956390E-002  0.9118800E+02  0.7818608E-02  0.1130116E+00
         25   -1    0    0    0    0  0.00000000000E+00  0.00000000000E+00  0.99999998245E-14  0.12500000000E+03  0.12500000000E+03 0.  0.
        -11    1    1    0    0    0 -0.29960430614E+02 -0.12788478929E+02 -0.49131747536E+02  0.58949989076E+02  0.51100000000E-03 0. -1.
         11    1    1    0    0    0 -0.18290687653E+01 -0.74146145954E+00 -0.29509366270E+01  0.35501105450E+01  0.51100000000E-03 0.  1.
         22    1    1    0    0    0  0.31789499379E+02  0.13529940389E+02  0.52082684163E+02  0.62499900379E+02  0.00000000000E+00 0. -1.
</event>
<event>
 4    1  0.1956390E-002  0.9118800E+02  0.7818608E-02  0.1130116E+00
         25   -1    0    0    0    0  0.00000000000E+00  0.00000000000E+00  0.99999998245E-14  0.12500000000E+03  0.12500000000E+03 0.  0.
        -11    1    1    0    0    0 -0.20009819678E+02 -0.21244667304E+02 -0.39559787498E+02  0.49159999588E+02  0.51100000000E-03 0. -1.
         11    1    1    0    0    0 -0.68344456667E+00 -0.11292899795E+02  0.35271912899E+02  0.37041929243E+02  0.51100000000E-03 0.  1.
         22    1    1    0    0    0  0.20693264245E+02  0.32537567099E+02  0.42878745989E+01  0.38798071169E+02  0.00000000000E+00 0. -1.
</event>
<event>
 4    1  0.1956390E-002  0.9118800E+02  0.7818608E-02  0.1130116E+00
         25   -1    0    0    0    0  0.00000000000E+00  0.00000000000E+00  0.99999998245E-14  0.12500000000E+03  0.12500000000E+03 0.  0.
        -11    1    1    0    0    0 -0.58904604685E+00  0.38269854680E+02 -0.30491505784E+02  0.48935270284E+02  0.51100000000E-03 0. -1.
         11    1    1    0    0    0 -0.88556235909E+01  0.89239305745E+01 -0.75953135214E+01  0.14688342106E+02  0.51100000000E-03 0.  1.
         22    1    1    0    0    0  0.94446696378E+01 -0.47193785255E+02  0.38086819306E+02  0.61376387610E+02  0.00000000000E+00 0. -1.
</event>
<event>
 4    1  0.1956390E-002  0.9118800E+02  0.7818608E-02  0.1130116E+00
         25   -1    0    0    0    0  0.00000000000E+00  0.00000000000E+00  0.99999998245E-14  0.12500000000E+03  0.12500000000E+03 0.  0.
        -11    1    1    0    0    0 -0.39457052655E+01 -0.79174050357E+01  0.50241806774E+01  0.10173312355E+02  0.51100000000E-03 0.  1.
         11    1    1    0    0    0 -0.20290687409E+02 -0.40725906098E+02  0.25841261953E+02  0.52326687671E+02  0.51100000000E-03 0.  1.
         22    1    1    0    0    0  0.24236392674E+02  0.48643311134E+02 -0.30865442630E+02  0.62499999974E+02  0.00000000000E+00 0.  1.
</event>
<event>
 4    1  0.1956390E-002  0.9118800E+02  0.7818608E-02  0.1130116E+00
         25   -1    0    0    0    0  0.00000000000E+00  0.00000000000E+00  0.99999998245E-14  0.12500000000E+03  0.12500000000E+03 0.  0.
        -11    1    1    0    0    0  0.17282972004E+01 -0.87059887928E+01  0.68639465249E+01  0.11220294748E+02  0.51100000000E-03 0. -1.
         11    1    1    0    0    0  0.79050758125E+01 -0.39782539821E+02  0.31376224811E+02  0.51279705360E+02  0.51100000000E-03 0.  1.
         22    1    1    0    0    0 -0.96333730128E+01  0.48488528614E+02 -0.38240171335E+02  0.62499999892E+02  0.00000000000E+00 0.  1.
</event>
<event>
 4    1  0.1956390E-002  0.9118800E+02  0.7818608E-02  0.1130116E+00
         25   -1    0    0    0    0  0.00000000000E+00  0.00000000000E+00  0.99999998245E-14  0.12500000000E+03  0.12500000000E+03 0.  0.
        -11    1    1    0    0    0  0.26887128357E+02 -0.41056161998E+01 -0.40230495707E+02  0.48561986581E+02  0.51100000000E-03 0. -1.
         11    1    1    0    0    0  0.77120943623E+01 -0.11603818784E+01 -0.11551860355E+02  0.13938018636E+02  0.51100000000E-03 0.  1.
         22    1    1    0    0    0 -0.34599222720E+02  0.52659980782E+01  0.51782356062E+02  0.62499994783E+02  0.00000000000E+00 0. -1.
</event>
<event>
 4    1  0.1956390E-002  0.9118800E+02  0.7818608E-02  0.1130116E+00
         25   -1    0    0    0    0  0.00000000000E+00  0.00000000000E+00  0.99999998245E-14  0.12500000000E+03  0.12500000000E+03 0.  0.
        -11    1    1    0    0    0  0.34567160138E+02 -0.21368728951E+01  0.21907331079E+02  0.40980311627E+02  0.51100000000E-03 0.  1.
         11    1    1    0    0    0  0.18152703998E+02 -0.11232360649E+01  0.11502811263E+02  0.21519688402E+02  0.51100000000E-03 0.  1.
         22    1    1    0    0    0 -0.52719864137E+02  0.32601089599E+01 -0.33410142342E+02  0.62499999971E+02  0.00000000000E+00 0.  1.
</event>
<event>
 4    1  0.1956390E-002  0.9118800E+02  0.7818608E-02  0.1130116E+00
         25   -1    0    0    0    0  0.00000000000E+00  0.00000000000E+00  0.99999998245E-14  0.12500000000E+03  0.12500000000E+03 0.  0.
        -11    1    1    0    0    0 -0.29039497776E+02 -0.90287497245E+01 -0.17506598602E+02  0.35089766992E+02  0.51100000000E-03 0.  1.
         11    1    1    0    0    0 -0.26888077036E+02 -0.73700807838E+01 -0.31912269299E+01  0.28061908471E+02  0.51100000000E-03 0. -1.
         22    1    1    0    0    0  0.55927574812E+02  0.16398830508E+02  0.20697825532E+02  0.61848324538E+02  0.00000000000E+00 0.  1.
</event>
<event>
 4    1  0.1956390E-002  0.9118800E+02  0.7818608E-02  0.1130116E+00
         25   -1    0    0    0    0  0.00000000000E+00  0.00000000000E+00  0.99999998245E-14  0.12500000000E+03  0.12500000000E+03 0.  0.
        -11    1    1    0    0    0 -0.46811561845E+02 -0.44478162926E+01  0.18787706266E+02  0.50636778128E+02  0.51100000000E-03 0.  1.
         11    1    1    0    0    0 -0.10975006833E+02 -0.10591891765E+01  0.43776424823E+01  0.11863237781E+02  0.51100000000E-03 0. -1.
         22    1    1    0    0    0  0.57786568678E+02  0.55070054690E+01 -0.23165348749E+02  0.62499984091E+02  0.00000000000E+00 0.  1.
</event>
<event>
 4    1  0.1956390E-002  0.9118800E+02  0.7818608E-02  0.1130116E+00
         25   -1    0    0    0    0  0.00000000000E+00  0.00000000000E+00  0.99999998245E-14  0.12500000000E+03  0.12500000000E+03 0.  0.
        -11    1    1    0    0    0  0.58723183789E+01 -0.10313633988E+02 -0.46418067260E+02  0.47911294468E+02  0.51100000000E-03 0.  1.
         11    1    1    0    0    0  0.17865395265E+01 -0.31550844906E+01 -0.14130963665E+02  0.14588708509E+02  0.51100000000E-03 0. -1.
         22    1    1    0    0    0 -0.76588579054E+01  0.13468718478E+02  0.60549030925E+02  0.62499997022E+02  0.00000000000E+00 0.  1.
</event>
<event>
 4    1  0.1956390E-002  0.9118800E+02  0.7818608E-02  0.1130116E+00
         25   -1    0    0    0    0  0.00000000000E+00  0.00000000000E+00  0.99999998245E-14  0.12500000000E+03  0.12500000000E+03 0.  0.
        -11    1    1    0    0    0  0.13668775030E-01 -0.20082811198E+01 -0.95796925189E+00  0.22251034224E+01  0.51100000000E-03 0. -1.
         11    1    1    0    0    0  0.17568136772E+02 -0.57692428760E+02 -0.32622446788E+01  0.60396175429E+02  0.51100000000E-03 0.  1.
         22    1    1    0    0    0 -0.17581805547E+02  0.59700709880E+02  0.42202139307E+01  0.62378721148E+02  0.00000000000E+00 0.  1.
</event>
<event>
 4    1  0.1956390E-002  0.9118800E+02  0.7818608E-02  0.1130116E+00
         25   -1    0    0    0    0  0.00000000000E+00  0.00000000000E+00  0.99999998245E-14  0.12500000000E+03  0.12500000000E+03 0.  0.
        -11    1    1    0    0    0  0.56849341875E+01  0.40999444725E+02  0.23477154064E+02  0.47586234435E+02  0.51100000000E-03 0.  1.
         11    1    1    0    0    0  0.17861049245E+01  0.12874828829E+02  0.73123222986E+01  0.14913800517E+02  0.51100000000E-03 0. -1.
         22    1    1    0    0    0 -0.74710391120E+01 -0.53874273554E+02 -0.30789476362E+02  0.62499965049E+02  0.00000000000E+00 0.  1.
</event>
<event>
 4    1  0.1956390E-002  0.9118800E+02  0.7818608E-02  0.1130116E+00
         25   -1    0    0    0    0  0.00000000000E+00  0.00000000000E+00  0.99999998245E-14  0.12500000000E+03  0.12500000000E+03 0.  0.
        -11    1    1    0    0    0  0.13687862301E+02 -0.25692492329E+02 -0.74083254596E+01  0.30039058288E+02  0.51100000000E-03 0. -1.
         11    1    1    0    0    0  0.14795125648E+02 -0.27759885620E+02 -0.80128499344E+01  0.32460942021E+02  0.51100000000E-03 0.  1.
         22    1    1    0    0    0 -0.28482987949E+02  0.53452377949E+02  0.15421175394E+02  0.62499999691E+02  0.00000000000E+00 0.  1.
</event>
<event>
 4    1  0.1956390E-002  0.9118800E+02  0.7818608E-02  0.1130116E+00
         25   -1    0    0    0    0  0.00000000000E+00  0.00000000000E+00  0.99999998245E-14  0.12500000000E+03  0.12500000000E+03 0.  0.
        -11    1    1    0    0    0 -0.11598865066E+02 -0.62291429499E+00 -0.77583579741E+01  0.13968314564E+02  0.51100000000E-03 0. -1.
         11    1    1    0    0    0 -0.40665563337E+02 -0.18748914657E+02 -0.19670370526E+02  0.48909439981E+02  0.51100000000E-03 0.  1.
         22    1    1    0    0    0  0.52264428403E+02  0.19371828952E+02  0.27428728500E+02  0.62122245455E+02  0.00000000000E+00 0.  1.
</event>
<event>
 4    1  0.1956390E-002  0.9118800E+02  0.7818608E-02  0.1130116E+00
         25   -1    0    0    0    0  0.00000000000E+00  0.00000000000E+00  0.99999998245E-14  0.12500000000E+03  0.12500000000E+03 0.  0.
        -11    1    1    0    0    0  0.45163983278E+02  0.13266659562E+02  0.23095013802E+02  0.52432521438E+02  0.51100000000E-03 0. -1.
         11    1    1    0    0    0  0.86732493404E+01  0.25423620289E+01  0.44345548559E+01  0.10067479120E+02  0.51100000000E-03 0.  1.
         22    1    1    0    0    0 -0.53837232619E+02 -0.15809021591E+02 -0.27529568658E+02  0.62499999442E+02  0.00000000000E+00 0. -1.
</event>
<event>
 4    1  0.1956390E-002  0.9118800E+02  0.7818608E-02  0.1130116E+00
         25   -1    0    0    0    0  0.00000000000E+00  0.00000000000E+00  0.99999998245E-14  0.12500000000E+03  0.12500000000E+03 0.  0.
        -11    1    1    0    0    0  0.82532375050E+00 -0.14776906146E+02 -0.32912794272E+02  0.36087257330E+02  0.51100000000E-03 0. -1.
         11    1    1    0    0    0  0.63065237246E+00 -0.10664154177E+02 -0.24156141400E+02  0.26412895986E+02  0.51100000000E-03 0.  1.
         22    1    1    0    0    0 -0.14559761230E+01  0.25441060323E+02  0.57068935672E+02  0.62499846685E+02  0.00000000000E+00 0.  1.
</event>
<event>
 4    1  0.1956390E-002  0.9118800E+02  0.7818608E-02  0.1130116E+00
         25   -1    0    0    0    0  0.00000000000E+00  0.00000000000E+00  0.99999998245E-14  0.12500000000E+03  0.12500000000E+03 0.  0.
        -11    1    1    0    0    0  0.77720822751E+01  0.49795226887E+02  0.10435819457E+02  0.51467234350E+02  0.51100000000E-03 0. -1.
         11    1    1    0    0    0  0.16265048959E+01  0.10695462974E+02  0.21648207033E+01  0.11032900586E+02  0.51100000000E-03 0.  1.
         22    1    1    0    0    0 -0.93985871710E+01 -0.60490689861E+02 -0.12600640160E+02  0.62499865064E+02  0.00000000000E+00 0. -1.
</event>
<event>
 4    1  0.1956390E-002  0.9118800E+02  0.7818608E-02  0.1130116E+00
         25   -1    0    0    0    0  0.00000000000E+00  0.00000000000E+00  0.99999998245E-14  0.12500000000E+03  0.12500000000E+03 0.  0.
        -11    1    1    0    0    0  0.21001112482E+02  0.35238641216E+01  0.45327280857E+02  0.50080203015E+02  0.51100000000E-03 0. -1.
         11    1    1    0    0    0  0.52294950644E+01  0.88579663415E+00  0.11230288824E+02  0.12419808438E+02  0.51100000000E-03 0.  1.
         22    1    1    0    0    0 -0.26230607546E+02 -0.44096607557E+01 -0.56557569681E+02  0.62499988548E+02  0.00000000000E+00 0. -1.
</event>
<event>
 4    1  0.1956390E-002  0.9118800E+02  0.7818608E-02  0.1130116E+00
         25   -1    0    0    0    0  0.00000000000E+00  0.00000000000E+00  0.99999998245E-14  0.12500000000E+03  0.12500000000E+03 0.  0.
        -11    1    1    0    0    0  0.27581164730E+02 -0.46909030252E+01 -0.42017768070E+02  0.50479877702E+02  0.51100000000E-03 0. -1.
         11    1    1    0    0    0  0.61404898794E+01 -0.20143216211E+01 -0.10155211774E+02  0.12037085776E+02  0.51100000000E-03 0.  1.
         22    1    1    0    0    0 -0.33721654609E+02  0.67052246463E+01  0.52172979844E+02  0.62483036521E+02  0.00000000000E+00 0. -1.
</event>
<event>
 4    1  0.1956390E-002  0.9118800E+02  0.7818608E-02  0.1130116E+00
         25   -1    0    0    0    0  0.00000000000E+00  0.00000000000E+00  0.99999998245E-14  0.12500000000E+03  0.12500000000E+03 0.  0.
        -11    1    1    0    0    0 -0.47400156641E+01  0.45684743587E+02  0.19162754219E+02  0.49767205011E+02  0.51100000000E-03 0.  1.
         11    1    1    0    0    0 -0.12130200007E+01  0.11688222656E+02  0.49028666921E+01  0.12732794997E+02  0.51100000000E-03 0.  1.
         22    1    1    0    0    0  0.59530356647E+01 -0.57372966243E+02 -0.24065620911E+02  0.62499999992E+02  0.00000000000E+00 0.  1.
</event>
<event>
 4    1  0.1956390E-002  0.9118800E+02  0.7818608E-02  0.1130116E+00
         25   -1    0    0    0    0  0.00000000000E+00  0.00000000000E+00  0.99999998245E-14  0.12500000000E+03  0.12500000000E+03 0.  0.
        -11    1    1    0    0    0  0.45319084369E+02  0.45055729310E+01 -0.62427271440E+01  0.45968372148E+02  0.51100000000E-03 0. -1.
         11    1    1    0    0    0  0.16295363704E+02  0.16444259065E+01 -0.22476483449E+01  0.16531634467E+02  0.51100000000E-03 0.  1.
         22    1    1    0    0    0 -0.61614448074E+02 -0.61499988374E+01  0.84903754889E+01  0.62499993384E+02  0.00000000000E+00 0.  1.
</event>
<event>
 4    1  0.1956390E-002  0.9118800E+02  0.7818608E-02  0.1130116E+00
         25   -1    0    0    0    0  0.00000000000E+00  0.00000000000E+00  0.99999998245E-14  0.12500000000E+03  0.12500000000E+03 0.  0.
        -11    1    1    0    0    0  0.54006565610E+02  0.15105507508E+01  0.28543432207E+01  0.54103032891E+02  0.51100000000E-03 0. -1.
         11    1    1    0    0    0  0.83814976097E+01  0.24191590965E+00  0.44840600617E+00  0.83969693162E+01  0.51100000000E-03 0.  1.
         22    1    1    0    0    0 -0.62388063219E+02 -0.17524666604E+01 -0.33027492269E+01  0.62499997793E+02  0.00000000000E+00 0. -1.
</event>
<event>
 4    1  0.1956390E-002  0.9118800E+02  0.7818608E-02  0.1130116E+00
         25   -1    0    0    0    0  0.00000000000E+00  0.00000000000E+00  0.99999998245E-14  0.12500000000E+03  0.12500000000E+03 0.  0.
        -11    1    1    0    0    0  0.22099198263E+02 -0.25007774531E+01 -0.28802055270E+02  0.36389378118E+02  0.51100000000E-03 0.  1.
         11    1    1    0    0    0  0.15856635160E+02 -0.17939762394E+01 -0.20666720731E+02  0.26110621888E+02  0.51100000000E-03 0.  1.
         22    1    1    0    0    0 -0.37955833424E+02  0.42947536925E+01  0.49468776001E+02  0.62499999994E+02  0.00000000000E+00 0.  1.
</event>
<event>
 4    1  0.1956390E-002  0.9118800E+02  0.7818608E-02  0.1130116E+00
         25   -1    0    0    0    0  0.00000000000E+00  0.00000000000E+00  0.99999998245E-14  0.12500000000E+03  0.12500000000E+03 0.  0.
        -11    1    1    0    0    0  0.23841539625E+00  0.15837045065E+00 -0.18811344465E+00  0.34250551819E+00  0.51100000000E-03 0.  1.
         11    1    1    0    0    0  0.13299080461E+02  0.22826357858E+02 -0.56298749606E+02  0.62188884550E+02  0.51100000000E-03 0. -1.
         22    1    1    0    0    0 -0.13537495857E+02 -0.22984728309E+02  0.56486863050E+02  0.62468609932E+02  0.00000000000E+00 0. -1.
</event>
<event>
 4    1  0.1956390E-002  0.9118800E+02  0.7818608E-02  0.1130116E+00
         25   -1    0    0    0    0  0.00000000000E+00  0.00000000000E+00  0.99999998245E-14  0.12500000000E+03  0.12500000000E+03 0.  0.
        -11    1    1    0    0    0 -0.99397005427E+01 -0.70757800330E+01 -0.35135821541E+01  0.12696833061E+02  0.51100000000E-03 0.  1.
         11    1    1    0    0    0 -0.39022201871E+02 -0.27733710803E+02 -0.13728253275E+02  0.49803171506E+02  0.51100000000E-03 0. -1.
         22    1    1    0    0    0  0.48961902414E+02  0.34809490836E+02  0.17241835429E+02  0.62499995434E+02  0.00000000000E+00 0. -1.
</event>
<event>
 4    1  0.1956390E-002  0.9118800E+02  0.7818608E-02  0.1130116E+00
         25   -1    0    0    0    0  0.00000000000E+00  0.00000000000E+00  0.99999998245E-14  0.12500000000E+03  0.12500000000E+03 0.  0.
        -11    1    1    0    0    0  0.47738278829E+01 -0.14537830250E+02 -0.26947542863E+01  0.15537040966E+02  0.51100000000E-03 0.  1.
         11    1    1    0    0    0  0.16435657120E+02 -0.43902668324E+02 -0.33603268643E+01  0.46998584104E+02  0.51100000000E-03 0. -1.
         22    1    1    0    0    0 -0.21209485003E+02  0.58440498574E+02  0.60550811507E+01  0.62464374930E+02  0.00000000000E+00 0. -1.
</event>
<event>
 4    1  0.1956390E-002  0.9118800E+02  0.7818608E-02  0.1130116E+00
         25   -1    0    0    0    0  0.00000000000E+00  0.00000000000E+00  0.99999998245E-14  0.12500000000E+03  0.12500000000E+03 0.  0.
        -11    1    1    0    0    0  0.10147203279E+02 -0.30127111460E+02 -0.33636480349E+02  0.46281976944E+02  0.51100000000E-03 0. -1.
         11    1    1    0    0    0  0.10436158932E+02 -0.85469671979E+00 -0.14499580962E+02  0.17885238832E+02  0.51100000000E-03 0.  1.
         22    1    1    0    0    0 -0.20583362211E+02  0.30981808179E+02  0.48136061311E+02  0.60832784225E+02  0.00000000000E+00 0. -1.
</event>
<event>
 4    1  0.1956390E-002  0.9118800E+02  0.7818608E-02  0.1130116E+00
         25   -1    0    0    0    0  0.00000000000E+00  0.00000000000E+00  0.99999998245E-14  0.12500000000E+03  0.12500000000E+03 0.  0.
        -11    1    1    0    0    0  0.26010873474E+02  0.10031778705E+02  0.36676002219E+02  0.46068766664E+02  0.51100000000E-03 0.  1.
         11    1    1    0    0    0  0.92769032524E+01  0.35759726169E+01  0.13081930918E+02  0.16431233396E+02  0.51100000000E-03 0. -1.
         22    1    1    0    0    0 -0.35287776727E+02 -0.13607751322E+02 -0.49757933138E+02  0.62499999940E+02  0.00000000000E+00 0.  1.
</event>
<event>
 4    1  0.1956390E-002  0.9118800E+02  0.7818608E-02  0.1130116E+00
         25   -1    0    0    0    0  0.00000000000E+00  0.00000000000E+00  0.99999998245E-14  0.12500000000E+03  0.12500000000E+03 0.  0.
        -11    1    1    0    0    0  0.17915286263E+02 -0.10403729230E+02 -0.22867307732E+01  0.20842845335E+02  0.51100000000E-03 0. -1.
         11    1    1    0    0    0  0.35812207316E+02 -0.20783390624E+02 -0.45667319704E+01  0.41657154965E+02  0.51100000000E-03 0.  1.
         22    1    1    0    0    0 -0.53727493578E+02  0.31187119853E+02  0.68534627436E+01  0.62499999700E+02  0.00000000000E+00 0.  1.
</event>
<event>
 4    1  0.1956390E-002  0.9118800E+02  0.7818608E-02  0.1130116E+00
         25   -1    0    0    0    0  0.00000000000E+00  0.00000000000E+00  0.99999998245E-14  0.12500000000E+03  0.12500000000E+03 0.  0.
        -11    1    1    0    0    0 -0.23606812330E+02 -0.34830342524E+01  0.49988942919E+02  0.55392305697E+02  0.51100000000E-03 0. -1.
         11    1    1    0    0    0 -0.34428855382E+01 -0.85659845028E+00  0.61731835329E+01  0.71200714130E+01  0.51100000000E-03 0.  1.
         22    1    1    0    0    0  0.27049697869E+02  0.43396327027E+01 -0.56162126452E+02  0.62487622890E+02  0.00000000000E+00 0. -1.
</event>
<event>
 4    1  0.1956390E-002  0.9118800E+02  0.7818608E-02  0.1130116E+00
         25   -1    0    0    0    0  0.00000000000E+00  0.00000000000E+00  0.99999998245E-14  0.12500000000E+03  0.12500000000E+03 0.  0.
        -11    1    1    0    0    0  0.15435192278E+02  0.45964737927E+02  0.36068937619E+02  0.60431536093E+02  0.51100000000E-03 0. -1.
         11    1    1    0    0    0  0.50694624627E+00  0.15815497354E+01  0.12330870350E+01  0.20685255520E+01  0.51100000000E-03 0.  1.
         22    1    1    0    0    0 -0.15942138524E+02 -0.47546287662E+02 -0.37302024654E+02  0.62499938355E+02  0.00000000000E+00 0. -1.
</event>
<event>
 4    1  0.1956390E-002  0.9118800E+02  0.7818608E-02  0.1130116E+00
         25   -1    0    0    0    0  0.00000000000E+00  0.00000000000E+00  0.99999998245E-14  0.12500000000E+03  0.12500000000E+03 0.  0.
        -11    1    1    0    0    0  0.25457060756E+02 -0.43010846525E+02 -0.33834890161E+02  0.60355568538E+02  0.51100000000E-03 0. -1.
         11    1    1    0    0    0  0.36884943100E+00 -0.19678903659E+01 -0.92749871900E+00  0.22065576199E+01  0.51100000000E-03 0.  1.
         22    1    1    0    0    0 -0.25825910187E+02  0.44978736891E+02  0.34762388880E+02  0.62437873842E+02  0.00000000000E+00 0. -1.
</event>
<event>
 4    1  0.1956390E-002  0.9118800E+02  0.7818608E-02  0.1130116E+00
         25   -1    0    0    0    0  0.00000000000E+00  0.00000000000E+00  0.99999998245E-14  0.12500000000E+03  0.12500000000E+03 0.  0.
        -11    1    1    0    0    0  0.49876100115E+01 -0.21580131410E+01 -0.10138740272E+01  0.55282198896E+01  0.51100000000E-03 0.  1.
         11    1    1    0    0    0  0.51550801880E+02 -0.23834030515E+02 -0.46719335368E+01  0.56985727584E+02  0.51100000000E-03 0. -1.
         22    1    1    0    0    0 -0.56538411892E+02  0.25992043656E+02  0.56858075639E+01  0.62486052526E+02  0.00000000000E+00 0. -1.
</event>
<event>
 4    1  0.1956390E-002  0.9118800E+02  0.7818608E-02  0.1130116E+00
         25   -1    0    0    0    0  0.00000000000E+00  0.00000000000E+00  0.99999998245E-14  0.12500000000E+03  0.12500000000E+03 0.  0.
        -11    1    1    0    0    0  0.13325487895E+02  0.15036347153E+02 -0.98426095536E+01  0.22372691533E+02  0.51100000000E-03 0. -1.
         11    1    1    0    0    0  0.26236145027E+02  0.30490745813E+02 -0.49423275331E+01  0.40527120399E+02  0.51100000000E-03 0.  1.
         22    1    1    0    0    0 -0.39561632922E+02 -0.45527092966E+02  0.14784937087E+02  0.62100188068E+02  0.00000000000E+00 0.  1.
</event>
<event>
 4    1  0.1956390E-002  0.9118800E+02  0.7818608E-02  0.1130116E+00
         25   -1    0    0    0    0  0.00000000000E+00  0.00000000000E+00  0.99999998245E-14  0.12500000000E+03  0.12500000000E+03 0.  0.
        -11    1    1    0    0    0  0.44106051695E+02  0.12243448471E+01  0.26460259722E+02  0.51448888824E+02  0.51100000000E-03 0.  1.
         11    1    1    0    0    0  0.10054645538E+02  0.65727993440E+00  0.46124558668E+01  0.11081636305E+02  0.51100000000E-03 0. -1.
         22    1    1    0    0    0 -0.54160697233E+02 -0.18816247815E+01 -0.31072715589E+02  0.62469474871E+02  0.00000000000E+00 0. -1.
</event>
<event>
 4    1  0.1956390E-002  0.9118800E+02  0.7818608E-02  0.1130116E+00
         25   -1    0    0    0    0  0.00000000000E+00  0.00000000000E+00  0.99999998245E-14  0.12500000000E+03  0.12500000000E+03 0.  0.
        -11    1    1    0    0    0 -0.17015522471E+02 -0.14519371973E+02  0.60030221317E+01  0.23159802296E+02  0.51100000000E-03 0.  1.
         11    1    1    0    0    0 -0.32360968871E+02 -0.20791658925E+02  0.85794365491E+01  0.39409797245E+02  0.51100000000E-03 0. -1.
         22    1    1    0    0    0  0.49376491342E+02  0.35311030898E+02 -0.14582458681E+02  0.62430400459E+02  0.00000000000E+00 0. -1.
</event>
<event>
 4    1  0.1956390E-002  0.9118800E+02  0.7818608E-02  0.1130116E+00
         25   -1    0    0    0    0  0.00000000000E+00  0.00000000000E+00  0.99999998245E-14  0.12500000000E+03  0.12500000000E+03 0.  0.
        -11    1    1    0    0    0  0.40350104595E+01  0.17868430477E+02  0.54937723017E+01  0.19124425521E+02  0.51100000000E-03 0.  1.
         11    1    1    0    0    0  0.39802651654E+02  0.21061562128E+02 -0.12745287880E+02  0.46800457704E+02  0.51100000000E-03 0. -1.
         22    1    1    0    0    0 -0.43837662113E+02 -0.38929992605E+02  0.72515155782E+01  0.59075116775E+02  0.00000000000E+00 0. -1.
</event>
<event>
 4    1  0.1956390E-002  0.9118800E+02  0.7818608E-02  0.1130116E+00
         25   -1    0    0    0    0  0.00000000000E+00  0.00000000000E+00  0.99999998245E-14  0.12500000000E+03  0.12500000000E+03 0.  0.
        -11    1    1    0    0    0  0.54131675836E+01 -0.52206627805E+01  0.15975528156E+02  0.17657157282E+02  0.51100000000E-03 0. -1.
         11    1    1    0    0    0  0.22189650243E+02 -0.10180925565E+01  0.39357455140E+02  0.45193211500E+02  0.51100000000E-03 0.  1.
         22    1    1    0    0    0 -0.27602817827E+02  0.62387553370E+01 -0.55332983296E+02  0.62149631218E+02  0.00000000000E+00 0.  1.
</event>
<event>
 4    1  0.1956390E-002  0.9118800E+02  0.7818608E-02  0.1130116E+00
         25   -1    0    0    0    0  0.00000000000E+00  0.00000000000E+00  0.99999998245E-14  0.12500000000E+03  0.12500000000E+03 0.  0.
        -11    1    1    0    0    0 -0.33529248760E+02  0.91001384784E+01 -0.11337077349E+02  0.36545209889E+02  0.51100000000E-03 0. -1.
         11    1    1    0    0    0 -0.23814184047E+02  0.64586634282E+01 -0.80511763559E+01  0.25954790234E+02  0.51100000000E-03 0.  1.
         22    1    1    0    0    0  0.57343432807E+02 -0.15558801907E+02  0.19388253705E+02  0.62499999877E+02  0.00000000000E+00 0. -1.
</event>
<event>
 4    1  0.1956390E-002  0.9118800E+02  0.7818608E-02  0.1130116E+00
         25   -1    0    0    0    0  0.00000000000E+00  0.00000000000E+00  0.99999998245E-14  0.12500000000E+03  0.12500000000E+03 0.  0.
        -11    1    1    0    0    0 -0.10033705406E+02  0.13615263004E+02  0.12808032886E+02  0.21215474011E+02  0.51100000000E-03 0. -1.
         11    1    1    0    0    0 -0.19831389941E+02  0.26556407088E+02  0.24615401988E+02  0.41284922183E+02  0.51100000000E-03 0.  1.
         22    1    1    0    0    0  0.29865095346E+02 -0.40171670092E+02 -0.37423434874E+02  0.62499603805E+02  0.00000000000E+00 0.  1.
</event>
<event>
 4    1  0.1956390E-002  0.9118800E+02  0.7818608E-02  0.1130116E+00
         25   -1    0    0    0    0  0.00000000000E+00  0.00000000000E+00  0.99999998245E-14  0.12500000000E+03  0.12500000000E+03 0.  0.
        -11    1    1    0    0    0  0.42497612225E+01  0.17677841206E+02 -0.20126804747E+01  0.18292551028E+02  0.51100000000E-03 0.  1.
         11    1    1    0    0    0  0.13471304790E+01  0.43955446566E+02 -0.56915072087E+01  0.44342860732E+02  0.51100000000E-03 0. -1.
         22    1    1    0    0    0 -0.55968917014E+01 -0.61633287773E+02  0.77041876834E+01  0.62364588239E+02  0.00000000000E+00 0. -1.
</event>
<event>
 4    1  0.1956390E-002  0.9118800E+02  0.7818608E-02  0.1130116E+00
         25   -1    0    0    0    0  0.00000000000E+00  0.00000000000E+00  0.99999998245E-14  0.12500000000E+03  0.12500000000E+03 0.  0.
        -11    1    1    0    0    0 -0.25195044419E+01  0.64877613243E-01 -0.30845303414E+01  0.39832699414E+01  0.51100000000E-03 0. -1.
         11    1    1    0    0    0 -0.19519256167E+02 -0.11433229884E+02 -0.54126001217E+02  0.58662970559E+02  0.51100000000E-03 0.  1.
         22    1    1    0    0    0  0.22038760609E+02  0.11368352271E+02  0.57210531558E+02  0.62353759499E+02  0.00000000000E+00 0.  1.
</event>
<event>
 4    1  0.1956390E-002  0.9118800E+02  0.7818608E-02  0.1130116E+00
         25   -1    0    0    0    0  0.00000000000E+00  0.00000000000E+00  0.99999998245E-14  0.12500000000E+03  0.12500000000E+03 0.  0.
        -11    1    1    0    0    0  0.28989344428E+00 -0.10261410425E+01 -0.41082419754E+02  0.41096255508E+02  0.51100000000E-03 0. -1.
         11    1    1    0    0    0 -0.35661883474E+02 -0.46284887287E+01  0.12482182905E+02  0.38065702820E+02  0.51100000000E-03 0.  1.
         22    1    1    0    0    0  0.35371990030E+02  0.56546297712E+01  0.28600236849E+02  0.45838041672E+02  0.00000000000E+00 0.  1.
</event>
<event>
 4    1  0.1956390E-002  0.9118800E+02  0.7818608E-02  0.1130116E+00
         25   -1    0    0    0    0  0.00000000000E+00  0.00000000000E+00  0.99999998245E-14  0.12500000000E+03  0.12500000000E+03 0.  0.
        -11    1    1    0    0    0  0.26640394077E+02 -0.32254162495E+02  0.33801856688E+01  0.41969837387E+02  0.51100000000E-03 0.  1.
         11    1    1    0    0    0  0.12993001885E+02 -0.15813097808E+02  0.16176431410E+01  0.20530195563E+02  0.51100000000E-03 0. -1.
         22    1    1    0    0    0 -0.39633395962E+02  0.48067260303E+02 -0.49978288097E+01  0.62499967050E+02  0.00000000000E+00 0.  1.
</event>
<event>
 4    1  0.1956390E-002  0.9118800E+02  0.7818608E-02  0.1130116E+00
         25   -1    0    0    0    0  0.00000000000E+00  0.00000000000E+00  0.99999998245E-14  0.12500000000E+03  0.12500000000E+03 0.  0.
        -11    1    1    0    0    0 -0.16017739165E+01 -0.84760539854E+01 -0.26099188663E+01  0.90122609590E+01  0.51100000000E-03 0.  1.
         11    1    1    0    0    0 -0.47983253016E+02 -0.12355054001E+01 -0.29293033360E+02  0.56231671212E+02  0.51100000000E-03 0. -1.
         22    1    1    0    0    0  0.49585026933E+02  0.97115593855E+01  0.31902952227E+02  0.59756067829E+02  0.00000000000E+00 0. -1.
</event>
<event>
 4    1  0.1956390E-002  0.9118800E+02  0.7818608E-02  0.1130116E+00
         25   -1    0    0    0    0  0.00000000000E+00  0.00000000000E+00  0.99999998245E-14  0.12500000000E+03  0.12500000000E+03 0.  0.
        -11    1    1    0    0    0  0.58593998336E+00 -0.13612582410E+02 -0.34420707468E+01  0.14053240794E+02  0.51100000000E-03 0.  1.
         11    1    1    0    0    0  0.29249320371E+00 -0.46632821662E+02 -0.13149653346E+02  0.48452234126E+02  0.51100000000E-03 0. -1.
         22    1    1    0    0    0 -0.87843318707E+00  0.60245404071E+02  0.16591724093E+02  0.62494525080E+02  0.00000000000E+00 0. -1.
</event>
<event>
 4    1  0.1956390E-002  0.9118800E+02  0.7818608E-02  0.1130116E+00
         25   -1    0    0    0    0  0.00000000000E+00  0.00000000000E+00  0.99999998245E-14  0.12500000000E+03  0.12500000000E+03 0.  0.
        -11    1    1    0    0    0  0.13222120325E+01 -0.98950348009E+00 -0.52980713942E+00  0.17343752945E+01  0.51100000000E-03 0. -1.
         11    1    1    0    0    0  0.46331814146E+02 -0.34788253477E+02 -0.18319459247E+02  0.60765633128E+02  0.51100000000E-03 0.  1.
         22    1    1    0    0    0 -0.47654026179E+02  0.35777756957E+02  0.18849266387E+02  0.62499991578E+02  0.00000000000E+00 0.  1.
</event>
<event>
 4    1  0.1956390E-002  0.9118800E+02  0.7818608E-02  0.1130116E+00
         25   -1    0    0    0    0  0.00000000000E+00  0.00000000000E+00  0.99999998245E-14  0.12500000000E+03  0.12500000000E+03 0.  0.
        -11    1    1    0    0    0 -0.35275122114E+00  0.31081853888E+01  0.43978245715E-01  0.31284475675E+01  0.51100000000E-03 0.  1.
         11    1    1    0    0    0 -0.67047055739E+01  0.58986291966E+02  0.80346171298E+00  0.59371552681E+02  0.51100000000E-03 0. -1.
         22    1    1    0    0    0  0.70574567951E+01 -0.62094477355E+02 -0.84743995869E+00  0.62499999751E+02  0.00000000000E+00 0. -1.
</event>
<event>
 4    1  0.1956390E-002  0.9118800E+02  0.7818608E-02  0.1130116E+00
         25   -1    0    0    0    0  0.00000000000E+00  0.00000000000E+00  0.99999998245E-14  0.12500000000E+03  0.12500000000E+03 0.  0.
        -11    1    1    0    0    0  0.39421444421E+02  0.97041148132E+00 -0.24599159351E+02  0.46476990218E+02  0.51100000000E-03 0. -1.
         11    1    1    0    0    0  0.13528112254E+02  0.28480769145E+00 -0.85820805805E+01  0.16023203298E+02  0.51100000000E-03 0.  1.
         22    1    1    0    0    0 -0.52949556675E+02 -0.12552191728E+01  0.33181239931E+02  0.62499806484E+02  0.00000000000E+00 0. -1.
</event>
<event>
 4    1  0.1956390E-002  0.9118800E+02  0.7818608E-02  0.1130116E+00
         25   -1    0    0    0    0  0.00000000000E+00  0.00000000000E+00  0.99999998245E-14  0.12500000000E+03  0.12500000000E+03 0.  0.
        -11    1    1    0    0    0  0.51119162767E+01 -0.81283547871E+01 -0.44378703864E+01  0.10578115777E+02  0.51100000000E-03 0.  1.
         11    1    1    0    0    0  0.25260542924E+02 -0.40176794863E+02 -0.21063357579E+02  0.51922393118E+02  0.51100000000E-03 0. -1.
         22    1    1    0    0    0 -0.30372459201E+02  0.48305149650E+02  0.25501227965E+02  0.62499491105E+02  0.00000000000E+00 0. -1.
</event>
<event>
 4    1  0.1956390E-002  0.9118800E+02  0.7818608E-02  0.1130116E+00
         25   -1    0    0    0    0  0.00000000000E+00  0.00000000000E+00  0.99999998245E-14  0.12500000000E+03  0.12500000000E+03 0.  0.
        -11    1    1    0    0    0  0.27986795811E+01 -0.23799323982E+01 -0.42227449734E+02  0.42386957864E+02  0.51100000000E-03 0. -1.
         11    1    1    0    0    0  0.74922057508E+00 -0.13131528997E+01 -0.20059261845E+02  0.20116154902E+02  0.51100000000E-03 0.  1.
         22    1    1    0    0    0 -0.35479001561E+01  0.36930852979E+01  0.62286711580E+02  0.62496887234E+02  0.00000000000E+00 0. -1.
</event>
<event>
 4    1  0.1956390E-002  0.9118800E+02  0.7818608E-02  0.1130116E+00
         25   -1    0    0    0    0  0.00000000000E+00  0.00000000000E+00  0.99999998245E-14  0.12500000000E+03  0.12500000000E+03 0.  0.
        -11    1    1    0    0    0  0.10502684755E+02 -0.40262901238E+02 -0.30538550602E+01  0.41722100069E+02  0.51100000000E-03 0. -1.
         11    1    1    0    0    0  0.52361550174E+01 -0.20049836698E+02 -0.15191665780E+01  0.20777900239E+02  0.51100000000E-03 0.  1.
         22    1    1    0    0    0 -0.15738839773E+02  0.60312737936E+02  0.45730216382E+01  0.62499999693E+02  0.00000000000E+00 0. -1.
</event>
<event>
 4    1  0.1956390E-002  0.9118800E+02  0.7818608E-02  0.1130116E+00
         25   -1    0    0    0    0  0.00000000000E+00  0.00000000000E+00  0.99999998245E-14  0.12500000000E+03  0.12500000000E+03 0.  0.
        -11    1    1    0    0    0  0.18939644348E+02  0.76329159320E+01 -0.18036147029E+02  0.27244708359E+02  0.51100000000E-03 0.  1.
         11    1    1    0    0    0  0.24507325102E+02  0.98818023174E+01 -0.23338307418E+02  0.35255291717E+02  0.51100000000E-03 0.  1.
         22    1    1    0    0    0 -0.43446969450E+02 -0.17514718249E+02  0.41374454447E+02  0.62499999924E+02  0.00000000000E+00 0.  1.
</event>
<event>
 4    1  0.1956390E-002  0.9118800E+02  0.7818608E-02  0.1130116E+00
         25   -1    0    0    0    0  0.00000000000E+00  0.00000000000E+00  0.99999998245E-14  0.12500000000E+03  0.12500000000E+03 0.  0.
        -11    1    1    0    0    0 -0.11090633198E+01  0.53773214371E+00 -0.14425468974E+01  0.18973979862E+01  0.51100000000E-03 0.  1.
         11    1    1    0    0    0 -0.35637656439E+02  0.17279129415E+02 -0.45870099220E+02  0.60602614403E+02  0.51100000000E-03 0. -1.
         22    1    1    0    0    0  0.36746719758E+02 -0.17816861559E+02  0.47312646117E+02  0.62499987611E+02  0.00000000000E+00 0. -1.
</event>
<event>
 4    1  0.1956390E-002  0.9118800E+02  0.7818608E-02  0.1130116E+00
         25   -1    0    0    0    0  0.00000000000E+00  0.00000000000E+00  0.99999998245E-14  0.12500000000E+03  0.12500000000E+03 0.  0.
        -11    1    1    0    0    0  0.77078841530E+00  0.36609982058E+01  0.27940352163E+01  0.46694384775E+01  0.51100000000E-03 0.  1.
         11    1    1    0    0    0 -0.61337510307E+01  0.20910583816E+02  0.53992312057E+02  0.58224094486E+02  0.51100000000E-03 0. -1.
         22    1    1    0    0    0  0.53629626154E+01 -0.24571582022E+02 -0.56786347273E+02  0.62106467036E+02  0.00000000000E+00 0.  1.
</event>
<event>
 4    1  0.1956390E-002  0.9118800E+02  0.7818608E-02  0.1130116E+00
         25   -1    0    0    0    0  0.00000000000E+00  0.00000000000E+00  0.99999998245E-14  0.12500000000E+03  0.12500000000E+03 0.  0.
        -11    1    1    0    0    0 -0.19174819244E+02 -0.37618805724E+02  0.43219670935E+02  0.60421752649E+02  0.51100000000E-03 0. -1.
         11    1    1    0    0    0 -0.46639573023E+00 -0.12730891129E+01  0.15822489402E+01  0.20836969157E+01  0.51100000000E-03 0.  1.
         22    1    1    0    0    0  0.19641214974E+02  0.38891894837E+02 -0.44801919875E+02  0.62494550436E+02  0.00000000000E+00 0. -1.
</event>
<event>
 4    1  0.1956390E-002  0.9118800E+02  0.7818608E-02  0.1130116E+00
         25   -1    0    0    0    0  0.00000000000E+00  0.00000000000E+00  0.99999998245E-14  0.12500000000E+03  0.12500000000E+03 0.  0.
        -11    1    1    0    0    0 -0.17040004859E+00  0.10276611726E+01  0.14419918860E+01  0.17788941853E+01  0.51100000000E-03 0.  1.
         11    1    1    0    0    0 -0.44445143229E+01  0.36507337197E+02  0.48317499806E+02  0.60721661411E+02  0.51100000000E-03 0. -1.
         22    1    1    0    0    0  0.46149143715E+01 -0.37534998370E+02 -0.49759491692E+02  0.62499444403E+02  0.00000000000E+00 0. -1.
</event>
<event>
 4    1  0.1956390E-002  0.9118800E+02  0.7818608E-02  0.1130116E+00
         25   -1    0    0    0    0  0.00000000000E+00  0.00000000000E+00  0.99999998245E-14  0.12500000000E+03  0.12500000000E+03 0.  0.
        -11    1    1    0    0    0  0.14783878882E+02  0.50772266475E+02 -0.13700194528E+02  0.54626746638E+02  0.51100000000E-03 0. -1.
         11    1    1    0    0    0  0.21494723540E+01  0.73130645395E+01 -0.19715831764E+01  0.78732639255E+01  0.51100000000E-03 0.  1.
         22    1    1    0    0    0 -0.16933351235E+02 -0.58085331015E+02  0.15671777705E+02  0.62499989437E+02  0.00000000000E+00 0. -1.
</event>
<event>
 4    1  0.1956390E-002  0.9118800E+02  0.7818608E-02  0.1130116E+00
         25   -1    0    0    0    0  0.00000000000E+00  0.00000000000E+00  0.99999998245E-14  0.12500000000E+03  0.12500000000E+03 0.  0.
        -11    1    1    0    0    0 -0.19988095436E-01  0.32773684966E+00  0.44304456881E-01  0.33132176597E+00  0.51100000000E-03 0.  1.
         11    1    1    0    0    0 -0.39152723607E+02  0.46010964278E+02  0.14801019894E+02  0.62201405047E+02  0.51100000000E-03 0. -1.
         22    1    1    0    0    0  0.39172711702E+02 -0.46338701128E+02 -0.14845324351E+02  0.62467273187E+02  0.00000000000E+00 0. -1.
</event>
<event>
 4    1  0.1956390E-002  0.9118800E+02  0.7818608E-02  0.1130116E+00
         25   -1    0    0    0    0  0.00000000000E+00  0.00000000000E+00  0.99999998245E-14  0.12500000000E+03  0.12500000000E+03 0.  0.
        -11    1    1    0    0    0 -0.29951664252E+01 -0.57036201536E+01  0.14735982627E+01  0.66086153521E+01  0.51100000000E-03 0. -1.
         11    1    1    0    0    0 -0.25305909100E+02 -0.48246409819E+02  0.12479656890E+02  0.55891385134E+02  0.51100000000E-03 0.  1.
         22    1    1    0    0    0  0.28301075525E+02  0.53950029972E+02 -0.13953255153E+02  0.62499999514E+02  0.00000000000E+00 0.  1.
</event>
<event>
 4    1  0.1956390E-002  0.9118800E+02  0.7818608E-02  0.1130116E+00
         25   -1    0    0    0    0  0.00000000000E+00  0.00000000000E+00  0.99999998245E-14  0.12500000000E+03  0.12500000000E+03 0.  0.
        -11    1    1    0    0    0  0.59381477345E+01  0.58022190445E+02 -0.14240683745E+01  0.58342644383E+02  0.51100000000E-03 0. -1.
         11    1    1    0    0    0  0.50754294830E+01  0.20180927588E+01  0.13028357098E+01  0.56151637525E+01  0.51100000000E-03 0.  1.
         22    1    1    0    0    0 -0.11013577217E+02 -0.60040283204E+02  0.12123266467E+00  0.61042191865E+02  0.00000000000E+00 0. -1.
</event>
<event>
 4    1  0.1956390E-002  0.9118800E+02  0.7818608E-02  0.1130116E+00
         25   -1    0    0    0    0  0.00000000000E+00  0.00000000000E+00  0.99999998245E-14  0.12500000000E+03  0.12500000000E+03 0.  0.
        -11    1    1    0    0    0 -0.23471523644E+01  0.17132048721E+02 -0.21459744643E+02  0.27559696261E+02  0.51100000000E-03 0.  1.
         11    1    1    0    0    0 -0.29977608943E+01  0.21648403407E+02 -0.27261452353E+02  0.34940330925E+02  0.51100000000E-03 0. -1.
         22    1    1    0    0    0  0.53449132586E+01 -0.38780452128E+02  0.48721196996E+02  0.62499972814E+02  0.00000000000E+00 0. -1.
</event>
<event>
 4    1  0.1956390E-002  0.9118800E+02  0.7818608E-02  0.1130116E+00
         25   -1    0    0    0    0  0.00000000000E+00  0.00000000000E+00  0.99999998245E-14  0.12500000000E+03  0.12500000000E+03 0.  0.
        -11    1    1    0    0    0  0.13822041050E+02 -0.47487431839E+01  0.98323442824E+01  0.17614606864E+02  0.51100000000E-03 0.  1.
         11    1    1    0    0    0  0.38730945356E+02 -0.78894154604E+01  0.21412105067E+02  0.44953389730E+02  0.51100000000E-03 0. -1.
         22    1    1    0    0    0 -0.52552986407E+02  0.12638158644E+02 -0.31244449350E+02  0.62432003406E+02  0.00000000000E+00 0. -1.
</event>
<event>
 4    1  0.1956390E-002  0.9118800E+02  0.7818608E-02  0.1130116E+00
         25   -1    0    0    0    0  0.00000000000E+00  0.00000000000E+00  0.99999998245E-14  0.12500000000E+03  0.12500000000E+03 0.  0.
        -11    1    1    0    0    0 -0.15104599637E+02  0.26466640639E+02 -0.48782141921E+02  0.57518078615E+02  0.51100000000E-03 0.  1.
         11    1    1    0    0    0 -0.17928534262E+01  0.22849264709E+01 -0.40625920319E+01  0.49939830460E+01  0.51100000000E-03 0. -1.
         22    1    1    0    0    0  0.16897453063E+02 -0.28751567110E+02  0.52844733953E+02  0.62487938339E+02  0.00000000000E+00 0.  1.
</event>
<event>
 4    1  0.1956390E-002  0.9118800E+02  0.7818608E-02  0.1130116E+00
         25   -1    0    0    0    0  0.00000000000E+00  0.00000000000E+00  0.99999998245E-14  0.12500000000E+03  0.12500000000E+03 0.  0.
        -11    1    1    0    0    0 -0.31741288466E+01  0.10745900486E+02  0.13615307723E+02  0.17633096037E+02  0.51100000000E-03 0.  1.
         11    1    1    0    0    0 -0.79458569920E+01  0.27129842512E+02  0.34840900537E+02  0.44867063070E+02  0.51100000000E-03 0. -1.
         22    1    1    0    0    0  0.11119985839E+02 -0.37875742998E+02 -0.48456208260E+02  0.62499840893E+02  0.00000000000E+00 0. -1.
</event>
<event>
 4    1  0.1956390E-002  0.9118800E+02  0.7818608E-02  0.1130116E+00
         25   -1    0    0    0    0  0.00000000000E+00  0.00000000000E+00  0.99999998245E-14  0.12500000000E+03  0.12500000000E+03 0.  0.
        -11    1    1    0    0    0  0.56771191522E+00 -0.84461459215E+00 -0.22209841001E+01  0.24430393492E+01  0.51100000000E-03 0. -1.
         11    1    1    0    0    0  0.17773887836E+02 -0.20917407329E+02 -0.53420052334E+02  0.60059562185E+02  0.51100000000E-03 0.  1.
         22    1    1    0    0    0 -0.18341599752E+02  0.21762021922E+02  0.55641036434E+02  0.62497398466E+02  0.00000000000E+00 0.  1.
</event>
<event>
 4    1  0.1956390E-002  0.9118800E+02  0.7818608E-02  0.1130116E+00
         25   -1    0    0    0    0  0.00000000000E+00  0.00000000000E+00  0.99999998245E-14  0.12500000000E+03  0.12500000000E+03 0.  0.
        -11    1    1    0    0    0  0.45369578858E+02 -0.17441777624E+02 -0.18686261265E+02  0.52074856243E+02  0.51100000000E-03 0.  1.
         11    1    1    0    0    0  0.82142622825E+01 -0.50017829555E+01 -0.41882760354E+01  0.10489689890E+02  0.51100000000E-03 0. -1.
         22    1    1    0    0    0 -0.53583841140E+02  0.22443560580E+02  0.22874537300E+02  0.62435453867E+02  0.00000000000E+00 0.  1.
</event>
<event>
 4    1  0.1956390E-002  0.9118800E+02  0.7818608E-02  0.1130116E+00
         25   -1    0    0    0    0  0.00000000000E+00  0.00000000000E+00  0.99999998245E-14  0.12500000000E+03  0.12500000000E+03 0.  0.
        -11    1    1    0    0    0 -0.86252164749E+01 -0.59421294233E+01 -0.90334268995E+01  0.13831343504E+02  0.51100000000E-03 0.  1.
         11    1    1    0    0    0 -0.30445450529E+02 -0.20830706396E+02 -0.31745806102E+02  0.48668675678E+02  0.51100000000E-03 0. -1.
         22    1    1    0    0    0  0.39070667004E+02  0.26772835820E+02  0.40779233002E+02  0.62499980818E+02  0.00000000000E+00 0. -1.
</event>
<event>
 4    1  0.1956390E-002  0.9118800E+02  0.7818608E-02  0.1130116E+00
         25   -1    0    0    0    0  0.00000000000E+00  0.00000000000E+00  0.99999998245E-14  0.12500000000E+03  0.12500000000E+03 0.  0.
        -11    1    1    0    0    0  0.10304623833E+02 -0.80735874680E+01  0.14514413964E+02  0.19545748896E+02  0.51100000000E-03 0.  1.
         11    1    1    0    0    0  0.21355374451E+02 -0.18132193685E+02  0.32566752779E+02  0.42958373487E+02  0.51100000000E-03 0. -1.
         22    1    1    0    0    0 -0.31659998284E+02  0.26205781153E+02 -0.47081166743E+02  0.62495877617E+02  0.00000000000E+00 0.  1.
</event>
<event>
 4    1  0.1956390E-002  0.9118800E+02  0.7818608E-02  0.1130116E+00
         25   -1    0    0    0    0  0.00000000000E+00  0.00000000000E+00  0.99999998245E-14  0.12500000000E+03  0.12500000000E+03 0.  0.
        -11    1    1    0    0    0 -0.25877849890E+02  0.61109587110E+01 -0.39580106300E+01  0.26882573904E+02  0.51100000000E-03 0.  1.
         11    1    1    0    0    0 -0.34313130587E+02  0.80049610037E+01 -0.52089285124E+01  0.35617457347E+02  0.51100000000E-03 0. -1.
         22    1    1    0    0    0  0.60190980478E+02 -0.14115919715E+02  0.91669391424E+01  0.62499968748E+02  0.00000000000E+00 0.  1.
</event>
<event>
 4    1  0.1956390E-002  0.9118800E+02  0.7818608E-02  0.1130116E+00
         25   -1    0    0    0    0  0.00000000000E+00  0.00000000000E+00  0.99999998245E-14  0.12500000000E+03  0.12500000000E+03 0.  0.
        -11    1    1    0    0    0 -0.48239855420E+01  0.11522697005E+02 -0.72354988602E+01  0.14435921405E+02  0.51100000000E-03 0. -1.
         11    1    1    0    0    0 -0.16063349732E+02  0.38361496307E+02 -0.24093983709E+02  0.48064078632E+02  0.51100000000E-03 0.  1.
         22    1    1    0    0    0  0.20887335274E+02 -0.49884193313E+02  0.31329482569E+02  0.62499999963E+02  0.00000000000E+00 0.  1.
</event>
<event>
 4    1  0.1956390E-002  0.9118800E+02  0.7818608E-02  0.1130116E+00
         25   -1    0    0    0    0  0.00000000000E+00  0.00000000000E+00  0.99999998245E-14  0.12500000000E+03  0.12500000000E+03 0.  0.
        -11    1    1    0    0    0  0.92830041213E+00 -0.18025675605E+01  0.21977243485E+01  0.29901478289E+01  0.51100000000E-03 0. -1.
         11    1    1    0    0    0  0.18466777432E+02 -0.35869638017E+02  0.43746653715E+02  0.59509852224E+02  0.51100000000E-03 0.  1.
         22    1    1    0    0    0 -0.19395077844E+02  0.37672205578E+02 -0.45944378064E+02  0.62499999947E+02  0.00000000000E+00 0.  1.
</event>
<event>
 4    1  0.1956390E-002  0.9118800E+02  0.7818608E-02  0.1130116E+00
         25   -1    0    0    0    0  0.00000000000E+00  0.00000000000E+00  0.99999998245E-14  0.12500000000E+03  0.12500000000E+03 0.  0.
        -11    1    1    0    0    0 -0.11303756516E+02 -0.42781643091E+02 -0.12708098152E+02  0.46038458444E+02  0.51100000000E-03 0. -1.
         11    1    1    0    0    0 -0.17303103490E+01 -0.15380356234E+02 -0.58325727553E+01  0.16539898337E+02  0.51100000000E-03 0.  1.
         22    1    1    0    0    0  0.13034066865E+02  0.58161999325E+02  0.18540670907E+02  0.62421643220E+02  0.00000000000E+00 0. -1.
</event>
<event>
 4    1  0.1956390E-002  0.9118800E+02  0.7818608E-02  0.1130116E+00
         25   -1    0    0    0    0  0.00000000000E+00  0.00000000000E+00  0.99999998245E-14  0.12500000000E+03  0.12500000000E+03 0.  0.
        -11    1    1    0    0    0  0.23136771073E+02  0.13509680863E+02  0.33339902748E+02  0.42771144107E+02  0.51100000000E-03 0. -1.
         11    1    1    0    0    0  0.10671741020E+02  0.62312178154E+01  0.15378999418E+02  0.19728855902E+02  0.51100000000E-03 0. -1.
         22    1    1    0    0    0 -0.33808512093E+02 -0.19740898679E+02 -0.48718902166E+02  0.62499999991E+02  0.00000000000E+00 0. -1.
</event>
<event>
 4    1  0.1956390E-002  0.9118800E+02  0.7818608E-02  0.1130116E+00
         25   -1    0    0    0    0  0.00000000000E+00  0.00000000000E+00  0.99999998245E-14  0.12500000000E+03  0.12500000000E+03 0.  0.
        -11    1    1    0    0    0  0.10771709913E+02 -0.56242216171E+02 -0.16834938935E+02  0.59687785882E+02  0.51100000000E-03 0. -1.
         11    1    1    0    0    0  0.50770460627E+00 -0.26477360658E+01 -0.80018967095E+00  0.28122186992E+01  0.51100000000E-03 0.  1.
         22    1    1    0    0    0 -0.11279414519E+02  0.58889952237E+02  0.17635128606E+02  0.62499995419E+02  0.00000000000E+00 0. -1.
</event>
<event>
 4    1  0.1956390E-002  0.9118800E+02  0.7818608E-02  0.1130116E+00
         25   -1    0    0    0    0  0.00000000000E+00  0.00000000000E+00  0.99999998245E-14  0.12500000000E+03  0.12500000000E+03 0.  0.
        -11    1    1    0    0    0 -0.42633386854E+02 -0.30645345402E+02 -0.83410278698E+01  0.53163103894E+02  0.51100000000E-03 0.  1.
         11    1    1    0    0    0  0.28511772716E+01 -0.12278206191E+02 -0.67276957054E+00  0.12622843509E+02  0.51100000000E-03 0. -1.
         22    1    1    0    0    0  0.39782209582E+02  0.42923551593E+02  0.90137974403E+01  0.59214052597E+02  0.00000000000E+00 0.  1.
</event>
<event>
 4    1  0.1956390E-002  0.9118800E+02  0.7818608E-02  0.1130116E+00
         25   -1    0    0    0    0  0.00000000000E+00  0.00000000000E+00  0.99999998245E-14  0.12500000000E+03  0.12500000000E+03 0.  0.
        -11    1    1    0    0    0 -0.18340808268E+02  0.34694321214E+02 -0.32960882932E+02  0.51249399766E+02  0.51100000000E-03 0. -1.
         11    1    1    0    0    0 -0.43081169509E+01  0.75081086275E+01 -0.71890680995E+01  0.11252300530E+02  0.51100000000E-03 0.  1.
         22    1    1    0    0    0  0.22648925219E+02 -0.42202429841E+02  0.40149951032E+02  0.62498299704E+02  0.00000000000E+00 0. -1.
</event>
<event>
 4    1  0.1956390E-002  0.9118800E+02  0.7818608E-02  0.1130116E+00
         25   -1    0    0    0    0  0.00000000000E+00  0.00000000000E+00  0.99999998245E-14  0.12500000000E+03  0.12500000000E+03 0.  0.
        -11    1    1    0    0    0 -0.48785458690E+01 -0.15816571883E+01  0.42843775662E+01  0.66826447345E+01  0.51100000000E-03 0. -1.
         11    1    1    0    0    0 -0.40746654273E+02 -0.13207419749E+02  0.35788984064E+02  0.55817355289E+02  0.51100000000E-03 0. -1.
         22    1    1    0    0    0  0.45625200142E+02  0.14789076937E+02 -0.40073361630E+02  0.62499999976E+02  0.00000000000E+00 0. -1.
</event>
<event>
 4    1  0.1956390E-002  0.9118800E+02  0.7818608E-02  0.1130116E+00
         25   -1    0    0    0    0  0.00000000000E+00  0.00000000000E+00  0.99999998245E-14  0.12500000000E+03  0.12500000000E+03 0.  0.
        -11    1    1    0    0    0  0.32659321842E+01 -0.87819309544E+01 -0.16404068249E+02  0.18891322868E+02  0.51100000000E-03 0.  1.
         11    1    1    0    0    0  0.92304190689E+01 -0.19650152644E+02 -0.37826956882E+02  0.43614307313E+02  0.51100000000E-03 0. -1.
         22    1    1    0    0    0 -0.12496351253E+02  0.28432083598E+02  0.54231025131E+02  0.62494369820E+02  0.00000000000E+00 0. -1.
</event>
<event>
 4    1  0.1956390E-002  0.9118800E+02  0.7818608E-02  0.1130116E+00
         25   -1    0    0    0    0  0.00000000000E+00  0.00000000000E+00  0.99999998245E-14  0.12500000000E+03  0.12500000000E+03 0.  0.
        -11    1    1    0    0    0 -0.27175354314E+02  0.14669220730E+02  0.26728916670E+02  0.40842635879E+02  0.51100000000E-03 0.  1.
         11    1    1    0    0    0 -0.14404830825E+02  0.77902255762E+01  0.14172321932E+02  0.21657365371E+02  0.51100000000E-03 0. -1.
         22    1    1    0    0    0  0.41580185139E+02 -0.22459446306E+02 -0.40901238602E+02  0.62499998750E+02  0.00000000000E+00 0. -1.
</event>
<event>
 4    1  0.1956390E-002  0.9118800E+02  0.7818608E-02  0.1130116E+00
         25   -1    0    0    0    0  0.00000000000E+00  0.00000000000E+00  0.99999998245E-14  0.12500000000E+03  0.12500000000E+03 0.  0.
        -11    1    1    0    0    0  0.42188433615E+02 -0.27991795200E+01 -0.11312835830E+02  0.43768477146E+02  0.51100000000E-03 0. -1.
         11    1    1    0    0    0  0.18090000699E+02 -0.90447545177E+00 -0.47786726277E+01  0.18732376076E+02  0.51100000000E-03 0.  1.
         22    1    1    0    0    0 -0.60278434314E+02  0.37036549718E+01  0.16091508457E+02  0.62499146778E+02  0.00000000000E+00 0. -1.
</event>
<event>
 4    1  0.1956390E-002  0.9118800E+02  0.7818608E-02  0.1130116E+00
         25   -1    0    0    0    0  0.00000000000E+00  0.00000000000E+00  0.99999998245E-14  0.12500000000E+03  0.12500000000E+03 0.  0.
        -11    1    1    0    0    0  0.12078682875E+02  0.11172456679E+02 -0.21094128223E+01  0.16588188296E+02  0.51100000000E-03 0. -1.
         11    1    1    0    0    0  0.33452692074E+02  0.30905258395E+02 -0.58031989443E+01  0.45911814620E+02  0.51100000000E-03 0.  1.
         22    1    1    0    0    0 -0.45531374949E+02 -0.42077715073E+02  0.79126117666E+01  0.62499997084E+02  0.00000000000E+00 0.  1.
</event>
<event>
 4    1  0.1956390E-002  0.9118800E+02  0.7818608E-02  0.1130116E+00
         25   -1    0    0    0    0  0.00000000000E+00  0.00000000000E+00  0.99999998245E-14  0.12500000000E+03  0.12500000000E+03 0.  0.
        -11    1    1    0    0    0  0.41322251024E+02  0.15469696480E+02 -0.40698756808E+02  0.60026900177E+02  0.51100000000E-03 0. -1.
         11    1    1    0    0    0  0.17113358603E+01  0.62683324048E+00 -0.16717461825E+01  0.24731206800E+01  0.51100000000E-03 0.  1.
         22    1    1    0    0    0 -0.43033586884E+02 -0.16096529720E+02  0.42370502991E+02  0.62499979143E+02  0.00000000000E+00 0. -1.
</event>
<event>
 4    1  0.1956390E-002  0.9118800E+02  0.7818608E-02  0.1130116E+00
         25   -1    0    0    0    0  0.00000000000E+00  0.00000000000E+00  0.99999998245E-14  0.12500000000E+03  0.12500000000E+03 0.  0.
        -11    1    1    0    0    0  0.33039539201E+01  0.15055532462E+00 -0.19276433880E+01  0.38281310981E+01  0.51100000000E-03 0.  1.
         11    1    1    0    0    0  0.50154604030E+02  0.21415372400E+01 -0.30370159990E+02  0.58672115227E+02  0.51100000000E-03 0. -1.
         22    1    1    0    0    0 -0.53458557950E+02 -0.22920925647E+01  0.32297803378E+02  0.62499753675E+02  0.00000000000E+00 0. -1.
</event>
<event>
 4    1  0.1956390E-002  0.9118800E+02  0.7818608E-02  0.1130116E+00
         25   -1    0    0    0    0  0.00000000000E+00  0.00000000000E+00  0.99999998245E-14  0.12500000000E+03  0.12500000000E+03 0.  0.
        -11    1    1    0    0    0 -0.11927663578E+01  0.86125506630E+00 -0.10007635778E+01  0.17793200593E+01  0.51100000000E-03 0.  1.
         11    1    1    0    0    0 -0.40618047059E+02  0.29393829406E+02 -0.34251690033E+02  0.60720682016E+02  0.51100000000E-03 0. -1.
         22    1    1    0    0    0  0.41810813417E+02 -0.30255084472E+02  0.35252453611E+02  0.62499997925E+02  0.00000000000E+00 0. -1.
</event>
<event>
 4    1  0.1956390E-002  0.9118800E+02  0.7818608E-02  0.1130116E+00
         25   -1    0    0    0    0  0.00000000000E+00  0.00000000000E+00  0.99999998245E-14  0.12500000000E+03  0.12500000000E+03 0.  0.
        -11    1    1    0    0    0 -0.59966820478E+02 -0.77377747120E+01 -0.87182244090E+01  0.61089280180E+02  0.51100000000E-03 0.  1.
         11    1    1    0    0    0 -0.13842172537E+01 -0.18247041444E+00 -0.20195241794E+00  0.14107224738E+01  0.51100000000E-03 0. -1.
         22    1    1    0    0    0  0.61351037732E+02  0.79202451265E+01  0.89201768269E+01  0.62499997346E+02  0.00000000000E+00 0.  1.
</event>
<event>
 4    1  0.1956390E-002  0.9118800E+02  0.7818608E-02  0.1130116E+00
         25   -1    0    0    0    0  0.00000000000E+00  0.00000000000E+00  0.99999998245E-14  0.12500000000E+03  0.12500000000E+03 0.  0.
        -11    1    1    0    0    0 -0.24763725277E+02 -0.24767203295E+01 -0.51385929888E+02  0.57095446613E+02  0.51100000000E-03 0. -1.
         11    1    1    0    0    0 -0.22167886938E+01 -0.18788526222E+00 -0.49264502993E+01  0.54054940383E+01  0.51100000000E-03 0.  1.
         22    1    1    0    0    0  0.26980513971E+02  0.26646055918E+01  0.56312380187E+02  0.62499059349E+02  0.00000000000E+00 0. -1.
</event>
<event>
 4    1  0.1956390E-002  0.9118800E+02  0.7818608E-02  0.1130116E+00
         25   -1    0    0    0    0  0.00000000000E+00  0.00000000000E+00  0.99999998245E-14  0.12500000000E+03  0.12500000000E+03 0.  0.
        -11    1    1    0    0    0  0.25117923599E+02  0.11181151580E+02  0.15480651518E+02  0.31552793985E+02  0.51100000000E-03 0. -1.
         11    1    1    0    0    0  0.24723458595E+02  0.10970174998E+02  0.15038041767E+02  0.30947323711E+02  0.51100000000E-03 0.  1.
         22    1    1    0    0    0 -0.49841382194E+02 -0.22151326578E+02 -0.30518693285E+02  0.62499882304E+02  0.00000000000E+00 0. -1.
</event>
<event>
 4    1  0.1956390E-002  0.9118800E+02  0.7818608E-02  0.1130116E+00
         25   -1    0    0    0    0  0.00000000000E+00  0.00000000000E+00  0.99999998245E-14  0.12500000000E+03  0.12500000000E+03 0.  0.
        -11    1    1    0    0    0  0.43812458030E+02  0.11546871273E+02 -0.19111949107E+02  0.49174468109E+02  0.51100000000E-03 0.  1.
         11    1    1    0    0    0  0.12893898595E+02  0.32205043277E+01 -0.22034715386E+01  0.13471434823E+02  0.51100000000E-03 0. -1.
         22    1    1    0    0    0 -0.56706356625E+02 -0.14767375601E+02  0.21315420646E+02  0.62354097068E+02  0.00000000000E+00 0.  1.
</event>
<event>
 4    1  0.1956390E-002  0.9118800E+02  0.7818608E-02  0.1130116E+00
         25   -1    0    0    0    0  0.00000000000E+00  0.00000000000E+00  0.99999998245E-14  0.12500000000E+03  0.12500000000E+03 0.  0.
        -11    1    1    0    0    0 -0.44684170233E+01 -0.11912168297E+01  0.52657196099E+01  0.70081061279E+01  0.51100000000E-03 0. -1.
         11    1    1    0    0    0 -0.35390855739E+02 -0.94445608861E+01  0.41684984165E+02  0.55491894051E+02  0.51100000000E-03 0.  1.
         22    1    1    0    0    0  0.39859272762E+02  0.10635777716E+02 -0.46950703774E+02  0.62499999821E+02  0.00000000000E+00 0.  1.
</event>
<event>
 4    1  0.1956390E-002  0.9118800E+02  0.7818608E-02  0.1130116E+00
         25   -1    0    0    0    0  0.00000000000E+00  0.00000000000E+00  0.99999998245E-14  0.12500000000E+03  0.12500000000E+03 0.  0.
        -11    1    1    0    0    0  0.54856385048E+02  0.20765641554E+01  0.84566523187E+01  0.55543227021E+02  0.51100000000E-03 0. -1.
         11    1    1    0    0    0  0.68657258428E+01  0.26268647701E+00  0.10908501876E+01  0.69568060148E+01  0.51100000000E-03 0.  1.
         22    1    1    0    0    0 -0.61722110891E+02 -0.23392506324E+01 -0.95475025062E+01  0.62499966964E+02  0.00000000000E+00 0. -1.
</event>
<event>
 4    1  0.1956390E-002  0.9118800E+02  0.7818608E-02  0.1130116E+00
         25   -1    0    0    0    0  0.00000000000E+00  0.00000000000E+00  0.99999998245E-14  0.12500000000E+03  0.12500000000E+03 0.  0.
        -11    1    1    0    0    0  0.16122243323E+02  0.20325290061E+02 -0.61960618500E+01  0.26672745051E+02  0.51100000000E-03 0. -1.
         11    1    1    0    0    0  0.21655767971E+02  0.27300764231E+02 -0.83239524042E+01  0.35827254959E+02  0.51100000000E-03 0. -1.
         22    1    1    0    0    0 -0.37778011294E+02 -0.47626054292E+02  0.14520014254E+02  0.62499999990E+02  0.00000000000E+00 0. -1.
</event>
<event>
 4    1  0.1956390E-002  0.9118800E+02  0.7818608E-02  0.1130116E+00
         25   -1    0    0    0    0  0.00000000000E+00  0.00000000000E+00  0.99999998245E-14  0.12500000000E+03  0.12500000000E+03 0.  0.
        -11    1    1    0    0    0  0.43965347836E+02  0.31463085178E+02 -0.15658189721E+02  0.56285490536E+02  0.51100000000E-03 0. -1.
         11    1    1    0    0    0  0.48542208031E+01  0.34739183414E+01 -0.17287450702E+01  0.62145094760E+01  0.51100000000E-03 0. -1.
         22    1    1    0    0    0 -0.48819568639E+02 -0.34937003520E+02  0.17386934791E+02  0.62499999988E+02  0.00000000000E+00 0. -1.
</event>
<event>
 4    1  0.1956390E-002  0.9118800E+02  0.7818608E-02  0.1130116E+00
         25   -1    0    0    0    0  0.00000000000E+00  0.00000000000E+00  0.99999998245E-14  0.12500000000E+03  0.12500000000E+03 0.  0.
        -11    1    1    0    0    0 -0.14429364821E+02 -0.11713558706E+02 -0.32783260618E+02  0.37684959914E+02  0.51100000000E-03 0. -1.
         11    1    1    0    0    0 -0.95140518902E+01 -0.77070497249E+01 -0.21584032930E+02  0.24815041339E+02  0.51100000000E-03 0.  1.
         22    1    1    0    0    0  0.23943416711E+02  0.19420608431E+02  0.54367293549E+02  0.62499998747E+02  0.00000000000E+00 0. -1.
</event>
<event>
 4    1  0.1956390E-002  0.9118800E+02  0.7818608E-02  0.1130116E+00
         25   -1    0    0    0    0  0.00000000000E+00  0.00000000000E+00  0.99999998245E-14  0.12500000000E+03  0.12500000000E+03 0.  0.
        -11    1    1    0    0    0  0.31409454520E+02 -0.22814983578E+02 -0.12128773509E+02  0.40671666501E+02  0.51100000000E-03 0.  1.
         11    1    1    0    0    0  0.16913127057E+02 -0.12095001127E+02 -0.66443547589E+01  0.21828659362E+02  0.51100000000E-03 0. -1.
         22    1    1    0    0    0 -0.48322581577E+02  0.34909984705E+02  0.18773128267E+02  0.62499674137E+02  0.00000000000E+00 0. -1.
</event>
<event>
 4    1  0.1956390E-002  0.9118800E+02  0.7818608E-02  0.1130116E+00
         25   -1    0    0    0    0  0.00000000000E+00  0.00000000000E+00  0.99999998245E-14  0.12500000000E+03  0.12500000000E+03 0.  0.
        -11    1    1    0    0    0  0.23712931679E+02  0.19779896016E+02  0.26534795443E+02  0.40714159511E+02  0.51100000000E-03 0.  1.
         11    1    1    0    0    0  0.19655218453E+02  0.40453096310E+01  0.10340790399E+02  0.22574855233E+02  0.51100000000E-03 0. -1.
         22    1    1    0    0    0 -0.43368150133E+02 -0.23825205647E+02 -0.36875585842E+02  0.61710985256E+02  0.00000000000E+00 0.  1.
</event>
<event>
 4    1  0.1956390E-002  0.9118800E+02  0.7818608E-02  0.1130116E+00
         25   -1    0    0    0    0  0.00000000000E+00  0.00000000000E+00  0.99999998245E-14  0.12500000000E+03  0.12500000000E+03 0.  0.
        -11    1    1    0    0    0  0.52165234492E+01 -0.76760713614E+01  0.13447899190E+00  0.92818248907E+01  0.51100000000E-03 0.  1.
         11    1    1    0    0    0  0.40707502222E+02 -0.33411449075E+02 -0.91133157102E+01  0.53446030628E+02  0.51100000000E-03 0. -1.
         22    1    1    0    0    0 -0.45924025671E+02  0.41087520437E+02  0.89788367183E+01  0.62272144481E+02  0.00000000000E+00 0. -1.
</event>
<event>
 4    1  0.1956390E-002  0.9118800E+02  0.7818608E-02  0.1130116E+00
         25   -1    0    0    0    0  0.00000000000E+00  0.00000000000E+00  0.99999998245E-14  0.12500000000E+03  0.12500000000E+03 0.  0.
        -11    1    1    0    0    0  0.56576411981E+02  0.21931156938E+02 -0.83586332344E+01  0.61251390083E+02  0.51100000000E-03 0.  1.
         11    1    1    0    0    0  0.11500076380E+01  0.45175008972E+00 -0.18026296291E+00  0.12486355385E+01  0.51100000000E-03 0. -1.
         22    1    1    0    0    0 -0.57726419619E+02 -0.22382907027E+02  0.85388961973E+01  0.62499974379E+02  0.00000000000E+00 0.  1.
</event>
<event>
 4    1  0.1956390E-002  0.9118800E+02  0.7818608E-02  0.1130116E+00
         25   -1    0    0    0    0  0.00000000000E+00  0.00000000000E+00  0.99999998245E-14  0.12500000000E+03  0.12500000000E+03 0.  0.
        -11    1    1    0    0    0 -0.94647299862E-01 -0.65555048515E-01  0.21180494520E+01  0.21211763995E+01  0.51100000000E-03 0.  1.
         11    1    1    0    0    0 -0.28064321334E+01 -0.20946398335E+01  0.60277191950E+02  0.60378832773E+02  0.51100000000E-03 0. -1.
         22    1    1    0    0    0  0.29010794332E+01  0.21601948820E+01 -0.62395241402E+02  0.62499990828E+02  0.00000000000E+00 0. -1.
</event>
<event>
 4    1  0.1956390E-002  0.9118800E+02  0.7818608E-02  0.1130116E+00
         25   -1    0    0    0    0  0.00000000000E+00  0.00000000000E+00  0.99999998245E-14  0.12500000000E+03  0.12500000000E+03 0.  0.
        -11    1    1    0    0    0  0.14985065657E+01  0.16949690681E+02  0.50160799262E+02  0.52968323732E+02  0.51100000000E-03 0.  1.
         11    1    1    0    0    0  0.30138183382E+00  0.30755843461E+01  0.90168477327E+01  0.95317151330E+01  0.51100000000E-03 0. -1.
         22    1    1    0    0    0 -0.17998883996E+01 -0.20025275027E+02 -0.59177646994E+02  0.62499961136E+02  0.00000000000E+00 0.  1.
</event>
<event>
 4    1  0.1956390E-002  0.9118800E+02  0.7818608E-02  0.1130116E+00
         25   -1    0    0    0    0  0.00000000000E+00  0.00000000000E+00  0.99999998245E-14  0.12500000000E+03  0.12500000000E+03 0.  0.
        -11    1    1    0    0    0  0.16178608878E+01  0.72430454657E+00  0.85030680206E+00  0.19659890252E+01  0.51100000000E-03 0.  1.
         11    1    1    0    0    0  0.49992414788E+02  0.20520556926E+02  0.27278214949E+02  0.60534583536E+02  0.51100000000E-03 0. -1.
         22    1    1    0    0    0 -0.51610275675E+02 -0.21244861473E+02 -0.28128521751E+02  0.62499427439E+02  0.00000000000E+00 0. -1.
</event>
<event>
 4    1  0.1956390E-002  0.9118800E+02  0.7818608E-02  0.1130116E+00
         25   -1    0    0    0    0  0.00000000000E+00  0.00000000000E+00  0.99999998245E-14  0.12500000000E+03  0.12500000000E+03 0.  0.
        -11    1    1    0    0    0  0.32696240655E+01 -0.77432718087E+01  0.16429109643E+02  0.18454385488E+02  0.51100000000E-03 0. -1.
         11    1    1    0    0    0  0.98117967592E+01 -0.11461566740E+02  0.41485157713E+02  0.44143597254E+02  0.51100000000E-03 0.  1.
         22    1    1    0    0    0 -0.13081420825E+02  0.19204838549E+02 -0.57914267356E+02  0.62402017258E+02  0.00000000000E+00 0.  1.
</event>
<event>
 4    1  0.1956390E-002  0.9118800E+02  0.7818608E-02  0.1130116E+00
         25   -1    0    0    0    0  0.00000000000E+00  0.00000000000E+00  0.99999998245E-14  0.12500000000E+03  0.12500000000E+03 0.  0.
        -11    1    1    0    0    0  0.74651548316E+01  0.46132035460E+01 -0.11970027618E+02  0.14842228439E+02  0.51100000000E-03 0. -1.
         11    1    1    0    0    0  0.24076643034E+02  0.14783520370E+02 -0.38380044068E+02  0.47657790520E+02  0.51100000000E-03 0.  1.
         22    1    1    0    0    0 -0.31541797866E+02 -0.19396723916E+02  0.50350071686E+02  0.62499981040E+02  0.00000000000E+00 0.  1.
</event>
<event>
 4    1  0.1956390E-002  0.9118800E+02  0.7818608E-02  0.1130116E+00
         25   -1    0    0    0    0  0.00000000000E+00  0.00000000000E+00  0.99999998245E-14  0.12500000000E+03  0.12500000000E+03 0.  0.
        -11    1    1    0    0    0  0.37787579103E+02 -0.14135610830E+02 -0.59572327795E+01  0.40782413498E+02  0.51100000000E-03 0. -1.
         11    1    1    0    0    0  0.20122900450E+02 -0.75277197820E+01 -0.31711001766E+01  0.21717586519E+02  0.51100000000E-03 0. -1.
         22    1    1    0    0    0 -0.57910479553E+02  0.21663330612E+02  0.91283329562E+01  0.62499999983E+02  0.00000000000E+00 0. -1.
</event>
<event>
 4    1  0.1956390E-002  0.9118800E+02  0.7818608E-02  0.1130116E+00
         25   -1    0    0    0    0  0.00000000000E+00  0.00000000000E+00  0.99999998245E-14  0.12500000000E+03  0.12500000000E+03 0.  0.
        -11    1    1    0    0    0 -0.19103082518E+02 -0.12870267193E+02  0.34514041978E+02  0.41494465091E+02  0.51100000000E-03 0. -1.
         11    1    1    0    0    0 -0.95153340289E+01 -0.65071568229E+01  0.17560137277E+02  0.21005787132E+02  0.51100000000E-03 0.  1.
         22    1    1    0    0    0  0.28618416547E+02  0.19377424016E+02 -0.52074179254E+02  0.62499747777E+02  0.00000000000E+00 0. -1.
</event>
<event>
 4    1  0.1956390E-002  0.9118800E+02  0.7818608E-02  0.1130116E+00
         25   -1    0    0    0    0  0.00000000000E+00  0.00000000000E+00  0.99999998245E-14  0.12500000000E+03  0.12500000000E+03 0.  0.
        -11    1    1    0    0    0 -0.20032984978E+02 -0.41773562745E+02  0.21467630628E+02  0.51060847982E+02  0.51100000000E-03 0.  1.
         11    1    1    0    0    0 -0.44903799788E+01 -0.93525079477E+01  0.48188520660E+01  0.11439154373E+02  0.51100000000E-03 0. -1.
         22    1    1    0    0    0  0.24523364957E+02  0.51126070693E+02 -0.26286482694E+02  0.62499997646E+02  0.00000000000E+00 0.  1.
</event>
<event>
 4    1  0.1956390E-002  0.9118800E+02  0.7818608E-02  0.1130116E+00
         25   -1    0    0    0    0  0.00000000000E+00  0.00000000000E+00  0.99999998245E-14  0.12500000000E+03  0.12500000000E+03 0.  0.
        -11    1    1    0    0    0 -0.34769594156E+00  0.82922960537E+00  0.71414446330E+00  0.11482668600E+01  0.51100000000E-03 0.  1.
         11    1    1    0    0    0 -0.26136780943E+02  0.37986412964E+02  0.40483055968E+02  0.61359406033E+02  0.51100000000E-03 0. -1.
         22    1    1    0    0    0  0.26484476885E+02 -0.38815642570E+02 -0.41197200431E+02  0.62492327107E+02  0.00000000000E+00 0. -1.
</event>
<event>
 4    1  0.1956390E-002  0.9118800E+02  0.7818608E-02  0.1130116E+00
         25   -1    0    0    0    0  0.00000000000E+00  0.00000000000E+00  0.99999998245E-14  0.12500000000E+03  0.12500000000E+03 0.  0.
        -11    1    1    0    0    0 -0.70798859499E+01  0.14476899855E+01 -0.13243547386E+02  0.15086820042E+02  0.51100000000E-03 0.  1.
         11    1    1    0    0    0 -0.22245327199E+02  0.45464911270E+01 -0.41623124280E+02  0.47413180012E+02  0.51100000000E-03 0. -1.
         22    1    1    0    0    0  0.29325213149E+02 -0.59941811125E+01  0.54866671666E+02  0.62499999946E+02  0.00000000000E+00 0.  1.
</event>
<event>
 4    1  0.1956390E-002  0.9118800E+02  0.7818608E-02  0.1130116E+00
         25   -1    0    0    0    0  0.00000000000E+00  0.00000000000E+00  0.99999998245E-14  0.12500000000E+03  0.12500000000E+03 0.  0.
        -11    1    1    0    0    0 -0.19608212228E+02  0.22719239569E+02 -0.48614406723E+02  0.57131483218E+02  0.51100000000E-03 0. -1.
         11    1    1    0    0    0 -0.18421277200E+01  0.21367604937E+01 -0.45674713262E+01  0.53685169759E+01  0.51100000000E-03 0.  1.
         22    1    1    0    0    0  0.21450339948E+02 -0.24856000062E+02  0.53181878049E+02  0.62499999807E+02  0.00000000000E+00 0. -1.
</event>
<event>
 4    1  0.1956390E-002  0.9118800E+02  0.7818608E-02  0.1130116E+00
         25   -1    0    0    0    0  0.00000000000E+00  0.00000000000E+00  0.99999998245E-14  0.12500000000E+03  0.12500000000E+03 0.  0.
        -11    1    1    0    0    0 -0.25065417902E+02 -0.54381090337E+01 -0.15628915099E+01  0.25696124895E+02  0.51100000000E-03 0.  1.
         11    1    1    0    0    0 -0.35896054512E+02 -0.78158293688E+01 -0.22162040219E+01  0.36803878584E+02  0.51100000000E-03 0. -1.
         22    1    1    0    0    0  0.60961472415E+02  0.13253938402E+02  0.37790955318E+01  0.62499996521E+02  0.00000000000E+00 0.  1.
</event>
<event>
 4    1  0.1956390E-002  0.9118800E+02  0.7818608E-02  0.1130116E+00
         25   -1    0    0    0    0  0.00000000000E+00  0.00000000000E+00  0.99999998245E-14  0.12500000000E+03  0.12500000000E+03 0.  0.
        -11    1    1    0    0    0  0.22048422149E+02  0.21574123472E+02 -0.52743782696E+02  0.61102228569E+02  0.51100000000E-03 0. -1.
         11    1    1    0    0    0  0.37445426517E+00 -0.61601445617E+00 -0.14482355543E+01  0.16177380161E+01  0.51100000000E-03 0.  1.
         22    1    1    0    0    0 -0.22422876414E+02 -0.20958109015E+02  0.54192018250E+02  0.62280033415E+02  0.00000000000E+00 0. -1.
</event>
<event>
 4    1  0.1956390E-002  0.9118800E+02  0.7818608E-02  0.1130116E+00
         25   -1    0    0    0    0  0.00000000000E+00  0.00000000000E+00  0.99999998245E-14  0.12500000000E+03  0.12500000000E+03 0.  0.
        -11    1    1    0    0    0 -0.15962711855E+02 -0.21267142927E+02 -0.15795243647E+02  0.30928777218E+02  0.51100000000E-03 0.  1.
         11    1    1    0    0    0 -0.16247849895E+02 -0.21476537636E+02 -0.16478864672E+02  0.31571938113E+02  0.51100000000E-03 0. -1.
         22    1    1    0    0    0  0.32210561750E+02  0.42743680563E+02  0.32274108319E+02  0.62499284669E+02  0.00000000000E+00 0. -1.
</event>
<event>
 4    1  0.1956390E-002  0.9118800E+02  0.7818608E-02  0.1130116E+00
         25   -1    0    0    0    0  0.00000000000E+00  0.00000000000E+00  0.99999998245E-14  0.12500000000E+03  0.12500000000E+03 0.  0.
        -11    1    1    0    0    0  0.29644096833E+01 -0.27200562250E+01 -0.23481140295E+01  0.46583334353E+01  0.51100000000E-03 0.  1.
         11    1    1    0    0    0 -0.14747512201E+02 -0.42474792661E+02 -0.37808938293E+02  0.58746173856E+02  0.51100000000E-03 0. -1.
         22    1    1    0    0    0  0.11783102518E+02  0.45194848886E+02  0.40157052323E+02  0.61595492708E+02  0.00000000000E+00 0. -1.
</event>
<event>
 4    1  0.1956390E-002  0.9118800E+02  0.7818608E-02  0.1130116E+00
         25   -1    0    0    0    0  0.00000000000E+00  0.00000000000E+00  0.99999998245E-14  0.12500000000E+03  0.12500000000E+03 0.  0.
        -11    1    1    0    0    0 -0.17954510119E+02  0.35766161422E+02  0.48673133015E+00  0.40022739088E+02  0.51100000000E-03 0. -1.
         11    1    1    0    0    0 -0.99151127485E+01  0.20169154554E+02  0.37050728629E+00  0.22477578431E+02  0.51100000000E-03 0.  1.
         22    1    1    0    0    0  0.27869622868E+02 -0.55935315976E+02 -0.85723861645E+00  0.62499682480E+02  0.00000000000E+00 0. -1.
</event>
<event>
 4    1  0.1956390E-002  0.9118800E+02  0.7818608E-02  0.1130116E+00
         25   -1    0    0    0    0  0.00000000000E+00  0.00000000000E+00  0.99999998245E-14  0.12500000000E+03  0.12500000000E+03 0.  0.
        -11    1    1    0    0    0 -0.14283836814E+02 -0.30459078052E+02 -0.15441487008E+02  0.37016522678E+02  0.51100000000E-03 0.  1.
         11    1    1    0    0    0 -0.14466193323E+02 -0.18211048343E+02 -0.10822838117E+02  0.25652423983E+02  0.51100000000E-03 0. -1.
         22    1    1    0    0    0  0.28750030137E+02  0.48670126395E+02  0.26264325124E+02  0.62331053340E+02  0.00000000000E+00 0.  1.
</event>
<event>
 4    1  0.1956390E-002  0.9118800E+02  0.7818608E-02  0.1130116E+00
         25   -1    0    0    0    0  0.00000000000E+00  0.00000000000E+00  0.99999998245E-14  0.12500000000E+03  0.12500000000E+03 0.  0.
        -11    1    1    0    0    0 -0.26799277079E+01 -0.51751693233E+01 -0.28746534807E+01  0.64983092370E+01  0.51100000000E-03 0.  1.
         11    1    1    0    0    0 -0.20234215881E+02 -0.47512626689E+02 -0.21695064832E+02  0.56013828878E+02  0.51100000000E-03 0. -1.
         22    1    1    0    0    0  0.22914143589E+02  0.52687796012E+02  0.24569718313E+02  0.62487861885E+02  0.00000000000E+00 0. -1.
</event>
<event>
 4    1  0.1956390E-002  0.9118800E+02  0.7818608E-02  0.1130116E+00
         25   -1    0    0    0    0  0.00000000000E+00  0.00000000000E+00  0.99999998245E-14  0.12500000000E+03  0.12500000000E+03 0.  0.
        -11    1    1    0    0    0  0.80273347342E+01  0.46752544695E+01 -0.22868203381E+01  0.95669041392E+01  0.51100000000E-03 0.  1.
         11    1    1    0    0    0  0.44206257469E+02  0.25889016278E+02 -0.13323515387E+02  0.52933452804E+02  0.51100000000E-03 0. -1.
         22    1    1    0    0    0 -0.52233592203E+02 -0.30564270747E+02  0.15610335725E+02  0.62499643057E+02  0.00000000000E+00 0. -1.
</event>
<event>
 4    1  0.1956390E-002  0.9118800E+02  0.7818608E-02  0.1130116E+00
         25   -1    0    0    0    0  0.00000000000E+00  0.00000000000E+00  0.99999998245E-14  0.12500000000E+03  0.12500000000E+03 0.  0.
        -11    1    1    0    0    0  0.47068726020E+02 -0.87929343121E+01  0.29733268851E+02  0.56363533776E+02  0.51100000000E-03 0.  1.
         11    1    1    0    0    0  0.21913247957E+01 -0.84881181337E+01 -0.87134297925E+01  0.12360174466E+02  0.51100000000E-03 0. -1.
         22    1    1    0    0    0 -0.49260050815E+02  0.17281052446E+02 -0.21019839058E+02  0.56276291758E+02  0.00000000000E+00 0.  1.
</event>
<event>
 4    1  0.1956390E-002  0.9118800E+02  0.7818608E-02  0.1130116E+00
         25   -1    0    0    0    0  0.00000000000E+00  0.00000000000E+00  0.99999998245E-14  0.12500000000E+03  0.12500000000E+03 0.  0.
        -11    1    1    0    0    0 -0.31048701603E+02  0.22429608742E+02 -0.94400260163E+01  0.39448996324E+02  0.51100000000E-03 0. -1.
         11    1    1    0    0    0 -0.18112828525E+02  0.13135807703E+02 -0.55430636931E+01  0.23051020727E+02  0.51100000000E-03 0.  1.
         22    1    1    0    0    0  0.49161530128E+02 -0.35565416445E+02  0.14983089709E+02  0.62499982949E+02  0.00000000000E+00 0.  1.
</event>
<event>
 4    1  0.1956390E-002  0.9118800E+02  0.7818608E-02  0.1130116E+00
         25   -1    0    0    0    0  0.00000000000E+00  0.00000000000E+00  0.99999998245E-14  0.12500000000E+03  0.12500000000E+03 0.  0.
        -11    1    1    0    0    0 -0.17973389729E+00 -0.23406274435E+01 -0.14774332877E+00  0.23521627188E+01  0.51100000000E-03 0.  1.
         11    1    1    0    0    0 -0.71115897306E+01 -0.59044528617E+02 -0.90322846998E+01  0.60153247920E+02  0.51100000000E-03 0. -1.
         22    1    1    0    0    0  0.72913236279E+01  0.61385156061E+02  0.91800280286E+01  0.62494589361E+02  0.00000000000E+00 0. -1.
</event>
<event>
 4    1  0.1956390E-002  0.9118800E+02  0.7818608E-02  0.1130116E+00
         25   -1    0    0    0    0  0.00000000000E+00  0.00000000000E+00  0.99999998245E-14  0.12500000000E+03  0.12500000000E+03 0.  0.
        -11    1    1    0    0    0  0.38471196560E+02 -0.97003298689E+01 -0.33618427112E+02  0.52003153809E+02  0.51100000000E-03 0. -1.
         11    1    1    0    0    0  0.77669526888E+01 -0.19597514131E+01 -0.67836276834E+01  0.10496846406E+02  0.51100000000E-03 0.  1.
         22    1    1    0    0    0 -0.46238149248E+02  0.11660081282E+02  0.40402054796E+02  0.62499999785E+02  0.00000000000E+00 0. -1.
</event>
<event>
 4    1  0.1956390E-002  0.9118800E+02  0.7818608E-02  0.1130116E+00
         25   -1    0    0    0    0  0.00000000000E+00  0.00000000000E+00  0.99999998245E-14  0.12500000000E+03  0.12500000000E+03 0.  0.
        -11    1    1    0    0    0 -0.88524409676E+01  0.15723714848E+00 -0.37302342741E+00  0.88616917879E+01  0.51100000000E-03 0.  1.
         11    1    1    0    0    0 -0.51271306636E+02  0.11511972154E+02  0.11748524928E+02  0.53845150434E+02  0.51100000000E-03 0. -1.
         22    1    1    0    0    0  0.60123747603E+02 -0.11669209302E+02 -0.11375501501E+02  0.62293157778E+02  0.00000000000E+00 0. -1.
</event>
<event>
 4    1  0.1956390E-002  0.9118800E+02  0.7818608E-02  0.1130116E+00
         25   -1    0    0    0    0  0.00000000000E+00  0.00000000000E+00  0.99999998245E-14  0.12500000000E+03  0.12500000000E+03 0.  0.
        -11    1    1    0    0    0 -0.20071980564E+02 -0.19475487577E+02  0.17012503794E+02  0.32735367811E+02  0.51100000000E-03 0. -1.
         11    1    1    0    0    0 -0.18169766323E+02 -0.17620615499E+02  0.15662707438E+02  0.29764860210E+02  0.51100000000E-03 0.  1.
         22    1    1    0    0    0  0.38241746887E+02  0.37096103075E+02 -0.32675211232E+02  0.62499771979E+02  0.00000000000E+00 0.  1.
</event>
<event>
 4    1  0.1956390E-002  0.9118800E+02  0.7818608E-02  0.1130116E+00
         25   -1    0    0    0    0  0.00000000000E+00  0.00000000000E+00  0.99999998245E-14  0.12500000000E+03  0.12500000000E+03 0.  0.
        -11    1    1    0    0    0  0.10716880612E+01 -0.69550124641E+01  0.64445101286E+01  0.95421394213E+01  0.51100000000E-03 0. -1.
         11    1    1    0    0    0  0.59728511188E+01 -0.38605333864E+02  0.35755954794E+02  0.52957861142E+02  0.51100000000E-03 0.  1.
         22    1    1    0    0    0 -0.70445391800E+01  0.45560346329E+02 -0.42200464923E+02  0.62499999436E+02  0.00000000000E+00 0.  1.
</event>
<event>
 4    1  0.1956390E-002  0.9118800E+02  0.7818608E-02  0.1130116E+00
         25   -1    0    0    0    0  0.00000000000E+00  0.00000000000E+00  0.99999998245E-14  0.12500000000E+03  0.12500000000E+03 0.  0.
        -11    1    1    0    0    0 -0.68274066562E+01  0.24958117091E+02 -0.54397506686E+02  0.60237943394E+02  0.51100000000E-03 0.  1.
         11    1    1    0    0    0  0.94292205991E-01  0.12694657306E+01 -0.19023136299E+01  0.22889367988E+01  0.51100000000E-03 0. -1.
         22    1    1    0    0    0  0.67331144502E+01 -0.26227582821E+02  0.56299820316E+02  0.62473119807E+02  0.00000000000E+00 0.  1.
</event>
<event>
 4    1  0.1956390E-002  0.9118800E+02  0.7818608E-02  0.1130116E+00
         25   -1    0    0    0    0  0.00000000000E+00  0.00000000000E+00  0.99999998245E-14  0.12500000000E+03  0.12500000000E+03 0.  0.
        -11    1    1    0    0    0 -0.22263926677E+01  0.21438611968E+02 -0.31199636791E+01  0.21778546348E+02  0.51100000000E-03 0.  1.
         11    1    1    0    0    0 -0.41404508886E+01  0.40102717796E+02 -0.57330082198E+01  0.40721477033E+02  0.51100000000E-03 0. -1.
         22    1    1    0    0    0  0.63668435562E+01 -0.61541329764E+02  0.88529718988E+01  0.62499976619E+02  0.00000000000E+00 0.  1.
</event>
<event>
 4    1  0.1956390E-002  0.9118800E+02  0.7818608E-02  0.1130116E+00
         25   -1    0    0    0    0  0.00000000000E+00  0.00000000000E+00  0.99999998245E-14  0.12500000000E+03  0.12500000000E+03 0.  0.
        -11    1    1    0    0    0  0.78873279517E+01  0.93917587595E+01  0.20621847870E+01  0.12436546191E+02  0.51100000000E-03 0.  1.
         11    1    1    0    0    0  0.31151571137E+02  0.37847488009E+02  0.10192566029E+02  0.50067365972E+02  0.51100000000E-03 0. -1.
         22    1    1    0    0    0 -0.39038899089E+02 -0.47239246768E+02 -0.12254750816E+02  0.62496087836E+02  0.00000000000E+00 0. -1.
</event>
<event>
 4    1  0.1956390E-002  0.9118800E+02  0.7818608E-02  0.1130116E+00
         25   -1    0    0    0    0  0.00000000000E+00  0.00000000000E+00  0.99999998245E-14  0.12500000000E+03  0.12500000000E+03 0.  0.
        -11    1    1    0    0    0 -0.43628806925E+02 -0.79114627883E+01  0.25588704350E+01  0.44414095233E+02  0.51100000000E-03 0.  1.
         11    1    1    0    0    0 -0.17766858364E+02 -0.32169155369E+01  0.10441068698E+01  0.18085905040E+02  0.51100000000E-03 0. -1.
         22    1    1    0    0    0  0.61395665289E+02  0.11128378325E+02 -0.36029773048E+01  0.62499999727E+02  0.00000000000E+00 0.  1.
</event>
<event>
 4    1  0.1956390E-002  0.9118800E+02  0.7818608E-02  0.1130116E+00
         25   -1    0    0    0    0  0.00000000000E+00  0.00000000000E+00  0.99999998245E-14  0.12500000000E+03  0.12500000000E+03 0.  0.
        -11    1    1    0    0    0 -0.52657640087E+01 -0.41549884942E+01 -0.43396431970E+01  0.79890364450E+01  0.51100000000E-03 0. -1.
         11    1    1    0    0    0  0.13027666403E+02 -0.54778171328E+02  0.10408052898E+02  0.57259896187E+02  0.51100000000E-03 0.  1.
         22    1    1    0    0    0 -0.77619023942E+01  0.58933159822E+02 -0.60684097009E+01  0.59751067368E+02  0.00000000000E+00 0.  1.
</event>
<event>
 4    1  0.1956390E-002  0.9118800E+02  0.7818608E-02  0.1130116E+00
         25   -1    0    0    0    0  0.00000000000E+00  0.00000000000E+00  0.99999998245E-14  0.12500000000E+03  0.12500000000E+03 0.  0.
        -11    1    1    0    0    0 -0.28851540272E+02 -0.23652426899E+02 -0.27267026178E+02  0.46209732645E+02  0.51100000000E-03 0. -1.
         11    1    1    0    0    0 -0.10146807125E+02 -0.83515632227E+01 -0.96263628653E+01  0.16290278247E+02  0.51100000000E-03 0.  1.
         22    1    1    0    0    0  0.38998347397E+02  0.32003990121E+02  0.36893389043E+02  0.62499989108E+02  0.00000000000E+00 0. -1.
</event>
<event>
 4    1  0.1956390E-002  0.9118800E+02  0.7818608E-02  0.1130116E+00
         25   -1    0    0    0    0  0.00000000000E+00  0.00000000000E+00  0.99999998245E-14  0.12500000000E+03  0.12500000000E+03 0.  0.
        -11    1    1    0    0    0  0.93586006025E+01 -0.36892337272E+02  0.13963972756E+02  0.40541589634E+02  0.51100000000E-03 0. -1.
         11    1    1    0    0    0  0.50786694883E+01 -0.19983993328E+02  0.75510921908E+01  0.21958412207E+02  0.51100000000E-03 0.  1.
         22    1    1    0    0    0 -0.14437270091E+02  0.56876330600E+02 -0.21515064947E+02  0.62499998159E+02  0.00000000000E+00 0. -1.
</event>
<event>
 4    1  0.1956390E-002  0.9118800E+02  0.7818608E-02  0.1130116E+00
         25   -1    0    0    0    0  0.00000000000E+00  0.00000000000E+00  0.99999998245E-14  0.12500000000E+03  0.12500000000E+03 0.  0.
        -11    1    1    0    0    0 -0.17101352625E+02 -0.63848421517E+00 -0.15715106404E+01  0.17185271882E+02  0.51100000000E-03 0.  1.
         11    1    1    0    0    0 -0.45067435963E+02 -0.22407995063E+01 -0.41680306490E+01  0.45315201053E+02  0.51100000000E-03 0. -1.
         22    1    1    0    0    0  0.62168788588E+02  0.28792837215E+01  0.57395412894E+01  0.62499527066E+02  0.00000000000E+00 0. -1.
</event>
<event>
 4    1  0.1956390E-002  0.9118800E+02  0.7818608E-02  0.1130116E+00
         25   -1    0    0    0    0  0.00000000000E+00  0.00000000000E+00  0.99999998245E-14  0.12500000000E+03  0.12500000000E+03 0.  0.
        -11    1    1    0    0    0  0.58343069175E+00 -0.38478424376E+02  0.21043220271E+02  0.43860536402E+02  0.51100000000E-03 0. -1.
         11    1    1    0    0    0  0.15352485941E+02 -0.13772739347E+02 -0.16334289464E+02  0.26309621552E+02  0.51100000000E-03 0.  1.
         22    1    1    0    0    0 -0.15935916632E+02  0.52251163723E+02 -0.47089308076E+01  0.54829842045E+02  0.00000000000E+00 0.  1.
</event>
<event>
 4    1  0.1956390E-002  0.9118800E+02  0.7818608E-02  0.1130116E+00
         25   -1    0    0    0    0  0.00000000000E+00  0.00000000000E+00  0.99999998245E-14  0.12500000000E+03  0.12500000000E+03 0.  0.
        -11    1    1    0    0    0  0.11417215456E+02  0.49053775116E+02 -0.36416020106E+02  0.62151043293E+02  0.51100000000E-03 0.  1.
         11    1    1    0    0    0  0.12179458743E+00  0.28448348220E+00 -0.16838734248E+00  0.35230573569E+00  0.51100000000E-03 0. -1.
         22    1    1    0    0    0 -0.11539010044E+02 -0.49338258598E+02  0.36584407448E+02  0.62496650971E+02  0.00000000000E+00 0.  1.
</event>
<event>
 4    1  0.1956390E-002  0.9118800E+02  0.7818608E-02  0.1130116E+00
         25   -1    0    0    0    0  0.00000000000E+00  0.00000000000E+00  0.99999998245E-14  0.12500000000E+03  0.12500000000E+03 0.  0.
        -11    1    1    0    0    0 -0.53012203776E+02  0.16807807121E+02  0.85581233013E+01  0.56267553742E+02  0.51100000000E-03 0. -1.
         11    1    1    0    0    0 -0.46604281086E+01 -0.87020454964E+01 -0.27080679774E-01  0.98714699818E+01  0.51100000000E-03 0.  1.
         22    1    1    0    0    0  0.57672631885E+02 -0.81057616242E+01 -0.85310426216E+01  0.58860976276E+02  0.00000000000E+00 0. -1.
</event>
<event>
 4    1  0.1956390E-002  0.9118800E+02  0.7818608E-02  0.1130116E+00
         25   -1    0    0    0    0  0.00000000000E+00  0.00000000000E+00  0.99999998245E-14  0.12500000000E+03  0.12500000000E+03 0.  0.
        -11    1    1    0    0    0 -0.39889781209E+02  0.40994016103E+02  0.67060345699E+01  0.57590579969E+02  0.51100000000E-03 0.  1.
         11    1    1    0    0    0 -0.34000548830E+01  0.34940653554E+01  0.57754231646E+00  0.49094216873E+01  0.51100000000E-03 0. -1.
         22    1    1    0    0    0  0.43289836092E+02 -0.44488081458E+02 -0.72835768863E+01  0.62499998344E+02  0.00000000000E+00 0.  1.
</event>
<event>
 4    1  0.1956390E-002  0.9118800E+02  0.7818608E-02  0.1130116E+00
         25   -1    0    0    0    0  0.00000000000E+00  0.00000000000E+00  0.99999998245E-14  0.12500000000E+03  0.12500000000E+03 0.  0.
        -11    1    1    0    0    0  0.28856650960E+02 -0.33582919339E+02 -0.24803606156E+02  0.50751725631E+02  0.51100000000E-03 0. -1.
         11    1    1    0    0    0  0.66279341083E+01 -0.78365731229E+01 -0.57169483115E+01  0.11748399342E+02  0.51100000000E-03 0.  1.
         22    1    1    0    0    0 -0.35484585069E+02  0.41419492462E+02  0.30520554467E+02  0.62499875026E+02  0.00000000000E+00 0. -1.
</event>
<event>
 4    1  0.1956390E-002  0.9118800E+02  0.7818608E-02  0.1130116E+00
         25   -1    0    0    0    0  0.00000000000E+00  0.00000000000E+00  0.99999998245E-14  0.12500000000E+03  0.12500000000E+03 0.  0.
        -11    1    1    0    0    0 -0.16115159331E+02  0.22216898452E+02 -0.97983770792E+01  0.29142702873E+02  0.51100000000E-03 0.  1.
         11    1    1    0    0    0 -0.18547549769E+01  0.27142548276E+02 -0.21531185607E+02  0.34695100473E+02  0.51100000000E-03 0. -1.
         22    1    1    0    0    0  0.17969914308E+02 -0.49359446728E+02  0.31329562686E+02  0.61162196654E+02  0.00000000000E+00 0.  1.
</event>
