<event>
 5    1  0.8952932E-005  0.9118800E+02  0.7818608E-02  0.1130116E+00
         25   -1    0    0    0    0  0.00000000000E+00  0.00000000000E+00  0.99999998245E-14  0.12500000000E+03  0.12500000000E+03 0.  0.
        -11    1    3    3    0    0 -0.47969891010E+00  0.44742990292E+02 -0.10169877001E+02  0.45886726728E+02  0.51100000000E-03 0.  1.
         23    2    1    0    0    0  0.27380374633E+02  0.62585835878E+01  0.63815449754E+01  0.96197588645E+02  0.91784514823E+02 0.  0.
         11    1    3    3    0    0  0.27860073543E+02 -0.38484406704E+02  0.16551421976E+02  0.50310861918E+02  0.51100000000E-03 0. -1.
         22    1    1    0    0    0 -0.27380374633E+02 -0.62585835878E+01 -0.63815449754E+01  0.28802411355E+02  0.00000000000E+00 0.  1.
</event>
<event>
 5    1  0.8952932E-005  0.9118800E+02  0.7818608E-02  0.1130116E+00
         25   -1    0    0    0    0  0.00000000000E+00  0.00000000000E+00  0.99999998245E-14  0.12500000000E+03  0.12500000000E+03 0.  0.
        -11    1    3    3    0    0 -0.28080976976E+02  0.20445008760E+02  0.28043783508E+02  0.44642955153E+02  0.51100000000E-03 0. -1.
         23    2    1    0    0    0 -0.16084440460E+02  0.47993185227E+01 -0.21359164119E+02  0.97834643845E+02  0.93987557481E+02 0.  0.
         11    1    3    3    0    0  0.11996536516E+02 -0.15645690237E+02 -0.49402947627E+02  0.53191688691E+02  0.51100000000E-03 0.  1.
         22    1    1    0    0    0  0.16084440460E+02 -0.47993185227E+01  0.21359164119E+02  0.27165356155E+02  0.00000000000E+00 0.  1.
</event>
<event>
 5    1  0.8952932E-005  0.9118800E+02  0.7818608E-02  0.1130116E+00
         25   -1    0    0    0    0  0.00000000000E+00  0.00000000000E+00  0.99999998245E-14  0.12500000000E+03  0.12500000000E+03 0.  0.
        -11    1    3    3    0    0 -0.28309089307E+02  0.45888811792E+02  0.21888733581E+02  0.58191960296E+02  0.51100000000E-03 0.  1.
         23    2    1    0    0    0 -0.23891196702E+02  0.91027950674E+01  0.13109837738E+02  0.96268170900E+02  0.91880589490E+02 0.  0.
         11    1    3    3    0    0  0.44178926044E+01 -0.36786016724E+02 -0.87788958430E+01  0.38076210604E+02  0.51100000000E-03 0. -1.
         22    1    1    0    0    0  0.23891196702E+02 -0.91027950674E+01 -0.13109837738E+02  0.28731829100E+02  0.00000000000E+00 0.  1.
</event>
<event>
 5    1  0.8952932E-005  0.9118800E+02  0.7818608E-02  0.1130116E+00
         25   -1    0    0    0    0  0.00000000000E+00  0.00000000000E+00  0.99999998245E-14  0.12500000000E+03  0.12500000000E+03 0.  0.
        -11    1    3    3    0    0 -0.25095123342E+02 -0.27791207821E+02 -0.47899446977E+02  0.60798630483E+02  0.51100000000E-03 0.  1.
         23    2    1    0    0    0 -0.99520891562E+01 -0.38143272680E+01 -0.26839534936E+02  0.96121741627E+02  0.91681161678E+02 0.  0.
         11    1    3    3    0    0  0.15143034185E+02  0.23976880553E+02  0.21059912041E+02  0.35323111143E+02  0.51100000000E-03 0. -1.
         22    1    1    0    0    0  0.99520891562E+01  0.38143272680E+01  0.26839534936E+02  0.28878258373E+02  0.00000000000E+00 0.  1.
</event>
<event>
 5    1  0.8952932E-005  0.9118800E+02  0.7818608E-02  0.1130116E+00
         25   -1    0    0    0    0  0.00000000000E+00  0.00000000000E+00  0.99999998245E-14  0.12500000000E+03  0.12500000000E+03 0.  0.
        -11    1    3    3    0    0  0.44423392332E+02  0.39878473582E+02 -0.16597880230E+02  0.61961440186E+02  0.51100000000E-03 0. -1.
         23    2    1    0    0    0  0.19137857172E+02  0.18720664384E+02 -0.13331346446E+02  0.95092715767E+02  0.90267263954E+02 0.  0.
         11    1    3    3    0    0 -0.25285535160E+02 -0.21157809198E+02  0.32665337836E+01  0.33131275581E+02  0.51100000000E-03 0.  1.
         22    1    1    0    0    0 -0.19137857172E+02 -0.18720664384E+02  0.13331346446E+02  0.29907284233E+02  0.00000000000E+00 0. -1.
</event>
<event>
 5    1  0.8952932E-005  0.9118800E+02  0.7818608E-02  0.1130116E+00
         25   -1    0    0    0    0  0.00000000000E+00  0.00000000000E+00  0.99999998245E-14  0.12500000000E+03  0.12500000000E+03 0.  0.
        -11    1    3    3    0    0  0.25481058719E+02 -0.30879481901E+02  0.27811445522E+01  0.40131801868E+02  0.51100000000E-03 0. -1.
         23    2    1    0    0    0  0.50926442494E+01  0.14984045238E+02 -0.23407589712E+02  0.96744524544E+02  0.92526380757E+02 0.  0.
         11    1    3    3    0    0 -0.20388414469E+02  0.45863527138E+02 -0.26188734264E+02  0.56612722676E+02  0.51100000000E-03 0.  1.
         22    1    1    0    0    0 -0.50926442494E+01 -0.14984045238E+02  0.23407589712E+02  0.28255475456E+02  0.00000000000E+00 0.  1.
</event>
<event>
 5    1  0.8952932E-005  0.9118800E+02  0.7818608E-02  0.1130116E+00
         25   -1    0    0    0    0  0.00000000000E+00  0.00000000000E+00  0.99999998245E-14  0.12500000000E+03  0.12500000000E+03 0.  0.
        -11    1    3    3    0    0  0.30211094024E+02  0.37026581180E+02 -0.32996815703E+02  0.58072952076E+02  0.51100000000E-03 0.  1.
         23    2    1    0    0    0  0.78805609648E+01  0.80117646637E+01 -0.27751058829E+02  0.95059845019E+02  0.90221733827E+02 0.  0.
         11    1    3    3    0    0 -0.22330533059E+02 -0.29014816516E+02  0.52457568740E+01  0.36986892943E+02  0.51100000000E-03 0. -1.
         22    1    1    0    0    0 -0.78805609648E+01 -0.80117646637E+01  0.27751058829E+02  0.29940154981E+02  0.00000000000E+00 0.  1.
</event>
<event>
 5    1  0.8952932E-005  0.9118800E+02  0.7818608E-02  0.1130116E+00
         25   -1    0    0    0    0  0.00000000000E+00  0.00000000000E+00  0.99999998245E-14  0.12500000000E+03  0.12500000000E+03 0.  0.
        -11    1    3    3    0    0 -0.14392668761E+02 -0.33121768204E+02 -0.14592880465E+02  0.38950643173E+02  0.51100000000E-03 0.  1.
         23    2    1    0    0    0  0.29191965422E+02  0.13141805161E+01 -0.38650938287E+01  0.95523961156E+02  0.90862480094E+02 0.  0.
         11    1    3    3    0    0  0.43584634184E+02  0.34435948720E+02  0.10727786636E+02  0.56573317983E+02  0.51100000000E-03 0. -1.
         22    1    1    0    0    0 -0.29191965422E+02 -0.13141805161E+01  0.38650938287E+01  0.29476038844E+02  0.00000000000E+00 0. -1.
</event>
<event>
 5    1  0.8952932E-005  0.9118800E+02  0.7818608E-02  0.1130116E+00
         25   -1    0    0    0    0  0.00000000000E+00  0.00000000000E+00  0.99999998245E-14  0.12500000000E+03  0.12500000000E+03 0.  0.
        -11    1    3    3    0    0  0.86160603926E+01  0.39363400152E+02  0.45262237460E+02  0.60600197263E+02  0.51100000000E-03 0.  1.
         23    2    1    0    0    0  0.95281569918E+01  0.10045842031E+02  0.25547776664E+02  0.95941548385E+02  0.91435152410E+02 0.  0.
         11    1    3    3    0    0  0.91209659926E+00 -0.29317558121E+02 -0.19714460796E+02  0.35341351122E+02  0.51100000000E-03 0. -1.
         22    1    1    0    0    0 -0.95281569918E+01 -0.10045842031E+02 -0.25547776664E+02  0.29058451615E+02  0.00000000000E+00 0.  1.
</event>
<event>
 5    1  0.8952932E-005  0.9118800E+02  0.7818608E-02  0.1130116E+00
         25   -1    0    0    0    0  0.00000000000E+00  0.00000000000E+00  0.99999998245E-14  0.12500000000E+03  0.12500000000E+03 0.  0.
        -11    1    3    3    0    0 -0.18342948123E+02  0.33456547101E+01 -0.36319571213E+02  0.40826075058E+02  0.51100000000E-03 0.  1.
         23    2    1    0    0    0  0.17507453712E+02  0.11736547924E+02  0.11351239764E+02  0.10106032296E+03  0.98183912835E+02 0.  0.
         11    1    3    3    0    0  0.35850401835E+02  0.83908932139E+01  0.47670810977E+02  0.60234247901E+02  0.51100000000E-03 0. -1.
         22    1    1    0    0    0 -0.17507453712E+02 -0.11736547924E+02 -0.11351239764E+02  0.23939677041E+02  0.00000000000E+00 0. -1.
</event>
<event>
 5    1  0.8952932E-005  0.9118800E+02  0.7818608E-02  0.1130116E+00
         25   -1    0    0    0    0  0.00000000000E+00  0.00000000000E+00  0.99999998245E-14  0.12500000000E+03  0.12500000000E+03 0.  0.
        -11    1    3    3    0    0  0.88034098620E+01  0.20863812975E+02  0.54726590846E+02  0.59226670199E+02  0.51100000000E-03 0.  1.
         23    2    1    0    0    0  0.17207975185E+02  0.11537615428E+02  0.19795734831E+02  0.96345120883E+02  0.91985217403E+02 0.  0.
         11    1    3    3    0    0  0.84045653229E+01 -0.93261975472E+01 -0.34930856014E+02  0.37118450683E+02  0.51100000000E-03 0. -1.
         22    1    1    0    0    0 -0.17207975185E+02 -0.11537615428E+02 -0.19795734831E+02  0.28654879117E+02  0.00000000000E+00 0.  1.
</event>
<event>
 5    1  0.8952932E-005  0.9118800E+02  0.7818608E-02  0.1130116E+00
         25   -1    0    0    0    0  0.00000000000E+00  0.00000000000E+00  0.99999998245E-14  0.12500000000E+03  0.12500000000E+03 0.  0.
        -11    1    3    3    0    0  0.22161617244E+02 -0.36101716094E+02  0.23873985613E+02  0.48625490980E+02  0.51100000000E-03 0. -1.
         23    2    1    0    0    0 -0.18676768237E+02 -0.22060761258E+02  0.54042278221E+01  0.95594141104E+02  0.90958975786E+02 0.  0.
         11    1    3    3    0    0 -0.40838385480E+02  0.14040954836E+02 -0.18469757791E+02  0.46968650124E+02  0.51100000000E-03 0.  1.
         22    1    1    0    0    0  0.18676768237E+02  0.22060761258E+02 -0.54042278221E+01  0.29405858896E+02  0.00000000000E+00 0.  1.
</event>
<event>
 5    1  0.8952932E-005  0.9118800E+02  0.7818608E-02  0.1130116E+00
         25   -1    0    0    0    0  0.00000000000E+00  0.00000000000E+00  0.99999998245E-14  0.12500000000E+03  0.12500000000E+03 0.  0.
        -11    1    3    3    0    0 -0.27132343755E+02  0.43290654732E+02 -0.62398529763E+01  0.51470191667E+02  0.51100000000E-03 0.  1.
         23    2    1    0    0    0 -0.60213159575E+01  0.17233062867E+02  0.22772380940E+02  0.95814112395E+02  0.91260769768E+02 0.  0.
         11    1    3    3    0    0  0.21111027798E+02 -0.26057591865E+02  0.29012233916E+02  0.44343920728E+02  0.51100000000E-03 0. -1.
         22    1    1    0    0    0  0.60213159575E+01 -0.17233062867E+02 -0.22772380940E+02  0.29185887605E+02  0.00000000000E+00 0. -1.
</event>
<event>
 5    1  0.8952932E-005  0.9118800E+02  0.7818608E-02  0.1130116E+00
         25   -1    0    0    0    0  0.00000000000E+00  0.00000000000E+00  0.99999998245E-14  0.12500000000E+03  0.12500000000E+03 0.  0.
        -11    1    3    3    0    0  0.40300574038E+02  0.35913170923E+02  0.28879469644E+02  0.61220224442E+02  0.51100000000E-03 0.  1.
         23    2    1    0    0    0  0.14689030306E+02  0.16547669042E+02  0.21461764992E+02  0.94174680559E+02  0.88986909935E+02 0.  0.
         11    1    3    3    0    0 -0.25611543732E+02 -0.19365501881E+02 -0.74177046520E+01  0.32954456117E+02  0.51100000000E-03 0. -1.
         22    1    1    0    0    0 -0.14689030306E+02 -0.16547669042E+02 -0.21461764992E+02  0.30825319441E+02  0.00000000000E+00 0.  1.
</event>
<event>
 5    1  0.8952932E-005  0.9118800E+02  0.7818608E-02  0.1130116E+00
         25   -1    0    0    0    0  0.00000000000E+00  0.00000000000E+00  0.99999998245E-14  0.12500000000E+03  0.12500000000E+03 0.  0.
        -11    1    3    3    0    0 -0.18826495814E+02  0.86492723904E+01  0.41582847775E+02  0.46458369395E+02  0.51100000000E-03 0. -1.
         23    2    1    0    0    0 -0.26017667539E+02 -0.13166193748E+02 -0.20505693390E+01  0.95768638133E+02  0.91198462340E+02 0.  0.
         11    1    3    3    0    0 -0.71911717251E+01 -0.21815466139E+02 -0.43633417114E+02  0.49310268737E+02  0.51100000000E-03 0.  1.
         22    1    1    0    0    0  0.26017667539E+02  0.13166193748E+02  0.20505693390E+01  0.29231361867E+02  0.00000000000E+00 0. -1.
</event>
<event>
 5    1  0.8952932E-005  0.9118800E+02  0.7818608E-02  0.1130116E+00
         25   -1    0    0    0    0  0.00000000000E+00  0.00000000000E+00  0.99999998245E-14  0.12500000000E+03  0.12500000000E+03 0.  0.
        -11    1    3    3    0    0  0.39697284340E+02 -0.12054356970E+02 -0.14958511832E+02  0.44101462361E+02  0.51100000000E-03 0.  1.
         23    2    1    0    0    0  0.12757966482E+02  0.23142131627E+02  0.11998029868E+02  0.95977996525E+02  0.91484966695E+02 0.  0.
         11    1    3    3    0    0 -0.26939317858E+02  0.35196488596E+02  0.26956541700E+02  0.51876534164E+02  0.51100000000E-03 0. -1.
         22    1    1    0    0    0 -0.12757966482E+02 -0.23142131627E+02 -0.11998029868E+02  0.29022003475E+02  0.00000000000E+00 0. -1.
</event>
<event>
 5    1  0.8952932E-005  0.9118800E+02  0.7818608E-02  0.1130116E+00
         25   -1    0    0    0    0  0.00000000000E+00  0.00000000000E+00  0.99999998245E-14  0.12500000000E+03  0.12500000000E+03 0.  0.
        -11    1    3    3    0    0 -0.17611085127E+02  0.14083730532E+02  0.53791975292E+02  0.58327338283E+02  0.51100000000E-03 0. -1.
         23    2    1    0    0    0 -0.23639447543E+02  0.17801757783E+02  0.31223916945E+02  0.81980713050E+02  0.69786662498E+02 0.  0.
         11    1    3    3    0    0 -0.60283624156E+01  0.37180272514E+01 -0.22568058348E+02  0.23653374768E+02  0.51100000000E-03 0.  1.
         22    1    1    0    0    0  0.23639447543E+02 -0.17801757783E+02 -0.31223916945E+02  0.43019286950E+02  0.00000000000E+00 0. -1.
</event>
<event>
 5    1  0.8952932E-005  0.9118800E+02  0.7818608E-02  0.1130116E+00
         25   -1    0    0    0    0  0.00000000000E+00  0.00000000000E+00  0.99999998245E-14  0.12500000000E+03  0.12500000000E+03 0.  0.
        -11    1    3    3    0    0  0.33707030626E+02  0.49934866019E+02 -0.70294003897E+01  0.60655314920E+02  0.51100000000E-03 0.  1.
         23    2    1    0    0    0  0.20146889749E+02  0.18610844161E+02 -0.11840691804E+02  0.95125886300E+02  0.90313186053E+02 0.  0.
         11    1    3    3    0    0 -0.13560140877E+02 -0.31324021858E+02 -0.48112914141E+01  0.34470571380E+02  0.51100000000E-03 0. -1.
         22    1    1    0    0    0 -0.20146889749E+02 -0.18610844161E+02  0.11840691804E+02  0.29874113700E+02  0.00000000000E+00 0.  1.
</event>
<event>
 5    1  0.8952932E-005  0.9118800E+02  0.7818608E-02  0.1130116E+00
         25   -1    0    0    0    0  0.00000000000E+00  0.00000000000E+00  0.99999998245E-14  0.12500000000E+03  0.12500000000E+03 0.  0.
        -11    1    3    3    0    0 -0.17435819712E+01 -0.55165810301E+02  0.26478619063E+02  0.61216206776E+02  0.51100000000E-03 0. -1.
         23    2    1    0    0    0 -0.94537826166E+01 -0.21570500823E+02  0.10225095382E+02  0.99324854683E+02  0.95949015996E+02 0.  0.
         11    1    3    3    0    0 -0.77102006453E+01  0.33595309479E+02 -0.16253523681E+02  0.38108647907E+02  0.51100000000E-03 0.  1.
         22    1    1    0    0    0  0.94537826166E+01  0.21570500823E+02 -0.10225095382E+02  0.25675145317E+02  0.00000000000E+00 0. -1.
</event>
<event>
 5    1  0.8952932E-005  0.9118800E+02  0.7818608E-02  0.1130116E+00
         25   -1    0    0    0    0  0.00000000000E+00  0.00000000000E+00  0.99999998245E-14  0.12500000000E+03  0.12500000000E+03 0.  0.
        -11    1    3    3    0    0  0.19549785667E+02  0.27657072060E+02 -0.21298465790E+02  0.40009153950E+02  0.51100000000E-03 0.  1.
         23    2    1    0    0    0  0.30140778018E+02 -0.17051071728E+02 -0.69326409642E+00  0.90363514010E+02  0.83461838600E+02 0.  0.
         11    1    3    3    0    0  0.10590992351E+02 -0.44708143788E+02  0.20605201693E+02  0.50354360060E+02  0.51100000000E-03 0. -1.
         22    1    1    0    0    0 -0.30140778018E+02  0.17051071728E+02  0.69326409642E+00  0.34636485990E+02  0.00000000000E+00 0. -1.
</event>
<event>
 5    1  0.8952932E-005  0.9118800E+02  0.7818608E-02  0.1130116E+00
         25   -1    0    0    0    0  0.00000000000E+00  0.00000000000E+00  0.99999998245E-14  0.12500000000E+03  0.12500000000E+03 0.  0.
        -11    1    3    3    0    0 -0.12082304764E+01  0.56342668183E+01  0.31634341278E+02  0.32154880373E+02  0.51100000000E-03 0. -1.
         23    2    1    0    0    0 -0.14866682052E+02 -0.56174078465E+01 -0.27147539831E+02  0.93542688846E+02  0.88094677544E+02 0.  0.
         11    1    3    3    0    0 -0.13658451576E+02 -0.11251674665E+02 -0.58781881109E+02  0.61387808473E+02  0.51100000000E-03 0.  1.
         22    1    1    0    0    0  0.14866682052E+02  0.56174078465E+01  0.27147539831E+02  0.31457311154E+02  0.00000000000E+00 0.  1.
</event>
<event>
 5    1  0.8952932E-005  0.9118800E+02  0.7818608E-02  0.1130116E+00
         25   -1    0    0    0    0  0.00000000000E+00  0.00000000000E+00  0.99999998245E-14  0.12500000000E+03  0.12500000000E+03 0.  0.
        -11    1    3    3    0    0  0.41705740729E+02  0.30927936789E+02  0.22845773481E+02  0.56725968039E+02  0.51100000000E-03 0. -1.
         23    2    1    0    0    0  0.59562442946E+01  0.27342286056E+02  0.61302420252E+01  0.96352882865E+02  0.91995764665E+02 0.  0.
         11    1    3    3    0    0 -0.35749496434E+02 -0.35856507330E+01 -0.16715531456E+02  0.39626914826E+02  0.51100000000E-03 0.  1.
         22    1    1    0    0    0 -0.59562442946E+01 -0.27342286056E+02 -0.61302420252E+01  0.28647117135E+02  0.00000000000E+00 0. -1.
</event>
<event>
 5    1  0.8952932E-005  0.9118800E+02  0.7818608E-02  0.1130116E+00
         25   -1    0    0    0    0  0.00000000000E+00  0.00000000000E+00  0.99999998245E-14  0.12500000000E+03  0.12500000000E+03 0.  0.
        -11    1    3    3    0    0  0.56525146784E+01  0.36265453437E+02 -0.13588371282E+02  0.39137933895E+02  0.51100000000E-03 0. -1.
         23    2    1    0    0    0 -0.19130013667E+01 -0.15870863369E+02 -0.27109970142E+02  0.93527879649E+02  0.88073661853E+02 0.  0.
         11    1    3    3    0    0 -0.75655160451E+01 -0.52136316806E+02 -0.13521598859E+02  0.54389945754E+02  0.51100000000E-03 0.  1.
         22    1    1    0    0    0  0.19130013667E+01  0.15870863369E+02  0.27109970142E+02  0.31472120351E+02  0.00000000000E+00 0. -1.
</event>
<event>
 5    1  0.8952932E-005  0.9118800E+02  0.7818608E-02  0.1130116E+00
         25   -1    0    0    0    0  0.00000000000E+00  0.00000000000E+00  0.99999998245E-14  0.12500000000E+03  0.12500000000E+03 0.  0.
        -11    1    3    3    0    0  0.15025956202E+02  0.39827897471E+02 -0.45162670871E+02  0.62062127076E+02  0.51100000000E-03 0. -1.
         23    2    1    0    0    0  0.26436779506E+01  0.21397902153E+02 -0.20458773578E+02  0.95277606658E+02  0.90522934467E+02 0.  0.
         11    1    3    3    0    0 -0.12382278251E+02 -0.18429995318E+02  0.24703897294E+02  0.33215479582E+02  0.51100000000E-03 0.  1.
         22    1    1    0    0    0 -0.26436779506E+01 -0.21397902153E+02  0.20458773578E+02  0.29722393342E+02  0.00000000000E+00 0. -1.
</event>
<event>
 5    1  0.8952932E-005  0.9118800E+02  0.7818608E-02  0.1130116E+00
         25   -1    0    0    0    0  0.00000000000E+00  0.00000000000E+00  0.99999998245E-14  0.12500000000E+03  0.12500000000E+03 0.  0.
        -11    1    3    3    0    0  0.11331326074E+02  0.36512405791E+02 -0.32786063500E+02  0.50363485656E+02  0.51100000000E-03 0. -1.
         23    2    1    0    0    0  0.24179282147E+02  0.15204972556E+02  0.53911478295E+01  0.95932950778E+02  0.91423397959E+02 0.  0.
         11    1    3    3    0    0  0.12847956073E+02 -0.21307433236E+02  0.38177211330E+02  0.45569465122E+02  0.51100000000E-03 0.  1.
         22    1    1    0    0    0 -0.24179282147E+02 -0.15204972556E+02 -0.53911478295E+01  0.29067049222E+02  0.00000000000E+00 0.  1.
</event>
<event>
 5    1  0.8952932E-005  0.9118800E+02  0.7818608E-02  0.1130116E+00
         25   -1    0    0    0    0  0.00000000000E+00  0.00000000000E+00  0.99999998245E-14  0.12500000000E+03  0.12500000000E+03 0.  0.
        -11    1    3    3    0    0  0.22712934718E+02  0.25148230610E+02 -0.43256305512E+02  0.54949239059E+02  0.51100000000E-03 0. -1.
         23    2    1    0    0    0 -0.13614968090E+01  0.27851230469E+02 -0.11630894407E+02  0.94787048855E+02  0.89842986447E+02 0.  0.
         11    1    3    3    0    0 -0.24074431527E+02  0.27029998587E+01  0.31625411104E+02  0.39837809796E+02  0.51100000000E-03 0.  1.
         22    1    1    0    0    0  0.13614968090E+01 -0.27851230469E+02  0.11630894407E+02  0.30212951145E+02  0.00000000000E+00 0. -1.
</event>
<event>
 5    1  0.8952932E-005  0.9118800E+02  0.7818608E-02  0.1130116E+00
         25   -1    0    0    0    0  0.00000000000E+00  0.00000000000E+00  0.99999998245E-14  0.12500000000E+03  0.12500000000E+03 0.  0.
        -11    1    3    3    0    0 -0.52394848192E+02  0.16869962190E+02  0.43634730217E+01  0.55216443551E+02  0.51100000000E-03 0.  1.
         23    2    1    0    0    0 -0.17980387869E+02  0.17338258266E+02 -0.16123401512E+02  0.95269987825E+02  0.90512413271E+02 0.  0.
         11    1    3    3    0    0  0.34414460323E+02  0.46829607639E+00 -0.20486874534E+02  0.40053544274E+02  0.51100000000E-03 0. -1.
         22    1    1    0    0    0  0.17980387869E+02 -0.17338258266E+02  0.16123401512E+02  0.29730012175E+02  0.00000000000E+00 0.  1.
</event>
<event>
 5    1  0.8952932E-005  0.9118800E+02  0.7818608E-02  0.1130116E+00
         25   -1    0    0    0    0  0.00000000000E+00  0.00000000000E+00  0.99999998245E-14  0.12500000000E+03  0.12500000000E+03 0.  0.
        -11    1    3    3    0    0  0.20702626492E+02 -0.87200335843E+01  0.24827505780E+02  0.33481976837E+02  0.51100000000E-03 0. -1.
         23    2    1    0    0    0 -0.35258011107E+01  0.17586106663E+02 -0.24639867039E+02  0.94523361919E+02  0.89475362417E+02 0.  0.
         11    1    3    3    0    0 -0.24228427603E+02  0.26306140248E+02 -0.49467372819E+02  0.61041385082E+02  0.51100000000E-03 0.  1.
         22    1    1    0    0    0  0.35258011107E+01 -0.17586106663E+02  0.24639867039E+02  0.30476638081E+02  0.00000000000E+00 0.  1.
</event>
<event>
 5    1  0.8952932E-005  0.9118800E+02  0.7818608E-02  0.1130116E+00
         25   -1    0    0    0    0  0.00000000000E+00  0.00000000000E+00  0.99999998245E-14  0.12500000000E+03  0.12500000000E+03 0.  0.
        -11    1    3    3    0    0  0.17059242811E+02 -0.18419862510E+02 -0.31115889071E+02  0.39981341312E+02  0.51100000000E-03 0. -1.
         23    2    1    0    0    0  0.19560441169E+02  0.13596816169E+02  0.15493339435E+02  0.96582965751E+02  0.92307862274E+02 0.  0.
         11    1    3    3    0    0  0.25011983581E+01  0.32016678679E+02  0.46609228506E+02  0.56601624438E+02  0.51100000000E-03 0.  1.
         22    1    1    0    0    0 -0.19560441169E+02 -0.13596816169E+02 -0.15493339435E+02  0.28417034249E+02  0.00000000000E+00 0.  1.
</event>
<event>
 5    1  0.8952932E-005  0.9118800E+02  0.7818608E-02  0.1130116E+00
         25   -1    0    0    0    0  0.00000000000E+00  0.00000000000E+00  0.99999998245E-14  0.12500000000E+03  0.12500000000E+03 0.  0.
        -11    1    3    3    0    0  0.17612011433E+01  0.37221126210E+02  0.15192207434E+01  0.37293727325E+02  0.51100000000E-03 0.  1.
         23    2    1    0    0    0  0.18908133707E+02 -0.14426105688E+02  0.19115572512E+02  0.94487131271E+02  0.89424732696E+02 0.  0.
         11    1    3    3    0    0  0.17146932564E+02 -0.51647231899E+02  0.17596351768E+02  0.57193403946E+02  0.51100000000E-03 0. -1.
         22    1    1    0    0    0 -0.18908133707E+02  0.14426105688E+02 -0.19115572512E+02  0.30512868729E+02  0.00000000000E+00 0. -1.
</event>
<event>
 5    1  0.8952932E-005  0.9118800E+02  0.7818608E-02  0.1130116E+00
         25   -1    0    0    0    0  0.00000000000E+00  0.00000000000E+00  0.99999998245E-14  0.12500000000E+03  0.12500000000E+03 0.  0.
        -11    1    3    3    0    0 -0.20802358142E+02  0.31278604696E+02  0.11267372637E+02  0.39217890081E+02  0.51100000000E-03 0.  1.
         23    2    1    0    0    0  0.14779768239E+02  0.66961620740E+01 -0.24686107958E+02  0.95458773522E+02  0.90772756819E+02 0.  0.
         11    1    3    3    0    0  0.35582126381E+02 -0.24582442622E+02 -0.35953480595E+02  0.56240883441E+02  0.51100000000E-03 0. -1.
         22    1    1    0    0    0 -0.14779768239E+02 -0.66961620740E+01  0.24686107958E+02  0.29541226478E+02  0.00000000000E+00 0. -1.
</event>
<event>
 5    1  0.8952932E-005  0.9118800E+02  0.7818608E-02  0.1130116E+00
         25   -1    0    0    0    0  0.00000000000E+00  0.00000000000E+00  0.99999998245E-14  0.12500000000E+03  0.12500000000E+03 0.  0.
        -11    1    3    3    0    0  0.46989096336E+02 -0.90629725259E+00  0.25843801127E+02  0.53634863719E+02  0.51100000000E-03 0. -1.
         23    2    1    0    0    0  0.48582726466E+01  0.46211626735E+00  0.28703302021E+02  0.95884782132E+02  0.91357514924E+02 0.  0.
         11    1    3    3    0    0 -0.42130823690E+02  0.13684135199E+01  0.28595008948E+01  0.42249918414E+02  0.51100000000E-03 0.  1.
         22    1    1    0    0    0 -0.48582726466E+01 -0.46211626735E+00 -0.28703302021E+02  0.29115217868E+02  0.00000000000E+00 0. -1.
</event>
<event>
 5    1  0.8952932E-005  0.9118800E+02  0.7818608E-02  0.1130116E+00
         25   -1    0    0    0    0  0.00000000000E+00  0.00000000000E+00  0.99999998245E-14  0.12500000000E+03  0.12500000000E+03 0.  0.
        -11    1    3    3    0    0 -0.45904617090E+01  0.56940718562E+02  0.32215274696E+01  0.57216221551E+02  0.51100000000E-03 0. -1.
         23    2    1    0    0    0 -0.85261894578E+01  0.23423277879E+02 -0.15339562021E+02  0.95731450048E+02  0.91147476718E+02 0.  0.
         11    1    3    3    0    0 -0.39357277488E+01 -0.33517440683E+02 -0.18561089491E+02  0.38515228497E+02  0.51100000000E-03 0.  1.
         22    1    1    0    0    0  0.85261894578E+01 -0.23423277879E+02  0.15339562021E+02  0.29268549952E+02  0.00000000000E+00 0. -1.
</event>
<event>
 5    1  0.8952932E-005  0.9118800E+02  0.7818608E-02  0.1130116E+00
         25   -1    0    0    0    0  0.00000000000E+00  0.00000000000E+00  0.99999998245E-14  0.12500000000E+03  0.12500000000E+03 0.  0.
        -11    1    3    3    0    0  0.12346915487E+02  0.68939607108E+01  0.35082636553E+02  0.37825446516E+02  0.51100000000E-03 0. -1.
         23    2    1    0    0    0 -0.29572034989E+02  0.38298257738E+01 -0.36212324198E+01  0.94961921781E+02  0.90085961422E+02 0.  0.
         11    1    3    3    0    0 -0.41918950476E+02 -0.30641349369E+01 -0.38703868973E+02  0.57136475265E+02  0.51100000000E-03 0.  1.
         22    1    1    0    0    0  0.29572034989E+02 -0.38298257738E+01  0.36212324198E+01  0.30038078219E+02  0.00000000000E+00 0.  1.
</event>
<event>
 5    1  0.8952932E-005  0.9118800E+02  0.7818608E-02  0.1130116E+00
         25   -1    0    0    0    0  0.00000000000E+00  0.00000000000E+00  0.99999998245E-14  0.12500000000E+03  0.12500000000E+03 0.  0.
        -11    1    3    3    0    0  0.28869915098E+02 -0.17919575539E+02 -0.17757918802E+02  0.38339625268E+02  0.51100000000E-03 0.  1.
         23    2    1    0    0    0 -0.64110770852E+01  0.10893624793E+02  0.22539822126E+02  0.99157853185E+02  0.95731203357E+02 0.  0.
         11    1    3    3    0    0 -0.35280992183E+02  0.28813200332E+02  0.40297740928E+02  0.60818227917E+02  0.51100000000E-03 0. -1.
         22    1    1    0    0    0  0.64110770852E+01 -0.10893624793E+02 -0.22539822126E+02  0.25842146815E+02  0.00000000000E+00 0. -1.
</event>
<event>
 5    1  0.8952932E-005  0.9118800E+02  0.7818608E-02  0.1130116E+00
         25   -1    0    0    0    0  0.00000000000E+00  0.00000000000E+00  0.99999998245E-14  0.12500000000E+03  0.12500000000E+03 0.  0.
        -11    1    3    3    0    0  0.36799222976E+02 -0.12861258323E+02 -0.25144673592E+01  0.39062991740E+02  0.51100000000E-03 0.  1.
         23    2    1    0    0    0 -0.14227648230E+02  0.75069434220E+01 -0.22338641703E+02  0.97471921846E+02  0.93503906129E+02 0.  0.
         11    1    3    3    0    0 -0.51026871207E+02  0.20368201745E+02 -0.19824174344E+02  0.58408930106E+02  0.51100000000E-03 0. -1.
         22    1    1    0    0    0  0.14227648230E+02 -0.75069434220E+01  0.22338641703E+02  0.27528078154E+02  0.00000000000E+00 0. -1.
</event>
<event>
 5    1  0.8952932E-005  0.9118800E+02  0.7818608E-02  0.1130116E+00
         25   -1    0    0    0    0  0.00000000000E+00  0.00000000000E+00  0.99999998245E-14  0.12500000000E+03  0.12500000000E+03 0.  0.
        -11    1    3    3    0    0  0.34170335448E+02 -0.62429163609E+00  0.56441479276E+01  0.34638966075E+02  0.51100000000E-03 0.  1.
         23    2    1    0    0    0 -0.23494135223E+02  0.14826758336E+02  0.12124149899E+02  0.94688250407E+02  0.89705421250E+02 0.  0.
         11    1    3    3    0    0 -0.57664470670E+02  0.15451049973E+02  0.64800019717E+01  0.60049284332E+02  0.51100000000E-03 0. -1.
         22    1    1    0    0    0  0.23494135223E+02 -0.14826758336E+02 -0.12124149899E+02  0.30311749593E+02  0.00000000000E+00 0. -1.
</event>
<event>
 5    1  0.8952932E-005  0.9118800E+02  0.7818608E-02  0.1130116E+00
         25   -1    0    0    0    0  0.00000000000E+00  0.00000000000E+00  0.99999998245E-14  0.12500000000E+03  0.12500000000E+03 0.  0.
        -11    1    3    3    0    0 -0.22495719255E+02 -0.72341891433E+01 -0.52881610263E+02  0.57921115162E+02  0.51100000000E-03 0. -1.
         23    2    1    0    0    0  0.13276768457E+01 -0.15615186414E+02 -0.24547002743E+02  0.95876948714E+02  0.91346796214E+02 0.  0.
         11    1    3    3    0    0  0.23823396100E+02 -0.83809972708E+01  0.28334607521E+02  0.37955833552E+02  0.51100000000E-03 0.  1.
         22    1    1    0    0    0 -0.13276768457E+01  0.15615186414E+02  0.24547002743E+02  0.29123051286E+02  0.00000000000E+00 0. -1.
</event>
<event>
 5    1  0.8952932E-005  0.9118800E+02  0.7818608E-02  0.1130116E+00
         25   -1    0    0    0    0  0.00000000000E+00  0.00000000000E+00  0.99999998245E-14  0.12500000000E+03  0.12500000000E+03 0.  0.
        -11    1    3    3    0    0 -0.16158691833E+02 -0.32329812668E+02  0.62145338198E+01  0.36673430979E+02  0.51100000000E-03 0.  1.
         23    2    1    0    0    0 -0.29665146661E+02  0.18868753444E+02  0.25084485404E+01  0.89753112236E+02  0.82542583308E+02 0.  0.
         11    1    3    3    0    0 -0.13506454827E+02  0.51198566113E+02 -0.37060852794E+01  0.53079681257E+02  0.51100000000E-03 0. -1.
         22    1    1    0    0    0  0.29665146661E+02 -0.18868753444E+02 -0.25084485404E+01  0.35246887764E+02  0.00000000000E+00 0. -1.
</event>
<event>
 5    1  0.8952932E-005  0.9118800E+02  0.7818608E-02  0.1130116E+00
         25   -1    0    0    0    0  0.00000000000E+00  0.00000000000E+00  0.99999998245E-14  0.12500000000E+03  0.12500000000E+03 0.  0.
        -11    1    3    3    0    0  0.24339447445E+02  0.20965527729E+02  0.26952199250E+02  0.41933078822E+02  0.51100000000E-03 0.  1.
         23    2    1    0    0    0  0.15530328625E+02 -0.24476876226E+02 -0.97849018920E+00  0.95995413810E+02  0.91508761617E+02 0.  0.
         11    1    3    3    0    0 -0.88091188193E+01 -0.45442403955E+02 -0.27930689439E+02  0.54062334988E+02  0.51100000000E-03 0. -1.
         22    1    1    0    0    0 -0.15530328625E+02  0.24476876226E+02  0.97849018920E+00  0.29004586190E+02  0.00000000000E+00 0. -1.
</event>
<event>
 5    1  0.8952932E-005  0.9118800E+02  0.7818608E-02  0.1130116E+00
         25   -1    0    0    0    0  0.00000000000E+00  0.00000000000E+00  0.99999998245E-14  0.12500000000E+03  0.12500000000E+03 0.  0.
        -11    1    3    3    0    0  0.53010914804E+02  0.12519053989E+02  0.20854690306E+02  0.58324968145E+02  0.51100000000E-03 0.  1.
         23    2    1    0    0    0  0.18073600255E+02  0.20345600854E+02  0.12297090334E+02  0.95136695913E+02  0.90328146102E+02 0.  0.
         11    1    3    3    0    0 -0.34937314549E+02  0.78265468651E+01 -0.85575999720E+01  0.36811727768E+02  0.51100000000E-03 0. -1.
         22    1    1    0    0    0 -0.18073600255E+02 -0.20345600854E+02 -0.12297090334E+02  0.29863304087E+02  0.00000000000E+00 0.  1.
</event>
<event>
 5    1  0.8952932E-005  0.9118800E+02  0.7818608E-02  0.1130116E+00
         25   -1    0    0    0    0  0.00000000000E+00  0.00000000000E+00  0.99999998245E-14  0.12500000000E+03  0.12500000000E+03 0.  0.
        -11    1    3    3    0    0 -0.41170807195E+02 -0.34948332402E+02 -0.29020134716E+02  0.61307336608E+02  0.51100000000E-03 0.  1.
         23    2    1    0    0    0 -0.26236392956E+02 -0.11130930008E+02 -0.16352541984E+02  0.92141948513E+02  0.86084186285E+02 0.  0.
         11    1    3    3    0    0  0.14934414240E+02  0.23817402394E+02  0.12667592732E+02  0.30834611905E+02  0.51100000000E-03 0. -1.
         22    1    1    0    0    0  0.26236392956E+02  0.11130930008E+02  0.16352541984E+02  0.32858051487E+02  0.00000000000E+00 0.  1.
</event>
<event>
 5    1  0.8952932E-005  0.9118800E+02  0.7818608E-02  0.1130116E+00
         25   -1    0    0    0    0  0.00000000000E+00  0.00000000000E+00  0.99999998245E-14  0.12500000000E+03  0.12500000000E+03 0.  0.
        -11    1    3    3    0    0 -0.38563227422E+02  0.25665647470E+02 -0.78092856662E+01  0.46976940217E+02  0.51100000000E-03 0.  1.
         23    2    1    0    0    0 -0.11717002226E+02  0.13116934919E+02  0.27052866794E+02  0.92732373428E+02  0.86937295547E+02 0.  0.
         11    1    3    3    0    0  0.26846225196E+02 -0.12548712551E+02  0.34862152460E+02  0.45755433211E+02  0.51100000000E-03 0. -1.
         22    1    1    0    0    0  0.11717002226E+02 -0.13116934919E+02 -0.27052866794E+02  0.32267626572E+02  0.00000000000E+00 0. -1.
</event>
<event>
 5    1  0.8952932E-005  0.9118800E+02  0.7818608E-02  0.1130116E+00
         25   -1    0    0    0    0  0.00000000000E+00  0.00000000000E+00  0.99999998245E-14  0.12500000000E+03  0.12500000000E+03 0.  0.
        -11    1    3    3    0    0  0.52376003670E+02 -0.17390668823E+02 -0.29333561665E+02  0.62499111696E+02  0.51100000000E-03 0.  1.
         23    2    1    0    0    0  0.24531337531E+02 -0.79086226405E+01 -0.13620610154E+02  0.95847747015E+02  0.91306827531E+02 0.  0.
         11    1    3    3    0    0 -0.27844666138E+02  0.94820461821E+01  0.15712951512E+02  0.33348635319E+02  0.51100000000E-03 0. -1.
         22    1    1    0    0    0 -0.24531337531E+02  0.79086226405E+01  0.13620610154E+02  0.29152252985E+02  0.00000000000E+00 0.  1.
</event>
<event>
 5    1  0.8952932E-005  0.9118800E+02  0.7818608E-02  0.1130116E+00
         25   -1    0    0    0    0  0.00000000000E+00  0.00000000000E+00  0.99999998245E-14  0.12500000000E+03  0.12500000000E+03 0.  0.
        -11    1    3    3    0    0  0.11307903347E+02 -0.58298014592E+02  0.69404752528E+01  0.59788773030E+02  0.51100000000E-03 0.  1.
         23    2    1    0    0    0  0.13015734162E+02 -0.29197361925E+02 -0.72668405847E+01  0.92217348319E+02  0.86193602314E+02 0.  0.
         11    1    3    3    0    0  0.17078308143E+01  0.29100652667E+02 -0.14207315837E+02  0.32428575289E+02  0.51100000000E-03 0. -1.
         22    1    1    0    0    0 -0.13015734162E+02  0.29197361925E+02  0.72668405847E+01  0.32782651681E+02  0.00000000000E+00 0.  1.
</event>
<event>
 5    1  0.8952932E-005  0.9118800E+02  0.7818608E-02  0.1130116E+00
         25   -1    0    0    0    0  0.00000000000E+00  0.00000000000E+00  0.99999998245E-14  0.12500000000E+03  0.12500000000E+03 0.  0.
        -11    1    3    3    0    0  0.19775396137E+02 -0.23266455971E+02  0.23753672342E+02  0.38686318200E+02  0.51100000000E-03 0. -1.
         23    2    1    0    0    0  0.12605941211E+02  0.12656932325E+02 -0.21589854625E+02  0.96978053023E+02  0.92841333767E+02 0.  0.
         11    1    3    3    0    0 -0.71694549267E+01  0.35923388296E+02 -0.45343526967E+02  0.58291734823E+02  0.51100000000E-03 0.  1.
         22    1    1    0    0    0 -0.12605941211E+02 -0.12656932325E+02  0.21589854625E+02  0.28021946977E+02  0.00000000000E+00 0.  1.
</event>
<event>
 5    1  0.8952932E-005  0.9118800E+02  0.7818608E-02  0.1130116E+00
         25   -1    0    0    0    0  0.00000000000E+00  0.00000000000E+00  0.99999998245E-14  0.12500000000E+03  0.12500000000E+03 0.  0.
        -11    1    3    3    0    0  0.66809483511E+01  0.53011016018E+02 -0.54042811991E+01  0.53702971479E+02  0.51100000000E-03 0. -1.
         23    2    1    0    0    0  0.24370310889E+02  0.13643123349E+02 -0.17997184465E+01  0.97012755512E+02  0.92888044861E+02 0.  0.
         11    1    3    3    0    0  0.17689362537E+02 -0.39367892668E+02  0.36045627526E+01  0.43309784033E+02  0.51100000000E-03 0.  1.
         22    1    1    0    0    0 -0.24370310889E+02 -0.13643123349E+02  0.17997184465E+01  0.27987244488E+02  0.00000000000E+00 0. -1.
</event>
<event>
 5    1  0.8952932E-005  0.9118800E+02  0.7818608E-02  0.1130116E+00
         25   -1    0    0    0    0  0.00000000000E+00  0.00000000000E+00  0.99999998245E-14  0.12500000000E+03  0.12500000000E+03 0.  0.
        -11    1    3    3    0    0  0.29075468704E+01  0.21365522404E+02 -0.25828235212E+02  0.33645759181E+02  0.51100000000E-03 0. -1.
         23    2    1    0    0    0  0.27145634711E+02 -0.17713465359E+02  0.90325058803E+01  0.91351248145E+02  0.84928275835E+02 0.  0.
         11    1    3    3    0    0  0.24238087841E+02 -0.39078987764E+02  0.34860741092E+02  0.57705488964E+02  0.51100000000E-03 0.  1.
         22    1    1    0    0    0 -0.27145634711E+02  0.17713465359E+02 -0.90325058803E+01  0.33648751855E+02  0.00000000000E+00 0.  1.
</event>
<event>
 5    1  0.8952932E-005  0.9118800E+02  0.7818608E-02  0.1130116E+00
         25   -1    0    0    0    0  0.00000000000E+00  0.00000000000E+00  0.99999998245E-14  0.12500000000E+03  0.12500000000E+03 0.  0.
        -11    1    3    3    0    0 -0.27385967970E+02  0.13559677582E+02 -0.23198284816E+02  0.38366867431E+02  0.51100000000E-03 0.  1.
         23    2    1    0    0    0 -0.60533399798E+01 -0.17905030325E+02  0.21055007597E+02  0.96706071662E+02  0.92474417628E+02 0.  0.
         11    1    3    3    0    0  0.21332627990E+02 -0.31464707907E+02  0.44253292414E+02  0.58339204231E+02  0.51100000000E-03 0. -1.
         22    1    1    0    0    0  0.60533399798E+01  0.17905030325E+02 -0.21055007597E+02  0.28293928338E+02  0.00000000000E+00 0. -1.
</event>
<event>
 5    1  0.8952932E-005  0.9118800E+02  0.7818608E-02  0.1130116E+00
         25   -1    0    0    0    0  0.00000000000E+00  0.00000000000E+00  0.99999998245E-14  0.12500000000E+03  0.12500000000E+03 0.  0.
        -11    1    3    3    0    0 -0.30681506108E+02 -0.11100780145E+02 -0.36495949216E+02  0.48954432346E+02  0.51100000000E-03 0. -1.
         23    2    1    0    0    0 -0.77773990759E+01  0.23625446468E+02 -0.16831987656E+02  0.94967260104E+02  0.90093368379E+02 0.  0.
         11    1    3    3    0    0  0.22904107032E+02  0.34726226614E+02  0.19663961560E+02  0.46012827757E+02  0.51100000000E-03 0.  1.
         22    1    1    0    0    0  0.77773990759E+01 -0.23625446468E+02  0.16831987656E+02  0.30032739896E+02  0.00000000000E+00 0.  1.
</event>
<event>
 5    1  0.8952932E-005  0.9118800E+02  0.7818608E-02  0.1130116E+00
         25   -1    0    0    0    0  0.00000000000E+00  0.00000000000E+00  0.99999998245E-14  0.12500000000E+03  0.12500000000E+03 0.  0.
        -11    1    3    3    0    0 -0.53612657132E+02 -0.24068847606E+02  0.99170236673E+01  0.59598437803E+02  0.51100000000E-03 0. -1.
         23    2    1    0    0    0 -0.26829734111E+02  0.10628729457E+00  0.11716775910E+02  0.95723238445E+02  0.91136214597E+02 0.  0.
         11    1    3    3    0    0  0.26782923021E+02  0.24175134901E+02  0.17997522428E+01  0.36124800642E+02  0.51100000000E-03 0.  1.
         22    1    1    0    0    0  0.26829734111E+02 -0.10628729457E+00 -0.11716775910E+02  0.29276761555E+02  0.00000000000E+00 0. -1.
</event>
<event>
 5    1  0.8952932E-005  0.9118800E+02  0.7818608E-02  0.1130116E+00
         25   -1    0    0    0    0  0.00000000000E+00  0.00000000000E+00  0.99999998245E-14  0.12500000000E+03  0.12500000000E+03 0.  0.
        -11    1    3    3    0    0 -0.10659868572E+02  0.13843622711E+02  0.53626408459E+02  0.56400978468E+02  0.51100000000E-03 0. -1.
         23    2    1    0    0    0  0.11453533547E+02  0.16241462462E+02  0.19349395399E+02  0.97262522899E+02  0.93223552415E+02 0.  0.
         11    1    3    3    0    0  0.22113402118E+02  0.23978397511E+01 -0.34277013060E+02  0.40861544431E+02  0.51100000000E-03 0.  1.
         22    1    1    0    0    0 -0.11453533547E+02 -0.16241462462E+02 -0.19349395399E+02  0.27737477101E+02  0.00000000000E+00 0. -1.
</event>
<event>
 5    1  0.8952932E-005  0.9118800E+02  0.7818608E-02  0.1130116E+00
         25   -1    0    0    0    0  0.00000000000E+00  0.00000000000E+00  0.99999998245E-14  0.12500000000E+03  0.12500000000E+03 0.  0.
        -11    1    3    3    0    0 -0.11858921380E+02  0.25324652814E+02  0.24794681147E+02  0.37373095535E+02  0.51100000000E-03 0.  1.
         23    2    1    0    0    0 -0.76887062207E+01  0.12837486927E+02 -0.28791115359E+02  0.92552417693E+02  0.86678165782E+02 0.  0.
         11    1    3    3    0    0  0.41702151597E+01 -0.12487165887E+02 -0.53585796506E+02  0.55179322158E+02  0.51100000000E-03 0. -1.
         22    1    1    0    0    0  0.76887062207E+01 -0.12837486927E+02  0.28791115359E+02  0.32447582307E+02  0.00000000000E+00 0. -1.
</event>
<event>
 5    1  0.8952932E-005  0.9118800E+02  0.7818608E-02  0.1130116E+00
         25   -1    0    0    0    0  0.00000000000E+00  0.00000000000E+00  0.99999998245E-14  0.12500000000E+03  0.12500000000E+03 0.  0.
        -11    1    3    3    0    0  0.27966016962E+02  0.22797407637E+02  0.25255642843E+02  0.44041655230E+02  0.51100000000E-03 0.  1.
         23    2    1    0    0    0  0.17244319933E+02 -0.22592356424E+02  0.11179850782E+01  0.96556529231E+02  0.92272055942E+02 0.  0.
         11    1    3    3    0    0 -0.10721697030E+02 -0.45389764061E+02 -0.24137657765E+02  0.52514874001E+02  0.51100000000E-03 0. -1.
         22    1    1    0    0    0 -0.17244319933E+02  0.22592356424E+02 -0.11179850782E+01  0.28443470769E+02  0.00000000000E+00 0. -1.
</event>
<event>
 5    1  0.8952932E-005  0.9118800E+02  0.7818608E-02  0.1130116E+00
         25   -1    0    0    0    0  0.00000000000E+00  0.00000000000E+00  0.99999998245E-14  0.12500000000E+03  0.12500000000E+03 0.  0.
        -11    1    3    3    0    0 -0.12432361613E+02 -0.31744558372E+02 -0.18881351098E+02  0.38971605318E+02  0.51100000000E-03 0.  1.
         23    2    1    0    0    0  0.30265898990E+02 -0.66708096152E+01  0.44161597758E+01  0.93694620115E+02  0.88309993934E+02 0.  0.
         11    1    3    3    0    0  0.42698260603E+02  0.25073748757E+02  0.23297510874E+02  0.54723014797E+02  0.51100000000E-03 0. -1.
         22    1    1    0    0    0 -0.30265898990E+02  0.66708096152E+01 -0.44161597758E+01  0.31305379885E+02  0.00000000000E+00 0. -1.
</event>
<event>
 5    1  0.8952932E-005  0.9118800E+02  0.7818608E-02  0.1130116E+00
         25   -1    0    0    0    0  0.00000000000E+00  0.00000000000E+00  0.99999998245E-14  0.12500000000E+03  0.12500000000E+03 0.  0.
        -11    1    3    3    0    0 -0.12989202185E+02 -0.53088421898E+02  0.54683037318E+00  0.54657103259E+02  0.51100000000E-03 0.  1.
         23    2    1    0    0    0 -0.20139036325E+02 -0.20487939435E+02 -0.16221490935E+02  0.92007982564E+02  0.85889438471E+02 0.  0.
         11    1    3    3    0    0 -0.71498341403E+01  0.32600482463E+02 -0.16768321308E+02  0.37350879304E+02  0.51100000000E-03 0. -1.
         22    1    1    0    0    0  0.20139036325E+02  0.20487939435E+02  0.16221490935E+02  0.32992017436E+02  0.00000000000E+00 0.  1.
</event>
<event>
 5    1  0.8952932E-005  0.9118800E+02  0.7818608E-02  0.1130116E+00
         25   -1    0    0    0    0  0.00000000000E+00  0.00000000000E+00  0.99999998245E-14  0.12500000000E+03  0.12500000000E+03 0.  0.
        -11    1    3    3    0    0  0.21281145461E+02  0.41524154285E+02 -0.33187172012E+02  0.57258457258E+02  0.51100000000E-03 0. -1.
         23    2    1    0    0    0  0.17171307989E+01  0.29046943406E+02 -0.24101108167E+01  0.95802704003E+02  0.91245142340E+02 0.  0.
         11    1    3    3    0    0 -0.19564014662E+02 -0.12477210879E+02  0.30777061195E+02  0.38544246744E+02  0.51100000000E-03 0.  1.
         22    1    1    0    0    0 -0.17171307989E+01 -0.29046943406E+02  0.24101108167E+01  0.29197295997E+02  0.00000000000E+00 0. -1.
</event>
<event>
 5    1  0.8952932E-005  0.9118800E+02  0.7818608E-02  0.1130116E+00
         25   -1    0    0    0    0  0.00000000000E+00  0.00000000000E+00  0.99999998245E-14  0.12500000000E+03  0.12500000000E+03 0.  0.
        -11    1    3    3    0    0  0.26213863263E+02  0.11067604101E+02 -0.27286634011E+02  0.39423582836E+02  0.51100000000E-03 0. -1.
         23    2    1    0    0    0 -0.73315675650E+01  0.18079829772E+02  0.19498025927E+02  0.97417303566E+02  0.93430861558E+02 0.  0.
         11    1    3    3    0    0 -0.33545430828E+02  0.70122256707E+01  0.46784659938E+02  0.57993720730E+02  0.51100000000E-03 0.  1.
         22    1    1    0    0    0  0.73315675650E+01 -0.18079829772E+02 -0.19498025927E+02  0.27582696434E+02  0.00000000000E+00 0.  1.
</event>
<event>
 5    1  0.8952932E-005  0.9118800E+02  0.7818608E-02  0.1130116E+00
         25   -1    0    0    0    0  0.00000000000E+00  0.00000000000E+00  0.99999998245E-14  0.12500000000E+03  0.12500000000E+03 0.  0.
        -11    1    3    3    0    0  0.39644095191E+02 -0.12070229286E+02 -0.29887707879E+02  0.51094224732E+02  0.51100000000E-03 0. -1.
         23    2    1    0    0    0 -0.12247696554E+01 -0.21801654963E+02 -0.22307394708E+02  0.93784105355E+02  0.88436566751E+02 0.  0.
         11    1    3    3    0    0 -0.40868864846E+02 -0.97314256780E+01  0.75803131714E+01  0.42689880623E+02  0.51100000000E-03 0.  1.
         22    1    1    0    0    0  0.12247696554E+01  0.21801654963E+02  0.22307394708E+02  0.31215894645E+02  0.00000000000E+00 0. -1.
</event>
<event>
 5    1  0.8952932E-005  0.9118800E+02  0.7818608E-02  0.1130116E+00
         25   -1    0    0    0    0  0.00000000000E+00  0.00000000000E+00  0.99999998245E-14  0.12500000000E+03  0.12500000000E+03 0.  0.
        -11    1    3    3    0    0 -0.52698623243E+01  0.98993345924E+01  0.42734481706E+02  0.44181491614E+02  0.51100000000E-03 0. -1.
         23    2    1    0    0    0  0.20573851282E+02 -0.19412467672E+02  0.10538406301E+02  0.94814154557E+02  0.89880691138E+02 0.  0.
         11    1    3    3    0    0  0.25843713607E+02 -0.29311802265E+02 -0.32196075405E+02  0.50632662943E+02  0.51100000000E-03 0.  1.
         22    1    1    0    0    0 -0.20573851282E+02  0.19412467672E+02 -0.10538406301E+02  0.30185845443E+02  0.00000000000E+00 0.  1.
</event>
<event>
 5    1  0.8952932E-005  0.9118800E+02  0.7818608E-02  0.1130116E+00
         25   -1    0    0    0    0  0.00000000000E+00  0.00000000000E+00  0.99999998245E-14  0.12500000000E+03  0.12500000000E+03 0.  0.
        -11    1    3    3    0    0  0.19297037613E+02 -0.10692820574E+02 -0.48726764675E+02  0.53488406860E+02  0.51100000000E-03 0.  1.
         23    2    1    0    0    0  0.15473596648E+02  0.17355730651E+02 -0.15918659489E+02  0.96820977668E+02  0.92629608749E+02 0.  0.
         11    1    3    3    0    0 -0.38234409650E+01  0.28048551225E+02  0.32808105186E+02  0.43332570808E+02  0.51100000000E-03 0. -1.
         22    1    1    0    0    0 -0.15473596648E+02 -0.17355730651E+02  0.15918659489E+02  0.28179022332E+02  0.00000000000E+00 0.  1.
</event>
<event>
 5    1  0.8952932E-005  0.9118800E+02  0.7818608E-02  0.1130116E+00
         25   -1    0    0    0    0  0.00000000000E+00  0.00000000000E+00  0.99999998245E-14  0.12500000000E+03  0.12500000000E+03 0.  0.
        -11    1    3    3    0    0  0.35420450748E+02 -0.38572280295E+02 -0.16442329676E+02  0.54888790693E+02  0.51100000000E-03 0.  1.
         23    2    1    0    0    0 -0.27325999339E+01 -0.23735026829E+02 -0.16741552818E+02  0.95826412772E+02  0.91277616057E+02 0.  0.
         11    1    3    3    0    0 -0.38153050682E+02  0.14837253466E+02 -0.29922314210E+00  0.40937622079E+02  0.51100000000E-03 0. -1.
         22    1    1    0    0    0  0.27325999339E+01  0.23735026829E+02  0.16741552818E+02  0.29173587228E+02  0.00000000000E+00 0.  1.
</event>
<event>
 5    1  0.8952932E-005  0.9118800E+02  0.7818608E-02  0.1130116E+00
         25   -1    0    0    0    0  0.00000000000E+00  0.00000000000E+00  0.99999998245E-14  0.12500000000E+03  0.12500000000E+03 0.  0.
        -11    1    3    3    0    0 -0.65832894378E+01 -0.39772868520E+02 -0.26590665483E+02  0.48293729005E+02  0.51100000000E-03 0. -1.
         23    2    1    0    0    0 -0.24505623862E+02  0.37815208244E+01 -0.77325304121E+01  0.99026599622E+02  0.95559666730E+02 0.  0.
         11    1    3    3    0    0 -0.17922334425E+02  0.43554389344E+02  0.18858135071E+02  0.50732870617E+02  0.51100000000E-03 0.  1.
         22    1    1    0    0    0  0.24505623862E+02 -0.37815208244E+01  0.77325304121E+01  0.25973400378E+02  0.00000000000E+00 0. -1.
</event>
<event>
 5    1  0.8952932E-005  0.9118800E+02  0.7818608E-02  0.1130116E+00
         25   -1    0    0    0    0  0.00000000000E+00  0.00000000000E+00  0.99999998245E-14  0.12500000000E+03  0.12500000000E+03 0.  0.
        -11    1    3    3    0    0 -0.80307291634E+01 -0.29435090928E+02 -0.47662145766E+02  0.56591495193E+02  0.51100000000E-03 0.  1.
         23    2    1    0    0    0 -0.17330542487E+02 -0.29992709057E+02 -0.21822426147E+02  0.84059450634E+02  0.73415684008E+02 0.  0.
         11    1    3    3    0    0 -0.92998133238E+01 -0.55761812960E+00  0.25839719619E+02  0.27467955441E+02  0.51100000000E-03 0. -1.
         22    1    1    0    0    0  0.17330542487E+02  0.29992709057E+02  0.21822426147E+02  0.40940549366E+02  0.00000000000E+00 0.  1.
</event>
<event>
 5    1  0.8952932E-005  0.9118800E+02  0.7818608E-02  0.1130116E+00
         25   -1    0    0    0    0  0.00000000000E+00  0.00000000000E+00  0.99999998245E-14  0.12500000000E+03  0.12500000000E+03 0.  0.
        -11    1    3    3    0    0 -0.74147260304E+01 -0.22216949659E+02 -0.47661619607E+02  0.53105564662E+02  0.51100000000E-03 0.  1.
         23    2    1    0    0    0  0.12445336445E+02  0.78973907030E+01 -0.25800031178E+02  0.95286420816E+02  0.90535104815E+02 0.  0.
         11    1    3    3    0    0  0.19860062475E+02  0.30114340362E+02  0.21861588428E+02  0.42180856154E+02  0.51100000000E-03 0. -1.
         22    1    1    0    0    0 -0.12445336445E+02 -0.78973907030E+01  0.25800031178E+02  0.29713579184E+02  0.00000000000E+00 0. -1.
</event>
<event>
 5    1  0.8952932E-005  0.9118800E+02  0.7818608E-02  0.1130116E+00
         25   -1    0    0    0    0  0.00000000000E+00  0.00000000000E+00  0.99999998245E-14  0.12500000000E+03  0.12500000000E+03 0.  0.
        -11    1    3    3    0    0  0.38758431652E+02 -0.18853922699E+02  0.19564455499E+02  0.47333437911E+02  0.51100000000E-03 0.  1.
         23    2    1    0    0    0  0.20314375981E+02 -0.11530587221E+02 -0.21697068838E+02  0.93119110594E+02  0.87491586158E+02 0.  0.
         11    1    3    3    0    0 -0.18444055670E+02  0.73233354778E+01 -0.41261524338E+02  0.45785672683E+02  0.51100000000E-03 0. -1.
         22    1    1    0    0    0 -0.20314375981E+02  0.11530587221E+02  0.21697068838E+02  0.31880889406E+02  0.00000000000E+00 0. -1.
</event>
<event>
 5    1  0.8952932E-005  0.9118800E+02  0.7818608E-02  0.1130116E+00
         25   -1    0    0    0    0  0.00000000000E+00  0.00000000000E+00  0.99999998245E-14  0.12500000000E+03  0.12500000000E+03 0.  0.
        -11    1    3    3    0    0 -0.10450184415E+01 -0.34259632103E+02 -0.20175876066E+02  0.39772860479E+02  0.51100000000E-03 0.  1.
         23    2    1    0    0    0  0.10091117837E+02  0.20566629454E+02 -0.18179549736E+02  0.95754266381E+02  0.91178761755E+02 0.  0.
         11    1    3    3    0    0  0.11136136279E+02  0.54826261558E+02  0.19963263296E+01  0.55981405901E+02  0.51100000000E-03 0. -1.
         22    1    1    0    0    0 -0.10091117837E+02 -0.20566629454E+02  0.18179549736E+02  0.29245733619E+02  0.00000000000E+00 0. -1.
</event>
<event>
 5    1  0.8952932E-005  0.9118800E+02  0.7818608E-02  0.1130116E+00
         25   -1    0    0    0    0  0.00000000000E+00  0.00000000000E+00  0.99999998245E-14  0.12500000000E+03  0.12500000000E+03 0.  0.
        -11    1    3    3    0    0 -0.17577784919E+02 -0.32721900845E+02 -0.16923813377E+02  0.40818093746E+02  0.51100000000E-03 0. -1.
         23    2    1    0    0    0  0.63554526536E+01  0.14543978752E+02 -0.25969164274E+02  0.94564550447E+02  0.89532885644E+02 0.  0.
         11    1    3    3    0    0  0.23933237572E+02  0.47265879598E+02 -0.90453508973E+01  0.53746456701E+02  0.51100000000E-03 0.  1.
         22    1    1    0    0    0 -0.63554526536E+01 -0.14543978752E+02  0.25969164274E+02  0.30435449553E+02  0.00000000000E+00 0. -1.
</event>
<event>
 5    1  0.8952932E-005  0.9118800E+02  0.7818608E-02  0.1130116E+00
         25   -1    0    0    0    0  0.00000000000E+00  0.00000000000E+00  0.99999998245E-14  0.12500000000E+03  0.12500000000E+03 0.  0.
        -11    1    3    3    0    0 -0.31633673270E+02  0.99105761555E+01  0.44099854954E+02  0.55169792564E+02  0.51100000000E-03 0.  1.
         23    2    1    0    0    0 -0.20489348237E+01 -0.14669628076E+02  0.69726434841E+01  0.10862887057E+03  0.10738816341E+03 0.  0.
         11    1    3    3    0    0  0.29584738447E+02 -0.24580204232E+02 -0.37127211470E+02  0.53459078002E+02  0.51100000000E-03 0. -1.
         22    1    1    0    0    0  0.20489348237E+01  0.14669628076E+02 -0.69726434841E+01  0.16371129435E+02  0.00000000000E+00 0.  1.
</event>
<event>
 5    1  0.8952932E-005  0.9118800E+02  0.7818608E-02  0.1130116E+00
         25   -1    0    0    0    0  0.00000000000E+00  0.00000000000E+00  0.99999998245E-14  0.12500000000E+03  0.12500000000E+03 0.  0.
        -11    1    3    3    0    0  0.13076526307E+02  0.54479485851E+02 -0.54825289985E+01  0.56294476136E+02  0.51100000000E-03 0.  1.
         23    2    1    0    0    0  0.21117155672E+02  0.16400512483E+02 -0.11891136161E+02  0.95737221722E+02  0.91155391670E+02 0.  0.
         11    1    3    3    0    0  0.80406293641E+01 -0.38078973369E+02 -0.64086071623E+01  0.39442745587E+02  0.51100000000E-03 0. -1.
         22    1    1    0    0    0 -0.21117155672E+02 -0.16400512483E+02  0.11891136161E+02  0.29262778278E+02  0.00000000000E+00 0.  1.
</event>
<event>
 5    1  0.8952932E-005  0.9118800E+02  0.7818608E-02  0.1130116E+00
         25   -1    0    0    0    0  0.00000000000E+00  0.00000000000E+00  0.99999998245E-14  0.12500000000E+03  0.12500000000E+03 0.  0.
        -11    1    3    3    0    0 -0.45448032748E+02 -0.29822456721E+02 -0.16611097869E+02  0.56840400933E+02  0.51100000000E-03 0.  1.
         23    2    1    0    0    0 -0.83005415175E+01 -0.22989071701E+02 -0.18013945661E+02  0.94637216112E+02  0.89634279314E+02 0.  0.
         11    1    3    3    0    0  0.37147491230E+02  0.68333850206E+01 -0.14028477913E+01  0.37796815180E+02  0.51100000000E-03 0. -1.
         22    1    1    0    0    0  0.83005415175E+01  0.22989071701E+02  0.18013945661E+02  0.30362783888E+02  0.00000000000E+00 0.  1.
</event>
<event>
 5    1  0.8952932E-005  0.9118800E+02  0.7818608E-02  0.1130116E+00
         25   -1    0    0    0    0  0.00000000000E+00  0.00000000000E+00  0.99999998245E-14  0.12500000000E+03  0.12500000000E+03 0.  0.
        -11    1    3    3    0    0  0.41985998075E+01  0.55998312678E+02  0.19338530665E+02  0.59392070445E+02  0.51100000000E-03 0. -1.
         23    2    1    0    0    0  0.11575879425E+02  0.19885155352E+02  0.17125075052E+02  0.96317451589E+02  0.91947609524E+02 0.  0.
         11    1    3    3    0    0  0.73772796175E+01 -0.36113157326E+02 -0.22134556134E+01  0.36925381144E+02  0.51100000000E-03 0.  1.
         22    1    1    0    0    0 -0.11575879425E+02 -0.19885155352E+02 -0.17125075052E+02  0.28682548411E+02  0.00000000000E+00 0. -1.
</event>
<event>
 5    1  0.8952932E-005  0.9118800E+02  0.7818608E-02  0.1130116E+00
         25   -1    0    0    0    0  0.00000000000E+00  0.00000000000E+00  0.99999998245E-14  0.12500000000E+03  0.12500000000E+03 0.  0.
        -11    1    3    3    0    0 -0.23418933355E+02 -0.13633987489E+02  0.21688891311E+02  0.34709365608E+02  0.51100000000E-03 0.  1.
         23    2    1    0    0    0  0.25881729289E+02  0.14440685009E+02  0.24346472591E+00  0.95361231983E+02  0.90638336236E+02 0.  0.
         11    1    3    3    0    0  0.49300662644E+02  0.28074672498E+02 -0.21445426585E+02  0.60651866375E+02  0.51100000000E-03 0. -1.
         22    1    1    0    0    0 -0.25881729289E+02 -0.14440685009E+02 -0.24346472591E+00  0.29638768017E+02  0.00000000000E+00 0. -1.
</event>
<event>
 5    1  0.8952932E-005  0.9118800E+02  0.7818608E-02  0.1130116E+00
         25   -1    0    0    0    0  0.00000000000E+00  0.00000000000E+00  0.99999998245E-14  0.12500000000E+03  0.12500000000E+03 0.  0.
        -11    1    3    3    0    0  0.47057118506E+02 -0.79946401434E+01 -0.75196686775E+01  0.48320100273E+02  0.51100000000E-03 0.  1.
         23    2    1    0    0    0  0.70045145783E+01 -0.15731420367E+02  0.20812668966E+02  0.97986892058E+02  0.94189824368E+02 0.  0.
         11    1    3    3    0    0 -0.40052603928E+02 -0.77367802232E+01  0.28332337643E+02  0.49666791785E+02  0.51100000000E-03 0. -1.
         22    1    1    0    0    0 -0.70045145783E+01  0.15731420367E+02 -0.20812668966E+02  0.27013107942E+02  0.00000000000E+00 0.  1.
</event>
<event>
 5    1  0.8952932E-005  0.9118800E+02  0.7818608E-02  0.1130116E+00
         25   -1    0    0    0    0  0.00000000000E+00  0.00000000000E+00  0.99999998245E-14  0.12500000000E+03  0.12500000000E+03 0.  0.
        -11    1    3    3    0    0 -0.47703429345E+01  0.29217597137E+01 -0.60061381451E+02  0.60321326192E+02  0.51100000000E-03 0. -1.
         23    2    1    0    0    0  0.48067877338E+01 -0.79097988832E+01 -0.28449062318E+02  0.95083127278E+02  0.90253985062E+02 0.  0.
         11    1    3    3    0    0  0.95771306683E+01 -0.10831558597E+02  0.31612319133E+02  0.34761801086E+02  0.51100000000E-03 0.  1.
         22    1    1    0    0    0 -0.48067877338E+01  0.79097988832E+01  0.28449062318E+02  0.29916872722E+02  0.00000000000E+00 0. -1.
</event>
<event>
 5    1  0.8952932E-005  0.9118800E+02  0.7818608E-02  0.1130116E+00
         25   -1    0    0    0    0  0.00000000000E+00  0.00000000000E+00  0.99999998245E-14  0.12500000000E+03  0.12500000000E+03 0.  0.
        -11    1    3    3    0    0  0.31618117971E+02 -0.26731775869E+02 -0.88099509938E+01  0.42330939771E+02  0.51100000000E-03 0.  1.
         23    2    1    0    0    0  0.13161014862E+02  0.23691688619E+02  0.41865057807E+01  0.97576738843E+02  0.93643925114E+02 0.  0.
         11    1    3    3    0    0 -0.18457103109E+02  0.50423464488E+02  0.12996456775E+02  0.55245799072E+02  0.51100000000E-03 0. -1.
         22    1    1    0    0    0 -0.13161014862E+02 -0.23691688619E+02 -0.41865057807E+01  0.27423261157E+02  0.00000000000E+00 0. -1.
</event>
<event>
 5    1  0.8952932E-005  0.9118800E+02  0.7818608E-02  0.1130116E+00
         25   -1    0    0    0    0  0.00000000000E+00  0.00000000000E+00  0.99999998245E-14  0.12500000000E+03  0.12500000000E+03 0.  0.
        -11    1    3    3    0    0 -0.26787863335E+02  0.25085459690E+01  0.31352894750E+02  0.41314482139E+02  0.51100000000E-03 0. -1.
         23    2    1    0    0    0  0.98284549589E+01 -0.27558525717E+02  0.57047958407E+01  0.95190344481E+02  0.90402356829E+02 0.  0.
         11    1    3    3    0    0  0.36616318294E+02 -0.30067071686E+02 -0.25648098910E+02  0.53875862342E+02  0.51100000000E-03 0.  1.
         22    1    1    0    0    0 -0.98284549589E+01  0.27558525717E+02 -0.57047958407E+01  0.29809655519E+02  0.00000000000E+00 0.  1.
</event>
<event>
 5    1  0.8952932E-005  0.9118800E+02  0.7818608E-02  0.1130116E+00
         25   -1    0    0    0    0  0.00000000000E+00  0.00000000000E+00  0.99999998245E-14  0.12500000000E+03  0.12500000000E+03 0.  0.
        -11    1    3    3    0    0 -0.97693406691E+01 -0.42728410396E+02  0.12322962498E+02  0.45530346771E+02  0.51100000000E-03 0.  1.
         23    2    1    0    0    0  0.20695050267E+02 -0.84847946749E+01 -0.14220735149E+02  0.98495167339E+02  0.94861962001E+02 0.  0.
         11    1    3    3    0    0  0.30464390936E+02  0.34243615721E+02 -0.26543697647E+02  0.52964820568E+02  0.51100000000E-03 0. -1.
         22    1    1    0    0    0 -0.20695050267E+02  0.84847946749E+01  0.14220735149E+02  0.26504832661E+02  0.00000000000E+00 0.  1.
</event>
<event>
 5    1  0.8952932E-005  0.9118800E+02  0.7818608E-02  0.1130116E+00
         25   -1    0    0    0    0  0.00000000000E+00  0.00000000000E+00  0.99999998245E-14  0.12500000000E+03  0.12500000000E+03 0.  0.
        -11    1    3    3    0    0  0.23930244320E+02 -0.16816832182E+02 -0.22738081222E+02  0.37047034642E+02  0.51100000000E-03 0.  1.
         23    2    1    0    0    0 -0.44237475864E+01  0.28296304040E+02  0.29665639384E+01  0.96206756580E+02  0.91796999652E+02 0.  0.
         11    1    3    3    0    0 -0.28353991906E+02  0.45113136221E+02  0.25704645160E+02  0.59159721938E+02  0.51100000000E-03 0. -1.
         22    1    1    0    0    0  0.44237475864E+01 -0.28296304040E+02 -0.29665639384E+01  0.28793243420E+02  0.00000000000E+00 0. -1.
</event>
<event>
 5    1  0.8952932E-005  0.9118800E+02  0.7818608E-02  0.1130116E+00
         25   -1    0    0    0    0  0.00000000000E+00  0.00000000000E+00  0.99999998245E-14  0.12500000000E+03  0.12500000000E+03 0.  0.
        -11    1    3    3    0    0  0.24482241574E+02  0.55923224511E+02  0.55162907685E+01  0.61296139000E+02  0.51100000000E-03 0.  1.
         23    2    1    0    0    0  0.16979309667E+02  0.22769119628E+02  0.83185220857E+01  0.95403926356E+02  0.90697197250E+02 0.  0.
         11    1    3    3    0    0 -0.75029319061E+01 -0.33154104882E+02  0.28022313172E+01  0.34107787357E+02  0.51100000000E-03 0. -1.
         22    1    1    0    0    0 -0.16979309667E+02 -0.22769119628E+02 -0.83185220857E+01  0.29596073644E+02  0.00000000000E+00 0.  1.
</event>
<event>
 5    1  0.8952932E-005  0.9118800E+02  0.7818608E-02  0.1130116E+00
         25   -1    0    0    0    0  0.00000000000E+00  0.00000000000E+00  0.99999998245E-14  0.12500000000E+03  0.12500000000E+03 0.  0.
        -11    1    3    3    0    0  0.55791220729E+01 -0.14581806361E+02 -0.42780789531E+02  0.45540659119E+02  0.51100000000E-03 0.  1.
         23    2    1    0    0    0 -0.70991824964E+01  0.24389586627E+02 -0.11398770695E+02  0.97157904151E+02  0.93083167316E+02 0.  0.
         11    1    3    3    0    0 -0.12678304569E+02  0.38971392988E+02  0.31382018836E+02  0.51617245032E+02  0.51100000000E-03 0. -1.
         22    1    1    0    0    0  0.70991824964E+01 -0.24389586627E+02  0.11398770695E+02  0.27842095849E+02  0.00000000000E+00 0. -1.
</event>
<event>
 5    1  0.8952932E-005  0.9118800E+02  0.7818608E-02  0.1130116E+00
         25   -1    0    0    0    0  0.00000000000E+00  0.00000000000E+00  0.99999998245E-14  0.12500000000E+03  0.12500000000E+03 0.  0.
        -11    1    3    3    0    0 -0.58823302921E+02 -0.19425259808E+02 -0.66235691381E+01  0.62300829478E+02  0.51100000000E-03 0.  1.
         23    2    1    0    0    0 -0.32355088419E+02 -0.12257481559E+02 -0.50266651935E+00  0.90397250479E+02  0.83512350104E+02 0.  0.
         11    1    3    3    0    0  0.26468214503E+02  0.71677782494E+01  0.61209026188E+01  0.28096421002E+02  0.51100000000E-03 0. -1.
         22    1    1    0    0    0  0.32355088419E+02  0.12257481559E+02  0.50266651935E+00  0.34602749521E+02  0.00000000000E+00 0.  1.
</event>
<event>
 5    1  0.8952932E-005  0.9118800E+02  0.7818608E-02  0.1130116E+00
         25   -1    0    0    0    0  0.00000000000E+00  0.00000000000E+00  0.99999998245E-14  0.12500000000E+03  0.12500000000E+03 0.  0.
        -11    1    3    3    0    0  0.24180605144E+01  0.19078383203E+02 -0.33715401427E+02  0.38814430512E+02  0.51100000000E-03 0.  1.
         23    2    1    0    0    0 -0.26035536591E+02 -0.15390773231E+00  0.12276954573E+02  0.96214648400E+02  0.91807745315E+02 0.  0.
         11    1    3    3    0    0 -0.28453597105E+02 -0.19232290936E+02  0.45992356000E+02  0.57400217888E+02  0.51100000000E-03 0. -1.
         22    1    1    0    0    0  0.26035536591E+02  0.15390773231E+00 -0.12276954573E+02  0.28785351600E+02  0.00000000000E+00 0. -1.
</event>
<event>
 5    1  0.8952932E-005  0.9118800E+02  0.7818608E-02  0.1130116E+00
         25   -1    0    0    0    0  0.00000000000E+00  0.00000000000E+00  0.99999998245E-14  0.12500000000E+03  0.12500000000E+03 0.  0.
        -11    1    3    3    0    0 -0.18938642786E+02 -0.30202302467E+02  0.28932202950E+02  0.45912129472E+02  0.51100000000E-03 0. -1.
         23    2    1    0    0    0  0.10836835154E+02 -0.26873256839E+02 -0.93756062098E+01  0.94544936035E+02  0.89505497087E+02 0.  0.
         11    1    3    3    0    0  0.29775477940E+02  0.33290456283E+01 -0.38307809159E+02  0.48632806563E+02  0.51100000000E-03 0.  1.
         22    1    1    0    0    0 -0.10836835154E+02  0.26873256839E+02  0.93756062098E+01  0.30455063965E+02  0.00000000000E+00 0.  1.
</event>
<event>
 5    1  0.8952932E-005  0.9118800E+02  0.7818608E-02  0.1130116E+00
         25   -1    0    0    0    0  0.00000000000E+00  0.00000000000E+00  0.99999998245E-14  0.12500000000E+03  0.12500000000E+03 0.  0.
        -11    1    3    3    0    0  0.25579553717E+02  0.16333283231E+02 -0.13357492590E+02  0.33158895006E+02  0.51100000000E-03 0. -1.
         23    2    1    0    0    0 -0.28453671683E+02 -0.69475286362E+01  0.60105725512E+01  0.95100057378E+02  0.90277429873E+02 0.  0.
         11    1    3    3    0    0 -0.54033225401E+02 -0.23280811867E+02  0.19368065141E+02  0.61941162372E+02  0.51100000000E-03 0.  1.
         22    1    1    0    0    0  0.28453671683E+02  0.69475286362E+01 -0.60105725512E+01  0.29899942622E+02  0.00000000000E+00 0.  1.
</event>
<event>
 5    1  0.8952932E-005  0.9118800E+02  0.7818608E-02  0.1130116E+00
         25   -1    0    0    0    0  0.00000000000E+00  0.00000000000E+00  0.99999998245E-14  0.12500000000E+03  0.12500000000E+03 0.  0.
        -11    1    3    3    0    0 -0.59395409453E+01 -0.58506965763E+02 -0.82384969517E+01  0.59381950303E+02  0.51100000000E-03 0. -1.
         23    2    1    0    0    0 -0.66936336828E+01 -0.32942622706E+02 -0.18133885527E+02  0.86804988193E+02  0.77950285748E+02 0.  0.
         11    1    3    3    0    0 -0.75409273749E+00  0.25564343057E+02 -0.98953885754E+01  0.27423037890E+02  0.51100000000E-03 0.  1.
         22    1    1    0    0    0  0.66936336828E+01  0.32942622706E+02  0.18133885527E+02  0.38195011807E+02  0.00000000000E+00 0. -1.
</event>
<event>
 5    1  0.8952932E-005  0.9118800E+02  0.7818608E-02  0.1130116E+00
         25   -1    0    0    0    0  0.00000000000E+00  0.00000000000E+00  0.99999998245E-14  0.12500000000E+03  0.12500000000E+03 0.  0.
        -11    1    3    3    0    0  0.16059886847E+02 -0.54096968198E+02 -0.22464732592E+02  0.60737683067E+02  0.51100000000E-03 0.  1.
         23    2    1    0    0    0 -0.17568086019E+01 -0.28865455915E+02 -0.71671086493E+01  0.95206236088E+02  0.90424327601E+02 0.  0.
         11    1    3    3    0    0 -0.17816695449E+02  0.25231512282E+02  0.15297623942E+02  0.34468553021E+02  0.51100000000E-03 0. -1.
         22    1    1    0    0    0  0.17568086019E+01  0.28865455915E+02  0.71671086493E+01  0.29793763912E+02  0.00000000000E+00 0.  1.
</event>
<event>
 5    1  0.8952932E-005  0.9118800E+02  0.7818608E-02  0.1130116E+00
         25   -1    0    0    0    0  0.00000000000E+00  0.00000000000E+00  0.99999998245E-14  0.12500000000E+03  0.12500000000E+03 0.  0.
        -11    1    3    3    0    0 -0.10956876680E+02  0.30975764014E+02 -0.12551056363E+02  0.35172149763E+02  0.51100000000E-03 0.  1.
         23    2    1    0    0    0  0.30892215966E+02  0.57056083101E+01  0.13776245493E+02  0.90697406609E+02  0.83960417176E+02 0.  0.
         11    1    3    3    0    0  0.41849092646E+02 -0.25270155704E+02  0.26327301856E+02  0.55525256846E+02  0.51100000000E-03 0. -1.
         22    1    1    0    0    0 -0.30892215966E+02 -0.57056083101E+01 -0.13776245493E+02  0.34302593391E+02  0.00000000000E+00 0. -1.
</event>
<event>
 5    1  0.8952932E-005  0.9118800E+02  0.7818608E-02  0.1130116E+00
         25   -1    0    0    0    0  0.00000000000E+00  0.00000000000E+00  0.99999998245E-14  0.12500000000E+03  0.12500000000E+03 0.  0.
        -11    1    3    3    0    0 -0.14760226226E+02 -0.16600350009E+02 -0.53052156427E+02  0.57514930240E+02  0.51100000000E-03 0. -1.
         23    2    1    0    0    0 -0.24038732213E+02 -0.80174510924E+01 -0.20596505772E+02  0.92344889857E+02  0.86378368034E+02 0.  0.
         11    1    3    3    0    0 -0.92785059878E+01  0.85828989166E+01  0.32455650655E+02  0.34829959617E+02  0.51100000000E-03 0.  1.
         22    1    1    0    0    0  0.24038732213E+02  0.80174510924E+01  0.20596505772E+02  0.32655110143E+02  0.00000000000E+00 0. -1.
</event>
<event>
 5    1  0.8952932E-005  0.9118800E+02  0.7818608E-02  0.1130116E+00
         25   -1    0    0    0    0  0.00000000000E+00  0.00000000000E+00  0.99999998245E-14  0.12500000000E+03  0.12500000000E+03 0.  0.
        -11    1    3    3    0    0 -0.24445104102E+02  0.34659844493E+02 -0.45103777493E+02  0.61912992815E+02  0.51100000000E-03 0.  1.
         23    2    1    0    0    0 -0.79847559679E+01  0.13112919661E+02 -0.24978947966E+02  0.95680163176E+02  0.91077114546E+02 0.  0.
         11    1    3    3    0    0  0.16460348134E+02 -0.21546924832E+02  0.20124829528E+02  0.33767170361E+02  0.51100000000E-03 0. -1.
         22    1    1    0    0    0  0.79847559679E+01 -0.13112919661E+02  0.24978947966E+02  0.29319836824E+02  0.00000000000E+00 0.  1.
</event>
<event>
 5    1  0.8952932E-005  0.9118800E+02  0.7818608E-02  0.1130116E+00
         25   -1    0    0    0    0  0.00000000000E+00  0.00000000000E+00  0.99999998245E-14  0.12500000000E+03  0.12500000000E+03 0.  0.
        -11    1    3    3    0    0  0.28812958949E+02 -0.31846640654E+02 -0.29568654194E+02  0.52141158747E+02  0.51100000000E-03 0.  1.
         23    2    1    0    0    0 -0.46397880105E+01 -0.47145303983E+01 -0.29039278473E+02  0.95216881898E+02  0.90439042865E+02 0.  0.
         11    1    3    3    0    0 -0.33452746960E+02  0.27132110256E+02  0.52937572065E+00  0.43075723151E+02  0.51100000000E-03 0. -1.
         22    1    1    0    0    0  0.46397880105E+01  0.47145303983E+01  0.29039278473E+02  0.29783118102E+02  0.00000000000E+00 0. -1.
</event>
<event>
 5    1  0.8952932E-005  0.9118800E+02  0.7818608E-02  0.1130116E+00
         25   -1    0    0    0    0  0.00000000000E+00  0.00000000000E+00  0.99999998245E-14  0.12500000000E+03  0.12500000000E+03 0.  0.
        -11    1    3    3    0    0  0.32886757297E+02 -0.16359567745E+02 -0.35757294615E+02  0.51261665802E+02  0.51100000000E-03 0. -1.
         23    2    1    0    0    0  0.27174027083E+02  0.11394676903E+02 -0.18141470773E+01  0.95477846636E+02  0.90799017940E+02 0.  0.
         11    1    3    3    0    0 -0.57127302140E+01  0.27754244649E+02  0.33943147538E+02  0.44216180834E+02  0.51100000000E-03 0.  1.
         22    1    1    0    0    0 -0.27174027083E+02 -0.11394676903E+02  0.18141470773E+01  0.29522153364E+02  0.00000000000E+00 0. -1.
</event>
<event>
 5    1  0.8952932E-005  0.9118800E+02  0.7818608E-02  0.1130116E+00
         25   -1    0    0    0    0  0.00000000000E+00  0.00000000000E+00  0.99999998245E-14  0.12500000000E+03  0.12500000000E+03 0.  0.
        -11    1    3    3    0    0 -0.29924170297E+02 -0.25265955637E+02 -0.37276112327E+02  0.54067855818E+02  0.51100000000E-03 0.  1.
         23    2    1    0    0    0 -0.27356264486E+02  0.44497585642E+01 -0.73349357218E+01  0.96330035927E+02  0.91964715960E+02 0.  0.
         11    1    3    3    0    0  0.25679058106E+01  0.29715714201E+02  0.29941176606E+02  0.42262180109E+02  0.51100000000E-03 0. -1.
         22    1    1    0    0    0  0.27356264486E+02 -0.44497585642E+01  0.73349357218E+01  0.28669964073E+02  0.00000000000E+00 0. -1.
</event>
<event>
 5    1  0.8952932E-005  0.9118800E+02  0.7818608E-02  0.1130116E+00
         25   -1    0    0    0    0  0.00000000000E+00  0.00000000000E+00  0.99999998245E-14  0.12500000000E+03  0.12500000000E+03 0.  0.
        -11    1    3    3    0    0 -0.52945787975E+02  0.11181377793E+02  0.17807887263E+02  0.56968416888E+02  0.51100000000E-03 0.  1.
         23    2    1    0    0    0 -0.20858377141E+02  0.19683387688E+02 -0.30290796681E+01  0.96161085813E+02  0.91734788675E+02 0.  0.
         11    1    3    3    0    0  0.32087410834E+02  0.85020098952E+01 -0.20836966932E+02  0.39192668925E+02  0.51100000000E-03 0. -1.
         22    1    1    0    0    0  0.20858377141E+02 -0.19683387688E+02  0.30290796681E+01  0.28838914187E+02  0.00000000000E+00 0.  1.
</event>
<event>
 5    1  0.8952932E-005  0.9118800E+02  0.7818608E-02  0.1130116E+00
         25   -1    0    0    0    0  0.00000000000E+00  0.00000000000E+00  0.99999998245E-14  0.12500000000E+03  0.12500000000E+03 0.  0.
        -11    1    3    3    0    0  0.27737280609E+02  0.17703203208E+02  0.34210597779E+02  0.47467095340E+02  0.51100000000E-03 0.  1.
         23    2    1    0    0    0  0.23897776497E+02 -0.14578134319E+02 -0.29629869856E+01  0.96850310595E+02  0.92669183922E+02 0.  0.
         11    1    3    3    0    0 -0.38395041118E+01 -0.32281337527E+02 -0.37173584764E+02  0.49383215255E+02  0.51100000000E-03 0. -1.
         22    1    1    0    0    0 -0.23897776497E+02  0.14578134319E+02  0.29629869856E+01  0.28149689405E+02  0.00000000000E+00 0. -1.
</event>
<event>
 5    1  0.8952932E-005  0.9118800E+02  0.7818608E-02  0.1130116E+00
         25   -1    0    0    0    0  0.00000000000E+00  0.00000000000E+00  0.99999998245E-14  0.12500000000E+03  0.12500000000E+03 0.  0.
        -11    1    3    3    0    0 -0.30437514841E+02 -0.15691352951E+02  0.33414130760E+02  0.47845219216E+02  0.51100000000E-03 0.  1.
         23    2    1    0    0    0  0.68633168997E+01  0.73214177720E+01  0.31746137522E+02  0.91705473053E+02  0.85448044233E+02 0.  0.
         11    1    3    3    0    0  0.37300831741E+02  0.23012770723E+02 -0.16679932375E+01  0.43860253837E+02  0.51100000000E-03 0. -1.
         22    1    1    0    0    0 -0.68633168997E+01 -0.73214177720E+01 -0.31746137522E+02  0.33294526947E+02  0.00000000000E+00 0.  1.
</event>
<event>
 5    1  0.8952932E-005  0.9118800E+02  0.7818608E-02  0.1130116E+00
         25   -1    0    0    0    0  0.00000000000E+00  0.00000000000E+00  0.99999998245E-14  0.12500000000E+03  0.12500000000E+03 0.  0.
        -11    1    3    3    0    0 -0.38145629484E+02 -0.93611577026E+01  0.87538666619E+01  0.40241154357E+02  0.51100000000E-03 0. -1.
         23    2    1    0    0    0  0.16855562477E+02 -0.21005914357E+02 -0.36720001958E+01  0.97818351598E+02  0.93965886893E+02 0.  0.
         11    1    3    3    0    0  0.55001191961E+02 -0.11644756655E+02 -0.12425866858E+02  0.57577197241E+02  0.51100000000E-03 0.  1.
         22    1    1    0    0    0 -0.16855562477E+02  0.21005914357E+02  0.36720001958E+01  0.27181648402E+02  0.00000000000E+00 0.  1.
</event>
<event>
 5    1  0.8952932E-005  0.9118800E+02  0.7818608E-02  0.1130116E+00
         25   -1    0    0    0    0  0.00000000000E+00  0.00000000000E+00  0.99999998245E-14  0.12500000000E+03  0.12500000000E+03 0.  0.
        -11    1    3    3    0    0 -0.54581043082E+02  0.22558242478E+02  0.15466439433E+02  0.61050596366E+02  0.51100000000E-03 0.  1.
         23    2    1    0    0    0 -0.23569816490E+02  0.17788719686E+02  0.13936685206E+01  0.95437910943E+02  0.90744023141E+02 0.  0.
         11    1    3    3    0    0  0.31011226592E+02 -0.47695227921E+01 -0.14072770913E+02  0.34387314577E+02  0.51100000000E-03 0. -1.
         22    1    1    0    0    0  0.23569816490E+02 -0.17788719686E+02 -0.13936685206E+01  0.29562089057E+02  0.00000000000E+00 0.  1.
</event>
<event>
 5    1  0.8952932E-005  0.9118800E+02  0.7818608E-02  0.1130116E+00
         25   -1    0    0    0    0  0.00000000000E+00  0.00000000000E+00  0.99999998245E-14  0.12500000000E+03  0.12500000000E+03 0.  0.
        -11    1    3    3    0    0 -0.21161194549E+01  0.15137108358E+02 -0.38873602127E+02  0.41770407630E+02  0.51100000000E-03 0.  1.
         23    2    1    0    0    0  0.26548864534E+02  0.97437672620E+01  0.67539160416E+01  0.95924261138E+02  0.91411516148E+02 0.  0.
         11    1    3    3    0    0  0.28664983989E+02 -0.53933410955E+01  0.45627518169E+02  0.54153853508E+02  0.51100000000E-03 0. -1.
         22    1    1    0    0    0 -0.26548864534E+02 -0.97437672620E+01 -0.67539160416E+01  0.29075738862E+02  0.00000000000E+00 0. -1.
</event>
<event>
 5    1  0.8952932E-005  0.9118800E+02  0.7818608E-02  0.1130116E+00
         25   -1    0    0    0    0  0.00000000000E+00  0.00000000000E+00  0.99999998245E-14  0.12500000000E+03  0.12500000000E+03 0.  0.
        -11    1    3    3    0    0  0.15549376569E+02  0.59082800599E+02  0.11086356694E+02  0.62092412928E+02  0.51100000000E-03 0.  1.
         23    2    1    0    0    0  0.69718020102E+01  0.26488522239E+02  0.10086310528E+02  0.95811277970E+02  0.91256887371E+02 0.  0.
         11    1    3    3    0    0 -0.85775745589E+01 -0.32594278360E+02 -0.10000461653E+01  0.33718865042E+02  0.51100000000E-03 0. -1.
         22    1    1    0    0    0 -0.69718020102E+01 -0.26488522239E+02 -0.10086310528E+02  0.29188722030E+02  0.00000000000E+00 0.  1.
</event>
<event>
 5    1  0.8952932E-005  0.9118800E+02  0.7818608E-02  0.1130116E+00
         25   -1    0    0    0    0  0.00000000000E+00  0.00000000000E+00  0.99999998245E-14  0.12500000000E+03  0.12500000000E+03 0.  0.
        -11    1    3    3    0    0 -0.35915922695E+01  0.30666123633E+02  0.51777650762E+02  0.60284623184E+02  0.51100000000E-03 0. -1.
         23    2    1    0    0    0  0.68317079185E+01  0.24081665750E+02  0.25731053844E+02  0.89101727196E+02  0.81550179638E+02 0.  0.
         11    1    3    3    0    0  0.10423300188E+02 -0.65844578833E+01 -0.26046596917E+02  0.28817104013E+02  0.51100000000E-03 0.  1.
         22    1    1    0    0    0 -0.68317079185E+01 -0.24081665750E+02 -0.25731053844E+02  0.35898272804E+02  0.00000000000E+00 0. -1.
</event>
<event>
 5    1  0.8952932E-005  0.9118800E+02  0.7818608E-02  0.1130116E+00
         25   -1    0    0    0    0  0.00000000000E+00  0.00000000000E+00  0.99999998245E-14  0.12500000000E+03  0.12500000000E+03 0.  0.
        -11    1    3    3    0    0 -0.37921313997E+02 -0.11120111713E+02  0.16579100433E+02  0.42854982338E+02  0.51100000000E-03 0. -1.
         23    2    1    0    0    0  0.10618473182E+02  0.22778972807E+01  0.28413429942E+02  0.94581850980E+02  0.89557036267E+02 0.  0.
         11    1    3    3    0    0  0.48539787178E+02  0.13398008993E+02  0.11834329509E+02  0.51726868642E+02  0.51100000000E-03 0.  1.
         22    1    1    0    0    0 -0.10618473182E+02 -0.22778972807E+01 -0.28413429942E+02  0.30418149020E+02  0.00000000000E+00 0. -1.
</event>
<event>
 5    1  0.8952932E-005  0.9118800E+02  0.7818608E-02  0.1130116E+00
         25   -1    0    0    0    0  0.00000000000E+00  0.00000000000E+00  0.99999998245E-14  0.12500000000E+03  0.12500000000E+03 0.  0.
        -11    1    3    3    0    0  0.40359148922E+01 -0.78584881921E+01 -0.60609517102E+02  0.61249963341E+02  0.51100000000E-03 0.  1.
         23    2    1    0    0    0 -0.18484232612E+01  0.42603021070E+01 -0.29291947686E+02  0.95342200995E+02  0.90612086659E+02 0.  0.
         11    1    3    3    0    0 -0.58843381533E+01  0.12118790299E+02  0.31317569416E+02  0.34092237653E+02  0.51100000000E-03 0. -1.
         22    1    1    0    0    0  0.18484232612E+01 -0.42603021070E+01  0.29291947686E+02  0.29657799005E+02  0.00000000000E+00 0.  1.
</event>
<event>
 5    1  0.8952932E-005  0.9118800E+02  0.7818608E-02  0.1130116E+00
         25   -1    0    0    0    0  0.00000000000E+00  0.00000000000E+00  0.99999998245E-14  0.12500000000E+03  0.12500000000E+03 0.  0.
        -11    1    3    3    0    0 -0.28709240463E+02 -0.31803150089E+02  0.12046552212E+02  0.44505957623E+02  0.51100000000E-03 0. -1.
         23    2    1    0    0    0 -0.53219283377E+01  0.12057345915E+02  0.25755680038E+02  0.96068052849E+02  0.91607932038E+02 0.  0.
         11    1    3    3    0    0  0.23387312125E+02  0.43860496004E+02  0.13709127825E+02  0.51562095226E+02  0.51100000000E-03 0.  1.
         22    1    1    0    0    0  0.53219283377E+01 -0.12057345915E+02 -0.25755680038E+02  0.28931947151E+02  0.00000000000E+00 0.  1.
</event>
<event>
 5    1  0.8952932E-005  0.9118800E+02  0.7818608E-02  0.1130116E+00
         25   -1    0    0    0    0  0.00000000000E+00  0.00000000000E+00  0.99999998245E-14  0.12500000000E+03  0.12500000000E+03 0.  0.
        -11    1    3    3    0    0 -0.59331188120E+02  0.43769677289E+01 -0.12800700289E+02  0.60853969948E+02  0.51100000000E-03 0.  1.
         23    2    1    0    0    0 -0.42445489433E+02 -0.14971841348E+01 -0.55409402660E+00  0.82524499371E+02  0.70753974042E+02 0.  0.
         11    1    3    3    0    0  0.16885698688E+02 -0.58741518637E+01  0.12246606262E+02  0.21670529423E+02  0.51100000000E-03 0. -1.
         22    1    1    0    0    0  0.42445489433E+02  0.14971841348E+01  0.55409402660E+00  0.42475500629E+02  0.00000000000E+00 0.  1.
</event>
<event>
 5    1  0.8952932E-005  0.9118800E+02  0.7818608E-02  0.1130116E+00
         25   -1    0    0    0    0  0.00000000000E+00  0.00000000000E+00  0.99999998245E-14  0.12500000000E+03  0.12500000000E+03 0.  0.
        -11    1    3    3    0    0 -0.48778874740E+02  0.19927049976E+01 -0.84770673416E+01  0.49550077347E+02  0.51100000000E-03 0. -1.
         23    2    1    0    0    0 -0.12654771870E+02 -0.25458015219E+02  0.31761425740E+01  0.96393328197E+02  0.92050703687E+02 0.  0.
         11    1    3    3    0    0  0.36124102870E+02 -0.27450720217E+02  0.11653209916E+02  0.46843250850E+02  0.51100000000E-03 0.  1.
         22    1    1    0    0    0  0.12654771870E+02  0.25458015219E+02 -0.31761425740E+01  0.28606671803E+02  0.00000000000E+00 0.  1.
</event>
<event>
 5    1  0.8952932E-005  0.9118800E+02  0.7818608E-02  0.1130116E+00
         25   -1    0    0    0    0  0.00000000000E+00  0.00000000000E+00  0.99999998245E-14  0.12500000000E+03  0.12500000000E+03 0.  0.
        -11    1    3    3    0    0  0.10364730983E+02  0.15301618324E+02 -0.19816228672E+02  0.27097049484E+02  0.51100000000E-03 0.  1.
         23    2    1    0    0    0 -0.37947321272E+02 -0.78048245969E+01  0.46607751336E+01  0.85979014575E+02  0.76614317486E+02 0.  0.
         11    1    3    3    0    0 -0.48312052254E+02 -0.23106442921E+02  0.24477003806E+02  0.58881965092E+02  0.51100000000E-03 0. -1.
         22    1    1    0    0    0  0.37947321272E+02  0.78048245969E+01 -0.46607751336E+01  0.39020985425E+02  0.00000000000E+00 0. -1.
</event>
<event>
 5    1  0.8952932E-005  0.9118800E+02  0.7818608E-02  0.1130116E+00
         25   -1    0    0    0    0  0.00000000000E+00  0.00000000000E+00  0.99999998245E-14  0.12500000000E+03  0.12500000000E+03 0.  0.
        -11    1    3    3    0    0 -0.26856900735E+02 -0.18476744808E+01  0.35004181580E+02  0.44158801460E+02  0.51100000000E-03 0.  1.
         23    2    1    0    0    0  0.11933115890E+02 -0.12299036092E+00  0.39954434397E+02  0.83301424371E+02  0.72113494526E+02 0.  0.
         11    1    3    3    0    0  0.38790016625E+02  0.17246841199E+01  0.49502528173E+01  0.39142622911E+02  0.51100000000E-03 0. -1.
         22    1    1    0    0    0 -0.11933115890E+02  0.12299036092E+00 -0.39954434397E+02  0.41698575629E+02  0.00000000000E+00 0.  1.
</event>
<event>
 5    1  0.8952932E-005  0.9118800E+02  0.7818608E-02  0.1130116E+00
         25   -1    0    0    0    0  0.00000000000E+00  0.00000000000E+00  0.99999998245E-14  0.12500000000E+03  0.12500000000E+03 0.  0.
        -11    1    3    3    0    0  0.12187799168E+02 -0.21725902143E+02 -0.32590214438E+02  0.41020474764E+02  0.51100000000E-03 0. -1.
         23    2    1    0    0    0 -0.24842952280E+02 -0.11293889463E+02  0.76155826906E+01  0.96667663052E+02  0.92422485160E+02 0.  0.
         11    1    3    3    0    0 -0.37030751448E+02  0.10432012681E+02  0.40205797129E+02  0.55647188288E+02  0.51100000000E-03 0.  1.
         22    1    1    0    0    0  0.24842952280E+02  0.11293889463E+02 -0.76155826906E+01  0.28332336948E+02  0.00000000000E+00 0. -1.
</event>
<event>
 5    1  0.8952932E-005  0.9118800E+02  0.7818608E-02  0.1130116E+00
         25   -1    0    0    0    0  0.00000000000E+00  0.00000000000E+00  0.99999998245E-14  0.12500000000E+03  0.12500000000E+03 0.  0.
        -11    1    3    3    0    0  0.26786729143E+02  0.40263523050E+02 -0.10560861886E+02  0.49499615662E+02  0.51100000000E-03 0. -1.
         23    2    1    0    0    0 -0.11661887854E+02  0.22962675505E+02  0.11164816023E+02  0.96929780701E+02  0.92776317966E+02 0.  0.
         11    1    3    3    0    0 -0.38448616997E+02 -0.17300847545E+02  0.21725677909E+02  0.47430165039E+02  0.51100000000E-03 0.  1.
         22    1    1    0    0    0  0.11661887854E+02 -0.22962675505E+02 -0.11164816023E+02  0.28070219299E+02  0.00000000000E+00 0.  1.
</event>
<event>
 5    1  0.8952932E-005  0.9118800E+02  0.7818608E-02  0.1130116E+00
         25   -1    0    0    0    0  0.00000000000E+00  0.00000000000E+00  0.99999998245E-14  0.12500000000E+03  0.12500000000E+03 0.  0.
        -11    1    3    3    0    0 -0.18312575247E+02  0.97244208069E+01 -0.47045085597E+02  0.51411621753E+02  0.51100000000E-03 0.  1.
         23    2    1    0    0    0  0.53174645028E+00 -0.20663811729E+02 -0.19923691022E+02  0.96290605485E+02  0.91911105811E+02 0.  0.
         11    1    3    3    0    0  0.18844321697E+02 -0.30388232536E+02  0.27121394575E+02  0.44878983732E+02  0.51100000000E-03 0. -1.
         22    1    1    0    0    0 -0.53174645028E+00  0.20663811729E+02  0.19923691022E+02  0.28709394515E+02  0.00000000000E+00 0. -1.
</event>
<event>
 5    1  0.8952932E-005  0.9118800E+02  0.7818608E-02  0.1130116E+00
         25   -1    0    0    0    0  0.00000000000E+00  0.00000000000E+00  0.99999998245E-14  0.12500000000E+03  0.12500000000E+03 0.  0.
        -11    1    3    3    0    0 -0.77793674059E+01 -0.32622436383E+02 -0.52317766681E+02  0.62144111737E+02  0.51100000000E-03 0.  1.
         23    2    1    0    0    0  0.92547802543E+00 -0.14603627889E+02 -0.25416854710E+02  0.95671874242E+02  0.91065737577E+02 0.  0.
         11    1    3    3    0    0  0.87048454314E+01  0.18018808493E+02  0.26900911971E+02  0.33527762505E+02  0.51100000000E-03 0. -1.
         22    1    1    0    0    0 -0.92547802543E+00  0.14603627889E+02  0.25416854710E+02  0.29328125758E+02  0.00000000000E+00 0.  1.
</event>
<event>
 5    1  0.8952932E-005  0.9118800E+02  0.7818608E-02  0.1130116E+00
         25   -1    0    0    0    0  0.00000000000E+00  0.00000000000E+00  0.99999998245E-14  0.12500000000E+03  0.12500000000E+03 0.  0.
        -11    1    3    3    0    0 -0.31574906387E+01 -0.19360123143E+02  0.59013450843E+02  0.62188194185E+02  0.51100000000E-03 0.  1.
         23    2    1    0    0    0  0.73592623515E+00 -0.12638105367E+02  0.26293763621E+02  0.95817380172E+02  0.91265245537E+02 0.  0.
         11    1    3    3    0    0  0.38934168738E+01  0.67220177766E+01 -0.32719687223E+02  0.33629185987E+02  0.51100000000E-03 0. -1.
         22    1    1    0    0    0 -0.73592623515E+00  0.12638105367E+02 -0.26293763621E+02  0.29182619828E+02  0.00000000000E+00 0.  1.
</event>
<event>
 5    1  0.8952932E-005  0.9118800E+02  0.7818608E-02  0.1130116E+00
         25   -1    0    0    0    0  0.00000000000E+00  0.00000000000E+00  0.99999998245E-14  0.12500000000E+03  0.12500000000E+03 0.  0.
        -11    1    3    3    0    0  0.82433999469E+01  0.10508754494E+02 -0.53666216876E+02  0.55303258473E+02  0.51100000000E-03 0.  1.
         23    2    1    0    0    0  0.20382430790E+02 -0.73588907085E+01 -0.18837380365E+02  0.96286873100E+02  0.91906029589E+02 0.  0.
         11    1    3    3    0    0  0.12139030843E+02 -0.17867645202E+02  0.34828836511E+02  0.40983614626E+02  0.51100000000E-03 0. -1.
         22    1    1    0    0    0 -0.20382430790E+02  0.73588907085E+01  0.18837380365E+02  0.28713126900E+02  0.00000000000E+00 0.  1.
</event>
<event>
 5    1  0.8952932E-005  0.9118800E+02  0.7818608E-02  0.1130116E+00
         25   -1    0    0    0    0  0.00000000000E+00  0.00000000000E+00  0.99999998245E-14  0.12500000000E+03  0.12500000000E+03 0.  0.
        -11    1    3    3    0    0 -0.96967431410E+01 -0.29401424337E+02 -0.45028941079E+02  0.54645000828E+02  0.51100000000E-03 0.  1.
         23    2    1    0    0    0 -0.22259392520E+02 -0.22548901818E+00 -0.19738108237E+02  0.95248961070E+02  0.90483370115E+02 0.  0.
         11    1    3    3    0    0 -0.12562649380E+02  0.29175935319E+02  0.25290832842E+02  0.40603960241E+02  0.51100000000E-03 0. -1.
         22    1    1    0    0    0  0.22259392520E+02  0.22548901818E+00  0.19738108237E+02  0.29751038930E+02  0.00000000000E+00 0.  1.
</event>
<event>
 5    1  0.8952932E-005  0.9118800E+02  0.7818608E-02  0.1130116E+00
         25   -1    0    0    0    0  0.00000000000E+00  0.00000000000E+00  0.99999998245E-14  0.12500000000E+03  0.12500000000E+03 0.  0.
        -11    1    3    3    0    0  0.16872513987E+02 -0.99840690389E+01 -0.29133723222E+02  0.35116053193E+02  0.51100000000E-03 0.  1.
         23    2    1    0    0    0 -0.54983951387E+01  0.22524463804E+02  0.17313151289E+02  0.96063361869E+02  0.91601530922E+02 0.  0.
         11    1    3    3    0    0 -0.22370909126E+02  0.32508532843E+02  0.46446874512E+02  0.60947308676E+02  0.51100000000E-03 0. -1.
         22    1    1    0    0    0  0.54983951387E+01 -0.22524463804E+02 -0.17313151289E+02  0.28936638131E+02  0.00000000000E+00 0. -1.
</event>
<event>
 5    1  0.8952932E-005  0.9118800E+02  0.7818608E-02  0.1130116E+00
         25   -1    0    0    0    0  0.00000000000E+00  0.00000000000E+00  0.99999998245E-14  0.12500000000E+03  0.12500000000E+03 0.  0.
        -11    1    3    3    0    0 -0.31807926906E+02  0.23240226985E+02  0.18189966674E+02  0.43390405071E+02  0.51100000000E-03 0. -1.
         23    2    1    0    0    0 -0.13396567954E+02 -0.24580957025E+02  0.29561229635E+01  0.96849864225E+02  0.92668581818E+02 0.  0.
         11    1    3    3    0    0  0.18411358952E+02 -0.47821184009E+02 -0.15233843711E+02  0.53459459154E+02  0.51100000000E-03 0.  1.
         22    1    1    0    0    0  0.13396567954E+02  0.24580957025E+02 -0.29561229635E+01  0.28150135775E+02  0.00000000000E+00 0.  1.
</event>
<event>
 5    1  0.8952932E-005  0.9118800E+02  0.7818608E-02  0.1130116E+00
         25   -1    0    0    0    0  0.00000000000E+00  0.00000000000E+00  0.99999998245E-14  0.12500000000E+03  0.12500000000E+03 0.  0.
        -11    1    3    3    0    0  0.28008245040E+02 -0.31782855301E+02  0.37434174677E+02  0.56532549167E+02  0.51100000000E-03 0.  1.
         23    2    1    0    0    0  0.54280377108E+01 -0.28184683330E+02  0.55534917601E+01  0.95765068179E+02  0.91193569098E+02 0.  0.
         11    1    3    3    0    0 -0.22580207329E+02  0.35981719701E+01 -0.31880682917E+02  0.39232519013E+02  0.51100000000E-03 0. -1.
         22    1    1    0    0    0 -0.54280377108E+01  0.28184683330E+02 -0.55534917601E+01  0.29234931821E+02  0.00000000000E+00 0.  1.
</event>
<event>
 5    1  0.8952932E-005  0.9118800E+02  0.7818608E-02  0.1130116E+00
         25   -1    0    0    0    0  0.00000000000E+00  0.00000000000E+00  0.99999998245E-14  0.12500000000E+03  0.12500000000E+03 0.  0.
        -11    1    3    3    0    0 -0.24903454271E+02  0.30552921591E+02  0.52528482149E+01  0.39765003043E+02  0.51100000000E-03 0. -1.
         23    2    1    0    0    0 -0.63968811285E+01 -0.19336214670E+02  0.21483875119E+02  0.95396517501E+02  0.90686985700E+02 0.  0.
         11    1    3    3    0    0  0.18506573142E+02 -0.49889136261E+02  0.16231026904E+02  0.55631514458E+02  0.51100000000E-03 0.  1.
         22    1    1    0    0    0  0.63968811285E+01  0.19336214670E+02 -0.21483875119E+02  0.29603482499E+02  0.00000000000E+00 0.  1.
</event>
<event>
 5    1  0.8952932E-005  0.9118800E+02  0.7818608E-02  0.1130116E+00
         25   -1    0    0    0    0  0.00000000000E+00  0.00000000000E+00  0.99999998245E-14  0.12500000000E+03  0.12500000000E+03 0.  0.
        -11    1    3    3    0    0 -0.70385408849E+01 -0.14811225152E+02  0.60016867959E+02  0.62216861767E+02  0.51100000000E-03 0.  1.
         23    2    1    0    0    0 -0.70958426010E+01 -0.79573280539E+01  0.26341735454E+02  0.96582451220E+02  0.92307165512E+02 0.  0.
         11    1    3    3    0    0 -0.57301716068E-01  0.68538970981E+01 -0.33675132505E+02  0.34365589453E+02  0.51100000000E-03 0. -1.
         22    1    1    0    0    0  0.70958426010E+01  0.79573280539E+01 -0.26341735454E+02  0.28417548780E+02  0.00000000000E+00 0.  1.
</event>
<event>
 5    1  0.8952932E-005  0.9118800E+02  0.7818608E-02  0.1130116E+00
         25   -1    0    0    0    0  0.00000000000E+00  0.00000000000E+00  0.99999998245E-14  0.12500000000E+03  0.12500000000E+03 0.  0.
        -11    1    3    3    0    0  0.51629044902E+02 -0.28533967590E+02  0.40480550612E+00  0.58990757341E+02  0.51100000000E-03 0.  1.
         23    2    1    0    0    0  0.19157171234E+02 -0.14627995200E+02  0.14327624158E+02  0.96959738459E+02  0.92816672073E+02 0.  0.
         11    1    3    3    0    0 -0.32471873668E+02  0.13905972390E+02  0.13922818652E+02  0.37968981118E+02  0.51100000000E-03 0. -1.
         22    1    1    0    0    0 -0.19157171234E+02  0.14627995200E+02 -0.14327624158E+02  0.28040261541E+02  0.00000000000E+00 0.  1.
</event>
<event>
 5    1  0.8952932E-005  0.9118800E+02  0.7818608E-02  0.1130116E+00
         25   -1    0    0    0    0  0.00000000000E+00  0.00000000000E+00  0.99999998245E-14  0.12500000000E+03  0.12500000000E+03 0.  0.
        -11    1    3    3    0    0  0.30093382729E+02 -0.28024011650E+02  0.22882139676E+02  0.47058997327E+02  0.51100000000E-03 0. -1.
         23    2    1    0    0    0  0.18846755647E+02 -0.79779530235E+01 -0.20423665761E+02  0.96086784061E+02  0.91633487411E+02 0.  0.
         11    1    3    3    0    0 -0.11246627082E+02  0.20046058626E+02 -0.43305805437E+02  0.49027786733E+02  0.51100000000E-03 0.  1.
         22    1    1    0    0    0 -0.18846755647E+02  0.79779530235E+01  0.20423665761E+02  0.28913215939E+02  0.00000000000E+00 0. -1.
</event>
<event>
 5    1  0.8952932E-005  0.9118800E+02  0.7818608E-02  0.1130116E+00
         25   -1    0    0    0    0  0.00000000000E+00  0.00000000000E+00  0.99999998245E-14  0.12500000000E+03  0.12500000000E+03 0.  0.
        -11    1    3    3    0    0  0.40757341984E+02  0.42081957243E+02 -0.20098208625E+00  0.58584063064E+02  0.51100000000E-03 0. -1.
         23    2    1    0    0    0  0.27124590602E+02  0.67722061672E+01 -0.45198544681E+01  0.96679772668E+02  0.92438861779E+02 0.  0.
         11    1    3    3    0    0 -0.13632751382E+02 -0.35309751076E+02 -0.43188723819E+01  0.38095709604E+02  0.51100000000E-03 0.  1.
         22    1    1    0    0    0 -0.27124590602E+02 -0.67722061672E+01  0.45198544681E+01  0.28320227332E+02  0.00000000000E+00 0. -1.
</event>
<event>
 5    1  0.8952932E-005  0.9118800E+02  0.7818608E-02  0.1130116E+00
         25   -1    0    0    0    0  0.00000000000E+00  0.00000000000E+00  0.99999998245E-14  0.12500000000E+03  0.12500000000E+03 0.  0.
        -11    1    3    3    0    0  0.22931898614E+02  0.20073130730E+02 -0.51818164189E+02  0.60115927103E+02  0.51100000000E-03 0.  1.
         23    2    1    0    0    0  0.10932459417E+01  0.37825772715E+01 -0.29226927756E+02  0.95509045733E+02  0.90841958550E+02 0.  0.
         11    1    3    3    0    0 -0.21838652673E+02 -0.16290553458E+02  0.22591236432E+02  0.35393118630E+02  0.51100000000E-03 0. -1.
         22    1    1    0    0    0 -0.10932459417E+01 -0.37825772715E+01  0.29226927756E+02  0.29490954267E+02  0.00000000000E+00 0.  1.
</event>
<event>
 5    1  0.8952932E-005  0.9118800E+02  0.7818608E-02  0.1130116E+00
         25   -1    0    0    0    0  0.00000000000E+00  0.00000000000E+00  0.99999998245E-14  0.12500000000E+03  0.12500000000E+03 0.  0.
        -11    1    3    3    0    0  0.13503104462E+01  0.46638273744E+02  0.13034607908E+02  0.48444328044E+02  0.51100000000E-03 0. -1.
         23    2    1    0    0    0 -0.27494095366E+02  0.24500273801E+02 -0.27240315955E+01  0.88072922612E+02  0.79957680387E+02 0.  0.
         11    1    3    3    0    0 -0.28844405812E+02 -0.22137999943E+02 -0.15758639503E+02  0.39628594567E+02  0.51100000000E-03 0.  1.
         22    1    1    0    0    0  0.27494095366E+02 -0.24500273801E+02  0.27240315955E+01  0.36927077388E+02  0.00000000000E+00 0. -1.
</event>
<event>
 5    1  0.8952932E-005  0.9118800E+02  0.7818608E-02  0.1130116E+00
         25   -1    0    0    0    0  0.00000000000E+00  0.00000000000E+00  0.99999998245E-14  0.12500000000E+03  0.12500000000E+03 0.  0.
        -11    1    3    3    0    0  0.14242127518E+02  0.19593255517E+02 -0.54469201190E+02  0.59612311954E+02  0.51100000000E-03 0. -1.
         23    2    1    0    0    0 -0.52488948743E+01  0.34640889472E+01 -0.28294051672E+02  0.96015449466E+02  0.91536126019E+02 0.  0.
         11    1    3    3    0    0 -0.19491022392E+02 -0.16129166569E+02  0.26175149519E+02  0.36403137512E+02  0.51100000000E-03 0.  1.
         22    1    1    0    0    0  0.52488948743E+01 -0.34640889472E+01  0.28294051672E+02  0.28984550534E+02  0.00000000000E+00 0. -1.
</event>
<event>
 5    1  0.8952932E-005  0.9118800E+02  0.7818608E-02  0.1130116E+00
         25   -1    0    0    0    0  0.00000000000E+00  0.00000000000E+00  0.99999998245E-14  0.12500000000E+03  0.12500000000E+03 0.  0.
        -11    1    3    3    0    0 -0.27940448789E+02 -0.25026489645E+02  0.76330455336E+01  0.38278678750E+02  0.51100000000E-03 0. -1.
         23    2    1    0    0    0 -0.49861656666E+01  0.27030093718E+02  0.11282424920E+02  0.95288370517E+02  0.90537796688E+02 0.  0.
         11    1    3    3    0    0  0.22954283123E+02  0.52056583363E+02  0.36493793863E+01  0.57009691766E+02  0.51100000000E-03 0.  1.
         22    1    1    0    0    0  0.49861656666E+01 -0.27030093718E+02 -0.11282424920E+02  0.29711629483E+02  0.00000000000E+00 0.  1.
</event>
<event>
 4    1  0.8952932E-005  0.9118800E+02  0.7818608E-02  0.1130116E+00
         25   -1    0    0    0    0  0.00000000000E+00  0.00000000000E+00  0.99999998245E-14  0.12500000000E+03  0.12500000000E+03 0.  0.
        -11    1    1    0    0    0 -0.23368727839E+02  0.56479685574E+02  0.52876049017E+01  0.61351536975E+02  0.51100000000E-03 0. -1.
         11    1    1    0    0    0  0.10080502253E+02 -0.72924848371E+01 -0.18574476795E+00  0.12443125096E+02  0.51100000000E-03 0.  1.
         22    1    1    0    0    0  0.13288225587E+02 -0.49187200737E+02 -0.51018601337E+01  0.51205337929E+02  0.00000000000E+00 0. -1.
</event>
<event>
 5    1  0.8952932E-005  0.9118800E+02  0.7818608E-02  0.1130116E+00
         25   -1    0    0    0    0  0.00000000000E+00  0.00000000000E+00  0.99999998245E-14  0.12500000000E+03  0.12500000000E+03 0.  0.
        -11    1    3    3    0    0 -0.36815602332E+02  0.21460580740E+02 -0.42354656037E+02  0.60082127035E+02  0.51100000000E-03 0. -1.
         23    2    1    0    0    0 -0.24798870518E+02  0.12012315086E+02 -0.10322251410E+02  0.95575034972E+02  0.90932715472E+02 0.  0.
         11    1    3    3    0    0  0.12016731814E+02 -0.94482656546E+01  0.32032404627E+02  0.35492907937E+02  0.51100000000E-03 0.  1.
         22    1    1    0    0    0  0.24798870518E+02 -0.12012315086E+02  0.10322251410E+02  0.29424965028E+02  0.00000000000E+00 0. -1.
</event>
<event>
 5    1  0.8952932E-005  0.9118800E+02  0.7818608E-02  0.1130116E+00
         25   -1    0    0    0    0  0.00000000000E+00  0.00000000000E+00  0.99999998245E-14  0.12500000000E+03  0.12500000000E+03 0.  0.
        -11    1    3    3    0    0 -0.33814647063E+02 -0.25649648145E+02 -0.35171898278E+02  0.55121658490E+02  0.51100000000E-03 0.  1.
         23    2    1    0    0    0 -0.16121131935E+02 -0.24153535418E+02  0.15583730615E+01  0.95918860156E+02  0.91404130317E+02 0.  0.
         11    1    3    3    0    0  0.17693515129E+02  0.14961127270E+01  0.36730271339E+02  0.40797201666E+02  0.51100000000E-03 0. -1.
         22    1    1    0    0    0  0.16121131935E+02  0.24153535418E+02 -0.15583730615E+01  0.29081139844E+02  0.00000000000E+00 0. -1.
</event>
<event>
 5    1  0.8952932E-005  0.9118800E+02  0.7818608E-02  0.1130116E+00
         25   -1    0    0    0    0  0.00000000000E+00  0.00000000000E+00  0.99999998245E-14  0.12500000000E+03  0.12500000000E+03 0.  0.
        -11    1    3    3    0    0 -0.18584937950E+02  0.23194086984E+02 -0.25535500230E+02  0.39184529624E+02  0.51100000000E-03 0. -1.
         23    2    1    0    0    0 -0.15822437024E+02 -0.22967903486E+02  0.76209195296E+01  0.96087156515E+02  0.91633995486E+02 0.  0.
         11    1    3    3    0    0  0.27625009265E+01 -0.46161990470E+02  0.33156419759E+02  0.56902626890E+02  0.51100000000E-03 0.  1.
         22    1    1    0    0    0  0.15822437024E+02  0.22967903486E+02 -0.76209195296E+01  0.28912843485E+02  0.00000000000E+00 0. -1.
</event>
<event>
 5    1  0.8952932E-005  0.9118800E+02  0.7818608E-02  0.1130116E+00
         25   -1    0    0    0    0  0.00000000000E+00  0.00000000000E+00  0.99999998245E-14  0.12500000000E+03  0.12500000000E+03 0.  0.
        -11    1    3    3    0    0  0.21067750822E+02  0.49818233601E+02  0.29416800158E+02  0.61571540955E+02  0.51100000000E-03 0.  1.
         23    2    1    0    0    0  0.10901044019E+02  0.18872102877E+02  0.19850642031E+02  0.95520566207E+02  0.90857809525E+02 0.  0.
         11    1    3    3    0    0 -0.10166706803E+02 -0.30946130723E+02 -0.95661581267E+01  0.33949025251E+02  0.51100000000E-03 0. -1.
         22    1    1    0    0    0 -0.10901044019E+02 -0.18872102877E+02 -0.19850642031E+02  0.29479433793E+02  0.00000000000E+00 0.  1.
</event>
<event>
 5    1  0.8952932E-005  0.9118800E+02  0.7818608E-02  0.1130116E+00
         25   -1    0    0    0    0  0.00000000000E+00  0.00000000000E+00  0.99999998245E-14  0.12500000000E+03  0.12500000000E+03 0.  0.
        -11    1    3    3    0    0 -0.85960986750E-01 -0.20984300012E+02 -0.31112948997E+02  0.37528173841E+02  0.51100000000E-03 0.  1.
         23    2    1    0    0    0 -0.13310031304E+02  0.64865906504E+00  0.23637770382E+02  0.97864748379E+02  0.94027586881E+02 0.  0.
         11    1    3    3    0    0 -0.13224070317E+02  0.21632959077E+02  0.54750719379E+02  0.60336574538E+02  0.51100000000E-03 0. -1.
         22    1    1    0    0    0  0.13310031304E+02 -0.64865906504E+00 -0.23637770382E+02  0.27135251621E+02  0.00000000000E+00 0. -1.
</event>
<event>
 5    1  0.8952932E-005  0.9118800E+02  0.7818608E-02  0.1130116E+00
         25   -1    0    0    0    0  0.00000000000E+00  0.00000000000E+00  0.99999998245E-14  0.12500000000E+03  0.12500000000E+03 0.  0.
        -11    1    3    3    0    0  0.97431609899E+01 -0.21021547561E+02  0.44288351108E+02  0.49982924005E+02  0.51100000000E-03 0. -1.
         23    2    1    0    0    0 -0.23250745049E+02 -0.64759167842E+01  0.13834853544E+02  0.97180262113E+02  0.93113186651E+02 0.  0.
         11    1    3    3    0    0 -0.32993906039E+02  0.14545630777E+02 -0.30453497564E+02  0.47197338108E+02  0.51100000000E-03 0.  1.
         22    1    1    0    0    0  0.23250745049E+02  0.64759167842E+01 -0.13834853544E+02  0.27819737887E+02  0.00000000000E+00 0.  1.
</event>
<event>
 5    1  0.8952932E-005  0.9118800E+02  0.7818608E-02  0.1130116E+00
         25   -1    0    0    0    0  0.00000000000E+00  0.00000000000E+00  0.99999998245E-14  0.12500000000E+03  0.12500000000E+03 0.  0.
        -11    1    3    3    0    0  0.21038286007E+01  0.49256330210E+02 -0.19017545178E+02  0.52842021019E+02  0.51100000000E-03 0.  1.
         23    2    1    0    0    0  0.24147043589E+02  0.14983089636E+02 -0.38529450050E+01  0.96322171032E+02  0.91954025240E+02 0.  0.
         11    1    3    3    0    0  0.22043214988E+02 -0.34273240574E+02  0.15164600173E+02  0.43480150013E+02  0.51100000000E-03 0. -1.
         22    1    1    0    0    0 -0.24147043589E+02 -0.14983089636E+02  0.38529450050E+01  0.28677828968E+02  0.00000000000E+00 0. -1.
</event>
<event>
 5    1  0.8952932E-005  0.9118800E+02  0.7818608E-02  0.1130116E+00
         25   -1    0    0    0    0  0.00000000000E+00  0.00000000000E+00  0.99999998245E-14  0.12500000000E+03  0.12500000000E+03 0.  0.
        -11    1    3    3    0    0 -0.18243682597E+02  0.13675580992E+02  0.26732161575E+02  0.35134910458E+02  0.51100000000E-03 0.  1.
         23    2    1    0    0    0 -0.17277661719E+01 -0.23639574251E+02 -0.17666554591E+02  0.95437831645E+02  0.90743913908E+02 0.  0.
         11    1    3    3    0    0  0.16515916425E+02 -0.37315155243E+02 -0.44398716166E+02  0.60302921187E+02  0.51100000000E-03 0. -1.
         22    1    1    0    0    0  0.17277661719E+01  0.23639574251E+02  0.17666554591E+02  0.29562168355E+02  0.00000000000E+00 0. -1.
</event>
<event>
 5    1  0.8952932E-005  0.9118800E+02  0.7818608E-02  0.1130116E+00
         25   -1    0    0    0    0  0.00000000000E+00  0.00000000000E+00  0.99999998245E-14  0.12500000000E+03  0.12500000000E+03 0.  0.
        -11    1    3    3    0    0  0.52413399044E+02 -0.28012174088E+02 -0.17272572877E+02  0.61888513236E+02  0.51100000000E-03 0.  1.
         23    2    1    0    0    0  0.22570784703E+02 -0.12687049235E+02 -0.13920149066E+02  0.95603195914E+02  0.90971418471E+02 0.  0.
         11    1    3    3    0    0 -0.29842614341E+02  0.15325124853E+02  0.33524238107E+01  0.33714682679E+02  0.51100000000E-03 0. -1.
         22    1    1    0    0    0 -0.22570784703E+02  0.12687049235E+02  0.13920149066E+02  0.29396804086E+02  0.00000000000E+00 0.  1.
</event>
<event>
 5    1  0.8952932E-005  0.9118800E+02  0.7818608E-02  0.1130116E+00
         25   -1    0    0    0    0  0.00000000000E+00  0.00000000000E+00  0.99999998245E-14  0.12500000000E+03  0.12500000000E+03 0.  0.
        -11    1    3    3    0    0  0.44248693017E+02  0.25611201097E+02 -0.16078561192E+02  0.53594781328E+02  0.51100000000E-03 0. -1.
         23    2    1    0    0    0  0.64538862248E+01  0.24418484555E+02  0.80979781085E+01  0.98476571021E+02  0.94837454390E+02 0.  0.
         11    1    3    3    0    0 -0.37794806792E+02 -0.11927165422E+01  0.24176539301E+02  0.44881789693E+02  0.51100000000E-03 0.  1.
         22    1    1    0    0    0 -0.64538862248E+01 -0.24418484555E+02 -0.80979781085E+01  0.26523428979E+02  0.00000000000E+00 0. -1.
</event>
<event>
 5    1  0.8952932E-005  0.9118800E+02  0.7818608E-02  0.1130116E+00
         25   -1    0    0    0    0  0.00000000000E+00  0.00000000000E+00  0.99999998245E-14  0.12500000000E+03  0.12500000000E+03 0.  0.
        -11    1    3    3    0    0  0.56574134372E+02 -0.14741166210E+02  0.21183012900E+02  0.62182430773E+02  0.51100000000E-03 0. -1.
         23    2    1    0    0    0  0.24901345006E+02 -0.48275614354E+01  0.13573171203E+02  0.96231730865E+02  0.91831000845E+02 0.  0.
         11    1    3    3    0    0 -0.31672789365E+02  0.99136047743E+01 -0.76098416975E+01  0.34049300091E+02  0.51100000000E-03 0.  1.
         22    1    1    0    0    0 -0.24901345006E+02  0.48275614354E+01 -0.13573171203E+02  0.28768269135E+02  0.00000000000E+00 0. -1.
</event>
<event>
 5    1  0.8952932E-005  0.9118800E+02  0.7818608E-02  0.1130116E+00
         25   -1    0    0    0    0  0.00000000000E+00  0.00000000000E+00  0.99999998245E-14  0.12500000000E+03  0.12500000000E+03 0.  0.
        -11    1    3    3    0    0  0.39615206998E+02  0.81982459954E+01  0.33894052830E+02  0.52776724798E+02  0.51100000000E-03 0.  1.
         23    2    1    0    0    0  0.28931019215E+02 -0.45097393697E+01 -0.52103338192E+01  0.95259636846E+02  0.90498117171E+02 0.  0.
         11    1    3    3    0    0 -0.10684187783E+02 -0.12707985365E+02 -0.39104386649E+02  0.42482912048E+02  0.51100000000E-03 0. -1.
         22    1    1    0    0    0 -0.28931019215E+02  0.45097393697E+01  0.52103338192E+01  0.29740363154E+02  0.00000000000E+00 0.  1.
</event>
<event>
 5    1  0.8952932E-005  0.9118800E+02  0.7818608E-02  0.1130116E+00
         25   -1    0    0    0    0  0.00000000000E+00  0.00000000000E+00  0.99999998245E-14  0.12500000000E+03  0.12500000000E+03 0.  0.
        -11    1    3    3    0    0  0.17037282388E+02  0.13631498934E+02 -0.47275471606E+02  0.52067811267E+02  0.51100000000E-03 0.  1.
         23    2    1    0    0    0  0.10359720989E+02 -0.18155873339E+02 -0.28728770394E+02  0.89471113105E+02  0.82114421853E+02 0.  0.
         11    1    3    3    0    0 -0.66775613991E+01 -0.31787372273E+02  0.18546701212E+02  0.37403301838E+02  0.51100000000E-03 0. -1.
         22    1    1    0    0    0 -0.10359720989E+02  0.18155873339E+02  0.28728770394E+02  0.35528886895E+02  0.00000000000E+00 0.  1.
</event>
<event>
 5    1  0.8952932E-005  0.9118800E+02  0.7818608E-02  0.1130116E+00
         25   -1    0    0    0    0  0.00000000000E+00  0.00000000000E+00  0.99999998245E-14  0.12500000000E+03  0.12500000000E+03 0.  0.
        -11    1    3    3    0    0 -0.37889623694E+02  0.31962564750E+02 -0.10493807566E+02  0.50669015449E+02  0.51100000000E-03 0. -1.
         23    2    1    0    0    0 -0.21349396525E+02 -0.11223205078E+02 -0.14112135450E+02  0.97055243226E+02  0.92945203247E+02 0.  0.
         11    1    3    3    0    0  0.16540227169E+02 -0.43185769828E+02 -0.36183278834E+01  0.46386227777E+02  0.51100000000E-03 0.  1.
         22    1    1    0    0    0  0.21349396525E+02  0.11223205078E+02  0.14112135450E+02  0.27944756774E+02  0.00000000000E+00 0. -1.
</event>
<event>
 5    1  0.8952932E-005  0.9118800E+02  0.7818608E-02  0.1130116E+00
         25   -1    0    0    0    0  0.00000000000E+00  0.00000000000E+00  0.99999998245E-14  0.12500000000E+03  0.12500000000E+03 0.  0.
        -11    1    3    3    0    0 -0.39335130363E+02  0.98562408384E+00  0.27717507403E+02  0.48129867571E+02  0.51100000000E-03 0.  1.
         23    2    1    0    0    0  0.45111009581E+01  0.13026746434E+02  0.28209621429E+02  0.93602087718E+02  0.88178919983E+02 0.  0.
         11    1    3    3    0    0  0.43846231321E+02  0.12041122350E+02  0.49211402628E+00  0.45472220146E+02  0.51100000000E-03 0. -1.
         22    1    1    0    0    0 -0.45111009581E+01 -0.13026746434E+02 -0.28209621429E+02  0.31397912282E+02  0.00000000000E+00 0. -1.
</event>
<event>
 5    1  0.8952932E-005  0.9118800E+02  0.7818608E-02  0.1130116E+00
         25   -1    0    0    0    0  0.00000000000E+00  0.00000000000E+00  0.99999998245E-14  0.12500000000E+03  0.12500000000E+03 0.  0.
        -11    1    3    3    0    0 -0.48509598230E+02 -0.92701091996E+00 -0.29841738328E+02  0.56961125483E+02  0.51100000000E-03 0.  1.
         23    2    1    0    0    0 -0.16057533036E+02 -0.16252281604E+02 -0.21102589890E+02  0.93898547870E+02  0.88598176999E+02 0.  0.
         11    1    3    3    0    0  0.32452065194E+02 -0.15325270684E+02  0.87391484380E+01  0.36937422387E+02  0.51100000000E-03 0. -1.
         22    1    1    0    0    0  0.16057533036E+02  0.16252281604E+02  0.21102589890E+02  0.31101452130E+02  0.00000000000E+00 0.  1.
</event>
<event>
 5    1  0.8952932E-005  0.9118800E+02  0.7818608E-02  0.1130116E+00
         25   -1    0    0    0    0  0.00000000000E+00  0.00000000000E+00  0.99999998245E-14  0.12500000000E+03  0.12500000000E+03 0.  0.
        -11    1    3    3    0    0  0.24246844573E+02  0.39163364073E+02  0.21326397452E+02  0.50759174400E+02  0.51100000000E-03 0. -1.
         23    2    1    0    0    0 -0.10106471071E+02  0.32945573526E+02  0.24374785231E+01  0.90453033794E+02  0.83595804013E+02 0.  0.
         11    1    3    3    0    0 -0.34353315644E+02 -0.62177905468E+01 -0.18888918929E+02  0.39693859394E+02  0.51100000000E-03 0.  1.
         22    1    1    0    0    0  0.10106471071E+02 -0.32945573526E+02 -0.24374785231E+01  0.34546966206E+02  0.00000000000E+00 0.  1.
</event>
<event>
 5    1  0.8952932E-005  0.9118800E+02  0.7818608E-02  0.1130116E+00
         25   -1    0    0    0    0  0.00000000000E+00  0.00000000000E+00  0.99999998245E-14  0.12500000000E+03  0.12500000000E+03 0.  0.
        -11    1    3    3    0    0 -0.27454210700E+02 -0.14785535507E+02  0.48696932594E+02  0.57825055034E+02  0.51100000000E-03 0.  1.
         23    2    1    0    0    0 -0.23336457439E+02  0.42802273701E+01  0.14498431010E+02  0.97195052708E+02  0.93133040200E+02 0.  0.
         11    1    3    3    0    0  0.41177532611E+01  0.19065762877E+02 -0.34198501584E+02  0.39369997673E+02  0.51100000000E-03 0. -1.
         22    1    1    0    0    0  0.23336457439E+02 -0.42802273701E+01 -0.14498431010E+02  0.27804947292E+02  0.00000000000E+00 0.  1.
</event>
<event>
 5    1  0.8952932E-005  0.9118800E+02  0.7818608E-02  0.1130116E+00
         25   -1    0    0    0    0  0.00000000000E+00  0.00000000000E+00  0.99999998245E-14  0.12500000000E+03  0.12500000000E+03 0.  0.
        -11    1    3    3    0    0  0.53523024882E+02  0.95631982036E+01 -0.77083239247E+01  0.54914362515E+02  0.51100000000E-03 0. -1.
         23    2    1    0    0    0  0.17933709965E+02  0.23893635665E+02 -0.10378917583E+02  0.93373338643E+02  0.87854053183E+02 0.  0.
         11    1    3    3    0    0 -0.35589314917E+02  0.14330437461E+02 -0.26705936588E+01  0.38458976128E+02  0.51100000000E-03 0.  1.
         22    1    1    0    0    0 -0.17933709965E+02 -0.23893635665E+02  0.10378917583E+02  0.31626661357E+02  0.00000000000E+00 0.  1.
</event>
<event>
 5    1  0.8952932E-005  0.9118800E+02  0.7818608E-02  0.1130116E+00
         25   -1    0    0    0    0  0.00000000000E+00  0.00000000000E+00  0.99999998245E-14  0.12500000000E+03  0.12500000000E+03 0.  0.
        -11    1    3    3    0    0 -0.25106880395E+02  0.36646594901E+02 -0.14409922010E+02  0.46700901636E+02  0.51100000000E-03 0.  1.
         23    2    1    0    0    0 -0.27126712111E+02 -0.10813350691E+02 -0.23967608248E+01  0.95699291381E+02  0.91103363524E+02 0.  0.
         11    1    3    3    0    0 -0.20198317155E+01 -0.47459945592E+02  0.12013161185E+02  0.48998389746E+02  0.51100000000E-03 0. -1.
         22    1    1    0    0    0  0.27126712111E+02  0.10813350691E+02  0.23967608248E+01  0.29300708619E+02  0.00000000000E+00 0.  1.
</event>
<event>
 5    1  0.8952932E-005  0.9118800E+02  0.7818608E-02  0.1130116E+00
         25   -1    0    0    0    0  0.00000000000E+00  0.00000000000E+00  0.99999998245E-14  0.12500000000E+03  0.12500000000E+03 0.  0.
        -11    1    3    3    0    0  0.41809673219E+02  0.35894311684E+02 -0.11290002315E+02  0.56248684771E+02  0.51100000000E-03 0. -1.
         23    2    1    0    0    0  0.29261543291E+02 -0.53234361498E+00 -0.57849968701E+01  0.95167341816E+02  0.90370545280E+02 0.  0.
         11    1    3    3    0    0 -0.12548129928E+02 -0.36426655299E+02  0.55050054450E+01  0.38918657045E+02  0.51100000000E-03 0.  1.
         22    1    1    0    0    0 -0.29261543291E+02  0.53234361498E+00  0.57849968701E+01  0.29832658184E+02  0.00000000000E+00 0. -1.
</event>
<event>
 5    1  0.8952932E-005  0.9118800E+02  0.7818608E-02  0.1130116E+00
         25   -1    0    0    0    0  0.00000000000E+00  0.00000000000E+00  0.99999998245E-14  0.12500000000E+03  0.12500000000E+03 0.  0.
        -11    1    3    3    0    0 -0.19015917249E+01  0.53716731639E+02  0.19409710383E+02  0.57147529837E+02  0.51100000000E-03 0. -1.
         23    2    1    0    0    0  0.18051330463E+01  0.15858425675E+02  0.24739753177E+02  0.95558472229E+02  0.90909944766E+02 0.  0.
         11    1    3    3    0    0  0.37067247712E+01 -0.37858305964E+02  0.53300427941E+01  0.38410942392E+02  0.51100000000E-03 0.  1.
         22    1    1    0    0    0 -0.18051330463E+01 -0.15858425675E+02 -0.24739753177E+02  0.29441527771E+02  0.00000000000E+00 0. -1.
</event>
<event>
 5    1  0.8952932E-005  0.9118800E+02  0.7818608E-02  0.1130116E+00
         25   -1    0    0    0    0  0.00000000000E+00  0.00000000000E+00  0.99999998245E-14  0.12500000000E+03  0.12500000000E+03 0.  0.
        -11    1    3    3    0    0 -0.40619885589E+02 -0.11511057682E+02  0.20778603459E+02  0.47055604514E+02  0.51100000000E-03 0.  1.
         23    2    1    0    0    0 -0.30371452925E+01 -0.29751200919E+02 -0.26932128304E+01  0.94973151964E+02  0.90101542667E+02 0.  0.
         11    1    3    3    0    0  0.37582740296E+02 -0.18240143237E+02 -0.23471816289E+02  0.47917547450E+02  0.51100000000E-03 0. -1.
         22    1    1    0    0    0  0.30371452925E+01  0.29751200919E+02  0.26932128304E+01  0.30026848036E+02  0.00000000000E+00 0. -1.
</event>
<event>
 5    1  0.8952932E-005  0.9118800E+02  0.7818608E-02  0.1130116E+00
         25   -1    0    0    0    0  0.00000000000E+00  0.00000000000E+00  0.99999998245E-14  0.12500000000E+03  0.12500000000E+03 0.  0.
        -11    1    3    3    0    0  0.20053539861E+02  0.21616199155E+02 -0.37021956611E+02  0.47328953067E+02  0.51100000000E-03 0. -1.
         23    2    1    0    0    0  0.19519956955E+02 -0.19011429954E+02 -0.10784193726E+02  0.95695358342E+02  0.91097966966E+02 0.  0.
         11    1    3    3    0    0 -0.53358290635E+00 -0.40627629109E+02  0.26237762885E+02  0.48366405274E+02  0.51100000000E-03 0.  1.
         22    1    1    0    0    0 -0.19519956955E+02  0.19011429954E+02  0.10784193726E+02  0.29304641658E+02  0.00000000000E+00 0.  1.
</event>
<event>
 5    1  0.8952932E-005  0.9118800E+02  0.7818608E-02  0.1130116E+00
         25   -1    0    0    0    0  0.00000000000E+00  0.00000000000E+00  0.99999998245E-14  0.12500000000E+03  0.12500000000E+03 0.  0.
        -11    1    3    3    0    0  0.14593509417E+02  0.27103184928E+02  0.34613970410E+02  0.46321486356E+02  0.51100000000E-03 0.  1.
         23    2    1    0    0    0 -0.46863569013E+01 -0.17316929869E+02  0.22473986999E+02  0.96243816443E+02  0.91847450214E+02 0.  0.
         11    1    3    3    0    0 -0.19279866318E+02 -0.44420114798E+02 -0.12139983411E+02  0.49922330088E+02  0.51100000000E-03 0. -1.
         22    1    1    0    0    0  0.46863569013E+01  0.17316929869E+02 -0.22473986999E+02  0.28756183557E+02  0.00000000000E+00 0. -1.
</event>
<event>
 5    1  0.8952932E-005  0.9118800E+02  0.7818608E-02  0.1130116E+00
         25   -1    0    0    0    0  0.00000000000E+00  0.00000000000E+00  0.99999998245E-14  0.12500000000E+03  0.12500000000E+03 0.  0.
        -11    1    3    3    0    0  0.14399070005E+02  0.48970897170E+01  0.35753636175E+02  0.38854050042E+02  0.51100000000E-03 0.  1.
         23    2    1    0    0    0  0.13651741164E+02  0.84497270579E+01 -0.22576370903E+02  0.97296923504E+02  0.93269667503E+02 0.  0.
         11    1    3    3    0    0 -0.74732884172E+00  0.35526373409E+01 -0.58330007078E+02  0.58442873462E+02  0.51100000000E-03 0. -1.
         22    1    1    0    0    0 -0.13651741164E+02 -0.84497270579E+01  0.22576370903E+02  0.27703076496E+02  0.00000000000E+00 0. -1.
</event>
<event>
 5    1  0.8952932E-005  0.9118800E+02  0.7818608E-02  0.1130116E+00
         25   -1    0    0    0    0  0.00000000000E+00  0.00000000000E+00  0.99999998245E-14  0.12500000000E+03  0.12500000000E+03 0.  0.
        -11    1    3    3    0    0 -0.56672716919E+02 -0.64080663713E+00  0.22560630935E+02  0.61001553624E+02  0.51100000000E-03 0. -1.
         23    2    1    0    0    0 -0.25392073803E+02  0.92742553568E+01  0.89870868672E+01  0.96512512311E+02  0.92212407396E+02 0.  0.
         11    1    3    3    0    0  0.31280643115E+02  0.99150619939E+01 -0.13573544068E+02  0.35510958687E+02  0.51100000000E-03 0.  1.
         22    1    1    0    0    0  0.25392073803E+02 -0.92742553568E+01 -0.89870868672E+01  0.28487487689E+02  0.00000000000E+00 0. -1.
</event>
<event>
 5    1  0.8952932E-005  0.9118800E+02  0.7818608E-02  0.1130116E+00
         25   -1    0    0    0    0  0.00000000000E+00  0.00000000000E+00  0.99999998245E-14  0.12500000000E+03  0.12500000000E+03 0.  0.
        -11    1    3    3    0    0  0.28441382067E+02 -0.11205321360E+02  0.46887107688E+02  0.55972067214E+02  0.51100000000E-03 0.  1.
         23    2    1    0    0    0 -0.53721266326E+01 -0.14032979212E+02  0.23220395450E+02  0.97341890611E+02  0.93329912958E+02 0.  0.
         11    1    3    3    0    0 -0.33813508699E+02 -0.28276578520E+01 -0.23666712237E+02  0.41369823397E+02  0.51100000000E-03 0. -1.
         22    1    1    0    0    0  0.53721266326E+01  0.14032979212E+02 -0.23220395450E+02  0.27658109389E+02  0.00000000000E+00 0.  1.
</event>
<event>
 5    1  0.8952932E-005  0.9118800E+02  0.7818608E-02  0.1130116E+00
         25   -1    0    0    0    0  0.00000000000E+00  0.00000000000E+00  0.99999998245E-14  0.12500000000E+03  0.12500000000E+03 0.  0.
        -11    1    3    3    0    0  0.13673204343E+02  0.19519929564E+02  0.41082763867E+02  0.47495027681E+02  0.51100000000E-03 0.  1.
         23    2    1    0    0    0  0.29482566592E+02  0.26641362108E+01 -0.86211085413E+00  0.95384757477E+02  0.90670774615E+02 0.  0.
         11    1    3    3    0    0  0.15809362249E+02 -0.16855793354E+02 -0.41944874721E+02  0.47889729796E+02  0.51100000000E-03 0. -1.
         22    1    1    0    0    0 -0.29482566592E+02 -0.26641362108E+01  0.86211085413E+00  0.29615242523E+02  0.00000000000E+00 0.  1.
</event>
<event>
 5    1  0.8952932E-005  0.9118800E+02  0.7818608E-02  0.1130116E+00
         25   -1    0    0    0    0  0.00000000000E+00  0.00000000000E+00  0.99999998245E-14  0.12500000000E+03  0.12500000000E+03 0.  0.
        -11    1    3    3    0    0  0.95159054681E+01  0.40015778545E+02  0.35730140701E+02  0.54483556641E+02  0.51100000000E-03 0.  1.
         23    2    1    0    0    0 -0.10467142786E+02  0.45992765396E+01  0.26436552397E+02  0.96197122967E+02  0.91783880620E+02 0.  0.
         11    1    3    3    0    0 -0.19983048254E+02 -0.35416502005E+02 -0.92935883044E+01  0.41713566326E+02  0.51100000000E-03 0. -1.
         22    1    1    0    0    0  0.10467142786E+02 -0.45992765396E+01 -0.26436552397E+02  0.28802877033E+02  0.00000000000E+00 0.  1.
</event>
<event>
 5    1  0.8952932E-005  0.9118800E+02  0.7818608E-02  0.1130116E+00
         25   -1    0    0    0    0  0.00000000000E+00  0.00000000000E+00  0.99999998245E-14  0.12500000000E+03  0.12500000000E+03 0.  0.
        -11    1    3    3    0    0 -0.46216156993E+02 -0.77098748540E+01  0.35775293873E+02  0.58951225513E+02  0.51100000000E-03 0.  1.
         23    2    1    0    0    0 -0.11452651037E+02 -0.10157510270E+02  0.25454555777E+02  0.95296925404E+02  0.90549607128E+02 0.  0.
         11    1    3    3    0    0  0.34763505956E+02 -0.24476354158E+01 -0.10320738096E+02  0.36345699892E+02  0.51100000000E-03 0. -1.
         22    1    1    0    0    0  0.11452651037E+02  0.10157510270E+02 -0.25454555777E+02  0.29703074596E+02  0.00000000000E+00 0.  1.
</event>
<event>
 5    1  0.8952932E-005  0.9118800E+02  0.7818608E-02  0.1130116E+00
         25   -1    0    0    0    0  0.00000000000E+00  0.00000000000E+00  0.99999998245E-14  0.12500000000E+03  0.12500000000E+03 0.  0.
        -11    1    3    3    0    0 -0.34684860240E+02  0.18080532248E+01 -0.34755533000E+02  0.49135075666E+02  0.51100000000E-03 0. -1.
         23    2    1    0    0    0  0.22976683571E+01 -0.22321596089E+02 -0.17493287203E+02  0.96547442488E+02  0.92259745403E+02 0.  0.
         11    1    3    3    0    0  0.36982528597E+02 -0.24129649314E+02  0.17262245797E+02  0.47412366822E+02  0.51100000000E-03 0.  1.
         22    1    1    0    0    0 -0.22976683571E+01  0.22321596089E+02  0.17493287203E+02  0.28452557512E+02  0.00000000000E+00 0.  1.
</event>
<event>
 4    1  0.8952932E-005  0.9118800E+02  0.7818608E-02  0.1130116E+00
         25   -1    0    0    0    0  0.00000000000E+00  0.00000000000E+00  0.99999998245E-14  0.12500000000E+03  0.12500000000E+03 0.  0.
        -11    1    1    0    0    0  0.45210009431E+01  0.53064320710E+01  0.67826138933E+01  0.97263313916E+01  0.51100000000E-03 0. -1.
         11    1    1    0    0    0 -0.19461848029E+02 -0.51637751182E+02  0.21209095951E+02  0.59118919368E+02  0.51100000000E-03 0.  1.
         22    1    1    0    0    0  0.14940847086E+02  0.46331319111E+02 -0.27991709844E+02  0.56154749241E+02  0.00000000000E+00 0.  1.
</event>
<event>
 5    1  0.8952932E-005  0.9118800E+02  0.7818608E-02  0.1130116E+00
         25   -1    0    0    0    0  0.00000000000E+00  0.00000000000E+00  0.99999998245E-14  0.12500000000E+03  0.12500000000E+03 0.  0.
        -11    1    3    3    0    0  0.18369114980E+02  0.12109364524E+02 -0.45103051112E+02  0.50183127784E+02  0.51100000000E-03 0.  1.
         23    2    1    0    0    0 -0.18566363617E+02  0.12105154446E+02 -0.22125674129E+02  0.93682431803E+02  0.88292740080E+02 0.  0.
         11    1    3    3    0    0 -0.36935478597E+02 -0.42100784594E-02  0.22977376983E+02  0.43499304019E+02  0.51100000000E-03 0. -1.
         22    1    1    0    0    0  0.18566363617E+02 -0.12105154446E+02  0.22125674129E+02  0.31317568197E+02  0.00000000000E+00 0.  1.
</event>
<event>
 5    1  0.8952932E-005  0.9118800E+02  0.7818608E-02  0.1130116E+00
         25   -1    0    0    0    0  0.00000000000E+00  0.00000000000E+00  0.99999998245E-14  0.12500000000E+03  0.12500000000E+03 0.  0.
        -11    1    3    3    0    0  0.61328600059E+02  0.10558847777E+02  0.34427132892E+01  0.62326067794E+02  0.51100000000E-03 0.  1.
         23    2    1    0    0    0  0.30297359707E+02  0.18884241654E+01  0.19952693224E+01  0.94578342407E+02  0.89552139013E+02 0.  0.
         11    1    3    3    0    0 -0.31031240353E+02 -0.86704236112E+01 -0.14474439668E+01  0.32252274613E+02  0.51100000000E-03 0. -1.
         22    1    1    0    0    0 -0.30297359707E+02 -0.18884241654E+01 -0.19952693224E+01  0.30421657593E+02  0.00000000000E+00 0.  1.
</event>
<event>
 5    1  0.8952932E-005  0.9118800E+02  0.7818608E-02  0.1130116E+00
         25   -1    0    0    0    0  0.00000000000E+00  0.00000000000E+00  0.99999998245E-14  0.12500000000E+03  0.12500000000E+03 0.  0.
        -11    1    3    3    0    0 -0.46604748981E+01 -0.44996550134E+02  0.21314107548E+01  0.45287442656E+02  0.51100000000E-03 0. -1.
         23    2    1    0    0    0  0.28165510753E+02 -0.93098286372E+01  0.83759265833E+01  0.94175901451E+02  0.88988624906E+02 0.  0.
         11    1    3    3    0    0  0.32825985651E+02  0.35686721497E+02  0.62445158286E+01  0.48888458795E+02  0.51100000000E-03 0.  1.
         22    1    1    0    0    0 -0.28165510753E+02  0.93098286372E+01 -0.83759265833E+01  0.30824098549E+02  0.00000000000E+00 0. -1.
</event>
<event>
 5    1  0.8952932E-005  0.9118800E+02  0.7818608E-02  0.1130116E+00
         25   -1    0    0    0    0  0.00000000000E+00  0.00000000000E+00  0.99999998245E-14  0.12500000000E+03  0.12500000000E+03 0.  0.
        -11    1    3    3    0    0 -0.59377569142E+02 -0.24694813787E+01  0.15292247787E+02  0.61364866969E+02  0.51100000000E-03 0. -1.
         23    2    1    0    0    0 -0.32610140974E+02 -0.51803880005E+01  0.16064803955E+02  0.88280309910E+02  0.80281239885E+02 0.  0.
         11    1    3    3    0    0  0.26767428167E+02 -0.27109066218E+01  0.77255616742E+00  0.26915442941E+02  0.51100000000E-03 0.  1.
         22    1    1    0    0    0  0.32610140974E+02  0.51803880005E+01 -0.16064803955E+02  0.36719690090E+02  0.00000000000E+00 0. -1.
</event>
<event>
 5    1  0.8952932E-005  0.9118800E+02  0.7818608E-02  0.1130116E+00
         25   -1    0    0    0    0  0.00000000000E+00  0.00000000000E+00  0.99999998245E-14  0.12500000000E+03  0.12500000000E+03 0.  0.
        -11    1    3    3    0    0 -0.22036562221E+02 -0.25843707888E+02  0.49050167618E+01  0.34315688855E+02  0.51100000000E-03 0. -1.
         23    2    1    0    0    0  0.47253939842E+01  0.29024460334E+02  0.35734982323E+01  0.95377060653E+02  0.90660163044E+02 0.  0.
         11    1    3    3    0    0  0.26761956205E+02  0.54868168222E+02 -0.13315185295E+01  0.61061371797E+02  0.51100000000E-03 0.  1.
         22    1    1    0    0    0 -0.47253939842E+01 -0.29024460334E+02 -0.35734982323E+01  0.29622939347E+02  0.00000000000E+00 0.  1.
</event>
<event>
 5    1  0.8952932E-005  0.9118800E+02  0.7818608E-02  0.1130116E+00
         25   -1    0    0    0    0  0.00000000000E+00  0.00000000000E+00  0.99999998245E-14  0.12500000000E+03  0.12500000000E+03 0.  0.
        -11    1    3    3    0    0 -0.44802433033E+02 -0.18602774176E+02 -0.52710475203E+01  0.48796569090E+02  0.51100000000E-03 0. -1.
         23    2    1    0    0    0 -0.28026776591E+01 -0.31701672300E+02 -0.49450780687E+01  0.92792783017E+02  0.87024110190E+02 0.  0.
         11    1    3    3    0    0  0.41999755374E+02 -0.13098898124E+02  0.32596945162E+00  0.43996213927E+02  0.51100000000E-03 0.  1.
         22    1    1    0    0    0  0.28026776591E+01  0.31701672300E+02  0.49450780687E+01  0.32207216983E+02  0.00000000000E+00 0. -1.
</event>
<event>
 5    1  0.8952932E-005  0.9118800E+02  0.7818608E-02  0.1130116E+00
         25   -1    0    0    0    0  0.00000000000E+00  0.00000000000E+00  0.99999998245E-14  0.12500000000E+03  0.12500000000E+03 0.  0.
        -11    1    3    3    0    0  0.77904654520E+01 -0.92077868942E+01 -0.38470446732E+02  0.40316869465E+02  0.51100000000E-03 0.  1.
         23    2    1    0    0    0  0.22440090878E+02  0.14237155958E+02  0.10397724283E+02  0.96462884542E+02  0.92145109124E+02 0.  0.
         11    1    3    3    0    0  0.14649625426E+02  0.23444942852E+02  0.48868171015E+02  0.56146015077E+02  0.51100000000E-03 0. -1.
         22    1    1    0    0    0 -0.22440090878E+02 -0.14237155958E+02 -0.10397724283E+02  0.28537115458E+02  0.00000000000E+00 0. -1.
</event>
<event>
 5    1  0.8952932E-005  0.9118800E+02  0.7818608E-02  0.1130116E+00
         25   -1    0    0    0    0  0.00000000000E+00  0.00000000000E+00  0.99999998245E-14  0.12500000000E+03  0.12500000000E+03 0.  0.
        -11    1    3    3    0    0  0.70598009037E+00 -0.51888684135E+02  0.53987633070E+01  0.52173562220E+02  0.51100000000E-03 0. -1.
         23    2    1    0    0    0  0.23937225838E+02 -0.14874586861E+02 -0.29475036547E+01  0.96663947119E+02  0.92417459280E+02 0.  0.
         11    1    3    3    0    0  0.23231245747E+02  0.37014097274E+02 -0.83462669617E+01  0.44490384899E+02  0.51100000000E-03 0.  1.
         22    1    1    0    0    0 -0.23937225838E+02  0.14874586861E+02  0.29475036547E+01  0.28336052881E+02  0.00000000000E+00 0.  1.
</event>
<event>
 5    1  0.8952932E-005  0.9118800E+02  0.7818608E-02  0.1130116E+00
         25   -1    0    0    0    0  0.00000000000E+00  0.00000000000E+00  0.99999998245E-14  0.12500000000E+03  0.12500000000E+03 0.  0.
        -11    1    3    3    0    0 -0.36043116143E+02 -0.49211127349E+01 -0.55137342626E+01  0.36792999846E+02  0.51100000000E-03 0.  1.
         23    2    1    0    0    0  0.15080618533E+02  0.24622491341E+02 -0.39258206181E+01  0.95860607373E+02  0.91324431798E+02 0.  0.
         11    1    3    3    0    0  0.51123734676E+02  0.29543604076E+02  0.15879136445E+01  0.59067607527E+02  0.51100000000E-03 0. -1.
         22    1    1    0    0    0 -0.15080618533E+02 -0.24622491341E+02  0.39258206181E+01  0.29139392627E+02  0.00000000000E+00 0. -1.
</event>
<event>
 5    1  0.8952932E-005  0.9118800E+02  0.7818608E-02  0.1130116E+00
         25   -1    0    0    0    0  0.00000000000E+00  0.00000000000E+00  0.99999998245E-14  0.12500000000E+03  0.12500000000E+03 0.  0.
        -11    1    3    3    0    0  0.62816071498E+01  0.15059459209E+02  0.36122843953E+02  0.39637176433E+02  0.51100000000E-03 0.  1.
         23    2    1    0    0    0 -0.29449857081E+02 -0.11092151499E+02  0.23634363127E+02  0.85643767617E+02  0.76065379143E+02 0.  0.
         11    1    3    3    0    0 -0.35731464231E+02 -0.26151610708E+02 -0.12488480826E+02  0.46006591184E+02  0.51100000000E-03 0. -1.
         22    1    1    0    0    0  0.29449857081E+02  0.11092151499E+02 -0.23634363127E+02  0.39356232383E+02  0.00000000000E+00 0. -1.
</event>
<event>
 5    1  0.8952932E-005  0.9118800E+02  0.7818608E-02  0.1130116E+00
         25   -1    0    0    0    0  0.00000000000E+00  0.00000000000E+00  0.99999998245E-14  0.12500000000E+03  0.12500000000E+03 0.  0.
        -11    1    3    3    0    0 -0.22697132978E+02 -0.48390543643E+02 -0.18323858651E+02  0.56502817236E+02  0.51100000000E-03 0. -1.
         23    2    1    0    0    0 -0.89359057658E+01 -0.26852190207E+02  0.10306092997E+02  0.94881798134E+02  0.89974716079E+02 0.  0.
         11    1    3    3    0    0  0.13761227212E+02  0.21538353436E+02  0.28629951648E+02  0.38378980898E+02  0.51100000000E-03 0.  1.
         22    1    1    0    0    0  0.89359057658E+01  0.26852190207E+02 -0.10306092997E+02  0.30118201866E+02  0.00000000000E+00 0. -1.
</event>
<event>
 5    1  0.8952932E-005  0.9118800E+02  0.7818608E-02  0.1130116E+00
         25   -1    0    0    0    0  0.00000000000E+00  0.00000000000E+00  0.99999998245E-14  0.12500000000E+03  0.12500000000E+03 0.  0.
        -11    1    3    3    0    0  0.46166679601E+02 -0.24437427282E+02  0.16639680042E+02  0.54821794112E+02  0.51100000000E-03 0. -1.
         23    2    1    0    0    0  0.14844651980E+02  0.32454529404E+01  0.23332011206E+02  0.97156160392E+02  0.93080825620E+02 0.  0.
         11    1    3    3    0    0 -0.31322027621E+02  0.27682880222E+02  0.66923311636E+01  0.42334366280E+02  0.51100000000E-03 0.  1.
         22    1    1    0    0    0 -0.14844651980E+02 -0.32454529404E+01 -0.23332011206E+02  0.27843839608E+02  0.00000000000E+00 0. -1.
</event>
<event>
 5    1  0.8952932E-005  0.9118800E+02  0.7818608E-02  0.1130116E+00
         25   -1    0    0    0    0  0.00000000000E+00  0.00000000000E+00  0.99999998245E-14  0.12500000000E+03  0.12500000000E+03 0.  0.
        -11    1    3    3    0    0  0.39129162661E+02 -0.14504927121E+02  0.39438717795E+02  0.57418609726E+02  0.51100000000E-03 0.  1.
         23    2    1    0    0    0  0.87300963904E+01  0.56076557427E+01  0.27231619452E+02  0.95858595026E+02  0.91321677363E+02 0.  0.
         11    1    3    3    0    0 -0.30399066271E+02  0.20112582864E+02 -0.12207098343E+02  0.38439985299E+02  0.51100000000E-03 0. -1.
         22    1    1    0    0    0 -0.87300963904E+01 -0.56076557427E+01 -0.27231619452E+02  0.29141404974E+02  0.00000000000E+00 0.  1.
</event>
<event>
 5    1  0.8952932E-005  0.9118800E+02  0.7818608E-02  0.1130116E+00
         25   -1    0    0    0    0  0.00000000000E+00  0.00000000000E+00  0.99999998245E-14  0.12500000000E+03  0.12500000000E+03 0.  0.
        -11    1    3    3    0    0 -0.11142301261E+02  0.24971188120E+02  0.16781986944E+02  0.32083425621E+02  0.51100000000E-03 0.  1.
         23    2    1    0    0    0  0.47027869685E+01 -0.54479743338E+01 -0.32269921821E+02  0.91937264421E+02  0.85786456421E+02 0.  0.
         11    1    3    3    0    0  0.15845088230E+02 -0.30419162453E+02 -0.49051908765E+02  0.59853838800E+02  0.51100000000E-03 0. -1.
         22    1    1    0    0    0 -0.47027869685E+01  0.54479743338E+01  0.32269921821E+02  0.33062735579E+02  0.00000000000E+00 0. -1.
</event>
<event>
 5    1  0.8952932E-005  0.9118800E+02  0.7818608E-02  0.1130116E+00
         25   -1    0    0    0    0  0.00000000000E+00  0.00000000000E+00  0.99999998245E-14  0.12500000000E+03  0.12500000000E+03 0.  0.
        -11    1    3    3    0    0 -0.17794816203E+02 -0.22505394463E+02 -0.44831970350E+02  0.53226439195E+02  0.51100000000E-03 0. -1.
         23    2    1    0    0    0 -0.48080468048E+01 -0.28915858993E+02 -0.54529420256E+01  0.95184252615E+02  0.90393933169E+02 0.  0.
         11    1    3    3    0    0  0.12986769398E+02 -0.64104645300E+01  0.39379028325E+02  0.41957813420E+02  0.51100000000E-03 0.  1.
         22    1    1    0    0    0  0.48080468048E+01  0.28915858993E+02  0.54529420256E+01  0.29815747385E+02  0.00000000000E+00 0. -1.
</event>
<event>
 5    1  0.8952932E-005  0.9118800E+02  0.7818608E-02  0.1130116E+00
         25   -1    0    0    0    0  0.00000000000E+00  0.00000000000E+00  0.99999998245E-14  0.12500000000E+03  0.12500000000E+03 0.  0.
        -11    1    3    3    0    0  0.16737946753E+02  0.80198873701E+01 -0.51044629311E+02  0.54314193694E+02  0.51100000000E-03 0.  1.
         23    2    1    0    0    0 -0.84975519683E+01 -0.12092914690E+02 -0.25723869808E+02  0.95332434325E+02  0.90598612469E+02 0.  0.
         11    1    3    3    0    0 -0.25235498722E+02 -0.20112802060E+02  0.25320759502E+02  0.41018240631E+02  0.51100000000E-03 0. -1.
         22    1    1    0    0    0  0.84975519683E+01  0.12092914690E+02  0.25723869808E+02  0.29667565675E+02  0.00000000000E+00 0. -1.
</event>
<event>
 5    1  0.8952932E-005  0.9118800E+02  0.7818608E-02  0.1130116E+00
         25   -1    0    0    0    0  0.00000000000E+00  0.00000000000E+00  0.99999998245E-14  0.12500000000E+03  0.12500000000E+03 0.  0.
        -11    1    3    3    0    0 -0.43163569560E+02 -0.26515709239E+02 -0.10437491974E+02  0.51721541088E+02  0.51100000000E-03 0.  1.
         23    2    1    0    0    0 -0.13080701246E+02 -0.15499260814E+02  0.20432462668E+02  0.96210811724E+02  0.91802521377E+02 0.  0.
         11    1    3    3    0    0  0.30082868314E+02  0.11016448424E+02  0.30869954642E+02  0.44489270636E+02  0.51100000000E-03 0. -1.
         22    1    1    0    0    0  0.13080701246E+02  0.15499260814E+02 -0.20432462668E+02  0.28789188276E+02  0.00000000000E+00 0.  1.
</event>
<event>
 5    1  0.8952932E-005  0.9118800E+02  0.7818608E-02  0.1130116E+00
         25   -1    0    0    0    0  0.00000000000E+00  0.00000000000E+00  0.99999998245E-14  0.12500000000E+03  0.12500000000E+03 0.  0.
        -11    1    3    3    0    0 -0.17816897956E+02 -0.30861368269E+02 -0.14255097516E+02  0.38380642382E+02  0.51100000000E-03 0.  1.
         23    2    1    0    0    0 -0.17711052054E+02  0.23101226184E+02 -0.14796354471E+02  0.92346055036E+02  0.86380054173E+02 0.  0.
         11    1    3    3    0    0  0.10584590195E+00  0.53962594454E+02 -0.54125695553E+00  0.53965412654E+02  0.51100000000E-03 0. -1.
         22    1    1    0    0    0  0.17711052054E+02 -0.23101226184E+02  0.14796354471E+02  0.32653944964E+02  0.00000000000E+00 0. -1.
</event>
<event>
 5    1  0.8952932E-005  0.9118800E+02  0.7818608E-02  0.1130116E+00
         25   -1    0    0    0    0  0.00000000000E+00  0.00000000000E+00  0.99999998245E-14  0.12500000000E+03  0.12500000000E+03 0.  0.
        -11    1    3    3    0    0 -0.60972043756E+01 -0.11304904975E+02 -0.29519300601E+02  0.32192637138E+02  0.51100000000E-03 0.  1.
         23    2    1    0    0    0  0.33325723499E+02  0.17407054211E+02 -0.21709864496E+02  0.81584247105E+02  0.69072872940E+02 0.  0.
         11    1    3    3    0    0  0.39422927875E+02  0.28711959185E+02  0.78094361056E+01  0.49391609966E+02  0.51100000000E-03 0. -1.
         22    1    1    0    0    0 -0.33325723499E+02 -0.17407054211E+02  0.21709864496E+02  0.43415752895E+02  0.00000000000E+00 0.  1.
</event>
<event>
 5    1  0.8952932E-005  0.9118800E+02  0.7818608E-02  0.1130116E+00
         25   -1    0    0    0    0  0.00000000000E+00  0.00000000000E+00  0.99999998245E-14  0.12500000000E+03  0.12500000000E+03 0.  0.
        -11    1    3    3    0    0 -0.26311019144E+02  0.78305588348E+01  0.26536324544E+02  0.38180674439E+02  0.51100000000E-03 0.  1.
         23    2    1    0    0    0 -0.18963397802E+02  0.20097406211E+02 -0.22567170059E+02  0.89323770420E+02  0.81889819910E+02 0.  0.
         11    1    3    3    0    0  0.73476213421E+01  0.12266847376E+02 -0.49103494604E+02  0.51143095981E+02  0.51100000000E-03 0. -1.
         22    1    1    0    0    0  0.18963397802E+02 -0.20097406211E+02  0.22567170059E+02  0.35676229580E+02  0.00000000000E+00 0. -1.
</event>
<event>
 5    1  0.8952932E-005  0.9118800E+02  0.7818608E-02  0.1130116E+00
         25   -1    0    0    0    0  0.00000000000E+00  0.00000000000E+00  0.99999998245E-14  0.12500000000E+03  0.12500000000E+03 0.  0.
        -11    1    3    3    0    0  0.17829566435E+02 -0.99699360799E+01 -0.43277078760E+02  0.47856019590E+02  0.51100000000E-03 0. -1.
         23    2    1    0    0    0 -0.67704656664E+01  0.22202120838E+02 -0.18342877098E+02  0.95415637318E+02  0.90713336007E+02 0.  0.
         11    1    3    3    0    0 -0.24600032101E+02  0.32172056918E+02  0.24934201662E+02  0.47559617729E+02  0.51100000000E-03 0.  1.
         22    1    1    0    0    0  0.67704656664E+01 -0.22202120838E+02  0.18342877098E+02  0.29584362682E+02  0.00000000000E+00 0.  1.
</event>
<event>
 5    1  0.8952932E-005  0.9118800E+02  0.7818608E-02  0.1130116E+00
         25   -1    0    0    0    0  0.00000000000E+00  0.00000000000E+00  0.99999998245E-14  0.12500000000E+03  0.12500000000E+03 0.  0.
        -11    1    3    3    0    0 -0.38342770391E+02 -0.32836775863E+02  0.71824158221E+01  0.50990283267E+02  0.51100000000E-03 0. -1.
         23    2    1    0    0    0  0.61369692447E+01 -0.28058626744E+02  0.54910963028E+01  0.95757888844E+02  0.91183727775E+02 0.  0.
         11    1    3    3    0    0  0.44479739636E+02  0.47781491198E+01 -0.16913195193E+01  0.44767605577E+02  0.51100000000E-03 0.  1.
         22    1    1    0    0    0 -0.61369692447E+01  0.28058626744E+02 -0.54910963028E+01  0.29242111156E+02  0.00000000000E+00 0. -1.
</event>
<event>
 5    1  0.8952932E-005  0.9118800E+02  0.7818608E-02  0.1130116E+00
         25   -1    0    0    0    0  0.00000000000E+00  0.00000000000E+00  0.99999998245E-14  0.12500000000E+03  0.12500000000E+03 0.  0.
        -11    1    3    3    0    0 -0.12094706795E+02 -0.22264334745E+02 -0.36497547182E+02  0.44430321681E+02  0.51100000000E-03 0.  1.
         23    2    1    0    0    0 -0.28959533888E+02 -0.87911028008E+00  0.64805177875E+01  0.95311204998E+02  0.90569317373E+02 0.  0.
         11    1    3    3    0    0 -0.16864827093E+02  0.21385224465E+02  0.42978064970E+02  0.50880883317E+02  0.51100000000E-03 0. -1.
         22    1    1    0    0    0  0.28959533888E+02  0.87911028008E+00 -0.64805177875E+01  0.29688795002E+02  0.00000000000E+00 0. -1.
</event>
<event>
 5    1  0.8952932E-005  0.9118800E+02  0.7818608E-02  0.1130116E+00
         25   -1    0    0    0    0  0.00000000000E+00  0.00000000000E+00  0.99999998245E-14  0.12500000000E+03  0.12500000000E+03 0.  0.
        -11    1    3    3    0    0  0.28517885851E+02 -0.62305385209E+01 -0.28140032250E+02  0.40545663627E+02  0.51100000000E-03 0.  1.
         23    2    1    0    0    0  0.17377935985E+01  0.29429083804E+02  0.36247031652E+01  0.95297653743E+02  0.90550612564E+02 0.  0.
         11    1    3    3    0    0 -0.26780092252E+02  0.35659622325E+02  0.31764735415E+02  0.54751990116E+02  0.51100000000E-03 0. -1.
         22    1    1    0    0    0 -0.17377935985E+01 -0.29429083804E+02 -0.36247031652E+01  0.29702346257E+02  0.00000000000E+00 0. -1.
</event>
<event>
 5    1  0.8952932E-005  0.9118800E+02  0.7818608E-02  0.1130116E+00
         25   -1    0    0    0    0  0.00000000000E+00  0.00000000000E+00  0.99999998245E-14  0.12500000000E+03  0.12500000000E+03 0.  0.
        -11    1    3    3    0    0 -0.66485127256E+01 -0.46956645993E+02 -0.73043407620E+01  0.47984192382E+02  0.51100000000E-03 0. -1.
         23    2    1    0    0    0  0.13486288944E+02 -0.77436365198E+01 -0.25060573017E+02  0.95506336003E+02  0.90838229842E+02 0.  0.
         11    1    3    3    0    0  0.20134801670E+02  0.39213009473E+02 -0.17756232255E+02  0.47522143621E+02  0.51100000000E-03 0.  1.
         22    1    1    0    0    0 -0.13486288944E+02  0.77436365198E+01  0.25060573017E+02  0.29493663997E+02  0.00000000000E+00 0.  1.
</event>
<event>
 5    1  0.8952932E-005  0.9118800E+02  0.7818608E-02  0.1130116E+00
         25   -1    0    0    0    0  0.00000000000E+00  0.00000000000E+00  0.99999998245E-14  0.12500000000E+03  0.12500000000E+03 0.  0.
        -11    1    3    3    0    0 -0.19644790929E+02  0.27359216991E+02  0.61318064565E+01  0.34235122545E+02  0.51100000000E-03 0.  1.
         23    2    1    0    0    0 -0.14171208491E+02 -0.28792368456E+02  0.11507228358E+02  0.90908359736E+02  0.84273898296E+02 0.  0.
         11    1    3    3    0    0  0.54735824377E+01 -0.56151585447E+02  0.53754219013E+01  0.56673237191E+02  0.51100000000E-03 0. -1.
         22    1    1    0    0    0  0.14171208491E+02  0.28792368456E+02 -0.11507228358E+02  0.34091640264E+02  0.00000000000E+00 0. -1.
</event>
<event>
 5    1  0.8952932E-005  0.9118800E+02  0.7818608E-02  0.1130116E+00
         25   -1    0    0    0    0  0.00000000000E+00  0.00000000000E+00  0.99999998245E-14  0.12500000000E+03  0.12500000000E+03 0.  0.
        -11    1    3    3    0    0  0.43182979374E+02  0.41656818253E+02  0.54606552487E+01  0.60248476915E+02  0.51100000000E-03 0.  1.
         23    2    1    0    0    0  0.23017799175E+02  0.17098127542E+02 -0.86972764352E+01  0.95036561250E+02  0.90189468967E+02 0.  0.
         11    1    3    3    0    0 -0.20165180199E+02 -0.24558690711E+02 -0.14157931684E+02  0.34788084335E+02  0.51100000000E-03 0. -1.
         22    1    1    0    0    0 -0.23017799175E+02 -0.17098127542E+02  0.86972764352E+01  0.29963438750E+02  0.00000000000E+00 0.  1.
</event>
<event>
 5    1  0.8952932E-005  0.9118800E+02  0.7818608E-02  0.1130116E+00
         25   -1    0    0    0    0  0.00000000000E+00  0.00000000000E+00  0.99999998245E-14  0.12500000000E+03  0.12500000000E+03 0.  0.
        -11    1    3    3    0    0 -0.29356589324E+02  0.15221257528E+02  0.34110314410E+02  0.47507994768E+02  0.51100000000E-03 0. -1.
         23    2    1    0    0    0  0.12602007997E+02 -0.57643888238E+01  0.26582660452E+02  0.95022064434E+02  0.90169374560E+02 0.  0.
         11    1    3    3    0    0  0.41958597320E+02 -0.20985646352E+02 -0.75276539581E+01  0.47514069666E+02  0.51100000000E-03 0.  1.
         22    1    1    0    0    0 -0.12602007997E+02  0.57643888238E+01 -0.26582660452E+02  0.29977935566E+02  0.00000000000E+00 0.  1.
</event>
<event>
 5    1  0.8952932E-005  0.9118800E+02  0.7818608E-02  0.1130116E+00
         25   -1    0    0    0    0  0.00000000000E+00  0.00000000000E+00  0.99999998245E-14  0.12500000000E+03  0.12500000000E+03 0.  0.
        -11    1    3    3    0    0 -0.18053139507E+02  0.23885871282E+02  0.46141355031E+02  0.55004321079E+02  0.51100000000E-03 0.  1.
         23    2    1    0    0    0  0.11490079989E+02  0.19411409472E+02  0.16876939662E+02  0.96828101800E+02  0.92639221985E+02 0.  0.
         11    1    3    3    0    0  0.29543219496E+02 -0.44744618103E+01 -0.29264415369E+02  0.41823780721E+02  0.51100000000E-03 0. -1.
         22    1    1    0    0    0 -0.11490079989E+02 -0.19411409472E+02 -0.16876939662E+02  0.28171898200E+02  0.00000000000E+00 0.  1.
</event>
<event>
 5    1  0.8952932E-005  0.9118800E+02  0.7818608E-02  0.1130116E+00
         25   -1    0    0    0    0  0.00000000000E+00  0.00000000000E+00  0.99999998245E-14  0.12500000000E+03  0.12500000000E+03 0.  0.
        -11    1    3    3    0    0 -0.29906936993E+02 -0.21852289435E+02 -0.20520486584E+01  0.37096608171E+02  0.51100000000E-03 0.  1.
         23    2    1    0    0    0  0.20929165852E+02 -0.99840806099E+00 -0.21111713802E+02  0.95255567554E+02  0.90492496310E+02 0.  0.
         11    1    3    3    0    0  0.50836102845E+02  0.20853881374E+02 -0.19059665143E+02  0.58158959382E+02  0.51100000000E-03 0. -1.
         22    1    1    0    0    0 -0.20929165852E+02  0.99840806099E+00  0.21111713802E+02  0.29744432446E+02  0.00000000000E+00 0. -1.
</event>
<event>
 5    1  0.8952932E-005  0.9118800E+02  0.7818608E-02  0.1130116E+00
         25   -1    0    0    0    0  0.00000000000E+00  0.00000000000E+00  0.99999998245E-14  0.12500000000E+03  0.12500000000E+03 0.  0.
        -11    1    3    3    0    0 -0.30099195070E+02 -0.11820426302E+02  0.36201477710E+02  0.48541023995E+02  0.51100000000E-03 0. -1.
         23    2    1    0    0    0  0.10725668033E+02  0.11147623289E+02  0.23131224236E+02  0.97172621496E+02  0.93102928923E+02 0.  0.
         11    1    3    3    0    0  0.40824863103E+02  0.22968049591E+02 -0.13070253474E+02  0.48631597502E+02  0.51100000000E-03 0.  1.
         22    1    1    0    0    0 -0.10725668033E+02 -0.11147623289E+02 -0.23131224236E+02  0.27827378504E+02  0.00000000000E+00 0.  1.
</event>
<event>
 5    1  0.8952932E-005  0.9118800E+02  0.7818608E-02  0.1130116E+00
         25   -1    0    0    0    0  0.00000000000E+00  0.00000000000E+00  0.99999998245E-14  0.12500000000E+03  0.12500000000E+03 0.  0.
        -11    1    3    3    0    0  0.36095471146E+02 -0.17170954700E+02 -0.33495579939E+02  0.52150537852E+02  0.51100000000E-03 0.  1.
         23    2    1    0    0    0  0.38359876972E+01  0.10859727140E+02 -0.27346694067E+02  0.95326945698E+02  0.90591039428E+02 0.  0.
         11    1    3    3    0    0 -0.32259483448E+02  0.28030681840E+02  0.61488858721E+01  0.43176407846E+02  0.51100000000E-03 0. -1.
         22    1    1    0    0    0 -0.38359876972E+01 -0.10859727140E+02  0.27346694067E+02  0.29673054302E+02  0.00000000000E+00 0.  1.
</event>
<event>
 5    1  0.8952932E-005  0.9118800E+02  0.7818608E-02  0.1130116E+00
         25   -1    0    0    0    0  0.00000000000E+00  0.00000000000E+00  0.99999998245E-14  0.12500000000E+03  0.12500000000E+03 0.  0.
        -11    1    3    3    0    0 -0.10636739121E+02 -0.41330428019E+02 -0.65025328652E+01  0.43169751369E+02  0.51100000000E-03 0.  1.
         23    2    1    0    0    0  0.28189595806E+02 -0.72507034287E+01  0.31418361494E+01  0.95723778483E+02  0.91136955297E+02 0.  0.
         11    1    3    3    0    0  0.38826334927E+02  0.34079724590E+02  0.96443690147E+01  0.52554027114E+02  0.51100000000E-03 0. -1.
         22    1    1    0    0    0 -0.28189595806E+02  0.72507034287E+01 -0.31418361494E+01  0.29276221517E+02  0.00000000000E+00 0. -1.
</event>
<event>
 5    1  0.8952932E-005  0.9118800E+02  0.7818608E-02  0.1130116E+00
         25   -1    0    0    0    0  0.00000000000E+00  0.00000000000E+00  0.99999998245E-14  0.12500000000E+03  0.12500000000E+03 0.  0.
        -11    1    3    3    0    0 -0.28583822080E+02 -0.33623665947E+02  0.13437566578E+02  0.46131919451E+02  0.51100000000E-03 0. -1.
         23    2    1    0    0    0  0.18048090743E+02 -0.23234740036E+02  0.72193584574E+00  0.95570288561E+02  0.90926190618E+02 0.  0.
         11    1    3    3    0    0  0.46631912823E+02  0.10388925911E+02 -0.12715630732E+02  0.49438369110E+02  0.51100000000E-03 0.  1.
         22    1    1    0    0    0 -0.18048090743E+02  0.23234740036E+02 -0.72193584574E+00  0.29429711439E+02  0.00000000000E+00 0. -1.
</event>
<event>
 5    1  0.8952932E-005  0.9118800E+02  0.7818608E-02  0.1130116E+00
         25   -1    0    0    0    0  0.00000000000E+00  0.00000000000E+00  0.99999998245E-14  0.12500000000E+03  0.12500000000E+03 0.  0.
        -11    1    3    3    0    0 -0.63955615622E+01  0.59722144434E+02  0.14623108751E+02  0.61818064134E+02  0.51100000000E-03 0.  1.
         23    2    1    0    0    0 -0.82531825739E+01  0.30443981730E+02  0.32204003868E+01  0.93293186461E+02  0.87739937401E+02 0.  0.
         11    1    3    3    0    0 -0.18576210116E+01 -0.29278162704E+02 -0.11402708364E+02  0.31475122326E+02  0.51100000000E-03 0. -1.
         22    1    1    0    0    0  0.82531825739E+01 -0.30443981730E+02 -0.32204003868E+01  0.31706813539E+02  0.00000000000E+00 0.  1.
</event>
<event>
 5    1  0.8952932E-005  0.9118800E+02  0.7818608E-02  0.1130116E+00
         25   -1    0    0    0    0  0.00000000000E+00  0.00000000000E+00  0.99999998245E-14  0.12500000000E+03  0.12500000000E+03 0.  0.
        -11    1    3    3    0    0 -0.33902724710E+02  0.16612372731E+02 -0.22084803589E+02  0.43739046861E+02  0.51100000000E-03 0. -1.
         23    2    1    0    0    0 -0.91076039962E+01  0.13205869193E+02  0.23971230890E+02  0.96156225245E+02  0.91728165311E+02 0.  0.
         11    1    3    3    0    0  0.24795120713E+02 -0.34065035382E+01  0.46056034479E+02  0.52417178384E+02  0.51100000000E-03 0.  1.
         22    1    1    0    0    0  0.91076039962E+01 -0.13205869193E+02 -0.23971230890E+02  0.28843774755E+02  0.00000000000E+00 0.  1.
</event>
<event>
 5    1  0.8952932E-005  0.9118800E+02  0.7818608E-02  0.1130116E+00
         25   -1    0    0    0    0  0.00000000000E+00  0.00000000000E+00  0.99999998245E-14  0.12500000000E+03  0.12500000000E+03 0.  0.
        -11    1    3    3    0    0  0.22364071392E+02  0.57914117146E+01 -0.56227454911E+02  0.60788311581E+02  0.51100000000E-03 0. -1.
         23    2    1    0    0    0  0.10169141762E+02 -0.76294272673E+01 -0.26463135947E+02  0.95641574144E+02  0.91024137107E+02 0.  0.
         11    1    3    3    0    0 -0.12194929630E+02 -0.13420838982E+02  0.29764318964E+02  0.34853262563E+02  0.51100000000E-03 0.  1.
         22    1    1    0    0    0 -0.10169141762E+02  0.76294272673E+01  0.26463135947E+02  0.29358425856E+02  0.00000000000E+00 0. -1.
</event>
<event>
 5    1  0.8952932E-005  0.9118800E+02  0.7818608E-02  0.1130116E+00
         25   -1    0    0    0    0  0.00000000000E+00  0.00000000000E+00  0.99999998245E-14  0.12500000000E+03  0.12500000000E+03 0.  0.
        -11    1    3    3    0    0 -0.28257332610E+02  0.17060679692E+02  0.15912940118E+02  0.36643762106E+02  0.51100000000E-03 0. -1.
         23    2    1    0    0    0  0.21377270560E+02  0.76271405366E+01 -0.16737484171E+02  0.96798859142E+02  0.92599755860E+02 0.  0.
         11    1    3    3    0    0  0.49634603170E+02 -0.94335391555E+01 -0.32650424289E+02  0.60155097036E+02  0.51100000000E-03 0.  1.
         22    1    1    0    0    0 -0.21377270560E+02 -0.76271405366E+01  0.16737484171E+02  0.28201140858E+02  0.00000000000E+00 0.  1.
</event>
<event>
 5    1  0.8952932E-005  0.9118800E+02  0.7818608E-02  0.1130116E+00
         25   -1    0    0    0    0  0.00000000000E+00  0.00000000000E+00  0.99999998245E-14  0.12500000000E+03  0.12500000000E+03 0.  0.
        -11    1    3    3    0    0 -0.58048185807E+02 -0.12002772027E+02  0.37100083474E+01  0.59392108684E+02  0.51100000000E-03 0. -1.
         23    2    1    0    0    0 -0.20502536482E+02  0.89225674643E+01 -0.90182197410E+00  0.10262189697E+03  0.10015225530E+03 0.  0.
         11    1    3    3    0    0  0.37545649325E+02  0.20925339492E+02 -0.46118303215E+01  0.43229788286E+02  0.51100000000E-03 0.  1.
         22    1    1    0    0    0  0.20502536482E+02 -0.89225674643E+01  0.90182197410E+00  0.22378103030E+02  0.00000000000E+00 0. -1.
</event>
<event>
 5    1  0.8952932E-005  0.9118800E+02  0.7818608E-02  0.1130116E+00
         25   -1    0    0    0    0  0.00000000000E+00  0.00000000000E+00  0.99999998245E-14  0.12500000000E+03  0.12500000000E+03 0.  0.
        -11    1    3    3    0    0 -0.13272710787E+01  0.31505376240E+02 -0.17575326733E+02  0.36100450005E+02  0.51100000000E-03 0. -1.
         23    2    1    0    0    0  0.13915683086E+02 -0.22317822235E+02  0.78575354796E+01  0.97550550300E+02  0.93608960976E+02 0.  0.
         11    1    3    3    0    0  0.15242954164E+02 -0.53823198474E+02  0.25432862213E+02  0.61450100295E+02  0.51100000000E-03 0.  1.
         22    1    1    0    0    0 -0.13915683086E+02  0.22317822235E+02 -0.78575354796E+01  0.27449449700E+02  0.00000000000E+00 0.  1.
</event>
<event>
 5    1  0.8952932E-005  0.9118800E+02  0.7818608E-02  0.1130116E+00
         25   -1    0    0    0    0  0.00000000000E+00  0.00000000000E+00  0.99999998245E-14  0.12500000000E+03  0.12500000000E+03 0.  0.
        -11    1    3    3    0    0  0.21823495599E+02  0.52973476094E+02 -0.32375853520E+01  0.57384110072E+02  0.51100000000E-03 0.  1.
         23    2    1    0    0    0 -0.57935101077E+01  0.27341798889E+02 -0.92938605680E+01  0.95546399709E+02  0.90893343690E+02 0.  0.
         11    1    3    3    0    0 -0.27617005707E+02 -0.25631677204E+02 -0.60562752159E+01  0.38162289636E+02  0.51100000000E-03 0. -1.
         22    1    1    0    0    0  0.57935101077E+01 -0.27341798889E+02  0.92938605680E+01  0.29453600291E+02  0.00000000000E+00 0.  1.
</event>
<event>
 5    1  0.8952932E-005  0.9118800E+02  0.7818608E-02  0.1130116E+00
         25   -1    0    0    0    0  0.00000000000E+00  0.00000000000E+00  0.99999998245E-14  0.12500000000E+03  0.12500000000E+03 0.  0.
        -11    1    3    3    0    0  0.13336801406E+01  0.65591926047E+01 -0.16288146351E+02  0.17609810395E+02  0.51100000000E-03 0. -1.
         23    2    1    0    0    0  0.35245914280E+02  0.16611034769E+02  0.29971342522E+02  0.75842270983E+02  0.57754374257E+02 0.  0.
         11    1    3    3    0    0  0.33912234139E+02  0.10051842164E+02  0.46259488872E+02  0.58232460589E+02  0.51100000000E-03 0.  1.
         22    1    1    0    0    0 -0.35245914280E+02 -0.16611034769E+02 -0.29971342522E+02  0.49157729017E+02  0.00000000000E+00 0.  1.
</event>
<event>
 5    1  0.8952932E-005  0.9118800E+02  0.7818608E-02  0.1130116E+00
         25   -1    0    0    0    0  0.00000000000E+00  0.00000000000E+00  0.99999998245E-14  0.12500000000E+03  0.12500000000E+03 0.  0.
        -11    1    3    3    0    0  0.36205684953E+02  0.10030695853E+01 -0.46656816904E+02  0.59065356474E+02  0.51100000000E-03 0. -1.
         23    2    1    0    0    0  0.13681768752E+02  0.14656957559E+02 -0.23210487503E+02  0.94328450786E+02  0.89202649604E+02 0.  0.
         11    1    3    3    0    0 -0.22523916200E+02  0.13653887974E+02  0.23446329401E+02  0.35263094312E+02  0.51100000000E-03 0.  1.
         22    1    1    0    0    0 -0.13681768752E+02 -0.14656957559E+02  0.23210487503E+02  0.30671549214E+02  0.00000000000E+00 0. -1.
</event>
<event>
 5    1  0.8952932E-005  0.9118800E+02  0.7818608E-02  0.1130116E+00
         25   -1    0    0    0    0  0.00000000000E+00  0.00000000000E+00  0.99999998245E-14  0.12500000000E+03  0.12500000000E+03 0.  0.
        -11    1    3    3    0    0 -0.58400113908E+01 -0.22794874245E+02 -0.32076242104E+02  0.39781871910E+02  0.51100000000E-03 0.  1.
         23    2    1    0    0    0 -0.20262179582E+02 -0.84420310807E+01  0.19758189215E+02  0.95466800864E+02  0.90783810318E+02 0.  0.
         11    1    3    3    0    0 -0.14422168191E+02  0.14352843164E+02  0.51834431319E+02  0.55684928954E+02  0.51100000000E-03 0. -1.
         22    1    1    0    0    0  0.20262179582E+02  0.84420310807E+01 -0.19758189215E+02  0.29533199136E+02  0.00000000000E+00 0. -1.
</event>
<event>
 5    1  0.8952932E-005  0.9118800E+02  0.7818608E-02  0.1130116E+00
         25   -1    0    0    0    0  0.00000000000E+00  0.00000000000E+00  0.99999998245E-14  0.12500000000E+03  0.12500000000E+03 0.  0.
        -11    1    3    3    0    0 -0.28165834151E+02  0.56936160371E+00 -0.82780994597E+01  0.29362651736E+02  0.51100000000E-03 0.  1.
         23    2    1    0    0    0  0.24806934958E+02 -0.24057101774E+02  0.69938670590E+01  0.89743194356E+02  0.82527562602E+02 0.  0.
         11    1    3    3    0    0  0.52972769108E+02 -0.24626463378E+02  0.15271966519E+02  0.60380542620E+02  0.51100000000E-03 0. -1.
         22    1    1    0    0    0 -0.24806934958E+02  0.24057101774E+02 -0.69938670590E+01  0.35256805644E+02  0.00000000000E+00 0. -1.
</event>
<event>
 5    1  0.8952932E-005  0.9118800E+02  0.7818608E-02  0.1130116E+00
         25   -1    0    0    0    0  0.00000000000E+00  0.00000000000E+00  0.99999998245E-14  0.12500000000E+03  0.12500000000E+03 0.  0.
        -11    1    3    3    0    0 -0.35802803668E+01  0.39119635014E+02 -0.21630303717E+02  0.44844556975E+02  0.51100000000E-03 0. -1.
         23    2    1    0    0    0 -0.21885532772E+02 -0.47183815741E+01 -0.23701843200E+02  0.92396057899E+02  0.86452382702E+02 0.  0.
         11    1    3    3    0    0 -0.18305252406E+02 -0.43838016588E+02 -0.20715394828E+01  0.47551500924E+02  0.51100000000E-03 0.  1.
         22    1    1    0    0    0  0.21885532772E+02  0.47183815741E+01  0.23701843200E+02  0.32603942101E+02  0.00000000000E+00 0.  1.
</event>
<event>
 5    1  0.8952932E-005  0.9118800E+02  0.7818608E-02  0.1130116E+00
         25   -1    0    0    0    0  0.00000000000E+00  0.00000000000E+00  0.99999998245E-14  0.12500000000E+03  0.12500000000E+03 0.  0.
        -11    1    3    3    0    0  0.46224156591E+02  0.11399005972E+02 -0.95762502205E+01  0.48562480973E+02  0.51100000000E-03 0. -1.
         23    2    1    0    0    0  0.58781262803E+01 -0.50081742570E+01 -0.28074726007E+02  0.95882575348E+02  0.91354495440E+02 0.  0.
         11    1    3    3    0    0 -0.40346030311E+02 -0.16407180229E+02 -0.18498475787E+02  0.47320094375E+02  0.51100000000E-03 0.  1.
         22    1    1    0    0    0 -0.58781262803E+01  0.50081742570E+01  0.28074726007E+02  0.29117424652E+02  0.00000000000E+00 0. -1.
</event>
<event>
 5    1  0.8952932E-005  0.9118800E+02  0.7818608E-02  0.1130116E+00
         25   -1    0    0    0    0  0.00000000000E+00  0.00000000000E+00  0.99999998245E-14  0.12500000000E+03  0.12500000000E+03 0.  0.
        -11    1    3    3    0    0  0.32283777616E+02  0.22446968921E+02  0.15464198839E+02  0.42252220733E+02  0.51100000000E-03 0.  1.
         23    2    1    0    0    0 -0.21605477192E+02  0.16151697939E+02  0.66211562294E+01  0.97223864545E+02  0.93171702444E+02 0.  0.
         11    1    3    3    0    0 -0.53889254808E+02 -0.62952709813E+01 -0.88430426100E+01  0.54971643812E+02  0.51100000000E-03 0. -1.
         22    1    1    0    0    0  0.21605477192E+02 -0.16151697939E+02 -0.66211562294E+01  0.27776135455E+02  0.00000000000E+00 0. -1.
</event>
<event>
 5    1  0.8952932E-005  0.9118800E+02  0.7818608E-02  0.1130116E+00
         25   -1    0    0    0    0  0.00000000000E+00  0.00000000000E+00  0.99999998245E-14  0.12500000000E+03  0.12500000000E+03 0.  0.
        -11    1    3    3    0    0  0.18402154134E+02 -0.28076664817E+02 -0.43317689355E+01  0.33848228999E+02  0.51100000000E-03 0.  1.
         23    2    1    0    0    0 -0.20251786993E+02  0.16786294985E+02  0.13148389883E+02  0.95592607524E+02  0.90956868245E+02 0.  0.
         11    1    3    3    0    0 -0.38653941127E+02  0.44862959802E+02  0.17480158819E+02  0.61744378525E+02  0.51100000000E-03 0. -1.
         22    1    1    0    0    0  0.20251786993E+02 -0.16786294985E+02 -0.13148389883E+02  0.29407392476E+02  0.00000000000E+00 0. -1.
</event>
<event>
 5    1  0.8952932E-005  0.9118800E+02  0.7818608E-02  0.1130116E+00
         25   -1    0    0    0    0  0.00000000000E+00  0.00000000000E+00  0.99999998245E-14  0.12500000000E+03  0.12500000000E+03 0.  0.
        -11    1    3    3    0    0  0.59256941260E+01  0.34074543615E+02  0.19223500124E+02  0.39569323102E+02  0.51100000000E-03 0.  1.
         23    2    1    0    0    0 -0.11710081531E+02 -0.19151034762E+02  0.18921982138E+02  0.95641363282E+02  0.91023847537E+02 0.  0.
         11    1    3    3    0    0 -0.17635775657E+02 -0.53225578377E+02 -0.30151798604E+00  0.56072040180E+02  0.51100000000E-03 0. -1.
         22    1    1    0    0    0  0.11710081531E+02  0.19151034762E+02 -0.18921982138E+02  0.29358636718E+02  0.00000000000E+00 0. -1.
</event>
<event>
 5    1  0.8952932E-005  0.9118800E+02  0.7818608E-02  0.1130116E+00
         25   -1    0    0    0    0  0.00000000000E+00  0.00000000000E+00  0.99999998245E-14  0.12500000000E+03  0.12500000000E+03 0.  0.
        -11    1    3    3    0    0 -0.17780794918E+02 -0.29995756647E+02 -0.11745411352E+02  0.36794792741E+02  0.51100000000E-03 0. -1.
         23    2    1    0    0    0  0.69377765553E+01  0.23515030470E+02  0.83959180526E+01  0.99085123162E+02  0.95636189754E+02 0.  0.
         11    1    3    3    0    0  0.24718571473E+02  0.53510787117E+02  0.20141329405E+02  0.62290330422E+02  0.51100000000E-03 0.  1.
         22    1    1    0    0    0 -0.69377765553E+01 -0.23515030470E+02 -0.83959180526E+01  0.25914876838E+02  0.00000000000E+00 0.  1.
</event>
<event>
 5    1  0.8952932E-005  0.9118800E+02  0.7818608E-02  0.1130116E+00
         25   -1    0    0    0    0  0.00000000000E+00  0.00000000000E+00  0.99999998245E-14  0.12500000000E+03  0.12500000000E+03 0.  0.
        -11    1    3    3    0    0  0.22383508350E+02  0.28538099859E+02  0.23876240068E+02  0.43422568206E+02  0.51100000000E-03 0. -1.
         23    2    1    0    0    0  0.13068908400E+00 -0.18869299715E+02  0.22260581832E+02  0.95817795579E+02  0.91265814491E+02 0.  0.
         11    1    3    3    0    0 -0.22252819266E+02 -0.47407399574E+02 -0.16156582364E+01  0.52395227373E+02  0.51100000000E-03 0.  1.
         22    1    1    0    0    0 -0.13068908400E+00  0.18869299715E+02 -0.22260581832E+02  0.29182204421E+02  0.00000000000E+00 0.  1.
</event>
<event>
 5    1  0.8952932E-005  0.9118800E+02  0.7818608E-02  0.1130116E+00
         25   -1    0    0    0    0  0.00000000000E+00  0.00000000000E+00  0.99999998245E-14  0.12500000000E+03  0.12500000000E+03 0.  0.
        -11    1    3    3    0    0  0.11829200846E+02 -0.98593502822E+01 -0.55150254175E+02  0.57259822882E+02  0.51100000000E-03 0. -1.
         23    2    1    0    0    0  0.47993262585E+01 -0.23481227911E+02 -0.35089364739E+02  0.82506881563E+02  0.70722842072E+02 0.  0.
         11    1    3    3    0    0 -0.70298745879E+01 -0.13621877628E+02  0.20060889435E+02  0.25247058681E+02  0.51100000000E-03 0.  1.
         22    1    1    0    0    0 -0.47993262585E+01  0.23481227911E+02  0.35089364739E+02  0.42493118437E+02  0.00000000000E+00 0. -1.
</event>
<event>
 5    1  0.8952932E-005  0.9118800E+02  0.7818608E-02  0.1130116E+00
         25   -1    0    0    0    0  0.00000000000E+00  0.00000000000E+00  0.99999998245E-14  0.12500000000E+03  0.12500000000E+03 0.  0.
        -11    1    3    3    0    0 -0.17974811184E+02  0.98351512735E+01  0.58420347931E+02  0.61909297284E+02  0.51100000000E-03 0.  1.
         23    2    1    0    0    0 -0.59708516575E+01 -0.92269278434E+00  0.28202861470E+02  0.96157256951E+02  0.91729571228E+02 0.  0.
         11    1    3    3    0    0  0.12003959526E+02 -0.10757844058E+02 -0.30217486460E+02  0.34247959667E+02  0.51100000000E-03 0. -1.
         22    1    1    0    0    0  0.59708516575E+01  0.92269278434E+00 -0.28202861470E+02  0.28842743049E+02  0.00000000000E+00 0.  1.
</event>
<event>
 5    1  0.8952932E-005  0.9118800E+02  0.7818608E-02  0.1130116E+00
         25   -1    0    0    0    0  0.00000000000E+00  0.00000000000E+00  0.99999998245E-14  0.12500000000E+03  0.12500000000E+03 0.  0.
        -11    1    3    3    0    0 -0.18140178993E+01  0.32784707733E+01  0.31894657844E+02  0.32113988086E+02  0.51100000000E-03 0. -1.
         23    2    1    0    0    0 -0.67130972045E+00 -0.25600886678E+02 -0.20662732309E+02  0.92094004165E+02  0.86014539708E+02 0.  0.
         11    1    3    3    0    0  0.11427081788E+01 -0.28879357451E+02 -0.52557390153E+02  0.59980016078E+02  0.51100000000E-03 0.  1.
         22    1    1    0    0    0  0.67130972045E+00  0.25600886678E+02  0.20662732309E+02  0.32905995835E+02  0.00000000000E+00 0.  1.
</event>
<event>
 5    1  0.8952932E-005  0.9118800E+02  0.7818608E-02  0.1130116E+00
         25   -1    0    0    0    0  0.00000000000E+00  0.00000000000E+00  0.99999998245E-14  0.12500000000E+03  0.12500000000E+03 0.  0.
        -11    1    3    3    0    0 -0.13550336705E+02 -0.15160183228E+02  0.47116858083E+02  0.51317064376E+02  0.51100000000E-03 0. -1.
         23    2    1    0    0    0  0.18661890937E+02 -0.15608732106E+02  0.22508024941E+02  0.91856224143E+02  0.85668290725E+02 0.  0.
         11    1    3    3    0    0  0.32212227642E+02 -0.44854887810E+00 -0.24608833141E+02  0.40539159767E+02  0.51100000000E-03 0.  1.
         22    1    1    0    0    0 -0.18661890937E+02  0.15608732106E+02 -0.22508024941E+02  0.33143775857E+02  0.00000000000E+00 0. -1.
</event>
<event>
 5    1  0.8952932E-005  0.9118800E+02  0.7818608E-02  0.1130116E+00
         25   -1    0    0    0    0  0.00000000000E+00  0.00000000000E+00  0.99999998245E-14  0.12500000000E+03  0.12500000000E+03 0.  0.
        -11    1    3    3    0    0  0.53619651257E+02 -0.21151778200E+02  0.22688459973E+02  0.61945386738E+02  0.51100000000E-03 0.  1.
         23    2    1    0    0    0  0.26524511831E+02 -0.11874875661E+02  0.52729482630E+01  0.95464150880E+02  0.90780161489E+02 0.  0.
         11    1    3    3    0    0 -0.27095139426E+02  0.92769025388E+01 -0.17415511710E+02  0.33518764142E+02  0.51100000000E-03 0. -1.
         22    1    1    0    0    0 -0.26524511831E+02  0.11874875661E+02 -0.52729482630E+01  0.29535849120E+02  0.00000000000E+00 0.  1.
</event>
<event>
 5    1  0.8952932E-005  0.9118800E+02  0.7818608E-02  0.1130116E+00
         25   -1    0    0    0    0  0.00000000000E+00  0.00000000000E+00  0.99999998245E-14  0.12500000000E+03  0.12500000000E+03 0.  0.
        -11    1    3    3    0    0  0.16889120347E+02  0.20346658305E+02  0.44761429210E+01  0.26819111581E+02  0.51100000000E-03 0.  1.
         23    2    1    0    0    0 -0.14561265538E+02 -0.27504722558E+02 -0.18811582637E+02  0.88634963793E+02  0.80831559110E+02 0.  0.
         11    1    3    3    0    0 -0.31450385884E+02 -0.47851380863E+02 -0.23287725558E+02  0.61815852212E+02  0.51100000000E-03 0. -1.
         22    1    1    0    0    0  0.14561265538E+02  0.27504722558E+02  0.18811582637E+02  0.36365036207E+02  0.00000000000E+00 0. -1.
</event>
<event>
 5    1  0.8952932E-005  0.9118800E+02  0.7818608E-02  0.1130116E+00
         25   -1    0    0    0    0  0.00000000000E+00  0.00000000000E+00  0.99999998245E-14  0.12500000000E+03  0.12500000000E+03 0.  0.
        -11    1    3    3    0    0  0.23541631249E+02  0.16291462805E+02 -0.50153825326E+02  0.57749687075E+02  0.51100000000E-03 0. -1.
         23    2    1    0    0    0  0.13046602673E+02 -0.95979477526E+01 -0.24192362708E+02  0.95886345888E+02  0.91359654509E+02 0.  0.
         11    1    3    3    0    0 -0.10495028576E+02 -0.25889410558E+02  0.25961462619E+02  0.38136658813E+02  0.51100000000E-03 0.  1.
         22    1    1    0    0    0 -0.13046602673E+02  0.95979477526E+01  0.24192362708E+02  0.29113654112E+02  0.00000000000E+00 0. -1.
</event>
<event>
 5    1  0.8952932E-005  0.9118800E+02  0.7818608E-02  0.1130116E+00
         25   -1    0    0    0    0  0.00000000000E+00  0.00000000000E+00  0.99999998245E-14  0.12500000000E+03  0.12500000000E+03 0.  0.
        -11    1    3    3    0    0  0.28508424104E+01 -0.21472372010E+02  0.50043613685E+02  0.54530297387E+02  0.51100000000E-03 0.  1.
         23    2    1    0    0    0  0.16498501535E+02 -0.21486954876E+02  0.11228588211E+02  0.95674738263E+02  0.91069668747E+02 0.  0.
         11    1    3    3    0    0  0.13647659125E+02 -0.14582865858E-01 -0.38815025474E+02  0.41144440876E+02  0.51100000000E-03 0. -1.
         22    1    1    0    0    0 -0.16498501535E+02  0.21486954876E+02 -0.11228588211E+02  0.29325261737E+02  0.00000000000E+00 0.  1.
</event>
<event>
 5    1  0.8952932E-005  0.9118800E+02  0.7818608E-02  0.1130116E+00
         25   -1    0    0    0    0  0.00000000000E+00  0.00000000000E+00  0.99999998245E-14  0.12500000000E+03  0.12500000000E+03 0.  0.
        -11    1    3    3    0    0 -0.56024515438E+01 -0.30004975756E+02 -0.28627663279E+02  0.41847689763E+02  0.51100000000E-03 0.  1.
         23    2    1    0    0    0  0.28116922403E+02  0.51836214231E+01 -0.51309429135E+01  0.95952490095E+02  0.91450109479E+02 0.  0.
         11    1    3    3    0    0  0.33719373947E+02  0.35188597179E+02  0.23496720365E+02  0.54104800332E+02  0.51100000000E-03 0. -1.
         22    1    1    0    0    0 -0.28116922403E+02 -0.51836214231E+01  0.51309429135E+01  0.29047509905E+02  0.00000000000E+00 0. -1.
</event>
<event>
 5    1  0.8952932E-005  0.9118800E+02  0.7818608E-02  0.1130116E+00
         25   -1    0    0    0    0  0.00000000000E+00  0.00000000000E+00  0.99999998245E-14  0.12500000000E+03  0.12500000000E+03 0.  0.
        -11    1    3    3    0    0  0.47643216870E+02 -0.49464315752E+01 -0.11496909961E+02  0.49259742569E+02  0.51100000000E-03 0.  1.
         23    2    1    0    0    0  0.98993929773E+01  0.81933058102E+01 -0.29295965327E+02  0.93009660429E+02  0.87335073752E+02 0.  0.
         11    1    3    3    0    0 -0.37743823893E+02  0.13139737385E+02 -0.17799055366E+02  0.43749917860E+02  0.51100000000E-03 0. -1.
         22    1    1    0    0    0 -0.98993929773E+01 -0.81933058102E+01  0.29295965327E+02  0.31990339571E+02  0.00000000000E+00 0.  1.
</event>
<event>
 5    1  0.8952932E-005  0.9118800E+02  0.7818608E-02  0.1130116E+00
         25   -1    0    0    0    0  0.00000000000E+00  0.00000000000E+00  0.99999998245E-14  0.12500000000E+03  0.12500000000E+03 0.  0.
        -11    1    3    3    0    0  0.68601273231E+01  0.51649162468E+02  0.10895267655E+02  0.53229730303E+02  0.51100000000E-03 0.  1.
         23    2    1    0    0    0  0.16756611403E+02  0.24639812839E+02 -0.14735918553E+02  0.91757682120E+02  0.85524385587E+02 0.  0.
         11    1    3    3    0    0  0.98964840798E+01 -0.27009349629E+02 -0.25631186208E+02  0.38527951817E+02  0.51100000000E-03 0. -1.
         22    1    1    0    0    0 -0.16756611403E+02 -0.24639812839E+02  0.14735918553E+02  0.33242317880E+02  0.00000000000E+00 0.  1.
</event>
<event>
 5    1  0.8952932E-005  0.9118800E+02  0.7818608E-02  0.1130116E+00
         25   -1    0    0    0    0  0.00000000000E+00  0.00000000000E+00  0.99999998245E-14  0.12500000000E+03  0.12500000000E+03 0.  0.
        -11    1    3    3    0    0  0.28827984663E+02  0.19743542764E+02 -0.77118400590E+01  0.35781736374E+02  0.51100000000E-03 0.  1.
         23    2    1    0    0    0 -0.28563306461E+02  0.47865954867E+01 -0.74702390486E+01  0.95090495761E+02  0.90264189690E+02 0.  0.
         11    1    3    3    0    0 -0.57391291124E+02 -0.14956947278E+02  0.24160101041E+00  0.59308759387E+02  0.51100000000E-03 0. -1.
         22    1    1    0    0    0  0.28563306461E+02 -0.47865954867E+01  0.74702390486E+01  0.29909504239E+02  0.00000000000E+00 0. -1.
</event>
<event>
 5    1  0.8952932E-005  0.9118800E+02  0.7818608E-02  0.1130116E+00
         25   -1    0    0    0    0  0.00000000000E+00  0.00000000000E+00  0.99999998245E-14  0.12500000000E+03  0.12500000000E+03 0.  0.
        -11    1    3    3    0    0 -0.21877211842E+02  0.53483563614E+01  0.41563885151E+02  0.47273394873E+02  0.51100000000E-03 0.  1.
         23    2    1    0    0    0  0.95195432564E+01 -0.22005621473E+02  0.16828325741E+02  0.95707311023E+02  0.91114366352E+02 0.  0.
         11    1    3    3    0    0  0.31396755098E+02 -0.27353977835E+02 -0.24735559410E+02  0.48433916150E+02  0.51100000000E-03 0. -1.
         22    1    1    0    0    0 -0.95195432564E+01  0.22005621473E+02 -0.16828325741E+02  0.29292688977E+02  0.00000000000E+00 0.  1.
</event>
<event>
 5    1  0.8952932E-005  0.9118800E+02  0.7818608E-02  0.1130116E+00
         25   -1    0    0    0    0  0.00000000000E+00  0.00000000000E+00  0.99999998245E-14  0.12500000000E+03  0.12500000000E+03 0.  0.
        -11    1    3    3    0    0 -0.37869100213E+02 -0.35613275257E+01  0.15977519371E+02  0.41255701790E+02  0.51100000000E-03 0. -1.
         23    2    1    0    0    0 -0.23040655921E+01 -0.19160370328E+02 -0.22110896070E+02  0.95651742226E+02  0.91038099477E+02 0.  0.
         11    1    3    3    0    0  0.35565034621E+02 -0.15599042803E+02 -0.38088415441E+02  0.54396040435E+02  0.51100000000E-03 0.  1.
         22    1    1    0    0    0  0.23040655921E+01  0.19160370328E+02  0.22110896070E+02  0.29348257774E+02  0.00000000000E+00 0.  1.
</event>
<event>
 5    1  0.8952932E-005  0.9118800E+02  0.7818608E-02  0.1130116E+00
         25   -1    0    0    0    0  0.00000000000E+00  0.00000000000E+00  0.99999998245E-14  0.12500000000E+03  0.12500000000E+03 0.  0.
        -11    1    3    3    0    0  0.39166899480E+02 -0.11438087641E+02 -0.30952422338E+02  0.51214532241E+02  0.51100000000E-03 0. -1.
         23    2    1    0    0    0  0.26135780717E+01 -0.27063171283E+02 -0.11362446193E+02  0.95532200393E+02  0.90873814150E+02 0.  0.
         11    1    3    3    0    0 -0.36553321408E+02 -0.15625083642E+02  0.19589976145E+02  0.44317668152E+02  0.51100000000E-03 0.  1.
         22    1    1    0    0    0 -0.26135780717E+01  0.27063171283E+02  0.11362446193E+02  0.29467799607E+02  0.00000000000E+00 0. -1.
</event>
<event>
 5    1  0.8952932E-005  0.9118800E+02  0.7818608E-02  0.1130116E+00
         25   -1    0    0    0    0  0.00000000000E+00  0.00000000000E+00  0.99999998245E-14  0.12500000000E+03  0.12500000000E+03 0.  0.
        -11    1    3    3    0    0 -0.96741896816E+01  0.16642196353E+02  0.29096843172E+02  0.34888091497E+02  0.51100000000E-03 0.  1.
         23    2    1    0    0    0 -0.15481235466E+02 -0.21786876425E+02 -0.15547638018E+02  0.94079688167E+02  0.88853373834E+02 0.  0.
         11    1    3    3    0    0 -0.58070457845E+01 -0.38429072778E+02 -0.44644481190E+02  0.59191596670E+02  0.51100000000E-03 0. -1.
         22    1    1    0    0    0  0.15481235466E+02  0.21786876425E+02  0.15547638018E+02  0.30920311833E+02  0.00000000000E+00 0. -1.
</event>
<event>
 5    1  0.8952932E-005  0.9118800E+02  0.7818608E-02  0.1130116E+00
         25   -1    0    0    0    0  0.00000000000E+00  0.00000000000E+00  0.99999998245E-14  0.12500000000E+03  0.12500000000E+03 0.  0.
        -11    1    3    3    0    0  0.11836989142E+02 -0.48180123513E+02 -0.34851619621E+02  0.60630635855E+02  0.51100000000E-03 0.  1.
         23    2    1    0    0    0  0.12363979083E+02 -0.16635571028E+02 -0.22217610040E+02  0.94615260440E+02  0.89603655674E+02 0.  0.
         11    1    3    3    0    0  0.52698994081E+00  0.31544552485E+02  0.12634009581E+02  0.33984624585E+02  0.51100000000E-03 0. -1.
         22    1    1    0    0    0 -0.12363979083E+02  0.16635571028E+02  0.22217610040E+02  0.30384739560E+02  0.00000000000E+00 0.  1.
</event>
<event>
 5    1  0.8952932E-005  0.9118800E+02  0.7818608E-02  0.1130116E+00
         25   -1    0    0    0    0  0.00000000000E+00  0.00000000000E+00  0.99999998245E-14  0.12500000000E+03  0.12500000000E+03 0.  0.
        -11    1    3    3    0    0  0.22756893555E+01 -0.47034230273E+01 -0.50998171197E+02  0.51265138407E+02  0.51100000000E-03 0.  1.
         23    2    1    0    0    0 -0.14649075025E+02 -0.20012852949E+02 -0.98580882111E+01  0.98311208618E+02  0.94619248330E+02 0.  0.
         11    1    3    3    0    0 -0.16924764381E+02 -0.15309429922E+02  0.41140082986E+02  0.47046070210E+02  0.51100000000E-03 0. -1.
         22    1    1    0    0    0  0.14649075025E+02  0.20012852949E+02  0.98580882111E+01  0.26688791382E+02  0.00000000000E+00 0. -1.
</event>
<event>
 5    1  0.8952932E-005  0.9118800E+02  0.7818608E-02  0.1130116E+00
         25   -1    0    0    0    0  0.00000000000E+00  0.00000000000E+00  0.99999998245E-14  0.12500000000E+03  0.12500000000E+03 0.  0.
        -11    1    3    3    0    0 -0.14878219459E+02 -0.74580532119E+00 -0.31210278853E+02  0.34583220587E+02  0.51100000000E-03 0. -1.
         23    2    1    0    0    0 -0.18976130507E+02  0.58169438442E+01  0.25986505008E+02  0.92300935683E+02  0.86314737563E+02 0.  0.
         11    1    3    3    0    0 -0.40979110482E+01  0.65627491654E+01  0.57196783861E+02  0.57717715095E+02  0.51100000000E-03 0.  1.
         22    1    1    0    0    0  0.18976130507E+02 -0.58169438442E+01 -0.25986505008E+02  0.32699064317E+02  0.00000000000E+00 0.  1.
</event>
<event>
 5    1  0.8952932E-005  0.9118800E+02  0.7818608E-02  0.1130116E+00
         25   -1    0    0    0    0  0.00000000000E+00  0.00000000000E+00  0.99999998245E-14  0.12500000000E+03  0.12500000000E+03 0.  0.
        -11    1    3    3    0    0  0.20318943317E+02 -0.52212434487E+02 -0.17615885461E+02  0.58730887899E+02  0.51100000000E-03 0.  1.
         23    2    1    0    0    0 -0.20739696994E+01 -0.29752195214E+02  0.33339765597E+00  0.95173742702E+02  0.90379398513E+02 0.  0.
         11    1    3    3    0    0 -0.22392913016E+02  0.22460239273E+02  0.17949283117E+02  0.36442854803E+02  0.51100000000E-03 0. -1.
         22    1    1    0    0    0  0.20739696994E+01  0.29752195214E+02 -0.33339765597E+00  0.29826257298E+02  0.00000000000E+00 0.  1.
</event>
<event>
 5    1  0.8952932E-005  0.9118800E+02  0.7818608E-02  0.1130116E+00
         25   -1    0    0    0    0  0.00000000000E+00  0.00000000000E+00  0.99999998245E-14  0.12500000000E+03  0.12500000000E+03 0.  0.
        -11    1    3    3    0    0 -0.18037729052E+02 -0.28128691566E+02  0.81112477833E+01  0.34385684513E+02  0.51100000000E-03 0. -1.
         23    2    1    0    0    0  0.22562755917E+02  0.12149923048E+02 -0.14115311490E+02  0.95743537412E+02  0.91164051869E+02 0.  0.
         11    1    3    3    0    0  0.40600484969E+02  0.40278614615E+02 -0.22226559274E+02  0.61357852899E+02  0.51100000000E-03 0.  1.
         22    1    1    0    0    0 -0.22562755917E+02 -0.12149923048E+02  0.14115311490E+02  0.29256462588E+02  0.00000000000E+00 0.  1.
</event>
<event>
 5    1  0.8952932E-005  0.9118800E+02  0.7818608E-02  0.1130116E+00
         25   -1    0    0    0    0  0.00000000000E+00  0.00000000000E+00  0.99999998245E-14  0.12500000000E+03  0.12500000000E+03 0.  0.
        -11    1    3    3    0    0  0.40972970076E+02 -0.13134785189E+02  0.50877625672E+01  0.43326575990E+02  0.51100000000E-03 0.  1.
         23    2    1    0    0    0 -0.24934231384E+00  0.15786195035E+02  0.23283010636E+02  0.96868794738E+02  0.92694113537E+02 0.  0.
         11    1    3    3    0    0 -0.41222312390E+02  0.28920980224E+02  0.18195248068E+02  0.53542218748E+02  0.51100000000E-03 0. -1.
         22    1    1    0    0    0  0.24934231384E+00 -0.15786195035E+02 -0.23283010636E+02  0.28131205262E+02  0.00000000000E+00 0. -1.
</event>
<event>
 5    1  0.8952932E-005  0.9118800E+02  0.7818608E-02  0.1130116E+00
         25   -1    0    0    0    0  0.00000000000E+00  0.00000000000E+00  0.99999998245E-14  0.12500000000E+03  0.12500000000E+03 0.  0.
        -11    1    3    3    0    0 -0.85921197637E+01 -0.30625113775E+02  0.14046954296E+02  0.34771238704E+02  0.51100000000E-03 0.  1.
         23    2    1    0    0    0 -0.42409463368E+01  0.26466700727E+02 -0.93319362492E+01  0.96617665576E+02  0.92354839581E+02 0.  0.
         11    1    3    3    0    0  0.43511734269E+01  0.57091814502E+02 -0.23378890546E+02  0.61846426871E+02  0.51100000000E-03 0. -1.
         22    1    1    0    0    0  0.42409463368E+01 -0.26466700727E+02  0.93319362492E+01  0.28382334424E+02  0.00000000000E+00 0. -1.
</event>
<event>
 5    1  0.8952932E-005  0.9118800E+02  0.7818608E-02  0.1130116E+00
         25   -1    0    0    0    0  0.00000000000E+00  0.00000000000E+00  0.99999998245E-14  0.12500000000E+03  0.12500000000E+03 0.  0.
        -11    1    3    3    0    0  0.28051053368E+02  0.25408297041E+02 -0.60004526261E+01  0.38320341668E+02  0.51100000000E-03 0.  1.
         23    2    1    0    0    0  0.12625119285E+02  0.17933967424E+02  0.35528154629E+02  0.83247507908E+02  0.72019976236E+02 0.  0.
         11    1    3    3    0    0 -0.15425934083E+02 -0.74743296170E+01  0.41528607255E+02  0.44927166240E+02  0.51100000000E-03 0. -1.
         22    1    1    0    0    0 -0.12625119285E+02 -0.17933967424E+02 -0.35528154629E+02  0.41752492092E+02  0.00000000000E+00 0. -1.
</event>
<event>
 5    1  0.8952932E-005  0.9118800E+02  0.7818608E-02  0.1130116E+00
         25   -1    0    0    0    0  0.00000000000E+00  0.00000000000E+00  0.99999998245E-14  0.12500000000E+03  0.12500000000E+03 0.  0.
        -11    1    3    3    0    0 -0.40087768106E+02  0.55929406255E+01 -0.35683457105E+02  0.53959422233E+02  0.51100000000E-03 0. -1.
         23    2    1    0    0    0 -0.28922074004E+02 -0.15787706311E+02 -0.72215575981E+01  0.91267390712E+02  0.84804762118E+02 0.  0.
         11    1    3    3    0    0  0.11165694102E+02 -0.21380646937E+02  0.28461899506E+02  0.37307968478E+02  0.51100000000E-03 0.  1.
         22    1    1    0    0    0  0.28922074004E+02  0.15787706311E+02  0.72215575981E+01  0.33732609288E+02  0.00000000000E+00 0. -1.
</event>
<event>
 5    1  0.8952932E-005  0.9118800E+02  0.7818608E-02  0.1130116E+00
         25   -1    0    0    0    0  0.00000000000E+00  0.00000000000E+00  0.99999998245E-14  0.12500000000E+03  0.12500000000E+03 0.  0.
        -11    1    3    3    0    0  0.51326825490E+02  0.32455366618E+02 -0.78324333933E+01  0.61230228240E+02  0.51100000000E-03 0. -1.
         23    2    1    0    0    0  0.21412061905E+02  0.19868158669E+02  0.34423501096E+01  0.95587929379E+02  0.90950438948E+02 0.  0.
         11    1    3    3    0    0 -0.29914763585E+02 -0.12587207949E+02  0.11274783503E+02  0.34357701140E+02  0.51100000000E-03 0.  1.
         22    1    1    0    0    0 -0.21412061905E+02 -0.19868158669E+02 -0.34423501096E+01  0.29412070621E+02  0.00000000000E+00 0. -1.
</event>
<event>
 5    1  0.8952932E-005  0.9118800E+02  0.7818608E-02  0.1130116E+00
         25   -1    0    0    0    0  0.00000000000E+00  0.00000000000E+00  0.99999998245E-14  0.12500000000E+03  0.12500000000E+03 0.  0.
        -11    1    3    3    0    0 -0.22709640801E+01 -0.40125850313E+02 -0.20686067948E+02  0.45201267113E+02  0.51100000000E-03 0.  1.
         23    2    1    0    0    0 -0.25368921023E+02  0.46539914923E+01 -0.12819085182E+02  0.96197730374E+02  0.91784707841E+02 0.  0.
         11    1    3    3    0    0 -0.23097956943E+02  0.44779841805E+02  0.78669827660E+01  0.50996463261E+02  0.51100000000E-03 0. -1.
         22    1    1    0    0    0  0.25368921023E+02 -0.46539914923E+01  0.12819085182E+02  0.28802269626E+02  0.00000000000E+00 0. -1.
</event>
<event>
 5    1  0.8952932E-005  0.9118800E+02  0.7818608E-02  0.1130116E+00
         25   -1    0    0    0    0  0.00000000000E+00  0.00000000000E+00  0.99999998245E-14  0.12500000000E+03  0.12500000000E+03 0.  0.
        -11    1    3    3    0    0 -0.37069701195E+01  0.44599290523E+02  0.28948759526E+02  0.53299803198E+02  0.51100000000E-03 0.  1.
         23    2    1    0    0    0  0.21035858940E+02  0.19077280079E+02  0.49905555332E+01  0.96166761870E+02  0.91742522679E+02 0.  0.
         11    1    3    3    0    0  0.24742829059E+02 -0.25522010444E+02 -0.23958203992E+02  0.42866958672E+02  0.51100000000E-03 0. -1.
         22    1    1    0    0    0 -0.21035858940E+02 -0.19077280079E+02 -0.49905555332E+01  0.28833238130E+02  0.00000000000E+00 0. -1.
</event>
<event>
 5    1  0.8952932E-005  0.9118800E+02  0.7818608E-02  0.1130116E+00
         25   -1    0    0    0    0  0.00000000000E+00  0.00000000000E+00  0.99999998245E-14  0.12500000000E+03  0.12500000000E+03 0.  0.
        -11    1    3    3    0    0  0.33877171969E+02 -0.15159985347E+02 -0.14334575797E+02  0.39786530383E+02  0.51100000000E-03 0.  1.
         23    2    1    0    0    0 -0.20963050461E+02 -0.29415360452E+01 -0.19513699858E+02  0.96209609223E+02  0.91800884014E+02 0.  0.
         11    1    3    3    0    0 -0.54840222430E+02  0.12218449302E+02 -0.51791240611E+01  0.56423078840E+02  0.51100000000E-03 0. -1.
         22    1    1    0    0    0  0.20963050461E+02  0.29415360452E+01  0.19513699858E+02  0.28790390777E+02  0.00000000000E+00 0. -1.
</event>
<event>
 5    1  0.8952932E-005  0.9118800E+02  0.7818608E-02  0.1130116E+00
         25   -1    0    0    0    0  0.00000000000E+00  0.00000000000E+00  0.99999998245E-14  0.12500000000E+03  0.12500000000E+03 0.  0.
        -11    1    3    3    0    0 -0.48529919667E+02  0.99216870336E+01 -0.19212644478E+02  0.53129263919E+02  0.51100000000E-03 0.  1.
         23    2    1    0    0    0 -0.22583405336E+02  0.11104153772E+02  0.14707600124E+02  0.95851656497E+02  0.91312179496E+02 0.  0.
         11    1    3    3    0    0  0.25946514331E+02  0.11824667382E+01  0.33920244602E+02  0.42722392578E+02  0.51100000000E-03 0. -1.
         22    1    1    0    0    0  0.22583405336E+02 -0.11104153772E+02 -0.14707600124E+02  0.29148343503E+02  0.00000000000E+00 0.  1.
</event>
<event>
 5    1  0.8952932E-005  0.9118800E+02  0.7818608E-02  0.1130116E+00
         25   -1    0    0    0    0  0.00000000000E+00  0.00000000000E+00  0.99999998245E-14  0.12500000000E+03  0.12500000000E+03 0.  0.
        -11    1    3    3    0    0 -0.82076251389E+01  0.58468497079E+02  0.66315230790E+01  0.59413023486E+02  0.51100000000E-03 0.  1.
         23    2    1    0    0    0 -0.16964235562E+02  0.24257943362E+02  0.63387234277E+01  0.94727693860E+02  0.89760366894E+02 0.  0.
         11    1    3    3    0    0 -0.87566104233E+01 -0.34210553717E+02 -0.29279965127E+00  0.35314670374E+02  0.51100000000E-03 0. -1.
         22    1    1    0    0    0  0.16964235562E+02 -0.24257943362E+02 -0.63387234277E+01  0.30272306140E+02  0.00000000000E+00 0.  1.
</event>
<event>
 5    1  0.8952932E-005  0.9118800E+02  0.7818608E-02  0.1130116E+00
         25   -1    0    0    0    0  0.00000000000E+00  0.00000000000E+00  0.99999998245E-14  0.12500000000E+03  0.12500000000E+03 0.  0.
        -11    1    3    3    0    0 -0.98724627237E+01  0.81289983022E+01  0.48473218908E+02  0.50131817094E+02  0.51100000000E-03 0.  1.
         23    2    1    0    0    0  0.16644704217E+02  0.20040118608E+02  0.13339628406E+02  0.95732300768E+02  0.91148643391E+02 0.  0.
         11    1    3    3    0    0  0.26517166941E+02  0.11911120306E+02 -0.35133590501E+02  0.45600483674E+02  0.51100000000E-03 0. -1.
         22    1    1    0    0    0 -0.16644704217E+02 -0.20040118608E+02 -0.13339628406E+02  0.29267699232E+02  0.00000000000E+00 0.  1.
</event>
<event>
 5    1  0.8952932E-005  0.9118800E+02  0.7818608E-02  0.1130116E+00
         25   -1    0    0    0    0  0.00000000000E+00  0.00000000000E+00  0.99999998245E-14  0.12500000000E+03  0.12500000000E+03 0.  0.
        -11    1    3    3    0    0 -0.77171590638E+01 -0.49005569032E+02 -0.40140606929E+01  0.49771608610E+02  0.51100000000E-03 0. -1.
         23    2    1    0    0    0  0.20397233675E+02 -0.16173604814E+02  0.12600559111E+02  0.96079302841E+02  0.91623281486E+02 0.  0.
         11    1    3    3    0    0  0.28114392738E+02  0.32831964218E+02  0.16614619804E+02  0.46307694231E+02  0.51100000000E-03 0.  1.
         22    1    1    0    0    0 -0.20397233675E+02  0.16173604814E+02 -0.12600559111E+02  0.28920697159E+02  0.00000000000E+00 0. -1.
</event>
<event>
 5    1  0.8952932E-005  0.9118800E+02  0.7818608E-02  0.1130116E+00
         25   -1    0    0    0    0  0.00000000000E+00  0.00000000000E+00  0.99999998245E-14  0.12500000000E+03  0.12500000000E+03 0.  0.
        -11    1    3    3    0    0  0.18304602210E+02 -0.37662743414E+02  0.42406979903E+02  0.59597757075E+02  0.51100000000E-03 0.  1.
         23    2    1    0    0    0  0.11850534768E+02 -0.34734670310E+02  0.19780410072E+02  0.83308308760E+02  0.72125426793E+02 0.  0.
         11    1    3    3    0    0 -0.64540674418E+01  0.29280731045E+01 -0.22626569831E+02  0.23710551686E+02  0.51100000000E-03 0. -1.
         22    1    1    0    0    0 -0.11850534768E+02  0.34734670310E+02 -0.19780410072E+02  0.41691691240E+02  0.00000000000E+00 0.  1.
</event>
<event>
 5    1  0.8952932E-005  0.9118800E+02  0.7818608E-02  0.1130116E+00
         25   -1    0    0    0    0  0.00000000000E+00  0.00000000000E+00  0.99999998245E-14  0.12500000000E+03  0.12500000000E+03 0.  0.
        -11    1    3    3    0    0  0.60150102379E+01 -0.36275246335E+02  0.11309514829E+02  0.38470494808E+02  0.51100000000E-03 0.  1.
         23    2    1    0    0    0 -0.27654165750E+02  0.82258262887E+01 -0.27510322024E+01  0.96017500459E+02  0.91538926773E+02 0.  0.
         11    1    3    3    0    0 -0.33669175988E+02  0.44501072624E+02 -0.14060547031E+02  0.57547005651E+02  0.51100000000E-03 0. -1.
         22    1    1    0    0    0  0.27654165750E+02 -0.82258262887E+01  0.27510322024E+01  0.28982499541E+02  0.00000000000E+00 0. -1.
</event>
<event>
 5    1  0.8952932E-005  0.9118800E+02  0.7818608E-02  0.1130116E+00
         25   -1    0    0    0    0  0.00000000000E+00  0.00000000000E+00  0.99999998245E-14  0.12500000000E+03  0.12500000000E+03 0.  0.
        -11    1    3    3    0    0 -0.18767910722E+02  0.54654093052E+02  0.13357936960E+02  0.59310528916E+02  0.51100000000E-03 0.  1.
         23    2    1    0    0    0 -0.20833959499E+02  0.17801740516E+02  0.53692239064E+01  0.97075380054E+02  0.92972280888E+02 0.  0.
         11    1    3    3    0    0 -0.20660487768E+01 -0.36852352536E+02 -0.79887130538E+01  0.37764851138E+02  0.51100000000E-03 0. -1.
         22    1    1    0    0    0  0.20833959499E+02 -0.17801740516E+02 -0.53692239064E+01  0.27924619946E+02  0.00000000000E+00 0.  1.
</event>
<event>
 5    1  0.8952932E-005  0.9118800E+02  0.7818608E-02  0.1130116E+00
         25   -1    0    0    0    0  0.00000000000E+00  0.00000000000E+00  0.99999998245E-14  0.12500000000E+03  0.12500000000E+03 0.  0.
        -11    1    3    3    0    0  0.23668976704E+02  0.30147497398E+02 -0.26170136291E+02  0.46410861782E+02  0.51100000000E-03 0.  1.
         23    2    1    0    0    0  0.19423749765E+02 -0.17396374831E+02 -0.59228532873E+01  0.98260588951E+02  0.94552351836E+02 0.  0.
         11    1    3    3    0    0 -0.42452269395E+01 -0.47543872228E+02  0.20247283004E+02  0.51849727169E+02  0.51100000000E-03 0. -1.
         22    1    1    0    0    0 -0.19423749765E+02  0.17396374831E+02  0.59228532873E+01  0.26739411049E+02  0.00000000000E+00 0. -1.
</event>
<event>
 5    1  0.8952932E-005  0.9118800E+02  0.7818608E-02  0.1130116E+00
         25   -1    0    0    0    0  0.00000000000E+00  0.00000000000E+00  0.99999998245E-14  0.12500000000E+03  0.12500000000E+03 0.  0.
        -11    1    3    3    0    0  0.13670486895E+02 -0.34423615531E+02 -0.10569134213E+02  0.38517192478E+02  0.51100000000E-03 0.  1.
         23    2    1    0    0    0 -0.29088542400E+02  0.26826977659E+01 -0.41556536246E+01  0.95493905319E+02  0.90821122708E+02 0.  0.
         11    1    3    3    0    0 -0.42759029294E+02  0.37106313297E+02  0.64134805882E+01  0.56976712841E+02  0.51100000000E-03 0. -1.
         22    1    1    0    0    0  0.29088542400E+02 -0.26826977659E+01  0.41556536246E+01  0.29506094681E+02  0.00000000000E+00 0. -1.
</event>
<event>
 5    1  0.8952932E-005  0.9118800E+02  0.7818608E-02  0.1130116E+00
         25   -1    0    0    0    0  0.00000000000E+00  0.00000000000E+00  0.99999998245E-14  0.12500000000E+03  0.12500000000E+03 0.  0.
        -11    1    3    3    0    0  0.20822629932E+02 -0.14012140015E+02  0.25678503901E+02  0.35906928968E+02  0.51100000000E-03 0. -1.
         23    2    1    0    0    0 -0.99942655326E+01  0.27720643251E+02 -0.33314884158E+01  0.95345013558E+02  0.90615966527E+02 0.  0.
         11    1    3    3    0    0 -0.30816895465E+02  0.41732783266E+02 -0.29009992317E+02  0.59438084590E+02  0.51100000000E-03 0.  1.
         22    1    1    0    0    0  0.99942655326E+01 -0.27720643251E+02  0.33314884158E+01  0.29654986442E+02  0.00000000000E+00 0.  1.
</event>
<event>
 5    1  0.8952932E-005  0.9118800E+02  0.7818608E-02  0.1130116E+00
         25   -1    0    0    0    0  0.00000000000E+00  0.00000000000E+00  0.99999998245E-14  0.12500000000E+03  0.12500000000E+03 0.  0.
        -11    1    3    3    0    0 -0.52992308008E+02 -0.19379644631E+02 -0.11551521947E+02  0.57595077859E+02  0.51100000000E-03 0.  1.
         23    2    1    0    0    0 -0.15917265728E+02 -0.24054078399E+02 -0.24738152898E+01  0.96050426636E+02  0.91583877724E+02 0.  0.
         11    1    3    3    0    0  0.37075042280E+02 -0.46744337678E+01  0.90777066574E+01  0.38455348776E+02  0.51100000000E-03 0. -1.
         22    1    1    0    0    0  0.15917265728E+02  0.24054078399E+02  0.24738152898E+01  0.28949573364E+02  0.00000000000E+00 0.  1.
</event>
<event>
 5    1  0.8952932E-005  0.9118800E+02  0.7818608E-02  0.1130116E+00
         25   -1    0    0    0    0  0.00000000000E+00  0.00000000000E+00  0.99999998245E-14  0.12500000000E+03  0.12500000000E+03 0.  0.
        -11    1    3    3    0    0  0.37610677235E+02  0.12840965205E+02  0.34140648997E+02  0.52393103971E+02  0.51100000000E-03 0. -1.
         23    2    1    0    0    0 -0.18562174374E+01  0.23110274561E+02  0.14469728010E+02  0.97670467217E+02  0.93768954373E+02 0.  0.
         11    1    3    3    0    0 -0.39466894673E+02  0.10269309356E+02 -0.19670920987E+02  0.45277363246E+02  0.51100000000E-03 0.  1.
         22    1    1    0    0    0  0.18562174374E+01 -0.23110274561E+02 -0.14469728010E+02  0.27329532783E+02  0.00000000000E+00 0. -1.
</event>
<event>
 5    1  0.8952932E-005  0.9118800E+02  0.7818608E-02  0.1130116E+00
         25   -1    0    0    0    0  0.00000000000E+00  0.00000000000E+00  0.99999998245E-14  0.12500000000E+03  0.12500000000E+03 0.  0.
        -11    1    3    3    0    0 -0.10464580846E+02  0.56500853961E+02  0.95530786030E+01  0.58250452888E+02  0.51100000000E-03 0.  1.
         23    2    1    0    0    0 -0.20333335066E+02  0.26354681830E+02 -0.10515292593E+01  0.91696554487E+02  0.85434996469E+02 0.  0.
         11    1    3    3    0    0 -0.98687542201E+01 -0.30146172131E+02 -0.10604607862E+02  0.33446101599E+02  0.51100000000E-03 0. -1.
         22    1    1    0    0    0  0.20333335066E+02 -0.26354681830E+02  0.10515292593E+01  0.33303445513E+02  0.00000000000E+00 0. -1.
</event>
<event>
 5    1  0.8952932E-005  0.9118800E+02  0.7818608E-02  0.1130116E+00
         25   -1    0    0    0    0  0.00000000000E+00  0.00000000000E+00  0.99999998245E-14  0.12500000000E+03  0.12500000000E+03 0.  0.
        -11    1    3    3    0    0  0.29833537361E+02  0.18642717471E+02 -0.20139454460E+02  0.40536261450E+02  0.51100000000E-03 0.  1.
         23    2    1    0    0    0 -0.17357888000E+02 -0.15023874314E+02 -0.12066364855E+02  0.99065269694E+02  0.95610237023E+02 0.  0.
         11    1    3    3    0    0 -0.47191425361E+02 -0.33666591785E+02  0.80730896042E+01  0.58529008244E+02  0.51100000000E-03 0. -1.
         22    1    1    0    0    0  0.17357888000E+02  0.15023874314E+02  0.12066364855E+02  0.25934730306E+02  0.00000000000E+00 0. -1.
</event>
<event>
 5    1  0.8952932E-005  0.9118800E+02  0.7818608E-02  0.1130116E+00
         25   -1    0    0    0    0  0.00000000000E+00  0.00000000000E+00  0.99999998245E-14  0.12500000000E+03  0.12500000000E+03 0.  0.
        -11    1    3    3    0    0  0.33173421829E+02  0.21879828997E+02  0.13705833519E+02  0.42036326023E+02  0.51100000000E-03 0.  1.
         23    2    1    0    0    0 -0.90188588287E+01 -0.12317263137E+02  0.23256903871E+02  0.97180252276E+02  0.93113173445E+02 0.  0.
         11    1    3    3    0    0 -0.42192280657E+02 -0.34197092134E+02  0.95510703521E+01  0.55143926253E+02  0.51100000000E-03 0. -1.
         22    1    1    0    0    0  0.90188588287E+01  0.12317263137E+02 -0.23256903871E+02  0.27819747724E+02  0.00000000000E+00 0. -1.
</event>
<event>
 5    1  0.8952932E-005  0.9118800E+02  0.7818608E-02  0.1130116E+00
         25   -1    0    0    0    0  0.00000000000E+00  0.00000000000E+00  0.99999998245E-14  0.12500000000E+03  0.12500000000E+03 0.  0.
        -11    1    3    3    0    0 -0.24083464946E+00 -0.46575997682E+02 -0.19707113811E+02  0.50574221659E+02  0.51100000000E-03 0.  1.
         23    2    1    0    0    0 -0.22365376735E+02 -0.53302429912E+01 -0.14847590111E+02  0.97630811138E+02  0.93716075379E+02 0.  0.
         11    1    3    3    0    0 -0.22124542086E+02  0.41245754691E+02  0.48595237002E+01  0.47056589479E+02  0.51100000000E-03 0. -1.
         22    1    1    0    0    0  0.22365376735E+02  0.53302429912E+01  0.14847590111E+02  0.27369188862E+02  0.00000000000E+00 0. -1.
</event>
<event>
 5    1  0.8952932E-005  0.9118800E+02  0.7818608E-02  0.1130116E+00
         25   -1    0    0    0    0  0.00000000000E+00  0.00000000000E+00  0.99999998245E-14  0.12500000000E+03  0.12500000000E+03 0.  0.
        -11    1    3    3    0    0  0.54882469728E+02  0.13480971956E+02  0.21001997292E+02  0.60290181446E+02  0.51100000000E-03 0. -1.
         23    2    1    0    0    0  0.29656140905E+02 -0.47630423532E+01  0.11459876079E+02  0.92851873685E+02  0.87108945702E+02 0.  0.
         11    1    3    3    0    0 -0.25226328823E+02 -0.18244014309E+02 -0.95421212131E+01  0.32561692239E+02  0.51100000000E-03 0.  1.
         22    1    1    0    0    0 -0.29656140905E+02  0.47630423532E+01 -0.11459876079E+02  0.32148126315E+02  0.00000000000E+00 0. -1.
</event>
<event>
 5    1  0.8952932E-005  0.9118800E+02  0.7818608E-02  0.1130116E+00
         25   -1    0    0    0    0  0.00000000000E+00  0.00000000000E+00  0.99999998245E-14  0.12500000000E+03  0.12500000000E+03 0.  0.
        -11    1    3    3    0    0  0.53286809151E+00 -0.20559902128E+02  0.34308508202E+02  0.40000840732E+02  0.51100000000E-03 0.  1.
         23    2    1    0    0    0 -0.11790129746E+02 -0.18880490722E+02 -0.19609722184E+02  0.95334847153E+02  0.90601941415E+02 0.  0.
         11    1    3    3    0    0 -0.12322997838E+02  0.16794114062E+01 -0.53918230386E+02  0.55334006421E+02  0.51100000000E-03 0. -1.
         22    1    1    0    0    0  0.11790129746E+02  0.18880490722E+02  0.19609722184E+02  0.29665152847E+02  0.00000000000E+00 0. -1.
</event>
<event>
 5    1  0.8952932E-005  0.9118800E+02  0.7818608E-02  0.1130116E+00
         25   -1    0    0    0    0  0.00000000000E+00  0.00000000000E+00  0.99999998245E-14  0.12500000000E+03  0.12500000000E+03 0.  0.
        -11    1    3    3    0    0  0.13343905948E+02  0.25914961176E+02 -0.14858058462E+02  0.32717074139E+02  0.51100000000E-03 0. -1.
         23    2    1    0    0    0 -0.91496443621E+01 -0.18530159650E+02  0.22099847838E+02  0.94742999437E+02  0.89781678862E+02 0.  0.
         11    1    3    3    0    0 -0.22493550310E+02 -0.44445120825E+02  0.36957906300E+02  0.62025925298E+02  0.51100000000E-03 0.  1.
         22    1    1    0    0    0  0.91496443621E+01  0.18530159650E+02 -0.22099847838E+02  0.30257000563E+02  0.00000000000E+00 0.  1.
</event>
<event>
 5    1  0.8952932E-005  0.9118800E+02  0.7818608E-02  0.1130116E+00
         25   -1    0    0    0    0  0.00000000000E+00  0.00000000000E+00  0.99999998245E-14  0.12500000000E+03  0.12500000000E+03 0.  0.
        -11    1    3    3    0    0  0.38975432945E+02 -0.29524595047E+02 -0.14423263036E+02  0.50978589651E+02  0.51100000000E-03 0. -1.
         23    2    1    0    0    0  0.50582089637E+01 -0.24678619932E+02  0.14602187045E+02  0.95882245517E+02  0.91354044132E+02 0.  0.
         11    1    3    3    0    0 -0.33917223982E+02  0.48459751154E+01  0.29025450080E+02  0.44903655865E+02  0.51100000000E-03 0.  1.
         22    1    1    0    0    0 -0.50582089637E+01  0.24678619932E+02 -0.14602187045E+02  0.29117754483E+02  0.00000000000E+00 0. -1.
</event>
<event>
 5    1  0.8952932E-005  0.9118800E+02  0.7818608E-02  0.1130116E+00
         25   -1    0    0    0    0  0.00000000000E+00  0.00000000000E+00  0.99999998245E-14  0.12500000000E+03  0.12500000000E+03 0.  0.
        -11    1    3    3    0    0  0.12551724364E+02 -0.54284274086E+02  0.25377283155E+02  0.61223644927E+02  0.51100000000E-03 0.  1.
         23    2    1    0    0    0  0.13044243368E+02 -0.28364613515E+02  0.69897142937E+01  0.93006880571E+02  0.87331094936E+02 0.  0.
         11    1    3    3    0    0  0.49251900417E+00  0.25919660571E+02 -0.18387568861E+02  0.31783235644E+02  0.51100000000E-03 0. -1.
         22    1    1    0    0    0 -0.13044243368E+02  0.28364613515E+02 -0.69897142937E+01  0.31993119429E+02  0.00000000000E+00 0.  1.
</event>
<event>
 5    1  0.8952932E-005  0.9118800E+02  0.7818608E-02  0.1130116E+00
         25   -1    0    0    0    0  0.00000000000E+00  0.00000000000E+00  0.99999998245E-14  0.12500000000E+03  0.12500000000E+03 0.  0.
        -11    1    3    3    0    0  0.12038482523E+02 -0.48625938891E+02 -0.18901832146E+02  0.53541444258E+02  0.51100000000E-03 0.  1.
         23    2    1    0    0    0 -0.41693058863E+01 -0.42478024727E+02  0.38500685477E+01  0.82144560157E+02  0.70079526534E+02 0.  0.
         11    1    3    3    0    0 -0.16207788409E+02  0.61479141640E+01  0.22751900694E+02  0.28603115899E+02  0.51100000000E-03 0. -1.
         22    1    1    0    0    0  0.41693058863E+01  0.42478024727E+02 -0.38500685477E+01  0.42855439843E+02  0.00000000000E+00 0.  1.
</event>
<event>
 5    1  0.8952932E-005  0.9118800E+02  0.7818608E-02  0.1130116E+00
         25   -1    0    0    0    0  0.00000000000E+00  0.00000000000E+00  0.99999998245E-14  0.12500000000E+03  0.12500000000E+03 0.  0.
        -11    1    3    3    0    0  0.28272976919E+01 -0.40672957373E+02  0.11445604500E+02  0.42347195141E+02  0.51100000000E-03 0.  1.
         23    2    1    0    0    0  0.41383871952E+01 -0.32620928422E+01 -0.27871559419E+02  0.96634680987E+02  0.92377866650E+02 0.  0.
         11    1    3    3    0    0  0.13110895033E+01  0.37410864531E+02 -0.39317163919E+02  0.54287485846E+02  0.51100000000E-03 0. -1.
         22    1    1    0    0    0 -0.41383871952E+01  0.32620928422E+01  0.27871559419E+02  0.28365319013E+02  0.00000000000E+00 0. -1.
</event>
<event>
 5    1  0.8952932E-005  0.9118800E+02  0.7818608E-02  0.1130116E+00
         25   -1    0    0    0    0  0.00000000000E+00  0.00000000000E+00  0.99999998245E-14  0.12500000000E+03  0.12500000000E+03 0.  0.
        -11    1    3    3    0    0 -0.58015197567E+02 -0.21444414624E+02  0.70190012789E+01  0.62248634093E+02  0.51100000000E-03 0.  1.
         23    2    1    0    0    0 -0.24766766979E+02 -0.13240467715E+02  0.41000903254E+01  0.96618430759E+02  0.92355875231E+02 0.  0.
         11    1    3    3    0    0  0.33248430587E+02  0.82039469096E+01 -0.29189109535E+01  0.34369796666E+02  0.51100000000E-03 0. -1.
         22    1    1    0    0    0  0.24766766979E+02  0.13240467715E+02 -0.41000903254E+01  0.28381569241E+02  0.00000000000E+00 0.  1.
</event>
<event>
 5    1  0.8952932E-005  0.9118800E+02  0.7818608E-02  0.1130116E+00
         25   -1    0    0    0    0  0.00000000000E+00  0.00000000000E+00  0.99999998245E-14  0.12500000000E+03  0.12500000000E+03 0.  0.
        -11    1    3    3    0    0 -0.14747716516E+01 -0.48573172131E+02 -0.24090564744E+02  0.54239130821E+02  0.51100000000E-03 0. -1.
         23    2    1    0    0    0 -0.81245504792E+01 -0.86004573100E+01 -0.27657838974E+02  0.94917908265E+02  0.90024869155E+02 0.  0.
         11    1    3    3    0    0 -0.66497788276E+01  0.39972714821E+02 -0.35672742300E+01  0.40678777444E+02  0.51100000000E-03 0.  1.
         22    1    1    0    0    0  0.81245504792E+01  0.86004573100E+01  0.27657838974E+02  0.30082091735E+02  0.00000000000E+00 0. -1.
</event>
<event>
 5    1  0.8952932E-005  0.9118800E+02  0.7818608E-02  0.1130116E+00
         25   -1    0    0    0    0  0.00000000000E+00  0.00000000000E+00  0.99999998245E-14  0.12500000000E+03  0.12500000000E+03 0.  0.
        -11    1    3    3    0    0 -0.14456307585E+02 -0.20967212693E+02  0.36556002743E+02  0.44552779643E+02  0.51100000000E-03 0. -1.
         23    2    1    0    0    0 -0.14918271571E+02 -0.19463029157E+02 -0.15079257862E+02  0.96212010346E+02  0.91804153428E+02 0.  0.
         11    1    3    3    0    0 -0.46196398625E+00  0.15041835359E+01 -0.51635260605E+02  0.51659230703E+02  0.51100000000E-03 0.  1.
         22    1    1    0    0    0  0.14918271571E+02  0.19463029157E+02  0.15079257862E+02  0.28787989654E+02  0.00000000000E+00 0. -1.
</event>
<event>
 5    1  0.8952932E-005  0.9118800E+02  0.7818608E-02  0.1130116E+00
         25   -1    0    0    0    0  0.00000000000E+00  0.00000000000E+00  0.99999998245E-14  0.12500000000E+03  0.12500000000E+03 0.  0.
        -11    1    3    3    0    0  0.62996208907E+01 -0.21202258355E+02 -0.34363569920E+02  0.40866562379E+02  0.51100000000E-03 0. -1.
         23    2    1    0    0    0 -0.26178544557E+02  0.12024244581E+02 -0.51931639331E+01  0.95727699023E+02  0.91142332402E+02 0.  0.
         11    1    3    3    0    0 -0.32478165448E+02  0.33226502936E+02  0.29170405987E+02  0.54861136644E+02  0.51100000000E-03 0.  1.
         22    1    1    0    0    0  0.26178544557E+02 -0.12024244581E+02  0.51931639331E+01  0.29272300977E+02  0.00000000000E+00 0.  1.
</event>
<event>
 5    1  0.8952932E-005  0.9118800E+02  0.7818608E-02  0.1130116E+00
         25   -1    0    0    0    0  0.00000000000E+00  0.00000000000E+00  0.99999998245E-14  0.12500000000E+03  0.12500000000E+03 0.  0.
        -11    1    3    3    0    0  0.26214916209E+02  0.23665441304E+02  0.20798697908E+02  0.40986104705E+02  0.51100000000E-03 0. -1.
         23    2    1    0    0    0  0.56446799999E+01  0.13514424125E+02 -0.27156930015E+02  0.94145487857E+02  0.88945893465E+02 0.  0.
         11    1    3    3    0    0 -0.20570236209E+02 -0.10151017179E+02 -0.47955627923E+02  0.53159383153E+02  0.51100000000E-03 0.  1.
         22    1    1    0    0    0 -0.56446799999E+01 -0.13514424125E+02  0.27156930015E+02  0.30854512143E+02  0.00000000000E+00 0.  1.
</event>
<event>
 5    1  0.8952932E-005  0.9118800E+02  0.7818608E-02  0.1130116E+00
         25   -1    0    0    0    0  0.00000000000E+00  0.00000000000E+00  0.99999998245E-14  0.12500000000E+03  0.12500000000E+03 0.  0.
        -11    1    3    3    0    0  0.25413955557E+01  0.85595765643E+00 -0.37014651674E+02  0.37111666544E+02  0.51100000000E-03 0.  1.
         23    2    1    0    0    0  0.11575743761E+02  0.18752043433E+02  0.18557994824E+02  0.96189652060E+02  0.91773705466E+02 0.  0.
         11    1    3    3    0    0  0.90343482053E+01  0.17896085776E+02  0.55572646498E+02  0.59077985516E+02  0.51100000000E-03 0. -1.
         22    1    1    0    0    0 -0.11575743761E+02 -0.18752043433E+02 -0.18557994824E+02  0.28810347940E+02  0.00000000000E+00 0. -1.
</event>
<event>
 5    1  0.8952932E-005  0.9118800E+02  0.7818608E-02  0.1130116E+00
         25   -1    0    0    0    0  0.00000000000E+00  0.00000000000E+00  0.99999998245E-14  0.12500000000E+03  0.12500000000E+03 0.  0.
        -11    1    3    3    0    0  0.20076754298E+02 -0.30277556864E+02  0.43539009810E+02  0.56704954707E+02  0.51100000000E-03 0.  1.
         23    2    1    0    0    0 -0.65975304139E+01 -0.73351135996E+01  0.28268548022E+02  0.95059356948E+02  0.90221057615E+02 0.  0.
         11    1    3    3    0    0 -0.26674284712E+02  0.22942443264E+02 -0.15270461788E+02  0.38354402242E+02  0.51100000000E-03 0. -1.
         22    1    1    0    0    0  0.65975304139E+01  0.73351135996E+01 -0.28268548022E+02  0.29940643052E+02  0.00000000000E+00 0.  1.
</event>
<event>
 5    1  0.8952932E-005  0.9118800E+02  0.7818608E-02  0.1130116E+00
         25   -1    0    0    0    0  0.00000000000E+00  0.00000000000E+00  0.99999998245E-14  0.12500000000E+03  0.12500000000E+03 0.  0.
        -11    1    3    3    0    0 -0.14715680056E+02  0.15915099011E+02  0.24103404592E+02  0.32416288024E+02  0.51100000000E-03 0. -1.
         23    2    1    0    0    0  0.16153358382E+02 -0.24390878665E+01 -0.26139838570E+02  0.94175151305E+02  0.88987571189E+02 0.  0.
         11    1    3    3    0    0  0.30869038439E+02 -0.18354186877E+02 -0.50243243162E+02  0.61758863281E+02  0.51100000000E-03 0.  1.
         22    1    1    0    0    0 -0.16153358382E+02  0.24390878665E+01  0.26139838570E+02  0.30824848695E+02  0.00000000000E+00 0.  1.
</event>
<event>
 5    1  0.8952932E-005  0.9118800E+02  0.7818608E-02  0.1130116E+00
         25   -1    0    0    0    0  0.00000000000E+00  0.00000000000E+00  0.99999998245E-14  0.12500000000E+03  0.12500000000E+03 0.  0.
        -11    1    3    3    0    0 -0.31406386236E+02  0.67257142793E+01 -0.50940434920E+02  0.60220629680E+02  0.51100000000E-03 0. -1.
         23    2    1    0    0    0 -0.16505056746E+02 -0.78665635758E+01 -0.30601870770E+02  0.89352079790E+02  0.81933021106E+02 0.  0.
         11    1    3    3    0    0  0.14901329490E+02 -0.14592277855E+02  0.20338564150E+02  0.29131450110E+02  0.51100000000E-03 0.  1.
         22    1    1    0    0    0  0.16505056746E+02  0.78665635758E+01  0.30601870770E+02  0.35647920210E+02  0.00000000000E+00 0. -1.
</event>
<event>
 5    1  0.8952932E-005  0.9118800E+02  0.7818608E-02  0.1130116E+00
         25   -1    0    0    0    0  0.00000000000E+00  0.00000000000E+00  0.99999998245E-14  0.12500000000E+03  0.12500000000E+03 0.  0.
        -11    1    3    3    0    0  0.17244761765E+02 -0.16878939910E+02 -0.43854142865E+02  0.50054632827E+02  0.51100000000E-03 0.  1.
         23    2    1    0    0    0  0.33176310587E+02 -0.54995510100E+00 -0.11018521699E+02  0.90037479279E+02  0.82972102659E+02 0.  0.
         11    1    3    3    0    0  0.15931548822E+02  0.16328984809E+02  0.32835621166E+02  0.39982846452E+02  0.51100000000E-03 0. -1.
         22    1    1    0    0    0 -0.33176310587E+02  0.54995510100E+00  0.11018521699E+02  0.34962520721E+02  0.00000000000E+00 0. -1.
</event>
<event>
 5    1  0.8952932E-005  0.9118800E+02  0.7818608E-02  0.1130116E+00
         25   -1    0    0    0    0  0.00000000000E+00  0.00000000000E+00  0.99999998245E-14  0.12500000000E+03  0.12500000000E+03 0.  0.
        -11    1    3    3    0    0  0.34164431080E+01 -0.23183130539E+02  0.38511571503E+02  0.45080713892E+02  0.51100000000E-03 0.  1.
         23    2    1    0    0    0  0.18230050708E+02  0.17747147646E+02  0.21041752636E+02  0.91984074261E+02  0.85854636248E+02 0.  0.
         11    1    3    3    0    0  0.14813607600E+02  0.40930278185E+02 -0.17469818867E+02  0.46903360369E+02  0.51100000000E-03 0. -1.
         22    1    1    0    0    0 -0.18230050708E+02 -0.17747147646E+02 -0.21041752636E+02  0.33015925739E+02  0.00000000000E+00 0.  1.
</event>
<event>
 5    1  0.8952932E-005  0.9118800E+02  0.7818608E-02  0.1130116E+00
         25   -1    0    0    0    0  0.00000000000E+00  0.00000000000E+00  0.99999998245E-14  0.12500000000E+03  0.12500000000E+03 0.  0.
        -11    1    3    3    0    0 -0.12285368536E+02  0.31729785849E+02 -0.30233686504E+02  0.45516869290E+02  0.51100000000E-03 0. -1.
         23    2    1    0    0    0 -0.11465543486E+02  0.31014648903E+02  0.13514611490E+02  0.89278691825E+02  0.81820981150E+02 0.  0.
         11    1    3    3    0    0  0.81982504953E+00 -0.71513694651E+00  0.43748297994E+02  0.43761822535E+02  0.51100000000E-03 0.  1.
         22    1    1    0    0    0  0.11465543486E+02 -0.31014648903E+02 -0.13514611490E+02  0.35721308175E+02  0.00000000000E+00 0. -1.
</event>
<event>
 5    1  0.8952932E-005  0.9118800E+02  0.7818608E-02  0.1130116E+00
         25   -1    0    0    0    0  0.00000000000E+00  0.00000000000E+00  0.99999998245E-14  0.12500000000E+03  0.12500000000E+03 0.  0.
        -11    1    3    3    0    0 -0.60177790224E+01 -0.48883460986E+02  0.33839936022E+02  0.59757407010E+02  0.51100000000E-03 0.  1.
         23    2    1    0    0    0 -0.89400253092E+01 -0.14880780617E+02  0.24193814089E+02  0.95222452679E+02  0.90446742173E+02 0.  0.
         11    1    3    3    0    0 -0.29222462869E+01  0.34002680369E+02 -0.96461219332E+01  0.35465045668E+02  0.51100000000E-03 0. -1.
         22    1    1    0    0    0  0.89400253092E+01  0.14880780617E+02 -0.24193814089E+02  0.29777547321E+02  0.00000000000E+00 0.  1.
</event>
<event>
 5    1  0.8952932E-005  0.9118800E+02  0.7818608E-02  0.1130116E+00
         25   -1    0    0    0    0  0.00000000000E+00  0.00000000000E+00  0.99999998245E-14  0.12500000000E+03  0.12500000000E+03 0.  0.
        -11    1    3    3    0    0 -0.14430267723E+02  0.16997217522E+02  0.36590565583E+02  0.42848658322E+02  0.51100000000E-03 0. -1.
         23    2    1    0    0    0  0.51936920345E+01  0.35637745355E+02 -0.76340847533E+00  0.88977699637E+02  0.81359848262E+02 0.  0.
         11    1    3    3    0    0  0.19623959757E+02  0.18640527833E+02 -0.37353974058E+02  0.46129041315E+02  0.51100000000E-03 0.  1.
         22    1    1    0    0    0 -0.51936920345E+01 -0.35637745355E+02  0.76340847533E+00  0.36022300363E+02  0.00000000000E+00 0. -1.
</event>
<event>
 5    1  0.8952932E-005  0.9118800E+02  0.7818608E-02  0.1130116E+00
         25   -1    0    0    0    0  0.00000000000E+00  0.00000000000E+00  0.99999998245E-14  0.12500000000E+03  0.12500000000E+03 0.  0.
        -11    1    3    3    0    0  0.11917692734E+02 -0.26731317904E+02 -0.91137739253E+01  0.30653802903E+02  0.51100000000E-03 0.  1.
         23    2    1    0    0    0  0.29316777351E+02 -0.11573380362E+01 -0.40676628086E+02  0.74846227081E+02  0.55556788696E+02 0.  0.
         11    1    3    3    0    0  0.17399084617E+02  0.25573979867E+02 -0.31562854160E+02  0.44192424179E+02  0.51100000000E-03 0. -1.
         22    1    1    0    0    0 -0.29316777351E+02  0.11573380362E+01  0.40676628086E+02  0.50153772919E+02  0.00000000000E+00 0. -1.
</event>
<event>
 5    1  0.8952932E-005  0.9118800E+02  0.7818608E-02  0.1130116E+00
         25   -1    0    0    0    0  0.00000000000E+00  0.00000000000E+00  0.99999998245E-14  0.12500000000E+03  0.12500000000E+03 0.  0.
        -11    1    3    3    0    0  0.15604920323E+00 -0.44370549494E+02 -0.21391916973E+02  0.49258340673E+02  0.51100000000E-03 0.  1.
         23    2    1    0    0    0  0.26657489240E+02 -0.13282497937E+02 -0.33966910973E+00  0.95214737551E+02  0.90436079016E+02 0.  0.
         11    1    3    3    0    0  0.26501440037E+02  0.31088051558E+02  0.21052247864E+02  0.45956396879E+02  0.51100000000E-03 0. -1.
         22    1    1    0    0    0 -0.26657489240E+02  0.13282497937E+02  0.33966910973E+00  0.29785262449E+02  0.00000000000E+00 0.  1.
</event>
<event>
 5    1  0.8952932E-005  0.9118800E+02  0.7818608E-02  0.1130116E+00
         25   -1    0    0    0    0  0.00000000000E+00  0.00000000000E+00  0.99999998245E-14  0.12500000000E+03  0.12500000000E+03 0.  0.
        -11    1    3    3    0    0 -0.10041946703E+02 -0.67085824222E+01  0.38111327749E+02  0.39978982913E+02  0.51100000000E-03 0.  1.
         23    2    1    0    0    0 -0.21285623958E+02 -0.16338377004E+02 -0.14406922903E+02  0.94543805589E+02  0.89503918335E+02 0.  0.
         11    1    3    3    0    0 -0.11243677255E+02 -0.96297945819E+01 -0.52518250652E+02  0.54564822677E+02  0.51100000000E-03 0. -1.
         22    1    1    0    0    0  0.21285623958E+02  0.16338377004E+02  0.14406922903E+02  0.30456194411E+02  0.00000000000E+00 0. -1.
</event>
<event>
 5    1  0.8952932E-005  0.9118800E+02  0.7818608E-02  0.1130116E+00
         25   -1    0    0    0    0  0.00000000000E+00  0.00000000000E+00  0.99999998245E-14  0.12500000000E+03  0.12500000000E+03 0.  0.
        -11    1    3    3    0    0 -0.25333454248E+02 -0.37511378799E+02  0.17730441380E+02  0.48613331457E+02  0.51100000000E-03 0.  1.
         23    2    1    0    0    0  0.92243102638E+01 -0.66701234254E+01  0.26863815699E+02  0.95823930350E+02  0.91274216444E+02 0.  0.
         11    1    3    3    0    0  0.34557764512E+02  0.30841255374E+02  0.91333743190E+01  0.47210598893E+02  0.51100000000E-03 0. -1.
         22    1    1    0    0    0 -0.92243102638E+01  0.66701234254E+01 -0.26863815699E+02  0.29176069650E+02  0.00000000000E+00 0. -1.
</event>
<event>
 5    1  0.8952932E-005  0.9118800E+02  0.7818608E-02  0.1130116E+00
         25   -1    0    0    0    0  0.00000000000E+00  0.00000000000E+00  0.99999998245E-14  0.12500000000E+03  0.12500000000E+03 0.  0.
        -11    1    3    3    0    0  0.24801941656E+01 -0.24475660578E+02 -0.28471346614E+02  0.37627475362E+02  0.51100000000E-03 0.  1.
         23    2    1    0    0    0 -0.15258933929E+02  0.25180640658E+02 -0.59692107145E+01  0.94957842868E+02  0.90080301493E+02 0.  0.
         11    1    3    3    0    0 -0.17739128094E+02  0.49656301237E+02  0.22502135900E+02  0.57330367506E+02  0.51100000000E-03 0. -1.
         22    1    1    0    0    0  0.15258933929E+02 -0.25180640658E+02  0.59692107145E+01  0.30042157132E+02  0.00000000000E+00 0. -1.
</event>
<event>
 5    1  0.8952932E-005  0.9118800E+02  0.7818608E-02  0.1130116E+00
         25   -1    0    0    0    0  0.00000000000E+00  0.00000000000E+00  0.99999998245E-14  0.12500000000E+03  0.12500000000E+03 0.  0.
        -11    1    3    3    0    0 -0.19372078356E+02 -0.48018886329E+02  0.21837874934E+02  0.56195939764E+02  0.51100000000E-03 0. -1.
         23    2    1    0    0    0 -0.19247551456E+02 -0.92160645605E+01  0.21076287378E+02  0.95006434479E+02  0.90147704462E+02 0.  0.
         11    1    3    3    0    0  0.12452689991E+00  0.38802821769E+02 -0.76158755604E+00  0.38810494715E+02  0.51100000000E-03 0.  1.
         22    1    1    0    0    0  0.19247551456E+02  0.92160645605E+01 -0.21076287378E+02  0.29993565521E+02  0.00000000000E+00 0. -1.
</event>
<event>
 5    1  0.8952932E-005  0.9118800E+02  0.7818608E-02  0.1130116E+00
         25   -1    0    0    0    0  0.00000000000E+00  0.00000000000E+00  0.99999998245E-14  0.12500000000E+03  0.12500000000E+03 0.  0.
        -11    1    3    3    0    0  0.25624467115E+02  0.32166710829E+02  0.15614075636E+02  0.43989884732E+02  0.51100000000E-03 0.  1.
         23    2    1    0    0    0 -0.10312802769E+01  0.32771946914E+02  0.35065102754E+02  0.76993485080E+02  0.60194445508E+02 0.  0.
         11    1    3    3    0    0 -0.26655747392E+02  0.60523608511E+00  0.19451027119E+02  0.33003600348E+02  0.51100000000E-03 0. -1.
         22    1    1    0    0    0  0.10312802769E+01 -0.32771946914E+02 -0.35065102754E+02  0.48006514920E+02  0.00000000000E+00 0.  1.
</event>
<event>
 5    1  0.8952932E-005  0.9118800E+02  0.7818608E-02  0.1130116E+00
         25   -1    0    0    0    0  0.00000000000E+00  0.00000000000E+00  0.99999998245E-14  0.12500000000E+03  0.12500000000E+03 0.  0.
        -11    1    3    3    0    0 -0.67094479192E+01  0.52924160187E+02  0.21796965502E+02  0.57628908789E+02  0.51100000000E-03 0. -1.
         23    2    1    0    0    0 -0.31879919970E+01  0.12845074607E+02  0.23643062133E+02  0.97904730640E+02  0.94080724168E+02 0.  0.
         11    1    3    3    0    0  0.35214559222E+01 -0.40079085580E+02  0.18460966317E+01  0.40275821851E+02  0.51100000000E-03 0.  1.
         22    1    1    0    0    0  0.31879919970E+01 -0.12845074607E+02 -0.23643062133E+02  0.27095269360E+02  0.00000000000E+00 0. -1.
</event>
<event>
 5    1  0.8952932E-005  0.9118800E+02  0.7818608E-02  0.1130116E+00
         25   -1    0    0    0    0  0.00000000000E+00  0.00000000000E+00  0.99999998245E-14  0.12500000000E+03  0.12500000000E+03 0.  0.
        -11    1    3    3    0    0 -0.87393898496E+01 -0.44420164828E+02  0.23335602046E+02  0.50932095003E+02  0.51100000000E-03 0.  1.
         23    2    1    0    0    0 -0.13596174057E+02 -0.68132729290E+00  0.26660344733E+02  0.95065168497E+02  0.90229109073E+02 0.  0.
         11    1    3    3    0    0 -0.48567842075E+01  0.43738837535E+02  0.33247426866E+01  0.44133073493E+02  0.51100000000E-03 0. -1.
         22    1    1    0    0    0  0.13596174057E+02  0.68132729290E+00 -0.26660344733E+02  0.29934831503E+02  0.00000000000E+00 0. -1.
</event>
<event>
 5    1  0.8952932E-005  0.9118800E+02  0.7818608E-02  0.1130116E+00
         25   -1    0    0    0    0  0.00000000000E+00  0.00000000000E+00  0.99999998245E-14  0.12500000000E+03  0.12500000000E+03 0.  0.
        -11    1    3    3    0    0 -0.57855247836E+01 -0.41419615179E+02 -0.10615721492E+02  0.43148005303E+02  0.51100000000E-03 0.  1.
         23    2    1    0    0    0 -0.22958646886E+02  0.83114546955E+01 -0.15645642456E+02  0.96000588388E+02  0.91515829762E+02 0.  0.
         11    1    3    3    0    0 -0.17173122102E+02  0.49731069874E+02 -0.50299209634E+01  0.52852583085E+02  0.51100000000E-03 0. -1.
         22    1    1    0    0    0  0.22958646886E+02 -0.83114546955E+01  0.15645642456E+02  0.28999411612E+02  0.00000000000E+00 0. -1.
</event>
<event>
 5    1  0.8952932E-005  0.9118800E+02  0.7818608E-02  0.1130116E+00
         25   -1    0    0    0    0  0.00000000000E+00  0.00000000000E+00  0.99999998245E-14  0.12500000000E+03  0.12500000000E+03 0.  0.
        -11    1    3    3    0    0 -0.33474987128E+02 -0.95192356741E+01  0.13756523557E+02  0.37422353636E+02  0.51100000000E-03 0. -1.
         23    2    1    0    0    0  0.21510147958E+02 -0.19359741524E+02 -0.34124859498E+01  0.95860145549E+02  0.91323799676E+02 0.  0.
         11    1    3    3    0    0  0.54985135086E+02 -0.98405058503E+01 -0.17169009507E+02  0.58437791912E+02  0.51100000000E-03 0.  1.
         22    1    1    0    0    0 -0.21510147958E+02  0.19359741524E+02  0.34124859498E+01  0.29139854451E+02  0.00000000000E+00 0.  1.
</event>
<event>
 5    1  0.8952932E-005  0.9118800E+02  0.7818608E-02  0.1130116E+00
         25   -1    0    0    0    0  0.00000000000E+00  0.00000000000E+00  0.99999998245E-14  0.12500000000E+03  0.12500000000E+03 0.  0.
        -11    1    3    3    0    0 -0.44416548497E+02 -0.27568217566E+01 -0.12282341563E+02  0.46165850594E+02  0.51100000000E-03 0. -1.
         23    2    1    0    0    0 -0.94312588468E+01 -0.31300639016E+02 -0.62139687399E+01  0.91724001837E+02  0.85475145271E+02 0.  0.
         11    1    3    3    0    0  0.34985289650E+02 -0.28543817260E+02  0.60683728232E+01  0.45558151242E+02  0.51100000000E-03 0.  1.
         22    1    1    0    0    0  0.94312588468E+01  0.31300639016E+02  0.62139687399E+01  0.33275998163E+02  0.00000000000E+00 0.  1.
</event>
<event>
 5    1  0.8952932E-005  0.9118800E+02  0.7818608E-02  0.1130116E+00
         25   -1    0    0    0    0  0.00000000000E+00  0.00000000000E+00  0.99999998245E-14  0.12500000000E+03  0.12500000000E+03 0.  0.
        -11    1    3    3    0    0  0.65053396983E+01  0.61065041687E+00 -0.53992932018E+02  0.54386846265E+02  0.51100000000E-03 0. -1.
         23    2    1    0    0    0 -0.16632699853E+02  0.10943246646E+02 -0.20066644426E+02  0.96732145995E+02  0.92509656245E+02 0.  0.
         11    1    3    3    0    0 -0.23138039551E+02  0.10332596229E+02  0.33926287592E+02  0.42345299729E+02  0.51100000000E-03 0.  1.
         22    1    1    0    0    0  0.16632699853E+02 -0.10943246646E+02  0.20066644426E+02  0.28267854005E+02  0.00000000000E+00 0. -1.
</event>
<event>
 5    1  0.8952932E-005  0.9118800E+02  0.7818608E-02  0.1130116E+00
         25   -1    0    0    0    0  0.00000000000E+00  0.00000000000E+00  0.99999998245E-14  0.12500000000E+03  0.12500000000E+03 0.  0.
        -11    1    3    3    0    0  0.16716449443E+02 -0.14046018697E+01  0.93094895178E+01  0.19185389851E+02  0.51100000000E-03 0. -1.
         23    2    1    0    0    0 -0.28965802552E+02  0.10473531442E+02 -0.31031872741E+02  0.81277126076E+02  0.68514827001E+02 0.  0.
         11    1    3    3    0    0 -0.45682251995E+02  0.11878133311E+02 -0.40341362259E+02  0.62091736225E+02  0.51100000000E-03 0.  1.
         22    1    1    0    0    0  0.28965802552E+02 -0.10473531442E+02  0.31031872741E+02  0.43722873924E+02  0.00000000000E+00 0.  1.
</event>
<event>
 5    1  0.8952932E-005  0.9118800E+02  0.7818608E-02  0.1130116E+00
         25   -1    0    0    0    0  0.00000000000E+00  0.00000000000E+00  0.99999998245E-14  0.12500000000E+03  0.12500000000E+03 0.  0.
        -11    1    3    3    0    0  0.34128120448E+02 -0.86491205403E+01 -0.12377061933E+02  0.37319265183E+02  0.51100000000E-03 0. -1.
         23    2    1    0    0    0 -0.10978845144E+02 -0.87250479275E+01  0.25287853883E+02  0.96083965416E+02  0.91629642333E+02 0.  0.
         11    1    3    3    0    0 -0.45106965592E+02 -0.75927387218E-01  0.37664915815E+02  0.58764700234E+02  0.51100000000E-03 0.  1.
         22    1    1    0    0    0  0.10978845144E+02  0.87250479275E+01 -0.25287853883E+02  0.28916034584E+02  0.00000000000E+00 0.  1.
</event>
<event>
 5    1  0.8952932E-005  0.9118800E+02  0.7818608E-02  0.1130116E+00
         25   -1    0    0    0    0  0.00000000000E+00  0.00000000000E+00  0.99999998245E-14  0.12500000000E+03  0.12500000000E+03 0.  0.
        -11    1    3    3    0    0 -0.44014767195E+02 -0.29843048139E+02 -0.23748454245E+02  0.58239989121E+02  0.51100000000E-03 0.  1.
         23    2    1    0    0    0 -0.26237141899E+02  0.57425617153E+00 -0.45425313528E+01  0.98366337535E+02  0.94692050268E+02 0.  0.
         11    1    3    3    0    0  0.17777625296E+02  0.30417304311E+02  0.19205922892E+02  0.40126348415E+02  0.51100000000E-03 0. -1.
         22    1    1    0    0    0  0.26237141899E+02 -0.57425617153E+00  0.45425313528E+01  0.26633662465E+02  0.00000000000E+00 0. -1.
</event>
<event>
 5    1  0.8952932E-005  0.9118800E+02  0.7818608E-02  0.1130116E+00
         25   -1    0    0    0    0  0.00000000000E+00  0.00000000000E+00  0.99999998245E-14  0.12500000000E+03  0.12500000000E+03 0.  0.
        -11    1    3    3    0    0  0.22492794933E+02 -0.24822253484E+02 -0.62209948028E+01  0.34070087592E+02  0.51100000000E-03 0. -1.
         23    2    1    0    0    0 -0.16781372427E+02  0.21910247898E+02 -0.10975812742E+02  0.95299126463E+02  0.90552645549E+02 0.  0.
         11    1    3    3    0    0 -0.39274167361E+02  0.46732501381E+02 -0.47548179393E+01  0.61229038872E+02  0.51100000000E-03 0.  1.
         22    1    1    0    0    0  0.16781372427E+02 -0.21910247898E+02  0.10975812742E+02  0.29700873537E+02  0.00000000000E+00 0.  1.
</event>
<event>
 5    1  0.8952932E-005  0.9118800E+02  0.7818608E-02  0.1130116E+00
         25   -1    0    0    0    0  0.00000000000E+00  0.00000000000E+00  0.99999998245E-14  0.12500000000E+03  0.12500000000E+03 0.  0.
        -11    1    3    3    0    0  0.47476363732E+02 -0.63489640171E+01  0.36507184884E+02  0.60225318644E+02  0.51100000000E-03 0.  1.
         23    2    1    0    0    0  0.13288728843E+02 -0.88511267153E+01  0.22848798098E+02  0.97125274299E+02  0.93039338856E+02 0.  0.
         11    1    3    3    0    0 -0.34187634889E+02 -0.25021626982E+01 -0.13658386787E+02  0.36899955655E+02  0.51100000000E-03 0. -1.
         22    1    1    0    0    0 -0.13288728843E+02  0.88511267153E+01 -0.22848798098E+02  0.27874725701E+02  0.00000000000E+00 0.  1.
</event>
<event>
 5    1  0.8952932E-005  0.9118800E+02  0.7818608E-02  0.1130116E+00
         25   -1    0    0    0    0  0.00000000000E+00  0.00000000000E+00  0.99999998245E-14  0.12500000000E+03  0.12500000000E+03 0.  0.
        -11    1    3    3    0    0 -0.20721630527E+02 -0.44064446634E+02  0.19783944701E+02  0.52559165681E+02  0.51100000000E-03 0.  1.
         23    2    1    0    0    0 -0.22686163482E+02 -0.12283209143E+02 -0.11097355573E+02  0.96916365244E+02  0.92758241203E+02 0.  0.
         11    1    3    3    0    0 -0.19645329546E+01  0.31781237491E+02 -0.30881300274E+02  0.44357199563E+02  0.51100000000E-03 0. -1.
         22    1    1    0    0    0  0.22686163482E+02  0.12283209143E+02  0.11097355573E+02  0.28083634756E+02  0.00000000000E+00 0. -1.
</event>
<event>
 5    1  0.8952932E-005  0.9118800E+02  0.7818608E-02  0.1130116E+00
         25   -1    0    0    0    0  0.00000000000E+00  0.00000000000E+00  0.99999998245E-14  0.12500000000E+03  0.12500000000E+03 0.  0.
        -11    1    3    3    0    0 -0.11798107504E+02  0.52757146304E+01 -0.46099282785E+02  0.47876637090E+02  0.51100000000E-03 0.  1.
         23    2    1    0    0    0 -0.28787644999E+02 -0.52485212513E+01 -0.27525373458E+01  0.95608641716E+02  0.90978901011E+02 0.  0.
         11    1    3    3    0    0 -0.16989537495E+02 -0.10524235882E+02  0.43346745439E+02  0.47732004626E+02  0.51100000000E-03 0. -1.
         22    1    1    0    0    0  0.28787644999E+02  0.52485212513E+01  0.27525373458E+01  0.29391358284E+02  0.00000000000E+00 0. -1.
</event>
<event>
 5    1  0.8952932E-005  0.9118800E+02  0.7818608E-02  0.1130116E+00
         25   -1    0    0    0    0  0.00000000000E+00  0.00000000000E+00  0.99999998245E-14  0.12500000000E+03  0.12500000000E+03 0.  0.
        -11    1    3    3    0    0 -0.17788672714E+02 -0.27189522320E+02  0.26410869767E+02  0.41871721281E+02  0.51100000000E-03 0.  1.
         23    2    1    0    0    0  0.19053820675E+02 -0.18741426227E+02 -0.11947996507E+02  0.95724690269E+02  0.91138205859E+02 0.  0.
         11    1    3    3    0    0  0.36842493389E+02  0.84480960927E+01 -0.38358866275E+02  0.53852968988E+02  0.51100000000E-03 0. -1.
         22    1    1    0    0    0 -0.19053820675E+02  0.18741426227E+02  0.11947996507E+02  0.29275309731E+02  0.00000000000E+00 0. -1.
</event>
<event>
 5    1  0.8952932E-005  0.9118800E+02  0.7818608E-02  0.1130116E+00
         25   -1    0    0    0    0  0.00000000000E+00  0.00000000000E+00  0.99999998245E-14  0.12500000000E+03  0.12500000000E+03 0.  0.
        -11    1    3    3    0    0  0.49891070284E+02  0.22990169125E+02 -0.18693612505E+02  0.58026872389E+02  0.51100000000E-03 0. -1.
         23    2    1    0    0    0  0.14700762951E+02  0.25026126001E+02 -0.95840960900E+01  0.94434098871E+02  0.89350572006E+02 0.  0.
         11    1    3    3    0    0 -0.35190307333E+02  0.20359568760E+01  0.91095164154E+01  0.36407226483E+02  0.51100000000E-03 0.  1.
         22    1    1    0    0    0 -0.14700762951E+02 -0.25026126001E+02  0.95840960900E+01  0.30565901129E+02  0.00000000000E+00 0. -1.
</event>
<event>
 5    1  0.8952932E-005  0.9118800E+02  0.7818608E-02  0.1130116E+00
         25   -1    0    0    0    0  0.00000000000E+00  0.00000000000E+00  0.99999998245E-14  0.12500000000E+03  0.12500000000E+03 0.  0.
        -11    1    3    3    0    0  0.48535758982E+01  0.30636892033E+02 -0.36622512953E+02  0.47993591319E+02  0.51100000000E-03 0. -1.
         23    2    1    0    0    0 -0.77435643555E+01 -0.14176340511E+02 -0.23725971725E+02  0.96297157745E+02  0.91920016516E+02 0.  0.
         11    1    3    3    0    0 -0.12597140254E+02 -0.44813232544E+02  0.12896541228E+02  0.48303566426E+02  0.51100000000E-03 0.  1.
         22    1    1    0    0    0  0.77435643555E+01  0.14176340511E+02  0.23725971725E+02  0.28702842255E+02  0.00000000000E+00 0.  1.
</event>
<event>
 5    1  0.8952932E-005  0.9118800E+02  0.7818608E-02  0.1130116E+00
         25   -1    0    0    0    0  0.00000000000E+00  0.00000000000E+00  0.99999998245E-14  0.12500000000E+03  0.12500000000E+03 0.  0.
        -11    1    3    3    0    0 -0.94472708700E+01  0.47555288975E+00  0.33595093390E+02  0.34901395066E+02  0.51100000000E-03 0. -1.
         23    2    1    0    0    0  0.50544420818E+01 -0.23307083086E+02 -0.19060025116E+02  0.94470472258E+02  0.89401443303E+02 0.  0.
         11    1    3    3    0    0  0.14501712952E+02 -0.23782635975E+02 -0.52655118505E+02  0.59569077192E+02  0.51100000000E-03 0.  1.
         22    1    1    0    0    0 -0.50544420818E+01  0.23307083086E+02  0.19060025116E+02  0.30529527742E+02  0.00000000000E+00 0.  1.
</event>
<event>
 5    1  0.8952932E-005  0.9118800E+02  0.7818608E-02  0.1130116E+00
         25   -1    0    0    0    0  0.00000000000E+00  0.00000000000E+00  0.99999998245E-14  0.12500000000E+03  0.12500000000E+03 0.  0.
        -11    1    3    3    0    0 -0.19814972775E+02  0.24012065346E+02 -0.46880517200E+02  0.56276063485E+02  0.51100000000E-03 0. -1.
         23    2    1    0    0    0 -0.23090072955E+02 -0.23503060050E+01 -0.17177472555E+02  0.96125426917E+02  0.91686186141E+02 0.  0.
         11    1    3    3    0    0 -0.32751001806E+01 -0.26362371351E+02  0.29703044645E+02  0.39849363431E+02  0.51100000000E-03 0.  1.
         22    1    1    0    0    0  0.23090072955E+02  0.23503060050E+01  0.17177472555E+02  0.28874573083E+02  0.00000000000E+00 0. -1.
</event>
<event>
 5    1  0.8952932E-005  0.9118800E+02  0.7818608E-02  0.1130116E+00
         25   -1    0    0    0    0  0.00000000000E+00  0.00000000000E+00  0.99999998245E-14  0.12500000000E+03  0.12500000000E+03 0.  0.
        -11    1    3    3    0    0 -0.18093561892E+02  0.22887230130E+02 -0.29912307180E+02  0.41784547456E+02  0.51100000000E-03 0. -1.
         23    2    1    0    0    0 -0.21598277628E+02  0.80117218183E+01  0.20315103174E+02  0.94285562027E+02  0.89142529170E+02 0.  0.
         11    1    3    3    0    0 -0.35047157355E+01 -0.14875508312E+02  0.50227410354E+02  0.52501014572E+02  0.51100000000E-03 0.  1.
         22    1    1    0    0    0  0.21598277628E+02 -0.80117218183E+01 -0.20315103174E+02  0.30714437973E+02  0.00000000000E+00 0.  1.
</event>
<event>
 5    1  0.8952932E-005  0.9118800E+02  0.7818608E-02  0.1130116E+00
         25   -1    0    0    0    0  0.00000000000E+00  0.00000000000E+00  0.99999998245E-14  0.12500000000E+03  0.12500000000E+03 0.  0.
        -11    1    3    3    0    0  0.16711759223E+01  0.10855922511E+02  0.30296644622E+02  0.32226240211E+02  0.51100000000E-03 0. -1.
         23    2    1    0    0    0  0.61961084853E+01 -0.61143920410E+01 -0.29340277297E+02  0.94395597992E+02  0.89296693657E+02 0.  0.
         11    1    3    3    0    0  0.45249325630E+01 -0.16970314552E+02 -0.59636921919E+02  0.62169357781E+02  0.51100000000E-03 0.  1.
         22    1    1    0    0    0 -0.61961084853E+01  0.61143920410E+01  0.29340277297E+02  0.30604402008E+02  0.00000000000E+00 0.  1.
</event>
<event>
 5    1  0.8952932E-005  0.9118800E+02  0.7818608E-02  0.1130116E+00
         25   -1    0    0    0    0  0.00000000000E+00  0.00000000000E+00  0.99999998245E-14  0.12500000000E+03  0.12500000000E+03 0.  0.
        -11    1    3    3    0    0  0.78747581532E+01 -0.37553775028E+02  0.14686215405E+02  0.41085067336E+02  0.51100000000E-03 0.  1.
         23    2    1    0    0    0  0.18211001045E+02  0.16680992873E+02  0.14629470312E+02  0.96296037139E+02  0.91918492616E+02 0.  0.
         11    1    3    3    0    0  0.10336242892E+02  0.54234767901E+02 -0.56745093170E-01  0.55210969803E+02  0.51100000000E-03 0. -1.
         22    1    1    0    0    0 -0.18211001045E+02 -0.16680992873E+02 -0.14629470312E+02  0.28703962861E+02  0.00000000000E+00 0. -1.
</event>
<event>
 5    1  0.8952932E-005  0.9118800E+02  0.7818608E-02  0.1130116E+00
         25   -1    0    0    0    0  0.00000000000E+00  0.00000000000E+00  0.99999998245E-14  0.12500000000E+03  0.12500000000E+03 0.  0.
        -11    1    3    3    0    0  0.35451988744E+02 -0.34051900087E+02  0.16908844740E+01  0.49185714349E+02  0.51100000000E-03 0.  1.
         23    2    1    0    0    0 -0.62132659761E+01 -0.24379251827E+02  0.17022509514E+02  0.94623719387E+02  0.89615455402E+02 0.  0.
         11    1    3    3    0    0 -0.41665254720E+02  0.96726482605E+01  0.15331625040E+02  0.45438005038E+02  0.51100000000E-03 0. -1.
         22    1    1    0    0    0  0.62132659761E+01  0.24379251827E+02 -0.17022509514E+02  0.30376280613E+02  0.00000000000E+00 0. -1.
</event>
<event>
 5    1  0.8952932E-005  0.9118800E+02  0.7818608E-02  0.1130116E+00
         25   -1    0    0    0    0  0.00000000000E+00  0.00000000000E+00  0.99999998245E-14  0.12500000000E+03  0.12500000000E+03 0.  0.
        -11    1    3    3    0    0 -0.56395872397E+01  0.34113198515E+02  0.57697522120E+01  0.35054319249E+02  0.51100000000E-03 0.  1.
         23    2    1    0    0    0  0.12192898204E+02 -0.23999408330E+02  0.10680542851E+02  0.96039468886E+02  0.91568920610E+02 0.  0.
         11    1    3    3    0    0  0.17832485444E+02 -0.58112606845E+02  0.49107906387E+01  0.60985149638E+02  0.51100000000E-03 0. -1.
         22    1    1    0    0    0 -0.12192898204E+02  0.23999408330E+02 -0.10680542851E+02  0.28960531114E+02  0.00000000000E+00 0. -1.
</event>
<event>
 5    1  0.8952932E-005  0.9118800E+02  0.7818608E-02  0.1130116E+00
         25   -1    0    0    0    0  0.00000000000E+00  0.00000000000E+00  0.99999998245E-14  0.12500000000E+03  0.12500000000E+03 0.  0.
        -11    1    3    3    0    0 -0.48775545025E+02 -0.12588365710E+01  0.20301058286E+02  0.52846678512E+02  0.51100000000E-03 0. -1.
         23    2    1    0    0    0 -0.13809669451E+02  0.22820117314E+02  0.98236171332E+01  0.96575218943E+02  0.92297371229E+02 0.  0.
         11    1    3    3    0    0  0.34965875574E+02  0.24078953885E+02 -0.10477441153E+02  0.43728540431E+02  0.51100000000E-03 0.  1.
         22    1    1    0    0    0  0.13809669451E+02 -0.22820117314E+02 -0.98236171332E+01  0.28424781057E+02  0.00000000000E+00 0.  1.
</event>
<event>
 5    1  0.8952932E-005  0.9118800E+02  0.7818608E-02  0.1130116E+00
         25   -1    0    0    0    0  0.00000000000E+00  0.00000000000E+00  0.99999998245E-14  0.12500000000E+03  0.12500000000E+03 0.  0.
        -11    1    3    3    0    0  0.16852201206E+02  0.16497730958E+02  0.50132358420E+02  0.55402393209E+02  0.51100000000E-03 0. -1.
         23    2    1    0    0    0  0.24266051562E+02 -0.54708759306E+01  0.22660707376E+02  0.91350640413E+02  0.84927381352E+02 0.  0.
         11    1    3    3    0    0  0.74138503553E+01 -0.21968606889E+02 -0.27471651044E+02  0.35948247204E+02  0.51100000000E-03 0.  1.
         22    1    1    0    0    0 -0.24266051562E+02  0.54708759306E+01 -0.22660707376E+02  0.33649359587E+02  0.00000000000E+00 0. -1.
</event>
<event>
 5    1  0.8952932E-005  0.9118800E+02  0.7818608E-02  0.1130116E+00
         25   -1    0    0    0    0  0.00000000000E+00  0.00000000000E+00  0.99999998245E-14  0.12500000000E+03  0.12500000000E+03 0.  0.
        -11    1    3    3    0    0 -0.11375089692E+02 -0.20519279398E+02 -0.46390617691E+02  0.51985795199E+02  0.51100000000E-03 0. -1.
         23    2    1    0    0    0 -0.27509270733E+02 -0.62495306472E+01 -0.85579245293E+01  0.95520266591E+02  0.90857397320E+02 0.  0.
         11    1    3    3    0    0 -0.16134181042E+02  0.14269748751E+02  0.37832693161E+02  0.43534471392E+02  0.51100000000E-03 0.  1.
         22    1    1    0    0    0  0.27509270733E+02  0.62495306472E+01  0.85579245293E+01  0.29479733409E+02  0.00000000000E+00 0. -1.
</event>
<event>
 5    1  0.8952932E-005  0.9118800E+02  0.7818608E-02  0.1130116E+00
         25   -1    0    0    0    0  0.00000000000E+00  0.00000000000E+00  0.99999998245E-14  0.12500000000E+03  0.12500000000E+03 0.  0.
        -11    1    3    3    0    0 -0.23460753408E+02 -0.55318784911E+02  0.11100142004E+02  0.61104730318E+02  0.51100000000E-03 0.  1.
         23    2    1    0    0    0 -0.87830482362E+01 -0.30814955523E+02 -0.27327128919E+01  0.92841468629E+02  0.87094013326E+02 0.  0.
         11    1    3    3    0    0  0.14677705172E+02  0.24503829388E+02 -0.13832854896E+02  0.31736738311E+02  0.51100000000E-03 0. -1.
         22    1    1    0    0    0  0.87830482362E+01  0.30814955523E+02  0.27327128919E+01  0.32158531371E+02  0.00000000000E+00 0.  1.
</event>
<event>
 5    1  0.8952932E-005  0.9118800E+02  0.7818608E-02  0.1130116E+00
         25   -1    0    0    0    0  0.00000000000E+00  0.00000000000E+00  0.99999998245E-14  0.12500000000E+03  0.12500000000E+03 0.  0.
        -11    1    3    3    0    0 -0.17379327250E+02  0.49534081338E+01 -0.33826123299E+02  0.38350800324E+02  0.51100000000E-03 0.  1.
         23    2    1    0    0    0 -0.16238195687E+02  0.40349536505E+02 -0.24937510478E+02  0.74863750398E+02  0.55596201304E+02 0.  0.
         11    1    3    3    0    0  0.11411315625E+01  0.35396128371E+02  0.88886128216E+01  0.36512950073E+02  0.51100000000E-03 0. -1.
         22    1    1    0    0    0  0.16238195687E+02 -0.40349536505E+02  0.24937510478E+02  0.50136249602E+02  0.00000000000E+00 0.  1.
</event>
<event>
 5    1  0.8952932E-005  0.9118800E+02  0.7818608E-02  0.1130116E+00
         25   -1    0    0    0    0  0.00000000000E+00  0.00000000000E+00  0.99999998245E-14  0.12500000000E+03  0.12500000000E+03 0.  0.
        -11    1    3    3    0    0  0.25992568631E+02  0.24505932427E+02 -0.43236860797E+02  0.56085474768E+02  0.51100000000E-03 0.  1.
         23    2    1    0    0    0 -0.55616662267E+00 -0.25183849469E-01 -0.30625588896E+02  0.94369351121E+02  0.89259944994E+02 0.  0.
         11    1    3    3    0    0 -0.26548735254E+02 -0.24531116277E+02  0.12611271901E+02  0.38283876353E+02  0.51100000000E-03 0. -1.
         22    1    1    0    0    0  0.55616662267E+00  0.25183849469E-01  0.30625588896E+02  0.30630648879E+02  0.00000000000E+00 0.  1.
</event>
<event>
 5    1  0.8952932E-005  0.9118800E+02  0.7818608E-02  0.1130116E+00
         25   -1    0    0    0    0  0.00000000000E+00  0.00000000000E+00  0.99999998245E-14  0.12500000000E+03  0.12500000000E+03 0.  0.
        -11    1    3    3    0    0  0.56599076255E+02 -0.42237553274E+01  0.14181143098E+02  0.58501285130E+02  0.51100000000E-03 0.  1.
         23    2    1    0    0    0  0.19368187737E+02 -0.69439543981E+01  0.20027953402E+02  0.96286516819E+02  0.91905545017E+02 0.  0.
         11    1    3    3    0    0 -0.37230888518E+02 -0.27201990707E+01  0.58468103034E+01  0.37785231689E+02  0.51100000000E-03 0. -1.
         22    1    1    0    0    0 -0.19368187737E+02  0.69439543981E+01 -0.20027953402E+02  0.28713483181E+02  0.00000000000E+00 0.  1.
</event>
<event>
 5    1  0.8952932E-005  0.9118800E+02  0.7818608E-02  0.1130116E+00
         25   -1    0    0    0    0  0.00000000000E+00  0.00000000000E+00  0.99999998245E-14  0.12500000000E+03  0.12500000000E+03 0.  0.
        -11    1    3    3    0    0 -0.46065798427E+01 -0.44990727338E+02  0.20380581968E+02  0.49605990020E+02  0.51100000000E-03 0.  1.
         23    2    1    0    0    0 -0.11686268734E+02 -0.41901826893E+02 -0.95042441653E+01  0.80472900038E+02  0.67031522505E+02 0.  0.
         11    1    3    3    0    0 -0.70796888908E+01  0.30889004447E+01 -0.29884826133E+02  0.30866910017E+02  0.51100000000E-03 0. -1.
         22    1    1    0    0    0  0.11686268734E+02  0.41901826893E+02  0.95042441653E+01  0.44527099962E+02  0.00000000000E+00 0.  1.
</event>
<event>
 5    1  0.8952932E-005  0.9118800E+02  0.7818608E-02  0.1130116E+00
         25   -1    0    0    0    0  0.00000000000E+00  0.00000000000E+00  0.99999998245E-14  0.12500000000E+03  0.12500000000E+03 0.  0.
        -11    1    3    3    0    0 -0.70273526334E-01  0.32881428951E+02 -0.29096352807E+02  0.43906617442E+02  0.51100000000E-03 0.  1.
         23    2    1    0    0    0  0.25991541685E+02 -0.79723992204E+01 -0.90740838593E+01  0.96338904655E+02  0.91976769697E+02 0.  0.
         11    1    3    3    0    0  0.26061815211E+02 -0.40853828172E+02  0.20022268948E+02  0.52432287214E+02  0.51100000000E-03 0. -1.
         22    1    1    0    0    0 -0.25991541685E+02  0.79723992204E+01  0.90740838593E+01  0.28661095345E+02  0.00000000000E+00 0. -1.
</event>
<event>
 5    1  0.8952932E-005  0.9118800E+02  0.7818608E-02  0.1130116E+00
         25   -1    0    0    0    0  0.00000000000E+00  0.00000000000E+00  0.99999998245E-14  0.12500000000E+03  0.12500000000E+03 0.  0.
        -11    1    3    3    0    0 -0.18444640605E+02 -0.18333302186E+02  0.18266554051E+02  0.31780209774E+02  0.51100000000E-03 0. -1.
         23    2    1    0    0    0  0.33244435593E+02 -0.53797608739E+01 -0.67589647579E+01  0.90651522165E+02  0.83892076749E+02 0.  0.
         11    1    3    3    0    0  0.51689076198E+02  0.12953541312E+02 -0.25025518809E+02  0.58871312391E+02  0.51100000000E-03 0.  1.
         22    1    1    0    0    0 -0.33244435593E+02  0.53797608739E+01  0.67589647579E+01  0.34348477835E+02  0.00000000000E+00 0.  1.
</event>
<event>
 5    1  0.8952932E-005  0.9118800E+02  0.7818608E-02  0.1130116E+00
         25   -1    0    0    0    0  0.00000000000E+00  0.00000000000E+00  0.99999998245E-14  0.12500000000E+03  0.12500000000E+03 0.  0.
        -11    1    3    3    0    0 -0.27484367292E+01  0.37210229129E+02  0.25727218415E+02  0.45321571287E+02  0.51100000000E-03 0. -1.
         23    2    1    0    0    0  0.22210255316E+02 -0.69277301156E+01  0.15486877506E+02  0.97051256547E+02  0.92939841493E+02 0.  0.
         11    1    3    3    0    0  0.24958692045E+02 -0.44137959245E+02 -0.10240340910E+02  0.51729685260E+02  0.51100000000E-03 0.  1.
         22    1    1    0    0    0 -0.22210255316E+02  0.69277301156E+01 -0.15486877506E+02  0.27948743453E+02  0.00000000000E+00 0.  1.
</event>
<event>
 5    1  0.8952932E-005  0.9118800E+02  0.7818608E-02  0.1130116E+00
         25   -1    0    0    0    0  0.00000000000E+00  0.00000000000E+00  0.99999998245E-14  0.12500000000E+03  0.12500000000E+03 0.  0.
        -11    1    3    3    0    0 -0.12971680283E+02 -0.55600180275E+02  0.12758441934E+02  0.58501473288E+02  0.51100000000E-03 0. -1.
         23    2    1    0    0    0 -0.75516652302E+01 -0.23690562443E+02  0.21610022303E+02  0.92056662881E+02  0.85960256632E+02 0.  0.
         11    1    3    3    0    0  0.54200150526E+01  0.31909617832E+02  0.88515803684E+01  0.33555189593E+02  0.51100000000E-03 0.  1.
         22    1    1    0    0    0  0.75516652302E+01  0.23690562443E+02 -0.21610022303E+02  0.32943337119E+02  0.00000000000E+00 0. -1.
</event>
<event>
 5    1  0.8952932E-005  0.9118800E+02  0.7818608E-02  0.1130116E+00
         25   -1    0    0    0    0  0.00000000000E+00  0.00000000000E+00  0.99999998245E-14  0.12500000000E+03  0.12500000000E+03 0.  0.
        -11    1    3    3    0    0 -0.48016555112E+02 -0.32644742129E+02  0.17897004554E+02  0.60758304171E+02  0.51100000000E-03 0.  1.
         23    2    1    0    0    0 -0.15617440100E+02 -0.22971070360E+02  0.99715071103E+01  0.95487198323E+02  0.90811891186E+02 0.  0.
         11    1    3    3    0    0  0.32399115012E+02  0.96736717694E+01 -0.79254974436E+01  0.34728894152E+02  0.51100000000E-03 0. -1.
         22    1    1    0    0    0  0.15617440100E+02  0.22971070360E+02 -0.99715071103E+01  0.29512801677E+02  0.00000000000E+00 0.  1.
</event>
<event>
 5    1  0.8952932E-005  0.9118800E+02  0.7818608E-02  0.1130116E+00
         25   -1    0    0    0    0  0.00000000000E+00  0.00000000000E+00  0.99999998245E-14  0.12500000000E+03  0.12500000000E+03 0.  0.
        -11    1    3    3    0    0  0.54916746595E+02 -0.15623546487E+02 -0.11938383507E+02  0.58330688856E+02  0.51100000000E-03 0. -1.
         23    2    1    0    0    0  0.17680078251E+02 -0.21163004547E+02 -0.85463054776E+01  0.96129647288E+02  0.91691939788E+02 0.  0.
         11    1    3    3    0    0 -0.37236668344E+02 -0.55394580597E+01  0.33920780299E+01  0.37798958432E+02  0.51100000000E-03 0.  1.
         22    1    1    0    0    0 -0.17680078251E+02  0.21163004547E+02  0.85463054776E+01  0.28870352712E+02  0.00000000000E+00 0. -1.
</event>
<event>
 5    1  0.8952932E-005  0.9118800E+02  0.7818608E-02  0.1130116E+00
         25   -1    0    0    0    0  0.00000000000E+00  0.00000000000E+00  0.99999998245E-14  0.12500000000E+03  0.12500000000E+03 0.  0.
        -11    1    3    3    0    0 -0.15952634937E+02  0.40472854087E+02 -0.32091146699E+02  0.54059043425E+02  0.51100000000E-03 0.  1.
         23    2    1    0    0    0 -0.12387641182E+02  0.26181704353E+02  0.64563908593E+01  0.95324753079E+02  0.90588013941E+02 0.  0.
         11    1    3    3    0    0  0.35649937545E+01 -0.14291149733E+02  0.38547537558E+02  0.41265709654E+02  0.51100000000E-03 0. -1.
         22    1    1    0    0    0  0.12387641182E+02 -0.26181704353E+02 -0.64563908593E+01  0.29675246921E+02  0.00000000000E+00 0.  1.
</event>
<event>
 5    1  0.8952932E-005  0.9118800E+02  0.7818608E-02  0.1130116E+00
         25   -1    0    0    0    0  0.00000000000E+00  0.00000000000E+00  0.99999998245E-14  0.12500000000E+03  0.12500000000E+03 0.  0.
        -11    1    3    3    0    0 -0.38715353543E+02 -0.10193194588E+02 -0.30268244721E+02  0.50189106932E+02  0.51100000000E-03 0. -1.
         23    2    1    0    0    0 -0.71545348419E+01  0.21631003582E+02 -0.15751212271E+02  0.97301834487E+02  0.93276248970E+02 0.  0.
         11    1    3    3    0    0  0.31560818701E+02  0.31824198170E+02  0.14517032450E+02  0.47112727555E+02  0.51100000000E-03 0.  1.
         22    1    1    0    0    0  0.71545348419E+01 -0.21631003582E+02  0.15751212271E+02  0.27698165513E+02  0.00000000000E+00 0. -1.
</event>
<event>
 4    1  0.8952932E-005  0.9118800E+02  0.7818608E-02  0.1130116E+00
         25   -1    0    0    0    0  0.00000000000E+00  0.00000000000E+00  0.99999998245E-14  0.12500000000E+03  0.12500000000E+03 0.  0.
        -11    1    1    0    0    0  0.37922986844E+01  0.42190429991E+02  0.98884889311E+00  0.42372063138E+02  0.51100000000E-03 0.  1.
         11    1    1    0    0    0 -0.30390571284E+02  0.21919486217E+01  0.36054333404E+01  0.30682089426E+02  0.51100000000E-03 0. -1.
         22    1    1    0    0    0  0.26598272599E+02 -0.44382378613E+02 -0.45942822335E+01  0.51945847436E+02  0.00000000000E+00 0.  1.
</event>
<event>
 5    1  0.8952932E-005  0.9118800E+02  0.7818608E-02  0.1130116E+00
         25   -1    0    0    0    0  0.00000000000E+00  0.00000000000E+00  0.99999998245E-14  0.12500000000E+03  0.12500000000E+03 0.  0.
        -11    1    3    3    0    0  0.35998845813E+02 -0.12099909728E+02 -0.41280151864E+02  0.56092563263E+02  0.51100000000E-03 0.  1.
         23    2    1    0    0    0  0.28643004996E+02  0.25143661482E+01 -0.51027872742E+01  0.95797564994E+02  0.91238101955E+02 0.  0.
         11    1    3    3    0    0 -0.73558408163E+01  0.14614275876E+02  0.36177364590E+02  0.39705001730E+02  0.51100000000E-03 0. -1.
         22    1    1    0    0    0 -0.28643004996E+02 -0.25143661482E+01  0.51027872742E+01  0.29202435006E+02  0.00000000000E+00 0.  1.
</event>
<event>
 5    1  0.8952932E-005  0.9118800E+02  0.7818608E-02  0.1130116E+00
         25   -1    0    0    0    0  0.00000000000E+00  0.00000000000E+00  0.99999998245E-14  0.12500000000E+03  0.12500000000E+03 0.  0.
        -11    1    3    3    0    0 -0.13260830585E+02 -0.13713138510E+02  0.56367642392E+02  0.59508074282E+02  0.51100000000E-03 0.  1.
         23    2    1    0    0    0 -0.51166836280E+01  0.67271061988E+01  0.29906904489E+02  0.93921754469E+02  0.88630912312E+02 0.  0.
         11    1    3    3    0    0  0.81441469573E+01  0.20440244709E+02 -0.26460737903E+02  0.34413680188E+02  0.51100000000E-03 0. -1.
         22    1    1    0    0    0  0.51166836280E+01 -0.67271061988E+01 -0.29906904489E+02  0.31078245531E+02  0.00000000000E+00 0.  1.
</event>
<event>
 5    1  0.8952932E-005  0.9118800E+02  0.7818608E-02  0.1130116E+00
         25   -1    0    0    0    0  0.00000000000E+00  0.00000000000E+00  0.99999998245E-14  0.12500000000E+03  0.12500000000E+03 0.  0.
        -11    1    3    3    0    0 -0.52974629830E+02  0.12790867204E+02 -0.36530213444E+01  0.54619248023E+02  0.51100000000E-03 0. -1.
         23    2    1    0    0    0 -0.14570702450E+02  0.22491555164E+02  0.98208879668E+01  0.96458359121E+02  0.92138969933E+02 0.  0.
         11    1    3    3    0    0  0.38403927380E+02  0.97006879607E+01  0.13473909311E+02  0.41839111098E+02  0.51100000000E-03 0.  1.
         22    1    1    0    0    0  0.14570702450E+02 -0.22491555164E+02 -0.98208879668E+01  0.28541640879E+02  0.00000000000E+00 0. -1.
</event>
<event>
 5    1  0.8952932E-005  0.9118800E+02  0.7818608E-02  0.1130116E+00
         25   -1    0    0    0    0  0.00000000000E+00  0.00000000000E+00  0.99999998245E-14  0.12500000000E+03  0.12500000000E+03 0.  0.
        -11    1    3    3    0    0 -0.61137830641E+02  0.10431854540E+01 -0.37143900715E+01  0.61259442254E+02  0.51100000000E-03 0.  1.
         23    2    1    0    0    0 -0.37130981029E+02 -0.75784111466E+01 -0.48597953356E+01  0.86793198532E+02  0.77931377718E+02 0.  0.
         11    1    3    3    0    0  0.24006849611E+02 -0.86215966006E+01 -0.11454052641E+01  0.25533756278E+02  0.51100000000E-03 0. -1.
         22    1    1    0    0    0  0.37130981029E+02  0.75784111466E+01  0.48597953356E+01  0.38206801468E+02  0.00000000000E+00 0.  1.
</event>
<event>
 5    1  0.8952932E-005  0.9118800E+02  0.7818608E-02  0.1130116E+00
         25   -1    0    0    0    0  0.00000000000E+00  0.00000000000E+00  0.99999998245E-14  0.12500000000E+03  0.12500000000E+03 0.  0.
        -11    1    3    3    0    0  0.34034008402E+02  0.18465964280E+02 -0.12893780785E+02  0.40811213506E+02  0.51100000000E-03 0. -1.
         23    2    1    0    0    0  0.69758148404E+01 -0.49798385493E+01  0.28324048953E+02  0.95407559517E+02  0.90702204379E+02 0.  0.
         11    1    3    3    0    0 -0.27058193561E+02 -0.23445802829E+02  0.41217829738E+02  0.54596346010E+02  0.51100000000E-03 0.  1.
         22    1    1    0    0    0 -0.69758148404E+01  0.49798385493E+01 -0.28324048953E+02  0.29592440483E+02  0.00000000000E+00 0. -1.
</event>
<event>
 5    1  0.8952932E-005  0.9118800E+02  0.7818608E-02  0.1130116E+00
         25   -1    0    0    0    0  0.00000000000E+00  0.00000000000E+00  0.99999998245E-14  0.12500000000E+03  0.12500000000E+03 0.  0.
        -11    1    3    3    0    0  0.16796580534E+02  0.91692485949E+01 -0.28648669134E+02  0.34452089644E+02  0.51100000000E-03 0.  1.
         23    2    1    0    0    0 -0.21702349328E+02  0.54803733559E+01  0.18872341794E+02  0.95722162934E+02  0.91134739444E+02 0.  0.
         11    1    3    3    0    0 -0.38498929863E+02 -0.36888752390E+01  0.47521010928E+02  0.61270073290E+02  0.51100000000E-03 0. -1.
         22    1    1    0    0    0  0.21702349328E+02 -0.54803733559E+01 -0.18872341794E+02  0.29277837066E+02  0.00000000000E+00 0. -1.
</event>
<event>
 5    1  0.8952932E-005  0.9118800E+02  0.7818608E-02  0.1130116E+00
         25   -1    0    0    0    0  0.00000000000E+00  0.00000000000E+00  0.99999998245E-14  0.12500000000E+03  0.12500000000E+03 0.  0.
        -11    1    3    3    0    0  0.14622575616E+02  0.18539959355E+02  0.51168974865E+02  0.56354359188E+02  0.51100000000E-03 0.  1.
         23    2    1    0    0    0 -0.11245968553E+02  0.16214637483E+02  0.23752570414E+02  0.94120057017E+02  0.88910147082E+02 0.  0.
         11    1    3    3    0    0 -0.25868544169E+02 -0.23253218721E+01 -0.27416404451E+02  0.37765697829E+02  0.51100000000E-03 0. -1.
         22    1    1    0    0    0  0.11245968553E+02 -0.16214637483E+02 -0.23752570414E+02  0.30879942983E+02  0.00000000000E+00 0. -1.
</event>
<event>
 5    1  0.8952932E-005  0.9118800E+02  0.7818608E-02  0.1130116E+00
         25   -1    0    0    0    0  0.00000000000E+00  0.00000000000E+00  0.99999998245E-14  0.12500000000E+03  0.12500000000E+03 0.  0.
        -11    1    3    3    0    0 -0.61224987533E+01  0.14726486895E+02 -0.25057107259E+02  0.29702071169E+02  0.51100000000E-03 0. -1.
         23    2    1    0    0    0  0.11375422965E+02 -0.28192873161E+02  0.15124944707E+02  0.91044112483E+02  0.84475014772E+02 0.  0.
         11    1    3    3    0    0  0.17497921718E+02 -0.42919360056E+02  0.40182051966E+02  0.61342041314E+02  0.51100000000E-03 0.  1.
         22    1    1    0    0    0 -0.11375422965E+02  0.28192873161E+02 -0.15124944707E+02  0.33955887517E+02  0.00000000000E+00 0.  1.
</event>
<event>
 5    1  0.8952932E-005  0.9118800E+02  0.7818608E-02  0.1130116E+00
         25   -1    0    0    0    0  0.00000000000E+00  0.00000000000E+00  0.99999998245E-14  0.12500000000E+03  0.12500000000E+03 0.  0.
        -11    1    3    3    0    0  0.25691510486E+02 -0.14473526577E+02  0.21104011276E+02  0.36261770155E+02  0.51100000000E-03 0.  1.
         23    2    1    0    0    0 -0.17719033847E+01  0.14802059660E+02 -0.24066176404E+02  0.96690611831E+02  0.92453517822E+02 0.  0.
         11    1    3    3    0    0 -0.27463413870E+02  0.29275586237E+02 -0.45170187680E+02  0.60428841676E+02  0.51100000000E-03 0. -1.
         22    1    1    0    0    0  0.17719033847E+01 -0.14802059660E+02  0.24066176404E+02  0.28309388169E+02  0.00000000000E+00 0. -1.
</event>
<event>
 5    1  0.8952932E-005  0.9118800E+02  0.7818608E-02  0.1130116E+00
         25   -1    0    0    0    0  0.00000000000E+00  0.00000000000E+00  0.99999998245E-14  0.12500000000E+03  0.12500000000E+03 0.  0.
        -11    1    3    3    0    0 -0.29575697353E+02  0.14957102264E+02  0.23850225213E+02  0.40832217978E+02  0.51100000000E-03 0. -1.
         23    2    1    0    0    0  0.86481220358E+01  0.25944579139E+02 -0.12699128587E+02  0.94847403622E+02  0.89926919805E+02 0.  0.
         11    1    3    3    0    0  0.38223819389E+02  0.10987476874E+02 -0.36549353800E+02  0.54015185644E+02  0.51100000000E-03 0.  1.
         22    1    1    0    0    0 -0.86481220358E+01 -0.25944579139E+02  0.12699128587E+02  0.30152596378E+02  0.00000000000E+00 0.  1.
</event>
<event>
 5    1  0.8952932E-005  0.9118800E+02  0.7818608E-02  0.1130116E+00
         25   -1    0    0    0    0  0.00000000000E+00  0.00000000000E+00  0.99999998245E-14  0.12500000000E+03  0.12500000000E+03 0.  0.
        -11    1    3    3    0    0 -0.30620769729E+02  0.48537932585E+02  0.21196680341E+02  0.61178931800E+02  0.51100000000E-03 0. -1.
         23    2    1    0    0    0 -0.95038276196E+01  0.20372851169E+02  0.17374132152E+02  0.96588096294E+02  0.92314809611E+02 0.  0.
         11    1    3    3    0    0  0.21116942110E+02 -0.28165081416E+02 -0.38225481885E+01  0.35409164494E+02  0.51100000000E-03 0.  1.
         22    1    1    0    0    0  0.95038276196E+01 -0.20372851169E+02 -0.17374132152E+02  0.28411903706E+02  0.00000000000E+00 0. -1.
</event>
<event>
 5    1  0.8952932E-005  0.9118800E+02  0.7818608E-02  0.1130116E+00
         25   -1    0    0    0    0  0.00000000000E+00  0.00000000000E+00  0.99999998245E-14  0.12500000000E+03  0.12500000000E+03 0.  0.
        -11    1    3    3    0    0  0.38129715911E+02 -0.25966143530E+01 -0.40710911186E+01  0.38434248070E+02  0.51100000000E-03 0.  1.
         23    2    1    0    0    0 -0.14885622012E+02 -0.11092203283E+02 -0.23070173779E+02  0.95388319289E+02  0.90675684846E+02 0.  0.
         11    1    3    3    0    0 -0.53015337922E+02 -0.84955889298E+01 -0.18999082661E+02  0.56954071219E+02  0.51100000000E-03 0. -1.
         22    1    1    0    0    0  0.14885622012E+02  0.11092203283E+02  0.23070173779E+02  0.29611680711E+02  0.00000000000E+00 0. -1.
</event>
<event>
 5    1  0.8952932E-005  0.9118800E+02  0.7818608E-02  0.1130116E+00
         25   -1    0    0    0    0  0.00000000000E+00  0.00000000000E+00  0.99999998245E-14  0.12500000000E+03  0.12500000000E+03 0.  0.
        -11    1    3    3    0    0  0.29690977672E+02  0.33788556562E+02  0.22937060623E+01  0.45038670022E+02  0.51100000000E-03 0. -1.
         23    2    1    0    0    0  0.76012097316E+01 -0.64057021639E+01  0.26355952845E+02  0.96831797005E+02  0.92644207867E+02 0.  0.
         11    1    3    3    0    0 -0.22089767940E+02 -0.40194258725E+02  0.24062246783E+02  0.51793126983E+02  0.51100000000E-03 0.  1.
         22    1    1    0    0    0 -0.76012097316E+01  0.64057021639E+01 -0.26355952845E+02  0.28168202995E+02  0.00000000000E+00 0.  1.
</event>
<event>
 5    1  0.8952932E-005  0.9118800E+02  0.7818608E-02  0.1130116E+00
         25   -1    0    0    0    0  0.00000000000E+00  0.00000000000E+00  0.99999998245E-14  0.12500000000E+03  0.12500000000E+03 0.  0.
        -11    1    3    3    0    0  0.46736193358E+02  0.29300404279E+02  0.44783729074E+01  0.55342942501E+02  0.51100000000E-03 0. -1.
         23    2    1    0    0    0  0.23812128274E+02  0.68617918359E+01 -0.17878114117E+02  0.94443026908E+02  0.89363061312E+02 0.  0.
         11    1    3    3    0    0 -0.22924065084E+02 -0.22438612443E+02 -0.22356487024E+02  0.39100084407E+02  0.51100000000E-03 0.  1.
         22    1    1    0    0    0 -0.23812128274E+02 -0.68617918359E+01  0.17878114117E+02  0.30556973092E+02  0.00000000000E+00 0. -1.
</event>
<event>
 5    1  0.8952932E-005  0.9118800E+02  0.7818608E-02  0.1130116E+00
         25   -1    0    0    0    0  0.00000000000E+00  0.00000000000E+00  0.99999998245E-14  0.12500000000E+03  0.12500000000E+03 0.  0.
        -11    1    3    3    0    0  0.32936125721E+02  0.31563354623E+02  0.37561692380E+02  0.59092423095E+02  0.51100000000E-03 0. -1.
         23    2    1    0    0    0  0.12661863479E+02  0.19976569810E+01  0.24686788810E+02  0.97183620618E+02  0.93117695174E+02 0.  0.
         11    1    3    3    0    0 -0.20274262242E+02 -0.29565697642E+02 -0.12874903571E+02  0.38091197523E+02  0.51100000000E-03 0.  1.
         22    1    1    0    0    0 -0.12661863479E+02 -0.19976569810E+01 -0.24686788810E+02  0.27816379382E+02  0.00000000000E+00 0. -1.
</event>
<event>
 5    1  0.8952932E-005  0.9118800E+02  0.7818608E-02  0.1130116E+00
         25   -1    0    0    0    0  0.00000000000E+00  0.00000000000E+00  0.99999998245E-14  0.12500000000E+03  0.12500000000E+03 0.  0.
        -11    1    3    3    0    0  0.18282967680E+02  0.24693798788E+02 -0.31841334730E+02  0.44248403400E+02  0.51100000000E-03 0. -1.
         23    2    1    0    0    0  0.13122593295E+02  0.18075681880E+02  0.18937373453E+02  0.95715928502E+02  0.91126187924E+02 0.  0.
         11    1    3    3    0    0 -0.51603743856E+01 -0.66181169083E+01  0.50778708182E+02  0.51467525102E+02  0.51100000000E-03 0.  1.
         22    1    1    0    0    0 -0.13122593295E+02 -0.18075681880E+02 -0.18937373453E+02  0.29284071498E+02  0.00000000000E+00 0.  1.
</event>
<event>
 5    1  0.8952932E-005  0.9118800E+02  0.7818608E-02  0.1130116E+00
         25   -1    0    0    0    0  0.00000000000E+00  0.00000000000E+00  0.99999998245E-14  0.12500000000E+03  0.12500000000E+03 0.  0.
        -11    1    3    3    0    0  0.17012268988E+02  0.53072103764E+02  0.17993336383E+01  0.55761125311E+02  0.51100000000E-03 0.  1.
         23    2    1    0    0    0  0.19609471372E+02  0.15686330116E+02  0.15299849811E+02  0.95594597023E+02  0.90959602329E+02 0.  0.
         11    1    3    3    0    0  0.25972023840E+01 -0.37385773648E+02  0.13500516172E+02  0.39833471713E+02  0.51100000000E-03 0. -1.
         22    1    1    0    0    0 -0.19609471372E+02 -0.15686330116E+02 -0.15299849811E+02  0.29405402977E+02  0.00000000000E+00 0. -1.
</event>
<event>
 5    1  0.8952932E-005  0.9118800E+02  0.7818608E-02  0.1130116E+00
         25   -1    0    0    0    0  0.00000000000E+00  0.00000000000E+00  0.99999998245E-14  0.12500000000E+03  0.12500000000E+03 0.  0.
        -11    1    3    3    0    0  0.31712380925E+02  0.10476071205E+01  0.10818478781E+02  0.33523306341E+02  0.51100000000E-03 0.  1.
         23    2    1    0    0    0 -0.24834290386E+02 -0.15681004702E+02 -0.63698771702E+01  0.94946527279E+02  0.90064598038E+02 0.  0.
         11    1    3    3    0    0 -0.56546671311E+02 -0.16728611822E+02 -0.17188355951E+02  0.61423220938E+02  0.51100000000E-03 0. -1.
         22    1    1    0    0    0  0.24834290386E+02  0.15681004702E+02  0.63698771702E+01  0.30053472721E+02  0.00000000000E+00 0. -1.
</event>
<event>
 5    1  0.8952932E-005  0.9118800E+02  0.7818608E-02  0.1130116E+00
         25   -1    0    0    0    0  0.00000000000E+00  0.00000000000E+00  0.99999998245E-14  0.12500000000E+03  0.12500000000E+03 0.  0.
        -11    1    3    3    0    0  0.23821120765E+02 -0.30942286013E+02  0.60507530750E+01  0.39515597822E+02  0.51100000000E-03 0. -1.
         23    2    1    0    0    0 -0.19057614099E+02  0.41262911333E+01  0.20443911745E+02  0.96748053853E+02  0.92531148611E+02 0.  0.
         11    1    3    3    0    0 -0.42878734864E+02  0.35068577146E+02  0.14393158670E+02  0.57232456031E+02  0.51100000000E-03 0.  1.
         22    1    1    0    0    0  0.19057614099E+02 -0.41262911333E+01 -0.20443911745E+02  0.28251946147E+02  0.00000000000E+00 0.  1.
</event>
<event>
 5    1  0.8952932E-005  0.9118800E+02  0.7818608E-02  0.1130116E+00
         25   -1    0    0    0    0  0.00000000000E+00  0.00000000000E+00  0.99999998245E-14  0.12500000000E+03  0.12500000000E+03 0.  0.
        -11    1    3    3    0    0  0.32722220286E+02  0.15033034479E+02 -0.50501406609E+02  0.62025219837E+02  0.51100000000E-03 0. -1.
         23    2    1    0    0    0  0.15982472519E+02  0.11988082257E+02 -0.21491416561E+02  0.95656610117E+02  0.91044783097E+02 0.  0.
         11    1    3    3    0    0 -0.16739747767E+02 -0.30449522215E+01  0.29009990048E+02  0.33631390280E+02  0.51100000000E-03 0.  1.
         22    1    1    0    0    0 -0.15982472519E+02 -0.11988082257E+02  0.21491416561E+02  0.29343389883E+02  0.00000000000E+00 0. -1.
</event>
<event>
 5    1  0.8952932E-005  0.9118800E+02  0.7818608E-02  0.1130116E+00
         25   -1    0    0    0    0  0.00000000000E+00  0.00000000000E+00  0.99999998245E-14  0.12500000000E+03  0.12500000000E+03 0.  0.
        -11    1    3    3    0    0 -0.40381276003E+02 -0.16289781160E+02  0.38352000488E+02  0.58024825408E+02  0.51100000000E-03 0.  1.
         23    2    1    0    0    0 -0.50896591323E+01 -0.66531185870E+01  0.27601565070E+02  0.96155329586E+02  0.91726944768E+02 0.  0.
         11    1    3    3    0    0  0.35291616871E+02  0.96366625727E+01 -0.10750435418E+02  0.38130504178E+02  0.51100000000E-03 0. -1.
         22    1    1    0    0    0  0.50896591323E+01  0.66531185870E+01 -0.27601565070E+02  0.28844670414E+02  0.00000000000E+00 0.  1.
</event>
<event>
 5    1  0.8952932E-005  0.9118800E+02  0.7818608E-02  0.1130116E+00
         25   -1    0    0    0    0  0.00000000000E+00  0.00000000000E+00  0.99999998245E-14  0.12500000000E+03  0.12500000000E+03 0.  0.
        -11    1    3    3    0    0  0.95661378086E+01 -0.54333115849E+02 -0.16813044080E+01  0.55194431379E+02  0.51100000000E-03 0. -1.
         23    2    1    0    0    0  0.20975640091E+02 -0.17155208662E+02  0.10488480833E+02  0.95943384718E+02  0.91437662807E+02 0.  0.
         11    1    3    3    0    0  0.11409502282E+02  0.37177907187E+02  0.12169785241E+02  0.40748953339E+02  0.51100000000E-03 0.  1.
         22    1    1    0    0    0 -0.20975640091E+02  0.17155208662E+02 -0.10488480833E+02  0.29056615282E+02  0.00000000000E+00 0. -1.
</event>
<event>
 5    1  0.8952932E-005  0.9118800E+02  0.7818608E-02  0.1130116E+00
         25   -1    0    0    0    0  0.00000000000E+00  0.00000000000E+00  0.99999998245E-14  0.12500000000E+03  0.12500000000E+03 0.  0.
        -11    1    3    3    0    0 -0.31319735726E+02  0.15870050409E+02 -0.17696625229E+02  0.39318632869E+02  0.51100000000E-03 0. -1.
         23    2    1    0    0    0  0.21473614215E+01 -0.23190038504E+02 -0.24492654303E+02  0.91202379349E+02  0.84708882871E+02 0.  0.
         11    1    3    3    0    0  0.33467097147E+02 -0.39060088913E+02 -0.67960290734E+01  0.51883746480E+02  0.51100000000E-03 0.  1.
         22    1    1    0    0    0 -0.21473614215E+01  0.23190038504E+02  0.24492654303E+02  0.33797620651E+02  0.00000000000E+00 0.  1.
</event>
<event>
 5    1  0.8952932E-005  0.9118800E+02  0.7818608E-02  0.1130116E+00
         25   -1    0    0    0    0  0.00000000000E+00  0.00000000000E+00  0.99999998245E-14  0.12500000000E+03  0.12500000000E+03 0.  0.
        -11    1    3    3    0    0  0.17090655525E+02 -0.19192843204E+02  0.25532323203E+02  0.36226444277E+02  0.51100000000E-03 0. -1.
         23    2    1    0    0    0 -0.10039981191E+01  0.28515924844E+02 -0.54917249791E+01  0.95942728531E+02  0.91436765761E+02 0.  0.
         11    1    3    3    0    0 -0.18094653645E+02  0.47708768049E+02 -0.31024048182E+02  0.59716284254E+02  0.51100000000E-03 0.  1.
         22    1    1    0    0    0  0.10039981191E+01 -0.28515924844E+02  0.54917249791E+01  0.29057271469E+02  0.00000000000E+00 0.  1.
</event>
<event>
 5    1  0.8952932E-005  0.9118800E+02  0.7818608E-02  0.1130116E+00
         25   -1    0    0    0    0  0.00000000000E+00  0.00000000000E+00  0.99999998245E-14  0.12500000000E+03  0.12500000000E+03 0.  0.
        -11    1    3    3    0    0 -0.27829609198E+02  0.54227327249E+02 -0.17757765627E+01  0.60977401973E+02  0.51100000000E-03 0.  1.
         23    2    1    0    0    0 -0.19078423638E+02  0.16359327863E+02 -0.68809243148E+00  0.99858653023E+02  0.96641933216E+02 0.  0.
         11    1    3    3    0    0  0.87511855605E+01 -0.37867999386E+02  0.10876841313E+01  0.38881251050E+02  0.51100000000E-03 0. -1.
         22    1    1    0    0    0  0.19078423638E+02 -0.16359327863E+02  0.68809243148E+00  0.25141346977E+02  0.00000000000E+00 0.  1.
</event>
<event>
 5    1  0.8952932E-005  0.9118800E+02  0.7818608E-02  0.1130116E+00
         25   -1    0    0    0    0  0.00000000000E+00  0.00000000000E+00  0.99999998245E-14  0.12500000000E+03  0.12500000000E+03 0.  0.
        -11    1    3    3    0    0 -0.25487808711E+02  0.47818215631E+02 -0.84444525316E+01  0.54840850812E+02  0.51100000000E-03 0.  1.
         23    2    1    0    0    0 -0.24647558638E+02  0.12680482381E+02  0.11198505327E+02  0.95105129172E+02  0.90284452111E+02 0.  0.
         11    1    3    3    0    0  0.84025007225E+00 -0.35137733250E+02  0.19642957859E+02  0.40264278360E+02  0.51100000000E-03 0. -1.
         22    1    1    0    0    0  0.24647558638E+02 -0.12680482381E+02 -0.11198505327E+02  0.29894870828E+02  0.00000000000E+00 0.  1.
</event>
<event>
 5    1  0.8952932E-005  0.9118800E+02  0.7818608E-02  0.1130116E+00
         25   -1    0    0    0    0  0.00000000000E+00  0.00000000000E+00  0.99999998245E-14  0.12500000000E+03  0.12500000000E+03 0.  0.
        -11    1    3    3    0    0 -0.37965653490E+02 -0.28938466476E+02  0.52349763560E+01  0.48023230469E+02  0.51100000000E-03 0.  1.
         23    2    1    0    0    0  0.37686877433E+00 -0.22096660612E+02 -0.20621988920E+02  0.94773010946E+02  0.89823453154E+02 0.  0.
         11    1    3    3    0    0  0.38342522265E+02  0.68418058647E+01 -0.25856965276E+02  0.46749780477E+02  0.51100000000E-03 0. -1.
         22    1    1    0    0    0 -0.37686877433E+00  0.22096660612E+02  0.20621988920E+02  0.30226989054E+02  0.00000000000E+00 0. -1.
</event>
<event>
 5    1  0.8952932E-005  0.9118800E+02  0.7818608E-02  0.1130116E+00
         25   -1    0    0    0    0  0.00000000000E+00  0.00000000000E+00  0.99999998245E-14  0.12500000000E+03  0.12500000000E+03 0.  0.
        -11    1    3    3    0    0  0.58530520670E-01  0.41377144301E+02 -0.22012311351E+02  0.46868041858E+02  0.51100000000E-03 0. -1.
         23    2    1    0    0    0  0.27713772807E+02  0.70516485640E+01  0.57324283657E+00  0.96397420430E+02  0.92056260556E+02 0.  0.
         11    1    3    3    0    0  0.27655242287E+02 -0.34325495737E+02  0.22585554188E+02  0.49529378572E+02  0.51100000000E-03 0.  1.
         22    1    1    0    0    0 -0.27713772807E+02 -0.70516485640E+01 -0.57324283657E+00  0.28602579570E+02  0.00000000000E+00 0. -1.
</event>
<event>
 5    1  0.8952932E-005  0.9118800E+02  0.7818608E-02  0.1130116E+00
         25   -1    0    0    0    0  0.00000000000E+00  0.00000000000E+00  0.99999998245E-14  0.12500000000E+03  0.12500000000E+03 0.  0.
        -11    1    3    3    0    0  0.30359856129E+02  0.30909410551E+02 -0.14600418091E+02  0.45719631818E+02  0.51100000000E-03 0. -1.
         23    2    1    0    0    0  0.13892702024E+02  0.34264793299E+01  0.24718260991E+02  0.96438831317E+02  0.92112473798E+02 0.  0.
         11    1    3    3    0    0 -0.16467154105E+02 -0.27482931222E+02  0.39318679082E+02  0.50719199499E+02  0.51100000000E-03 0.  1.
         22    1    1    0    0    0 -0.13892702024E+02 -0.34264793299E+01 -0.24718260991E+02  0.28561168683E+02  0.00000000000E+00 0.  1.
</event>
<event>
 5    1  0.8952932E-005  0.9118800E+02  0.7818608E-02  0.1130116E+00
         25   -1    0    0    0    0  0.00000000000E+00  0.00000000000E+00  0.99999998245E-14  0.12500000000E+03  0.12500000000E+03 0.  0.
        -11    1    3    3    0    0  0.28527219891E+02 -0.43141950492E+02 -0.10294648523E+02  0.52735281885E+02  0.51100000000E-03 0.  1.
         23    2    1    0    0    0  0.28955335847E+02 -0.31921552602E+01  0.48630169138E+01  0.95466116701E+02  0.90782868292E+02 0.  0.
         11    1    3    3    0    0  0.42811595539E+00  0.39949795232E+02  0.15157665437E+02  0.42730834816E+02  0.51100000000E-03 0. -1.
         22    1    1    0    0    0 -0.28955335847E+02  0.31921552602E+01 -0.48630169138E+01  0.29533883299E+02  0.00000000000E+00 0. -1.
</event>
<event>
 5    1  0.8952932E-005  0.9118800E+02  0.7818608E-02  0.1130116E+00
         25   -1    0    0    0    0  0.00000000000E+00  0.00000000000E+00  0.99999998245E-14  0.12500000000E+03  0.12500000000E+03 0.  0.
        -11    1    3    3    0    0  0.28108145551E+02 -0.17758093779E+02 -0.14612762996E+02  0.36317359260E+02  0.51100000000E-03 0. -1.
         23    2    1    0    0    0 -0.80083618144E+01  0.27742827056E+02 -0.40686837881E+00  0.96121567669E+02  0.91680924500E+02 0.  0.
         11    1    3    3    0    0 -0.36116507366E+02  0.45500920836E+02  0.14205894617E+02  0.59804208408E+02  0.51100000000E-03 0.  1.
         22    1    1    0    0    0  0.80083618144E+01 -0.27742827056E+02  0.40686837881E+00  0.28878432331E+02  0.00000000000E+00 0.  1.
</event>
<event>
 5    1  0.8952932E-005  0.9118800E+02  0.7818608E-02  0.1130116E+00
         25   -1    0    0    0    0  0.00000000000E+00  0.00000000000E+00  0.99999998245E-14  0.12500000000E+03  0.12500000000E+03 0.  0.
        -11    1    3    3    0    0 -0.26802905973E+02 -0.36723563966E+02  0.27469051860E+01  0.45547353461E+02  0.51100000000E-03 0.  1.
         23    2    1    0    0    0 -0.25013453125E+02  0.13392551502E+02 -0.46836433775E+01  0.96242917599E+02  0.91846226921E+02 0.  0.
         11    1    3    3    0    0  0.17894528481E+01  0.50116115467E+02 -0.74305485635E+01  0.50695564138E+02  0.51100000000E-03 0. -1.
         22    1    1    0    0    0  0.25013453125E+02 -0.13392551502E+02  0.46836433775E+01  0.28757082401E+02  0.00000000000E+00 0. -1.
</event>
<event>
 5    1  0.8952932E-005  0.9118800E+02  0.7818608E-02  0.1130116E+00
         25   -1    0    0    0    0  0.00000000000E+00  0.00000000000E+00  0.99999998245E-14  0.12500000000E+03  0.12500000000E+03 0.  0.
        -11    1    3    3    0    0 -0.44648064853E+02  0.15050764760E+02  0.33099547137E+02  0.57580858242E+02  0.51100000000E-03 0.  1.
         23    2    1    0    0    0 -0.29237812836E+02 -0.22596416940E+01  0.30684737210E+01  0.95514898491E+02  0.90850011683E+02 0.  0.
         11    1    3    3    0    0  0.15410252017E+02 -0.17310406454E+02 -0.30031073416E+02  0.37934040249E+02  0.51100000000E-03 0. -1.
         22    1    1    0    0    0  0.29237812836E+02  0.22596416940E+01 -0.30684737210E+01  0.29485101509E+02  0.00000000000E+00 0. -1.
</event>
<event>
 5    1  0.8952932E-005  0.9118800E+02  0.7818608E-02  0.1130116E+00
         25   -1    0    0    0    0  0.00000000000E+00  0.00000000000E+00  0.99999998245E-14  0.12500000000E+03  0.12500000000E+03 0.  0.
        -11    1    3    3    0    0  0.22635306433E+02 -0.12649763118E+02 -0.30478499873E+02  0.40016403624E+02  0.51100000000E-03 0. -1.
         23    2    1    0    0    0  0.13138243001E+02  0.19195137040E+02  0.15720234712E+02  0.96925233847E+02  0.92770191666E+02 0.  0.
         11    1    3    3    0    0 -0.94970634323E+01  0.31844900157E+02  0.46198734585E+02  0.56908830223E+02  0.51100000000E-03 0.  1.
         22    1    1    0    0    0 -0.13138243001E+02 -0.19195137040E+02 -0.15720234712E+02  0.28074766153E+02  0.00000000000E+00 0.  1.
</event>
<event>
 5    1  0.8952932E-005  0.9118800E+02  0.7818608E-02  0.1130116E+00
         25   -1    0    0    0    0  0.00000000000E+00  0.00000000000E+00  0.99999998245E-14  0.12500000000E+03  0.12500000000E+03 0.  0.
        -11    1    3    3    0    0  0.49058190134E+02 -0.15427402839E+02 -0.29259728228E+02  0.59167917605E+02  0.51100000000E-03 0. -1.
         23    2    1    0    0    0  0.26819533541E+02 -0.15878639109E+02 -0.28415389768E+01  0.93703148671E+02  0.88322065011E+02 0.  0.
         11    1    3    3    0    0 -0.22238656592E+02 -0.45123627079E+00  0.26418189251E+02  0.34535231066E+02  0.51100000000E-03 0.  1.
         22    1    1    0    0    0 -0.26819533541E+02  0.15878639109E+02  0.28415389768E+01  0.31296851329E+02  0.00000000000E+00 0. -1.
</event>
<event>
 5    1  0.8952932E-005  0.9118800E+02  0.7818608E-02  0.1130116E+00
         25   -1    0    0    0    0  0.00000000000E+00  0.00000000000E+00  0.99999998245E-14  0.12500000000E+03  0.12500000000E+03 0.  0.
        -11    1    3    3    0    0  0.27106363303E+02 -0.31040005843E+02  0.20263036247E+02  0.45921972219E+02  0.51100000000E-03 0.  1.
         23    2    1    0    0    0 -0.77788862157E+01 -0.30119233419E+02 -0.10218413414E+02  0.92257134133E+02  0.86251281343E+02 0.  0.
         11    1    3    3    0    0 -0.34885249519E+02  0.92077242451E+00 -0.30481449662E+02  0.46335161914E+02  0.51100000000E-03 0. -1.
         22    1    1    0    0    0  0.77788862157E+01  0.30119233419E+02  0.10218413414E+02  0.32742865867E+02  0.00000000000E+00 0. -1.
</event>
<event>
 5    1  0.8952932E-005  0.9118800E+02  0.7818608E-02  0.1130116E+00
         25   -1    0    0    0    0  0.00000000000E+00  0.00000000000E+00  0.99999998245E-14  0.12500000000E+03  0.12500000000E+03 0.  0.
        -11    1    3    3    0    0  0.73063357664E+01  0.49991674893E+00 -0.54949319125E+02  0.55435188568E+02  0.51100000000E-03 0.  1.
         23    2    1    0    0    0 -0.56178572310E+00 -0.20073092203E+02 -0.20664889339E+02  0.96185380704E+02  0.91767887499E+02 0.  0.
         11    1    3    3    0    0 -0.78681214895E+01 -0.20573008952E+02  0.34284429786E+02  0.40750192136E+02  0.51100000000E-03 0. -1.
         22    1    1    0    0    0  0.56178572310E+00  0.20073092203E+02  0.20664889339E+02  0.28814619296E+02  0.00000000000E+00 0.  1.
</event>
<event>
 5    1  0.8952932E-005  0.9118800E+02  0.7818608E-02  0.1130116E+00
         25   -1    0    0    0    0  0.00000000000E+00  0.00000000000E+00  0.99999998245E-14  0.12500000000E+03  0.12500000000E+03 0.  0.
        -11    1    3    3    0    0  0.28435738961E+02 -0.27298819126E+02 -0.41758197040E+02  0.57424418119E+02  0.51100000000E-03 0.  1.
         23    2    1    0    0    0  0.21329433302E+02 -0.19969230286E+02 -0.52747558210E+01  0.95309295526E+02  0.90566681961E+02 0.  0.
         11    1    3    3    0    0 -0.71063056595E+01  0.73295888403E+01  0.36483441219E+02  0.37884877407E+02  0.51100000000E-03 0. -1.
         22    1    1    0    0    0 -0.21329433302E+02  0.19969230286E+02  0.52747558210E+01  0.29690704474E+02  0.00000000000E+00 0.  1.
</event>
<event>
 5    1  0.8952932E-005  0.9118800E+02  0.7818608E-02  0.1130116E+00
         25   -1    0    0    0    0  0.00000000000E+00  0.00000000000E+00  0.99999998245E-14  0.12500000000E+03  0.12500000000E+03 0.  0.
        -11    1    3    3    0    0  0.36918387021E+02 -0.75275170065E+01 -0.34776495909E+02  0.51274120963E+02  0.51100000000E-03 0. -1.
         23    2    1    0    0    0  0.24680787748E+02  0.17458431184E+02 -0.13855870692E+01  0.94736854843E+02  0.89773123543E+02 0.  0.
         11    1    3    3    0    0 -0.12237599273E+02  0.24985948190E+02  0.33390908840E+02  0.43462733880E+02  0.51100000000E-03 0.  1.
         22    1    1    0    0    0 -0.24680787748E+02 -0.17458431184E+02  0.13855870692E+01  0.30263145157E+02  0.00000000000E+00 0. -1.
</event>
<event>
 5    1  0.8952932E-005  0.9118800E+02  0.7818608E-02  0.1130116E+00
         25   -1    0    0    0    0  0.00000000000E+00  0.00000000000E+00  0.99999998245E-14  0.12500000000E+03  0.12500000000E+03 0.  0.
        -11    1    3    3    0    0 -0.16975314670E+02  0.33592616674E+02 -0.37803532574E+02  0.53345405412E+02  0.51100000000E-03 0. -1.
         23    2    1    0    0    0 -0.16551477743E+02  0.22279937521E+02  0.42726863903E+01  0.96917925995E+02  0.92760344430E+02 0.  0.
         11    1    3    3    0    0  0.42383692731E+00 -0.11312679153E+02  0.42076218965E+02  0.43572520583E+02  0.51100000000E-03 0.  1.
         22    1    1    0    0    0  0.16551477743E+02 -0.22279937521E+02 -0.42726863903E+01  0.28082074005E+02  0.00000000000E+00 0. -1.
</event>
<event>
 5    1  0.8952932E-005  0.9118800E+02  0.7818608E-02  0.1130116E+00
         25   -1    0    0    0    0  0.00000000000E+00  0.00000000000E+00  0.99999998245E-14  0.12500000000E+03  0.12500000000E+03 0.  0.
        -11    1    3    3    0    0 -0.32288686175E+02  0.12086983451E+01  0.29462339946E+02  0.43726990315E+02  0.51100000000E-03 0.  1.
         23    2    1    0    0    0 -0.17740901037E+02 -0.31655379057E-01 -0.21722469030E+02  0.96953498749E+02  0.92808268420E+02 0.  0.
         11    1    3    3    0    0  0.14547785138E+02 -0.12403537242E+01 -0.51184808977E+02  0.53226508434E+02  0.51100000000E-03 0. -1.
         22    1    1    0    0    0  0.17740901037E+02  0.31655379057E-01  0.21722469030E+02  0.28046501251E+02  0.00000000000E+00 0. -1.
</event>
<event>
 5    1  0.8952932E-005  0.9118800E+02  0.7818608E-02  0.1130116E+00
         25   -1    0    0    0    0  0.00000000000E+00  0.00000000000E+00  0.99999998245E-14  0.12500000000E+03  0.12500000000E+03 0.  0.
        -11    1    3    3    0    0 -0.38193028984E+02  0.25880900153E+01 -0.20928709044E+02  0.43628162183E+02  0.51100000000E-03 0.  1.
         23    2    1    0    0    0 -0.30929317783E+01 -0.28770971364E+02  0.20201601929E+01  0.95992827311E+02  0.91505228417E+02 0.  0.
         11    1    3    3    0    0  0.35100097206E+02 -0.31359061379E+02  0.22948869237E+02  0.52364665128E+02  0.51100000000E-03 0. -1.
         22    1    1    0    0    0  0.30929317783E+01  0.28770971364E+02 -0.20201601929E+01  0.29007172689E+02  0.00000000000E+00 0. -1.
</event>
<event>
 5    1  0.8952932E-005  0.9118800E+02  0.7818608E-02  0.1130116E+00
         25   -1    0    0    0    0  0.00000000000E+00  0.00000000000E+00  0.99999998245E-14  0.12500000000E+03  0.12500000000E+03 0.  0.
        -11    1    3    3    0    0 -0.11961885632E+02  0.45163308658E+02 -0.37714356149E+02  0.60043182934E+02  0.51100000000E-03 0.  1.
         23    2    1    0    0    0 -0.17301650836E+02  0.18797614989E+02 -0.14209318796E+02  0.95766420137E+02  0.91195422222E+02 0.  0.
         11    1    3    3    0    0 -0.53397652043E+01 -0.26365693669E+02  0.23505037353E+02  0.35723237203E+02  0.51100000000E-03 0. -1.
         22    1    1    0    0    0  0.17301650836E+02 -0.18797614989E+02  0.14209318796E+02  0.29233579863E+02  0.00000000000E+00 0.  1.
</event>
<event>
 5    1  0.8952932E-005  0.9118800E+02  0.7818608E-02  0.1130116E+00
         25   -1    0    0    0    0  0.00000000000E+00  0.00000000000E+00  0.99999998245E-14  0.12500000000E+03  0.12500000000E+03 0.  0.
        -11    1    3    3    0    0  0.55338562525E+02 -0.14803766938E+02 -0.58637427478E+01  0.57583778073E+02  0.51100000000E-03 0.  1.
         23    2    1    0    0    0  0.18829293005E+02 -0.12615175239E+02 -0.17933359330E+02  0.96098610791E+02  0.91649619190E+02 0.  0.
         11    1    3    3    0    0 -0.36509269520E+02  0.21885916995E+01 -0.12069616582E+02  0.38514832717E+02  0.51100000000E-03 0. -1.
         22    1    1    0    0    0 -0.18829293005E+02  0.12615175239E+02  0.17933359330E+02  0.28901389209E+02  0.00000000000E+00 0.  1.
</event>
<event>
 5    1  0.8952932E-005  0.9118800E+02  0.7818608E-02  0.1130116E+00
         25   -1    0    0    0    0  0.00000000000E+00  0.00000000000E+00  0.99999998245E-14  0.12500000000E+03  0.12500000000E+03 0.  0.
        -11    1    3    3    0    0 -0.13286468597E+02  0.34316562927E+02  0.18505082494E+02  0.41189741651E+02  0.51100000000E-03 0.  1.
         23    2    1    0    0    0 -0.90854758915E+01 -0.64864464810E+00 -0.25714894023E+02  0.97719560365E+02  0.93834375851E+02 0.  0.
         11    1    3    3    0    0  0.42009927050E+01 -0.34965207575E+02 -0.44219976517E+02  0.56529818715E+02  0.51100000000E-03 0. -1.
         22    1    1    0    0    0  0.90854758915E+01  0.64864464810E+00  0.25714894023E+02  0.27280439635E+02  0.00000000000E+00 0. -1.
</event>
<event>
 5    1  0.8952932E-005  0.9118800E+02  0.7818608E-02  0.1130116E+00
         25   -1    0    0    0    0  0.00000000000E+00  0.00000000000E+00  0.99999998245E-14  0.12500000000E+03  0.12500000000E+03 0.  0.
        -11    1    3    3    0    0 -0.23925675787E+02  0.35456237529E+02  0.36191587817E+02  0.56030471804E+02  0.51100000000E-03 0. -1.
         23    2    1    0    0    0 -0.16414884564E+02  0.23241491732E+02 -0.16507486741E+01  0.96498415055E+02  0.92193295655E+02 0.  0.
         11    1    3    3    0    0  0.75107912236E+01 -0.12214745797E+02 -0.37842336491E+02  0.40467943252E+02  0.51100000000E-03 0.  1.
         22    1    1    0    0    0  0.16414884564E+02 -0.23241491732E+02  0.16507486741E+01  0.28501584945E+02  0.00000000000E+00 0.  1.
</event>
<event>
 4    1  0.8952932E-005  0.9118800E+02  0.7818608E-02  0.1130116E+00
         25   -1    0    0    0    0  0.00000000000E+00  0.00000000000E+00  0.99999998245E-14  0.12500000000E+03  0.12500000000E+03 0.  0.
        -11    1    1    0    0    0 -0.31656668572E+02 -0.41640966157E+02  0.13324953421E+02  0.53978413385E+02  0.51100000000E-03 0.  1.
         11    1    1    0    0    0  0.14022494185E+01 -0.54461028895E+00  0.12812146911E+02  0.12900155523E+02  0.51100000000E-03 0. -1.
         22    1    1    0    0    0  0.30254419154E+02  0.42185576446E+02 -0.26137100332E+02  0.58121431092E+02  0.00000000000E+00 0.  1.
</event>
<event>
 5    1  0.8952932E-005  0.9118800E+02  0.7818608E-02  0.1130116E+00
         25   -1    0    0    0    0  0.00000000000E+00  0.00000000000E+00  0.99999998245E-14  0.12500000000E+03  0.12500000000E+03 0.  0.
        -11    1    3    3    0    0  0.57342261302E+02 -0.23051570417E+02 -0.80817924053E+01  0.62328365924E+02  0.51100000000E-03 0. -1.
         23    2    1    0    0    0  0.26142533495E+02 -0.13963423387E+02 -0.45186605461E+01  0.95019547313E+02  0.90165885058E+02 0.  0.
         11    1    3    3    0    0 -0.31199727808E+02  0.90881470308E+01  0.35631318592E+01  0.32691181389E+02  0.51100000000E-03 0.  1.
         22    1    1    0    0    0 -0.26142533495E+02  0.13963423387E+02  0.45186605461E+01  0.29980452687E+02  0.00000000000E+00 0. -1.
</event>
<event>
 5    1  0.8952932E-005  0.9118800E+02  0.7818608E-02  0.1130116E+00
         25   -1    0    0    0    0  0.00000000000E+00  0.00000000000E+00  0.99999998245E-14  0.12500000000E+03  0.12500000000E+03 0.  0.
        -11    1    3    3    0    0  0.63683593634E+01 -0.48958698829E+02  0.15140041209E+02  0.51640401239E+02  0.51100000000E-03 0.  1.
         23    2    1    0    0    0  0.80431774283E+01 -0.19902027266E+02 -0.18880738944E+02  0.96412140767E+02  0.92076246621E+02 0.  0.
         11    1    3    3    0    0  0.16748180649E+01  0.29056671564E+02 -0.34020780153E+02  0.44771739528E+02  0.51100000000E-03 0. -1.
         22    1    1    0    0    0 -0.80431774283E+01  0.19902027266E+02  0.18880738944E+02  0.28587859233E+02  0.00000000000E+00 0. -1.
</event>
<event>
 5    1  0.8952932E-005  0.9118800E+02  0.7818608E-02  0.1130116E+00
         25   -1    0    0    0    0  0.00000000000E+00  0.00000000000E+00  0.99999998245E-14  0.12500000000E+03  0.12500000000E+03 0.  0.
        -11    1    3    3    0    0 -0.50000729511E+02  0.12533152455E+02 -0.32683518274E+02  0.61035770079E+02  0.51100000000E-03 0. -1.
         23    2    1    0    0    0 -0.25735110723E+02 -0.27306696392E+01 -0.11500728112E+02  0.96680056008E+02  0.92439244924E+02 0.  0.
         11    1    3    3    0    0  0.24265618788E+02 -0.15263822095E+02  0.21182790162E+02  0.35644285929E+02  0.51100000000E-03 0.  1.
         22    1    1    0    0    0  0.25735110723E+02  0.27306696392E+01  0.11500728112E+02  0.28319943992E+02  0.00000000000E+00 0. -1.
</event>
<event>
 5    1  0.8952932E-005  0.9118800E+02  0.7818608E-02  0.1130116E+00
         25   -1    0    0    0    0  0.00000000000E+00  0.00000000000E+00  0.99999998245E-14  0.12500000000E+03  0.12500000000E+03 0.  0.
        -11    1    3    3    0    0 -0.54956631344E+02 -0.19378977324E+02 -0.78953719905E+01  0.58805722425E+02  0.51100000000E-03 0. -1.
         23    2    1    0    0    0 -0.28767948628E+02  0.44680963148E+01  0.26638287268E+01  0.95765521444E+02  0.91194190391E+02 0.  0.
         11    1    3    3    0    0  0.26188682715E+02  0.23847073639E+02  0.10559200717E+02  0.36959799019E+02  0.51100000000E-03 0.  1.
         22    1    1    0    0    0  0.28767948628E+02 -0.44680963148E+01 -0.26638287268E+01  0.29234478556E+02  0.00000000000E+00 0. -1.
</event>
<event>
 5    1  0.8952932E-005  0.9118800E+02  0.7818608E-02  0.1130116E+00
         25   -1    0    0    0    0  0.00000000000E+00  0.00000000000E+00  0.99999998245E-14  0.12500000000E+03  0.12500000000E+03 0.  0.
        -11    1    3    3    0    0 -0.30309263362E+02 -0.37084278615E+02 -0.30093840077E+02  0.56564426779E+02  0.51100000000E-03 0. -1.
         23    2    1    0    0    0 -0.29620325339E+01 -0.97887335644E+01 -0.27922300497E+02  0.95263695479E+02  0.90503722961E+02 0.  0.
         11    1    3    3    0    0  0.27347230828E+02  0.27295545050E+02  0.21715395807E+01  0.38699268701E+02  0.51100000000E-03 0.  1.
         22    1    1    0    0    0  0.29620325339E+01  0.97887335644E+01  0.27922300497E+02  0.29736304521E+02  0.00000000000E+00 0. -1.
</event>
<event>
 5    1  0.8952932E-005  0.9118800E+02  0.7818608E-02  0.1130116E+00
         25   -1    0    0    0    0  0.00000000000E+00  0.00000000000E+00  0.99999998245E-14  0.12500000000E+03  0.12500000000E+03 0.  0.
        -11    1    3    3    0    0  0.24193454838E+02  0.19946369497E+02  0.19194280370E+02  0.36764130784E+02  0.51100000000E-03 0.  1.
         23    2    1    0    0    0 -0.20189357706E+02  0.66033805265E+01 -0.18754362705E+02  0.96663787842E+02  0.92417243848E+02 0.  0.
         11    1    3    3    0    0 -0.44382812545E+02 -0.13342988971E+02 -0.37948643076E+02  0.59899657058E+02  0.51100000000E-03 0. -1.
         22    1    1    0    0    0  0.20189357706E+02 -0.66033805265E+01  0.18754362705E+02  0.28336212158E+02  0.00000000000E+00 0. -1.
</event>
<event>
 5    1  0.8952932E-005  0.9118800E+02  0.7818608E-02  0.1130116E+00
         25   -1    0    0    0    0  0.00000000000E+00  0.00000000000E+00  0.99999998245E-14  0.12500000000E+03  0.12500000000E+03 0.  0.
        -11    1    3    3    0    0  0.44034123362E+02  0.38678307276E+02 -0.17701920158E+02  0.61223961417E+02  0.51100000000E-03 0. -1.
         23    2    1    0    0    0  0.19073419550E+02  0.15425696804E+02 -0.16648203874E+02  0.95353581204E+02  0.90627784376E+02 0.  0.
         11    1    3    3    0    0 -0.24960703812E+02 -0.23252610472E+02  0.10537162845E+01  0.34129619787E+02  0.51100000000E-03 0.  1.
         22    1    1    0    0    0 -0.19073419550E+02 -0.15425696804E+02  0.16648203874E+02  0.29646418796E+02  0.00000000000E+00 0. -1.
</event>
<event>
 5    1  0.8952932E-005  0.9118800E+02  0.7818608E-02  0.1130116E+00
         25   -1    0    0    0    0  0.00000000000E+00  0.00000000000E+00  0.99999998245E-14  0.12500000000E+03  0.12500000000E+03 0.  0.
        -11    1    3    3    0    0  0.13134675929E+02 -0.28449810206E+02  0.43887803389E+02  0.53926345130E+02  0.51100000000E-03 0.  1.
         23    2    1    0    0    0  0.11250669971E+02 -0.21336930484E+02 -0.23669835684E+01  0.10076273967E+03  0.97804319519E+02 0.  0.
         11    1    3    3    0    0 -0.18840059588E+01  0.71128797213E+01 -0.46254786958E+02  0.46836394536E+02  0.51100000000E-03 0. -1.
         22    1    1    0    0    0 -0.11250669971E+02  0.21336930484E+02  0.23669835684E+01  0.24237260334E+02  0.00000000000E+00 0.  1.
</event>
<event>
 5    1  0.8952932E-005  0.9118800E+02  0.7818608E-02  0.1130116E+00
         25   -1    0    0    0    0  0.00000000000E+00  0.00000000000E+00  0.99999998245E-14  0.12500000000E+03  0.12500000000E+03 0.  0.
        -11    1    3    3    0    0  0.37290461077E+02 -0.41767287968E+02  0.18643962121E+02  0.59014253832E+02  0.51100000000E-03 0.  1.
         23    2    1    0    0    0  0.99089097260E+01 -0.28242310680E+02 -0.51362178809E+00  0.95065431157E+02  0.90229472952E+02 0.  0.
         11    1    3    3    0    0 -0.27381551351E+02  0.13524977289E+02 -0.19157583909E+02  0.36051177325E+02  0.51100000000E-03 0. -1.
         22    1    1    0    0    0 -0.99089097260E+01  0.28242310680E+02  0.51362178809E+00  0.29934568843E+02  0.00000000000E+00 0.  1.
</event>
<event>
 5    1  0.8952932E-005  0.9118800E+02  0.7818608E-02  0.1130116E+00
         25   -1    0    0    0    0  0.00000000000E+00  0.00000000000E+00  0.99999998245E-14  0.12500000000E+03  0.12500000000E+03 0.  0.
        -11    1    3    3    0    0 -0.12572536021E+02 -0.14037296275E+02  0.27835975270E+02  0.33614816200E+02  0.51100000000E-03 0.  1.
         23    2    1    0    0    0  0.10673854267E+02  0.23823751182E+02 -0.14630500845E+02  0.95074194409E+02  0.90241612365E+02 0.  0.
         11    1    3    3    0    0  0.23246390289E+02  0.37861047457E+02 -0.42466476114E+02  0.61459378209E+02  0.51100000000E-03 0. -1.
         22    1    1    0    0    0 -0.10673854267E+02 -0.23823751182E+02  0.14630500845E+02  0.29925805591E+02  0.00000000000E+00 0. -1.
</event>
<event>
 5    1  0.8952932E-005  0.9118800E+02  0.7818608E-02  0.1130116E+00
         25   -1    0    0    0    0  0.00000000000E+00  0.00000000000E+00  0.99999998245E-14  0.12500000000E+03  0.12500000000E+03 0.  0.
        -11    1    3    3    0    0  0.45379644031E+02  0.35857695331E+02  0.11846241048E+02  0.59037444339E+02  0.51100000000E-03 0.  1.
         23    2    1    0    0    0  0.10226505381E+02  0.21135195640E+02  0.14770559706E+02  0.97261086159E+02  0.93221625924E+02 0.  0.
         11    1    3    3    0    0 -0.35153138651E+02 -0.14722499691E+02  0.29243186580E+01  0.38223641821E+02  0.51100000000E-03 0. -1.
         22    1    1    0    0    0 -0.10226505381E+02 -0.21135195640E+02 -0.14770559706E+02  0.27738913841E+02  0.00000000000E+00 0.  1.
</event>
<event>
 5    1  0.8952932E-005  0.9118800E+02  0.7818608E-02  0.1130116E+00
         25   -1    0    0    0    0  0.00000000000E+00  0.00000000000E+00  0.99999998245E-14  0.12500000000E+03  0.12500000000E+03 0.  0.
        -11    1    3    3    0    0 -0.28340811863E+02  0.45345532840E+02 -0.27600954802E+02  0.60176670495E+02  0.51100000000E-03 0. -1.
         23    2    1    0    0    0 -0.12611740729E+02  0.26441817433E+02 -0.20600414402E+01  0.95632169230E+02  0.91011220778E+02 0.  0.
         11    1    3    3    0    0  0.15729071134E+02 -0.18903715407E+02  0.25540913362E+02  0.35455498735E+02  0.51100000000E-03 0.  1.
         22    1    1    0    0    0  0.12611740729E+02 -0.26441817433E+02  0.20600414402E+01  0.29367830770E+02  0.00000000000E+00 0. -1.
</event>
<event>
 5    1  0.8952932E-005  0.9118800E+02  0.7818608E-02  0.1130116E+00
         25   -1    0    0    0    0  0.00000000000E+00  0.00000000000E+00  0.99999998245E-14  0.12500000000E+03  0.12500000000E+03 0.  0.
        -11    1    3    3    0    0 -0.13219972792E+02  0.85827817022E+01  0.59764800929E+02  0.61808278189E+02  0.51100000000E-03 0. -1.
         23    2    1    0    0    0 -0.10352462830E+02  0.83592528718E+01  0.25108926956E+02  0.96583300542E+02  0.92308315636E+02 0.  0.
         11    1    3    3    0    0  0.28675099615E+01 -0.22352883044E+00 -0.34655873973E+02  0.34775022353E+02  0.51100000000E-03 0.  1.
         22    1    1    0    0    0  0.10352462830E+02 -0.83592528718E+01 -0.25108926956E+02  0.28416699458E+02  0.00000000000E+00 0. -1.
</event>
<event>
 5    1  0.8952932E-005  0.9118800E+02  0.7818608E-02  0.1130116E+00
         25   -1    0    0    0    0  0.00000000000E+00  0.00000000000E+00  0.99999998245E-14  0.12500000000E+03  0.12500000000E+03 0.  0.
        -11    1    3    3    0    0  0.53701754846E+02 -0.21435473712E+02 -0.89335113787E+01  0.58507825397E+02  0.51100000000E-03 0.  1.
         23    2    1    0    0    0  0.29621798755E+02  0.50973461907E+01 -0.42985230850E+01  0.94637009363E+02  0.89633990990E+02 0.  0.
         11    1    3    3    0    0 -0.24079956091E+02  0.26532819903E+02  0.46349882937E+01  0.36129183967E+02  0.51100000000E-03 0. -1.
         22    1    1    0    0    0 -0.29621798755E+02 -0.50973461907E+01  0.42985230850E+01  0.30362990637E+02  0.00000000000E+00 0.  1.
</event>
<event>
 5    1  0.8952932E-005  0.9118800E+02  0.7818608E-02  0.1130116E+00
         25   -1    0    0    0    0  0.00000000000E+00  0.00000000000E+00  0.99999998245E-14  0.12500000000E+03  0.12500000000E+03 0.  0.
        -11    1    3    3    0    0 -0.14715059758E+02  0.28236353498E+01  0.32063249537E+02  0.35391494337E+02  0.51100000000E-03 0. -1.
         23    2    1    0    0    0 -0.53165058522E+01  0.12785337490E+02 -0.26266366874E+02  0.95307372666E+02  0.90564027994E+02 0.  0.
         11    1    3    3    0    0  0.93985539058E+01  0.99617021406E+01 -0.58329616411E+02  0.59915878329E+02  0.51100000000E-03 0.  1.
         22    1    1    0    0    0  0.53165058522E+01 -0.12785337490E+02  0.26266366874E+02  0.29692627334E+02  0.00000000000E+00 0.  1.
</event>
<event>
 5    1  0.8952932E-005  0.9118800E+02  0.7818608E-02  0.1130116E+00
         25   -1    0    0    0    0  0.00000000000E+00  0.00000000000E+00  0.99999998245E-14  0.12500000000E+03  0.12500000000E+03 0.  0.
        -11    1    3    3    0    0 -0.15652806628E+01  0.33048653900E+02 -0.18538629158E+02  0.37925511196E+02  0.51100000000E-03 0.  1.
         23    2    1    0    0    0  0.22433604253E+02 -0.10874645371E+02  0.12796619927E+02  0.96977187984E+02  0.92840169086E+02 0.  0.
         11    1    3    3    0    0  0.23998884916E+02 -0.43923299271E+02  0.31335249084E+02  0.59051676788E+02  0.51100000000E-03 0. -1.
         22    1    1    0    0    0 -0.22433604253E+02  0.10874645371E+02 -0.12796619927E+02  0.28022812016E+02  0.00000000000E+00 0. -1.
</event>
<event>
 5    1  0.8952932E-005  0.9118800E+02  0.7818608E-02  0.1130116E+00
         25   -1    0    0    0    0  0.00000000000E+00  0.00000000000E+00  0.99999998245E-14  0.12500000000E+03  0.12500000000E+03 0.  0.
        -11    1    3    3    0    0  0.52064775841E+02  0.14386783289E+01 -0.11771549085E+02  0.53398315018E+02  0.51100000000E-03 0.  1.
         23    2    1    0    0    0  0.23717590530E+02 -0.11623989921E+02  0.15092418688E+02  0.94579244847E+02  0.89553398661E+02 0.  0.
         11    1    3    3    0    0 -0.28347185310E+02 -0.13062668250E+02  0.26863967773E+02  0.41180929829E+02  0.51100000000E-03 0. -1.
         22    1    1    0    0    0 -0.23717590530E+02  0.11623989921E+02 -0.15092418688E+02  0.30420755153E+02  0.00000000000E+00 0.  1.
</event>
<event>
 4    1  0.8952932E-005  0.9118800E+02  0.7818608E-02  0.1130116E+00
         25   -1    0    0    0    0  0.00000000000E+00  0.00000000000E+00  0.99999998245E-14  0.12500000000E+03  0.12500000000E+03 0.  0.
        -11    1    1    0    0    0 -0.29247700401E+02  0.17883561038E+02  0.40005629464E+02  0.52684913621E+02  0.51100000000E-03 0. -1.
         11    1    1    0    0    0  0.70817098822E+01 -0.92099643628E+01  0.11018627988E+02  0.16012002418E+02  0.51100000000E-03 0.  1.
         22    1    1    0    0    0  0.22165990519E+02 -0.86735966749E+01 -0.51024257453E+02  0.56303083961E+02  0.00000000000E+00 0. -1.
</event>
<event>
 5    1  0.8952932E-005  0.9118800E+02  0.7818608E-02  0.1130116E+00
         25   -1    0    0    0    0  0.00000000000E+00  0.00000000000E+00  0.99999998245E-14  0.12500000000E+03  0.12500000000E+03 0.  0.
        -11    1    3    3    0    0 -0.28272926826E+02  0.19636931713E+02  0.45328068814E+01  0.34720510032E+02  0.51100000000E-03 0.  1.
         23    2    1    0    0    0  0.28503587725E+02 -0.11768946031E+01  0.82415370047E+01  0.95305513537E+02  0.90561461916E+02 0.  0.
         11    1    3    3    0    0  0.56776514550E+02 -0.20813826316E+02  0.37087301233E+01  0.60585003506E+02  0.51100000000E-03 0. -1.
         22    1    1    0    0    0 -0.28503587725E+02  0.11768946031E+01 -0.82415370047E+01  0.29694486463E+02  0.00000000000E+00 0. -1.
</event>
<event>
 5    1  0.8952932E-005  0.9118800E+02  0.7818608E-02  0.1130116E+00
         25   -1    0    0    0    0  0.00000000000E+00  0.00000000000E+00  0.99999998245E-14  0.12500000000E+03  0.12500000000E+03 0.  0.
        -11    1    3    3    0    0  0.21229480705E+02 -0.39983995685E+02 -0.33326427853E+02  0.56214424800E+02  0.51100000000E-03 0. -1.
         23    2    1    0    0    0 -0.74129836815E+01 -0.26741715522E+02 -0.98174264494E+01  0.95564417141E+02  0.90918118576E+02 0.  0.
         11    1    3    3    0    0 -0.28642464386E+02  0.13242280163E+02  0.23509001403E+02  0.39349992341E+02  0.51100000000E-03 0.  1.
         22    1    1    0    0    0  0.74129836815E+01  0.26741715522E+02  0.98174264494E+01  0.29435582859E+02  0.00000000000E+00 0. -1.
</event>
<event>
 5    1  0.8952932E-005  0.9118800E+02  0.7818608E-02  0.1130116E+00
         25   -1    0    0    0    0  0.00000000000E+00  0.00000000000E+00  0.99999998245E-14  0.12500000000E+03  0.12500000000E+03 0.  0.
        -11    1    3    3    0    0 -0.31723761021E+02  0.16216200848E+02 -0.13696607303E+02  0.38170135383E+02  0.51100000000E-03 0.  1.
         23    2    1    0    0    0  0.20235697256E+02  0.19518968226E+02  0.97115823147E+01  0.95254607162E+02  0.90491169682E+02 0.  0.
         11    1    3    3    0    0  0.51959458277E+02  0.33027673787E+01  0.23408189618E+02  0.57084471779E+02  0.51100000000E-03 0. -1.
         22    1    1    0    0    0 -0.20235697256E+02 -0.19518968226E+02 -0.97115823147E+01  0.29745392838E+02  0.00000000000E+00 0. -1.
</event>
<event>
 4    1  0.8952932E-005  0.9118800E+02  0.7818608E-02  0.1130116E+00
         25   -1    0    0    0    0  0.00000000000E+00  0.00000000000E+00  0.99999998245E-14  0.12500000000E+03  0.12500000000E+03 0.  0.
        -11    1    1    0    0    0  0.83274374370E+01  0.15177039376E+02 -0.11292510723E+02  0.20669047805E+02  0.51100000000E-03 0.  1.
         11    1    1    0    0    0 -0.49175277503E+02 -0.91094647730E+01 -0.18592103153E+02  0.53355942179E+02  0.51100000000E-03 0. -1.
         22    1    1    0    0    0  0.40847840066E+02 -0.60675746027E+01  0.29884613875E+02  0.50975010016E+02  0.00000000000E+00 0. -1.
</event>
<event>
 5    1  0.8952932E-005  0.9118800E+02  0.7818608E-02  0.1130116E+00
         25   -1    0    0    0    0  0.00000000000E+00  0.00000000000E+00  0.99999998245E-14  0.12500000000E+03  0.12500000000E+03 0.  0.
        -11    1    3    3    0    0  0.28121668578E+02  0.19611796443E+02  0.18919608752E+02  0.39158682293E+02  0.51100000000E-03 0.  1.
         23    2    1    0    0    0  0.64364531439E+01 -0.28245101704E+02 -0.25544528081E+01  0.95918409114E+02  0.91403513491E+02 0.  0.
         11    1    3    3    0    0 -0.21685215434E+02 -0.47856898147E+02 -0.21474061560E+02  0.56759726821E+02  0.51100000000E-03 0. -1.
         22    1    1    0    0    0 -0.64364531439E+01  0.28245101704E+02  0.25544528081E+01  0.29081590886E+02  0.00000000000E+00 0. -1.
</event>
<event>
 5    1  0.8952932E-005  0.9118800E+02  0.7818608E-02  0.1130116E+00
         25   -1    0    0    0    0  0.00000000000E+00  0.00000000000E+00  0.99999998245E-14  0.12500000000E+03  0.12500000000E+03 0.  0.
        -11    1    3    3    0    0 -0.43673088329E+02 -0.31560752623E+02 -0.28678140422E+02  0.61039786113E+02  0.51100000000E-03 0.  1.
         23    2    1    0    0    0 -0.24159311443E+02 -0.61536199428E+01 -0.15240272919E+02  0.95780053278E+02  0.91214107020E+02 0.  0.
         11    1    3    3    0    0  0.19513776887E+02  0.25407132680E+02  0.13437867503E+02  0.34740267165E+02  0.51100000000E-03 0. -1.
         22    1    1    0    0    0  0.24159311443E+02  0.61536199428E+01  0.15240272919E+02  0.29219946722E+02  0.00000000000E+00 0.  1.
</event>
<event>
 5    1  0.8952932E-005  0.9118800E+02  0.7818608E-02  0.1130116E+00
         25   -1    0    0    0    0  0.00000000000E+00  0.00000000000E+00  0.99999998245E-14  0.12500000000E+03  0.12500000000E+03 0.  0.
        -11    1    3    3    0    0  0.49598653843E+02  0.97013482168E+01 -0.28768556690E+02  0.58153009162E+02  0.51100000000E-03 0. -1.
         23    2    1    0    0    0  0.11251351042E+02  0.17883967235E+02 -0.10178192024E+02  0.10154739295E+03  0.98802065964E+02 0.  0.
         11    1    3    3    0    0 -0.38347302801E+02  0.81826190184E+01  0.18590364666E+02  0.43394383793E+02  0.51100000000E-03 0.  1.
         22    1    1    0    0    0 -0.11251351042E+02 -0.17883967235E+02  0.10178192024E+02  0.23452607045E+02  0.00000000000E+00 0. -1.
</event>
<event>
 5    1  0.8952932E-005  0.9118800E+02  0.7818608E-02  0.1130116E+00
         25   -1    0    0    0    0  0.00000000000E+00  0.00000000000E+00  0.99999998245E-14  0.12500000000E+03  0.12500000000E+03 0.  0.
        -11    1    3    3    0    0  0.56074116515E+01 -0.19288131060E+02  0.46378005009E+02  0.50541017145E+02  0.51100000000E-03 0.  1.
         23    2    1    0    0    0  0.22395870324E+02  0.96836105488E+01  0.23717180648E+02  0.90972775918E+02  0.84369390062E+02 0.  0.
         11    1    3    3    0    0  0.16788458673E+02  0.28971741609E+02 -0.22660824361E+02  0.40431758772E+02  0.51100000000E-03 0. -1.
         22    1    1    0    0    0 -0.22395870324E+02 -0.96836105488E+01 -0.23717180648E+02  0.34027224082E+02  0.00000000000E+00 0.  1.
</event>
<event>
 5    1  0.8952932E-005  0.9118800E+02  0.7818608E-02  0.1130116E+00
         25   -1    0    0    0    0  0.00000000000E+00  0.00000000000E+00  0.99999998245E-14  0.12500000000E+03  0.12500000000E+03 0.  0.
        -11    1    3    3    0    0 -0.33891832000E+02  0.10564741384E+01 -0.73319054258E+01  0.34691919108E+02  0.51100000000E-03 0.  1.
         23    2    1    0    0    0 -0.77681031160E+01  0.41287727586E+02 -0.45679856044E+01  0.82740251210E+02  0.71134118415E+02 0.  0.
         11    1    3    3    0    0  0.26123728884E+02  0.40231253448E+02  0.27639198214E+01  0.48048332103E+02  0.51100000000E-03 0. -1.
         22    1    1    0    0    0  0.77681031160E+01 -0.41287727586E+02  0.45679856044E+01  0.42259748790E+02  0.00000000000E+00 0. -1.
</event>
<event>
 5    1  0.8952932E-005  0.9118800E+02  0.7818608E-02  0.1130116E+00
         25   -1    0    0    0    0  0.00000000000E+00  0.00000000000E+00  0.99999998245E-14  0.12500000000E+03  0.12500000000E+03 0.  0.
        -11    1    3    3    0    0  0.24824640126E+02  0.50358439083E+02  0.21992999762E+02  0.60298649927E+02  0.51100000000E-03 0.  1.
         23    2    1    0    0    0  0.19737568420E+02  0.15930685196E+02  0.14084146258E+02  0.95987562774E+02  0.91498036556E+02 0.  0.
         11    1    3    3    0    0 -0.50870717056E+01 -0.34427753887E+02 -0.79088535041E+01  0.35688912847E+02  0.51100000000E-03 0. -1.
         22    1    1    0    0    0 -0.19737568420E+02 -0.15930685196E+02 -0.14084146258E+02  0.29012437226E+02  0.00000000000E+00 0.  1.
</event>
<event>
 5    1  0.8952932E-005  0.9118800E+02  0.7818608E-02  0.1130116E+00
         25   -1    0    0    0    0  0.00000000000E+00  0.00000000000E+00  0.99999998245E-14  0.12500000000E+03  0.12500000000E+03 0.  0.
        -11    1    3    3    0    0 -0.23481656895E+02 -0.11833508049E+02 -0.33752869737E+02  0.42786403671E+02  0.51100000000E-03 0.  1.
         23    2    1    0    0    0  0.25100599627E+02 -0.59829404467E+01 -0.86354231530E+01  0.97789593699E+02  0.93927623331E+02 0.  0.
         11    1    3    3    0    0  0.48582256523E+02  0.58505676024E+01  0.25117446584E+02  0.55003190028E+02  0.51100000000E-03 0. -1.
         22    1    1    0    0    0 -0.25100599627E+02  0.59829404467E+01  0.86354231530E+01  0.27210406301E+02  0.00000000000E+00 0. -1.
</event>
<event>
 5    1  0.8952932E-005  0.9118800E+02  0.7818608E-02  0.1130116E+00
         25   -1    0    0    0    0  0.00000000000E+00  0.00000000000E+00  0.99999998245E-14  0.12500000000E+03  0.12500000000E+03 0.  0.
        -11    1    3    3    0    0  0.17006812725E+02  0.27260620422E+02  0.19242077137E+02  0.37451710744E+02  0.51100000000E-03 0. -1.
         23    2    1    0    0    0  0.37373528115E+01 -0.97001061416E+01 -0.25785306150E+02  0.97198167714E+02  0.93137220962E+02 0.  0.
         11    1    3    3    0    0 -0.13269459914E+02 -0.36960726564E+02 -0.45027383287E+02  0.59746456970E+02  0.51100000000E-03 0.  1.
         22    1    1    0    0    0 -0.37373528115E+01  0.97001061416E+01  0.25785306150E+02  0.27801832286E+02  0.00000000000E+00 0.  1.
</event>
<event>
 5    1  0.8952932E-005  0.9118800E+02  0.7818608E-02  0.1130116E+00
         25   -1    0    0    0    0  0.00000000000E+00  0.00000000000E+00  0.99999998245E-14  0.12500000000E+03  0.12500000000E+03 0.  0.
        -11    1    3    3    0    0  0.33466471990E+01  0.46705627661E+02 -0.16460755701E+02  0.49634385069E+02  0.51100000000E-03 0. -1.
         23    2    1    0    0    0 -0.22995046120E+02  0.16495755089E+02  0.66884101065E+01  0.95920507024E+02  0.91406382468E+02 0.  0.
         11    1    3    3    0    0 -0.26341693319E+02 -0.30209872572E+02  0.23149165807E+02  0.46286121954E+02  0.51100000000E-03 0.  1.
         22    1    1    0    0    0  0.22995046120E+02 -0.16495755089E+02 -0.66884101065E+01  0.29079492976E+02  0.00000000000E+00 0. -1.
</event>
<event>
 5    1  0.8952932E-005  0.9118800E+02  0.7818608E-02  0.1130116E+00
         25   -1    0    0    0    0  0.00000000000E+00  0.00000000000E+00  0.99999998245E-14  0.12500000000E+03  0.12500000000E+03 0.  0.
        -11    1    3    3    0    0  0.28785747964E+02 -0.14228169668E+02 -0.51192096875E+02  0.60429222076E+02  0.51100000000E-03 0.  1.
         23    2    1    0    0    0  0.33271430193E+01 -0.31783555239E+01 -0.28079121599E+02  0.96546372915E+02  0.92258296260E+02 0.  0.
         11    1    3    3    0    0 -0.25458604945E+02  0.11049814144E+02  0.23112975276E+02  0.36117150839E+02  0.51100000000E-03 0. -1.
         22    1    1    0    0    0 -0.33271430193E+01  0.31783555239E+01  0.28079121599E+02  0.28453627085E+02  0.00000000000E+00 0.  1.
</event>
<event>
 5    1  0.8952932E-005  0.9118800E+02  0.7818608E-02  0.1130116E+00
         25   -1    0    0    0    0  0.00000000000E+00  0.00000000000E+00  0.99999998245E-14  0.12500000000E+03  0.12500000000E+03 0.  0.
        -11    1    3    3    0    0  0.49480609626E+02  0.12429259308E+02 -0.20726858875E+01  0.51059898579E+02  0.51100000000E-03 0. -1.
         23    2    1    0    0    0  0.11585663216E+02  0.29917464593E+02  0.93666414430E+00  0.92903900244E+02  0.87183571050E+02 0.  0.
         11    1    3    3    0    0 -0.37894946409E+02  0.17488205285E+02  0.30093500318E+01  0.41844001665E+02  0.51100000000E-03 0.  1.
         22    1    1    0    0    0 -0.11585663216E+02 -0.29917464593E+02 -0.93666414430E+00  0.32096099756E+02  0.00000000000E+00 0. -1.
</event>
<event>
 5    1  0.8952932E-005  0.9118800E+02  0.7818608E-02  0.1130116E+00
         25   -1    0    0    0    0  0.00000000000E+00  0.00000000000E+00  0.99999998245E-14  0.12500000000E+03  0.12500000000E+03 0.  0.
        -11    1    3    3    0    0 -0.30677130206E+02 -0.51318324169E+02 -0.13503535622E+02  0.61294389529E+02  0.51100000000E-03 0.  1.
         23    2    1    0    0    0 -0.21367677494E+02 -0.19622119445E+02 -0.36927195860E+01  0.95755489559E+02  0.91180438635E+02 0.  0.
         11    1    3    3    0    0  0.93094527119E+01  0.31696204724E+02  0.98108160363E+01  0.34461100029E+02  0.51100000000E-03 0. -1.
         22    1    1    0    0    0  0.21367677494E+02  0.19622119445E+02  0.36927195860E+01  0.29244510441E+02  0.00000000000E+00 0.  1.
</event>
<event>
 5    1  0.8952932E-005  0.9118800E+02  0.7818608E-02  0.1130116E+00
         25   -1    0    0    0    0  0.00000000000E+00  0.00000000000E+00  0.99999998245E-14  0.12500000000E+03  0.12500000000E+03 0.  0.
        -11    1    3    3    0    0 -0.83672129960E+01 -0.58654869517E+01  0.53852201553E+02  0.54813080582E+02  0.51100000000E-03 0.  1.
         23    2    1    0    0    0 -0.97360030721E+01 -0.22188900726E+02  0.16260239323E+02  0.95818970990E+02  0.91267424349E+02 0.  0.
         11    1    3    3    0    0 -0.13687900761E+01 -0.16323413775E+02 -0.37591962230E+02  0.41005890408E+02  0.51100000000E-03 0. -1.
         22    1    1    0    0    0  0.97360030721E+01  0.22188900726E+02 -0.16260239323E+02  0.29181029010E+02  0.00000000000E+00 0.  1.
</event>
<event>
 5    1  0.8952932E-005  0.9118800E+02  0.7818608E-02  0.1130116E+00
         25   -1    0    0    0    0  0.00000000000E+00  0.00000000000E+00  0.99999998245E-14  0.12500000000E+03  0.12500000000E+03 0.  0.
        -11    1    3    3    0    0  0.32643208425E+02  0.41543294544E+02 -0.20459872191E+02  0.56657133251E+02  0.51100000000E-03 0. -1.
         23    2    1    0    0    0  0.27687627251E+02  0.77276184374E+01 -0.47074887554E+00  0.96250349671E+02  0.91856341195E+02 0.  0.
         11    1    3    3    0    0 -0.49555811736E+01 -0.33815676107E+02  0.19989123315E+02  0.39593216420E+02  0.51100000000E-03 0.  1.
         22    1    1    0    0    0 -0.27687627251E+02 -0.77276184374E+01  0.47074887554E+00  0.28749650329E+02  0.00000000000E+00 0. -1.
</event>
<event>
 5    1  0.8952932E-005  0.9118800E+02  0.7818608E-02  0.1130116E+00
         25   -1    0    0    0    0  0.00000000000E+00  0.00000000000E+00  0.99999998245E-14  0.12500000000E+03  0.12500000000E+03 0.  0.
        -11    1    3    3    0    0 -0.34439936377E+02 -0.18954393545E+02 -0.14168361573E+02  0.41786609366E+02  0.51100000000E-03 0. -1.
         23    2    1    0    0    0  0.17774895492E+02 -0.20163398264E+02  0.54410144465E+01  0.97575299865E+02  0.93642004284E+02 0.  0.
         11    1    3    3    0    0  0.52214831869E+02 -0.12090047181E+01  0.19609376019E+02  0.55788690500E+02  0.51100000000E-03 0.  1.
         22    1    1    0    0    0 -0.17774895492E+02  0.20163398264E+02 -0.54410144465E+01  0.27424700135E+02  0.00000000000E+00 0.  1.
</event>
<event>
 5    1  0.8952932E-005  0.9118800E+02  0.7818608E-02  0.1130116E+00
         25   -1    0    0    0    0  0.00000000000E+00  0.00000000000E+00  0.99999998245E-14  0.12500000000E+03  0.12500000000E+03 0.  0.
        -11    1    3    3    0    0  0.22638324084E+02 -0.29589445171E+02  0.14828193893E+02  0.40098682238E+02  0.51100000000E-03 0.  1.
         23    2    1    0    0    0 -0.73539155357E+01 -0.11887107003E+02 -0.27041491631E+02  0.94559473456E+02  0.89525797199E+02 0.  0.
         11    1    3    3    0    0 -0.29992239620E+02  0.17702338168E+02 -0.41869685524E+02  0.54460791219E+02  0.51100000000E-03 0. -1.
         22    1    1    0    0    0  0.73539155357E+01  0.11887107003E+02  0.27041491631E+02  0.30440526544E+02  0.00000000000E+00 0. -1.
</event>
<event>
 5    1  0.8952932E-005  0.9118800E+02  0.7818608E-02  0.1130116E+00
         25   -1    0    0    0    0  0.00000000000E+00  0.00000000000E+00  0.99999998245E-14  0.12500000000E+03  0.12500000000E+03 0.  0.
        -11    1    3    3    0    0 -0.44334507803E+02  0.84650586228E+00  0.38518399690E+02  0.58736124057E+02  0.51100000000E-03 0. -1.
         23    2    1    0    0    0 -0.93223969891E+01 -0.38103023364E+01  0.27466607654E+02  0.95745256358E+02  0.91166408778E+02 0.  0.
         11    1    3    3    0    0  0.35012110814E+02 -0.46568081987E+01 -0.11051792036E+02  0.37009132301E+02  0.51100000000E-03 0.  1.
         22    1    1    0    0    0  0.93223969891E+01  0.38103023364E+01 -0.27466607654E+02  0.29254743642E+02  0.00000000000E+00 0. -1.
</event>
<event>
 5    1  0.8952932E-005  0.9118800E+02  0.7818608E-02  0.1130116E+00
         25   -1    0    0    0    0  0.00000000000E+00  0.00000000000E+00  0.99999998245E-14  0.12500000000E+03  0.12500000000E+03 0.  0.
        -11    1    3    3    0    0  0.46634349665E+02  0.30361918447E+02 -0.82616085228E+00  0.55653312592E+02  0.51100000000E-03 0.  1.
         23    2    1    0    0    0  0.25556294131E+02 -0.66838748491E+01  0.28334119707E+01  0.98432603137E+02  0.94779485039E+02 0.  0.
         11    1    3    3    0    0 -0.21078055534E+02 -0.37045793296E+02  0.36595728229E+01  0.42779290545E+02  0.51100000000E-03 0. -1.
         22    1    1    0    0    0 -0.25556294131E+02  0.66838748491E+01 -0.28334119707E+01  0.26567396863E+02  0.00000000000E+00 0.  1.
</event>
<event>
 5    1  0.8952932E-005  0.9118800E+02  0.7818608E-02  0.1130116E+00
         25   -1    0    0    0    0  0.00000000000E+00  0.00000000000E+00  0.99999998245E-14  0.12500000000E+03  0.12500000000E+03 0.  0.
        -11    1    3    3    0    0 -0.30780149439E+02  0.41546688594E+01 -0.36992167850E+02  0.48302167191E+02  0.51100000000E-03 0. -1.
         23    2    1    0    0    0 -0.12293633362E+01  0.27650326956E+02 -0.71817050891E+01  0.96405790744E+02  0.92067625613E+02 0.  0.
         11    1    3    3    0    0  0.29550786103E+02  0.23495658096E+02  0.29810462761E+02  0.48103623553E+02  0.51100000000E-03 0.  1.
         22    1    1    0    0    0  0.12293633362E+01 -0.27650326956E+02  0.71817050891E+01  0.28594209256E+02  0.00000000000E+00 0. -1.
</event>
<event>
 5    1  0.8952932E-005  0.9118800E+02  0.7818608E-02  0.1130116E+00
         25   -1    0    0    0    0  0.00000000000E+00  0.00000000000E+00  0.99999998245E-14  0.12500000000E+03  0.12500000000E+03 0.  0.
        -11    1    3    3    0    0  0.88266042131E+01  0.46048163665E+02 -0.20044446867E+02  0.50991393090E+02  0.51100000000E-03 0.  1.
         23    2    1    0    0    0 -0.10603186470E+02  0.31753326611E+02  0.10502741560E+02  0.89914263661E+02  0.82786266464E+02 0.  0.
         11    1    3    3    0    0 -0.19429790683E+02 -0.14294837053E+02  0.30547188427E+02  0.38922870570E+02  0.51100000000E-03 0. -1.
         22    1    1    0    0    0  0.10603186470E+02 -0.31753326611E+02 -0.10502741560E+02  0.35085736339E+02  0.00000000000E+00 0.  1.
</event>
<event>
 5    1  0.8952932E-005  0.9118800E+02  0.7818608E-02  0.1130116E+00
         25   -1    0    0    0    0  0.00000000000E+00  0.00000000000E+00  0.99999998245E-14  0.12500000000E+03  0.12500000000E+03 0.  0.
        -11    1    3    3    0    0 -0.39871286457E+02 -0.12856609931E+02 -0.22988651161E+02  0.47785876419E+02  0.51100000000E-03 0.  1.
         23    2    1    0    0    0 -0.15553543561E+02  0.20981283275E+02 -0.24088476648E+02  0.89469989130E+02  0.82112710847E+02 0.  0.
         11    1    3    3    0    0  0.24317742895E+02  0.33837893207E+02 -0.10998254866E+01  0.41684112712E+02  0.51100000000E-03 0. -1.
         22    1    1    0    0    0  0.15553543561E+02 -0.20981283275E+02  0.24088476648E+02  0.35530010870E+02  0.00000000000E+00 0.  1.
</event>
<event>
 5    1  0.8952932E-005  0.9118800E+02  0.7818608E-02  0.1130116E+00
         25   -1    0    0    0    0  0.00000000000E+00  0.00000000000E+00  0.99999998245E-14  0.12500000000E+03  0.12500000000E+03 0.  0.
        -11    1    3    3    0    0  0.37075455607E+01  0.85475577757E+01  0.45796809498E+02  0.46734937664E+02  0.51100000000E-03 0.  1.
         23    2    1    0    0    0  0.26370012982E+02  0.14090884728E+02  0.36883899543E+01  0.94874681121E+02  0.89964828017E+02 0.  0.
         11    1    3    3    0    0  0.22662467422E+02  0.55433269527E+01 -0.42108419544E+02  0.48139743457E+02  0.51100000000E-03 0. -1.
         22    1    1    0    0    0 -0.26370012982E+02 -0.14090884728E+02 -0.36883899543E+01  0.30125318879E+02  0.00000000000E+00 0. -1.
</event>
<event>
 5    1  0.8952932E-005  0.9118800E+02  0.7818608E-02  0.1130116E+00
         25   -1    0    0    0    0  0.00000000000E+00  0.00000000000E+00  0.99999998245E-14  0.12500000000E+03  0.12500000000E+03 0.  0.
        -11    1    3    3    0    0 -0.72531437344E+01 -0.59473167940E+02  0.17351020068E+02  0.62375665900E+02  0.51100000000E-03 0.  1.
         23    2    1    0    0    0 -0.34928970991E+01 -0.28054313613E+02  0.52957056931E+01  0.96237362061E+02  0.91838665687E+02 0.  0.
         11    1    3    3    0    0  0.37602466353E+01  0.31418854327E+02 -0.12055314375E+02  0.33861696161E+02  0.51100000000E-03 0. -1.
         22    1    1    0    0    0  0.34928970991E+01  0.28054313613E+02 -0.52957056931E+01  0.28762637939E+02  0.00000000000E+00 0.  1.
</event>
<event>
 5    1  0.8952932E-005  0.9118800E+02  0.7818608E-02  0.1130116E+00
         25   -1    0    0    0    0  0.00000000000E+00  0.00000000000E+00  0.99999998245E-14  0.12500000000E+03  0.12500000000E+03 0.  0.
        -11    1    3    3    0    0  0.11324202489E+02 -0.14392422142E+02  0.35670893966E+02  0.40097282373E+02  0.51100000000E-03 0.  1.
         23    2    1    0    0    0  0.28873419179E+02  0.21207410879E+02  0.85495968979E+01  0.88168977500E+02  0.80107704842E+02 0.  0.
         11    1    3    3    0    0  0.17549216689E+02  0.35599833021E+02 -0.27121297068E+02  0.48071695127E+02  0.51100000000E-03 0. -1.
         22    1    1    0    0    0 -0.28873419179E+02 -0.21207410879E+02 -0.85495968979E+01  0.36831022500E+02  0.00000000000E+00 0. -1.
</event>
<event>
 5    1  0.8952932E-005  0.9118800E+02  0.7818608E-02  0.1130116E+00
         25   -1    0    0    0    0  0.00000000000E+00  0.00000000000E+00  0.99999998245E-14  0.12500000000E+03  0.12500000000E+03 0.  0.
        -11    1    3    3    0    0  0.90253645651E+01 -0.18529777894E+02  0.39583856915E+02  0.44628372174E+02  0.51100000000E-03 0. -1.
         23    2    1    0    0    0 -0.31759371199E+01 -0.17235675030E+02 -0.15829415552E+02  0.10138378805E+03  0.98594863008E+02 0.  0.
         11    1    3    3    0    0 -0.12201301685E+02  0.12941028645E+01 -0.55413272468E+02  0.56755415872E+02  0.51100000000E-03 0.  1.
         22    1    1    0    0    0  0.31759371199E+01  0.17235675030E+02  0.15829415552E+02  0.23616211954E+02  0.00000000000E+00 0. -1.
</event>
<event>
 5    1  0.8952932E-005  0.9118800E+02  0.7818608E-02  0.1130116E+00
         25   -1    0    0    0    0  0.00000000000E+00  0.00000000000E+00  0.99999998245E-14  0.12500000000E+03  0.12500000000E+03 0.  0.
        -11    1    3    3    0    0 -0.95030214781E+01 -0.20722956838E+02 -0.26533581510E+02  0.34982557158E+02  0.51100000000E-03 0.  1.
         23    2    1    0    0    0 -0.80754076821E+01  0.13100116163E+02  0.24407202279E+02  0.96146286620E+02  0.91714620727E+02 0.  0.
         11    1    3    3    0    0  0.14276137960E+01  0.33823073001E+02  0.50940783789E+02  0.61163729462E+02  0.51100000000E-03 0. -1.
         22    1    1    0    0    0  0.80754076821E+01 -0.13100116163E+02 -0.24407202279E+02  0.28853713380E+02  0.00000000000E+00 0. -1.
</event>
<event>
 5    1  0.8952932E-005  0.9118800E+02  0.7818608E-02  0.1130116E+00
         25   -1    0    0    0    0  0.00000000000E+00  0.00000000000E+00  0.99999998245E-14  0.12500000000E+03  0.12500000000E+03 0.  0.
        -11    1    3    3    0    0  0.32164061956E+02 -0.18679073933E+02 -0.18646072778E+02  0.41606618642E+02  0.51100000000E-03 0.  1.
         23    2    1    0    0    0 -0.75927967279E+01  0.15941576288E+02 -0.24663798122E+02  0.94667058262E+02  0.89675886198E+02 0.  0.
         11    1    3    3    0    0 -0.39756858684E+02  0.34620650220E+02 -0.60177253439E+01  0.53060439620E+02  0.51100000000E-03 0. -1.
         22    1    1    0    0    0  0.75927967279E+01 -0.15941576288E+02  0.24663798122E+02  0.30332941738E+02  0.00000000000E+00 0.  1.
</event>
<event>
 5    1  0.8952932E-005  0.9118800E+02  0.7818608E-02  0.1130116E+00
         25   -1    0    0    0    0  0.00000000000E+00  0.00000000000E+00  0.99999998245E-14  0.12500000000E+03  0.12500000000E+03 0.  0.
        -11    1    3    3    0    0 -0.89912893478E+01 -0.18999875168E+01  0.37790358386E+02  0.38891701222E+02  0.51100000000E-03 0.  1.
         23    2    1    0    0    0 -0.12933136569E+02  0.17525191918E+02 -0.17136912022E+02  0.97285885781E+02  0.93254873574E+02 0.  0.
         11    1    3    3    0    0 -0.39418472216E+01  0.19425179434E+02 -0.54927270409E+02  0.58394184560E+02  0.51100000000E-03 0. -1.
         22    1    1    0    0    0  0.12933136569E+02 -0.17525191918E+02  0.17136912022E+02  0.27714114219E+02  0.00000000000E+00 0. -1.
</event>
<event>
 5    1  0.8952932E-005  0.9118800E+02  0.7818608E-02  0.1130116E+00
         25   -1    0    0    0    0  0.00000000000E+00  0.00000000000E+00  0.99999998245E-14  0.12500000000E+03  0.12500000000E+03 0.  0.
        -11    1    3    3    0    0 -0.19248155825E+02  0.17002803570E+02 -0.25362864228E+02  0.36095175772E+02  0.51100000000E-03 0.  1.
         23    2    1    0    0    0 -0.22360004485E+02 -0.28402886798E+02  0.12741564215E+01  0.88829331584E+02  0.81131577675E+02 0.  0.
         11    1    3    3    0    0 -0.31118486607E+01 -0.45405690368E+02  0.26637020650E+02  0.52734155812E+02  0.51100000000E-03 0. -1.
         22    1    1    0    0    0  0.22360004485E+02  0.28402886798E+02 -0.12741564215E+01  0.36170668416E+02  0.00000000000E+00 0. -1.
</event>
<event>
 5    1  0.8952932E-005  0.9118800E+02  0.7818608E-02  0.1130116E+00
         25   -1    0    0    0    0  0.00000000000E+00  0.00000000000E+00  0.99999998245E-14  0.12500000000E+03  0.12500000000E+03 0.  0.
        -11    1    3    3    0    0 -0.35555387814E+02 -0.73980384369E+01  0.31340286691E+02  0.47970096367E+02  0.51100000000E-03 0.  1.
         23    2    1    0    0    0  0.99630818856E+01 -0.15465986336E+02  0.23972954961E+02  0.94781424528E+02  0.89835160889E+02 0.  0.
         11    1    3    3    0    0  0.45518469699E+02 -0.80679478995E+01 -0.73673317298E+01  0.46811328161E+02  0.51100000000E-03 0. -1.
         22    1    1    0    0    0 -0.99630818856E+01  0.15465986336E+02 -0.23972954961E+02  0.30218575472E+02  0.00000000000E+00 0. -1.
</event>
<event>
 5    1  0.8952932E-005  0.9118800E+02  0.7818608E-02  0.1130116E+00
         25   -1    0    0    0    0  0.00000000000E+00  0.00000000000E+00  0.99999998245E-14  0.12500000000E+03  0.12500000000E+03 0.  0.
        -11    1    3    3    0    0 -0.60505963344E+01 -0.22473855062E+01 -0.56617340007E+02  0.56984064855E+02  0.51100000000E-03 0.  1.
         23    2    1    0    0    0  0.68013105311E+01 -0.16713801296E+02 -0.23083469824E+02  0.95700587756E+02  0.91105142220E+02 0.  0.
         11    1    3    3    0    0  0.12851906866E+02 -0.14466415790E+02  0.33533870183E+02  0.38716522901E+02  0.51100000000E-03 0. -1.
         22    1    1    0    0    0 -0.68013105311E+01  0.16713801296E+02  0.23083469824E+02  0.29299412244E+02  0.00000000000E+00 0. -1.
</event>
<event>
 5    1  0.8952932E-005  0.9118800E+02  0.7818608E-02  0.1130116E+00
         25   -1    0    0    0    0  0.00000000000E+00  0.00000000000E+00  0.99999998245E-14  0.12500000000E+03  0.12500000000E+03 0.  0.
        -11    1    3    3    0    0 -0.44203869355E+02  0.97371447131E+01  0.24739820699E+02  0.51583454534E+02  0.51100000000E-03 0.  1.
         23    2    1    0    0    0 -0.67118570219E+01  0.26920458895E+02  0.77031885527E+01  0.96205916481E+02  0.91795855682E+02 0.  0.
         11    1    3    3    0    0  0.37492012333E+02  0.17183314182E+02 -0.17036632147E+02  0.44622461947E+02  0.51100000000E-03 0. -1.
         22    1    1    0    0    0  0.67118570219E+01 -0.26920458895E+02 -0.77031885527E+01  0.28794083519E+02  0.00000000000E+00 0.  1.
</event>
<event>
 5    1  0.8952932E-005  0.9118800E+02  0.7818608E-02  0.1130116E+00
         25   -1    0    0    0    0  0.00000000000E+00  0.00000000000E+00  0.99999998245E-14  0.12500000000E+03  0.12500000000E+03 0.  0.
        -11    1    3    3    0    0  0.18195949688E+02 -0.43959856421E+02 -0.10474273569E+02  0.48716239270E+02  0.51100000000E-03 0.  1.
         23    2    1    0    0    0  0.24408892280E+02  0.33884907005E+01 -0.14100758368E+02  0.96607971574E+02  0.92341718056E+02 0.  0.
         11    1    3    3    0    0  0.62129425928E+01  0.47348347121E+02 -0.36264847995E+01  0.47891732304E+02  0.51100000000E-03 0. -1.
         22    1    1    0    0    0 -0.24408892280E+02 -0.33884907005E+01  0.14100758368E+02  0.28392028426E+02  0.00000000000E+00 0. -1.
</event>
<event>
 5    1  0.8952932E-005  0.9118800E+02  0.7818608E-02  0.1130116E+00
         25   -1    0    0    0    0  0.00000000000E+00  0.00000000000E+00  0.99999998245E-14  0.12500000000E+03  0.12500000000E+03 0.  0.
        -11    1    3    3    0    0 -0.21309081190E+02 -0.31932237558E+02  0.20261257910E+02  0.43408101882E+02  0.51100000000E-03 0.  1.
         23    2    1    0    0    0 -0.51196648202E+01 -0.14489098468E+02 -0.25637529593E+02  0.95109736269E+02  0.90290830471E+02 0.  0.
         11    1    3    3    0    0  0.16189416370E+02  0.17443139090E+02 -0.45898787503E+02  0.51701634387E+02  0.51100000000E-03 0. -1.
         22    1    1    0    0    0  0.51196648202E+01  0.14489098468E+02  0.25637529593E+02  0.29890263731E+02  0.00000000000E+00 0. -1.
</event>
<event>
 5    1  0.8952932E-005  0.9118800E+02  0.7818608E-02  0.1130116E+00
         25   -1    0    0    0    0  0.00000000000E+00  0.00000000000E+00  0.99999998245E-14  0.12500000000E+03  0.12500000000E+03 0.  0.
        -11    1    3    3    0    0 -0.24428768460E+02  0.47636463679E+02  0.16338910476E+02  0.55972827301E+02  0.51100000000E-03 0.  1.
         23    2    1    0    0    0 -0.22188179799E+02  0.16839867631E+02 -0.87978279008E+01  0.95788730935E+02  0.91225998124E+02 0.  0.
         11    1    3    3    0    0  0.22405886614E+01 -0.30796596047E+02 -0.25136738377E+02  0.39815903634E+02  0.51100000000E-03 0. -1.
         22    1    1    0    0    0  0.22188179799E+02 -0.16839867631E+02  0.87978279008E+01  0.29211269065E+02  0.00000000000E+00 0.  1.
</event>
<event>
 5    1  0.8952932E-005  0.9118800E+02  0.7818608E-02  0.1130116E+00
         25   -1    0    0    0    0  0.00000000000E+00  0.00000000000E+00  0.99999998245E-14  0.12500000000E+03  0.12500000000E+03 0.  0.
        -11    1    3    3    0    0 -0.51527696402E+02 -0.26761175685E+02  0.10006543281E+02  0.58918544867E+02  0.51100000000E-03 0.  1.
         23    2    1    0    0    0 -0.15495068085E+02 -0.23540910015E+02  0.10002511591E+02  0.95094786116E+02  0.90270130880E+02 0.  0.
         11    1    3    3    0    0  0.36032628317E+02  0.32202656703E+01 -0.40316892395E-02  0.36176241250E+02  0.51100000000E-03 0. -1.
         22    1    1    0    0    0  0.15495068085E+02  0.23540910015E+02 -0.10002511591E+02  0.29905213884E+02  0.00000000000E+00 0.  1.
</event>
<event>
 5    1  0.8952932E-005  0.9118800E+02  0.7818608E-02  0.1130116E+00
         25   -1    0    0    0    0  0.00000000000E+00  0.00000000000E+00  0.99999998245E-14  0.12500000000E+03  0.12500000000E+03 0.  0.
        -11    1    3    3    0    0 -0.30259287619E+02 -0.89557822050E+01  0.39001956974E+02  0.50169544249E+02  0.51100000000E-03 0.  1.
         23    2    1    0    0    0 -0.12470054329E+02  0.23413087054E+02  0.12213692331E+02  0.95796418358E+02  0.91236531003E+02 0.  0.
         11    1    3    3    0    0  0.17789233290E+02  0.32368869259E+02 -0.26788264642E+02  0.45626874109E+02  0.51100000000E-03 0. -1.
         22    1    1    0    0    0  0.12470054329E+02 -0.23413087054E+02 -0.12213692331E+02  0.29203581642E+02  0.00000000000E+00 0.  1.
</event>
<event>
 5    1  0.8952932E-005  0.9118800E+02  0.7818608E-02  0.1130116E+00
         25   -1    0    0    0    0  0.00000000000E+00  0.00000000000E+00  0.99999998245E-14  0.12500000000E+03  0.12500000000E+03 0.  0.
        -11    1    3    3    0    0  0.14159140463E+02 -0.52543496355E+01  0.53561872731E+02  0.55650369805E+02  0.51100000000E-03 0.  1.
         23    2    1    0    0    0  0.10051011527E+02 -0.20705924440E+02  0.14655789428E+02  0.97713550920E+02  0.93826370121E+02 0.  0.
         11    1    3    3    0    0 -0.41081289357E+01 -0.15451574804E+02 -0.38906083303E+02  0.42063181115E+02  0.51100000000E-03 0. -1.
         22    1    1    0    0    0 -0.10051011527E+02  0.20705924440E+02 -0.14655789428E+02  0.27286449080E+02  0.00000000000E+00 0.  1.
</event>
<event>
 5    1  0.8952932E-005  0.9118800E+02  0.7818608E-02  0.1130116E+00
         25   -1    0    0    0    0  0.00000000000E+00  0.00000000000E+00  0.99999998245E-14  0.12500000000E+03  0.12500000000E+03 0.  0.
        -11    1    3    3    0    0  0.12048057011E+02 -0.33065789230E+02 -0.11849558716E+02  0.37133733144E+02  0.51100000000E-03 0.  1.
         23    2    1    0    0    0  0.73015975934E+01  0.25687900351E+02 -0.11089120897E+02  0.96083738932E+02  0.91629333365E+02 0.  0.
         11    1    3    3    0    0 -0.47464594176E+01  0.58753689582E+02  0.76043781851E+00  0.58950005788E+02  0.51100000000E-03 0. -1.
         22    1    1    0    0    0 -0.73015975934E+01 -0.25687900351E+02  0.11089120897E+02  0.28916261068E+02  0.00000000000E+00 0. -1.
</event>
<event>
 5    1  0.8952932E-005  0.9118800E+02  0.7818608E-02  0.1130116E+00
         25   -1    0    0    0    0  0.00000000000E+00  0.00000000000E+00  0.99999998245E-14  0.12500000000E+03  0.12500000000E+03 0.  0.
        -11    1    3    3    0    0 -0.48573784908E+02 -0.98703228942E+01 -0.36154504533E+02  0.61351316633E+02  0.51100000000E-03 0. -1.
         23    2    1    0    0    0 -0.27177583905E+02 -0.42328245831E+01 -0.97110659692E+01  0.95830792381E+02  0.91283613509E+02 0.  0.
         11    1    3    3    0    0  0.21396201003E+02  0.56374983112E+01  0.26443438564E+02  0.34479475749E+02  0.51100000000E-03 0.  1.
         22    1    1    0    0    0  0.27177583905E+02  0.42328245831E+01  0.97110659692E+01  0.29169207619E+02  0.00000000000E+00 0. -1.
</event>
<event>
 5    1  0.8952932E-005  0.9118800E+02  0.7818608E-02  0.1130116E+00
         25   -1    0    0    0    0  0.00000000000E+00  0.00000000000E+00  0.99999998245E-14  0.12500000000E+03  0.12500000000E+03 0.  0.
        -11    1    3    3    0    0  0.33051014407E+02 -0.32984639105E+02  0.14138853121E+02  0.48787940498E+02  0.51100000000E-03 0.  1.
         23    2    1    0    0    0  0.95059599190E+00 -0.10442764733E+02  0.31586799111E+02  0.91718160416E+02  0.85466602272E+02 0.  0.
         11    1    3    3    0    0 -0.32100418415E+02  0.22541874371E+02  0.17447945990E+02  0.42930219917E+02  0.51100000000E-03 0. -1.
         22    1    1    0    0    0 -0.95059599190E+00  0.10442764733E+02 -0.31586799111E+02  0.33281839584E+02  0.00000000000E+00 0.  1.
</event>
<event>
 5    1  0.8952932E-005  0.9118800E+02  0.7818608E-02  0.1130116E+00
         25   -1    0    0    0    0  0.00000000000E+00  0.00000000000E+00  0.99999998245E-14  0.12500000000E+03  0.12500000000E+03 0.  0.
        -11    1    3    3    0    0 -0.19951310735E+02 -0.41803958833E+02 -0.10814536148E+02  0.47566584558E+02  0.51100000000E-03 0.  1.
         23    2    1    0    0    0 -0.24315412040E+02 -0.17553835046E+01  0.15890456616E+02  0.95899703689E+02  0.91377929076E+02 0.  0.
         11    1    3    3    0    0 -0.43641013051E+01  0.40048575329E+02  0.26704992764E+02  0.48333119130E+02  0.51100000000E-03 0. -1.
         22    1    1    0    0    0  0.24315412040E+02  0.17553835046E+01 -0.15890456616E+02  0.29100296311E+02  0.00000000000E+00 0. -1.
</event>
<event>
 5    1  0.8952932E-005  0.9118800E+02  0.7818608E-02  0.1130116E+00
         25   -1    0    0    0    0  0.00000000000E+00  0.00000000000E+00  0.99999998245E-14  0.12500000000E+03  0.12500000000E+03 0.  0.
        -11    1    3    3    0    0  0.43842489955E+02  0.97791731002E+01 -0.54999203890E+01  0.45255334233E+02  0.51100000000E-03 0.  1.
         23    2    1    0    0    0 -0.68428682277E+00  0.29601408938E+02  0.46141035367E+01  0.95033324992E+02  0.90184983495E+02 0.  0.
         11    1    3    3    0    0 -0.44526776778E+02  0.19822235838E+02  0.10114023926E+02  0.49777990760E+02  0.51100000000E-03 0. -1.
         22    1    1    0    0    0  0.68428682277E+00 -0.29601408938E+02 -0.46141035367E+01  0.29966675008E+02  0.00000000000E+00 0. -1.
</event>
<event>
 5    1  0.8952932E-005  0.9118800E+02  0.7818608E-02  0.1130116E+00
         25   -1    0    0    0    0  0.00000000000E+00  0.00000000000E+00  0.99999998245E-14  0.12500000000E+03  0.12500000000E+03 0.  0.
        -11    1    3    3    0    0 -0.35280435546E+02 -0.24187116557E+02 -0.68597642679E+00  0.42780793629E+02  0.51100000000E-03 0.  1.
         23    2    1    0    0    0 -0.10544195730E+02  0.23126312772E+02 -0.11249079748E+02  0.97205248675E+02  0.93146723876E+02 0.  0.
         11    1    3    3    0    0  0.24736239816E+02  0.47313429329E+02 -0.10563103321E+02  0.54424455046E+02  0.51100000000E-03 0. -1.
         22    1    1    0    0    0  0.10544195730E+02 -0.23126312772E+02  0.11249079748E+02  0.27794751325E+02  0.00000000000E+00 0. -1.
</event>
<event>
 5    1  0.8952932E-005  0.9118800E+02  0.7818608E-02  0.1130116E+00
         25   -1    0    0    0    0  0.00000000000E+00  0.00000000000E+00  0.99999998245E-14  0.12500000000E+03  0.12500000000E+03 0.  0.
        -11    1    3    3    0    0 -0.74044373806E+01 -0.40318428573E+02  0.70630650131E+01  0.41596733804E+02  0.51100000000E-03 0.  1.
         23    2    1    0    0    0  0.32082520163E+01  0.86976139157E+01  0.27670925956E+02  0.95817445073E+02  0.91265334427E+02 0.  0.
         11    1    3    3    0    0  0.10612689397E+02  0.49016042489E+02  0.20607860943E+02  0.54220711268E+02  0.51100000000E-03 0. -1.
         22    1    1    0    0    0 -0.32082520163E+01 -0.86976139157E+01 -0.27670925956E+02  0.29182554927E+02  0.00000000000E+00 0. -1.
</event>
<event>
 5    1  0.8952932E-005  0.9118800E+02  0.7818608E-02  0.1130116E+00
         25   -1    0    0    0    0  0.00000000000E+00  0.00000000000E+00  0.99999998245E-14  0.12500000000E+03  0.12500000000E+03 0.  0.
        -11    1    3    3    0    0  0.35101219860E+02 -0.26924856219E+02  0.27023649144E+02  0.51839378192E+02  0.51100000000E-03 0.  1.
         23    2    1    0    0    0  0.30694462726E+02  0.45544611190E+01 -0.61798861959E+00  0.93963327046E+02  0.88689524531E+02 0.  0.
         11    1    3    3    0    0 -0.44067571336E+01  0.31479317338E+02 -0.27641637764E+02  0.42123948854E+02  0.51100000000E-03 0. -1.
         22    1    1    0    0    0 -0.30694462726E+02 -0.45544611190E+01  0.61798861959E+00  0.31036672954E+02  0.00000000000E+00 0.  1.
</event>
<event>
 5    1  0.8952932E-005  0.9118800E+02  0.7818608E-02  0.1130116E+00
         25   -1    0    0    0    0  0.00000000000E+00  0.00000000000E+00  0.99999998245E-14  0.12500000000E+03  0.12500000000E+03 0.  0.
        -11    1    3    3    0    0 -0.12733758467E+02  0.44883776951E+02  0.37339625915E+02  0.59757423822E+02  0.51100000000E-03 0. -1.
         23    2    1    0    0    0  0.27198630141E+01  0.11776051111E+02  0.23020050936E+02  0.99000081160E+02  0.95524972076E+02 0.  0.
         11    1    3    3    0    0  0.15453621481E+02 -0.33107725840E+02 -0.14319574979E+02  0.39242657339E+02  0.51100000000E-03 0.  1.
         22    1    1    0    0    0 -0.27198630141E+01 -0.11776051111E+02 -0.23020050936E+02  0.25999918840E+02  0.00000000000E+00 0. -1.
</event>
<event>
 5    1  0.8952932E-005  0.9118800E+02  0.7818608E-02  0.1130116E+00
         25   -1    0    0    0    0  0.00000000000E+00  0.00000000000E+00  0.99999998245E-14  0.12500000000E+03  0.12500000000E+03 0.  0.
        -11    1    3    3    0    0 -0.26577368516E+02  0.95897546103E+00 -0.21060576673E+02  0.33923797565E+02  0.51100000000E-03 0. -1.
         23    2    1    0    0    0  0.29844925270E+02  0.66886968019E+01 -0.16612450909E-01  0.94414733854E+02  0.89323476553E+02 0.  0.
         11    1    3    3    0    0  0.56422293786E+02  0.57297213408E+01  0.21043964222E+02  0.60490936289E+02  0.51100000000E-03 0.  1.
         22    1    1    0    0    0 -0.29844925270E+02 -0.66886968019E+01  0.16612450909E-01  0.30585266146E+02  0.00000000000E+00 0.  1.
</event>
<event>
 5    1  0.8952932E-005  0.9118800E+02  0.7818608E-02  0.1130116E+00
         25   -1    0    0    0    0  0.00000000000E+00  0.00000000000E+00  0.99999998245E-14  0.12500000000E+03  0.12500000000E+03 0.  0.
        -11    1    3    3    0    0 -0.16756300082E+02  0.78846856253E+01  0.43880797796E+02  0.47628418778E+02  0.51100000000E-03 0. -1.
         23    2    1    0    0    0  0.21920182016E+02  0.11710411435E+02  0.17688976246E+02  0.94495443026E+02  0.89436350308E+02 0.  0.
         11    1    3    3    0    0  0.38676482098E+02  0.38257258092E+01 -0.26191821550E+02  0.46867024247E+02  0.51100000000E-03 0.  1.
         22    1    1    0    0    0 -0.21920182016E+02 -0.11710411435E+02 -0.17688976246E+02  0.30504556974E+02  0.00000000000E+00 0.  1.
</event>
<event>
 5    1  0.8952932E-005  0.9118800E+02  0.7818608E-02  0.1130116E+00
         25   -1    0    0    0    0  0.00000000000E+00  0.00000000000E+00  0.99999998245E-14  0.12500000000E+03  0.12500000000E+03 0.  0.
        -11    1    3    3    0    0  0.22788601969E+02  0.22349333085E+02  0.37778150545E+02  0.49457069544E+02  0.51100000000E-03 0.  1.
         23    2    1    0    0    0 -0.12212362482E+02  0.27348764055E+02  0.15144687763E+02  0.91437248918E+02  0.85054760182E+02 0.  0.
         11    1    3    3    0    0 -0.35000964451E+02  0.49994309708E+01 -0.22633462782E+02  0.41980179374E+02  0.51100000000E-03 0. -1.
         22    1    1    0    0    0  0.12212362482E+02 -0.27348764055E+02 -0.15144687763E+02  0.33562751082E+02  0.00000000000E+00 0.  1.
</event>
<event>
 5    1  0.8952932E-005  0.9118800E+02  0.7818608E-02  0.1130116E+00
         25   -1    0    0    0    0  0.00000000000E+00  0.00000000000E+00  0.99999998245E-14  0.12500000000E+03  0.12500000000E+03 0.  0.
        -11    1    3    3    0    0 -0.43341183454E+02 -0.15843294426E+00 -0.29380781157E+02  0.52361374943E+02  0.51100000000E-03 0.  1.
         23    2    1    0    0    0 -0.41493294035E+01 -0.17807653729E+02 -0.22686847562E+02  0.95862009024E+02  0.91326350283E+02 0.  0.
         11    1    3    3    0    0  0.39191854051E+02 -0.17649220785E+02  0.66939335959E+01  0.43500634081E+02  0.51100000000E-03 0. -1.
         22    1    1    0    0    0  0.41493294035E+01  0.17807653729E+02  0.22686847562E+02  0.29137990976E+02  0.00000000000E+00 0.  1.
</event>
<event>
 5    1  0.8952932E-005  0.9118800E+02  0.7818608E-02  0.1130116E+00
         25   -1    0    0    0    0  0.00000000000E+00  0.00000000000E+00  0.99999998245E-14  0.12500000000E+03  0.12500000000E+03 0.  0.
        -11    1    3    3    0    0  0.23771570803E+01  0.33623510130E+02 -0.33308380309E+02  0.47388178994E+02  0.51100000000E-03 0.  1.
         23    2    1    0    0    0  0.24667247239E+02  0.16278722829E+02  0.50441993567E+01  0.95018107958E+02  0.90163889609E+02 0.  0.
         11    1    3    3    0    0  0.22290090159E+02 -0.17344787301E+02  0.38352579666E+02  0.47629928964E+02  0.51100000000E-03 0. -1.
         22    1    1    0    0    0 -0.24667247239E+02 -0.16278722829E+02 -0.50441993567E+01  0.29981892042E+02  0.00000000000E+00 0. -1.
</event>
<event>
 5    1  0.8952932E-005  0.9118800E+02  0.7818608E-02  0.1130116E+00
         25   -1    0    0    0    0  0.00000000000E+00  0.00000000000E+00  0.99999998245E-14  0.12500000000E+03  0.12500000000E+03 0.  0.
        -11    1    3    3    0    0  0.26123890085E+02  0.31405674696E+02  0.39227108964E+01  0.41038539171E+02  0.51100000000E-03 0.  1.
         23    2    1    0    0    0 -0.16734456376E+02 -0.11735881405E+01 -0.19090218450E+02  0.99586307238E+02  0.96289027462E+02 0.  0.
         11    1    3    3    0    0 -0.42858346461E+02 -0.32579262836E+02 -0.23012929346E+02  0.58547768067E+02  0.51100000000E-03 0. -1.
         22    1    1    0    0    0  0.16734456376E+02  0.11735881405E+01  0.19090218450E+02  0.25413692762E+02  0.00000000000E+00 0. -1.
</event>
<event>
 5    1  0.8952932E-005  0.9118800E+02  0.7818608E-02  0.1130116E+00
         25   -1    0    0    0    0  0.00000000000E+00  0.00000000000E+00  0.99999998245E-14  0.12500000000E+03  0.12500000000E+03 0.  0.
        -11    1    3    3    0    0 -0.46641184619E+02  0.22886149549E+02 -0.18996879235E+02  0.55317785249E+02  0.51100000000E-03 0.  1.
         23    2    1    0    0    0 -0.31782327982E+02 -0.35686922698E+01  0.31214887101E+01  0.92865973981E+02  0.87129177060E+02 0.  0.
         11    1    3    3    0    0  0.14858856638E+02 -0.26454841819E+02  0.22118367945E+02  0.37548188732E+02  0.51100000000E-03 0. -1.
         22    1    1    0    0    0  0.31782327982E+02  0.35686922698E+01 -0.31214887101E+01  0.32134026019E+02  0.00000000000E+00 0.  1.
</event>
<event>
 5    1  0.8952932E-005  0.9118800E+02  0.7818608E-02  0.1130116E+00
         25   -1    0    0    0    0  0.00000000000E+00  0.00000000000E+00  0.99999998245E-14  0.12500000000E+03  0.12500000000E+03 0.  0.
        -11    1    3    3    0    0  0.15469603048E+02  0.22812903854E+02  0.19395537855E+02  0.33703472961E+02  0.51100000000E-03 0. -1.
         23    2    1    0    0    0 -0.15648461479E+02 -0.23847613079E+02 -0.69105628922E+01  0.95651424639E+02  0.91037663414E+02 0.  0.
         11    1    3    3    0    0 -0.31118064527E+02 -0.46660516933E+02 -0.26306100747E+02  0.61947951678E+02  0.51100000000E-03 0.  1.
         22    1    1    0    0    0  0.15648461479E+02  0.23847613079E+02  0.69105628922E+01  0.29348575361E+02  0.00000000000E+00 0.  1.
</event>
<event>
 5    1  0.8952932E-005  0.9118800E+02  0.7818608E-02  0.1130116E+00
         25   -1    0    0    0    0  0.00000000000E+00  0.00000000000E+00  0.99999998245E-14  0.12500000000E+03  0.12500000000E+03 0.  0.
        -11    1    3    3    0    0  0.11272282393E+02 -0.59099154262E+02 -0.46952726206E+01  0.60347493486E+02  0.51100000000E-03 0. -1.
         23    2    1    0    0    0  0.60614360144E+01 -0.22824365885E+02  0.93595708529E+01  0.99597357398E+02  0.96303371434E+02 0.  0.
         11    1    3    3    0    0 -0.52108463782E+01  0.36274788377E+02  0.14054843474E+02  0.39249863912E+02  0.51100000000E-03 0.  1.
         22    1    1    0    0    0 -0.60614360144E+01  0.22824365885E+02 -0.93595708529E+01  0.25402642602E+02  0.00000000000E+00 0. -1.
</event>
<event>
 5    1  0.8952932E-005  0.9118800E+02  0.7818608E-02  0.1130116E+00
         25   -1    0    0    0    0  0.00000000000E+00  0.00000000000E+00  0.99999998245E-14  0.12500000000E+03  0.12500000000E+03 0.  0.
        -11    1    3    3    0    0  0.59744893936E+02 -0.74493719867E+01  0.59299286618E+01  0.60498839234E+02  0.51100000000E-03 0.  1.
         23    2    1    0    0    0  0.35147129454E+02  0.36257539587E+00  0.13426324563E+02  0.87373966977E+02  0.78857414009E+02 0.  0.
         11    1    3    3    0    0 -0.24597764482E+02  0.78119473825E+01  0.74963959009E+01  0.26875127743E+02  0.51100000000E-03 0. -1.
         22    1    1    0    0    0 -0.35147129454E+02 -0.36257539587E+00 -0.13426324563E+02  0.37626033023E+02  0.00000000000E+00 0.  1.
</event>
<event>
 5    1  0.8952932E-005  0.9118800E+02  0.7818608E-02  0.1130116E+00
         25   -1    0    0    0    0  0.00000000000E+00  0.00000000000E+00  0.99999998245E-14  0.12500000000E+03  0.12500000000E+03 0.  0.
        -11    1    3    3    0    0  0.45491676844E+02 -0.36161366524E+02 -0.63186488863E+01  0.58455644851E+02  0.51100000000E-03 0.  1.
         23    2    1    0    0    0  0.16208450678E+02 -0.12782599832E+02 -0.17902046148E+02  0.97676164469E+02  0.93776548866E+02 0.  0.
         11    1    3    3    0    0 -0.29283226166E+02  0.23378766692E+02 -0.11583397262E+02  0.39220519618E+02  0.51100000000E-03 0. -1.
         22    1    1    0    0    0 -0.16208450678E+02  0.12782599832E+02  0.17902046148E+02  0.27323835531E+02  0.00000000000E+00 0.  1.
</event>
<event>
 5    1  0.8952932E-005  0.9118800E+02  0.7818608E-02  0.1130116E+00
         25   -1    0    0    0    0  0.00000000000E+00  0.00000000000E+00  0.99999998245E-14  0.12500000000E+03  0.12500000000E+03 0.  0.
        -11    1    3    3    0    0  0.30992466285E+02 -0.29341561307E+01  0.12358519966E+02  0.33494406319E+02  0.51100000000E-03 0. -1.
         23    2    1    0    0    0 -0.16391489206E+02 -0.51807510800E+01 -0.25541223359E+02  0.94212418237E+02  0.89039904308E+02 0.  0.
         11    1    3    3    0    0 -0.47383955491E+02 -0.22465949493E+01 -0.37899743326E+02  0.60718011918E+02  0.51100000000E-03 0.  1.
         22    1    1    0    0    0  0.16391489206E+02  0.51807510800E+01  0.25541223359E+02  0.30787581763E+02  0.00000000000E+00 0.  1.
</event>
<event>
 5    1  0.8952932E-005  0.9118800E+02  0.7818608E-02  0.1130116E+00
         25   -1    0    0    0    0  0.00000000000E+00  0.00000000000E+00  0.99999998245E-14  0.12500000000E+03  0.12500000000E+03 0.  0.
        -11    1    3    3    0    0 -0.35346654566E+02  0.49033944433E+02  0.26828088910E+01  0.60505463881E+02  0.51100000000E-03 0. -1.
         23    2    1    0    0    0 -0.19885206526E+02  0.17868825560E+02 -0.83325376705E+01  0.96997365312E+02  0.92867331866E+02 0.  0.
         11    1    3    3    0    0  0.15461448040E+02 -0.31165118873E+02 -0.11015346561E+02  0.36491901431E+02  0.51100000000E-03 0.  1.
         22    1    1    0    0    0  0.19885206526E+02 -0.17868825560E+02  0.83325376705E+01  0.28002634688E+02  0.00000000000E+00 0. -1.
</event>
<event>
 5    1  0.8952932E-005  0.9118800E+02  0.7818608E-02  0.1130116E+00
         25   -1    0    0    0    0  0.00000000000E+00  0.00000000000E+00  0.99999998245E-14  0.12500000000E+03  0.12500000000E+03 0.  0.
        -11    1    3    3    0    0  0.23520390828E+02  0.42164573082E+02  0.11476340707E+02  0.49626267280E+02  0.51100000000E-03 0. -1.
         23    2    1    0    0    0  0.28957946071E+02  0.28193177283E+01  0.19269306724E+02  0.90102759784E+02  0.83070391512E+02 0.  0.
         11    1    3    3    0    0  0.54375552432E+01 -0.39345255353E+02  0.77929660164E+01  0.40476492504E+02  0.51100000000E-03 0.  1.
         22    1    1    0    0    0 -0.28957946071E+02 -0.28193177283E+01 -0.19269306724E+02  0.34897240216E+02  0.00000000000E+00 0. -1.
</event>
<event>
 5    1  0.8952932E-005  0.9118800E+02  0.7818608E-02  0.1130116E+00
         25   -1    0    0    0    0  0.00000000000E+00  0.00000000000E+00  0.99999998245E-14  0.12500000000E+03  0.12500000000E+03 0.  0.
        -11    1    3    3    0    0  0.11074807847E+02  0.14945715312E+02 -0.35193692435E+02  0.39807307903E+02  0.51100000000E-03 0.  1.
         23    2    1    0    0    0  0.21129371561E+02 -0.54007316668E+00  0.18701774349E+02  0.96777697022E+02  0.92571184801E+02 0.  0.
         11    1    3    3    0    0  0.10054563714E+02 -0.15485788478E+02  0.53895466784E+02  0.56970389119E+02  0.51100000000E-03 0. -1.
         22    1    1    0    0    0 -0.21129371561E+02  0.54007316668E+00 -0.18701774349E+02  0.28222302978E+02  0.00000000000E+00 0.  1.
</event>
<event>
 5    1  0.8952932E-005  0.9118800E+02  0.7818608E-02  0.1130116E+00
         25   -1    0    0    0    0  0.00000000000E+00  0.00000000000E+00  0.99999998245E-14  0.12500000000E+03  0.12500000000E+03 0.  0.
        -11    1    3    3    0    0  0.34274437181E+02  0.28960330022E+02 -0.22477730752E+02  0.50186513518E+02  0.51100000000E-03 0.  1.
         23    2    1    0    0    0  0.21134479679E+02 -0.14711815290E+02 -0.80774991060E+01  0.98012044682E+02  0.94223198685E+02 0.  0.
         11    1    3    3    0    0 -0.13139957502E+02 -0.43672145313E+02  0.14400231646E+02  0.47825531164E+02  0.51100000000E-03 0. -1.
         22    1    1    0    0    0 -0.21134479679E+02  0.14711815290E+02  0.80774991060E+01  0.26987955318E+02  0.00000000000E+00 0. -1.
</event>
<event>
 5    1  0.8952932E-005  0.9118800E+02  0.7818608E-02  0.1130116E+00
         25   -1    0    0    0    0  0.00000000000E+00  0.00000000000E+00  0.99999998245E-14  0.12500000000E+03  0.12500000000E+03 0.  0.
        -11    1    3    3    0    0  0.79055934687E+01  0.13775305192E+02 -0.36415809126E+02  0.39728687315E+02  0.51100000000E-03 0.  1.
         23    2    1    0    0    0  0.21101332592E+02  0.12248047657E+02  0.17318048999E+02  0.95080178314E+02  0.90249900712E+02 0.  0.
         11    1    3    3    0    0  0.13195739124E+02 -0.15272575354E+01  0.53733858125E+02  0.55351490999E+02  0.51100000000E-03 0. -1.
         22    1    1    0    0    0 -0.21101332592E+02 -0.12248047657E+02 -0.17318048999E+02  0.29919821686E+02  0.00000000000E+00 0. -1.
</event>
<event>
 5    1  0.8952932E-005  0.9118800E+02  0.7818608E-02  0.1130116E+00
         25   -1    0    0    0    0  0.00000000000E+00  0.00000000000E+00  0.99999998245E-14  0.12500000000E+03  0.12500000000E+03 0.  0.
        -11    1    3    3    0    0 -0.37558582585E+02 -0.41412486931E+02  0.21136514942E+01  0.55947374581E+02  0.51100000000E-03 0.  1.
         23    2    1    0    0    0 -0.24114583492E+02 -0.36550182244E+01 -0.11174114781E+02  0.98172157441E+02  0.94435371341E+02 0.  0.
         11    1    3    3    0    0  0.13443999092E+02  0.37757468707E+02 -0.13287766275E+02  0.42224782860E+02  0.51100000000E-03 0. -1.
         22    1    1    0    0    0  0.24114583492E+02  0.36550182244E+01  0.11174114781E+02  0.26827842559E+02  0.00000000000E+00 0.  1.
</event>
<event>
 5    1  0.8952932E-005  0.9118800E+02  0.7818608E-02  0.1130116E+00
         25   -1    0    0    0    0  0.00000000000E+00  0.00000000000E+00  0.99999998245E-14  0.12500000000E+03  0.12500000000E+03 0.  0.
        -11    1    3    3    0    0 -0.23811235608E+02 -0.22490959751E+02  0.50206234063E+02  0.59945676664E+02  0.51100000000E-03 0.  1.
         23    2    1    0    0    0 -0.17761189767E+02 -0.21493609378E+02  0.20206951142E+02  0.90565192312E+02  0.83763345671E+02 0.  0.
         11    1    3    3    0    0  0.60500458408E+01  0.99735037244E+00 -0.29999282921E+02  0.30619515648E+02  0.51100000000E-03 0. -1.
         22    1    1    0    0    0  0.17761189767E+02  0.21493609378E+02 -0.20206951142E+02  0.34434807688E+02  0.00000000000E+00 0.  1.
</event>
<event>
 5    1  0.8952932E-005  0.9118800E+02  0.7818608E-02  0.1130116E+00
         25   -1    0    0    0    0  0.00000000000E+00  0.00000000000E+00  0.99999998245E-14  0.12500000000E+03  0.12500000000E+03 0.  0.
        -11    1    3    3    0    0  0.35355335875E+02  0.34417269412E+02 -0.29615715579E+02  0.57546840210E+02  0.51100000000E-03 0.  1.
         23    2    1    0    0    0  0.10868118609E+02  0.29413982676E+02 -0.39105048839E+01  0.93399518557E+02  0.87891294446E+02 0.  0.
         11    1    3    3    0    0 -0.24487217266E+02 -0.50032867362E+01  0.25705210695E+02  0.35852678348E+02  0.51100000000E-03 0. -1.
         22    1    1    0    0    0 -0.10868118609E+02 -0.29413982676E+02  0.39105048839E+01  0.31600481443E+02  0.00000000000E+00 0.  1.
</event>
<event>
 5    1  0.8952932E-005  0.9118800E+02  0.7818608E-02  0.1130116E+00
         25   -1    0    0    0    0  0.00000000000E+00  0.00000000000E+00  0.99999998245E-14  0.12500000000E+03  0.12500000000E+03 0.  0.
        -11    1    3    3    0    0  0.26203211376E+02 -0.12942614218E+02  0.19987213479E+02  0.35406330679E+02  0.51100000000E-03 0.  1.
         23    2    1    0    0    0 -0.19165885294E+02 -0.24076303490E+02 -0.11942069711E+02  0.91990719822E+02  0.85864311303E+02 0.  0.
         11    1    3    3    0    0 -0.45369096671E+02 -0.11133689273E+02 -0.31929283189E+02  0.56584389144E+02  0.51100000000E-03 0. -1.
         22    1    1    0    0    0  0.19165885294E+02  0.24076303490E+02  0.11942069711E+02  0.33009280178E+02  0.00000000000E+00 0.  1.
</event>
<event>
 5    1  0.8952932E-005  0.9118800E+02  0.7818608E-02  0.1130116E+00
         25   -1    0    0    0    0  0.00000000000E+00  0.00000000000E+00  0.99999998245E-14  0.12500000000E+03  0.12500000000E+03 0.  0.
        -11    1    3    3    0    0  0.41770217295E+02 -0.19057032779E+01 -0.27135181283E+02  0.49846773430E+02  0.51100000000E-03 0.  1.
         23    2    1    0    0    0  0.29477927777E+02 -0.88627647649E+01  0.12388990929E+02  0.91818922237E+02  0.85613845604E+02 0.  0.
         11    1    3    3    0    0 -0.12292289518E+02 -0.69570614870E+01  0.39524172213E+02  0.41972148807E+02  0.51100000000E-03 0. -1.
         22    1    1    0    0    0 -0.29477927777E+02  0.88627647649E+01 -0.12388990929E+02  0.33181077763E+02  0.00000000000E+00 0.  1.
</event>
<event>
 5    1  0.8952932E-005  0.9118800E+02  0.7818608E-02  0.1130116E+00
         25   -1    0    0    0    0  0.00000000000E+00  0.00000000000E+00  0.99999998245E-14  0.12500000000E+03  0.12500000000E+03 0.  0.
        -11    1    3    3    0    0  0.11092951790E+02  0.21093793427E+02  0.35653649197E+02  0.42885713261E+02  0.51100000000E-03 0. -1.
         23    2    1    0    0    0  0.15849023773E+02  0.16828358592E+02 -0.17239180679E+02  0.96162965514E+02  0.91737349965E+02 0.  0.
         11    1    3    3    0    0  0.47560719821E+01 -0.42654348345E+01 -0.52892829877E+02  0.53277252253E+02  0.51100000000E-03 0.  1.
         22    1    1    0    0    0 -0.15849023773E+02 -0.16828358592E+02  0.17239180679E+02  0.28837034486E+02  0.00000000000E+00 0.  1.
</event>
<event>
 5    1  0.8952932E-005  0.9118800E+02  0.7818608E-02  0.1130116E+00
         25   -1    0    0    0    0  0.00000000000E+00  0.00000000000E+00  0.99999998245E-14  0.12500000000E+03  0.12500000000E+03 0.  0.
        -11    1    3    3    0    0  0.25245623521E+02  0.31564768316E+02 -0.60894428356E+01  0.40874899634E+02  0.51100000000E-03 0. -1.
         23    2    1    0    0    0  0.48706549589E+01 -0.88847339477E+01  0.26471356524E+02  0.96655785541E+02  0.92406419611E+02 0.  0.
         11    1    3    3    0    0 -0.20374968562E+02 -0.40449502264E+02  0.32560799360E+02  0.55780885907E+02  0.51100000000E-03 0.  1.
         22    1    1    0    0    0 -0.48706549589E+01  0.88847339477E+01 -0.26471356524E+02  0.28344214459E+02  0.00000000000E+00 0.  1.
</event>
<event>
 5    1  0.8952932E-005  0.9118800E+02  0.7818608E-02  0.1130116E+00
         25   -1    0    0    0    0  0.00000000000E+00  0.00000000000E+00  0.99999998245E-14  0.12500000000E+03  0.12500000000E+03 0.  0.
        -11    1    3    3    0    0  0.17687351113E+02  0.30020277093E+02  0.50238360265E+02  0.61138795118E+02  0.51100000000E-03 0.  1.
         23    2    1    0    0    0  0.13796646697E+02  0.17698864054E+02  0.16858847388E+02  0.96931904516E+02  0.92779179393E+02 0.  0.
         11    1    3    3    0    0 -0.38907044162E+01 -0.12321413039E+02 -0.33379512877E+02  0.35793109397E+02  0.51100000000E-03 0. -1.
         22    1    1    0    0    0 -0.13796646697E+02 -0.17698864054E+02 -0.16858847388E+02  0.28068095484E+02  0.00000000000E+00 0.  1.
</event>
<event>
 5    1  0.8952932E-005  0.9118800E+02  0.7818608E-02  0.1130116E+00
         25   -1    0    0    0    0  0.00000000000E+00  0.00000000000E+00  0.99999998245E-14  0.12500000000E+03  0.12500000000E+03 0.  0.
        -11    1    3    3    0    0 -0.38547905878E+02 -0.25759389398E+02  0.14322213636E+02  0.48524354642E+02  0.51100000000E-03 0. -1.
         23    2    1    0    0    0 -0.31266657597E+02  0.73111924400E+01 -0.11269429558E+02  0.90969756764E+02  0.84364916825E+02 0.  0.
         11    1    3    3    0    0  0.72812482810E+01  0.33070581838E+02 -0.25591643194E+02  0.42445402122E+02  0.51100000000E-03 0.  1.
         22    1    1    0    0    0  0.31266657597E+02 -0.73111924400E+01  0.11269429558E+02  0.34030243236E+02  0.00000000000E+00 0.  1.
</event>
<event>
 5    1  0.8952932E-005  0.9118800E+02  0.7818608E-02  0.1130116E+00
         25   -1    0    0    0    0  0.00000000000E+00  0.00000000000E+00  0.99999998245E-14  0.12500000000E+03  0.12500000000E+03 0.  0.
        -11    1    3    3    0    0 -0.91890000182E+01 -0.49042162820E+02  0.28585762863E+02  0.57504063284E+02  0.51100000000E-03 0. -1.
         23    2    1    0    0    0 -0.18285437834E+02 -0.22941819414E+02  0.24230918574E+01  0.95562682035E+02  0.90915733010E+02 0.  0.
         11    1    3    3    0    0 -0.90964378163E+01  0.26100343406E+02 -0.26162671006E+02  0.38058618752E+02  0.51100000000E-03 0.  1.
         22    1    1    0    0    0  0.18285437834E+02  0.22941819414E+02 -0.24230918574E+01  0.29437317965E+02  0.00000000000E+00 0. -1.
</event>
<event>
 5    1  0.8952932E-005  0.9118800E+02  0.7818608E-02  0.1130116E+00
         25   -1    0    0    0    0  0.00000000000E+00  0.00000000000E+00  0.99999998245E-14  0.12500000000E+03  0.12500000000E+03 0.  0.
        -11    1    3    3    0    0 -0.41618290054E+02 -0.29411496143E+01 -0.16536693212E+01  0.41754844636E+02  0.51100000000E-03 0.  1.
         23    2    1    0    0    0  0.91389554477E+01 -0.24101568731E+02  0.88626764185E+01  0.97742832956E+02  0.93865372950E+02 0.  0.
         11    1    3    3    0    0  0.50757245502E+02 -0.21160419117E+02  0.10516345740E+02  0.55987988320E+02  0.51100000000E-03 0. -1.
         22    1    1    0    0    0 -0.91389554477E+01  0.24101568731E+02 -0.88626764185E+01  0.27257167044E+02  0.00000000000E+00 0. -1.
</event>
<event>
 5    1  0.8952932E-005  0.9118800E+02  0.7818608E-02  0.1130116E+00
         25   -1    0    0    0    0  0.00000000000E+00  0.00000000000E+00  0.99999998245E-14  0.12500000000E+03  0.12500000000E+03 0.  0.
        -11    1    3    3    0    0 -0.11793201411E+02 -0.19120742993E+02  0.26526391441E+02  0.34761068097E+02  0.51100000000E-03 0.  1.
         23    2    1    0    0    0 -0.32569734663E+01  0.19795128562E+02 -0.20447018316E+02  0.96355008309E+02  0.91998652584E+02 0.  0.
         11    1    3    3    0    0  0.85362279443E+01  0.38915871555E+02 -0.46973409757E+02  0.61593940212E+02  0.51100000000E-03 0. -1.
         22    1    1    0    0    0  0.32569734663E+01 -0.19795128562E+02  0.20447018316E+02  0.28644991691E+02  0.00000000000E+00 0. -1.
</event>
<event>
 5    1  0.8952932E-005  0.9118800E+02  0.7818608E-02  0.1130116E+00
         25   -1    0    0    0    0  0.00000000000E+00  0.00000000000E+00  0.99999998245E-14  0.12500000000E+03  0.12500000000E+03 0.  0.
        -11    1    3    3    0    0 -0.20053736707E+02 -0.10211925140E+02  0.42442846358E+02  0.48039889448E+02  0.51100000000E-03 0. -1.
         23    2    1    0    0    0 -0.28434525281E+02  0.15285542411E+01 -0.36076928687E+01  0.96296791924E+02  0.91919519043E+02 0.  0.
         11    1    3    3    0    0 -0.83807885738E+01  0.11740479381E+02 -0.46050539227E+02  0.48256902476E+02  0.51100000000E-03 0.  1.
         22    1    1    0    0    0  0.28434525281E+02 -0.15285542411E+01  0.36076928687E+01  0.28703208076E+02  0.00000000000E+00 0. -1.
</event>
<event>
 5    1  0.8952932E-005  0.9118800E+02  0.7818608E-02  0.1130116E+00
         25   -1    0    0    0    0  0.00000000000E+00  0.00000000000E+00  0.99999998245E-14  0.12500000000E+03  0.12500000000E+03 0.  0.
        -11    1    3    3    0    0 -0.41405454911E+02 -0.21097894298E+02  0.28152672453E+01  0.46555972443E+02  0.51100000000E-03 0. -1.
         23    2    1    0    0    0 -0.20606702446E+01 -0.82261595186E+01  0.28494314315E+02  0.95270519504E+02  0.90513147531E+02 0.  0.
         11    1    3    3    0    0  0.39344784666E+02  0.12871734780E+02  0.25679047070E+02  0.48714547061E+02  0.51100000000E-03 0.  1.
         22    1    1    0    0    0  0.20606702446E+01  0.82261595186E+01 -0.28494314315E+02  0.29729480496E+02  0.00000000000E+00 0.  1.
</event>
<event>
 5    1  0.8952932E-005  0.9118800E+02  0.7818608E-02  0.1130116E+00
         25   -1    0    0    0    0  0.00000000000E+00  0.00000000000E+00  0.99999998245E-14  0.12500000000E+03  0.12500000000E+03 0.  0.
        -11    1    3    3    0    0  0.63650134564E+01 -0.27795277006E+02  0.32394402143E+02  0.43156553507E+02  0.51100000000E-03 0.  1.
         23    2    1    0    0    0  0.85191780576E+01 -0.63730900941E+01 -0.21400916739E+02  0.10110037847E+03  0.98234895108E+02 0.  0.
         11    1    3    3    0    0  0.21541646012E+01  0.21422186912E+02 -0.53795318882E+02  0.57943824961E+02  0.51100000000E-03 0. -1.
         22    1    1    0    0    0 -0.85191780576E+01  0.63730900941E+01  0.21400916739E+02  0.23899621533E+02  0.00000000000E+00 0. -1.
</event>
<event>
 5    1  0.8952932E-005  0.9118800E+02  0.7818608E-02  0.1130116E+00
         25   -1    0    0    0    0  0.00000000000E+00  0.00000000000E+00  0.99999998245E-14  0.12500000000E+03  0.12500000000E+03 0.  0.
        -11    1    3    3    0    0  0.23647759514E+02 -0.36857590956E+02 -0.77068345059E+01  0.44464523381E+02  0.51100000000E-03 0. -1.
         23    2    1    0    0    0  0.18815933301E+02  0.12871621050E+02 -0.18571560636E+02  0.95595564299E+02  0.90960931585E+02 0.  0.
         11    1    3    3    0    0 -0.48318262132E+01  0.49729212006E+02 -0.10864726130E+02  0.51131040919E+02  0.51100000000E-03 0.  1.
         22    1    1    0    0    0 -0.18815933301E+02 -0.12871621050E+02  0.18571560636E+02  0.29404435701E+02  0.00000000000E+00 0.  1.
</event>
<event>
 5    1  0.8952932E-005  0.9118800E+02  0.7818608E-02  0.1130116E+00
         25   -1    0    0    0    0  0.00000000000E+00  0.00000000000E+00  0.99999998245E-14  0.12500000000E+03  0.12500000000E+03 0.  0.
        -11    1    3    3    0    0  0.48298086637E+02 -0.38738704069E+02  0.40577208399E+01  0.62047219635E+02  0.51100000000E-03 0.  1.
         23    2    1    0    0    0  0.18456785413E+02 -0.21584766615E+02  0.16106341340E+01  0.96554451667E+02  0.92269241445E+02 0.  0.
         11    1    3    3    0    0 -0.29841301224E+02  0.17153937454E+02 -0.24470867059E+01  0.34507232032E+02  0.51100000000E-03 0. -1.
         22    1    1    0    0    0 -0.18456785413E+02  0.21584766615E+02 -0.16106341340E+01  0.28445548333E+02  0.00000000000E+00 0.  1.
</event>
<event>
 5    1  0.8952932E-005  0.9118800E+02  0.7818608E-02  0.1130116E+00
         25   -1    0    0    0    0  0.00000000000E+00  0.00000000000E+00  0.99999998245E-14  0.12500000000E+03  0.12500000000E+03 0.  0.
        -11    1    3    3    0    0  0.91530683234E+01 -0.18321177827E+02  0.27539725640E+02  0.34320266685E+02  0.51100000000E-03 0.  1.
         23    2    1    0    0    0 -0.14593378742E+02  0.34353787013E+01 -0.24943707934E+02  0.95897472697E+02  0.91374877150E+02 0.  0.
         11    1    3    3    0    0 -0.23746447065E+02  0.21756556529E+02 -0.52483433574E+02  0.61577206012E+02  0.51100000000E-03 0. -1.
         22    1    1    0    0    0  0.14593378742E+02 -0.34353787013E+01  0.24943707934E+02  0.29102527303E+02  0.00000000000E+00 0. -1.
</event>
<event>
 5    1  0.8952932E-005  0.9118800E+02  0.7818608E-02  0.1130116E+00
         25   -1    0    0    0    0  0.00000000000E+00  0.00000000000E+00  0.99999998245E-14  0.12500000000E+03  0.12500000000E+03 0.  0.
        -11    1    3    3    0    0 -0.31117877065E+02  0.50853926917E+02  0.17510969819E+02  0.62137574946E+02  0.51100000000E-03 0. -1.
         23    2    1    0    0    0 -0.10617663731E+02  0.26453255658E+02  0.83835509949E+01  0.95288159846E+02  0.90537505828E+02 0.  0.
         11    1    3    3    0    0  0.20500213334E+02 -0.24400671258E+02 -0.91274188243E+01  0.33150584901E+02  0.51100000000E-03 0.  1.
         22    1    1    0    0    0  0.10617663731E+02 -0.26453255658E+02 -0.83835509949E+01  0.29711840154E+02  0.00000000000E+00 0. -1.
</event>
<event>
 5    1  0.8952932E-005  0.9118800E+02  0.7818608E-02  0.1130116E+00
         25   -1    0    0    0    0  0.00000000000E+00  0.00000000000E+00  0.99999998245E-14  0.12500000000E+03  0.12500000000E+03 0.  0.
        -11    1    3    3    0    0 -0.48161073988E+02  0.12300846841E+02 -0.15961020871E+02  0.52206839286E+02  0.51100000000E-03 0.  1.
         23    2    1    0    0    0 -0.15209422495E+02  0.22787612135E+02  0.10406753451E+02  0.95692964721E+02  0.91094682503E+02 0.  0.
         11    1    3    3    0    0  0.32951651493E+02  0.10486765294E+02  0.26367774322E+02  0.43486125436E+02  0.51100000000E-03 0. -1.
         22    1    1    0    0    0  0.15209422495E+02 -0.22787612135E+02 -0.10406753451E+02  0.29307035279E+02  0.00000000000E+00 0.  1.
</event>
<event>
 5    1  0.8952932E-005  0.9118800E+02  0.7818608E-02  0.1130116E+00
         25   -1    0    0    0    0  0.00000000000E+00  0.00000000000E+00  0.99999998245E-14  0.12500000000E+03  0.12500000000E+03 0.  0.
        -11    1    3    3    0    0  0.34121617321E+02  0.26941405607E+02  0.14665733787E+02  0.45882544093E+02  0.51100000000E-03 0. -1.
         23    2    1    0    0    0 -0.12729471395E+02  0.20179439496E+02  0.20456566734E+02  0.93571981562E+02  0.88136231997E+02 0.  0.
         11    1    3    3    0    0 -0.46851088717E+02 -0.67619661118E+01  0.57908329479E+01  0.47689437469E+02  0.51100000000E-03 0.  1.
         22    1    1    0    0    0  0.12729471395E+02 -0.20179439496E+02 -0.20456566734E+02  0.31428018438E+02  0.00000000000E+00 0. -1.
</event>
<event>
 5    1  0.8952932E-005  0.9118800E+02  0.7818608E-02  0.1130116E+00
         25   -1    0    0    0    0  0.00000000000E+00  0.00000000000E+00  0.99999998245E-14  0.12500000000E+03  0.12500000000E+03 0.  0.
        -11    1    3    3    0    0  0.26312828348E+02 -0.39916517515E+02 -0.29562567472E+02  0.56210663597E+02  0.51100000000E-03 0.  1.
         23    2    1    0    0    0 -0.32043536345E+01 -0.19295945569E+02 -0.26100786085E+02  0.92383249214E+02  0.86433860862E+02 0.  0.
         11    1    3    3    0    0 -0.29517181983E+02  0.20620571946E+02  0.34617813873E+01  0.36172585617E+02  0.51100000000E-03 0. -1.
         22    1    1    0    0    0  0.32043536345E+01  0.19295945569E+02  0.26100786085E+02  0.32616750786E+02  0.00000000000E+00 0.  1.
</event>
<event>
 5    1  0.8952932E-005  0.9118800E+02  0.7818608E-02  0.1130116E+00
         25   -1    0    0    0    0  0.00000000000E+00  0.00000000000E+00  0.99999998245E-14  0.12500000000E+03  0.12500000000E+03 0.  0.
        -11    1    3    3    0    0 -0.23577548295E+02  0.39322507991E+02  0.48354543273E+01  0.46103601130E+02  0.51100000000E-03 0.  1.
         23    2    1    0    0    0 -0.22473998976E+02 -0.63877412442E+01 -0.16336400482E+02  0.96491021609E+02  0.92183270729E+02 0.  0.
         11    1    3    3    0    0  0.11035493188E+01 -0.45710249235E+02 -0.21171854810E+02  0.50387420480E+02  0.51100000000E-03 0. -1.
         22    1    1    0    0    0  0.22473998976E+02  0.63877412442E+01  0.16336400482E+02  0.28508978391E+02  0.00000000000E+00 0. -1.
</event>
<event>
 5    1  0.8952932E-005  0.9118800E+02  0.7818608E-02  0.1130116E+00
         25   -1    0    0    0    0  0.00000000000E+00  0.00000000000E+00  0.99999998245E-14  0.12500000000E+03  0.12500000000E+03 0.  0.
        -11    1    3    3    0    0 -0.49242006441E+02  0.21585565326E+02  0.30327302140E+02  0.61728899910E+02  0.51100000000E-03 0.  1.
         23    2    1    0    0    0 -0.20682138211E+02  0.11215198395E+02  0.20867663119E+02  0.93551774612E+02  0.88107568647E+02 0.  0.
         11    1    3    3    0    0  0.28559868230E+02 -0.10370366931E+02 -0.94596390210E+01  0.31822874701E+02  0.51100000000E-03 0. -1.
         22    1    1    0    0    0  0.20682138211E+02 -0.11215198395E+02 -0.20867663119E+02  0.31448225388E+02  0.00000000000E+00 0.  1.
</event>
<event>
 5    1  0.8952932E-005  0.9118800E+02  0.7818608E-02  0.1130116E+00
         25   -1    0    0    0    0  0.00000000000E+00  0.00000000000E+00  0.99999998245E-14  0.12500000000E+03  0.12500000000E+03 0.  0.
        -11    1    3    3    0    0  0.13344978546E+02 -0.25865854487E+02 -0.16331183068E+02  0.33374217914E+02  0.51100000000E-03 0.  1.
         23    2    1    0    0    0 -0.12879189099E+02  0.23408775345E+02  0.11696349574E+02  0.95834114648E+02  0.91288162770E+02 0.  0.
         11    1    3    3    0    0 -0.26224167645E+02  0.49274629832E+02  0.28027532642E+02  0.62459896734E+02  0.51100000000E-03 0. -1.
         22    1    1    0    0    0  0.12879189099E+02 -0.23408775345E+02 -0.11696349574E+02  0.29165885352E+02  0.00000000000E+00 0. -1.
</event>
<event>
 5    1  0.8952932E-005  0.9118800E+02  0.7818608E-02  0.1130116E+00
         25   -1    0    0    0    0  0.00000000000E+00  0.00000000000E+00  0.99999998245E-14  0.12500000000E+03  0.12500000000E+03 0.  0.
        -11    1    3    3    0    0 -0.38213339644E+02 -0.45389860011E+02 -0.53659121388E+01  0.59575932488E+02  0.51100000000E-03 0. -1.
         23    2    1    0    0    0 -0.70982884841E+01 -0.22661572909E+02 -0.11536209471E+02  0.98598925873E+02  0.94998586664E+02 0.  0.
         11    1    3    3    0    0  0.31115051160E+02  0.22728287102E+02 -0.61702973323E+01  0.39022993385E+02  0.51100000000E-03 0.  1.
         22    1    1    0    0    0  0.70982884841E+01  0.22661572909E+02  0.11536209471E+02  0.26401074127E+02  0.00000000000E+00 0. -1.
</event>
<event>
 5    1  0.8952932E-005  0.9118800E+02  0.7818608E-02  0.1130116E+00
         25   -1    0    0    0    0  0.00000000000E+00  0.00000000000E+00  0.99999998245E-14  0.12500000000E+03  0.12500000000E+03 0.  0.
        -11    1    3    3    0    0  0.20871589001E+02 -0.32797451758E+02  0.14292955536E+02  0.41419616699E+02  0.51100000000E-03 0.  1.
         23    2    1    0    0    0 -0.21037028232E+02 -0.12579277794E+02  0.25863078890E+02  0.89367239283E+02  0.81956145716E+02 0.  0.
         11    1    3    3    0    0 -0.41908617232E+02  0.20218173964E+02  0.11570123354E+02  0.47947622584E+02  0.51100000000E-03 0. -1.
         22    1    1    0    0    0  0.21037028232E+02  0.12579277794E+02 -0.25863078890E+02  0.35632760717E+02  0.00000000000E+00 0.  1.
</event>
<event>
 5    1  0.8952932E-005  0.9118800E+02  0.7818608E-02  0.1130116E+00
         25   -1    0    0    0    0  0.00000000000E+00  0.00000000000E+00  0.99999998245E-14  0.12500000000E+03  0.12500000000E+03 0.  0.
        -11    1    3    3    0    0  0.87703023901E+01  0.33292080148E+02 -0.53539514658E+01  0.34841722133E+02  0.51100000000E-03 0.  1.
         23    2    1    0    0    0 -0.98549939922E+01 -0.25780369872E+02 -0.58694775068E+01  0.96782999034E+02  0.92578343895E+02 0.  0.
         11    1    3    3    0    0 -0.18625296382E+02 -0.59072450021E+02 -0.51552604103E+00  0.61941276901E+02  0.51100000000E-03 0. -1.
         22    1    1    0    0    0  0.98549939922E+01  0.25780369872E+02  0.58694775068E+01  0.28217000966E+02  0.00000000000E+00 0. -1.
</event>
<event>
 5    1  0.8952932E-005  0.9118800E+02  0.7818608E-02  0.1130116E+00
         25   -1    0    0    0    0  0.00000000000E+00  0.00000000000E+00  0.99999998245E-14  0.12500000000E+03  0.12500000000E+03 0.  0.
        -11    1    3    3    0    0 -0.15553764310E+02 -0.35626561702E+02  0.93159151003E+01  0.39974463816E+02  0.51100000000E-03 0.  1.
         23    2    1    0    0    0  0.29035960790E+02 -0.33049163209E+01  0.33078384118E+00  0.95774687190E+02  0.91206753026E+02 0.  0.
         11    1    3    3    0    0  0.44589725100E+02  0.32321645381E+02 -0.89851312591E+01  0.55800223375E+02  0.51100000000E-03 0. -1.
         22    1    1    0    0    0 -0.29035960790E+02  0.33049163209E+01 -0.33078384118E+00  0.29225312810E+02  0.00000000000E+00 0. -1.
</event>
<event>
 5    1  0.8952932E-005  0.9118800E+02  0.7818608E-02  0.1130116E+00
         25   -1    0    0    0    0  0.00000000000E+00  0.00000000000E+00  0.99999998245E-14  0.12500000000E+03  0.12500000000E+03 0.  0.
        -11    1    3    3    0    0  0.33023880275E+02 -0.16406474903E+02 -0.47175546163E+02  0.59877218065E+02  0.51100000000E-03 0. -1.
         23    2    1    0    0    0  0.12336129160E+02 -0.19512890373E+02 -0.18263896644E+02  0.95563578785E+02  0.90916965942E+02 0.  0.
         11    1    3    3    0    0 -0.20687751115E+02 -0.31064154699E+01  0.28911649519E+02  0.35686360720E+02  0.51100000000E-03 0.  1.
         22    1    1    0    0    0 -0.12336129160E+02  0.19512890373E+02  0.18263896644E+02  0.29436421215E+02  0.00000000000E+00 0. -1.
</event>
<event>
 5    1  0.8952932E-005  0.9118800E+02  0.7818608E-02  0.1130116E+00
         25   -1    0    0    0    0  0.00000000000E+00  0.00000000000E+00  0.99999998245E-14  0.12500000000E+03  0.12500000000E+03 0.  0.
        -11    1    3    3    0    0 -0.22248895026E+02 -0.27609728564E+02 -0.73907762455E+01  0.36220629689E+02  0.51100000000E-03 0. -1.
         23    2    1    0    0    0 -0.27071519515E+01  0.28656913548E+02 -0.21635503708E+00  0.96214688202E+02  0.91807799508E+02 0.  0.
         11    1    3    3    0    0  0.19541743075E+02  0.56266642112E+02  0.71744212084E+01  0.59994058514E+02  0.51100000000E-03 0.  1.
         22    1    1    0    0    0  0.27071519515E+01 -0.28656913548E+02  0.21635503708E+00  0.28785311798E+02  0.00000000000E+00 0.  1.
</event>
<event>
 5    1  0.8952932E-005  0.9118800E+02  0.7818608E-02  0.1130116E+00
         25   -1    0    0    0    0  0.00000000000E+00  0.00000000000E+00  0.99999998245E-14  0.12500000000E+03  0.12500000000E+03 0.  0.
        -11    1    3    3    0    0 -0.57401660415E+02 -0.14001858974E+02 -0.11638711666E+02  0.60220115266E+02  0.51100000000E-03 0.  1.
         23    2    1    0    0    0 -0.27328881666E+02  0.50532664952E+01 -0.83874025234E+01  0.95969812324E+02  0.91473783573E+02 0.  0.
         11    1    3    3    0    0  0.30072778749E+02  0.19055125469E+02  0.32513091429E+01  0.35749697058E+02  0.51100000000E-03 0. -1.
         22    1    1    0    0    0  0.27328881666E+02 -0.50532664952E+01  0.83874025234E+01  0.29030187676E+02  0.00000000000E+00 0.  1.
</event>
<event>
 5    1  0.8952932E-005  0.9118800E+02  0.7818608E-02  0.1130116E+00
         25   -1    0    0    0    0  0.00000000000E+00  0.00000000000E+00  0.99999998245E-14  0.12500000000E+03  0.12500000000E+03 0.  0.
        -11    1    3    3    0    0 -0.33979366373E+02 -0.38169489671E+01 -0.25167721435E+02  0.42456809125E+02  0.51100000000E-03 0.  1.
         23    2    1    0    0    0 -0.80179807638E+00 -0.31946830408E+02  0.64458047469E+00  0.93036609422E+02  0.87373636502E+02 0.  0.
         11    1    3    3    0    0  0.33177568297E+02 -0.28129881441E+02  0.25812301910E+02  0.50579800297E+02  0.51100000000E-03 0. -1.
         22    1    1    0    0    0  0.80179807638E+00  0.31946830408E+02 -0.64458047469E+00  0.31963390578E+02  0.00000000000E+00 0. -1.
</event>
<event>
 5    1  0.8952932E-005  0.9118800E+02  0.7818608E-02  0.1130116E+00
         25   -1    0    0    0    0  0.00000000000E+00  0.00000000000E+00  0.99999998245E-14  0.12500000000E+03  0.12500000000E+03 0.  0.
        -11    1    3    3    0    0  0.22470855219E+02 -0.50781550041E+02  0.25111476768E+02  0.60944986869E+02  0.51100000000E-03 0.  1.
         23    2    1    0    0    0  0.10534115375E+02 -0.20093304396E+02  0.20921906295E+02  0.94138460321E+02  0.88936016778E+02 0.  0.
         11    1    3    3    0    0 -0.11936739844E+02  0.30688245644E+02 -0.41895704720E+01  0.33193473452E+02  0.51100000000E-03 0. -1.
         22    1    1    0    0    0 -0.10534115375E+02  0.20093304396E+02 -0.20921906295E+02  0.30861539679E+02  0.00000000000E+00 0.  1.
</event>
<event>
 5    1  0.8952932E-005  0.9118800E+02  0.7818608E-02  0.1130116E+00
         25   -1    0    0    0    0  0.00000000000E+00  0.00000000000E+00  0.99999998245E-14  0.12500000000E+03  0.12500000000E+03 0.  0.
        -11    1    3    3    0    0  0.18113389248E+02 -0.31486755180E+02  0.17653745774E+02  0.40387688247E+02  0.51100000000E-03 0. -1.
         23    2    1    0    0    0  0.21445927681E+02  0.15159399632E+02 -0.12379093989E+02  0.95965930714E+02  0.91468479153E+02 0.  0.
         11    1    3    3    0    0  0.33325384338E+01  0.46646154812E+02 -0.30032839763E+02  0.55578242467E+02  0.51100000000E-03 0.  1.
         22    1    1    0    0    0 -0.21445927681E+02 -0.15159399632E+02  0.12379093989E+02  0.29034069286E+02  0.00000000000E+00 0.  1.
</event>
<event>
 5    1  0.8952932E-005  0.9118800E+02  0.7818608E-02  0.1130116E+00
         25   -1    0    0    0    0  0.00000000000E+00  0.00000000000E+00  0.99999998245E-14  0.12500000000E+03  0.12500000000E+03 0.  0.
        -11    1    3    3    0    0 -0.17924068913E+02  0.94771109707E+01  0.31604580980E+02  0.37549133385E+02  0.51100000000E-03 0. -1.
         23    2    1    0    0    0  0.15604647629E+02  0.11400005806E+02 -0.18748715782E+02  0.98074556578E+02  0.94306092828E+02 0.  0.
         11    1    3    3    0    0  0.33528716543E+02  0.19228948352E+01 -0.50353296762E+02  0.60525423193E+02  0.51100000000E-03 0.  1.
         22    1    1    0    0    0 -0.15604647629E+02 -0.11400005806E+02  0.18748715782E+02  0.26925443422E+02  0.00000000000E+00 0.  1.
</event>
<event>
 5    1  0.8952932E-005  0.9118800E+02  0.7818608E-02  0.1130116E+00
         25   -1    0    0    0    0  0.00000000000E+00  0.00000000000E+00  0.99999998245E-14  0.12500000000E+03  0.12500000000E+03 0.  0.
        -11    1    3    3    0    0  0.36401235338E+02  0.19476458656E+02  0.11043640904E+02  0.42735750615E+02  0.51100000000E-03 0. -1.
         23    2    1    0    0    0 -0.14804502221E+02  0.11762678426E+02  0.22334938900E+02  0.95735971134E+02  0.91153676742E+02 0.  0.
         11    1    3    3    0    0 -0.51205737559E+02 -0.77137802307E+01  0.11291297996E+02  0.53000220520E+02  0.51100000000E-03 0.  1.
         22    1    1    0    0    0  0.14804502221E+02 -0.11762678426E+02 -0.22334938900E+02  0.29264028866E+02  0.00000000000E+00 0.  1.
</event>
<event>
 5    1  0.8952932E-005  0.9118800E+02  0.7818608E-02  0.1130116E+00
         25   -1    0    0    0    0  0.00000000000E+00  0.00000000000E+00  0.99999998245E-14  0.12500000000E+03  0.12500000000E+03 0.  0.
        -11    1    3    3    0    0  0.33513621330E+02 -0.15564639586E+02 -0.65281617763E+01  0.37523828650E+02  0.51100000000E-03 0.  1.
         23    2    1    0    0    0 -0.60196844236E+01  0.11120747315E+02  0.26566347905E+02  0.95577585713E+02  0.90936221762E+02 0.  0.
         11    1    3    3    0    0 -0.39533305753E+02  0.26685386902E+02  0.33094509682E+02  0.58053757064E+02  0.51100000000E-03 0. -1.
         22    1    1    0    0    0  0.60196844236E+01 -0.11120747315E+02 -0.26566347905E+02  0.29422414287E+02  0.00000000000E+00 0. -1.
</event>
<event>
 5    1  0.8952932E-005  0.9118800E+02  0.7818608E-02  0.1130116E+00
         25   -1    0    0    0    0  0.00000000000E+00  0.00000000000E+00  0.99999998245E-14  0.12500000000E+03  0.12500000000E+03 0.  0.
        -11    1    3    3    0    0 -0.36382260744E+02 -0.26101298416E+02  0.28079077768E+02  0.52852448235E+02  0.51100000000E-03 0. -1.
         23    2    1    0    0    0 -0.16845983963E+02 -0.28627114916E+02 -0.50566025243E+01  0.91401367392E+02  0.85002010846E+02 0.  0.
         11    1    3    3    0    0  0.19536276781E+02 -0.25258164992E+01 -0.33135680292E+02  0.38548919157E+02  0.51100000000E-03 0.  1.
         22    1    1    0    0    0  0.16845983963E+02  0.28627114916E+02  0.50566025243E+01  0.33598632608E+02  0.00000000000E+00 0.  1.
</event>
<event>
 5    1  0.8952932E-005  0.9118800E+02  0.7818608E-02  0.1130116E+00
         25   -1    0    0    0    0  0.00000000000E+00  0.00000000000E+00  0.99999998245E-14  0.12500000000E+03  0.12500000000E+03 0.  0.
        -11    1    3    3    0    0 -0.44051699561E+02  0.35833452998E+02  0.22512184404E+02  0.61085080297E+02  0.51100000000E-03 0.  1.
         23    2    1    0    0    0 -0.20567420718E+02  0.11012576536E+02  0.17961282242E+02  0.95556778425E+02  0.90907615777E+02 0.  0.
         11    1    3    3    0    0  0.23484278842E+02 -0.24820876462E+02 -0.45509021625E+01  0.34471698128E+02  0.51100000000E-03 0. -1.
         22    1    1    0    0    0  0.20567420718E+02 -0.11012576536E+02 -0.17961282242E+02  0.29443221575E+02  0.00000000000E+00 0.  1.
</event>
<event>
 5    1  0.8952932E-005  0.9118800E+02  0.7818608E-02  0.1130116E+00
         25   -1    0    0    0    0  0.00000000000E+00  0.00000000000E+00  0.99999998245E-14  0.12500000000E+03  0.12500000000E+03 0.  0.
        -11    1    3    3    0    0 -0.32591270955E+01 -0.13465851715E+02 -0.34503159638E+02  0.37180896938E+02  0.51100000000E-03 0. -1.
         23    2    1    0    0    0 -0.11828543706E+02  0.25229886811E+02  0.86989432551E+01  0.95808678542E+02  0.91253326709E+02 0.  0.
         11    1    3    3    0    0 -0.85694166108E+01  0.38695738527E+02  0.43202102893E+02  0.58627781604E+02  0.51100000000E-03 0.  1.
         22    1    1    0    0    0  0.11828543706E+02 -0.25229886811E+02 -0.86989432551E+01  0.29191321458E+02  0.00000000000E+00 0.  1.
</event>
<event>
 5    1  0.8952932E-005  0.9118800E+02  0.7818608E-02  0.1130116E+00
         25   -1    0    0    0    0  0.00000000000E+00  0.00000000000E+00  0.99999998245E-14  0.12500000000E+03  0.12500000000E+03 0.  0.
        -11    1    3    3    0    0  0.76692185045E+01 -0.10868198274E+02  0.32268714526E+02  0.34902787620E+02  0.51100000000E-03 0.  1.
         23    2    1    0    0    0  0.11216678582E+02  0.27970353376E+02 -0.10783336400E+02  0.92993205560E+02  0.87311519229E+02 0.  0.
         11    1    3    3    0    0  0.35474600777E+01  0.38838551649E+02 -0.43052050927E+02  0.58090417940E+02  0.51100000000E-03 0. -1.
         22    1    1    0    0    0 -0.11216678582E+02 -0.27970353376E+02  0.10783336400E+02  0.32006794440E+02  0.00000000000E+00 0. -1.
</event>
<event>
 5    1  0.8952932E-005  0.9118800E+02  0.7818608E-02  0.1130116E+00
         25   -1    0    0    0    0  0.00000000000E+00  0.00000000000E+00  0.99999998245E-14  0.12500000000E+03  0.12500000000E+03 0.  0.
        -11    1    3    3    0    0 -0.61139365438E+01 -0.41424991579E+02  0.39192896471E+02  0.57354104312E+02  0.51100000000E-03 0. -1.
         23    2    1    0    0    0 -0.19097876570E+02 -0.15551039742E+02  0.10145950971E+02  0.98363482817E+02  0.94688281769E+02 0.  0.
         11    1    3    3    0    0 -0.12983940026E+02  0.25873951838E+02 -0.29046945499E+02  0.41009378505E+02  0.51100000000E-03 0.  1.
         22    1    1    0    0    0  0.19097876570E+02  0.15551039742E+02 -0.10145950971E+02  0.26636517183E+02  0.00000000000E+00 0. -1.
</event>
<event>
 5    1  0.8952932E-005  0.9118800E+02  0.7818608E-02  0.1130116E+00
         25   -1    0    0    0    0  0.00000000000E+00  0.00000000000E+00  0.99999998245E-14  0.12500000000E+03  0.12500000000E+03 0.  0.
        -11    1    3    3    0    0  0.12008546875E+02  0.52528305380E+01 -0.55701947495E+02  0.57223285311E+02  0.51100000000E-03 0.  1.
         23    2    1    0    0    0  0.18624217094E+02 -0.94533225902E+01 -0.21557506587E+02  0.94984123191E+02  0.90116762025E+02 0.  0.
         11    1    3    3    0    0  0.66156702181E+01 -0.14706153128E+02  0.34144440908E+02  0.37760837881E+02  0.51100000000E-03 0. -1.
         22    1    1    0    0    0 -0.18624217094E+02  0.94533225902E+01  0.21557506587E+02  0.30015876809E+02  0.00000000000E+00 0.  1.
</event>
<event>
 5    1  0.8952932E-005  0.9118800E+02  0.7818608E-02  0.1130116E+00
         25   -1    0    0    0    0  0.00000000000E+00  0.00000000000E+00  0.99999998245E-14  0.12500000000E+03  0.12500000000E+03 0.  0.
        -11    1    3    3    0    0  0.53122281599E+02  0.28583757972E+02  0.83467805840E+01  0.60898906135E+02  0.51100000000E-03 0.  1.
         23    2    1    0    0    0  0.25115904099E+02  0.12012284044E+02 -0.60927019270E+01  0.96500445206E+02  0.92196048188E+02 0.  0.
         11    1    3    3    0    0 -0.28006377499E+02 -0.16571473928E+02 -0.14439482511E+02  0.35601539071E+02  0.51100000000E-03 0. -1.
         22    1    1    0    0    0 -0.25115904099E+02 -0.12012284044E+02  0.60927019270E+01  0.28499554794E+02  0.00000000000E+00 0.  1.
</event>
<event>
 5    1  0.8952932E-005  0.9118800E+02  0.7818608E-02  0.1130116E+00
         25   -1    0    0    0    0  0.00000000000E+00  0.00000000000E+00  0.99999998245E-14  0.12500000000E+03  0.12500000000E+03 0.  0.
        -11    1    3    3    0    0  0.35888460198E+02  0.12323793179E+02 -0.37580710343E+02  0.53405685502E+02  0.51100000000E-03 0.  1.
         23    2    1    0    0    0  0.26353076131E+02  0.15664664113E+02  0.20212366702E+01  0.94276202692E+02  0.89129404088E+02 0.  0.
         11    1    3    3    0    0 -0.95353840675E+01  0.33408709338E+01  0.39601947014E+02  0.40870517191E+02  0.51100000000E-03 0. -1.
         22    1    1    0    0    0 -0.26353076131E+02 -0.15664664113E+02 -0.20212366702E+01  0.30723797308E+02  0.00000000000E+00 0. -1.
</event>
<event>
 5    1  0.8952932E-005  0.9118800E+02  0.7818608E-02  0.1130116E+00
         25   -1    0    0    0    0  0.00000000000E+00  0.00000000000E+00  0.99999998245E-14  0.12500000000E+03  0.12500000000E+03 0.  0.
        -11    1    3    3    0    0 -0.29704283779E+02 -0.43702977928E+02  0.32801738923E+02  0.62195247658E+02  0.51100000000E-03 0. -1.
         23    2    1    0    0    0 -0.13364954175E+02 -0.18814213418E+02  0.19424474514E+02  0.94835337947E+02  0.89910146740E+02 0.  0.
         11    1    3    3    0    0  0.16339329605E+02  0.24888764510E+02 -0.13377264409E+02  0.32640090289E+02  0.51100000000E-03 0.  1.
         22    1    1    0    0    0  0.13364954175E+02  0.18814213418E+02 -0.19424474514E+02  0.30164662053E+02  0.00000000000E+00 0. -1.
</event>
<event>
 5    1  0.8952932E-005  0.9118800E+02  0.7818608E-02  0.1130116E+00
         25   -1    0    0    0    0  0.00000000000E+00  0.00000000000E+00  0.99999998245E-14  0.12500000000E+03  0.12500000000E+03 0.  0.
        -11    1    3    3    0    0 -0.25747915783E+02 -0.27857620077E+02  0.22345716811E+01  0.37999940452E+02  0.51100000000E-03 0.  1.
         23    2    1    0    0    0  0.17059717653E+02  0.57986797813E+01  0.22563561135E+02  0.96124873252E+02  0.91685431302E+02 0.  0.
         11    1    3    3    0    0  0.42807633436E+02  0.33656299858E+02  0.20328989454E+02  0.58124932800E+02  0.51100000000E-03 0. -1.
         22    1    1    0    0    0 -0.17059717653E+02 -0.57986797813E+01 -0.22563561135E+02  0.28875126748E+02  0.00000000000E+00 0. -1.
</event>
<event>
 5    1  0.8952932E-005  0.9118800E+02  0.7818608E-02  0.1130116E+00
         25   -1    0    0    0    0  0.00000000000E+00  0.00000000000E+00  0.99999998245E-14  0.12500000000E+03  0.12500000000E+03 0.  0.
        -11    1    3    3    0    0 -0.30772834627E+00  0.58972732450E+02  0.66975643994E+00  0.58977338387E+02  0.51100000000E-03 0. -1.
         23    2    1    0    0    0  0.13443616641E+02  0.26028926890E+02  0.60698954396E+01  0.95082120829E+02  0.90252591139E+02 0.  0.
         11    1    3    3    0    0  0.13751344987E+02 -0.32943805559E+02  0.54001389997E+01  0.36104782442E+02  0.51100000000E-03 0.  1.
         22    1    1    0    0    0 -0.13443616641E+02 -0.26028926890E+02 -0.60698954396E+01  0.29917879171E+02  0.00000000000E+00 0. -1.
</event>
<event>
 5    1  0.8952932E-005  0.9118800E+02  0.7818608E-02  0.1130116E+00
         25   -1    0    0    0    0  0.00000000000E+00  0.00000000000E+00  0.99999998245E-14  0.12500000000E+03  0.12500000000E+03 0.  0.
        -11    1    3    3    0    0 -0.21959824390E+02 -0.35020785300E+02  0.24153236250E+02  0.47875548162E+02  0.51100000000E-03 0. -1.
         23    2    1    0    0    0 -0.25183091932E+02 -0.70678770029E+01 -0.14039334303E+02  0.95314213633E+02  0.90573469670E+02 0.  0.
         11    1    3    3    0    0 -0.32232675415E+01  0.27952908297E+02 -0.38192570553E+02  0.47438665470E+02  0.51100000000E-03 0.  1.
         22    1    1    0    0    0  0.25183091932E+02  0.70678770029E+01  0.14039334303E+02  0.29685786367E+02  0.00000000000E+00 0. -1.
</event>
<event>
 5    1  0.8952932E-005  0.9118800E+02  0.7818608E-02  0.1130116E+00
         25   -1    0    0    0    0  0.00000000000E+00  0.00000000000E+00  0.99999998245E-14  0.12500000000E+03  0.12500000000E+03 0.  0.
        -11    1    3    3    0    0  0.24983958769E+02  0.22328046062E+02 -0.23116276552E+02  0.40707518699E+02  0.51100000000E-03 0.  1.
         23    2    1    0    0    0  0.11106076679E+00  0.24276570507E+01  0.25802498528E+02  0.99083310715E+02  0.95633820789E+02 0.  0.
         11    1    3    3    0    0 -0.24872898003E+02 -0.19900389012E+02  0.48918775080E+02  0.58375792015E+02  0.51100000000E-03 0. -1.
         22    1    1    0    0    0 -0.11106076679E+00 -0.24276570507E+01 -0.25802498528E+02  0.25916689285E+02  0.00000000000E+00 0. -1.
</event>
<event>
 5    1  0.8952932E-005  0.9118800E+02  0.7818608E-02  0.1130116E+00
         25   -1    0    0    0    0  0.00000000000E+00  0.00000000000E+00  0.99999998245E-14  0.12500000000E+03  0.12500000000E+03 0.  0.
        -11    1    3    3    0    0  0.33674038719E+02 -0.13437984146E+02  0.15807848043E+02  0.39552602463E+02  0.51100000000E-03 0.  1.
         23    2    1    0    0    0 -0.12764229774E+02 -0.19446125013E+02 -0.16534060831E+02  0.96461385680E+02  0.92143075812E+02 0.  0.
         11    1    3    3    0    0 -0.46438268493E+02 -0.60081408670E+01 -0.32341908874E+02  0.56908783217E+02  0.51100000000E-03 0. -1.
         22    1    1    0    0    0  0.12764229774E+02  0.19446125013E+02  0.16534060831E+02  0.28538614320E+02  0.00000000000E+00 0. -1.
</event>
<event>
 5    1  0.8952932E-005  0.9118800E+02  0.7818608E-02  0.1130116E+00
         25   -1    0    0    0    0  0.00000000000E+00  0.00000000000E+00  0.99999998245E-14  0.12500000000E+03  0.12500000000E+03 0.  0.
        -11    1    3    3    0    0  0.30876866801E+02 -0.33497849843E+02 -0.14141958104E+02  0.47702010721E+02  0.51100000000E-03 0. -1.
         23    2    1    0    0    0  0.11035158662E+02  0.49101000075E+01 -0.29136708651E+02  0.93459048844E+02  0.87975918359E+02 0.  0.
         11    1    3    3    0    0 -0.19841708139E+02  0.38407949850E+02 -0.14994750548E+02  0.45757038124E+02  0.51100000000E-03 0.  1.
         22    1    1    0    0    0 -0.11035158662E+02 -0.49101000075E+01  0.29136708651E+02  0.31540951156E+02  0.00000000000E+00 0.  1.
</event>
<event>
 5    1  0.8952932E-005  0.9118800E+02  0.7818608E-02  0.1130116E+00
         25   -1    0    0    0    0  0.00000000000E+00  0.00000000000E+00  0.99999998245E-14  0.12500000000E+03  0.12500000000E+03 0.  0.
        -11    1    3    3    0    0 -0.45426677421E+02 -0.38815405904E+02 -0.11898997248E+02  0.60924583649E+02  0.51100000000E-03 0. -1.
         23    2    1    0    0    0 -0.19202544387E+02 -0.20125391837E+02  0.41000200882E+01  0.96882758452E+02  0.92712941993E+02 0.  0.
         11    1    3    3    0    0  0.26224133034E+02  0.18690014066E+02  0.15999017336E+02  0.35958174803E+02  0.51100000000E-03 0.  1.
         22    1    1    0    0    0  0.19202544387E+02  0.20125391837E+02 -0.41000200882E+01  0.28117241548E+02  0.00000000000E+00 0. -1.
</event>
<event>
 5    1  0.8952932E-005  0.9118800E+02  0.7818608E-02  0.1130116E+00
         25   -1    0    0    0    0  0.00000000000E+00  0.00000000000E+00  0.99999998245E-14  0.12500000000E+03  0.12500000000E+03 0.  0.
        -11    1    3    3    0    0  0.23216161398E+02 -0.19953806043E+02  0.31219107645E+02  0.43723874578E+02  0.51100000000E-03 0. -1.
         23    2    1    0    0    0 -0.15562857505E+02 -0.24635447160E+02 -0.30696087955E+01  0.95699312488E+02  0.91103392484E+02 0.  0.
         11    1    3    3    0    0 -0.38779018903E+02 -0.46816411171E+01 -0.34288716440E+02  0.51975437911E+02  0.51100000000E-03 0.  1.
         22    1    1    0    0    0  0.15562857505E+02  0.24635447160E+02  0.30696087955E+01  0.29300687512E+02  0.00000000000E+00 0.  1.
</event>
<event>
 5    1  0.8952932E-005  0.9118800E+02  0.7818608E-02  0.1130116E+00
         25   -1    0    0    0    0  0.00000000000E+00  0.00000000000E+00  0.99999998245E-14  0.12500000000E+03  0.12500000000E+03 0.  0.
        -11    1    3    3    0    0 -0.16727147758E+02  0.17102293219E+02 -0.25914937807E+02  0.35268539908E+02  0.51100000000E-03 0.  1.
         23    2    1    0    0    0  0.31812693597E+02 -0.16450827711E+01 -0.19382669158E+02  0.87711373920E+02  0.79390449552E+02 0.  0.
         11    1    3    3    0    0  0.48539841355E+02 -0.18747375990E+02  0.65322686490E+01  0.52442834012E+02  0.51100000000E-03 0. -1.
         22    1    1    0    0    0 -0.31812693597E+02  0.16450827711E+01  0.19382669158E+02  0.37288626080E+02  0.00000000000E+00 0.  1.
</event>
<event>
 5    1  0.8952932E-005  0.9118800E+02  0.7818608E-02  0.1130116E+00
         25   -1    0    0    0    0  0.00000000000E+00  0.00000000000E+00  0.99999998245E-14  0.12500000000E+03  0.12500000000E+03 0.  0.
        -11    1    3    3    0    0  0.31114935944E+02  0.28242600989E+02 -0.23800315893E+02  0.48293258186E+02  0.51100000000E-03 0.  1.
         23    2    1    0    0    0  0.13821619259E+02  0.14307356021E+02  0.19617131196E+02  0.97061327311E+02  0.92953385241E+02 0.  0.
         11    1    3    3    0    0 -0.17293316685E+02 -0.13935244967E+02  0.43417447088E+02  0.48768069125E+02  0.51100000000E-03 0. -1.
         22    1    1    0    0    0 -0.13821619259E+02 -0.14307356021E+02 -0.19617131196E+02  0.27938672689E+02  0.00000000000E+00 0. -1.
</event>
<event>
 5    1  0.8952932E-005  0.9118800E+02  0.7818608E-02  0.1130116E+00
         25   -1    0    0    0    0  0.00000000000E+00  0.00000000000E+00  0.99999998245E-14  0.12500000000E+03  0.12500000000E+03 0.  0.
        -11    1    3    3    0    0  0.24714444383E+02  0.33958560041E+02  0.25258501489E+02  0.49009993460E+02  0.51100000000E-03 0.  1.
         23    2    1    0    0    0 -0.61480180762E+01 -0.12398708187E+00  0.29201353729E+02  0.95158207851E+02  0.90357910350E+02 0.  0.
         11    1    3    3    0    0 -0.30862462459E+02 -0.34082547123E+02  0.39428522398E+01  0.46148214391E+02  0.51100000000E-03 0. -1.
         22    1    1    0    0    0  0.61480180762E+01  0.12398708187E+00 -0.29201353729E+02  0.29841792149E+02  0.00000000000E+00 0.  1.
</event>
<event>
 5    1  0.8952932E-005  0.9118800E+02  0.7818608E-02  0.1130116E+00
         25   -1    0    0    0    0  0.00000000000E+00  0.00000000000E+00  0.99999998245E-14  0.12500000000E+03  0.12500000000E+03 0.  0.
        -11    1    3    3    0    0 -0.22277776412E+02  0.46497547770E+02 -0.34367514118E+02  0.61963273779E+02  0.51100000000E-03 0. -1.
         23    2    1    0    0    0 -0.15365015244E+02  0.20578064947E+02 -0.13260330922E+02  0.96097113871E+02  0.91647577533E+02 0.  0.
         11    1    3    3    0    0  0.69127611680E+01 -0.25919482822E+02  0.21107183196E+02  0.34133840092E+02  0.51100000000E-03 0.  1.
         22    1    1    0    0    0  0.15365015244E+02 -0.20578064947E+02  0.13260330922E+02  0.28902886129E+02  0.00000000000E+00 0. -1.
</event>
<event>
 5    1  0.8952932E-005  0.9118800E+02  0.7818608E-02  0.1130116E+00
         25   -1    0    0    0    0  0.00000000000E+00  0.00000000000E+00  0.99999998245E-14  0.12500000000E+03  0.12500000000E+03 0.  0.
        -11    1    3    3    0    0 -0.21743549724E+02  0.32797299282E+02 -0.62880286925E+00  0.39355306988E+02  0.51100000000E-03 0.  1.
         23    2    1    0    0    0 -0.46438122234E+01 -0.16226289321E+02 -0.23481376983E+02  0.96082314718E+02  0.91627390443E+02 0.  0.
         11    1    3    3    0    0  0.17099737501E+02 -0.49023588603E+02 -0.22852574114E+02  0.56727007730E+02  0.51100000000E-03 0. -1.
         22    1    1    0    0    0  0.46438122234E+01  0.16226289321E+02  0.23481376983E+02  0.28917685282E+02  0.00000000000E+00 0. -1.
</event>
<event>
 5    1  0.8952932E-005  0.9118800E+02  0.7818608E-02  0.1130116E+00
         25   -1    0    0    0    0  0.00000000000E+00  0.00000000000E+00  0.99999998245E-14  0.12500000000E+03  0.12500000000E+03 0.  0.
        -11    1    3    3    0    0 -0.20677372103E+02 -0.42200538114E+02 -0.36925856805E+02  0.59765860114E+02  0.51100000000E-03 0. -1.
         23    2    1    0    0    0 -0.26128840366E+01 -0.12204047435E+02 -0.25518326968E+02  0.96593117946E+02  0.92321608989E+02 0.  0.
         11    1    3    3    0    0  0.18064488066E+02  0.29996490678E+02  0.11407529837E+02  0.36827257831E+02  0.51100000000E-03 0.  1.
         22    1    1    0    0    0  0.26128840366E+01  0.12204047435E+02  0.25518326968E+02  0.28406882054E+02  0.00000000000E+00 0. -1.
</event>
<event>
 5    1  0.8952932E-005  0.9118800E+02  0.7818608E-02  0.1130116E+00
         25   -1    0    0    0    0  0.00000000000E+00  0.00000000000E+00  0.99999998245E-14  0.12500000000E+03  0.12500000000E+03 0.  0.
        -11    1    3    3    0    0 -0.37250806129E+01 -0.21954932575E+02  0.50614109125E+02  0.55296322959E+02  0.51100000000E-03 0. -1.
         23    2    1    0    0    0  0.67256146597E+01  0.98322243773E+01  0.24556272682E+02  0.97706831317E+02  0.93817417515E+02 0.  0.
         11    1    3    3    0    0  0.10450695273E+02  0.31787156953E+02 -0.26057836444E+02  0.42410508358E+02  0.51100000000E-03 0.  1.
         22    1    1    0    0    0 -0.67256146597E+01 -0.98322243773E+01 -0.24556272682E+02  0.27293168683E+02  0.00000000000E+00 0. -1.
</event>
<event>
 5    1  0.8952932E-005  0.9118800E+02  0.7818608E-02  0.1130116E+00
         25   -1    0    0    0    0  0.00000000000E+00  0.00000000000E+00  0.99999998245E-14  0.12500000000E+03  0.12500000000E+03 0.  0.
        -11    1    3    3    0    0 -0.11768671820E+02 -0.47414193493E+02  0.21055133183E+01  0.48898267532E+02  0.51100000000E-03 0.  1.
         23    2    1    0    0    0  0.14390087447E+01 -0.68738172990E+01  0.26201548034E+02  0.97873606399E+02  0.94039361970E+02 0.  0.
         11    1    3    3    0    0  0.13207680565E+02  0.40540376194E+02  0.24096034716E+02  0.48975338867E+02  0.51100000000E-03 0. -1.
         22    1    1    0    0    0 -0.14390087447E+01  0.68738172990E+01 -0.26201548034E+02  0.27126393601E+02  0.00000000000E+00 0.  1.
</event>
<event>
 5    1  0.8952932E-005  0.9118800E+02  0.7818608E-02  0.1130116E+00
         25   -1    0    0    0    0  0.00000000000E+00  0.00000000000E+00  0.99999998245E-14  0.12500000000E+03  0.12500000000E+03 0.  0.
        -11    1    3    3    0    0 -0.66207935366E+00  0.50884332754E+02  0.13910886478E+02  0.52755724161E+02  0.51100000000E-03 0.  1.
         23    2    1    0    0    0  0.22364289677E+02  0.15074840046E+02  0.12292146459E+02  0.95360345485E+02  0.90637113653E+02 0.  0.
         11    1    3    3    0    0  0.23026369031E+02 -0.35809492707E+02 -0.16187400190E+01  0.42604621324E+02  0.51100000000E-03 0. -1.
         22    1    1    0    0    0 -0.22364289677E+02 -0.15074840046E+02 -0.12292146459E+02  0.29639654515E+02  0.00000000000E+00 0.  1.
</event>
<event>
 5    1  0.8952932E-005  0.9118800E+02  0.7818608E-02  0.1130116E+00
         25   -1    0    0    0    0  0.00000000000E+00  0.00000000000E+00  0.99999998245E-14  0.12500000000E+03  0.12500000000E+03 0.  0.
        -11    1    3    3    0    0  0.10618535330E+02 -0.28625443189E+01 -0.34767849572E+02  0.36465748541E+02  0.51100000000E-03 0.  1.
         23    2    1    0    0    0 -0.22260075453E+02  0.41329629407E+00  0.16381356404E+02  0.97358896357E+02  0.93352686566E+02 0.  0.
         11    1    3    3    0    0 -0.32878610782E+02  0.32758406130E+01  0.51149205976E+02  0.60893147816E+02  0.51100000000E-03 0. -1.
         22    1    1    0    0    0  0.22260075453E+02 -0.41329629407E+00 -0.16381356404E+02  0.27641103643E+02  0.00000000000E+00 0. -1.
</event>
<event>
 5    1  0.8952932E-005  0.9118800E+02  0.7818608E-02  0.1130116E+00
         25   -1    0    0    0    0  0.00000000000E+00  0.00000000000E+00  0.99999998245E-14  0.12500000000E+03  0.12500000000E+03 0.  0.
        -11    1    3    3    0    0  0.21174623015E+02  0.20128446107E+02 -0.51320964161E+02  0.59053876800E+02  0.51100000000E-03 0. -1.
         23    2    1    0    0    0  0.17555963969E+02 -0.31626604973E+01 -0.22566323709E+02  0.96234512727E+02  0.91834787427E+02 0.  0.
         11    1    3    3    0    0 -0.36186590456E+01 -0.23291106604E+02  0.28754640452E+02  0.37180635926E+02  0.51100000000E-03 0.  1.
         22    1    1    0    0    0 -0.17555963969E+02  0.31626604973E+01  0.22566323709E+02  0.28765487273E+02  0.00000000000E+00 0. -1.
</event>
<event>
 5    1  0.8952932E-005  0.9118800E+02  0.7818608E-02  0.1130116E+00
         25   -1    0    0    0    0  0.00000000000E+00  0.00000000000E+00  0.99999998245E-14  0.12500000000E+03  0.12500000000E+03 0.  0.
        -11    1    3    3    0    0 -0.42704250481E+01  0.14566994150E+02  0.42435939736E+02  0.45069311401E+02  0.51100000000E-03 0.  1.
         23    2    1    0    0    0 -0.25129098449E+02  0.98471480241E+01 -0.54066288440E+01  0.97474202127E+02  0.93506954457E+02 0.  0.
         11    1    3    3    0    0 -0.20858673401E+02 -0.47198461257E+01 -0.47842568580E+02  0.52404890726E+02  0.51100000000E-03 0. -1.
         22    1    1    0    0    0  0.25129098449E+02 -0.98471480241E+01  0.54066288440E+01  0.27525797873E+02  0.00000000000E+00 0. -1.
</event>
<event>
 5    1  0.8952932E-005  0.9118800E+02  0.7818608E-02  0.1130116E+00
         25   -1    0    0    0    0  0.00000000000E+00  0.00000000000E+00  0.99999998245E-14  0.12500000000E+03  0.12500000000E+03 0.  0.
        -11    1    3    3    0    0 -0.58582707935E+02 -0.19234935732E+02  0.22612787391E+01  0.61701132918E+02  0.51100000000E-03 0. -1.
         23    2    1    0    0    0 -0.24394123729E+02 -0.14488873374E+02  0.44210937366E+01  0.96285077155E+02  0.91903586919E+02 0.  0.
         11    1    3    3    0    0  0.34188584205E+02  0.47460623578E+01  0.21598149975E+01  0.34583944236E+02  0.51100000000E-03 0.  1.
         22    1    1    0    0    0  0.24394123729E+02  0.14488873374E+02 -0.44210937366E+01  0.28714922845E+02  0.00000000000E+00 0. -1.
</event>
<event>
 5    1  0.8952932E-005  0.9118800E+02  0.7818608E-02  0.1130116E+00
         25   -1    0    0    0    0  0.00000000000E+00  0.00000000000E+00  0.99999998245E-14  0.12500000000E+03  0.12500000000E+03 0.  0.
        -11    1    3    3    0    0  0.26300592238E+02 -0.36243106082E+02  0.37776957295E+01  0.44939457894E+02  0.51100000000E-03 0.  1.
         23    2    1    0    0    0 -0.21573528604E+02 -0.17823961427E+02  0.63697546971E+01  0.96300095605E+02  0.91924011560E+02 0.  0.
         11    1    3    3    0    0 -0.47874120842E+02  0.18419144655E+02  0.25920589676E+01  0.51360637711E+02  0.51100000000E-03 0. -1.
         22    1    1    0    0    0  0.21573528604E+02  0.17823961427E+02 -0.63697546971E+01  0.28699904395E+02  0.00000000000E+00 0.  1.
</event>
<event>
 5    1  0.8952932E-005  0.9118800E+02  0.7818608E-02  0.1130116E+00
         25   -1    0    0    0    0  0.00000000000E+00  0.00000000000E+00  0.99999998245E-14  0.12500000000E+03  0.12500000000E+03 0.  0.
        -11    1    3    3    0    0 -0.23615539935E+02 -0.29755830130E+02 -0.60703716517E+01  0.38470151617E+02  0.51100000000E-03 0.  1.
         23    2    1    0    0    0  0.26650013687E+02 -0.46219494261E+01  0.87170796163E+01  0.96582168924E+02  0.92306783234E+02 0.  0.
         11    1    3    3    0    0  0.50265553623E+02  0.25133880704E+02  0.14787451268E+02  0.58112017307E+02  0.51100000000E-03 0. -1.
         22    1    1    0    0    0 -0.26650013687E+02  0.46219494261E+01 -0.87170796163E+01  0.28417831076E+02  0.00000000000E+00 0. -1.
</event>
<event>
 5    1  0.8952932E-005  0.9118800E+02  0.7818608E-02  0.1130116E+00
         25   -1    0    0    0    0  0.00000000000E+00  0.00000000000E+00  0.99999998245E-14  0.12500000000E+03  0.12500000000E+03 0.  0.
        -11    1    3    3    0    0  0.12371907722E+02  0.22397255289E+02 -0.35883520169E+02  0.44071852300E+02  0.51100000000E-03 0. -1.
         23    2    1    0    0    0  0.23788922834E+02  0.13211889822E+02  0.12811190907E+02  0.94923539193E+02  0.90032687387E+02 0.  0.
         11    1    3    3    0    0  0.11417015112E+02 -0.91853654674E+01  0.48694711076E+02  0.50851686893E+02  0.51100000000E-03 0.  1.
         22    1    1    0    0    0 -0.23788922834E+02 -0.13211889822E+02 -0.12811190907E+02  0.30076460807E+02  0.00000000000E+00 0.  1.
</event>
<event>
 5    1  0.8952932E-005  0.9118800E+02  0.7818608E-02  0.1130116E+00
         25   -1    0    0    0    0  0.00000000000E+00  0.00000000000E+00  0.99999998245E-14  0.12500000000E+03  0.12500000000E+03 0.  0.
        -11    1    3    3    0    0  0.12841768087E+02  0.29207619950E+02 -0.18508764666E+02  0.36885911138E+02  0.51100000000E-03 0.  1.
         23    2    1    0    0    0 -0.26681494528E+02 -0.11425705627E+02 -0.20933994881E+01  0.95899635385E+02  0.91377835639E+02 0.  0.
         11    1    3    3    0    0 -0.39523262615E+02 -0.40633325578E+02  0.16415365178E+02  0.59013724246E+02  0.51100000000E-03 0. -1.
         22    1    1    0    0    0  0.26681494528E+02  0.11425705627E+02  0.20933994881E+01  0.29100364615E+02  0.00000000000E+00 0. -1.
</event>
<event>
 5    1  0.8952932E-005  0.9118800E+02  0.7818608E-02  0.1130116E+00
         25   -1    0    0    0    0  0.00000000000E+00  0.00000000000E+00  0.99999998245E-14  0.12500000000E+03  0.12500000000E+03 0.  0.
        -11    1    3    3    0    0  0.24614787987E+02  0.16872930630E+02  0.20005404956E+02  0.35927702452E+02  0.51100000000E-03 0. -1.
         23    2    1    0    0    0 -0.42579661033E+01 -0.28795511856E+02 -0.50026492753E+01  0.95464626663E+02  0.90780816618E+02 0.  0.
         11    1    3    3    0    0 -0.28872754091E+02 -0.45668442486E+02 -0.25008054232E+02  0.59536924212E+02  0.51100000000E-03 0.  1.
         22    1    1    0    0    0  0.42579661033E+01  0.28795511856E+02  0.50026492753E+01  0.29535373337E+02  0.00000000000E+00 0.  1.
</event>
<event>
 4    1  0.8952932E-005  0.9118800E+02  0.7818608E-02  0.1130116E+00
         25   -1    0    0    0    0  0.00000000000E+00  0.00000000000E+00  0.99999998245E-14  0.12500000000E+03  0.12500000000E+03 0.  0.
        -11    1    1    0    0    0 -0.13522386343E+01 -0.27570088861E+01  0.59234767621E+01  0.66721229406E+01  0.51100000000E-03 0. -1.
         11    1    1    0    0    0  0.68394183038E+01 -0.25391577630E+02 -0.55296138132E+02  0.61230488728E+02  0.51100000000E-03 0.  1.
         22    1    1    0    0    0 -0.54871796694E+01  0.28148586516E+02  0.49372661370E+02  0.57097388332E+02  0.00000000000E+00 0.  1.
</event>
<event>
 5    1  0.8952932E-005  0.9118800E+02  0.7818608E-02  0.1130116E+00
         25   -1    0    0    0    0  0.00000000000E+00  0.00000000000E+00  0.99999998245E-14  0.12500000000E+03  0.12500000000E+03 0.  0.
        -11    1    3    3    0    0 -0.17707957595E+02  0.25356924252E+02 -0.79659222459E+01  0.31937458997E+02  0.51100000000E-03 0.  1.
         23    2    1    0    0    0  0.21880165423E+02 -0.94898553790E+01  0.21963302462E+02  0.92578006707E+02  0.86715060266E+02 0.  0.
         11    1    3    3    0    0  0.39588123018E+02 -0.34846779631E+02  0.29929224708E+02  0.60640547710E+02  0.51100000000E-03 0. -1.
         22    1    1    0    0    0 -0.21880165423E+02  0.94898553790E+01 -0.21963302462E+02  0.32421993293E+02  0.00000000000E+00 0. -1.
</event>
<event>
 5    1  0.8952932E-005  0.9118800E+02  0.7818608E-02  0.1130116E+00
         25   -1    0    0    0    0  0.00000000000E+00  0.00000000000E+00  0.99999998245E-14  0.12500000000E+03  0.12500000000E+03 0.  0.
        -11    1    3    3    0    0  0.17348488536E+02  0.88261951419E+01  0.39786272105E+02  0.44292428511E+02  0.51100000000E-03 0.  1.
         23    2    1    0    0    0 -0.25836255281E+02  0.75670712857E+01  0.17324854613E+02  0.92985577592E+02  0.87300597924E+02 0.  0.
         11    1    3    3    0    0 -0.43184743816E+02 -0.12591238562E+01 -0.22461417492E+02  0.48693149081E+02  0.51100000000E-03 0. -1.
         22    1    1    0    0    0  0.25836255281E+02 -0.75670712857E+01 -0.17324854613E+02  0.32014422408E+02  0.00000000000E+00 0. -1.
</event>
<event>
 5    1  0.8952932E-005  0.9118800E+02  0.7818608E-02  0.1130116E+00
         25   -1    0    0    0    0  0.00000000000E+00  0.00000000000E+00  0.99999998245E-14  0.12500000000E+03  0.12500000000E+03 0.  0.
        -11    1    3    3    0    0  0.25209718976E+02 -0.10749111357E+02 -0.36358203233E+02  0.45530124845E+02  0.51100000000E-03 0.  1.
         23    2    1    0    0    0 -0.33665292002E+01  0.24282637610E+02 -0.19107353856E+02  0.93918317621E+02  0.88626065044E+02 0.  0.
         11    1    3    3    0    0 -0.28576248176E+02  0.35031748967E+02  0.17250849378E+02  0.48388192775E+02  0.51100000000E-03 0. -1.
         22    1    1    0    0    0  0.33665292002E+01 -0.24282637610E+02  0.19107353856E+02  0.31081682379E+02  0.00000000000E+00 0.  1.
</event>
<event>
 5    1  0.8952932E-005  0.9118800E+02  0.7818608E-02  0.1130116E+00
         25   -1    0    0    0    0  0.00000000000E+00  0.00000000000E+00  0.99999998245E-14  0.12500000000E+03  0.12500000000E+03 0.  0.
        -11    1    3    3    0    0  0.11897765867E+02  0.28342816439E+02  0.52252179966E+02  0.60623117602E+02  0.51100000000E-03 0.  1.
         23    2    1    0    0    0  0.13330516980E+02  0.67442165880E+01  0.28915713645E+02  0.92453024166E+02  0.86534710039E+02 0.  0.
         11    1    3    3    0    0  0.14327511127E+01 -0.21598599851E+02 -0.23336466321E+02  0.31829906564E+02  0.51100000000E-03 0. -1.
         22    1    1    0    0    0 -0.13330516980E+02 -0.67442165880E+01 -0.28915713645E+02  0.32546975834E+02  0.00000000000E+00 0.  1.
</event>
<event>
 5    1  0.8952932E-005  0.9118800E+02  0.7818608E-02  0.1130116E+00
         25   -1    0    0    0    0  0.00000000000E+00  0.00000000000E+00  0.99999998245E-14  0.12500000000E+03  0.12500000000E+03 0.  0.
        -11    1    3    3    0    0 -0.31600973230E+02  0.11547162412E+02  0.21872293822E+02  0.40129237547E+02  0.51100000000E-03 0.  1.
         23    2    1    0    0    0  0.19219502983E+02  0.22166332019E+02  0.24564090002E+01  0.95559050367E+02  0.90910739695E+02 0.  0.
         11    1    3    3    0    0  0.50820476213E+02  0.10619169607E+02 -0.19415884822E+02  0.55429812820E+02  0.51100000000E-03 0. -1.
         22    1    1    0    0    0 -0.19219502983E+02 -0.22166332019E+02 -0.24564090002E+01  0.29440949633E+02  0.00000000000E+00 0. -1.
</event>
<event>
 5    1  0.8952932E-005  0.9118800E+02  0.7818608E-02  0.1130116E+00
         25   -1    0    0    0    0  0.00000000000E+00  0.00000000000E+00  0.99999998245E-14  0.12500000000E+03  0.12500000000E+03 0.  0.
        -11    1    3    3    0    0 -0.30804866732E+02 -0.31965740208E+02  0.34777094216E+02  0.56393214519E+02  0.51100000000E-03 0.  1.
         23    2    1    0    0    0 -0.23997594885E+02 -0.15362379148E+02 -0.10757455766E+01  0.96486065127E+02  0.92176549522E+02 0.  0.
         11    1    3    3    0    0  0.68072718464E+01  0.16603361060E+02 -0.35852839792E+02  0.40092850608E+02  0.51100000000E-03 0. -1.
         22    1    1    0    0    0  0.23997594885E+02  0.15362379148E+02  0.10757455766E+01  0.28513934873E+02  0.00000000000E+00 0.  1.
</event>
<event>
 5    1  0.8952932E-005  0.9118800E+02  0.7818608E-02  0.1130116E+00
         25   -1    0    0    0    0  0.00000000000E+00  0.00000000000E+00  0.99999998245E-14  0.12500000000E+03  0.12500000000E+03 0.  0.
        -11    1    3    3    0    0  0.80656791045E+01 -0.54749390636E+02 -0.26834969534E+02  0.61503386448E+02  0.51100000000E-03 0.  1.
         23    2    1    0    0    0  0.56080774816E+01 -0.32176284397E+02 -0.71263038297E+01  0.91570252515E+02  0.85250003688E+02 0.  0.
         11    1    3    3    0    0 -0.24576016229E+01  0.22573106239E+02  0.19708665704E+02  0.30066866068E+02  0.51100000000E-03 0. -1.
         22    1    1    0    0    0 -0.56080774816E+01  0.32176284397E+02  0.71263038297E+01  0.33429747485E+02  0.00000000000E+00 0.  1.
</event>
<event>
 5    1  0.8952932E-005  0.9118800E+02  0.7818608E-02  0.1130116E+00
         25   -1    0    0    0    0  0.00000000000E+00  0.00000000000E+00  0.99999998245E-14  0.12500000000E+03  0.12500000000E+03 0.  0.
        -11    1    3    3    0    0  0.19499694879E+02  0.45873608431E+02  0.18155471552E+02  0.53049478776E+02  0.51100000000E-03 0. -1.
         23    2    1    0    0    0 -0.14154939307E+02  0.21279192986E+02 -0.20281640148E+01  0.99362531128E+02  0.95998087387E+02 0.  0.
         11    1    3    3    0    0 -0.33654634186E+02 -0.24594415445E+02 -0.20183635567E+02  0.46313052352E+02  0.51100000000E-03 0.  1.
         22    1    1    0    0    0  0.14154939307E+02 -0.21279192986E+02  0.20281640148E+01  0.25637468872E+02  0.00000000000E+00 0. -1.
</event>
<event>
 5    1  0.8952932E-005  0.9118800E+02  0.7818608E-02  0.1130116E+00
         25   -1    0    0    0    0  0.00000000000E+00  0.00000000000E+00  0.99999998245E-14  0.12500000000E+03  0.12500000000E+03 0.  0.
        -11    1    3    3    0    0  0.47595509187E+02 -0.50351228768E+01  0.27805539634E+02  0.55351901428E+02  0.51100000000E-03 0.  1.
         23    2    1    0    0    0  0.89439981333E+01  0.68207000131E+01  0.26957789774E+02  0.95789736722E+02  0.91227376267E+02 0.  0.
         11    1    3    3    0    0 -0.38651511054E+02  0.11855822890E+02 -0.84774985972E+00  0.40437835294E+02  0.51100000000E-03 0. -1.
         22    1    1    0    0    0 -0.89439981333E+01 -0.68207000131E+01 -0.26957789774E+02  0.29210263278E+02  0.00000000000E+00 0.  1.
</event>
<event>
 5    1  0.8952932E-005  0.9118800E+02  0.7818608E-02  0.1130116E+00
         25   -1    0    0    0    0  0.00000000000E+00  0.00000000000E+00  0.99999998245E-14  0.12500000000E+03  0.12500000000E+03 0.  0.
        -11    1    3    3    0    0  0.20569692340E+02 -0.24225978050E+02  0.25619381600E+02  0.40821109359E+02  0.51100000000E-03 0.  1.
         23    2    1    0    0    0 -0.24596953495E+02 -0.62471744360E+01  0.24909798164E+02  0.89439694121E+02  0.82066579861E+02 0.  0.
         11    1    3    3    0    0 -0.45166645835E+02  0.17978803614E+02 -0.70958343664E+00  0.48618584762E+02  0.51100000000E-03 0. -1.
         22    1    1    0    0    0  0.24596953495E+02  0.62471744360E+01 -0.24909798164E+02  0.35560305879E+02  0.00000000000E+00 0. -1.
</event>
<event>
 5    1  0.8952932E-005  0.9118800E+02  0.7818608E-02  0.1130116E+00
         25   -1    0    0    0    0  0.00000000000E+00  0.00000000000E+00  0.99999998245E-14  0.12500000000E+03  0.12500000000E+03 0.  0.
        -11    1    3    3    0    0  0.35159479953E+02  0.46188699284E+01  0.89596120390E+01  0.36575916094E+02  0.51100000000E-03 0.  1.
         23    2    1    0    0    0 -0.23660769156E+02 -0.12044385745E+02  0.59886052988E+01  0.97783045386E+02  0.93918908355E+02 0.  0.
         11    1    3    3    0    0 -0.58820249109E+02 -0.16663255673E+02 -0.29710067402E+01  0.61207129292E+02  0.51100000000E-03 0. -1.
         22    1    1    0    0    0  0.23660769156E+02  0.12044385745E+02 -0.59886052988E+01  0.27216954614E+02  0.00000000000E+00 0. -1.
</event>
<event>
 5    1  0.8952932E-005  0.9118800E+02  0.7818608E-02  0.1130116E+00
         25   -1    0    0    0    0  0.00000000000E+00  0.00000000000E+00  0.99999998245E-14  0.12500000000E+03  0.12500000000E+03 0.  0.
        -11    1    3    3    0    0  0.34481637001E+02  0.22009998804E+02 -0.54079265756E+01  0.41263410035E+02  0.51100000000E-03 0. -1.
         23    2    1    0    0    0  0.32306151428E+01 -0.24515869655E+02 -0.11665247559E+02  0.97658772161E+02  0.93753362820E+02 0.  0.
         11    1    3    3    0    0 -0.31251021858E+02 -0.46525868459E+02 -0.62573209835E+01  0.56395362125E+02  0.51100000000E-03 0.  1.
         22    1    1    0    0    0 -0.32306151428E+01  0.24515869655E+02  0.11665247559E+02  0.27341227839E+02  0.00000000000E+00 0.  1.
</event>
<event>
 5    1  0.8952932E-005  0.9118800E+02  0.7818608E-02  0.1130116E+00
         25   -1    0    0    0    0  0.00000000000E+00  0.00000000000E+00  0.99999998245E-14  0.12500000000E+03  0.12500000000E+03 0.  0.
        -11    1    3    3    0    0  0.52910138201E+02  0.14063419368E+02  0.16640283723E+02  0.57220289508E+02  0.51100000000E-03 0. -1.
         23    2    1    0    0    0  0.14706944267E+02  0.18401922904E+02  0.17460442613E+02  0.95677789434E+02  0.91073856614E+02 0.  0.
         11    1    3    3    0    0 -0.38203193934E+02  0.43385035360E+01  0.82015889063E+00  0.38457499926E+02  0.51100000000E-03 0.  1.
         22    1    1    0    0    0 -0.14706944267E+02 -0.18401922904E+02 -0.17460442613E+02  0.29322210566E+02  0.00000000000E+00 0. -1.
</event>
<event>
 5    1  0.8952932E-005  0.9118800E+02  0.7818608E-02  0.1130116E+00
         25   -1    0    0    0    0  0.00000000000E+00  0.00000000000E+00  0.99999998245E-14  0.12500000000E+03  0.12500000000E+03 0.  0.
        -11    1    3    3    0    0  0.41987407532E+02 -0.16168499458E+02 -0.45917211297E+01  0.45226614611E+02  0.51100000000E-03 0.  1.
         23    2    1    0    0    0  0.17844106564E+02  0.24212083353E+02  0.78963753774E+01  0.93903539374E+02  0.88605219053E+02 0.  0.
         11    1    3    3    0    0 -0.24143300967E+02  0.40380582811E+02  0.12488096507E+02  0.48676924763E+02  0.51100000000E-03 0. -1.
         22    1    1    0    0    0 -0.17844106564E+02 -0.24212083353E+02 -0.78963753774E+01  0.31096460626E+02  0.00000000000E+00 0. -1.
</event>
<event>
 5    1  0.8952932E-005  0.9118800E+02  0.7818608E-02  0.1130116E+00
         25   -1    0    0    0    0  0.00000000000E+00  0.00000000000E+00  0.99999998245E-14  0.12500000000E+03  0.12500000000E+03 0.  0.
        -11    1    3    3    0    0 -0.91482721332E+01  0.35824207211E+02 -0.21045163706E+02  0.42543667225E+02  0.51100000000E-03 0.  1.
         23    2    1    0    0    0  0.11659145213E+02 -0.12313193248E+02 -0.24617704333E+02  0.95107162033E+02  0.90287266590E+02 0.  0.
         11    1    3    3    0    0  0.20807417346E+02 -0.48137400460E+02 -0.35725406274E+01  0.52563494808E+02  0.51100000000E-03 0. -1.
         22    1    1    0    0    0 -0.11659145213E+02  0.12313193248E+02  0.24617704333E+02  0.29892837967E+02  0.00000000000E+00 0. -1.
</event>
<event>
 5    1  0.8952932E-005  0.9118800E+02  0.7818608E-02  0.1130116E+00
         25   -1    0    0    0    0  0.00000000000E+00  0.00000000000E+00  0.99999998245E-14  0.12500000000E+03  0.12500000000E+03 0.  0.
        -11    1    3    3    0    0 -0.22263612022E+02 -0.85236144101E+01 -0.26173148485E+02  0.35402741769E+02  0.51100000000E-03 0. -1.
         23    2    1    0    0    0 -0.44167888157E+01 -0.12229765788E+02  0.28843917633E+02  0.93360676697E+02  0.87836035738E+02 0.  0.
         11    1    3    3    0    0  0.17846823206E+02 -0.37061513779E+01  0.55017066118E+02  0.57957934928E+02  0.51100000000E-03 0.  1.
         22    1    1    0    0    0  0.44167888157E+01  0.12229765788E+02 -0.28843917633E+02  0.31639323303E+02  0.00000000000E+00 0.  1.
</event>
<event>
 5    1  0.8952932E-005  0.9118800E+02  0.7818608E-02  0.1130116E+00
         25   -1    0    0    0    0  0.00000000000E+00  0.00000000000E+00  0.99999998245E-14  0.12500000000E+03  0.12500000000E+03 0.  0.
        -11    1    3    3    0    0 -0.17009858687E+02  0.85072708503E+00 -0.26589143688E+02  0.31575965408E+02  0.51100000000E-03 0. -1.
         23    2    1    0    0    0 -0.27693738090E+02  0.27074848634E+02  0.16308323915E+02  0.82976768486E+02  0.71548529835E+02 0.  0.
         11    1    3    3    0    0 -0.10683879403E+02  0.26224121549E+02  0.42897467603E+02  0.51400803078E+02  0.51100000000E-03 0.  1.
         22    1    1    0    0    0  0.27693738090E+02 -0.27074848634E+02 -0.16308323915E+02  0.42023231514E+02  0.00000000000E+00 0.  1.
</event>
<event>
 5    1  0.8952932E-005  0.9118800E+02  0.7818608E-02  0.1130116E+00
         25   -1    0    0    0    0  0.00000000000E+00  0.00000000000E+00  0.99999998245E-14  0.12500000000E+03  0.12500000000E+03 0.  0.
        -11    1    3    3    0    0  0.63020424574E+00  0.59748762604E+02 -0.48154685765E+01  0.59945813265E+02  0.51100000000E-03 0.  1.
         23    2    1    0    0    0 -0.11416523844E+02  0.27568774212E+02  0.24290024056E+01  0.95062158045E+02  0.90224938410E+02 0.  0.
         11    1    3    3    0    0 -0.12046728090E+02 -0.32179988392E+02  0.72444709821E+01  0.35116344779E+02  0.51100000000E-03 0. -1.
         22    1    1    0    0    0  0.11416523844E+02 -0.27568774212E+02 -0.24290024056E+01  0.29937841955E+02  0.00000000000E+00 0.  1.
</event>
<event>
 5    1  0.8952932E-005  0.9118800E+02  0.7818608E-02  0.1130116E+00
         25   -1    0    0    0    0  0.00000000000E+00  0.00000000000E+00  0.99999998245E-14  0.12500000000E+03  0.12500000000E+03 0.  0.
        -11    1    3    3    0    0 -0.10579342804E+02  0.18310735686E+01 -0.28246605297E+02  0.30218306300E+02  0.51100000000E-03 0.  1.
         23    2    1    0    0    0  0.55895147513E+01 -0.68543061662E+01  0.31271353426E+02  0.92501973394E+02  0.86605388681E+02 0.  0.
         11    1    3    3    0    0  0.16168857556E+02 -0.86853797349E+01  0.59517958723E+02  0.62283667094E+02  0.51100000000E-03 0. -1.
         22    1    1    0    0    0 -0.55895147513E+01  0.68543061662E+01 -0.31271353426E+02  0.32498026606E+02  0.00000000000E+00 0. -1.
</event>
<event>
 5    1  0.8952932E-005  0.9118800E+02  0.7818608E-02  0.1130116E+00
         25   -1    0    0    0    0  0.00000000000E+00  0.00000000000E+00  0.99999998245E-14  0.12500000000E+03  0.12500000000E+03 0.  0.
        -11    1    3    3    0    0 -0.32090206287E+02  0.10466063366E+02 -0.29910022656E+01  0.33886072607E+02  0.51100000000E-03 0. -1.
         23    2    1    0    0    0  0.28878102573E+02  0.55327079039E+01 -0.54174766116E+01  0.95101760624E+02  0.90279788192E+02 0.  0.
         11    1    3    3    0    0  0.60968308860E+02 -0.49333554622E+01 -0.24264743460E+01  0.61215688017E+02  0.51100000000E-03 0.  1.
         22    1    1    0    0    0 -0.28878102573E+02 -0.55327079039E+01  0.54174766116E+01  0.29898239376E+02  0.00000000000E+00 0.  1.
</event>
<event>
 5    1  0.8952932E-005  0.9118800E+02  0.7818608E-02  0.1130116E+00
         25   -1    0    0    0    0  0.00000000000E+00  0.00000000000E+00  0.99999998245E-14  0.12500000000E+03  0.12500000000E+03 0.  0.
        -11    1    3    3    0    0  0.10361332223E+02 -0.80319597512E+01  0.56000450791E+02  0.57514520532E+02  0.51100000000E-03 0. -1.
         23    2    1    0    0    0 -0.12136822515E+02 -0.81057763465E+01  0.27913160545E+02  0.93501577777E+02  0.88036324572E+02 0.  0.
         11    1    3    3    0    0 -0.22498154738E+02 -0.73816595219E-01 -0.28087290246E+02  0.35987057245E+02  0.51100000000E-03 0.  1.
         22    1    1    0    0    0  0.12136822515E+02  0.81057763465E+01 -0.27913160545E+02  0.31498422223E+02  0.00000000000E+00 0. -1.
</event>
<event>
 5    1  0.8952932E-005  0.9118800E+02  0.7818608E-02  0.1130116E+00
         25   -1    0    0    0    0  0.00000000000E+00  0.00000000000E+00  0.99999998245E-14  0.12500000000E+03  0.12500000000E+03 0.  0.
        -11    1    3    3    0    0 -0.18082419214E+02 -0.25039641876E+02  0.23956077652E+02  0.39087737292E+02  0.51100000000E-03 0. -1.
         23    2    1    0    0    0  0.20055633102E+02 -0.85399149298E+01 -0.16942045976E+02  0.97392184295E+02  0.93397248749E+02 0.  0.
         11    1    3    3    0    0  0.38138052316E+02  0.16499726946E+02 -0.40898123628E+02  0.58304447003E+02  0.51100000000E-03 0.  1.
         22    1    1    0    0    0 -0.20055633102E+02  0.85399149298E+01  0.16942045976E+02  0.27607815705E+02  0.00000000000E+00 0.  1.
</event>
<event>
 5    1  0.8952932E-005  0.9118800E+02  0.7818608E-02  0.1130116E+00
         25   -1    0    0    0    0  0.00000000000E+00  0.00000000000E+00  0.99999998245E-14  0.12500000000E+03  0.12500000000E+03 0.  0.
        -11    1    3    3    0    0 -0.16873843667E+02  0.50229150199E+02 -0.86276290528E+01  0.53685473949E+02  0.51100000000E-03 0. -1.
         23    2    1    0    0    0 -0.27136533190E+02  0.12386526376E+02  0.40565945468E+01  0.94895624428E+02  0.89993922612E+02 0.  0.
         11    1    3    3    0    0 -0.10262689523E+02 -0.37842623822E+02  0.12684223600E+02  0.41210150480E+02  0.51100000000E-03 0.  1.
         22    1    1    0    0    0  0.27136533190E+02 -0.12386526376E+02 -0.40565945468E+01  0.30104375572E+02  0.00000000000E+00 0. -1.
</event>
<event>
 5    1  0.8952932E-005  0.9118800E+02  0.7818608E-02  0.1130116E+00
         25   -1    0    0    0    0  0.00000000000E+00  0.00000000000E+00  0.99999998245E-14  0.12500000000E+03  0.12500000000E+03 0.  0.
        -11    1    3    3    0    0  0.47737603912E+02 -0.13741567413E+02 -0.14812962022E+02  0.51837566941E+02  0.51100000000E-03 0.  1.
         23    2    1    0    0    0  0.94916396119E+01  0.20726795869E+01 -0.28070596601E+02  0.95295697000E+02  0.90547911351E+02 0.  0.
         11    1    3    3    0    0 -0.38245964300E+02  0.15814247000E+02 -0.13257634578E+02  0.43458130060E+02  0.51100000000E-03 0. -1.
         22    1    1    0    0    0 -0.94916396119E+01 -0.20726795869E+01  0.28070596601E+02  0.29704303000E+02  0.00000000000E+00 0.  1.
</event>
<event>
 5    1  0.8952932E-005  0.9118800E+02  0.7818608E-02  0.1130116E+00
         25   -1    0    0    0    0  0.00000000000E+00  0.00000000000E+00  0.99999998245E-14  0.12500000000E+03  0.12500000000E+03 0.  0.
        -11    1    3    3    0    0  0.90598485888E+01  0.29039448282E+02 -0.29643167308E+02  0.42474554515E+02  0.51100000000E-03 0.  1.
         23    2    1    0    0    0 -0.16019871283E+01  0.10256429138E+02  0.23212144635E+02  0.99572370147E+02  0.96270932979E+02 0.  0.
         11    1    3    3    0    0 -0.10661835717E+02 -0.18783019144E+02  0.52855311943E+02  0.57097815631E+02  0.51100000000E-03 0. -1.
         22    1    1    0    0    0  0.16019871283E+01 -0.10256429138E+02 -0.23212144635E+02  0.25427629853E+02  0.00000000000E+00 0. -1.
</event>
<event>
 5    1  0.8952932E-005  0.9118800E+02  0.7818608E-02  0.1130116E+00
         25   -1    0    0    0    0  0.00000000000E+00  0.00000000000E+00  0.99999998245E-14  0.12500000000E+03  0.12500000000E+03 0.  0.
        -11    1    3    3    0    0 -0.17137804886E+02  0.38922792037E+01 -0.32671918213E+02  0.37098631156E+02  0.51100000000E-03 0. -1.
         23    2    1    0    0    0 -0.52410918358E+01  0.38600610377E+02 -0.27637931645E+00  0.86044223142E+02  0.76720634679E+02 0.  0.
         11    1    3    3    0    0  0.11896713050E+02  0.34708331173E+02  0.32395538896E+02  0.48945591986E+02  0.51100000000E-03 0.  1.
         22    1    1    0    0    0  0.52410918358E+01 -0.38600610377E+02  0.27637931645E+00  0.38955776858E+02  0.00000000000E+00 0.  1.
</event>
<event>
 5    1  0.8952932E-005  0.9118800E+02  0.7818608E-02  0.1130116E+00
         25   -1    0    0    0    0  0.00000000000E+00  0.00000000000E+00  0.99999998245E-14  0.12500000000E+03  0.12500000000E+03 0.  0.
        -11    1    3    3    0    0 -0.20606088538E+02 -0.42421751189E+02 -0.37491963012E+02  0.60248345617E+02  0.51100000000E-03 0.  1.
         23    2    1    0    0    0 -0.52729180476E+01 -0.12277226617E+02 -0.25644113300E+02  0.96083663698E+02  0.91629230732E+02 0.  0.
         11    1    3    3    0    0  0.15333170490E+02  0.30144524572E+02  0.11847849711E+02  0.35835318082E+02  0.51100000000E-03 0. -1.
         22    1    1    0    0    0  0.52729180476E+01  0.12277226617E+02  0.25644113300E+02  0.28916336302E+02  0.00000000000E+00 0.  1.
</event>
<event>
 5    1  0.8952932E-005  0.9118800E+02  0.7818608E-02  0.1130116E+00
         25   -1    0    0    0    0  0.00000000000E+00  0.00000000000E+00  0.99999998245E-14  0.12500000000E+03  0.12500000000E+03 0.  0.
        -11    1    3    3    0    0  0.22620745422E+02 -0.84720600333E+01 -0.22371518846E+02  0.32923529282E+02  0.51100000000E-03 0.  1.
         23    2    1    0    0    0 -0.15466817386E+01  0.73119071763E+01  0.30735893088E+02  0.93368507230E+02  0.87847178711E+02 0.  0.
         11    1    3    3    0    0 -0.24167427161E+02  0.15783967210E+02  0.53107411934E+02  0.60444977947E+02  0.51100000000E-03 0. -1.
         22    1    1    0    0    0  0.15466817386E+01 -0.73119071763E+01 -0.30735893088E+02  0.31631492770E+02  0.00000000000E+00 0. -1.
</event>
<event>
 5    1  0.8952932E-005  0.9118800E+02  0.7818608E-02  0.1130116E+00
         25   -1    0    0    0    0  0.00000000000E+00  0.00000000000E+00  0.99999998245E-14  0.12500000000E+03  0.12500000000E+03 0.  0.
        -11    1    3    3    0    0 -0.10169958339E+02  0.21788444195E+02 -0.26909429532E+02  0.36087141077E+02  0.51100000000E-03 0. -1.
         23    2    1    0    0    0  0.29104216261E+02 -0.65940306513E+00  0.97349221203E+01  0.94303763663E+02  0.89168048739E+02 0.  0.
         11    1    3    3    0    0  0.39274174600E+02 -0.22447847260E+02  0.36644351653E+02  0.58216622587E+02  0.51100000000E-03 0.  1.
         22    1    1    0    0    0 -0.29104216261E+02  0.65940306513E+00 -0.97349221203E+01  0.30696236337E+02  0.00000000000E+00 0.  1.
</event>
<event>
 5    1  0.8952932E-005  0.9118800E+02  0.7818608E-02  0.1130116E+00
         25   -1    0    0    0    0  0.00000000000E+00  0.00000000000E+00  0.99999998245E-14  0.12500000000E+03  0.12500000000E+03 0.  0.
        -11    1    3    3    0    0 -0.35624798923E+02 -0.39749678362E+02  0.23472070288E+01  0.53429136333E+02  0.51100000000E-03 0. -1.
         23    2    1    0    0    0 -0.68658956246E+01 -0.19742429618E+02 -0.20873823266E+02  0.95459848550E+02  0.90774237190E+02 0.  0.
         11    1    3    3    0    0  0.28758903299E+02  0.20007248744E+02 -0.23221030295E+02  0.42030712217E+02  0.51100000000E-03 0.  1.
         22    1    1    0    0    0  0.68658956246E+01  0.19742429618E+02  0.20873823266E+02  0.29540151450E+02  0.00000000000E+00 0.  1.
</event>
<event>
 5    1  0.8952932E-005  0.9118800E+02  0.7818608E-02  0.1130116E+00
         25   -1    0    0    0    0  0.00000000000E+00  0.00000000000E+00  0.99999998245E-14  0.12500000000E+03  0.12500000000E+03 0.  0.
        -11    1    3    3    0    0  0.22217484435E+02 -0.30325605565E+02  0.26655566652E+02  0.46084468114E+02  0.51100000000E-03 0. -1.
         23    2    1    0    0    0  0.24906919694E+02 -0.40446537317E+01 -0.15172314877E+02  0.95556613456E+02  0.90907388940E+02 0.  0.
         11    1    3    3    0    0  0.26894352590E+01  0.26280951834E+02 -0.41827881529E+02  0.49472145342E+02  0.51100000000E-03 0.  1.
         22    1    1    0    0    0 -0.24906919694E+02  0.40446537317E+01  0.15172314877E+02  0.29443386544E+02  0.00000000000E+00 0.  1.
</event>
<event>
 5    1  0.8952932E-005  0.9118800E+02  0.7818608E-02  0.1130116E+00
         25   -1    0    0    0    0  0.00000000000E+00  0.00000000000E+00  0.99999998245E-14  0.12500000000E+03  0.12500000000E+03 0.  0.
        -11    1    3    3    0    0  0.49966708591E+02  0.29076843763E+02 -0.17664069600E+02  0.60449600211E+02  0.51100000000E-03 0. -1.
         23    2    1    0    0    0  0.19671113183E+02  0.73627176766E+01 -0.17401357764E+02  0.97724194651E+02  0.93840549139E+02 0.  0.
         11    1    3    3    0    0 -0.30295595408E+02 -0.21714126086E+02  0.26271183588E+00  0.37274594439E+02  0.51100000000E-03 0.  1.
         22    1    1    0    0    0 -0.19671113183E+02 -0.73627176766E+01  0.17401357764E+02  0.27275805349E+02  0.00000000000E+00 0. -1.
</event>
<event>
 5    1  0.8952932E-005  0.9118800E+02  0.7818608E-02  0.1130116E+00
         25   -1    0    0    0    0  0.00000000000E+00  0.00000000000E+00  0.99999998245E-14  0.12500000000E+03  0.12500000000E+03 0.  0.
        -11    1    3    3    0    0  0.51268854152E+02 -0.18870004605E+02  0.31850385011E+00  0.54632169322E+02  0.51100000000E-03 0.  1.
         23    2    1    0    0    0  0.28563194257E+02  0.12817341536E+02  0.17820725304E+01  0.93642128696E+02  0.88235662711E+02 0.  0.
         11    1    3    3    0    0 -0.22705659895E+02  0.31687346142E+02  0.14635686803E+01  0.39009959374E+02  0.51100000000E-03 0. -1.
         22    1    1    0    0    0 -0.28563194257E+02 -0.12817341536E+02 -0.17820725304E+01  0.31357871304E+02  0.00000000000E+00 0.  1.
</event>
<event>
 5    1  0.8952932E-005  0.9118800E+02  0.7818608E-02  0.1130116E+00
         25   -1    0    0    0    0  0.00000000000E+00  0.00000000000E+00  0.99999998245E-14  0.12500000000E+03  0.12500000000E+03 0.  0.
        -11    1    3    3    0    0  0.41280759272E+02 -0.36263417936E+02 -0.13762745009E+01  0.54963903593E+02  0.51100000000E-03 0.  1.
         23    2    1    0    0    0  0.81481876837E+01 -0.20249013622E+02 -0.19270340751E+02  0.95883654971E+02  0.91355972671E+02 0.  0.
         11    1    3    3    0    0 -0.33132571588E+02  0.16014404313E+02 -0.17894066250E+02  0.40919751377E+02  0.51100000000E-03 0. -1.
         22    1    1    0    0    0 -0.81481876837E+01  0.20249013622E+02  0.19270340751E+02  0.29116345029E+02  0.00000000000E+00 0.  1.
</event>
<event>
 5    1  0.8952932E-005  0.9118800E+02  0.7818608E-02  0.1130116E+00
         25   -1    0    0    0    0  0.00000000000E+00  0.00000000000E+00  0.99999998245E-14  0.12500000000E+03  0.12500000000E+03 0.  0.
        -11    1    3    3    0    0  0.22716163770E+02 -0.38766453696E+02 -0.42171990916E+02  0.61622551446E+02  0.51100000000E-03 0. -1.
         23    2    1    0    0    0  0.71232330110E+01 -0.24070022097E+02 -0.16980826900E+02  0.94693979237E+02  0.89713403733E+02 0.  0.
         11    1    3    3    0    0 -0.15592930760E+02  0.14696431600E+02  0.25191164016E+02  0.33071427792E+02  0.51100000000E-03 0.  1.
         22    1    1    0    0    0 -0.71232330110E+01  0.24070022097E+02  0.16980826900E+02  0.30306020763E+02  0.00000000000E+00 0. -1.
</event>
<event>
 5    1  0.8952932E-005  0.9118800E+02  0.7818608E-02  0.1130116E+00
         25   -1    0    0    0    0  0.00000000000E+00  0.00000000000E+00  0.99999998245E-14  0.12500000000E+03  0.12500000000E+03 0.  0.
        -11    1    3    3    0    0 -0.25235993687E+02 -0.45706024179E+02  0.67157485146E+01  0.52640263126E+02  0.51100000000E-03 0. -1.
         23    2    1    0    0    0 -0.23946563645E+02 -0.39925050061E+01  0.16677736355E+02  0.95546224409E+02  0.90893102612E+02 0.  0.
         11    1    3    3    0    0  0.12894300424E+01  0.41713519173E+02  0.99619878403E+01  0.42905961283E+02  0.51100000000E-03 0.  1.
         22    1    1    0    0    0  0.23946563645E+02  0.39925050061E+01 -0.16677736355E+02  0.29453775591E+02  0.00000000000E+00 0. -1.
</event>
<event>
 5    1  0.8952932E-005  0.9118800E+02  0.7818608E-02  0.1130116E+00
         25   -1    0    0    0    0  0.00000000000E+00  0.00000000000E+00  0.99999998245E-14  0.12500000000E+03  0.12500000000E+03 0.  0.
        -11    1    3    3    0    0  0.18317138796E+02  0.14522868464E+02  0.16703688506E+02  0.28730549805E+02  0.51100000000E-03 0.  1.
         23    2    1    0    0    0  0.13360595529E+02 -0.32667055787E+02  0.30722614326E+02  0.78207681425E+02  0.62665144667E+02 0.  0.
         11    1    3    3    0    0 -0.49565432672E+01 -0.47189924251E+02  0.14018925819E+02  0.49477131620E+02  0.51100000000E-03 0. -1.
         22    1    1    0    0    0 -0.13360595529E+02  0.32667055787E+02 -0.30722614326E+02  0.46792318575E+02  0.00000000000E+00 0. -1.
</event>
<event>
 5    1  0.8952932E-005  0.9118800E+02  0.7818608E-02  0.1130116E+00
         25   -1    0    0    0    0  0.00000000000E+00  0.00000000000E+00  0.99999998245E-14  0.12500000000E+03  0.12500000000E+03 0.  0.
        -11    1    3    3    0    0  0.19925489396E+02  0.73840261104E+01 -0.26482491577E+02  0.33953958969E+02  0.51100000000E-03 0.  1.
         23    2    1    0    0    0 -0.20815106861E+02  0.14822564040E+02  0.17238462741E+02  0.94175631783E+02  0.88988246110E+02 0.  0.
         11    1    3    3    0    0 -0.40740596257E+02  0.74385379295E+01  0.43720954317E+02  0.60221672814E+02  0.51100000000E-03 0. -1.
         22    1    1    0    0    0  0.20815106861E+02 -0.14822564040E+02 -0.17238462741E+02  0.30824368217E+02  0.00000000000E+00 0. -1.
</event>
<event>
 5    1  0.8952932E-005  0.9118800E+02  0.7818608E-02  0.1130116E+00
         25   -1    0    0    0    0  0.00000000000E+00  0.00000000000E+00  0.99999998245E-14  0.12500000000E+03  0.12500000000E+03 0.  0.
        -11    1    3    3    0    0  0.85751750703E+01 -0.32113365982E+02 -0.39793715386E+01  0.33475921201E+02  0.51100000000E-03 0.  1.
         23    2    1    0    0    0 -0.36408005768E+02 -0.42611590201E+00 -0.11824366981E+01  0.88570305858E+02  0.80731508499E+02 0.  0.
         11    1    3    3    0    0 -0.44983180838E+02  0.31687250080E+02  0.27969348404E+01  0.55094384657E+02  0.51100000000E-03 0. -1.
         22    1    1    0    0    0  0.36408005768E+02  0.42611590201E+00  0.11824366981E+01  0.36429694142E+02  0.00000000000E+00 0. -1.
</event>
<event>
 5    1  0.8952932E-005  0.9118800E+02  0.7818608E-02  0.1130116E+00
         25   -1    0    0    0    0  0.00000000000E+00  0.00000000000E+00  0.99999998245E-14  0.12500000000E+03  0.12500000000E+03 0.  0.
        -11    1    3    3    0    0 -0.54181325981E+02 -0.10140460514E+02 -0.15582812712E+02  0.57282362703E+02  0.51100000000E-03 0.  1.
         23    2    1    0    0    0 -0.24205848377E+02  0.13195345524E+02 -0.99750710225E+01  0.95682048484E+02  0.91079702026E+02 0.  0.
         11    1    3    3    0    0  0.29975477604E+02  0.23335806038E+02  0.56077416893E+01  0.38399685782E+02  0.51100000000E-03 0. -1.
         22    1    1    0    0    0  0.24205848377E+02 -0.13195345524E+02  0.99750710225E+01  0.29317951516E+02  0.00000000000E+00 0.  1.
</event>
<event>
 5    1  0.8952932E-005  0.9118800E+02  0.7818608E-02  0.1130116E+00
         25   -1    0    0    0    0  0.00000000000E+00  0.00000000000E+00  0.99999998245E-14  0.12500000000E+03  0.12500000000E+03 0.  0.
        -11    1    3    3    0    0  0.44278088609E+02 -0.23459014693E+02 -0.26045339582E+02  0.56473305335E+02  0.51100000000E-03 0. -1.
         23    2    1    0    0    0  0.28551820381E+02  0.53221319604E+01 -0.47690086212E+01  0.95567450350E+02  0.90922288728E+02 0.  0.
         11    1    3    3    0    0 -0.15726268228E+02  0.28781146653E+02  0.21276330961E+02  0.39094145015E+02  0.51100000000E-03 0.  1.
         22    1    1    0    0    0 -0.28551820381E+02 -0.53221319604E+01  0.47690086212E+01  0.29432549650E+02  0.00000000000E+00 0. -1.
</event>
<event>
 5    1  0.8952932E-005  0.9118800E+02  0.7818608E-02  0.1130116E+00
         25   -1    0    0    0    0  0.00000000000E+00  0.00000000000E+00  0.99999998245E-14  0.12500000000E+03  0.12500000000E+03 0.  0.
        -11    1    3    3    0    0  0.29882115374E+02  0.99725352455E+01 -0.14834749011E+02  0.34820425858E+02  0.51100000000E-03 0. -1.
         23    2    1    0    0    0 -0.16241554410E+02 -0.22453144373E+02  0.87562133466E+01  0.95937944772E+02  0.91430225818E+02 0.  0.
         11    1    3    3    0    0 -0.46123669784E+02 -0.32425679618E+02  0.23590962358E+02  0.61117518915E+02  0.51100000000E-03 0.  1.
         22    1    1    0    0    0  0.16241554410E+02  0.22453144373E+02 -0.87562133466E+01  0.29062055228E+02  0.00000000000E+00 0.  1.
</event>
<event>
 5    1  0.8952932E-005  0.9118800E+02  0.7818608E-02  0.1130116E+00
         25   -1    0    0    0    0  0.00000000000E+00  0.00000000000E+00  0.99999998245E-14  0.12500000000E+03  0.12500000000E+03 0.  0.
        -11    1    3    3    0    0 -0.30364590551E+02  0.19236900952E+02  0.30892491855E+02  0.47396337104E+02  0.51100000000E-03 0.  1.
         23    2    1    0    0    0 -0.18312007623E+02 -0.21350716788E+02  0.69911336577E+01  0.96016234193E+02  0.91537197621E+02 0.  0.
         11    1    3    3    0    0  0.12052582928E+02 -0.40587617739E+02 -0.23901358198E+02  0.48619897089E+02  0.51100000000E-03 0. -1.
         22    1    1    0    0    0  0.18312007623E+02  0.21350716788E+02 -0.69911336577E+01  0.28983765807E+02  0.00000000000E+00 0. -1.
</event>
<event>
 5    1  0.8952932E-005  0.9118800E+02  0.7818608E-02  0.1130116E+00
         25   -1    0    0    0    0  0.00000000000E+00  0.00000000000E+00  0.99999998245E-14  0.12500000000E+03  0.12500000000E+03 0.  0.
        -11    1    3    3    0    0 -0.14806784327E+02 -0.44877382556E+02  0.31520254986E+02  0.56804461109E+02  0.51100000000E-03 0.  1.
         23    2    1    0    0    0 -0.99511649216E+01 -0.25289343461E+02 -0.38746768456E+01  0.97548411765E+02  0.93606105256E+02 0.  0.
         11    1    3    3    0    0  0.48556194056E+01  0.19588039096E+02 -0.35394931832E+02  0.40743950656E+02  0.51100000000E-03 0. -1.
         22    1    1    0    0    0  0.99511649216E+01  0.25289343461E+02  0.38746768456E+01  0.27451588235E+02  0.00000000000E+00 0.  1.
</event>
<event>
 5    1  0.8952932E-005  0.9118800E+02  0.7818608E-02  0.1130116E+00
         25   -1    0    0    0    0  0.00000000000E+00  0.00000000000E+00  0.99999998245E-14  0.12500000000E+03  0.12500000000E+03 0.  0.
        -11    1    3    3    0    0 -0.27801942143E+01  0.94924985726E+01  0.34094489564E+02  0.35500298983E+02  0.51100000000E-03 0.  1.
         23    2    1    0    0    0  0.40011459778E+01 -0.24855553015E+02 -0.14920486675E+02  0.95735198490E+02  0.91152617201E+02 0.  0.
         11    1    3    3    0    0  0.67813401920E+01 -0.34348051587E+02 -0.49014976239E+02  0.60234899507E+02  0.51100000000E-03 0. -1.
         22    1    1    0    0    0 -0.40011459778E+01  0.24855553015E+02  0.14920486675E+02  0.29264801510E+02  0.00000000000E+00 0. -1.
</event>
<event>
 5    1  0.8952932E-005  0.9118800E+02  0.7818608E-02  0.1130116E+00
         25   -1    0    0    0    0  0.00000000000E+00  0.00000000000E+00  0.99999998245E-14  0.12500000000E+03  0.12500000000E+03 0.  0.
        -11    1    3    3    0    0  0.39285971195E+02  0.38137707542E+02  0.16580634059E+02  0.57208300931E+02  0.51100000000E-03 0. -1.
         23    2    1    0    0    0  0.28977993975E+01  0.25123324222E+02  0.14360070300E+02  0.95917526235E+02  0.91402306091E+02 0.  0.
         11    1    3    3    0    0 -0.36388171797E+02 -0.13014383321E+02 -0.22205637596E+01  0.38709225304E+02  0.51100000000E-03 0.  1.
         22    1    1    0    0    0 -0.28977993975E+01 -0.25123324222E+02 -0.14360070300E+02  0.29082473765E+02  0.00000000000E+00 0. -1.
</event>
<event>
 5    1  0.8952932E-005  0.9118800E+02  0.7818608E-02  0.1130116E+00
         25   -1    0    0    0    0  0.00000000000E+00  0.00000000000E+00  0.99999998245E-14  0.12500000000E+03  0.12500000000E+03 0.  0.
        -11    1    3    3    0    0  0.16903981323E+02 -0.35671564626E+02  0.36440285798E+01  0.39641948135E+02  0.51100000000E-03 0.  1.
         23    2    1    0    0    0 -0.74905771838E+01  0.26669983473E+01 -0.28570333209E+02  0.95343878095E+02  0.90614400201E+02 0.  0.
         11    1    3    3    0    0 -0.24394558507E+02  0.38338562973E+02 -0.32214361789E+02  0.55701929960E+02  0.51100000000E-03 0. -1.
         22    1    1    0    0    0  0.74905771838E+01 -0.26669983473E+01  0.28570333209E+02  0.29656121905E+02  0.00000000000E+00 0. -1.
</event>
<event>
 5    1  0.8952932E-005  0.9118800E+02  0.7818608E-02  0.1130116E+00
         25   -1    0    0    0    0  0.00000000000E+00  0.00000000000E+00  0.99999998245E-14  0.12500000000E+03  0.12500000000E+03 0.  0.
        -11    1    3    3    0    0 -0.21051638916E+02 -0.23621823154E+02  0.13496190945E+02  0.34399261627E+02  0.51100000000E-03 0. -1.
         23    2    1    0    0    0  0.16211024297E+02  0.74543687519E+01 -0.23555963686E+02  0.95449224250E+02  0.90759605896E+02 0.  0.
         11    1    3    3    0    0  0.37262663214E+02  0.31076191906E+02 -0.37052154631E+02  0.61049962623E+02  0.51100000000E-03 0.  1.
         22    1    1    0    0    0 -0.16211024297E+02 -0.74543687519E+01  0.23555963686E+02  0.29550775750E+02  0.00000000000E+00 0.  1.
</event>
<event>
 5    1  0.8952932E-005  0.9118800E+02  0.7818608E-02  0.1130116E+00
         25   -1    0    0    0    0  0.00000000000E+00  0.00000000000E+00  0.99999998245E-14  0.12500000000E+03  0.12500000000E+03 0.  0.
        -11    1    3    3    0    0 -0.11276531280E+01  0.36201754190E+02 -0.10748146945E+02  0.37780435029E+02  0.51100000000E-03 0. -1.
         23    2    1    0    0    0 -0.19935942215E+02 -0.18401051121E+02 -0.11491453616E+02  0.95536565364E+02  0.90879818117E+02 0.  0.
         11    1    3    3    0    0 -0.18808289087E+02 -0.54602805311E+02 -0.74330667099E+00  0.57756130335E+02  0.51100000000E-03 0.  1.
         22    1    1    0    0    0  0.19935942215E+02  0.18401051121E+02  0.11491453616E+02  0.29463434636E+02  0.00000000000E+00 0. -1.
</event>
<event>
 5    1  0.8952932E-005  0.9118800E+02  0.7818608E-02  0.1130116E+00
         25   -1    0    0    0    0  0.00000000000E+00  0.00000000000E+00  0.99999998245E-14  0.12500000000E+03  0.12500000000E+03 0.  0.
        -11    1    3    3    0    0 -0.44092844309E+02 -0.41527102312E+02  0.58120214955E+01  0.60847832663E+02  0.51100000000E-03 0. -1.
         23    2    1    0    0    0 -0.34555165191E+02 -0.19055505044E+02  0.42759021592E+01  0.85307997617E+02  0.75511584570E+02 0.  0.
         11    1    3    3    0    0  0.95376791178E+01  0.22471597267E+02 -0.15361193362E+01  0.24460164954E+02  0.51100000000E-03 0.  1.
         22    1    1    0    0    0  0.34555165191E+02  0.19055505044E+02 -0.42759021592E+01  0.39692002383E+02  0.00000000000E+00 0. -1.
</event>
<event>
 5    1  0.8952932E-005  0.9118800E+02  0.7818608E-02  0.1130116E+00
         25   -1    0    0    0    0  0.00000000000E+00  0.00000000000E+00  0.99999998245E-14  0.12500000000E+03  0.12500000000E+03 0.  0.
        -11    1    3    3    0    0 -0.33973279040E+02 -0.26432177617E+02 -0.45203672603E+02  0.62419674137E+02  0.51100000000E-03 0.  1.
         23    2    1    0    0    0 -0.13623861212E+02 -0.13074409493E+02 -0.21287903582E+02  0.96544339459E+02  0.92255541106E+02 0.  0.
         11    1    3    3    0    0  0.20349417828E+02  0.13357768125E+02  0.23915769021E+02  0.34124665322E+02  0.51100000000E-03 0. -1.
         22    1    1    0    0    0  0.13623861212E+02  0.13074409493E+02  0.21287903582E+02  0.28455660541E+02  0.00000000000E+00 0.  1.
</event>
<event>
 5    1  0.8952932E-005  0.9118800E+02  0.7818608E-02  0.1130116E+00
         25   -1    0    0    0    0  0.00000000000E+00  0.00000000000E+00  0.99999998245E-14  0.12500000000E+03  0.12500000000E+03 0.  0.
        -11    1    3    3    0    0  0.31907392885E+02  0.26984668313E+02  0.27450577829E+02  0.49997882636E+02  0.51100000000E-03 0. -1.
         23    2    1    0    0    0  0.15733249911E+02  0.21491928809E+02 -0.14057129014E+02  0.94882878079E+02  0.89976216411E+02 0.  0.
         11    1    3    3    0    0 -0.16174142974E+02 -0.54927395035E+01 -0.41507706844E+02  0.44884995442E+02  0.51100000000E-03 0.  1.
         22    1    1    0    0    0 -0.15733249911E+02 -0.21491928809E+02  0.14057129014E+02  0.30117121921E+02  0.00000000000E+00 0. -1.
</event>
<event>
 5    1  0.8952932E-005  0.9118800E+02  0.7818608E-02  0.1130116E+00
         25   -1    0    0    0    0  0.00000000000E+00  0.00000000000E+00  0.99999998245E-14  0.12500000000E+03  0.12500000000E+03 0.  0.
        -11    1    3    3    0    0  0.19711997408E+02 -0.14294533599E+02  0.55065871014E+02  0.60209191021E+02  0.51100000000E-03 0. -1.
         23    2    1    0    0    0 -0.23585953567E+01 -0.47607254191E+01  0.28376899095E+02  0.96130017651E+02  0.91692444688E+02 0.  0.
         11    1    3    3    0    0 -0.22070592765E+02  0.95338081794E+01 -0.26688971920E+02  0.35920826630E+02  0.51100000000E-03 0.  1.
         22    1    1    0    0    0  0.23585953567E+01  0.47607254191E+01 -0.28376899095E+02  0.28869982349E+02  0.00000000000E+00 0. -1.
</event>
<event>
 5    1  0.8952932E-005  0.9118800E+02  0.7818608E-02  0.1130116E+00
         25   -1    0    0    0    0  0.00000000000E+00  0.00000000000E+00  0.99999998245E-14  0.12500000000E+03  0.12500000000E+03 0.  0.
        -11    1    3    3    0    0  0.21257826331E+02 -0.12245705910E+02  0.57442568961E+02  0.62461998228E+02  0.51100000000E-03 0.  1.
         23    2    1    0    0    0  0.95959981395E+01 -0.71899039971E+01  0.26503120241E+02  0.95910598454E+02  0.91392831303E+02 0.  0.
         11    1    3    3    0    0 -0.11661828191E+02  0.50558019129E+01 -0.30939448720E+02  0.33448600226E+02  0.51100000000E-03 0. -1.
         22    1    1    0    0    0 -0.95959981395E+01  0.71899039971E+01 -0.26503120241E+02  0.29089401546E+02  0.00000000000E+00 0.  1.
</event>
<event>
 5    1  0.8952932E-005  0.9118800E+02  0.7818608E-02  0.1130116E+00
         25   -1    0    0    0    0  0.00000000000E+00  0.00000000000E+00  0.99999998245E-14  0.12500000000E+03  0.12500000000E+03 0.  0.
        -11    1    3    3    0    0  0.61698000593E+02  0.80764977911E+01  0.88148232045E+00  0.62230620317E+02  0.51100000000E-03 0. -1.
         23    2    1    0    0    0  0.24703999614E+02  0.73374649644E+00 -0.28069380815E+01  0.10012622099E+03  0.96987397364E+02 0.  0.
         11    1    3    3    0    0 -0.36994000979E+02 -0.73427512947E+01 -0.36884204019E+01  0.37895600672E+02  0.51100000000E-03 0.  1.
         22    1    1    0    0    0 -0.24703999614E+02 -0.73374649644E+00  0.28069380815E+01  0.24873779010E+02  0.00000000000E+00 0. -1.
</event>
<event>
 5    1  0.8952932E-005  0.9118800E+02  0.7818608E-02  0.1130116E+00
         25   -1    0    0    0    0  0.00000000000E+00  0.00000000000E+00  0.99999998245E-14  0.12500000000E+03  0.12500000000E+03 0.  0.
        -11    1    3    3    0    0 -0.22113000939E+02 -0.17529625762E+02  0.26587239215E+02  0.38770528487E+02  0.51100000000E-03 0. -1.
         23    2    1    0    0    0  0.25776078621E+01 -0.14095805386E+02 -0.25067529084E+02  0.96125845360E+02  0.91686756623E+02 0.  0.
         11    1    3    3    0    0  0.24690608801E+02  0.34338203765E+01 -0.51654768299E+02  0.57355316873E+02  0.51100000000E-03 0.  1.
         22    1    1    0    0    0 -0.25776078621E+01  0.14095805386E+02  0.25067529084E+02  0.28874154640E+02  0.00000000000E+00 0.  1.
</event>
<event>
 5    1  0.8952932E-005  0.9118800E+02  0.7818608E-02  0.1130116E+00
         25   -1    0    0    0    0  0.00000000000E+00  0.00000000000E+00  0.99999998245E-14  0.12500000000E+03  0.12500000000E+03 0.  0.
        -11    1    3    3    0    0  0.74938600219E+01  0.85493043558E+01  0.33484055381E+02  0.35361426838E+02  0.51100000000E-03 0. -1.
         23    2    1    0    0    0 -0.13481314195E+02 -0.21180416162E+02 -0.14827716380E+02  0.95841518657E+02  0.91298300445E+02 0.  0.
         11    1    3    3    0    0 -0.20975174217E+02 -0.29729720518E+02 -0.48311771760E+02  0.60480091819E+02  0.51100000000E-03 0.  1.
         22    1    1    0    0    0  0.13481314195E+02  0.21180416162E+02  0.14827716380E+02  0.29158481343E+02  0.00000000000E+00 0.  1.
</event>
<event>
 5    1  0.8952932E-005  0.9118800E+02  0.7818608E-02  0.1130116E+00
         25   -1    0    0    0    0  0.00000000000E+00  0.00000000000E+00  0.99999998245E-14  0.12500000000E+03  0.12500000000E+03 0.  0.
        -11    1    3    3    0    0  0.64999372527E+01  0.13446569096E+02  0.38230555056E+02  0.41044302222E+02  0.51100000000E-03 0.  1.
         23    2    1    0    0    0  0.28177978706E+02  0.84621389317E+01 -0.98114699978E+01  0.93985951203E+02  0.88721405539E+02 0.  0.
         11    1    3    3    0    0  0.21678041453E+02 -0.49844301648E+01 -0.48042025054E+02  0.52941648981E+02  0.51100000000E-03 0. -1.
         22    1    1    0    0    0 -0.28177978706E+02 -0.84621389317E+01  0.98114699978E+01  0.31014048797E+02  0.00000000000E+00 0. -1.
</event>
<event>
 5    1  0.8952932E-005  0.9118800E+02  0.7818608E-02  0.1130116E+00
         25   -1    0    0    0    0  0.00000000000E+00  0.00000000000E+00  0.99999998245E-14  0.12500000000E+03  0.12500000000E+03 0.  0.
        -11    1    3    3    0    0  0.47706570208E+02  0.15296254575E+02 -0.14785338968E+02  0.52235031289E+02  0.51100000000E-03 0. -1.
         23    2    1    0    0    0  0.74368053754E+01  0.23915050289E+02 -0.18903249979E+02  0.93622164442E+02  0.88207375601E+02 0.  0.
         11    1    3    3    0    0 -0.40269764833E+02  0.86187957142E+01 -0.41179110110E+01  0.41387133153E+02  0.51100000000E-03 0.  1.
         22    1    1    0    0    0 -0.74368053754E+01 -0.23915050289E+02  0.18903249979E+02  0.31377835558E+02  0.00000000000E+00 0. -1.
</event>
<event>
 5    1  0.8952932E-005  0.9118800E+02  0.7818608E-02  0.1130116E+00
         25   -1    0    0    0    0  0.00000000000E+00  0.00000000000E+00  0.99999998245E-14  0.12500000000E+03  0.12500000000E+03 0.  0.
        -11    1    3    3    0    0 -0.17002891131E+02 -0.50408097364E+02 -0.51037579998E+01  0.53442707011E+02  0.51100000000E-03 0. -1.
         23    2    1    0    0    0  0.15965667032E+02 -0.25130474031E+02 -0.70790814058E+00  0.95218388513E+02  0.90441125205E+02 0.  0.
         11    1    3    3    0    0  0.32968558163E+02  0.25277623333E+02  0.43958498592E+01  0.41775681502E+02  0.51100000000E-03 0.  1.
         22    1    1    0    0    0 -0.15965667032E+02  0.25130474031E+02  0.70790814058E+00  0.29781611487E+02  0.00000000000E+00 0.  1.
</event>
<event>
 5    1  0.8952932E-005  0.9118800E+02  0.7818608E-02  0.1130116E+00
         25   -1    0    0    0    0  0.00000000000E+00  0.00000000000E+00  0.99999998245E-14  0.12500000000E+03  0.12500000000E+03 0.  0.
        -11    1    3    3    0    0  0.27024339561E+01 -0.37738202229E+02 -0.89082196480E+01  0.38869415153E+02  0.51100000000E-03 0. -1.
         23    2    1    0    0    0  0.68557095909E+01  0.55791745027E+01  0.27817670035E+02  0.95811805327E+02  0.91257609719E+02 0.  0.
         11    1    3    3    0    0  0.41532756348E+01  0.43317376732E+02  0.36725889683E+02  0.56942390174E+02  0.51100000000E-03 0.  1.
         22    1    1    0    0    0 -0.68557095909E+01 -0.55791745027E+01 -0.27817670035E+02  0.29188194673E+02  0.00000000000E+00 0.  1.
</event>
<event>
 5    1  0.8952932E-005  0.9118800E+02  0.7818608E-02  0.1130116E+00
         25   -1    0    0    0    0  0.00000000000E+00  0.00000000000E+00  0.99999998245E-14  0.12500000000E+03  0.12500000000E+03 0.  0.
        -11    1    3    3    0    0  0.32889297942E+02  0.16981529137E+02 -0.47910051172E+02  0.60542970315E+02  0.51100000000E-03 0. -1.
         23    2    1    0    0    0  0.11914440232E+02 -0.99832779936E+00 -0.27873522665E+02  0.94670413616E+02  0.89680563134E+02 0.  0.
         11    1    3    3    0    0 -0.20974857710E+02 -0.17979856936E+02  0.20036528507E+02  0.34127443301E+02  0.51100000000E-03 0.  1.
         22    1    1    0    0    0 -0.11914440232E+02  0.99832779936E+00  0.27873522665E+02  0.30329586384E+02  0.00000000000E+00 0. -1.
</event>
<event>
 5    1  0.8952932E-005  0.9118800E+02  0.7818608E-02  0.1130116E+00
         25   -1    0    0    0    0  0.00000000000E+00  0.00000000000E+00  0.99999998245E-14  0.12500000000E+03  0.12500000000E+03 0.  0.
        -11    1    3    3    0    0 -0.16864823910E+02 -0.45965238339E+02  0.28700063841E+02  0.56753141638E+02  0.51100000000E-03 0.  1.
         23    2    1    0    0    0  0.68723317834E+01 -0.29318996326E+02  0.44315509146E+01  0.94562011676E+02  0.89529341107E+02 0.  0.
         11    1    3    3    0    0  0.23737155694E+02  0.16646242013E+02 -0.24268512927E+02  0.37808870038E+02  0.51100000000E-03 0. -1.
         22    1    1    0    0    0 -0.68723317834E+01  0.29318996326E+02 -0.44315509146E+01  0.30437988324E+02  0.00000000000E+00 0.  1.
</event>
<event>
 5    1  0.8952932E-005  0.9118800E+02  0.7818608E-02  0.1130116E+00
         25   -1    0    0    0    0  0.00000000000E+00  0.00000000000E+00  0.99999998245E-14  0.12500000000E+03  0.12500000000E+03 0.  0.
        -11    1    3    3    0    0  0.28282253749E+02  0.18511536151E+01 -0.51266655089E+02  0.58579711258E+02  0.51100000000E-03 0. -1.
         23    2    1    0    0    0  0.16984332055E+02 -0.14180683735E+02 -0.22098803125E+02  0.93728344686E+02  0.88357717102E+02 0.  0.
         11    1    3    3    0    0 -0.11297921694E+02 -0.16031837350E+02  0.29167851964E+02  0.35148633428E+02  0.51100000000E-03 0.  1.
         22    1    1    0    0    0 -0.16984332055E+02  0.14180683735E+02  0.22098803125E+02  0.31271655314E+02  0.00000000000E+00 0. -1.
</event>
<event>
 5    1  0.8952932E-005  0.9118800E+02  0.7818608E-02  0.1130116E+00
         25   -1    0    0    0    0  0.00000000000E+00  0.00000000000E+00  0.99999998245E-14  0.12500000000E+03  0.12500000000E+03 0.  0.
        -11    1    3    3    0    0 -0.54842105188E+02  0.14379865547E+00 -0.19176523024E+02  0.58098332291E+02  0.51100000000E-03 0. -1.
         23    2    1    0    0    0 -0.19192115158E+02  0.97669738748E+01 -0.20800770617E+02  0.95060007997E+02  0.90221959628E+02 0.  0.
         11    1    3    3    0    0  0.35649990030E+02  0.96231752193E+01 -0.16242475931E+01  0.36961675705E+02  0.51100000000E-03 0.  1.
         22    1    1    0    0    0  0.19192115158E+02 -0.97669738748E+01  0.20800770617E+02  0.29939992003E+02  0.00000000000E+00 0. -1.
</event>
<event>
 5    1  0.8952932E-005  0.9118800E+02  0.7818608E-02  0.1130116E+00
         25   -1    0    0    0    0  0.00000000000E+00  0.00000000000E+00  0.99999998245E-14  0.12500000000E+03  0.12500000000E+03 0.  0.
        -11    1    3    3    0    0  0.30686862007E+01 -0.39381116517E+02  0.19046900602E+02  0.43852863030E+02  0.51100000000E-03 0.  1.
         23    2    1    0    0    0  0.20160533447E+02 -0.13891616444E+02 -0.19907968716E+02  0.93444472201E+02  0.87955204793E+02 0.  0.
         11    1    3    3    0    0  0.17091847247E+02  0.25489500073E+02 -0.38954869318E+02  0.49591609171E+02  0.51100000000E-03 0. -1.
         22    1    1    0    0    0 -0.20160533447E+02  0.13891616444E+02  0.19907968716E+02  0.31555527799E+02  0.00000000000E+00 0. -1.
</event>
<event>
 5    1  0.8952932E-005  0.9118800E+02  0.7818608E-02  0.1130116E+00
         25   -1    0    0    0    0  0.00000000000E+00  0.00000000000E+00  0.99999998245E-14  0.12500000000E+03  0.12500000000E+03 0.  0.
        -11    1    3    3    0    0 -0.10210257808E+02  0.59848280198E+02 -0.36431844897E+01  0.60822190035E+02  0.51100000000E-03 0. -1.
         23    2    1    0    0    0 -0.10097534786E+02  0.25104648621E+02 -0.10017668970E+02  0.96145931263E+02  0.91714136400E+02 0.  0.
         11    1    3    3    0    0  0.11272302183E+00 -0.34743631577E+02 -0.63744844799E+01  0.35323741228E+02  0.51100000000E-03 0.  1.
         22    1    1    0    0    0  0.10097534786E+02 -0.25104648621E+02  0.10017668970E+02  0.28854068737E+02  0.00000000000E+00 0. -1.
</event>
<event>
 5    1  0.8952932E-005  0.9118800E+02  0.7818608E-02  0.1130116E+00
         25   -1    0    0    0    0  0.00000000000E+00  0.00000000000E+00  0.99999998245E-14  0.12500000000E+03  0.12500000000E+03 0.  0.
        -11    1    3    3    0    0  0.48506346518E+01  0.40707732819E+02  0.18859437960E+02  0.45125675266E+02  0.51100000000E-03 0.  1.
         23    2    1    0    0    0  0.27512221037E+02 -0.35146313993E+01  0.94433902066E+01  0.95700638935E+02  0.91105212440E+02 0.  0.
         11    1    3    3    0    0  0.22661586385E+02 -0.44222364218E+02 -0.94160477538E+01  0.50574963669E+02  0.51100000000E-03 0. -1.
         22    1    1    0    0    0 -0.27512221037E+02  0.35146313993E+01 -0.94433902066E+01  0.29299361065E+02  0.00000000000E+00 0.  1.
</event>
<event>
 5    1  0.8952932E-005  0.9118800E+02  0.7818608E-02  0.1130116E+00
         25   -1    0    0    0    0  0.00000000000E+00  0.00000000000E+00  0.99999998245E-14  0.12500000000E+03  0.12500000000E+03 0.  0.
        -11    1    3    3    0    0 -0.21278456243E+02  0.28971262790E+02 -0.46547711740E+02  0.58811531490E+02  0.51100000000E-03 0.  1.
         23    2    1    0    0    0  0.45141547347E+01  0.18749177235E+02 -0.20178898075E+02  0.97087687887E+02  0.92988827134E+02 0.  0.
         11    1    3    3    0    0  0.25792610978E+02 -0.10222085554E+02  0.26368813665E+02  0.38276156397E+02  0.51100000000E-03 0. -1.
         22    1    1    0    0    0 -0.45141547347E+01 -0.18749177235E+02  0.20178898075E+02  0.27912312113E+02  0.00000000000E+00 0.  1.
</event>
<event>
 5    1  0.8952932E-005  0.9118800E+02  0.7818608E-02  0.1130116E+00
         25   -1    0    0    0    0  0.00000000000E+00  0.00000000000E+00  0.99999998245E-14  0.12500000000E+03  0.12500000000E+03 0.  0.
        -11    1    3    3    0    0  0.28724732553E+02 -0.32625529603E+02  0.37381845491E+02  0.57331822007E+02  0.51100000000E-03 0. -1.
         23    2    1    0    0    0 -0.18338496552E+01 -0.24788355656E+02  0.16202094728E+02  0.95329586214E+02  0.90594682810E+02 0.  0.
         11    1    3    3    0    0 -0.30558582208E+02  0.78371739472E+01 -0.21179750763E+02  0.37997764207E+02  0.51100000000E-03 0.  1.
         22    1    1    0    0    0  0.18338496552E+01  0.24788355656E+02 -0.16202094728E+02  0.29670413786E+02  0.00000000000E+00 0. -1.
</event>
<event>
 5    1  0.8952932E-005  0.9118800E+02  0.7818608E-02  0.1130116E+00
         25   -1    0    0    0    0  0.00000000000E+00  0.00000000000E+00  0.99999998245E-14  0.12500000000E+03  0.12500000000E+03 0.  0.
        -11    1    3    3    0    0 -0.51742191348E+02  0.16856834699E+01  0.26783863933E+02  0.58287831163E+02  0.51100000000E-03 0.  1.
         23    2    1    0    0    0 -0.13717736271E+02  0.29354249847E+01  0.24949599890E+02  0.96377010238E+02  0.92028542091E+02 0.  0.
         11    1    3    3    0    0  0.38024455077E+02  0.12497415148E+01 -0.18342640425E+01  0.38089179075E+02  0.51100000000E-03 0. -1.
         22    1    1    0    0    0  0.13717736271E+02 -0.29354249847E+01 -0.24949599890E+02  0.28622989762E+02  0.00000000000E+00 0.  1.
</event>
<event>
 5    1  0.8952932E-005  0.9118800E+02  0.7818608E-02  0.1130116E+00
         25   -1    0    0    0    0  0.00000000000E+00  0.00000000000E+00  0.99999998245E-14  0.12500000000E+03  0.12500000000E+03 0.  0.
        -11    1    3    3    0    0 -0.19473556499E+02  0.34599921836E+02 -0.39225148956E+02  0.55812062358E+02  0.51100000000E-03 0.  1.
         23    2    1    0    0    0 -0.24247483078E+02  0.10551428461E+02 -0.47239942078E+01  0.98137587609E+02  0.94389601664E+02 0.  0.
         11    1    3    3    0    0 -0.47739265792E+01 -0.24048493375E+02  0.34501154748E+02  0.42325525251E+02  0.51100000000E-03 0. -1.
         22    1    1    0    0    0  0.24247483078E+02 -0.10551428461E+02  0.47239942078E+01  0.26862412391E+02  0.00000000000E+00 0.  1.
</event>
<event>
 5    1  0.8952932E-005  0.9118800E+02  0.7818608E-02  0.1130116E+00
         25   -1    0    0    0    0  0.00000000000E+00  0.00000000000E+00  0.99999998245E-14  0.12500000000E+03  0.12500000000E+03 0.  0.
        -11    1    3    3    0    0 -0.10520270291E+02  0.72769221851E+01 -0.36264228437E+02  0.38454179849E+02  0.51100000000E-03 0. -1.
         23    2    1    0    0    0 -0.24319384561E+02 -0.43325121963E+01  0.17214290166E+02  0.94891281773E+02  0.89987890536E+02 0.  0.
         11    1    3    3    0    0 -0.13799114271E+02 -0.11609434381E+02  0.53478518603E+02  0.56437101924E+02  0.51100000000E-03 0.  1.
         22    1    1    0    0    0  0.24319384561E+02  0.43325121963E+01 -0.17214290166E+02  0.30108718227E+02  0.00000000000E+00 0.  1.
</event>
<event>
 5    1  0.8952932E-005  0.9118800E+02  0.7818608E-02  0.1130116E+00
         25   -1    0    0    0    0  0.00000000000E+00  0.00000000000E+00  0.99999998245E-14  0.12500000000E+03  0.12500000000E+03 0.  0.
        -11    1    3    3    0    0 -0.49841966699E+01 -0.15728167026E+02  0.31661504548E+02  0.35702497461E+02  0.51100000000E-03 0. -1.
         23    2    1    0    0    0 -0.13006867702E+02  0.17090591540E+02 -0.18818251494E+02  0.96444903855E+02  0.92120714086E+02 0.  0.
         11    1    3    3    0    0 -0.80226710317E+01  0.32818758566E+02 -0.50479756042E+02  0.60742406394E+02  0.51100000000E-03 0.  1.
         22    1    1    0    0    0  0.13006867702E+02 -0.17090591540E+02  0.18818251494E+02  0.28555096145E+02  0.00000000000E+00 0.  1.
</event>
<event>
 5    1  0.8952932E-005  0.9118800E+02  0.7818608E-02  0.1130116E+00
         25   -1    0    0    0    0  0.00000000000E+00  0.00000000000E+00  0.99999998245E-14  0.12500000000E+03  0.12500000000E+03 0.  0.
        -11    1    3    3    0    0  0.56356499479E+02 -0.92724961252E+01 -0.67971770640E+01  0.57517265532E+02  0.51100000000E-03 0.  1.
         23    2    1    0    0    0  0.24165810993E+02 -0.35137662423E+01  0.14553941431E+02  0.96572017565E+02  0.92293035442E+02 0.  0.
         11    1    3    3    0    0 -0.32190688486E+02  0.57587298829E+01  0.21351118495E+02  0.39054752033E+02  0.51100000000E-03 0. -1.
         22    1    1    0    0    0 -0.24165810993E+02  0.35137662423E+01 -0.14553941431E+02  0.28427982435E+02  0.00000000000E+00 0.  1.
</event>
<event>
 5    1  0.8952932E-005  0.9118800E+02  0.7818608E-02  0.1130116E+00
         25   -1    0    0    0    0  0.00000000000E+00  0.00000000000E+00  0.99999998245E-14  0.12500000000E+03  0.12500000000E+03 0.  0.
        -11    1    3    3    0    0  0.36600691276E+02  0.34697515877E+02 -0.58592157118E+01  0.50772616822E+02  0.51100000000E-03 0.  1.
         23    2    1    0    0    0 -0.66331209725E+01  0.29749037948E+02 -0.24798466359E+01  0.94419725443E+02  0.89330461550E+02 0.  0.
         11    1    3    3    0    0 -0.43233812249E+02 -0.49484779290E+01  0.33793690759E+01  0.43647108621E+02  0.51100000000E-03 0. -1.
         22    1    1    0    0    0  0.66331209725E+01 -0.29749037948E+02  0.24798466359E+01  0.30580274557E+02  0.00000000000E+00 0.  1.
</event>
<event>
 5    1  0.8952932E-005  0.9118800E+02  0.7818608E-02  0.1130116E+00
         25   -1    0    0    0    0  0.00000000000E+00  0.00000000000E+00  0.99999998245E-14  0.12500000000E+03  0.12500000000E+03 0.  0.
        -11    1    3    3    0    0  0.89761251069E+01  0.43146577973E+01  0.34631938862E+02  0.36035514198E+02  0.51100000000E-03 0. -1.
         23    2    1    0    0    0 -0.21395649775E+02  0.78545815056E+01 -0.17358121352E+02  0.96350869877E+02  0.91993029460E+02 0.  0.
         11    1    3    3    0    0 -0.30371774882E+02  0.35399237083E+01 -0.51990060215E+02  0.60315355679E+02  0.51100000000E-03 0.  1.
         22    1    1    0    0    0  0.21395649775E+02 -0.78545815056E+01  0.17358121352E+02  0.28649130123E+02  0.00000000000E+00 0.  1.
</event>
<event>
 5    1  0.8952932E-005  0.9118800E+02  0.7818608E-02  0.1130116E+00
         25   -1    0    0    0    0  0.00000000000E+00  0.00000000000E+00  0.99999998245E-14  0.12500000000E+03  0.12500000000E+03 0.  0.
        -11    1    3    3    0    0 -0.38486717567E+02 -0.41697987939E+02 -0.23244485488E+02  0.61320924105E+02  0.51100000000E-03 0. -1.
         23    2    1    0    0    0 -0.23104154194E+02 -0.12475334762E+02 -0.10659398455E+02  0.96661709758E+02  0.92414433069E+02 0.  0.
         11    1    3    3    0    0  0.15382563374E+02  0.29222653178E+02  0.12585087033E+02  0.35340785653E+02  0.51100000000E-03 0.  1.
         22    1    1    0    0    0  0.23104154194E+02  0.12475334762E+02  0.10659398455E+02  0.28338290242E+02  0.00000000000E+00 0. -1.
</event>
<event>
 5    1  0.8952932E-005  0.9118800E+02  0.7818608E-02  0.1130116E+00
         25   -1    0    0    0    0  0.00000000000E+00  0.00000000000E+00  0.99999998245E-14  0.12500000000E+03  0.12500000000E+03 0.  0.
        -11    1    3    3    0    0 -0.19372222775E+02 -0.44697342569E+02  0.26376640038E+02  0.55397315711E+02  0.51100000000E-03 0.  1.
         23    2    1    0    0    0  0.12886018879E+02 -0.14388736970E+02  0.13289411813E+02  0.10155445244E+03  0.98810996905E+02 0.  0.
         11    1    3    3    0    0  0.32258241654E+02  0.30308605599E+02 -0.13087228224E+02  0.46157136727E+02  0.51100000000E-03 0. -1.
         22    1    1    0    0    0 -0.12886018879E+02  0.14388736970E+02 -0.13289411813E+02  0.23445547562E+02  0.00000000000E+00 0.  1.
</event>
<event>
 5    1  0.8952932E-005  0.9118800E+02  0.7818608E-02  0.1130116E+00
         25   -1    0    0    0    0  0.00000000000E+00  0.00000000000E+00  0.99999998245E-14  0.12500000000E+03  0.12500000000E+03 0.  0.
        -11    1    3    3    0    0 -0.11871545346E+02 -0.25503901794E+02 -0.25778299123E+02  0.38156300942E+02  0.51100000000E-03 0. -1.
         23    2    1    0    0    0  0.25384210108E+02  0.12055204880E+02 -0.24678912242E+00  0.96897562519E+02  0.92732899393E+02 0.  0.
         11    1    3    3    0    0  0.37255755453E+02  0.37559106674E+02  0.25531510000E+02  0.58741261578E+02  0.51100000000E-03 0.  1.
         22    1    1    0    0    0 -0.25384210108E+02 -0.12055204880E+02  0.24678912242E+00  0.28102437481E+02  0.00000000000E+00 0.  1.
</event>
<event>
 5    1  0.8952932E-005  0.9118800E+02  0.7818608E-02  0.1130116E+00
         25   -1    0    0    0    0  0.00000000000E+00  0.00000000000E+00  0.99999998245E-14  0.12500000000E+03  0.12500000000E+03 0.  0.
        -11    1    3    3    0    0 -0.47909732601E+01 -0.56944323500E+02 -0.66575990288E+01  0.57532017422E+02  0.51100000000E-03 0. -1.
         23    2    1    0    0    0 -0.18268969533E+02 -0.21553259755E+02  0.29210690907E+01  0.96595231061E+02  0.92324470024E+02 0.  0.
         11    1    3    3    0    0 -0.13477996273E+02  0.35391063745E+02  0.95786681194E+01  0.39063213638E+02  0.51100000000E-03 0.  1.
         22    1    1    0    0    0  0.18268969533E+02  0.21553259755E+02 -0.29210690907E+01  0.28404768939E+02  0.00000000000E+00 0. -1.
</event>
<event>
 5    1  0.8952932E-005  0.9118800E+02  0.7818608E-02  0.1130116E+00
         25   -1    0    0    0    0  0.00000000000E+00  0.00000000000E+00  0.99999998245E-14  0.12500000000E+03  0.12500000000E+03 0.  0.
        -11    1    3    3    0    0 -0.10754179502E+02  0.69563564863E+00  0.33325625751E+02  0.35024757211E+02  0.51100000000E-03 0.  1.
         23    2    1    0    0    0 -0.79548353726E+01  0.12107979033E+02 -0.25856140723E+02  0.95361805467E+02  0.90639127130E+02 0.  0.
         11    1    3    3    0    0  0.27993441291E+01  0.11412343385E+02 -0.59181766474E+02  0.60337048257E+02  0.51100000000E-03 0. -1.
         22    1    1    0    0    0  0.79548353726E+01 -0.12107979033E+02  0.25856140723E+02  0.29638194533E+02  0.00000000000E+00 0. -1.
</event>
<event>
 5    1  0.8952932E-005  0.9118800E+02  0.7818608E-02  0.1130116E+00
         25   -1    0    0    0    0  0.00000000000E+00  0.00000000000E+00  0.99999998245E-14  0.12500000000E+03  0.12500000000E+03 0.  0.
        -11    1    3    3    0    0 -0.14995968597E+02  0.42853300564E+02  0.45228300265E+01  0.45626093796E+02  0.51100000000E-03 0. -1.
         23    2    1    0    0    0 -0.39160405144E+01  0.65228485559E+01 -0.28219351567E+02  0.95773047893E+02  0.91204506321E+02 0.  0.
         11    1    3    3    0    0  0.11079928082E+02 -0.36330452008E+02 -0.32742181593E+02  0.50146954097E+02  0.51100000000E-03 0.  1.
         22    1    1    0    0    0  0.39160405144E+01 -0.65228485559E+01  0.28219351567E+02  0.29226952107E+02  0.00000000000E+00 0. -1.
</event>
<event>
 5    1  0.8952932E-005  0.9118800E+02  0.7818608E-02  0.1130116E+00
         25   -1    0    0    0    0  0.00000000000E+00  0.00000000000E+00  0.99999998245E-14  0.12500000000E+03  0.12500000000E+03 0.  0.
        -11    1    3    3    0    0 -0.11896919214E+02 -0.35081801701E+02  0.97454041084E+01  0.38304600232E+02  0.51100000000E-03 0.  1.
         23    2    1    0    0    0  0.19821857953E+02  0.38382876929E+01 -0.19932803958E+02  0.96628267964E+02  0.92369188537E+02 0.  0.
         11    1    3    3    0    0  0.31718777167E+02  0.38920089394E+02 -0.29678208067E+02  0.58323667732E+02  0.51100000000E-03 0. -1.
         22    1    1    0    0    0 -0.19821857953E+02 -0.38382876929E+01  0.19932803958E+02  0.28371732036E+02  0.00000000000E+00 0. -1.
</event>
<event>
 5    1  0.8952932E-005  0.9118800E+02  0.7818608E-02  0.1130116E+00
         25   -1    0    0    0    0  0.00000000000E+00  0.00000000000E+00  0.99999998245E-14  0.12500000000E+03  0.12500000000E+03 0.  0.
        -11    1    3    3    0    0 -0.26186432407E+02  0.17892679024E+02  0.51147503295E+02  0.60182591324E+02  0.51100000000E-03 0.  1.
         23    2    1    0    0    0 -0.12458622511E+01  0.12031980287E+02  0.27111096656E+02  0.95312758898E+02  0.90571461976E+02 0.  0.
         11    1    3    3    0    0  0.24940570156E+02 -0.58606987367E+01 -0.24036406639E+02  0.35130167574E+02  0.51100000000E-03 0. -1.
         22    1    1    0    0    0  0.12458622511E+01 -0.12031980287E+02 -0.27111096656E+02  0.29687241102E+02  0.00000000000E+00 0.  1.
</event>
<event>
 5    1  0.8952932E-005  0.9118800E+02  0.7818608E-02  0.1130116E+00
         25   -1    0    0    0    0  0.00000000000E+00  0.00000000000E+00  0.99999998245E-14  0.12500000000E+03  0.12500000000E+03 0.  0.
        -11    1    3    3    0    0  0.30492041870E+02 -0.36869774421E+00  0.47271017206E+02  0.56253440991E+02  0.51100000000E-03 0.  1.
         23    2    1    0    0    0  0.27788064279E+02 -0.46924722014E+01  0.82085530505E+01  0.95647382486E+02  0.91032113133E+02 0.  0.
         11    1    3    3    0    0 -0.27039775904E+01 -0.43237744572E+01 -0.39062464155E+02  0.39393941495E+02  0.51100000000E-03 0. -1.
         22    1    1    0    0    0 -0.27788064279E+02  0.46924722014E+01 -0.82085530505E+01  0.29352617514E+02  0.00000000000E+00 0.  1.
</event>
<event>
 5    1  0.8952932E-005  0.9118800E+02  0.7818608E-02  0.1130116E+00
         25   -1    0    0    0    0  0.00000000000E+00  0.00000000000E+00  0.99999998245E-14  0.12500000000E+03  0.12500000000E+03 0.  0.
        -11    1    3    3    0    0  0.55347316674E+02 -0.17607081809E+02 -0.20937765074E+01  0.58118144268E+02  0.51100000000E-03 0.  1.
         23    2    1    0    0    0  0.24859784062E+02 -0.17928115427E+01 -0.16228453939E+02  0.95258013616E+02  0.90495875066E+02 0.  0.
         11    1    3    3    0    0 -0.30487532612E+02  0.15814270266E+02 -0.14134677432E+02  0.37139869348E+02  0.51100000000E-03 0. -1.
         22    1    1    0    0    0 -0.24859784062E+02  0.17928115427E+01  0.16228453939E+02  0.29741986384E+02  0.00000000000E+00 0.  1.
</event>
<event>
 5    1  0.8952932E-005  0.9118800E+02  0.7818608E-02  0.1130116E+00
         25   -1    0    0    0    0  0.00000000000E+00  0.00000000000E+00  0.99999998245E-14  0.12500000000E+03  0.12500000000E+03 0.  0.
        -11    1    3    3    0    0 -0.54920423103E+02  0.20980028520E+01  0.16727206720E+02  0.57449577324E+02  0.51100000000E-03 0.  1.
         23    2    1    0    0    0 -0.22227973951E+02 -0.60717136727E+01  0.23790834809E+02  0.91879728960E+02  0.85702580124E+02 0.  0.
         11    1    3    3    0    0  0.32692449152E+02 -0.81697165247E+01  0.70636280885E+01  0.34430151636E+02  0.51100000000E-03 0. -1.
         22    1    1    0    0    0  0.22227973951E+02  0.60717136727E+01 -0.23790834809E+02  0.33120271040E+02  0.00000000000E+00 0.  1.
</event>
<event>
 5    1  0.8952932E-005  0.9118800E+02  0.7818608E-02  0.1130116E+00
         25   -1    0    0    0    0  0.00000000000E+00  0.00000000000E+00  0.99999998245E-14  0.12500000000E+03  0.12500000000E+03 0.  0.
        -11    1    3    3    0    0 -0.26289766543E+02  0.47515814857E+02  0.18352973687E+02  0.57321340964E+02  0.51100000000E-03 0.  1.
         23    2    1    0    0    0 -0.80962197395E+01  0.24855290419E+02 -0.91218769173E+01  0.97313489307E+02  0.93291866348E+02 0.  0.
         11    1    3    3    0    0  0.18193546804E+02 -0.22660524439E+02 -0.27474850604E+02  0.39992148343E+02  0.51100000000E-03 0. -1.
         22    1    1    0    0    0  0.80962197395E+01 -0.24855290419E+02  0.91218769173E+01  0.27686510693E+02  0.00000000000E+00 0.  1.
</event>
<event>
 5    1  0.8952932E-005  0.9118800E+02  0.7818608E-02  0.1130116E+00
         25   -1    0    0    0    0  0.00000000000E+00  0.00000000000E+00  0.99999998245E-14  0.12500000000E+03  0.12500000000E+03 0.  0.
        -11    1    3    3    0    0 -0.28486345974E+02  0.10639501119E+02 -0.23913450936E+02  0.38684932815E+02  0.51100000000E-03 0. -1.
         23    2    1    0    0    0  0.26209160103E+02  0.10459073929E+02 -0.72085987052E+01  0.95874818523E+02  0.91343881190E+02 0.  0.
         11    1    3    3    0    0  0.54695506077E+02 -0.18042719029E+00  0.16704852231E+02  0.57189885708E+02  0.51100000000E-03 0.  1.
         22    1    1    0    0    0 -0.26209160103E+02 -0.10459073929E+02  0.72085987052E+01  0.29125181477E+02  0.00000000000E+00 0.  1.
</event>
<event>
 5    1  0.8952932E-005  0.9118800E+02  0.7818608E-02  0.1130116E+00
         25   -1    0    0    0    0  0.00000000000E+00  0.00000000000E+00  0.99999998245E-14  0.12500000000E+03  0.12500000000E+03 0.  0.
        -11    1    3    3    0    0 -0.48297120580E+02 -0.36876705056E+02 -0.12461281844E+01  0.60778746843E+02  0.51100000000E-03 0. -1.
         23    2    1    0    0    0 -0.14934948316E+02 -0.23566213578E+02  0.29585485292E+01  0.96943412307E+02  0.92794682373E+02 0.  0.
         11    1    3    3    0    0  0.33362172264E+02  0.13310491478E+02  0.42046767137E+01  0.36164665464E+02  0.51100000000E-03 0.  1.
         22    1    1    0    0    0  0.14934948316E+02  0.23566213578E+02 -0.29585485292E+01  0.28056587693E+02  0.00000000000E+00 0. -1.
</event>
<event>
 5    1  0.8952932E-005  0.9118800E+02  0.7818608E-02  0.1130116E+00
         25   -1    0    0    0    0  0.00000000000E+00  0.00000000000E+00  0.99999998245E-14  0.12500000000E+03  0.12500000000E+03 0.  0.
        -11    1    3    3    0    0  0.20033798705E+02  0.50325031027E+02 -0.39349835238E+01  0.54308801625E+02  0.51100000000E-03 0. -1.
         23    2    1    0    0    0 -0.13487912442E+02  0.24088975487E+02  0.21448084680E+01  0.97308796967E+02  0.93285578960E+02 0.  0.
         11    1    3    3    0    0 -0.33521711146E+02 -0.26236055540E+02  0.60797919919E+01  0.42999995342E+02  0.51100000000E-03 0.  1.
         22    1    1    0    0    0  0.13487912442E+02 -0.24088975487E+02 -0.21448084680E+01  0.27691203033E+02  0.00000000000E+00 0.  1.
</event>
<event>
 5    1  0.8952932E-005  0.9118800E+02  0.7818608E-02  0.1130116E+00
         25   -1    0    0    0    0  0.00000000000E+00  0.00000000000E+00  0.99999998245E-14  0.12500000000E+03  0.12500000000E+03 0.  0.
        -11    1    3    3    0    0  0.30396564168E+02  0.33957010559E+02 -0.14760904064E+02  0.47905260341E+02  0.51100000000E-03 0. -1.
         23    2    1    0    0    0  0.21303728878E+02 -0.13310967561E+02 -0.14407737874E+02  0.96041173502E+02  0.91571247537E+02 0.  0.
         11    1    3    3    0    0 -0.90928352897E+01 -0.47267978120E+02  0.35316618969E+00  0.48135913160E+02  0.51100000000E-03 0.  1.
         22    1    1    0    0    0 -0.21303728878E+02  0.13310967561E+02  0.14407737874E+02  0.28958826498E+02  0.00000000000E+00 0.  1.
</event>
<event>
 5    1  0.8952932E-005  0.9118800E+02  0.7818608E-02  0.1130116E+00
         25   -1    0    0    0    0  0.00000000000E+00  0.00000000000E+00  0.99999998245E-14  0.12500000000E+03  0.12500000000E+03 0.  0.
        -11    1    3    3    0    0  0.19264789395E+02 -0.36330104648E+02  0.62052114442E+00  0.41126556638E+02  0.51100000000E-03 0. -1.
         23    2    1    0    0    0 -0.15065387261E+02 -0.89793227249E+01 -0.26866159122E+02  0.92915975378E+02  0.87200882132E+02 0.  0.
         11    1    3    3    0    0 -0.34330176656E+02  0.27350781923E+02 -0.27486680267E+02  0.51789418740E+02  0.51100000000E-03 0.  1.
         22    1    1    0    0    0  0.15065387261E+02  0.89793227249E+01  0.26866159122E+02  0.32084024622E+02  0.00000000000E+00 0.  1.
</event>
<event>
 5    1  0.8952932E-005  0.9118800E+02  0.7818608E-02  0.1130116E+00
         25   -1    0    0    0    0  0.00000000000E+00  0.00000000000E+00  0.99999998245E-14  0.12500000000E+03  0.12500000000E+03 0.  0.
        -11    1    3    3    0    0 -0.55736139965E+02 -0.11238809381E+02  0.20026098368E+02  0.60281612044E+02  0.51100000000E-03 0.  1.
         23    2    1    0    0    0 -0.28504311704E+02  0.60023781110E+01  0.70282094058E+01  0.95034685782E+02  0.90186869585E+02 0.  0.
         11    1    3    3    0    0  0.27231828260E+02  0.17241187492E+02 -0.12997888962E+02  0.34753073738E+02  0.51100000000E-03 0. -1.
         22    1    1    0    0    0  0.28504311704E+02 -0.60023781110E+01 -0.70282094058E+01  0.29965314218E+02  0.00000000000E+00 0.  1.
</event>
<event>
 5    1  0.8952932E-005  0.9118800E+02  0.7818608E-02  0.1130116E+00
         25   -1    0    0    0    0  0.00000000000E+00  0.00000000000E+00  0.99999998245E-14  0.12500000000E+03  0.12500000000E+03 0.  0.
        -11    1    3    3    0    0  0.21603267069E+01 -0.26321955452E+02  0.31144250030E+02  0.40834748199E+02  0.51100000000E-03 0.  1.
         23    2    1    0    0    0 -0.28678126305E+02 -0.36066822822E+01 -0.73902423952E+01  0.95166147280E+02  0.90368892989E+02 0.  0.
         11    1    3    3    0    0 -0.30838453012E+02  0.22715273170E+02 -0.38534492425E+02  0.54331399081E+02  0.51100000000E-03 0. -1.
         22    1    1    0    0    0  0.28678126305E+02  0.36066822822E+01  0.73902423952E+01  0.29833852720E+02  0.00000000000E+00 0. -1.
</event>
<event>
 5    1  0.8952932E-005  0.9118800E+02  0.7818608E-02  0.1130116E+00
         25   -1    0    0    0    0  0.00000000000E+00  0.00000000000E+00  0.99999998245E-14  0.12500000000E+03  0.12500000000E+03 0.  0.
        -11    1    3    3    0    0 -0.15484306431E+02 -0.14959275640E+02  0.33246751854E+02  0.39609218402E+02  0.51100000000E-03 0. -1.
         23    2    1    0    0    0  0.17881311555E+02 -0.23715403980E+02 -0.88256212501E+01  0.94015273451E+02  0.88762708175E+02 0.  0.
         11    1    3    3    0    0  0.33365617986E+02 -0.87561283408E+01 -0.42072373104E+02  0.54406055049E+02  0.51100000000E-03 0.  1.
         22    1    1    0    0    0 -0.17881311555E+02  0.23715403980E+02  0.88256212501E+01  0.30984726549E+02  0.00000000000E+00 0.  1.
</event>
<event>
 5    1  0.8952932E-005  0.9118800E+02  0.7818608E-02  0.1130116E+00
         25   -1    0    0    0    0  0.00000000000E+00  0.00000000000E+00  0.99999998245E-14  0.12500000000E+03  0.12500000000E+03 0.  0.
        -11    1    3    3    0    0  0.10997744424E+02 -0.46082926247E+02 -0.22616649167E+02  0.52498564683E+02  0.51100000000E-03 0.  1.
         23    2    1    0    0    0 -0.83126900899E+01 -0.25948949712E+02  0.10499432598E+02  0.95799197056E+02  0.91240337921E+02 0.  0.
         11    1    3    3    0    0 -0.19310434514E+02  0.20133976535E+02  0.33116081765E+02  0.43300632373E+02  0.51100000000E-03 0. -1.
         22    1    1    0    0    0  0.83126900899E+01  0.25948949712E+02 -0.10499432598E+02  0.29200802944E+02  0.00000000000E+00 0.  1.
</event>
<event>
 5    1  0.8952932E-005  0.9118800E+02  0.7818608E-02  0.1130116E+00
         25   -1    0    0    0    0  0.00000000000E+00  0.00000000000E+00  0.99999998245E-14  0.12500000000E+03  0.12500000000E+03 0.  0.
        -11    1    3    3    0    0  0.22420235818E+02  0.16698807392E+02  0.14721964362E+01  0.27994365595E+02  0.51100000000E-03 0.  1.
         23    2    1    0    0    0 -0.14870579876E+02 -0.27514218740E+02 -0.17866208811E+02  0.88981007843E+02  0.81364930779E+02 0.  0.
         11    1    3    3    0    0 -0.37290815694E+02 -0.44213026132E+02 -0.19338405247E+02  0.60986642248E+02  0.51100000000E-03 0. -1.
         22    1    1    0    0    0  0.14870579876E+02  0.27514218740E+02  0.17866208811E+02  0.36018992157E+02  0.00000000000E+00 0. -1.
</event>
<event>
 5    1  0.8952932E-005  0.9118800E+02  0.7818608E-02  0.1130116E+00
         25   -1    0    0    0    0  0.00000000000E+00  0.00000000000E+00  0.99999998245E-14  0.12500000000E+03  0.12500000000E+03 0.  0.
        -11    1    3    3    0    0 -0.21943578462E+02  0.31786280325E+02  0.18205225708E+02  0.42700333675E+02  0.51100000000E-03 0. -1.
         23    2    1    0    0    0  0.25321396473E+02  0.14169654273E+02  0.11009192419E+01  0.95962709411E+02  0.91464076843E+02 0.  0.
         11    1    3    3    0    0  0.47264974935E+02 -0.17616626052E+02 -0.17104306466E+02  0.53262375736E+02  0.51100000000E-03 0.  1.
         22    1    1    0    0    0 -0.25321396473E+02 -0.14169654273E+02 -0.11009192419E+01  0.29037290589E+02  0.00000000000E+00 0.  1.
</event>
<event>
 5    1  0.8952932E-005  0.9118800E+02  0.7818608E-02  0.1130116E+00
         25   -1    0    0    0    0  0.00000000000E+00  0.00000000000E+00  0.99999998245E-14  0.12500000000E+03  0.12500000000E+03 0.  0.
        -11    1    3    3    0    0 -0.33035286927E+02  0.18257816075E+02 -0.14753163116E+02  0.40525718406E+02  0.51100000000E-03 0.  1.
         23    2    1    0    0    0  0.13925507960E+02  0.29525050466E+02 -0.15584584607E+02  0.88826423258E+02  0.81127096672E+02 0.  0.
         11    1    3    3    0    0  0.46960794887E+02  0.11267234391E+02 -0.83142149080E+00  0.48300704852E+02  0.51100000000E-03 0. -1.
         22    1    1    0    0    0 -0.13925507960E+02 -0.29525050466E+02  0.15584584607E+02  0.36173576742E+02  0.00000000000E+00 0. -1.
</event>
<event>
 5    1  0.8952932E-005  0.9118800E+02  0.7818608E-02  0.1130116E+00
         25   -1    0    0    0    0  0.00000000000E+00  0.00000000000E+00  0.99999998245E-14  0.12500000000E+03  0.12500000000E+03 0.  0.
        -11    1    3    3    0    0 -0.20474531624E+02  0.82524869210E+01 -0.34511051947E+02  0.40967336897E+02  0.51100000000E-03 0.  1.
         23    2    1    0    0    0  0.27489138781E+02 -0.18523716073E+01 -0.13895999473E+02  0.94142540078E+02  0.88941750711E+02 0.  0.
         11    1    3    3    0    0  0.47963670405E+02 -0.10104858528E+02  0.20615052474E+02  0.53175203181E+02  0.51100000000E-03 0. -1.
         22    1    1    0    0    0 -0.27489138781E+02  0.18523716073E+01  0.13895999473E+02  0.30857459922E+02  0.00000000000E+00 0. -1.
</event>
<event>
 5    1  0.8952932E-005  0.9118800E+02  0.7818608E-02  0.1130116E+00
         25   -1    0    0    0    0  0.00000000000E+00  0.00000000000E+00  0.99999998245E-14  0.12500000000E+03  0.12500000000E+03 0.  0.
        -11    1    3    3    0    0  0.13364334637E+02 -0.36584761139E+02  0.53035145307E+01  0.39308745267E+02  0.51100000000E-03 0.  1.
         23    2    1    0    0    0  0.18686411208E+01  0.87613662397E+01 -0.27259145991E+02  0.96306544331E+02  0.91932780241E+02 0.  0.
         11    1    3    3    0    0 -0.11495693516E+02  0.45346127378E+02 -0.32562660522E+02  0.56997799064E+02  0.51100000000E-03 0. -1.
         22    1    1    0    0    0 -0.18686411208E+01 -0.87613662397E+01  0.27259145991E+02  0.28693455669E+02  0.00000000000E+00 0. -1.
</event>
<event>
 5    1  0.8952932E-005  0.9118800E+02  0.7818608E-02  0.1130116E+00
         25   -1    0    0    0    0  0.00000000000E+00  0.00000000000E+00  0.99999998245E-14  0.12500000000E+03  0.12500000000E+03 0.  0.
        -11    1    3    3    0    0 -0.79213250885E+01 -0.76684495489E+01  0.56596284176E+02  0.57660141280E+02  0.51100000000E-03 0.  1.
         23    2    1    0    0    0 -0.88304190819E+01 -0.19922380172E+02  0.23562083810E+02  0.92905618461E+02  0.87186034520E+02 0.  0.
         11    1    3    3    0    0 -0.90909399337E+00 -0.12253930623E+02 -0.33034200366E+02  0.35245477181E+02  0.51100000000E-03 0. -1.
         22    1    1    0    0    0  0.88304190819E+01  0.19922380172E+02 -0.23562083810E+02  0.32094381539E+02  0.00000000000E+00 0.  1.
</event>
<event>
 5    1  0.8952932E-005  0.9118800E+02  0.7818608E-02  0.1130116E+00
         25   -1    0    0    0    0  0.00000000000E+00  0.00000000000E+00  0.99999998245E-14  0.12500000000E+03  0.12500000000E+03 0.  0.
        -11    1    3    3    0    0 -0.14720447966E+02  0.35617948314E+02 -0.14786057235E+02  0.41279017905E+02  0.51100000000E-03 0. -1.
         23    2    1    0    0    0  0.26056626831E+01 -0.15109462305E+02 -0.24830961616E+02  0.95816751656E+02  0.91264384696E+02 0.  0.
         11    1    3    3    0    0  0.17326110649E+02 -0.50727410619E+02 -0.10044904381E+02  0.54537733750E+02  0.51100000000E-03 0.  1.
         22    1    1    0    0    0 -0.26056626831E+01  0.15109462305E+02  0.24830961616E+02  0.29183248344E+02  0.00000000000E+00 0.  1.
</event>
<event>
 4    1  0.8952932E-005  0.9118800E+02  0.7818608E-02  0.1130116E+00
         25   -1    0    0    0    0  0.00000000000E+00  0.00000000000E+00  0.99999998245E-14  0.12500000000E+03  0.12500000000E+03 0.  0.
        -11    1    1    0    0    0 -0.42077728416E+02  0.41708969817E+01  0.13933952061E+02  0.44520631516E+02  0.51100000000E-03 0.  1.
         11    1    1    0    0    0 -0.16974674923E+02 -0.66647091582E+01 -0.11009966292E+02  0.21302049078E+02  0.51100000000E-03 0. -1.
         22    1    1    0    0    0  0.59052403339E+02  0.24938121766E+01 -0.29239857691E+01  0.59177319406E+02  0.00000000000E+00 0.  1.
</event>
<event>
 5    1  0.8952932E-005  0.9118800E+02  0.7818608E-02  0.1130116E+00
         25   -1    0    0    0    0  0.00000000000E+00  0.00000000000E+00  0.99999998245E-14  0.12500000000E+03  0.12500000000E+03 0.  0.
        -11    1    3    3    0    0  0.26485210750E+02 -0.38851123132E+02 -0.36039837404E+01  0.47157871625E+02  0.51100000000E-03 0.  1.
         23    2    1    0    0    0 -0.50412154867E+01 -0.15761042510E+02 -0.27458257800E+02  0.92940988224E+02  0.87236729971E+02 0.  0.
         11    1    3    3    0    0 -0.31526426237E+02  0.23090080622E+02 -0.23854274060E+02  0.45783116600E+02  0.51100000000E-03 0. -1.
         22    1    1    0    0    0  0.50412154867E+01  0.15761042510E+02  0.27458257800E+02  0.32059011776E+02  0.00000000000E+00 0. -1.
</event>
<event>
 5    1  0.8952932E-005  0.9118800E+02  0.7818608E-02  0.1130116E+00
         25   -1    0    0    0    0  0.00000000000E+00  0.00000000000E+00  0.99999998245E-14  0.12500000000E+03  0.12500000000E+03 0.  0.
        -11    1    3    3    0    0 -0.11422116747E+02 -0.51905221005E+02  0.25460017465E+02  0.58930715320E+02  0.51100000000E-03 0. -1.
         23    2    1    0    0    0  0.31782502361E+01 -0.19773587069E+02  0.23279413690E+02  0.94291253332E+02  0.89150509438E+02 0.  0.
         11    1    3    3    0    0  0.14600366983E+02  0.32131633936E+02 -0.21806037752E+01  0.35360538012E+02  0.51100000000E-03 0.  1.
         22    1    1    0    0    0 -0.31782502361E+01  0.19773587069E+02 -0.23279413690E+02  0.30708746668E+02  0.00000000000E+00 0. -1.
</event>
<event>
 5    1  0.8952932E-005  0.9118800E+02  0.7818608E-02  0.1130116E+00
         25   -1    0    0    0    0  0.00000000000E+00  0.00000000000E+00  0.99999998245E-14  0.12500000000E+03  0.12500000000E+03 0.  0.
        -11    1    3    3    0    0 -0.22358837450E+02  0.30963822332E+02  0.32673965518E+00  0.38194013465E+02  0.51100000000E-03 0.  1.
         23    2    1    0    0    0  0.10300170261E+02 -0.93315344498E+01  0.25583584940E+02  0.95884868866E+02  0.91357633597E+02 0.  0.
         11    1    3    3    0    0  0.32659007711E+02 -0.40295356782E+02  0.25256845285E+02  0.57690855400E+02  0.51100000000E-03 0. -1.
         22    1    1    0    0    0 -0.10300170261E+02  0.93315344498E+01 -0.25583584940E+02  0.29115131134E+02  0.00000000000E+00 0. -1.
</event>
<event>
 5    1  0.8952932E-005  0.9118800E+02  0.7818608E-02  0.1130116E+00
         25   -1    0    0    0    0  0.00000000000E+00  0.00000000000E+00  0.99999998245E-14  0.12500000000E+03  0.12500000000E+03 0.  0.
        -11    1    3    3    0    0 -0.27567231513E+02  0.30767503961E+02 -0.39256410528E+02  0.56988220897E+02  0.51100000000E-03 0. -1.
         23    2    1    0    0    0 -0.28821434813E+02  0.77206879358E+01 -0.11658631725E+02  0.92965521378E+02  0.87271876023E+02 0.  0.
         11    1    3    3    0    0 -0.12542032994E+01 -0.23046816025E+02  0.27597778803E+02  0.35977300481E+02  0.51100000000E-03 0.  1.
         22    1    1    0    0    0  0.28821434813E+02 -0.77206879358E+01  0.11658631725E+02  0.32034478622E+02  0.00000000000E+00 0. -1.
</event>
<event>
 5    1  0.8952932E-005  0.9118800E+02  0.7818608E-02  0.1130116E+00
         25   -1    0    0    0    0  0.00000000000E+00  0.00000000000E+00  0.99999998245E-14  0.12500000000E+03  0.12500000000E+03 0.  0.
        -11    1    3    3    0    0  0.14274988033E+02 -0.23588929254E+02  0.35015002009E+02  0.44567513198E+02  0.51100000000E-03 0.  1.
         23    2    1    0    0    0 -0.72301607129E+00  0.22034071668E+02  0.20895158375E+02  0.94625163210E+02  0.89617469293E+02 0.  0.
         11    1    3    3    0    0 -0.14998004104E+02  0.45623000922E+02 -0.14119843634E+02  0.50057650012E+02  0.51100000000E-03 0. -1.
         22    1    1    0    0    0  0.72301607129E+00 -0.22034071668E+02 -0.20895158375E+02  0.30374836790E+02  0.00000000000E+00 0. -1.
</event>
<event>
 5    1  0.8952932E-005  0.9118800E+02  0.7818608E-02  0.1130116E+00
         25   -1    0    0    0    0  0.00000000000E+00  0.00000000000E+00  0.99999998245E-14  0.12500000000E+03  0.12500000000E+03 0.  0.
        -11    1    3    3    0    0 -0.68635144342E+01 -0.19639235061E+02 -0.40144034319E+02  0.45214498513E+02  0.51100000000E-03 0. -1.
         23    2    1    0    0    0  0.14613080771E+02  0.19420667716E+02 -0.15910659787E+02  0.95950842370E+02  0.91447857233E+02 0.  0.
         11    1    3    3    0    0  0.21476595205E+02  0.39059902777E+02  0.24233374532E+02  0.50736343857E+02  0.51100000000E-03 0.  1.
         22    1    1    0    0    0 -0.14613080771E+02 -0.19420667716E+02  0.15910659787E+02  0.29049157630E+02  0.00000000000E+00 0. -1.
</event>
<event>
 5    1  0.8952932E-005  0.9118800E+02  0.7818608E-02  0.1130116E+00
         25   -1    0    0    0    0  0.00000000000E+00  0.00000000000E+00  0.99999998245E-14  0.12500000000E+03  0.12500000000E+03 0.  0.
        -11    1    3    3    0    0  0.32782038967E+02  0.14244444990E+02  0.11124781306E+02  0.37434303136E+02  0.51100000000E-03 0.  1.
         23    2    1    0    0    0 -0.23666015675E+02  0.15441522214E+02  0.12930650502E+02  0.93923921923E+02  0.88633969113E+02 0.  0.
         11    1    3    3    0    0 -0.56448054643E+02  0.11970772243E+01  0.18058691966E+01  0.56489618787E+02  0.51100000000E-03 0. -1.
         22    1    1    0    0    0  0.23666015675E+02 -0.15441522214E+02 -0.12930650502E+02  0.31076078077E+02  0.00000000000E+00 0. -1.
</event>
<event>
 5    1  0.8952932E-005  0.9118800E+02  0.7818608E-02  0.1130116E+00
         25   -1    0    0    0    0  0.00000000000E+00  0.00000000000E+00  0.99999998245E-14  0.12500000000E+03  0.12500000000E+03 0.  0.
        -11    1    3    3    0    0  0.32515181544E+02  0.40007873241E+02  0.33934044891E+02  0.61720226467E+02  0.51100000000E-03 0. -1.
         23    2    1    0    0    0  0.88410674704E+01  0.19344050759E+02  0.18864860962E+02  0.96570442267E+02  0.92290901863E+02 0.  0.
         11    1    3    3    0    0 -0.23674114074E+02 -0.20663822482E+02 -0.15069183929E+02  0.34850215800E+02  0.51100000000E-03 0.  1.
         22    1    1    0    0    0 -0.88410674704E+01 -0.19344050759E+02 -0.18864860962E+02  0.28429557733E+02  0.00000000000E+00 0. -1.
</event>
<event>
 5    1  0.8952932E-005  0.9118800E+02  0.7818608E-02  0.1130116E+00
         25   -1    0    0    0    0  0.00000000000E+00  0.00000000000E+00  0.99999998245E-14  0.12500000000E+03  0.12500000000E+03 0.  0.
        -11    1    3    3    0    0 -0.27462153215E+02  0.12321228869E+02  0.17457197081E+02  0.34795635793E+02  0.51100000000E-03 0. -1.
         23    2    1    0    0    0  0.22212036247E+02 -0.19204817382E+02  0.23216963928E+01  0.95545121982E+02  0.90891586495E+02 0.  0.
         11    1    3    3    0    0  0.49674189461E+02 -0.31526046252E+02 -0.15135500688E+02  0.60749486189E+02  0.51100000000E-03 0.  1.
         22    1    1    0    0    0 -0.22212036247E+02  0.19204817382E+02 -0.23216963928E+01  0.29454878018E+02  0.00000000000E+00 0.  1.
</event>
<event>
 5    1  0.8952932E-005  0.9118800E+02  0.7818608E-02  0.1130116E+00
         25   -1    0    0    0    0  0.00000000000E+00  0.00000000000E+00  0.99999998245E-14  0.12500000000E+03  0.12500000000E+03 0.  0.
        -11    1    3    3    0    0  0.36565253971E+02  0.16270362931E+02  0.80309439454E+01  0.40819585602E+02  0.51100000000E-03 0.  1.
         23    2    1    0    0    0 -0.18090229674E+02  0.22130120304E+02 -0.29513086895E+00  0.96415288412E+02  0.92080519672E+02 0.  0.
         11    1    3    3    0    0 -0.54655483644E+02  0.58597573730E+01 -0.83260748143E+01  0.55595702810E+02  0.51100000000E-03 0. -1.
         22    1    1    0    0    0  0.18090229674E+02 -0.22130120304E+02  0.29513086895E+00  0.28584711588E+02  0.00000000000E+00 0. -1.
</event>
<event>
 5    1  0.8952932E-005  0.9118800E+02  0.7818608E-02  0.1130116E+00
         25   -1    0    0    0    0  0.00000000000E+00  0.00000000000E+00  0.99999998245E-14  0.12500000000E+03  0.12500000000E+03 0.  0.
        -11    1    3    3    0    0 -0.42698141405E+02 -0.27720692201E+02 -0.30355420940E+02  0.59270731700E+02  0.51100000000E-03 0.  1.
         23    2    1    0    0    0 -0.15470737005E+02  0.95283415043E+00 -0.19138499090E+02  0.10037209421E+03  0.97303769462E+02 0.  0.
         11    1    3    3    0    0  0.27227404400E+02  0.28673526351E+02  0.11216921850E+02  0.41101362506E+02  0.51100000000E-03 0. -1.
         22    1    1    0    0    0  0.15470737005E+02 -0.95283415043E+00  0.19138499090E+02  0.24627905794E+02  0.00000000000E+00 0.  1.
</event>
<event>
 5    1  0.8952932E-005  0.9118800E+02  0.7818608E-02  0.1130116E+00
         25   -1    0    0    0    0  0.00000000000E+00  0.00000000000E+00  0.99999998245E-14  0.12500000000E+03  0.12500000000E+03 0.  0.
        -11    1    3    3    0    0 -0.11731618502E+02 -0.20256971604E+02 -0.21868581777E+02  0.32034522635E+02  0.51100000000E-03 0. -1.
         23    2    1    0    0    0 -0.35402067882E+00  0.31085732755E+02  0.85125567321E+01  0.92767846276E+02  0.86988284091E+02 0.  0.
         11    1    3    3    0    0  0.11377597823E+02  0.51342704359E+02  0.30381138509E+02  0.60733323641E+02  0.51100000000E-03 0.  1.
         22    1    1    0    0    0  0.35402067882E+00 -0.31085732755E+02 -0.85125567321E+01  0.32232153724E+02  0.00000000000E+00 0.  1.
</event>
<event>
 5    1  0.8952932E-005  0.9118800E+02  0.7818608E-02  0.1130116E+00
         25   -1    0    0    0    0  0.00000000000E+00  0.00000000000E+00  0.99999998245E-14  0.12500000000E+03  0.12500000000E+03 0.  0.
        -11    1    3    3    0    0  0.47358941491E+02 -0.74157648737E+01  0.38258073015E+02  0.61331419835E+02  0.51100000000E-03 0. -1.
         23    2    1    0    0    0  0.26013656036E+02 -0.73815156731E+00  0.10602225649E+02  0.96899068399E+02  0.92734929233E+02 0.  0.
         11    1    3    3    0    0 -0.21345285455E+02  0.66776133064E+01 -0.27655847366E+02  0.35567648565E+02  0.51100000000E-03 0.  1.
         22    1    1    0    0    0 -0.26013656036E+02  0.73815156731E+00 -0.10602225649E+02  0.28100931601E+02  0.00000000000E+00 0. -1.
</event>
<event>
 5    1  0.8952932E-005  0.9118800E+02  0.7818608E-02  0.1130116E+00
         25   -1    0    0    0    0  0.00000000000E+00  0.00000000000E+00  0.99999998245E-14  0.12500000000E+03  0.12500000000E+03 0.  0.
        -11    1    3    3    0    0  0.62728567451E+01 -0.26300885804E+02  0.28831628324E+02  0.39526549532E+02  0.51100000000E-03 0. -1.
         23    2    1    0    0    0  0.14673492519E+02  0.17173624560E+02 -0.11705410067E+02  0.99558667723E+02  0.96253139849E+02 0.  0.
         11    1    3    3    0    0  0.84006357734E+01  0.43474510364E+02 -0.40537038391E+02  0.60032118191E+02  0.51100000000E-03 0.  1.
         22    1    1    0    0    0 -0.14673492519E+02 -0.17173624560E+02  0.11705410067E+02  0.25441332277E+02  0.00000000000E+00 0.  1.
</event>
<event>
 5    1  0.8952932E-005  0.9118800E+02  0.7818608E-02  0.1130116E+00
         25   -1    0    0    0    0  0.00000000000E+00  0.00000000000E+00  0.99999998245E-14  0.12500000000E+03  0.12500000000E+03 0.  0.
        -11    1    3    3    0    0  0.15016060474E+02  0.14171810136E+02 -0.23139540999E+02  0.31012265841E+02  0.51100000000E-03 0.  1.
         23    2    1    0    0    0 -0.35234785667E+02 -0.66674706974E+01 -0.30244724335E+01  0.89012603317E+02  0.81413456070E+02 0.  0.
         11    1    3    3    0    0 -0.50250846142E+02 -0.20839280833E+02  0.20115068566E+02  0.58000337475E+02  0.51100000000E-03 0. -1.
         22    1    1    0    0    0  0.35234785667E+02  0.66674706974E+01  0.30244724335E+01  0.35987396683E+02  0.00000000000E+00 0. -1.
</event>
<event>
 5    1  0.8952932E-005  0.9118800E+02  0.7818608E-02  0.1130116E+00
         25   -1    0    0    0    0  0.00000000000E+00  0.00000000000E+00  0.99999998245E-14  0.12500000000E+03  0.12500000000E+03 0.  0.
        -11    1    3    3    0    0 -0.49858996776E+02 -0.28089043328E+02 -0.67259397090E+01  0.57620761708E+02  0.51100000000E-03 0. -1.
         23    2    1    0    0    0 -0.11726350741E+02 -0.23413085670E+02 -0.11624818731E+02  0.96350108328E+02  0.91991994663E+02 0.  0.
         11    1    3    3    0    0  0.38132646035E+02  0.46759576580E+01 -0.48988790221E+01  0.38729346620E+02  0.51100000000E-03 0.  1.
         22    1    1    0    0    0  0.11726350741E+02  0.23413085670E+02  0.11624818731E+02  0.28649891672E+02  0.00000000000E+00 0. -1.
</event>
<event>
 5    1  0.8952932E-005  0.9118800E+02  0.7818608E-02  0.1130116E+00
         25   -1    0    0    0    0  0.00000000000E+00  0.00000000000E+00  0.99999998245E-14  0.12500000000E+03  0.12500000000E+03 0.  0.
        -11    1    3    3    0    0  0.35735272100E+01  0.39413910260E+02  0.18614974732E+02  0.43734925439E+02  0.51100000000E-03 0.  1.
         23    2    1    0    0    0  0.18198301692E+02 -0.66447888665E+01  0.25952723241E+02  0.92613656471E+02  0.86766434281E+02 0.  0.
         11    1    3    3    0    0  0.14624774482E+02 -0.46058699126E+02  0.73377485092E+01  0.48878731032E+02  0.51100000000E-03 0. -1.
         22    1    1    0    0    0 -0.18198301692E+02  0.66447888665E+01 -0.25952723241E+02  0.32386343529E+02  0.00000000000E+00 0.  1.
</event>
<event>
 5    1  0.8952932E-005  0.9118800E+02  0.7818608E-02  0.1130116E+00
         25   -1    0    0    0    0  0.00000000000E+00  0.00000000000E+00  0.99999998245E-14  0.12500000000E+03  0.12500000000E+03 0.  0.
        -11    1    3    3    0    0 -0.17471917377E+02 -0.24751454498E+02  0.18049489743E+02  0.35265939330E+02  0.51100000000E-03 0. -1.
         23    2    1    0    0    0 -0.40493305862E+01  0.20402350706E+02 -0.20244749769E+02  0.95974099743E+02  0.91479642193E+02 0.  0.
         11    1    3    3    0    0  0.13422586791E+02  0.45153805204E+02 -0.38294239512E+02  0.60708160412E+02  0.51100000000E-03 0.  1.
         22    1    1    0    0    0  0.40493305862E+01 -0.20402350706E+02  0.20244749769E+02  0.29025900257E+02  0.00000000000E+00 0.  1.
</event>
<event>
 5    1  0.8952932E-005  0.9118800E+02  0.7818608E-02  0.1130116E+00
         25   -1    0    0    0    0  0.00000000000E+00  0.00000000000E+00  0.99999998245E-14  0.12500000000E+03  0.12500000000E+03 0.  0.
        -11    1    3    3    0    0 -0.29563089315E+02 -0.24448584633E+02  0.13157007246E+02  0.40556335884E+02  0.51100000000E-03 0.  1.
         23    2    1    0    0    0 -0.14519308681E+02  0.26506000931E+02  0.32172629945E+01  0.94607086498E+02  0.89592252034E+02 0.  0.
         11    1    3    3    0    0  0.15043780634E+02  0.50954585565E+02 -0.99397442518E+01  0.54050750614E+02  0.51100000000E-03 0. -1.
         22    1    1    0    0    0  0.14519308681E+02 -0.26506000931E+02 -0.32172629945E+01  0.30392913502E+02  0.00000000000E+00 0.  1.
</event>
<event>
 5    1  0.8952932E-005  0.9118800E+02  0.7818608E-02  0.1130116E+00
         25   -1    0    0    0    0  0.00000000000E+00  0.00000000000E+00  0.99999998245E-14  0.12500000000E+03  0.12500000000E+03 0.  0.
        -11    1    3    3    0    0  0.18738943061E+02  0.41320627808E+02  0.34203927411E+01  0.45499905014E+02  0.51100000000E-03 0. -1.
         23    2    1    0    0    0  0.20811728585E+02 -0.69886309210E+01  0.18648533538E+02  0.96194847475E+02  0.91780781588E+02 0.  0.
         11    1    3    3    0    0  0.20727855243E+01 -0.48309258729E+02  0.15228140797E+02  0.50694942462E+02  0.51100000000E-03 0.  1.
         22    1    1    0    0    0 -0.20811728585E+02  0.69886309210E+01 -0.18648533538E+02  0.28805152525E+02  0.00000000000E+00 0. -1.
</event>
<event>
 5    1  0.8952932E-005  0.9118800E+02  0.7818608E-02  0.1130116E+00
         25   -1    0    0    0    0  0.00000000000E+00  0.00000000000E+00  0.99999998245E-14  0.12500000000E+03  0.12500000000E+03 0.  0.
        -11    1    3    3    0    0 -0.24759923126E+02  0.26141600464E+02  0.10970520993E+02  0.37640263005E+02  0.51100000000E-03 0.  1.
         23    2    1    0    0    0  0.15126428712E+02 -0.14049255047E+02  0.21454376965E+02  0.95226174181E+02  0.90451885249E+02 0.  0.
         11    1    3    3    0    0  0.39886351838E+02 -0.40190855511E+02  0.10483855972E+02  0.57585911175E+02  0.51100000000E-03 0. -1.
         22    1    1    0    0    0 -0.15126428712E+02  0.14049255047E+02 -0.21454376965E+02  0.29773825819E+02  0.00000000000E+00 0. -1.
</event>
<event>
 5    1  0.8952932E-005  0.9118800E+02  0.7818608E-02  0.1130116E+00
         25   -1    0    0    0    0  0.00000000000E+00  0.00000000000E+00  0.99999998245E-14  0.12500000000E+03  0.12500000000E+03 0.  0.
        -11    1    3    3    0    0 -0.38378711884E+02 -0.37549347953E+02  0.29847373197E+02  0.61430812665E+02  0.51100000000E-03 0.  1.
         23    2    1    0    0    0 -0.11869736018E+02 -0.15460702501E+02  0.19438619718E+02  0.97472125191E+02  0.93504177969E+02 0.  0.
         11    1    3    3    0    0  0.26508975866E+02  0.22088645452E+02 -0.10408753479E+02  0.36041312526E+02  0.51100000000E-03 0. -1.
         22    1    1    0    0    0  0.11869736018E+02  0.15460702501E+02 -0.19438619718E+02  0.27527874809E+02  0.00000000000E+00 0.  1.
</event>
<event>
 5    1  0.8952932E-005  0.9118800E+02  0.7818608E-02  0.1130116E+00
         25   -1    0    0    0    0  0.00000000000E+00  0.00000000000E+00  0.99999998245E-14  0.12500000000E+03  0.12500000000E+03 0.  0.
        -11    1    3    3    0    0  0.30261880967E+02 -0.29578695758E+01 -0.23471271145E+02  0.38411339491E+02  0.51100000000E-03 0.  1.
         23    2    1    0    0    0 -0.10183243827E+02 -0.25865782671E+02  0.97464381388E+01  0.95542739021E+02  0.90888309233E+02 0.  0.
         11    1    3    3    0    0 -0.40445124794E+02 -0.22907913095E+02  0.33217709283E+02  0.57131399530E+02  0.51100000000E-03 0. -1.
         22    1    1    0    0    0  0.10183243827E+02  0.25865782671E+02 -0.97464381388E+01  0.29457260979E+02  0.00000000000E+00 0. -1.
</event>
<event>
 5    1  0.8952932E-005  0.9118800E+02  0.7818608E-02  0.1130116E+00
         25   -1    0    0    0    0  0.00000000000E+00  0.00000000000E+00  0.99999998245E-14  0.12500000000E+03  0.12500000000E+03 0.  0.
        -11    1    3    3    0    0  0.66670175931E+01  0.33420893753E+02 -0.34240359599E+02  0.48309496878E+02  0.51100000000E-03 0.  1.
         23    2    1    0    0    0  0.11178910900E+02  0.23776211559E+02  0.12255559946E+02  0.96009052540E+02  0.91527390081E+02 0.  0.
         11    1    3    3    0    0  0.45118933074E+01 -0.96446821933E+01  0.46495919545E+02  0.47699555663E+02  0.51100000000E-03 0. -1.
         22    1    1    0    0    0 -0.11178910900E+02 -0.23776211559E+02 -0.12255559946E+02  0.28990947460E+02  0.00000000000E+00 0.  1.
</event>
<event>
 5    1  0.8952932E-005  0.9118800E+02  0.7818608E-02  0.1130116E+00
         25   -1    0    0    0    0  0.00000000000E+00  0.00000000000E+00  0.99999998245E-14  0.12500000000E+03  0.12500000000E+03 0.  0.
        -11    1    3    3    0    0 -0.39980749310E+01  0.39402456223E+01  0.38941378519E+02  0.39343882624E+02  0.51100000000E-03 0. -1.
         23    2    1    0    0    0 -0.27278346018E+02  0.12544942026E+01 -0.11812932066E+02  0.95247230698E+02  0.90480979628E+02 0.  0.
         11    1    3    3    0    0 -0.23280271087E+02 -0.26857514196E+01 -0.50754310585E+02  0.55903348073E+02  0.51100000000E-03 0.  1.
         22    1    1    0    0    0  0.27278346018E+02 -0.12544942026E+01  0.11812932066E+02  0.29752769302E+02  0.00000000000E+00 0.  1.
</event>
<event>
 5    1  0.8952932E-005  0.9118800E+02  0.7818608E-02  0.1130116E+00
         25   -1    0    0    0    0  0.00000000000E+00  0.00000000000E+00  0.99999998245E-14  0.12500000000E+03  0.12500000000E+03 0.  0.
        -11    1    3    3    0    0  0.45236522615E+01 -0.49661093616E+02  0.10006005621E+02  0.50860670441E+02  0.51100000000E-03 0. -1.
         23    2    1    0    0    0 -0.21725286096E+02 -0.14708088181E+02  0.14871596422E+02  0.94842409014E+02  0.89919976944E+02 0.  0.
         11    1    3    3    0    0 -0.26248938358E+02  0.34953005435E+02  0.48655908019E+01  0.43981738574E+02  0.51100000000E-03 0.  1.
         22    1    1    0    0    0  0.21725286096E+02  0.14708088181E+02 -0.14871596422E+02  0.30157590986E+02  0.00000000000E+00 0. -1.
</event>
<event>
 5    1  0.8952932E-005  0.9118800E+02  0.7818608E-02  0.1130116E+00
         25   -1    0    0    0    0  0.00000000000E+00  0.00000000000E+00  0.99999998245E-14  0.12500000000E+03  0.12500000000E+03 0.  0.
        -11    1    3    3    0    0  0.45482879490E+01  0.50980384983E+02  0.12451965113E+02  0.52675782023E+02  0.51100000000E-03 0.  1.
         23    2    1    0    0    0 -0.14695643894E+02  0.13517011572E+02  0.21398938639E+02  0.95732507347E+02  0.91148926691E+02 0.  0.
         11    1    3    3    0    0 -0.19243931843E+02 -0.37463373411E+02  0.89469735259E+01  0.43056725324E+02  0.51100000000E-03 0. -1.
         22    1    1    0    0    0  0.14695643894E+02 -0.13517011572E+02 -0.21398938639E+02  0.29267492653E+02  0.00000000000E+00 0. -1.
</event>
<event>
 5    1  0.8952932E-005  0.9118800E+02  0.7818608E-02  0.1130116E+00
         25   -1    0    0    0    0  0.00000000000E+00  0.00000000000E+00  0.99999998245E-14  0.12500000000E+03  0.12500000000E+03 0.  0.
        -11    1    3    3    0    0 -0.46523194778E+02 -0.11267925560E+02 -0.39097740587E+02  0.61806206145E+02  0.51100000000E-03 0. -1.
         23    2    1    0    0    0 -0.23591352607E+02  0.10352103948E+01 -0.17994218138E+02  0.95311357984E+02  0.90569528517E+02 0.  0.
         11    1    3    3    0    0  0.22931842171E+02  0.12303135955E+02  0.21103522449E+02  0.33505151838E+02  0.51100000000E-03 0.  1.
         22    1    1    0    0    0  0.23591352607E+02 -0.10352103948E+01  0.17994218138E+02  0.29688642016E+02  0.00000000000E+00 0. -1.
</event>
<event>
 5    1  0.8952932E-005  0.9118800E+02  0.7818608E-02  0.1130116E+00
         25   -1    0    0    0    0  0.00000000000E+00  0.00000000000E+00  0.99999998245E-14  0.12500000000E+03  0.12500000000E+03 0.  0.
        -11    1    3    3    0    0 -0.11108060703E+02  0.17692630668E+02  0.53350162000E+02  0.57294484710E+02  0.51100000000E-03 0. -1.
         23    2    1    0    0    0  0.74575228082E+01  0.17729185913E+02  0.12789638845E+02  0.10190208794E+03  0.99249795898E+02 0.  0.
         11    1    3    3    0    0  0.18565583511E+02  0.36555245288E-01 -0.40560523155E+02  0.44607603233E+02  0.51100000000E-03 0.  1.
         22    1    1    0    0    0 -0.74575228082E+01 -0.17729185913E+02 -0.12789638845E+02  0.23097912057E+02  0.00000000000E+00 0. -1.
</event>
<event>
 5    1  0.8952932E-005  0.9118800E+02  0.7818608E-02  0.1130116E+00
         25   -1    0    0    0    0  0.00000000000E+00  0.00000000000E+00  0.99999998245E-14  0.12500000000E+03  0.12500000000E+03 0.  0.
        -11    1    3    3    0    0 -0.11035512697E+01 -0.16640984113E+02  0.32835421595E+02  0.36828047590E+02  0.51100000000E-03 0.  1.
         23    2    1    0    0    0  0.12729152873E+02  0.24599716525E+02 -0.76637013684E+01  0.96261355205E+02  0.91871316532E+02 0.  0.
         11    1    3    3    0    0  0.13832704142E+02  0.41240700638E+02 -0.40499122964E+02  0.59433307616E+02  0.51100000000E-03 0. -1.
         22    1    1    0    0    0 -0.12729152873E+02 -0.24599716525E+02  0.76637013684E+01  0.28738644795E+02  0.00000000000E+00 0. -1.
</event>
<event>
 5    1  0.8952932E-005  0.9118800E+02  0.7818608E-02  0.1130116E+00
         25   -1    0    0    0    0  0.00000000000E+00  0.00000000000E+00  0.99999998245E-14  0.12500000000E+03  0.12500000000E+03 0.  0.
        -11    1    3    3    0    0 -0.21321825362E+02  0.86345761794E+01 -0.33662076927E+02  0.40771455282E+02  0.51100000000E-03 0.  1.
         23    2    1    0    0    0  0.23924139817E+02  0.16625585667E+02 -0.36799062191E+01  0.95634777805E+02  0.91014803474E+02 0.  0.
         11    1    3    3    0    0  0.45245965179E+02  0.79910094875E+01  0.29982170708E+02  0.54863322523E+02  0.51100000000E-03 0. -1.
         22    1    1    0    0    0 -0.23924139817E+02 -0.16625585667E+02  0.36799062191E+01  0.29365222195E+02  0.00000000000E+00 0. -1.
</event>
<event>
 5    1  0.8952932E-005  0.9118800E+02  0.7818608E-02  0.1130116E+00
         25   -1    0    0    0    0  0.00000000000E+00  0.00000000000E+00  0.99999998245E-14  0.12500000000E+03  0.12500000000E+03 0.  0.
        -11    1    3    3    0    0 -0.33845969085E+02  0.15547561243E+02  0.30734996943E+02  0.48289919458E+02  0.51100000000E-03 0.  1.
         23    2    1    0    0    0 -0.22571296349E+02 -0.19314295147E+02  0.13414946914E+01  0.95262733416E+02  0.90502394190E+02 0.  0.
         11    1    3    3    0    0  0.11274672736E+02 -0.34861856390E+02 -0.29393502252E+02  0.46972813958E+02  0.51100000000E-03 0. -1.
         22    1    1    0    0    0  0.22571296349E+02  0.19314295147E+02 -0.13414946914E+01  0.29737266584E+02  0.00000000000E+00 0. -1.
</event>
<event>
 5    1  0.8952932E-005  0.9118800E+02  0.7818608E-02  0.1130116E+00
         25   -1    0    0    0    0  0.00000000000E+00  0.00000000000E+00  0.99999998245E-14  0.12500000000E+03  0.12500000000E+03 0.  0.
        -11    1    3    3    0    0  0.51977310388E+02  0.78338002010E+01 -0.20871157765E+02  0.56556294499E+02  0.51100000000E-03 0.  1.
         23    2    1    0    0    0  0.19136177541E+02 -0.14760115592E+02 -0.14189809383E+02  0.96974922061E+02  0.92837118198E+02 0.  0.
         11    1    3    3    0    0 -0.32841132847E+02 -0.22593915793E+02  0.66813483814E+01  0.40418627562E+02  0.51100000000E-03 0. -1.
         22    1    1    0    0    0 -0.19136177541E+02  0.14760115592E+02  0.14189809383E+02  0.28025077939E+02  0.00000000000E+00 0.  1.
</event>
<event>
 5    1  0.8952932E-005  0.9118800E+02  0.7818608E-02  0.1130116E+00
         25   -1    0    0    0    0  0.00000000000E+00  0.00000000000E+00  0.99999998245E-14  0.12500000000E+03  0.12500000000E+03 0.  0.
        -11    1    3    3    0    0 -0.48676594008E+02 -0.34750180085E+02 -0.15195254511E+02  0.61708034972E+02  0.51100000000E-03 0.  1.
         23    2    1    0    0    0 -0.23550889847E+02 -0.12702586962E+02 -0.13116108836E+02  0.95200126861E+02  0.90415881985E+02 0.  0.
         11    1    3    3    0    0  0.25125704161E+02  0.22047593123E+02  0.20791456750E+01  0.33492091889E+02  0.51100000000E-03 0. -1.
         22    1    1    0    0    0  0.23550889847E+02  0.12702586962E+02  0.13116108836E+02  0.29799873139E+02  0.00000000000E+00 0.  1.
</event>
<event>
 5    1  0.8952932E-005  0.9118800E+02  0.7818608E-02  0.1130116E+00
         25   -1    0    0    0    0  0.00000000000E+00  0.00000000000E+00  0.99999998245E-14  0.12500000000E+03  0.12500000000E+03 0.  0.
        -11    1    3    3    0    0 -0.29902179346E+02 -0.36968146224E+02  0.23860990545E+02  0.53198975883E+02  0.51100000000E-03 0. -1.
         23    2    1    0    0    0 -0.16099828520E+02  0.31471420086E+01  0.24367209335E+02  0.95625353245E+02  0.91001858834E+02 0.  0.
         11    1    3    3    0    0  0.13802350826E+02  0.40115288233E+02  0.50621879029E+00  0.42426377362E+02  0.51100000000E-03 0.  1.
         22    1    1    0    0    0  0.16099828520E+02 -0.31471420086E+01 -0.24367209335E+02  0.29374646755E+02  0.00000000000E+00 0. -1.
</event>
<event>
 5    1  0.8952932E-005  0.9118800E+02  0.7818608E-02  0.1130116E+00
         25   -1    0    0    0    0  0.00000000000E+00  0.00000000000E+00  0.99999998245E-14  0.12500000000E+03  0.12500000000E+03 0.  0.
        -11    1    3    3    0    0  0.35161868326E+02 -0.12598234921E+01  0.86306214624E+01  0.36227500142E+02  0.51100000000E-03 0.  1.
         23    2    1    0    0    0 -0.22821761520E+02  0.10941647791E+02  0.14601190597E+02  0.95781046868E+02  0.91215468628E+02 0.  0.
         11    1    3    3    0    0 -0.57983629847E+02  0.12201471283E+02  0.59705691343E+01  0.59553546727E+02  0.51100000000E-03 0. -1.
         22    1    1    0    0    0  0.22821761520E+02 -0.10941647791E+02 -0.14601190597E+02  0.29218953132E+02  0.00000000000E+00 0. -1.
</event>
<event>
 5    1  0.8952932E-005  0.9118800E+02  0.7818608E-02  0.1130116E+00
         25   -1    0    0    0    0  0.00000000000E+00  0.00000000000E+00  0.99999998245E-14  0.12500000000E+03  0.12500000000E+03 0.  0.
        -11    1    3    3    0    0 -0.38438421550E+02 -0.19391559359E+02 -0.29142192126E+01  0.43151332535E+02  0.51100000000E-03 0. -1.
         23    2    1    0    0    0  0.69943499266E+01  0.10363199902E+02  0.19444425336E+02  0.10188285226E+03  0.99225566587E+02 0.  0.
         11    1    3    3    0    0  0.45432771477E+02  0.29754759260E+02  0.22358644548E+02  0.58731519723E+02  0.51100000000E-03 0.  1.
         22    1    1    0    0    0 -0.69943499266E+01 -0.10363199902E+02 -0.19444425336E+02  0.23117147742E+02  0.00000000000E+00 0.  1.
</event>
<event>
 5    1  0.8952932E-005  0.9118800E+02  0.7818608E-02  0.1130116E+00
         25   -1    0    0    0    0  0.00000000000E+00  0.00000000000E+00  0.99999998245E-14  0.12500000000E+03  0.12500000000E+03 0.  0.
        -11    1    3    3    0    0 -0.87326769623E+01  0.10225041650E+02  0.45556951746E+02  0.47499968172E+02  0.51100000000E-03 0.  1.
         23    2    1    0    0    0 -0.21868804698E+02 -0.17218429024E+02  0.75974205096E+01  0.96147968609E+02  0.91716913120E+02 0.  0.
         11    1    3    3    0    0 -0.13136127736E+02 -0.27443470674E+02 -0.37959531237E+02  0.48648000437E+02  0.51100000000E-03 0. -1.
         22    1    1    0    0    0  0.21868804698E+02  0.17218429024E+02 -0.75974205096E+01  0.28852031391E+02  0.00000000000E+00 0. -1.
</event>
<event>
 5    1  0.8952932E-005  0.9118800E+02  0.7818608E-02  0.1130116E+00
         25   -1    0    0    0    0  0.00000000000E+00  0.00000000000E+00  0.99999998245E-14  0.12500000000E+03  0.12500000000E+03 0.  0.
        -11    1    3    3    0    0  0.13470142249E+02  0.45655441864E+02  0.26712407406E+02  0.54584034421E+02  0.51100000000E-03 0.  1.
         23    2    1    0    0    0  0.87665673725E+01  0.26013574939E+02 -0.94195591444E+01  0.95977820911E+02  0.91484726746E+02 0.  0.
         11    1    3    3    0    0 -0.47035748769E+01 -0.19641866925E+02 -0.36131966550E+02  0.41393786490E+02  0.51100000000E-03 0. -1.
         22    1    1    0    0    0 -0.87665673725E+01 -0.26013574939E+02  0.94195591444E+01  0.29022179089E+02  0.00000000000E+00 0.  1.
</event>
<event>
 5    1  0.8952932E-005  0.9118800E+02  0.7818608E-02  0.1130116E+00
         25   -1    0    0    0    0  0.00000000000E+00  0.00000000000E+00  0.99999998245E-14  0.12500000000E+03  0.12500000000E+03 0.  0.
        -11    1    3    3    0    0 -0.40438943365E+02 -0.41353479517E+02 -0.21548485860E+02  0.61723218093E+02  0.51100000000E-03 0.  1.
         23    2    1    0    0    0 -0.11847489397E+02 -0.21093708637E+02 -0.11721567318E+02  0.98116869798E+02  0.94362161111E+02 0.  0.
         11    1    3    3    0    0  0.28591453969E+02  0.20259770880E+02  0.98269185423E+01  0.36393651705E+02  0.51100000000E-03 0. -1.
         22    1    1    0    0    0  0.11847489397E+02  0.21093708637E+02  0.11721567318E+02  0.26883130202E+02  0.00000000000E+00 0.  1.
</event>
<event>
 5    1  0.8952932E-005  0.9118800E+02  0.7818608E-02  0.1130116E+00
         25   -1    0    0    0    0  0.00000000000E+00  0.00000000000E+00  0.99999998245E-14  0.12500000000E+03  0.12500000000E+03 0.  0.
        -11    1    3    3    0    0 -0.40398665631E+02 -0.24079290221E+02 -0.24689753662E+02  0.53117307334E+02  0.51100000000E-03 0.  1.
         23    2    1    0    0    0  0.10511372209E+01 -0.10343903799E+02 -0.26202760824E+02  0.96809826002E+02  0.92614558793E+02 0.  0.
         11    1    3    3    0    0  0.41449802851E+02  0.13735386422E+02 -0.15130071619E+01  0.43692518668E+02  0.51100000000E-03 0. -1.
         22    1    1    0    0    0 -0.10511372209E+01  0.10343903799E+02  0.26202760824E+02  0.28190173998E+02  0.00000000000E+00 0. -1.
</event>
<event>
 5    1  0.8952932E-005  0.9118800E+02  0.7818608E-02  0.1130116E+00
         25   -1    0    0    0    0  0.00000000000E+00  0.00000000000E+00  0.99999998245E-14  0.12500000000E+03  0.12500000000E+03 0.  0.
        -11    1    3    3    0    0 -0.99862545126E+01  0.47977659794E+02  0.21508136439E+02  0.53518044171E+02  0.51100000000E-03 0.  1.
         23    2    1    0    0    0 -0.22805609602E+02  0.85231394434E+01 -0.83948592191E+00  0.10063928425E+03  0.97646408342E+02 0.  0.
         11    1    3    3    0    0 -0.12819355090E+02 -0.39454520351E+02 -0.22347622361E+02  0.47121240078E+02  0.51100000000E-03 0. -1.
         22    1    1    0    0    0  0.22805609602E+02 -0.85231394434E+01  0.83948592191E+00  0.24360715751E+02  0.00000000000E+00 0.  1.
</event>
<event>
 5    1  0.8952932E-005  0.9118800E+02  0.7818608E-02  0.1130116E+00
         25   -1    0    0    0    0  0.00000000000E+00  0.00000000000E+00  0.99999998245E-14  0.12500000000E+03  0.12500000000E+03 0.  0.
        -11    1    3    3    0    0 -0.20480608544E+02 -0.15989864808E+02  0.43080366406E+02  0.50309532624E+02  0.51100000000E-03 0.  1.
         23    2    1    0    0    0  0.10225322579E+02 -0.18655815709E+02 -0.53838754371E+00  0.10371886886E+03  0.10151215304E+03 0.  0.
         11    1    3    3    0    0  0.30705931124E+02 -0.26659509009E+01 -0.43618753950E+02  0.53409336232E+02  0.51100000000E-03 0. -1.
         22    1    1    0    0    0 -0.10225322579E+02  0.18655815709E+02  0.53838754371E+00  0.21281131144E+02  0.00000000000E+00 0. -1.
</event>
<event>
 5    1  0.8952932E-005  0.9118800E+02  0.7818608E-02  0.1130116E+00
         25   -1    0    0    0    0  0.00000000000E+00  0.00000000000E+00  0.99999998245E-14  0.12500000000E+03  0.12500000000E+03 0.  0.
        -11    1    3    3    0    0 -0.46931741299E+01  0.12009361559E+02 -0.36615736524E+02  0.38819618879E+02  0.51100000000E-03 0.  1.
         23    2    1    0    0    0 -0.29615362046E+02 -0.16219919252E+02 -0.15752233444E+00  0.91233444610E+02  0.84754711683E+02 0.  0.
         11    1    3    3    0    0 -0.24922187916E+02 -0.28229280810E+02  0.36458214189E+02  0.52413825731E+02  0.51100000000E-03 0. -1.
         22    1    1    0    0    0  0.29615362046E+02  0.16219919252E+02  0.15752233444E+00  0.33766555390E+02  0.00000000000E+00 0. -1.
</event>
<event>
 5    1  0.8952932E-005  0.9118800E+02  0.7818608E-02  0.1130116E+00
         25   -1    0    0    0    0  0.00000000000E+00  0.00000000000E+00  0.99999998245E-14  0.12500000000E+03  0.12500000000E+03 0.  0.
        -11    1    3    3    0    0  0.10020461872E+02 -0.18380292294E+02  0.54869144777E+02  0.58727062329E+02  0.51100000000E-03 0. -1.
         23    2    1    0    0    0  0.10280677270E+02 -0.21205230276E+02  0.18944722827E+02  0.94763322948E+02  0.89809970142E+02 0.  0.
         11    1    3    3    0    0  0.26021539817E+00 -0.28249379819E+01 -0.35924421951E+02  0.36036260619E+02  0.51100000000E-03 0.  1.
         22    1    1    0    0    0 -0.10280677270E+02  0.21205230276E+02 -0.18944722827E+02  0.30236677052E+02  0.00000000000E+00 0. -1.
</event>
<event>
 5    1  0.8952932E-005  0.9118800E+02  0.7818608E-02  0.1130116E+00
         25   -1    0    0    0    0  0.00000000000E+00  0.00000000000E+00  0.99999998245E-14  0.12500000000E+03  0.12500000000E+03 0.  0.
        -11    1    3    3    0    0  0.54202658783E+02 -0.13520243327E+02 -0.26000612973E+02  0.61617830812E+02  0.51100000000E-03 0. -1.
         23    2    1    0    0    0  0.22521798043E+02 -0.12938311353E+02 -0.13942007485E+02  0.95521009847E+02  0.90858419872E+02 0.  0.
         11    1    3    3    0    0 -0.31680860740E+02  0.58193197352E+00  0.12058605488E+02  0.33903179034E+02  0.51100000000E-03 0.  1.
         22    1    1    0    0    0 -0.22521798043E+02  0.12938311353E+02  0.13942007485E+02  0.29478990153E+02  0.00000000000E+00 0. -1.
</event>
<event>
 5    1  0.8952932E-005  0.9118800E+02  0.7818608E-02  0.1130116E+00
         25   -1    0    0    0    0  0.00000000000E+00  0.00000000000E+00  0.99999998245E-14  0.12500000000E+03  0.12500000000E+03 0.  0.
        -11    1    3    3    0    0  0.11730802924E+02 -0.37747583565E+02  0.15215326882E+02  0.42355613260E+02  0.51100000000E-03 0.  1.
         23    2    1    0    0    0  0.25053507393E+02  0.13374147692E+02  0.49968708978E+01  0.96164002048E+02  0.91738762319E+02 0.  0.
         11    1    3    3    0    0  0.13322704468E+02  0.51121731256E+02 -0.10218455984E+02  0.53808388788E+02  0.51100000000E-03 0. -1.
         22    1    1    0    0    0 -0.25053507393E+02 -0.13374147692E+02 -0.49968708978E+01  0.28835997952E+02  0.00000000000E+00 0. -1.
</event>
<event>
 5    1  0.8952932E-005  0.9118800E+02  0.7818608E-02  0.1130116E+00
         25   -1    0    0    0    0  0.00000000000E+00  0.00000000000E+00  0.99999998245E-14  0.12500000000E+03  0.12500000000E+03 0.  0.
        -11    1    3    3    0    0  0.25364711902E+02  0.22040965414E+02 -0.83125211101E+01  0.34616047922E+02  0.51100000000E-03 0. -1.
         23    2    1    0    0    0 -0.30208947468E+02  0.12435095723E+01  0.13499926747E+01  0.94735345642E+02  0.89771022108E+02 0.  0.
         11    1    3    3    0    0 -0.55573659371E+02 -0.20797455842E+02  0.96625137848E+01  0.60119297719E+02  0.51100000000E-03 0.  1.
         22    1    1    0    0    0  0.30208947468E+02 -0.12435095723E+01 -0.13499926747E+01  0.30264654358E+02  0.00000000000E+00 0.  1.
</event>
<event>
 5    1  0.8952932E-005  0.9118800E+02  0.7818608E-02  0.1130116E+00
         25   -1    0    0    0    0  0.00000000000E+00  0.00000000000E+00  0.99999998245E-14  0.12500000000E+03  0.12500000000E+03 0.  0.
        -11    1    3    3    0    0 -0.25008423501E+02 -0.51931016679E+02 -0.19415130677E+02  0.60821041086E+02  0.51100000000E-03 0.  1.
         23    2    1    0    0    0 -0.59851250893E+01 -0.28270629242E+02 -0.15185291181E+01  0.96062893532E+02  0.91600891824E+02 0.  0.
         11    1    3    3    0    0  0.19023298412E+02  0.23660387438E+02  0.17896601559E+02  0.35241852446E+02  0.51100000000E-03 0. -1.
         22    1    1    0    0    0  0.59851250893E+01  0.28270629242E+02  0.15185291181E+01  0.28937106468E+02  0.00000000000E+00 0.  1.
</event>
<event>
 5    1  0.8952932E-005  0.9118800E+02  0.7818608E-02  0.1130116E+00
         25   -1    0    0    0    0  0.00000000000E+00  0.00000000000E+00  0.99999998245E-14  0.12500000000E+03  0.12500000000E+03 0.  0.
        -11    1    3    3    0    0 -0.36027319017E+02 -0.28530028280E+02 -0.40587363151E+02  0.61312839414E+02  0.51100000000E-03 0. -1.
         23    2    1    0    0    0 -0.24253716461E+02 -0.12289997977E+02 -0.14609133682E+02  0.94133940980E+02  0.88929664596E+02 0.  0.
         11    1    3    3    0    0  0.11773602556E+02  0.16240030303E+02  0.25978229469E+02  0.32821101566E+02  0.51100000000E-03 0.  1.
         22    1    1    0    0    0  0.24253716461E+02  0.12289997977E+02  0.14609133682E+02  0.30866059020E+02  0.00000000000E+00 0. -1.
</event>
<event>
 5    1  0.8952932E-005  0.9118800E+02  0.7818608E-02  0.1130116E+00
         25   -1    0    0    0    0  0.00000000000E+00  0.00000000000E+00  0.99999998245E-14  0.12500000000E+03  0.12500000000E+03 0.  0.
        -11    1    3    3    0    0  0.23395838829E+02  0.21898566926E+02  0.46904842019E+01  0.32386928695E+02  0.51100000000E-03 0.  1.
         23    2    1    0    0    0 -0.13804431113E+02 -0.25748584452E+02 -0.91205908650E+01  0.94393838899E+02  0.89294231195E+02 0.  0.
         11    1    3    3    0    0 -0.37200269943E+02 -0.47647151378E+02 -0.13811075067E+02  0.62006910204E+02  0.51100000000E-03 0. -1.
         22    1    1    0    0    0  0.13804431113E+02  0.25748584452E+02  0.91205908650E+01  0.30606161101E+02  0.00000000000E+00 0. -1.
</event>
<event>
 5    1  0.8952932E-005  0.9118800E+02  0.7818608E-02  0.1130116E+00
         25   -1    0    0    0    0  0.00000000000E+00  0.00000000000E+00  0.99999998245E-14  0.12500000000E+03  0.12500000000E+03 0.  0.
        -11    1    3    3    0    0 -0.28143463195E+02 -0.93001885187E+01 -0.25890605140E+02  0.39355704312E+02  0.51100000000E-03 0.  1.
         23    2    1    0    0    0  0.23921992108E+01  0.30709325782E+02 -0.52547570709E+01  0.93752635649E+02  0.88392074940E+02 0.  0.
         11    1    3    3    0    0  0.30535662406E+02  0.40009514300E+02  0.20635848069E+02  0.54396931337E+02  0.51100000000E-03 0. -1.
         22    1    1    0    0    0 -0.23921992108E+01 -0.30709325782E+02  0.52547570709E+01  0.31247364351E+02  0.00000000000E+00 0. -1.
</event>
<event>
 5    1  0.8952932E-005  0.9118800E+02  0.7818608E-02  0.1130116E+00
         25   -1    0    0    0    0  0.00000000000E+00  0.00000000000E+00  0.99999998245E-14  0.12500000000E+03  0.12500000000E+03 0.  0.
        -11    1    3    3    0    0 -0.46486239768E+01 -0.33449562256E+02 -0.15815424726E+02  0.37290891375E+02  0.51100000000E-03 0.  1.
         23    2    1    0    0    0 -0.36072631770E+01  0.10914673358E+02  0.24937242101E+02  0.97540785048E+02  0.93595920115E+02 0.  0.
         11    1    3    3    0    0  0.10413607998E+01  0.44364235614E+02  0.40752666827E+02  0.60249893674E+02  0.51100000000E-03 0. -1.
         22    1    1    0    0    0  0.36072631770E+01 -0.10914673358E+02 -0.24937242101E+02  0.27459214952E+02  0.00000000000E+00 0. -1.
</event>
<event>
 5    1  0.8952932E-005  0.9118800E+02  0.7818608E-02  0.1130116E+00
         25   -1    0    0    0    0  0.00000000000E+00  0.00000000000E+00  0.99999998245E-14  0.12500000000E+03  0.12500000000E+03 0.  0.
        -11    1    3    3    0    0 -0.32801892690E+02  0.18087986835E+02 -0.20983697197E+02  0.42935474612E+02  0.51100000000E-03 0.  1.
         23    2    1    0    0    0 -0.26969629586E+02 -0.20861772872E+02  0.55929845251E+01  0.90447779185E+02  0.83587946476E+02 0.  0.
         11    1    3    3    0    0  0.58322631040E+01 -0.38949759707E+02  0.26576681722E+02  0.47512304573E+02  0.51100000000E-03 0. -1.
         22    1    1    0    0    0  0.26969629586E+02  0.20861772872E+02 -0.55929845251E+01  0.34552220815E+02  0.00000000000E+00 0. -1.
</event>
<event>
 5    1  0.8952932E-005  0.9118800E+02  0.7818608E-02  0.1130116E+00
         25   -1    0    0    0    0  0.00000000000E+00  0.00000000000E+00  0.99999998245E-14  0.12500000000E+03  0.12500000000E+03 0.  0.
        -11    1    3    3    0    0 -0.22042200529E+02 -0.53925235558E+02  0.34895046387E+01  0.58360656928E+02  0.51100000000E-03 0. -1.
         23    2    1    0    0    0 -0.81843833924E+01 -0.24849699871E+02 -0.14329333326E+02  0.95170123889E+02  0.90374393344E+02 0.  0.
         11    1    3    3    0    0  0.13857817136E+02  0.29075535688E+02 -0.17818837965E+02  0.36809466961E+02  0.51100000000E-03 0.  1.
         22    1    1    0    0    0  0.81843833924E+01  0.24849699871E+02  0.14329333326E+02  0.29829876111E+02  0.00000000000E+00 0. -1.
</event>
<event>
 5    1  0.8952932E-005  0.9118800E+02  0.7818608E-02  0.1130116E+00
         25   -1    0    0    0    0  0.00000000000E+00  0.00000000000E+00  0.99999998245E-14  0.12500000000E+03  0.12500000000E+03 0.  0.
        -11    1    3    3    0    0  0.28494451356E+02 -0.21440237458E+02 -0.18533207902E+02  0.40188273610E+02  0.51100000000E-03 0. -1.
         23    2    1    0    0    0 -0.24313737147E+02 -0.19920765697E+01 -0.14528856076E+02  0.96606094985E+02  0.92339177743E+02 0.  0.
         11    1    3    3    0    0 -0.52808188504E+02  0.19448160888E+02  0.40043518258E+01  0.56417821376E+02  0.51100000000E-03 0.  1.
         22    1    1    0    0    0  0.24313737147E+02  0.19920765697E+01  0.14528856076E+02  0.28393905015E+02  0.00000000000E+00 0.  1.
</event>
<event>
 5    1  0.8952932E-005  0.9118800E+02  0.7818608E-02  0.1130116E+00
         25   -1    0    0    0    0  0.00000000000E+00  0.00000000000E+00  0.99999998245E-14  0.12500000000E+03  0.12500000000E+03 0.  0.
        -11    1    3    3    0    0 -0.30094368972E+02  0.51037317476E+01 -0.30853917562E+02  0.43401421068E+02  0.51100000000E-03 0. -1.
         23    2    1    0    0    0 -0.20363324441E+02 -0.13930843373E+02  0.16473719641E+02  0.95333237147E+02  0.90599720125E+02 0.  0.
         11    1    3    3    0    0  0.97310445305E+01 -0.19034575120E+02  0.47327637203E+02  0.51931816078E+02  0.51100000000E-03 0.  1.
         22    1    1    0    0    0  0.20363324441E+02  0.13930843373E+02 -0.16473719641E+02  0.29666762853E+02  0.00000000000E+00 0.  1.
</event>
<event>
 5    1  0.8952932E-005  0.9118800E+02  0.7818608E-02  0.1130116E+00
         25   -1    0    0    0    0  0.00000000000E+00  0.00000000000E+00  0.99999998245E-14  0.12500000000E+03  0.12500000000E+03 0.  0.
        -11    1    3    3    0    0 -0.83357938096E+00  0.57351192009E+02 -0.10821918486E+02  0.58369238469E+02  0.51100000000E-03 0. -1.
         23    2    1    0    0    0 -0.17402274514E+01  0.24618842043E+02 -0.20931104742E+02  0.92639114337E+02  0.86803102389E+02 0.  0.
         11    1    3    3    0    0 -0.90664807039E+00 -0.32732349966E+02 -0.10109186256E+02  0.34269875869E+02  0.51100000000E-03 0.  1.
         22    1    1    0    0    0  0.17402274514E+01 -0.24618842043E+02  0.20931104742E+02  0.32360885663E+02  0.00000000000E+00 0. -1.
</event>
<event>
 5    1  0.8952932E-005  0.9118800E+02  0.7818608E-02  0.1130116E+00
         25   -1    0    0    0    0  0.00000000000E+00  0.00000000000E+00  0.99999998245E-14  0.12500000000E+03  0.12500000000E+03 0.  0.
        -11    1    3    3    0    0  0.34596756319E+02 -0.25231982232E+02 -0.24497851546E+02  0.49332881588E+02  0.51100000000E-03 0.  1.
         23    2    1    0    0    0  0.27678012558E+02  0.12536014971E+02 -0.50115622567E+00  0.94611265112E+02  0.89598081888E+02 0.  0.
         11    1    3    3    0    0 -0.69187437612E+01  0.37767997204E+02  0.23996695320E+02  0.45278383524E+02  0.51100000000E-03 0. -1.
         22    1    1    0    0    0 -0.27678012558E+02 -0.12536014971E+02  0.50115622567E+00  0.30388734888E+02  0.00000000000E+00 0. -1.
</event>
<event>
 5    1  0.8952932E-005  0.9118800E+02  0.7818608E-02  0.1130116E+00
         25   -1    0    0    0    0  0.00000000000E+00  0.00000000000E+00  0.99999998245E-14  0.12500000000E+03  0.12500000000E+03 0.  0.
        -11    1    3    3    0    0  0.32254075136E+02 -0.48483194468E+02 -0.15121646805E+02  0.60163192328E+02  0.51100000000E-03 0.  1.
         23    2    1    0    0    0  0.80141563542E+01 -0.27382981095E+02  0.16639154509E+01  0.96419885054E+02  0.92086759436E+02 0.  0.
         11    1    3    3    0    0 -0.24239918782E+02  0.21100213373E+02  0.16785562256E+02  0.36256692726E+02  0.51100000000E-03 0. -1.
         22    1    1    0    0    0 -0.80141563542E+01  0.27382981095E+02 -0.16639154509E+01  0.28580114946E+02  0.00000000000E+00 0.  1.
</event>
<event>
 5    1  0.8952932E-005  0.9118800E+02  0.7818608E-02  0.1130116E+00
         25   -1    0    0    0    0  0.00000000000E+00  0.00000000000E+00  0.99999998245E-14  0.12500000000E+03  0.12500000000E+03 0.  0.
        -11    1    3    3    0    0  0.11789906842E+02 -0.56955772037E+01  0.61059513165E+02  0.62447623264E+02  0.51100000000E-03 0. -1.
         23    2    1    0    0    0  0.73009331685E+01 -0.23286920155E+01  0.28471500735E+02  0.95515210943E+02  0.90850441583E+02 0.  0.
         11    1    3    3    0    0 -0.44889736739E+01  0.33668851882E+01 -0.32588012430E+02  0.33067587679E+02  0.51100000000E-03 0.  1.
         22    1    1    0    0    0 -0.73009331685E+01  0.23286920155E+01 -0.28471500735E+02  0.29484789057E+02  0.00000000000E+00 0. -1.
</event>
<event>
 5    1  0.8952932E-005  0.9118800E+02  0.7818608E-02  0.1130116E+00
         25   -1    0    0    0    0  0.00000000000E+00  0.00000000000E+00  0.99999998245E-14  0.12500000000E+03  0.12500000000E+03 0.  0.
        -11    1    3    3    0    0 -0.46278001506E+02  0.28824355991E+02  0.32746288742E+01  0.54618862275E+02  0.51100000000E-03 0.  1.
         23    2    1    0    0    0 -0.28476586213E+02 -0.60617262173E+01  0.97088079440E+01  0.94309261351E+02  0.89175755325E+02 0.  0.
         11    1    3    3    0    0  0.17801415292E+02 -0.34886082209E+02  0.64341790699E+01  0.39690399076E+02  0.51100000000E-03 0. -1.
         22    1    1    0    0    0  0.28476586213E+02  0.60617262173E+01 -0.97088079440E+01  0.30690738649E+02  0.00000000000E+00 0.  1.
</event>
<event>
 5    1  0.8952932E-005  0.9118800E+02  0.7818608E-02  0.1130116E+00
         25   -1    0    0    0    0  0.00000000000E+00  0.00000000000E+00  0.99999998245E-14  0.12500000000E+03  0.12500000000E+03 0.  0.
        -11    1    3    3    0    0  0.73597421719E+01  0.33067172163E+02 -0.41101313565E+02  0.53262760506E+02  0.51100000000E-03 0. -1.
         23    2    1    0    0    0 -0.14024036906E+02 -0.12355455955E+00 -0.25853533255E+02  0.95587518659E+02  0.90949874462E+02 0.  0.
         11    1    3    3    0    0 -0.21383779078E+02 -0.33190726722E+02  0.15247780310E+02  0.42324758153E+02  0.51100000000E-03 0.  1.
         22    1    1    0    0    0  0.14024036906E+02  0.12355455955E+00  0.25853533255E+02  0.29412481341E+02  0.00000000000E+00 0. -1.
</event>
<event>
 5    1  0.8952932E-005  0.9118800E+02  0.7818608E-02  0.1130116E+00
         25   -1    0    0    0    0  0.00000000000E+00  0.00000000000E+00  0.99999998245E-14  0.12500000000E+03  0.12500000000E+03 0.  0.
        -11    1    3    3    0    0 -0.21122254482E+02 -0.12799467425E+02 -0.33424358381E+02  0.41559159450E+02  0.51100000000E-03 0. -1.
         23    2    1    0    0    0 -0.20720673814E+02  0.13102343752E+02  0.14844685448E+02  0.96340229918E+02  0.91978570762E+02 0.  0.
         11    1    3    3    0    0  0.40158066748E+00  0.25901811176E+02  0.48269043829E+02  0.54781070468E+02  0.51100000000E-03 0.  1.
         22    1    1    0    0    0  0.20720673814E+02 -0.13102343752E+02 -0.14844685448E+02  0.28659770082E+02  0.00000000000E+00 0. -1.
</event>
<event>
 5    1  0.8952932E-005  0.9118800E+02  0.7818608E-02  0.1130116E+00
         25   -1    0    0    0    0  0.00000000000E+00  0.00000000000E+00  0.99999998245E-14  0.12500000000E+03  0.12500000000E+03 0.  0.
        -11    1    3    3    0    0  0.43920509545E+02 -0.40134531751E+02  0.15291593373E+01  0.59515797282E+02  0.51100000000E-03 0. -1.
         23    2    1    0    0    0  0.18448262098E+02 -0.18501203589E+02 -0.12834090845E+02  0.95890778154E+02  0.91365718617E+02 0.  0.
         11    1    3    3    0    0 -0.25472247448E+02  0.21633328161E+02 -0.14363250182E+02  0.36374980872E+02  0.51100000000E-03 0.  1.
         22    1    1    0    0    0 -0.18448262098E+02  0.18501203589E+02  0.12834090845E+02  0.29109221846E+02  0.00000000000E+00 0. -1.
</event>
<event>
 5    1  0.8952932E-005  0.9118800E+02  0.7818608E-02  0.1130116E+00
         25   -1    0    0    0    0  0.00000000000E+00  0.00000000000E+00  0.99999998245E-14  0.12500000000E+03  0.12500000000E+03 0.  0.
        -11    1    3    3    0    0 -0.24078580179E+02  0.32845768169E+02  0.45690032419E+01  0.40981682505E+02  0.51100000000E-03 0.  1.
         23    2    1    0    0    0  0.22079941299E+02  0.96231765649E+01  0.18650794472E+02  0.94537211727E+02  0.89494708959E+02 0.  0.
         11    1    3    3    0    0  0.46158521477E+02 -0.23222591604E+02  0.14081791230E+02  0.53555529222E+02  0.51100000000E-03 0. -1.
         22    1    1    0    0    0 -0.22079941299E+02 -0.96231765649E+01 -0.18650794472E+02  0.30462788273E+02  0.00000000000E+00 0. -1.
</event>
<event>
 5    1  0.8952932E-005  0.9118800E+02  0.7818608E-02  0.1130116E+00
         25   -1    0    0    0    0  0.00000000000E+00  0.00000000000E+00  0.99999998245E-14  0.12500000000E+03  0.12500000000E+03 0.  0.
        -11    1    3    3    0    0  0.19006133436E+02  0.13391731203E+02  0.30028161442E+02  0.37977125386E+02  0.51100000000E-03 0.  1.
         23    2    1    0    0    0  0.12526939343E+02 -0.15751655778E+02 -0.20249285585E+02  0.96450526524E+02  0.92128343256E+02 0.  0.
         11    1    3    3    0    0 -0.64791940934E+01 -0.29143386981E+02 -0.50277447026E+02  0.58473401138E+02  0.51100000000E-03 0. -1.
         22    1    1    0    0    0 -0.12526939343E+02  0.15751655778E+02  0.20249285585E+02  0.28549473476E+02  0.00000000000E+00 0. -1.
</event>
<event>
 5    1  0.8952932E-005  0.9118800E+02  0.7818608E-02  0.1130116E+00
         25   -1    0    0    0    0  0.00000000000E+00  0.00000000000E+00  0.99999998245E-14  0.12500000000E+03  0.12500000000E+03 0.  0.
        -11    1    3    3    0    0  0.23978974986E+02 -0.27556654268E+01  0.54894708415E+02  0.59966773680E+02  0.51100000000E-03 0. -1.
         23    2    1    0    0    0 -0.11801637279E+01 -0.32492792608E+01  0.27958929418E+02  0.96828164129E+02  0.92639306087E+02 0.  0.
         11    1    3    3    0    0 -0.25159138714E+02 -0.49361383399E+00 -0.26935778997E+02  0.36861390449E+02  0.51100000000E-03 0.  1.
         22    1    1    0    0    0  0.11801637279E+01  0.32492792608E+01 -0.27958929418E+02  0.28171835871E+02  0.00000000000E+00 0. -1.
</event>
<event>
 5    1  0.8952932E-005  0.9118800E+02  0.7818608E-02  0.1130116E+00
         25   -1    0    0    0    0  0.00000000000E+00  0.00000000000E+00  0.99999998245E-14  0.12500000000E+03  0.12500000000E+03 0.  0.
        -11    1    3    3    0    0 -0.50538331346E+01 -0.48149296554E+02  0.67845536069E+01  0.48886870997E+02  0.51100000000E-03 0.  1.
         23    2    1    0    0    0 -0.11246129031E+02 -0.78543838621E+01  0.27241682258E+02  0.94499573507E+02  0.89442123056E+02 0.  0.
         11    1    3    3    0    0 -0.61922958962E+01  0.40294912692E+02  0.20457128651E+02  0.45612702510E+02  0.51100000000E-03 0. -1.
         22    1    1    0    0    0  0.11246129031E+02  0.78543838621E+01 -0.27241682258E+02  0.30500426493E+02  0.00000000000E+00 0.  1.
</event>
<event>
 5    1  0.8952932E-005  0.9118800E+02  0.7818608E-02  0.1130116E+00
         25   -1    0    0    0    0  0.00000000000E+00  0.00000000000E+00  0.99999998245E-14  0.12500000000E+03  0.12500000000E+03 0.  0.
        -11    1    3    3    0    0 -0.28852076004E+02 -0.26320780224E+02  0.95909772343E+01  0.40214582006E+02  0.51100000000E-03 0.  1.
         23    2    1    0    0    0  0.18346615827E+02 -0.79625445391E+00  0.23044102616E+02  0.95533697231E+02  0.90875873078E+02 0.  0.
         11    1    3    3    0    0  0.47198691832E+02  0.25524525770E+02  0.13453125382E+02  0.55319115225E+02  0.51100000000E-03 0. -1.
         22    1    1    0    0    0 -0.18346615827E+02  0.79625445391E+00 -0.23044102616E+02  0.29466302769E+02  0.00000000000E+00 0. -1.
</event>
<event>
 5    1  0.8952932E-005  0.9118800E+02  0.7818608E-02  0.1130116E+00
         25   -1    0    0    0    0  0.00000000000E+00  0.00000000000E+00  0.99999998245E-14  0.12500000000E+03  0.12500000000E+03 0.  0.
        -11    1    3    3    0    0 -0.11371063546E+02 -0.25334913764E+02  0.38752374739E+02  0.47674998582E+02  0.51100000000E-03 0. -1.
         23    2    1    0    0    0 -0.68238627443E+01 -0.30891807018E+02 -0.58290687373E+01  0.92830963864E+02  0.87078935259E+02 0.  0.
         11    1    3    3    0    0  0.45472008022E+01 -0.55568932539E+01 -0.44581443477E+02  0.45155965281E+02  0.51100000000E-03 0.  1.
         22    1    1    0    0    0  0.68238627443E+01  0.30891807018E+02  0.58290687373E+01  0.32169036136E+02  0.00000000000E+00 0. -1.
</event>
<event>
 5    1  0.8952932E-005  0.9118800E+02  0.7818608E-02  0.1130116E+00
         25   -1    0    0    0    0  0.00000000000E+00  0.00000000000E+00  0.99999998245E-14  0.12500000000E+03  0.12500000000E+03 0.  0.
        -11    1    3    3    0    0  0.90632269398E+00 -0.59076854139E+02 -0.49434572852E+01  0.59290251189E+02  0.51100000000E-03 0. -1.
         23    2    1    0    0    0  0.12654748802E+02 -0.25173664183E+02  0.46777958749E+01  0.96438875899E+02  0.92112534298E+02 0.  0.
         11    1    3    3    0    0  0.11748426109E+02  0.33903189956E+02  0.96212531602E+01  0.37148624710E+02  0.51100000000E-03 0.  1.
         22    1    1    0    0    0 -0.12654748802E+02  0.25173664183E+02 -0.46777958749E+01  0.28561124101E+02  0.00000000000E+00 0. -1.
</event>
<event>
 5    1  0.8952932E-005  0.9118800E+02  0.7818608E-02  0.1130116E+00
         25   -1    0    0    0    0  0.00000000000E+00  0.00000000000E+00  0.99999998245E-14  0.12500000000E+03  0.12500000000E+03 0.  0.
        -11    1    3    3    0    0  0.41721637139E+02 -0.40071875004E+02  0.20821445143E+01  0.57885969785E+02  0.51100000000E-03 0.  1.
         23    2    1    0    0    0  0.14304207515E+02 -0.29461876764E+02 -0.11524360555E+02  0.90280791753E+02  0.83337854174E+02 0.  0.
         11    1    3    3    0    0 -0.27417429625E+02  0.10609998240E+02 -0.13606505070E+02  0.32394821968E+02  0.51100000000E-03 0. -1.
         22    1    1    0    0    0 -0.14304207515E+02  0.29461876764E+02  0.11524360555E+02  0.34719208247E+02  0.00000000000E+00 0.  1.
</event>
<event>
 5    1  0.8952932E-005  0.9118800E+02  0.7818608E-02  0.1130116E+00
         25   -1    0    0    0    0  0.00000000000E+00  0.00000000000E+00  0.99999998245E-14  0.12500000000E+03  0.12500000000E+03 0.  0.
        -11    1    3    3    0    0  0.39546055917E+01 -0.18683047443E+02  0.37109021452E+02  0.41734573683E+02  0.51100000000E-03 0.  1.
         23    2    1    0    0    0  0.29300465521E+02  0.85025554409E+00 -0.56562449039E+01  0.95146468874E+02  0.90341669337E+02 0.  0.
         11    1    3    3    0    0  0.25345859930E+02  0.19533302987E+02 -0.42765266356E+02  0.53411895191E+02  0.51100000000E-03 0. -1.
         22    1    1    0    0    0 -0.29300465521E+02 -0.85025554409E+00  0.56562449039E+01  0.29853531126E+02  0.00000000000E+00 0. -1.
</event>
<event>
 5    1  0.8952932E-005  0.9118800E+02  0.7818608E-02  0.1130116E+00
         25   -1    0    0    0    0  0.00000000000E+00  0.00000000000E+00  0.99999998245E-14  0.12500000000E+03  0.12500000000E+03 0.  0.
        -11    1    3    3    0    0  0.44680177991E+02  0.57041596763E+01 -0.17931770961E+02  0.48480966914E+02  0.51100000000E-03 0. -1.
         23    2    1    0    0    0  0.12131917994E+00 -0.16101467657E+02 -0.21409804363E+02  0.98210977959E+02  0.94486742402E+02 0.  0.
         11    1    3    3    0    0 -0.44558858811E+02 -0.21805627333E+02 -0.34780334023E+01  0.49730011045E+02  0.51100000000E-03 0.  1.
         22    1    1    0    0    0 -0.12131917994E+00  0.16101467657E+02  0.21409804363E+02  0.26789022041E+02  0.00000000000E+00 0.  1.
</event>
<event>
 5    1  0.8952932E-005  0.9118800E+02  0.7818608E-02  0.1130116E+00
         25   -1    0    0    0    0  0.00000000000E+00  0.00000000000E+00  0.99999998245E-14  0.12500000000E+03  0.12500000000E+03 0.  0.
        -11    1    3    3    0    0 -0.50904704454E+02 -0.33614639929E+02  0.12097273887E+01  0.61013903282E+02  0.51100000000E-03 0. -1.
         23    2    1    0    0    0 -0.25552230133E+02 -0.12578129591E+02 -0.83577964205E+01  0.95318716844E+02  0.90579684317E+02 0.  0.
         11    1    3    3    0    0  0.25352474322E+02  0.21036510338E+02 -0.95675238092E+01  0.34304813562E+02  0.51100000000E-03 0.  1.
         22    1    1    0    0    0  0.25552230133E+02  0.12578129591E+02  0.83577964205E+01  0.29681283156E+02  0.00000000000E+00 0. -1.
</event>
<event>
 5    1  0.8952932E-005  0.9118800E+02  0.7818608E-02  0.1130116E+00
         25   -1    0    0    0    0  0.00000000000E+00  0.00000000000E+00  0.99999998245E-14  0.12500000000E+03  0.12500000000E+03 0.  0.
        -11    1    3    3    0    0 -0.29567198663E+02 -0.11166977552E+02  0.30483211666E+02  0.43910668614E+02  0.51100000000E-03 0.  1.
         23    2    1    0    0    0 -0.16344735647E+02  0.24009595713E+02 -0.49211986450E+01  0.95541057966E+02  0.90885997225E+02 0.  0.
         11    1    3    3    0    0  0.13222463016E+02  0.35176573265E+02 -0.35404410311E+02  0.51630389352E+02  0.51100000000E-03 0. -1.
         22    1    1    0    0    0  0.16344735647E+02 -0.24009595713E+02  0.49211986450E+01  0.29458942034E+02  0.00000000000E+00 0.  1.
</event>
<event>
 5    1  0.8952932E-005  0.9118800E+02  0.7818608E-02  0.1130116E+00
         25   -1    0    0    0    0  0.00000000000E+00  0.00000000000E+00  0.99999998245E-14  0.12500000000E+03  0.12500000000E+03 0.  0.
        -11    1    3    3    0    0  0.37837149056E+02 -0.39904191630E+02  0.21869425096E+02  0.59179946879E+02  0.51100000000E-03 0.  1.
         23    2    1    0    0    0  0.15437711387E+02 -0.11237213324E+02  0.22402408355E+02  0.95564208925E+02  0.90917832306E+02 0.  0.
         11    1    3    3    0    0 -0.22399437670E+02  0.28666978307E+02  0.53298325923E+00  0.36384262045E+02  0.51100000000E-03 0. -1.
         22    1    1    0    0    0 -0.15437711387E+02  0.11237213324E+02 -0.22402408355E+02  0.29435791075E+02  0.00000000000E+00 0.  1.
</event>
<event>
 5    1  0.8952932E-005  0.9118800E+02  0.7818608E-02  0.1130116E+00
         25   -1    0    0    0    0  0.00000000000E+00  0.00000000000E+00  0.99999998245E-14  0.12500000000E+03  0.12500000000E+03 0.  0.
        -11    1    3    3    0    0 -0.37029080167E+02 -0.10119219459E+02 -0.46418335907E+02  0.60234651897E+02  0.51100000000E-03 0.  1.
         23    2    1    0    0    0 -0.74203628164E+01 -0.88872403874E+01 -0.26886338431E+02  0.95726803724E+02  0.91141104508E+02 0.  0.
         11    1    3    3    0    0  0.29608717351E+02  0.12319790715E+01  0.19531997477E+02  0.35492151827E+02  0.51100000000E-03 0. -1.
         22    1    1    0    0    0  0.74203628164E+01  0.88872403874E+01  0.26886338431E+02  0.29273196276E+02  0.00000000000E+00 0.  1.
</event>
<event>
 5    1  0.8952932E-005  0.9118800E+02  0.7818608E-02  0.1130116E+00
         25   -1    0    0    0    0  0.00000000000E+00  0.00000000000E+00  0.99999998245E-14  0.12500000000E+03  0.12500000000E+03 0.  0.
        -11    1    3    3    0    0 -0.37691019608E+02  0.28405101103E+02 -0.37338784371E+02  0.60180125841E+02  0.51100000000E-03 0.  1.
         23    2    1    0    0    0 -0.24961750585E+02  0.54375202706E+01 -0.11626003909E+02  0.96931875983E+02  0.92779140951E+02 0.  0.
         11    1    3    3    0    0  0.12729269023E+02 -0.22967580832E+02  0.25712780461E+02  0.36751750141E+02  0.51100000000E-03 0. -1.
         22    1    1    0    0    0  0.24961750585E+02 -0.54375202706E+01  0.11626003909E+02  0.28068124017E+02  0.00000000000E+00 0.  1.
</event>
<event>
 5    1  0.8952932E-005  0.9118800E+02  0.7818608E-02  0.1130116E+00
         25   -1    0    0    0    0  0.00000000000E+00  0.00000000000E+00  0.99999998245E-14  0.12500000000E+03  0.12500000000E+03 0.  0.
        -11    1    3    3    0    0  0.88291012084E+01  0.40159944501E+02 -0.37845258196E+02  0.55884145683E+02  0.51100000000E-03 0. -1.
         23    2    1    0    0    0 -0.14978622959E+02  0.12230973098E+02 -0.21570956754E+02  0.96029980601E+02  0.91555967311E+02 0.  0.
         11    1    3    3    0    0 -0.23807724167E+02 -0.27928971403E+02  0.16274301442E+02  0.40145834919E+02  0.51100000000E-03 0.  1.
         22    1    1    0    0    0  0.14978622959E+02 -0.12230973098E+02  0.21570956754E+02  0.28970019399E+02  0.00000000000E+00 0. -1.
</event>
<event>
 5    1  0.8952932E-005  0.9118800E+02  0.7818608E-02  0.1130116E+00
         25   -1    0    0    0    0  0.00000000000E+00  0.00000000000E+00  0.99999998245E-14  0.12500000000E+03  0.12500000000E+03 0.  0.
        -11    1    3    3    0    0 -0.13498165443E+02  0.30814344277E+02 -0.10082165986E+02  0.35119429875E+02  0.51100000000E-03 0.  1.
         23    2    1    0    0    0 -0.22459318929E+01 -0.28372672619E+02  0.16199397015E+01  0.96492510348E+02  0.92185289428E+02 0.  0.
         11    1    3    3    0    0  0.11252233550E+02 -0.59187016896E+02  0.11702105688E+02  0.61373080473E+02  0.51100000000E-03 0. -1.
         22    1    1    0    0    0  0.22459318929E+01  0.28372672619E+02 -0.16199397015E+01  0.28507489652E+02  0.00000000000E+00 0. -1.
</event>
<event>
 5    1  0.8952932E-005  0.9118800E+02  0.7818608E-02  0.1130116E+00
         25   -1    0    0    0    0  0.00000000000E+00  0.00000000000E+00  0.99999998245E-14  0.12500000000E+03  0.12500000000E+03 0.  0.
        -11    1    3    3    0    0  0.26970560488E+02 -0.45237313720E+02  0.32085516154E+02  0.61670949667E+02  0.51100000000E-03 0.  1.
         23    2    1    0    0    0  0.91341040018E+01 -0.18123457948E+02  0.20557781597E+02  0.96112044585E+02  0.91667939576E+02 0.  0.
         11    1    3    3    0    0 -0.17836456487E+02  0.27113855772E+02 -0.11527734558E+02  0.34441094918E+02  0.51100000000E-03 0. -1.
         22    1    1    0    0    0 -0.91341040018E+01  0.18123457948E+02 -0.20557781597E+02  0.28887955415E+02  0.00000000000E+00 0.  1.
</event>
<event>
 5    1  0.8952932E-005  0.9118800E+02  0.7818608E-02  0.1130116E+00
         25   -1    0    0    0    0  0.00000000000E+00  0.00000000000E+00  0.99999998245E-14  0.12500000000E+03  0.12500000000E+03 0.  0.
        -11    1    3    3    0    0 -0.18565856555E+02  0.27842995788E+02 -0.18093199065E+02  0.38043229315E+02  0.51100000000E-03 0.  1.
         23    2    1    0    0    0  0.86650587040E+01 -0.22455954785E+02 -0.17495704557E+02  0.95243440629E+02  0.90475743475E+02 0.  0.
         11    1    3    3    0    0  0.27230915259E+02 -0.50298950572E+02  0.59749450777E+00  0.57200211315E+02  0.51100000000E-03 0. -1.
         22    1    1    0    0    0 -0.86650587040E+01  0.22455954785E+02  0.17495704557E+02  0.29756559371E+02  0.00000000000E+00 0.  1.
</event>
<event>
 5    1  0.8952932E-005  0.9118800E+02  0.7818608E-02  0.1130116E+00
         25   -1    0    0    0    0  0.00000000000E+00  0.00000000000E+00  0.99999998245E-14  0.12500000000E+03  0.12500000000E+03 0.  0.
        -11    1    3    3    0    0 -0.10667077160E+01  0.15113478771E+01 -0.49086184545E+02  0.49121029623E+02  0.51100000000E-03 0.  1.
         23    2    1    0    0    0 -0.22142174877E+02  0.15966960920E+02 -0.97856452488E+01  0.96000368929E+02  0.91515530006E+02 0.  0.
         11    1    3    3    0    0 -0.21075467161E+02  0.14455613043E+02  0.39300539297E+02  0.46879339306E+02  0.51100000000E-03 0. -1.
         22    1    1    0    0    0  0.22142174877E+02 -0.15966960920E+02  0.97856452488E+01  0.28999631071E+02  0.00000000000E+00 0.  1.
</event>
<event>
 5    1  0.8952932E-005  0.9118800E+02  0.7818608E-02  0.1130116E+00
         25   -1    0    0    0    0  0.00000000000E+00  0.00000000000E+00  0.99999998245E-14  0.12500000000E+03  0.12500000000E+03 0.  0.
        -11    1    3    3    0    0  0.23979953763E+02  0.34770022342E+02 -0.15732553974E+02  0.45072229709E+02  0.51100000000E-03 0.  1.
         23    2    1    0    0    0  0.33069944444E+02 -0.83420284554E+01 -0.96880027142E+01  0.89544844369E+02  0.82226583853E+02 0.  0.
         11    1    3    3    0    0  0.90899906809E+01 -0.43112050797E+02  0.60445512594E+01  0.44472614660E+02  0.51100000000E-03 0. -1.
         22    1    1    0    0    0 -0.33069944444E+02  0.83420284554E+01  0.96880027142E+01  0.35455155631E+02  0.00000000000E+00 0. -1.
</event>
<event>
 5    1  0.8952932E-005  0.9118800E+02  0.7818608E-02  0.1130116E+00
         25   -1    0    0    0    0  0.00000000000E+00  0.00000000000E+00  0.99999998245E-14  0.12500000000E+03  0.12500000000E+03 0.  0.
        -11    1    3    3    0    0  0.31430001682E+02  0.45412477677E+02 -0.24983613502E+02  0.60616161858E+02  0.51100000000E-03 0. -1.
         23    2    1    0    0    0  0.15815536967E+02  0.12054707848E+02 -0.18150910001E+02  0.98075982382E+02  0.94307982671E+02 0.  0.
         11    1    3    3    0    0 -0.15614464715E+02 -0.33357769829E+02  0.68327035011E+01  0.37459820524E+02  0.51100000000E-03 0.  1.
         22    1    1    0    0    0 -0.15815536967E+02 -0.12054707848E+02  0.18150910001E+02  0.26924017618E+02  0.00000000000E+00 0. -1.
</event>
<event>
 5    1  0.8952932E-005  0.9118800E+02  0.7818608E-02  0.1130116E+00
         25   -1    0    0    0    0  0.00000000000E+00  0.00000000000E+00  0.99999998245E-14  0.12500000000E+03  0.12500000000E+03 0.  0.
        -11    1    3    3    0    0 -0.29056168869E+02 -0.28285915801E+02 -0.18093787149E+02  0.44404269115E+02  0.51100000000E-03 0.  1.
         23    2    1    0    0    0  0.11959849847E+02  0.76013687054E+01 -0.21765867468E+02  0.99027479884E+02  0.95560818179E+02 0.  0.
         11    1    3    3    0    0  0.41016018716E+02  0.35887284506E+02 -0.36720803191E+01  0.54623210768E+02  0.51100000000E-03 0. -1.
         22    1    1    0    0    0 -0.11959849847E+02 -0.76013687054E+01  0.21765867468E+02  0.25972520116E+02  0.00000000000E+00 0. -1.
</event>
<event>
 5    1  0.8952932E-005  0.9118800E+02  0.7818608E-02  0.1130116E+00
         25   -1    0    0    0    0  0.00000000000E+00  0.00000000000E+00  0.99999998245E-14  0.12500000000E+03  0.12500000000E+03 0.  0.
        -11    1    3    3    0    0  0.38211731691E+02 -0.46480183068E+02  0.13308201807E+02  0.61625093042E+02  0.51100000000E-03 0.  1.
         23    2    1    0    0    0  0.18998320242E+02 -0.17918448570E+02  0.12475394419E+02  0.96057946910E+02  0.91594141338E+02 0.  0.
         11    1    3    3    0    0 -0.19213411448E+02  0.28561734498E+02 -0.83280738813E+00  0.34432853867E+02  0.51100000000E-03 0. -1.
         22    1    1    0    0    0 -0.18998320242E+02  0.17918448570E+02 -0.12475394419E+02  0.28942053090E+02  0.00000000000E+00 0.  1.
</event>
<event>
 5    1  0.8952932E-005  0.9118800E+02  0.7818608E-02  0.1130116E+00
         25   -1    0    0    0    0  0.00000000000E+00  0.00000000000E+00  0.99999998245E-14  0.12500000000E+03  0.12500000000E+03 0.  0.
        -11    1    3    3    0    0 -0.15320417238E+02  0.58800479662E+01 -0.38684374585E+02  0.42021077875E+02  0.51100000000E-03 0. -1.
         23    2    1    0    0    0 -0.49613180669E+01  0.27119308601E+02  0.96236877284E+01  0.95799196219E+02  0.91240336775E+02 0.  0.
         11    1    3    3    0    0  0.10359099172E+02  0.21239260635E+02  0.48308062313E+02  0.53778118345E+02  0.51100000000E-03 0.  1.
         22    1    1    0    0    0  0.49613180669E+01 -0.27119308601E+02 -0.96236877284E+01  0.29200803781E+02  0.00000000000E+00 0.  1.
</event>
<event>
 5    1  0.8952932E-005  0.9118800E+02  0.7818608E-02  0.1130116E+00
         25   -1    0    0    0    0  0.00000000000E+00  0.00000000000E+00  0.99999998245E-14  0.12500000000E+03  0.12500000000E+03 0.  0.
        -11    1    3    3    0    0 -0.30055091008E+02 -0.12154830175E+02 -0.41958372724E+01  0.32690265260E+02  0.51100000000E-03 0. -1.
         23    2    1    0    0    0  0.25709096966E+02  0.14704451184E+02  0.39536921640E+01  0.95120069726E+02  0.90305135134E+02 0.  0.
         11    1    3    3    0    0  0.55764187974E+02  0.26859281359E+02  0.81495294364E+01  0.62429804467E+02  0.51100000000E-03 0.  1.
         22    1    1    0    0    0 -0.25709096966E+02 -0.14704451184E+02 -0.39536921640E+01  0.29879930274E+02  0.00000000000E+00 0.  1.
</event>
<event>
 5    1  0.8952932E-005  0.9118800E+02  0.7818608E-02  0.1130116E+00
         25   -1    0    0    0    0  0.00000000000E+00  0.00000000000E+00  0.99999998245E-14  0.12500000000E+03  0.12500000000E+03 0.  0.
        -11    1    3    3    0    0 -0.40147516951E+02 -0.17641605335E+00 -0.32009225479E+01  0.40275304411E+02  0.51100000000E-03 0. -1.
         23    2    1    0    0    0  0.11905367371E+02 -0.24007481029E+02  0.37385686647E+01  0.97943137409E+02  0.94131739346E+02 0.  0.
         11    1    3    3    0    0  0.52052884322E+02 -0.23831064976E+02  0.69394912126E+01  0.57667832998E+02  0.51100000000E-03 0.  1.
         22    1    1    0    0    0 -0.11905367371E+02  0.24007481029E+02 -0.37385686647E+01  0.27056862591E+02  0.00000000000E+00 0. -1.
</event>
<event>
 5    1  0.8952932E-005  0.9118800E+02  0.7818608E-02  0.1130116E+00
         25   -1    0    0    0    0  0.00000000000E+00  0.00000000000E+00  0.99999998245E-14  0.12500000000E+03  0.12500000000E+03 0.  0.
        -11    1    3    3    0    0 -0.86414435545E+01  0.10112841876E+02  0.50259704544E+02  0.51990210796E+02  0.51100000000E-03 0. -1.
         23    2    1    0    0    0  0.21606774913E+02  0.24829121639E+01  0.21408067827E+02  0.94482415839E+02  0.89418141110E+02 0.  0.
         11    1    3    3    0    0  0.30248218467E+02 -0.76299297119E+01 -0.28851636717E+02  0.42492205042E+02  0.51100000000E-03 0.  1.
         22    1    1    0    0    0 -0.21606774913E+02 -0.24829121639E+01 -0.21408067827E+02  0.30517584161E+02  0.00000000000E+00 0. -1.
</event>
<event>
 5    1  0.8952932E-005  0.9118800E+02  0.7818608E-02  0.1130116E+00
         25   -1    0    0    0    0  0.00000000000E+00  0.00000000000E+00  0.99999998245E-14  0.12500000000E+03  0.12500000000E+03 0.  0.
        -11    1    3    3    0    0  0.57139311932E+01 -0.60005641693E+02  0.10756093043E+02  0.61229237970E+02  0.51100000000E-03 0.  1.
         23    2    1    0    0    0 -0.51212254508E+00 -0.29160375318E+02 -0.32145961718E+01  0.95658504014E+02  0.91047383287E+02 0.  0.
         11    1    3    3    0    0 -0.62260537382E+01  0.30845266375E+02 -0.13970689215E+02  0.34429266043E+02  0.51100000000E-03 0. -1.
         22    1    1    0    0    0  0.51212254508E+00  0.29160375318E+02  0.32145961718E+01  0.29341495986E+02  0.00000000000E+00 0.  1.
</event>
<event>
 5    1  0.8952932E-005  0.9118800E+02  0.7818608E-02  0.1130116E+00
         25   -1    0    0    0    0  0.00000000000E+00  0.00000000000E+00  0.99999998245E-14  0.12500000000E+03  0.12500000000E+03 0.  0.
        -11    1    3    3    0    0 -0.45048147242E+02  0.87886025587E+01 -0.34436131900E+01  0.46026444322E+02  0.51100000000E-03 0. -1.
         23    2    1    0    0    0 -0.21638769887E+00  0.28385639720E+02 -0.88840529866E+01  0.95255794457E+02  0.90492809737E+02 0.  0.
         11    1    3    3    0    0  0.44831759543E+02  0.19597037161E+02 -0.54404397965E+01  0.49229350135E+02  0.51100000000E-03 0.  1.
         22    1    1    0    0    0  0.21638769887E+00 -0.28385639720E+02  0.88840529866E+01  0.29744205543E+02  0.00000000000E+00 0. -1.
</event>
<event>
 5    1  0.8952932E-005  0.9118800E+02  0.7818608E-02  0.1130116E+00
         25   -1    0    0    0    0  0.00000000000E+00  0.00000000000E+00  0.99999998245E-14  0.12500000000E+03  0.12500000000E+03 0.  0.
        -11    1    3    3    0    0  0.96292536184E+01 -0.28369300065E+02  0.14118258704E+02  0.33118951380E+02  0.51100000000E-03 0.  1.
         23    2    1    0    0    0 -0.10527904017E+02  0.24955538911E+02 -0.11445339847E+02  0.95595723278E+02  0.90961150056E+02 0.  0.
         11    1    3    3    0    0 -0.20157157636E+02  0.53324838976E+02 -0.25563598551E+02  0.62476771898E+02  0.51100000000E-03 0. -1.
         22    1    1    0    0    0  0.10527904017E+02 -0.24955538911E+02  0.11445339847E+02  0.29404276722E+02  0.00000000000E+00 0. -1.
</event>
<event>
 5    1  0.8952932E-005  0.9118800E+02  0.7818608E-02  0.1130116E+00
         25   -1    0    0    0    0  0.00000000000E+00  0.00000000000E+00  0.99999998245E-14  0.12500000000E+03  0.12500000000E+03 0.  0.
        -11    1    3    3    0    0 -0.18812066084E+02 -0.24234473732E+02  0.17499814312E+02  0.35319216422E+02  0.51100000000E-03 0. -1.
         23    2    1    0    0    0  0.13076446703E+02  0.14363276337E+01 -0.26497866850E+02  0.95416331481E+02  0.90714292535E+02 0.  0.
         11    1    3    3    0    0  0.31888512787E+02  0.25670801366E+02 -0.43997681162E+02  0.60097115059E+02  0.51100000000E-03 0.  1.
         22    1    1    0    0    0 -0.13076446703E+02 -0.14363276337E+01  0.26497866850E+02  0.29583668519E+02  0.00000000000E+00 0.  1.
</event>
<event>
 5    1  0.8952932E-005  0.9118800E+02  0.7818608E-02  0.1130116E+00
         25   -1    0    0    0    0  0.00000000000E+00  0.00000000000E+00  0.99999998245E-14  0.12500000000E+03  0.12500000000E+03 0.  0.
        -11    1    3    3    0    0  0.32420756479E+02 -0.32521712708E+02 -0.37024161222E+02  0.58987759430E+02  0.51100000000E-03 0.  1.
         23    2    1    0    0    0  0.16542607681E+02 -0.20486136557E+01 -0.24094510025E+02  0.95701534167E+02  0.91106440726E+02 0.  0.
         11    1    3    3    0    0 -0.15878148798E+02  0.30473099052E+02  0.12929651197E+02  0.36713774737E+02  0.51100000000E-03 0. -1.
         22    1    1    0    0    0 -0.16542607681E+02  0.20486136557E+01  0.24094510025E+02  0.29298465833E+02  0.00000000000E+00 0.  1.
</event>
<event>
 5    1  0.8952932E-005  0.9118800E+02  0.7818608E-02  0.1130116E+00
         25   -1    0    0    0    0  0.00000000000E+00  0.00000000000E+00  0.99999998245E-14  0.12500000000E+03  0.12500000000E+03 0.  0.
        -11    1    3    3    0    0  0.27141127496E+02  0.12288348091E+02 -0.42816988935E+02  0.52162619205E+02  0.51100000000E-03 0.  1.
         23    2    1    0    0    0  0.24116233924E+02 -0.13516648655E+02 -0.68748889079E+01  0.96512167035E+02  0.92211939351E+02 0.  0.
         11    1    3    3    0    0 -0.30248935728E+01 -0.25804996746E+02  0.35942100027E+02  0.44349547831E+02  0.51100000000E-03 0. -1.
         22    1    1    0    0    0 -0.24116233924E+02  0.13516648655E+02  0.68748889079E+01  0.28487832965E+02  0.00000000000E+00 0.  1.
</event>
<event>
 5    1  0.8952932E-005  0.9118800E+02  0.7818608E-02  0.1130116E+00
         25   -1    0    0    0    0  0.00000000000E+00  0.00000000000E+00  0.99999998245E-14  0.12500000000E+03  0.12500000000E+03 0.  0.
        -11    1    3    3    0    0 -0.11121324331E+02 -0.42358484389E+02 -0.23723633700E+02  0.49806985964E+02  0.51100000000E-03 0.  1.
         23    2    1    0    0    0 -0.15452162835E+02  0.35723661661E+01 -0.24343775893E+02  0.95945730761E+02  0.91440869912E+02 0.  0.
         11    1    3    3    0    0 -0.43308385044E+01  0.45930850555E+02 -0.62014219311E+00  0.46138744797E+02  0.51100000000E-03 0. -1.
         22    1    1    0    0    0  0.15452162835E+02 -0.35723661661E+01  0.24343775893E+02  0.29054269239E+02  0.00000000000E+00 0.  1.
</event>
<event>
 5    1  0.8952932E-005  0.9118800E+02  0.7818608E-02  0.1130116E+00
         25   -1    0    0    0    0  0.00000000000E+00  0.00000000000E+00  0.99999998245E-14  0.12500000000E+03  0.12500000000E+03 0.  0.
        -11    1    3    3    0    0 -0.13585157490E+02 -0.47064530115E+02 -0.10447870047E+02  0.50087767846E+02  0.51100000000E-03 0.  1.
         23    2    1    0    0    0 -0.16776669712E+02 -0.14624254829E+02  0.20284047467E+02  0.94887410314E+02  0.89982512626E+02 0.  0.
         11    1    3    3    0    0 -0.31915122228E+01  0.32440275286E+02  0.30731917514E+02  0.44799642468E+02  0.51100000000E-03 0. -1.
         22    1    1    0    0    0  0.16776669712E+02  0.14624254829E+02 -0.20284047467E+02  0.30112589686E+02  0.00000000000E+00 0.  1.
</event>
<event>
 5    1  0.8952932E-005  0.9118800E+02  0.7818608E-02  0.1130116E+00
         25   -1    0    0    0    0  0.00000000000E+00  0.00000000000E+00  0.99999998245E-14  0.12500000000E+03  0.12500000000E+03 0.  0.
        -11    1    3    3    0    0 -0.29852286981E+02 -0.16031363566E+02  0.72474222730E+01  0.34650956489E+02  0.51100000000E-03 0. -1.
         23    2    1    0    0    0  0.23546802938E+02  0.99210715333E+01  0.16275755009E+02  0.94705119408E+02  0.89728924278E+02 0.  0.
         11    1    3    3    0    0  0.53399089918E+02  0.25952435099E+02  0.90283327358E+01  0.60054162919E+02  0.51100000000E-03 0.  1.
         22    1    1    0    0    0 -0.23546802938E+02 -0.99210715333E+01 -0.16275755009E+02  0.30294880592E+02  0.00000000000E+00 0.  1.
</event>
<event>
 5    1  0.8952932E-005  0.9118800E+02  0.7818608E-02  0.1130116E+00
         25   -1    0    0    0    0  0.00000000000E+00  0.00000000000E+00  0.99999998245E-14  0.12500000000E+03  0.12500000000E+03 0.  0.
        -11    1    3    3    0    0  0.28996295148E+02 -0.13219177410E+02 -0.43842570691E+02  0.54200579229E+02  0.51100000000E-03 0.  1.
         23    2    1    0    0    0  0.67182566747E+01 -0.26463786756E+02 -0.12220969515E+02  0.95086473326E+02  0.90258619153E+02 0.  0.
         11    1    3    3    0    0 -0.22278038473E+02 -0.13244609345E+02  0.31621601176E+02  0.40885894097E+02  0.51100000000E-03 0. -1.
         22    1    1    0    0    0 -0.67182566747E+01  0.26463786756E+02  0.12220969515E+02  0.29913526674E+02  0.00000000000E+00 0.  1.
</event>
<event>
 5    1  0.8952932E-005  0.9118800E+02  0.7818608E-02  0.1130116E+00
         25   -1    0    0    0    0  0.00000000000E+00  0.00000000000E+00  0.99999998245E-14  0.12500000000E+03  0.12500000000E+03 0.  0.
        -11    1    3    3    0    0 -0.22327550324E+02  0.12214280382E+02  0.30738720793E+02  0.39907105946E+02  0.51100000000E-03 0.  1.
         23    2    1    0    0    0 -0.86779430301E+01 -0.29039097678E+02 -0.24621756150E+01  0.94592135920E+02  0.89571390410E+02 0.  0.
         11    1    3    3    0    0  0.13649607294E+02 -0.41253378060E+02 -0.33200896408E+02  0.54685029974E+02  0.51100000000E-03 0. -1.
         22    1    1    0    0    0  0.86779430301E+01  0.29039097678E+02  0.24621756150E+01  0.30407864080E+02  0.00000000000E+00 0. -1.
</event>
<event>
 5    1  0.8952932E-005  0.9118800E+02  0.7818608E-02  0.1130116E+00
         25   -1    0    0    0    0  0.00000000000E+00  0.00000000000E+00  0.99999998245E-14  0.12500000000E+03  0.12500000000E+03 0.  0.
        -11    1    3    3    0    0 -0.45938178716E+01  0.25930343988E+02  0.25265521724E+02  0.36494280240E+02  0.51100000000E-03 0. -1.
         23    2    1    0    0    0 -0.56203814118E+01 -0.77960491399E+01 -0.25668699207E+02  0.97591074658E+02  0.93663059231E+02 0.  0.
         11    1    3    3    0    0 -0.10265635402E+01 -0.33726393128E+02 -0.50934220931E+02  0.61096794419E+02  0.51100000000E-03 0.  1.
         22    1    1    0    0    0  0.56203814118E+01  0.77960491399E+01  0.25668699207E+02  0.27408925342E+02  0.00000000000E+00 0.  1.
</event>
<event>
 5    1  0.8952932E-005  0.9118800E+02  0.7818608E-02  0.1130116E+00
         25   -1    0    0    0    0  0.00000000000E+00  0.00000000000E+00  0.99999998245E-14  0.12500000000E+03  0.12500000000E+03 0.  0.
        -11    1    3    3    0    0 -0.52836365771E+02 -0.18634534494E+02  0.20111084836E+02  0.59526323230E+02  0.51100000000E-03 0.  1.
         23    2    1    0    0    0 -0.30084569696E+02 -0.26704626208E+01 -0.15399801723E+01  0.94757906102E+02  0.89802430511E+02 0.  0.
         11    1    3    3    0    0  0.22751796076E+02  0.15964071874E+02 -0.21651065008E+02  0.35231582872E+02  0.51100000000E-03 0. -1.
         22    1    1    0    0    0  0.30084569696E+02  0.26704626208E+01  0.15399801723E+01  0.30242093898E+02  0.00000000000E+00 0.  1.
</event>
<event>
 5    1  0.8952932E-005  0.9118800E+02  0.7818608E-02  0.1130116E+00
         25   -1    0    0    0    0  0.00000000000E+00  0.00000000000E+00  0.99999998245E-14  0.12500000000E+03  0.12500000000E+03 0.  0.
        -11    1    3    3    0    0 -0.59511387147E+01  0.37936041247E+02  0.15102056211E+02  0.41262954082E+02  0.51100000000E-03 0.  1.
         23    2    1    0    0    0 -0.23474987164E+02 -0.15865767084E+01 -0.17721086549E+02  0.95544454572E+02  0.90890668624E+02 0.  0.
         11    1    3    3    0    0 -0.17523848449E+02 -0.39522617955E+02 -0.32823142760E+02  0.54281500490E+02  0.51100000000E-03 0. -1.
         22    1    1    0    0    0  0.23474987164E+02  0.15865767084E+01  0.17721086549E+02  0.29455545428E+02  0.00000000000E+00 0. -1.
</event>
<event>
 5    1  0.8952932E-005  0.9118800E+02  0.7818608E-02  0.1130116E+00
         25   -1    0    0    0    0  0.00000000000E+00  0.00000000000E+00  0.99999998245E-14  0.12500000000E+03  0.12500000000E+03 0.  0.
        -11    1    3    3    0    0 -0.36353173365E+02 -0.14801157383E+02 -0.49097770500E+01  0.39556710992E+02  0.51100000000E-03 0.  1.
         23    2    1    0    0    0  0.23014163135E+01  0.10027500070E+02  0.27406585744E+02  0.95725980514E+02  0.91139975470E+02 0.  0.
         11    1    3    3    0    0  0.38654589678E+02  0.24828657453E+02  0.32316362794E+02  0.56169269522E+02  0.51100000000E-03 0. -1.
         22    1    1    0    0    0 -0.23014163135E+01 -0.10027500070E+02 -0.27406585744E+02  0.29274019486E+02  0.00000000000E+00 0. -1.
</event>
<event>
 5    1  0.8952932E-005  0.9118800E+02  0.7818608E-02  0.1130116E+00
         25   -1    0    0    0    0  0.00000000000E+00  0.00000000000E+00  0.99999998245E-14  0.12500000000E+03  0.12500000000E+03 0.  0.
        -11    1    3    3    0    0  0.15232888249E+02  0.23784442779E+02 -0.25978676159E+02  0.38374890462E+02  0.51100000000E-03 0. -1.
         23    2    1    0    0    0 -0.26390030231E+02  0.48624418486E+01  0.98002913312E+01  0.96432137873E+02  0.92103390102E+02 0.  0.
         11    1    3    3    0    0 -0.41622918480E+02 -0.18922000930E+02  0.35778967491E+02  0.58057247411E+02  0.51100000000E-03 0.  1.
         22    1    1    0    0    0  0.26390030231E+02 -0.48624418486E+01 -0.98002913312E+01  0.28567862127E+02  0.00000000000E+00 0.  1.
</event>
<event>
 5    1  0.8952932E-005  0.9118800E+02  0.7818608E-02  0.1130116E+00
         25   -1    0    0    0    0  0.00000000000E+00  0.00000000000E+00  0.99999998245E-14  0.12500000000E+03  0.12500000000E+03 0.  0.
        -11    1    3    3    0    0  0.20321644405E+02 -0.10011037207E+02  0.29519675500E+02  0.37210231646E+02  0.51100000000E-03 0.  1.
         23    2    1    0    0    0  0.34824926832E+01  0.17359406741E+02 -0.21277890345E+02  0.97319223724E+02  0.93299549469E+02 0.  0.
         11    1    3    3    0    0 -0.16839151722E+02  0.27370443948E+02 -0.50797565845E+02  0.60108992078E+02  0.51100000000E-03 0. -1.
         22    1    1    0    0    0 -0.34824926832E+01 -0.17359406741E+02  0.21277890345E+02  0.27680776276E+02  0.00000000000E+00 0. -1.
</event>
<event>
 5    1  0.8952932E-005  0.9118800E+02  0.7818608E-02  0.1130116E+00
         25   -1    0    0    0    0  0.00000000000E+00  0.00000000000E+00  0.99999998245E-14  0.12500000000E+03  0.12500000000E+03 0.  0.
        -11    1    3    3    0    0 -0.87863325202E+00  0.36268068245E+02 -0.21548549989E+02  0.42195790993E+02  0.51100000000E-03 0. -1.
         23    2    1    0    0    0  0.25300789579E+02  0.47477490426E+01  0.13335657762E+02  0.96008434981E+02  0.91526546670E+02 0.  0.
         11    1    3    3    0    0  0.26179422831E+02 -0.31520319202E+02  0.34884207752E+02  0.53812643989E+02  0.51100000000E-03 0.  1.
         22    1    1    0    0    0 -0.25300789579E+02 -0.47477490426E+01 -0.13335657762E+02  0.28991565019E+02  0.00000000000E+00 0.  1.
</event>
<event>
 5    1  0.8952932E-005  0.9118800E+02  0.7818608E-02  0.1130116E+00
         25   -1    0    0    0    0  0.00000000000E+00  0.00000000000E+00  0.99999998245E-14  0.12500000000E+03  0.12500000000E+03 0.  0.
        -11    1    3    3    0    0  0.12663100002E+02 -0.40113705245E+02  0.45796202870E+01  0.42313548331E+02  0.51100000000E-03 0. -1.
         23    2    1    0    0    0 -0.21420850025E+02 -0.18926853655E+01  0.19831290939E+02  0.95747390304E+02  0.91169334626E+02 0.  0.
         11    1    3    3    0    0 -0.34083950028E+02  0.38221019879E+02  0.15251670652E+02  0.53433841973E+02  0.51100000000E-03 0.  1.
         22    1    1    0    0    0  0.21420850025E+02  0.18926853655E+01 -0.19831290939E+02  0.29252609696E+02  0.00000000000E+00 0.  1.
</event>
<event>
 5    1  0.8952932E-005  0.9118800E+02  0.7818608E-02  0.1130116E+00
         25   -1    0    0    0    0  0.00000000000E+00  0.00000000000E+00  0.99999998245E-14  0.12500000000E+03  0.12500000000E+03 0.  0.
        -11    1    3    3    0    0  0.51089989957E+02  0.26345272279E+02  0.12242229662E+02  0.58771869398E+02  0.51100000000E-03 0.  1.
         23    2    1    0    0    0  0.15637950883E+02  0.23532407346E+02  0.11912554613E+02  0.94336851748E+02  0.89214421127E+02 0.  0.
         11    1    3    3    0    0 -0.35452039074E+02 -0.28128649326E+01 -0.32967504898E+00  0.35564982350E+02  0.51100000000E-03 0. -1.
         22    1    1    0    0    0 -0.15637950883E+02 -0.23532407346E+02 -0.11912554613E+02  0.30663148252E+02  0.00000000000E+00 0.  1.
</event>
<event>
 5    1  0.8952932E-005  0.9118800E+02  0.7818608E-02  0.1130116E+00
         25   -1    0    0    0    0  0.00000000000E+00  0.00000000000E+00  0.99999998245E-14  0.12500000000E+03  0.12500000000E+03 0.  0.
        -11    1    3    3    0    0 -0.72302989819E+01  0.44695797165E+02  0.11892114224E+02  0.46812539864E+02  0.51100000000E-03 0. -1.
         23    2    1    0    0    0 -0.18895465181E+02 -0.25132750895E+01  0.21377794487E+02  0.96357980985E+02  0.92002691517E+02 0.  0.
         11    1    3    3    0    0 -0.11665166200E+02 -0.47209072254E+02  0.94856802637E+01  0.49545441121E+02  0.51100000000E-03 0.  1.
         22    1    1    0    0    0  0.18895465181E+02  0.25132750895E+01 -0.21377794487E+02  0.28642019015E+02  0.00000000000E+00 0.  1.
</event>
<event>
 5    1  0.8952932E-005  0.9118800E+02  0.7818608E-02  0.1130116E+00
         25   -1    0    0    0    0  0.00000000000E+00  0.00000000000E+00  0.99999998245E-14  0.12500000000E+03  0.12500000000E+03 0.  0.
        -11    1    3    3    0    0  0.22222501051E+02  0.31476311711E+02  0.44726212804E+02  0.59034158450E+02  0.51100000000E-03 0.  1.
         23    2    1    0    0    0 -0.24204183831E+01  0.15017974470E+02  0.28185586729E+02  0.92971492674E+02  0.87280428324E+02 0.  0.
         11    1    3    3    0    0 -0.24642919434E+02 -0.16458337242E+02 -0.16540626075E+02  0.33937334223E+02  0.51100000000E-03 0. -1.
         22    1    1    0    0    0  0.24204183831E+01 -0.15017974470E+02 -0.28185586729E+02  0.32028507326E+02  0.00000000000E+00 0.  1.
</event>
<event>
 5    1  0.8952932E-005  0.9118800E+02  0.7818608E-02  0.1130116E+00
         25   -1    0    0    0    0  0.00000000000E+00  0.00000000000E+00  0.99999998245E-14  0.12500000000E+03  0.12500000000E+03 0.  0.
        -11    1    3    3    0    0  0.31362377658E+02  0.41309118049E+02 -0.23930273039E+02  0.57120048445E+02  0.51100000000E-03 0. -1.
         23    2    1    0    0    0  0.19657074024E+01  0.18884800424E+02 -0.24383572029E+02  0.94095982825E+02  0.88876294400E+02 0.  0.
         11    1    3    3    0    0 -0.29396670256E+02 -0.22424317625E+02 -0.45329899002E+00  0.36975934380E+02  0.51100000000E-03 0.  1.
         22    1    1    0    0    0 -0.19657074024E+01 -0.18884800424E+02  0.24383572029E+02  0.30904017175E+02  0.00000000000E+00 0. -1.
</event>
<event>
 5    1  0.8952932E-005  0.9118800E+02  0.7818608E-02  0.1130116E+00
         25   -1    0    0    0    0  0.00000000000E+00  0.00000000000E+00  0.99999998245E-14  0.12500000000E+03  0.12500000000E+03 0.  0.
        -11    1    3    3    0    0  0.54577324267E+02 -0.17889932326E+02  0.20159011426E+02  0.60869694797E+02  0.51100000000E-03 0. -1.
         23    2    1    0    0    0  0.24465510967E+02 -0.47432049453E-01  0.15139939029E+02  0.96228812495E+02  0.91827028285E+02 0.  0.
         11    1    3    3    0    0 -0.30111813300E+02  0.17842500277E+02 -0.50190723974E+01  0.35359117697E+02  0.51100000000E-03 0.  1.
         22    1    1    0    0    0 -0.24465510967E+02  0.47432049453E-01 -0.15139939029E+02  0.28771187505E+02  0.00000000000E+00 0. -1.
</event>
<event>
 5    1  0.8952932E-005  0.9118800E+02  0.7818608E-02  0.1130116E+00
         25   -1    0    0    0    0  0.00000000000E+00  0.00000000000E+00  0.99999998245E-14  0.12500000000E+03  0.12500000000E+03 0.  0.
        -11    1    3    3    0    0 -0.54188433387E+02  0.98419412660E+01  0.25279438751E+02  0.60599506142E+02  0.51100000000E-03 0.  1.
         23    2    1    0    0    0 -0.25267004173E+02  0.13660014277E+02  0.57456406259E+01  0.95707852996E+02  0.91115109882E+02 0.  0.
         11    1    3    3    0    0  0.28921429214E+02  0.38180730109E+01 -0.19533798125E+02  0.35108346853E+02  0.51100000000E-03 0. -1.
         22    1    1    0    0    0  0.25267004173E+02 -0.13660014277E+02 -0.57456406259E+01  0.29292147004E+02  0.00000000000E+00 0.  1.
</event>
<event>
 5    1  0.8952932E-005  0.9118800E+02  0.7818608E-02  0.1130116E+00
         25   -1    0    0    0    0  0.00000000000E+00  0.00000000000E+00  0.99999998245E-14  0.12500000000E+03  0.12500000000E+03 0.  0.
        -11    1    3    3    0    0  0.44124803880E+01 -0.11158200341E+02 -0.59956595179E+02  0.61145471818E+02  0.51100000000E-03 0. -1.
         23    2    1    0    0    0  0.74325240736E+01 -0.12480148021E+02 -0.26365886277E+02  0.94897567077E+02  0.89996620876E+02 0.  0.
         11    1    3    3    0    0  0.30200436857E+01 -0.13219476801E+01  0.33590708902E+02  0.33752095259E+02  0.51100000000E-03 0.  1.
         22    1    1    0    0    0 -0.74325240736E+01  0.12480148021E+02  0.26365886277E+02  0.30102432923E+02  0.00000000000E+00 0. -1.
</event>
<event>
 5    1  0.8952932E-005  0.9118800E+02  0.7818608E-02  0.1130116E+00
         25   -1    0    0    0    0  0.00000000000E+00  0.00000000000E+00  0.99999998245E-14  0.12500000000E+03  0.12500000000E+03 0.  0.
        -11    1    3    3    0    0  0.24979858571E+01 -0.31651120843E+02  0.22870125438E+02  0.39128966531E+02  0.51100000000E-03 0.  1.
         23    2    1    0    0    0  0.23941581280E+01 -0.79187891509E+01 -0.28289731037E+02  0.95525466977E+02  0.90864551638E+02 0.  0.
         11    1    3    3    0    0 -0.10382772913E+00  0.23732331693E+02 -0.51159856475E+02  0.56396500446E+02  0.51100000000E-03 0. -1.
         22    1    1    0    0    0 -0.23941581280E+01  0.79187891509E+01  0.28289731037E+02  0.29474533023E+02  0.00000000000E+00 0. -1.
</event>
<event>
 5    1  0.8952932E-005  0.9118800E+02  0.7818608E-02  0.1130116E+00
         25   -1    0    0    0    0  0.00000000000E+00  0.00000000000E+00  0.99999998245E-14  0.12500000000E+03  0.12500000000E+03 0.  0.
        -11    1    3    3    0    0  0.52159410079E+02  0.18479638102E+02 -0.17717596217E+02  0.58103479242E+02  0.51100000000E-03 0. -1.
         23    2    1    0    0    0  0.15172466654E+02  0.12724970813E+02 -0.21552805330E+02  0.95731381239E+02  0.91147382353E+02 0.  0.
         11    1    3    3    0    0 -0.36986943424E+02 -0.57546672890E+01 -0.38352091135E+01  0.37627901997E+02  0.51100000000E-03 0.  1.
         22    1    1    0    0    0 -0.15172466654E+02 -0.12724970813E+02  0.21552805330E+02  0.29268618761E+02  0.00000000000E+00 0. -1.
</event>
<event>
 5    1  0.8952932E-005  0.9118800E+02  0.7818608E-02  0.1130116E+00
         25   -1    0    0    0    0  0.00000000000E+00  0.00000000000E+00  0.99999998245E-14  0.12500000000E+03  0.12500000000E+03 0.  0.
        -11    1    3    3    0    0 -0.34134479317E+01  0.16736781138E+02 -0.28620412298E+02  0.33330158566E+02  0.51100000000E-03 0. -1.
         23    2    1    0    0    0  0.24195841630E+01 -0.15680419018E+02  0.24486814469E+02  0.95822371396E+02  0.91272081433E+02 0.  0.
         11    1    3    3    0    0  0.58330320946E+01 -0.32417200156E+02  0.53107226767E+02  0.62492212831E+02  0.51100000000E-03 0.  1.
         22    1    1    0    0    0 -0.24195841630E+01  0.15680419018E+02 -0.24486814469E+02  0.29177628604E+02  0.00000000000E+00 0.  1.
</event>
<event>
 5    1  0.8952932E-005  0.9118800E+02  0.7818608E-02  0.1130116E+00
         25   -1    0    0    0    0  0.00000000000E+00  0.00000000000E+00  0.99999998245E-14  0.12500000000E+03  0.12500000000E+03 0.  0.
        -11    1    3    3    0    0 -0.93529046114E+01  0.44987635576E+02  0.12169456481E+02  0.47533775893E+02  0.51100000000E-03 0. -1.
         23    2    1    0    0    0 -0.20647499973E+02  0.18888044831E+02 -0.20099698175E+02  0.90546040004E+02  0.83734759813E+02 0.  0.
         11    1    3    3    0    0 -0.11294595362E+02 -0.26099590745E+02 -0.32269154656E+02  0.43012264111E+02  0.51100000000E-03 0.  1.
         22    1    1    0    0    0  0.20647499973E+02 -0.18888044831E+02  0.20099698175E+02  0.34453959996E+02  0.00000000000E+00 0. -1.
</event>
<event>
 5    1  0.8952932E-005  0.9118800E+02  0.7818608E-02  0.1130116E+00
         25   -1    0    0    0    0  0.00000000000E+00  0.00000000000E+00  0.99999998245E-14  0.12500000000E+03  0.12500000000E+03 0.  0.
        -11    1    3    3    0    0 -0.35404561766E+02  0.92543067999E+01 -0.46344493437E+02  0.59050294329E+02  0.51100000000E-03 0. -1.
         23    2    1    0    0    0 -0.21945737986E+02  0.10315345995E+00 -0.64672059006E+01  0.10212095263E+03  0.99525062962E+02 0.  0.
         11    1    3    3    0    0  0.13458823780E+02 -0.91511533399E+01  0.39877287536E+02  0.43070658301E+02  0.51100000000E-03 0.  1.
         22    1    1    0    0    0  0.21945737986E+02 -0.10315345995E+00  0.64672059006E+01  0.22879047369E+02  0.00000000000E+00 0. -1.
</event>
<event>
 5    1  0.8952932E-005  0.9118800E+02  0.7818608E-02  0.1130116E+00
         25   -1    0    0    0    0  0.00000000000E+00  0.00000000000E+00  0.99999998245E-14  0.12500000000E+03  0.12500000000E+03 0.  0.
        -11    1    3    3    0    0 -0.31514753222E+02  0.49534254405E+02  0.93311243140E+00  0.58717056544E+02  0.51100000000E-03 0. -1.
         23    2    1    0    0    0 -0.62381026739E+01  0.26858830879E+02  0.12682577262E+02  0.94649407137E+02  0.89651278765E+02 0.  0.
         11    1    3    3    0    0  0.25276650549E+02 -0.22675423526E+02  0.11749464831E+02  0.35932350593E+02  0.51100000000E-03 0.  1.
         22    1    1    0    0    0  0.62381026739E+01 -0.26858830879E+02 -0.12682577262E+02  0.30350592863E+02  0.00000000000E+00 0. -1.
</event>
<event>
 5    1  0.8952932E-005  0.9118800E+02  0.7818608E-02  0.1130116E+00
         25   -1    0    0    0    0  0.00000000000E+00  0.00000000000E+00  0.99999998245E-14  0.12500000000E+03  0.12500000000E+03 0.  0.
        -11    1    3    3    0    0 -0.49315311341E+02  0.23601440858E+02  0.18083049532E+02  0.57584934001E+02  0.51100000000E-03 0.  1.
         23    2    1    0    0    0 -0.28637889850E+02  0.51044786249E+01 -0.71038502475E+01  0.95055899990E+02  0.90216267920E+02 0.  0.
         11    1    3    3    0    0  0.20677421491E+02 -0.18496962233E+02 -0.25186899779E+02  0.37470965989E+02  0.51100000000E-03 0. -1.
         22    1    1    0    0    0  0.28637889850E+02 -0.51044786249E+01  0.71038502475E+01  0.29944100010E+02  0.00000000000E+00 0.  1.
</event>
<event>
 5    1  0.8952932E-005  0.9118800E+02  0.7818608E-02  0.1130116E+00
         25   -1    0    0    0    0  0.00000000000E+00  0.00000000000E+00  0.99999998245E-14  0.12500000000E+03  0.12500000000E+03 0.  0.
        -11    1    3    3    0    0  0.19533500125E+02  0.55526855035E+00 -0.45582958281E+02  0.49595080767E+02  0.51100000000E-03 0.  1.
         23    2    1    0    0    0 -0.17865108756E+02  0.95640384215E+01 -0.23570548953E+02  0.93916182349E+02  0.88623053363E+02 0.  0.
         11    1    3    3    0    0 -0.37398608881E+02  0.90087698712E+01  0.22012409328E+02  0.44321101583E+02  0.51100000000E-03 0. -1.
         22    1    1    0    0    0  0.17865108756E+02 -0.95640384215E+01  0.23570548953E+02  0.31083817651E+02  0.00000000000E+00 0.  1.
</event>
<event>
 5    1  0.8952932E-005  0.9118800E+02  0.7818608E-02  0.1130116E+00
         25   -1    0    0    0    0  0.00000000000E+00  0.00000000000E+00  0.99999998245E-14  0.12500000000E+03  0.12500000000E+03 0.  0.
        -11    1    3    3    0    0  0.41639287005E+02  0.16497876100E+02 -0.38916301374E+02  0.59333705860E+02  0.51100000000E-03 0. -1.
         23    2    1    0    0    0  0.75901858754E+01  0.94587533342E+01 -0.25794981817E+02  0.96496315621E+02  0.92190449100E+02 0.  0.
         11    1    3    3    0    0 -0.34049101130E+02 -0.70391227662E+01  0.13121319558E+02  0.37162609761E+02  0.51100000000E-03 0.  1.
         22    1    1    0    0    0 -0.75901858754E+01 -0.94587533342E+01  0.25794981817E+02  0.28503684379E+02  0.00000000000E+00 0. -1.
</event>
<event>
 5    1  0.8952932E-005  0.9118800E+02  0.7818608E-02  0.1130116E+00
         25   -1    0    0    0    0  0.00000000000E+00  0.00000000000E+00  0.99999998245E-14  0.12500000000E+03  0.12500000000E+03 0.  0.
        -11    1    3    3    0    0  0.26768590857E+02  0.18161887208E+02 -0.32128731634E+02  0.45592400684E+02  0.51100000000E-03 0. -1.
         23    2    1    0    0    0 -0.12350145428E+02  0.27598766090E+02 -0.44384668848E+01  0.94439928500E+02  0.89358727190E+02 0.  0.
         11    1    3    3    0    0 -0.39118736286E+02  0.94368788815E+01  0.27690264749E+02  0.48847527816E+02  0.51100000000E-03 0.  1.
         22    1    1    0    0    0  0.12350145428E+02 -0.27598766090E+02  0.44384668848E+01  0.30560071500E+02  0.00000000000E+00 0. -1.
</event>
<event>
 5    1  0.8952932E-005  0.9118800E+02  0.7818608E-02  0.1130116E+00
         25   -1    0    0    0    0  0.00000000000E+00  0.00000000000E+00  0.99999998245E-14  0.12500000000E+03  0.12500000000E+03 0.  0.
        -11    1    3    3    0    0  0.39399487914E+01 -0.31585564919E+02 -0.22046585645E+02  0.38719801737E+02  0.51100000000E-03 0. -1.
         23    2    1    0    0    0 -0.22133441568E+02  0.11754079498E+02  0.93515136002E+01  0.98251197651E+02  0.94539935545E+02 0.  0.
         11    1    3    3    0    0 -0.26073390359E+02  0.43339644417E+02  0.31398099245E+02  0.59531395914E+02  0.51100000000E-03 0.  1.
         22    1    1    0    0    0  0.22133441568E+02 -0.11754079498E+02 -0.93515136002E+01  0.26748802349E+02  0.00000000000E+00 0.  1.
</event>
<event>
 5    1  0.8952932E-005  0.9118800E+02  0.7818608E-02  0.1130116E+00
         25   -1    0    0    0    0  0.00000000000E+00  0.00000000000E+00  0.99999998245E-14  0.12500000000E+03  0.12500000000E+03 0.  0.
        -11    1    3    3    0    0 -0.42124658302E+02  0.36303555652E+02 -0.61438461081E+01  0.55948027984E+02  0.51100000000E-03 0. -1.
         23    2    1    0    0    0 -0.10229289166E+02  0.14632711427E+02 -0.21146490197E+02  0.97324584046E+02  0.93306730795E+02 0.  0.
         11    1    3    3    0    0  0.31895369135E+02 -0.21670844225E+02 -0.15002644089E+02  0.41376556063E+02  0.51100000000E-03 0.  1.
         22    1    1    0    0    0  0.10229289166E+02 -0.14632711427E+02  0.21146490197E+02  0.27675415954E+02  0.00000000000E+00 0. -1.
</event>
<event>
 5    1  0.8952932E-005  0.9118800E+02  0.7818608E-02  0.1130116E+00
         25   -1    0    0    0    0  0.00000000000E+00  0.00000000000E+00  0.99999998245E-14  0.12500000000E+03  0.12500000000E+03 0.  0.
        -11    1    3    3    0    0  0.24267283775E+02  0.59929277714E+01 -0.26320718270E+02  0.36298711487E+02  0.51100000000E-03 0. -1.
         23    2    1    0    0    0 -0.34514846357E+00  0.17177697060E+02  0.25210883337E+02  0.94491295629E+02  0.89430553545E+02 0.  0.
         11    1    3    3    0    0 -0.24612432239E+02  0.11184769288E+02  0.51531601607E+02  0.58192584143E+02  0.51100000000E-03 0.  1.
         22    1    1    0    0    0  0.34514846357E+00 -0.17177697060E+02 -0.25210883337E+02  0.30508704371E+02  0.00000000000E+00 0.  1.
</event>
<event>
 5    1  0.8952932E-005  0.9118800E+02  0.7818608E-02  0.1130116E+00
         25   -1    0    0    0    0  0.00000000000E+00  0.00000000000E+00  0.99999998245E-14  0.12500000000E+03  0.12500000000E+03 0.  0.
        -11    1    3    3    0    0 -0.23534695168E+02 -0.18047781081E+02  0.26217887125E+02  0.39585122005E+02  0.51100000000E-03 0. -1.
         23    2    1    0    0    0  0.12510693110E+02 -0.19586868371E+02 -0.17236526956E+02  0.96064542233E+02  0.91603141639E+02 0.  0.
         11    1    3    3    0    0  0.36045388278E+02 -0.15390872901E+01 -0.43454414082E+02  0.56479420227E+02  0.51100000000E-03 0.  1.
         22    1    1    0    0    0 -0.12510693110E+02  0.19586868371E+02  0.17236526956E+02  0.28935457767E+02  0.00000000000E+00 0.  1.
</event>
<event>
 5    1  0.8952932E-005  0.9118800E+02  0.7818608E-02  0.1130116E+00
         25   -1    0    0    0    0  0.00000000000E+00  0.00000000000E+00  0.99999998245E-14  0.12500000000E+03  0.12500000000E+03 0.  0.
        -11    1    3    3    0    0 -0.51223390998E+02 -0.11535542751E+02 -0.19357263017E+02  0.55960773437E+02  0.51100000000E-03 0. -1.
         23    2    1    0    0    0 -0.24544058923E+02  0.14265346833E+02 -0.32275392593E+01  0.96428546443E+02  0.92098515791E+02 0.  0.
         11    1    3    3    0    0  0.26679332075E+02  0.25800889584E+02  0.16129723758E+02  0.40467773006E+02  0.51100000000E-03 0.  1.
         22    1    1    0    0    0  0.24544058923E+02 -0.14265346833E+02  0.32275392593E+01  0.28571453557E+02  0.00000000000E+00 0. -1.
</event>
<event>
 5    1  0.8952932E-005  0.9118800E+02  0.7818608E-02  0.1130116E+00
         25   -1    0    0    0    0  0.00000000000E+00  0.00000000000E+00  0.99999998245E-14  0.12500000000E+03  0.12500000000E+03 0.  0.
        -11    1    3    3    0    0 -0.36569730042E+02  0.16894400553E+02 -0.35850584798E+02  0.53926156510E+02  0.51100000000E-03 0. -1.
         23    2    1    0    0    0 -0.26429507085E+02  0.15494890041E+01  0.43832285485E+01  0.98164716260E+02  0.94425521259E+02 0.  0.
         11    1    3    3    0    0  0.10140222957E+02 -0.15344911549E+02  0.40233813346E+02  0.44238559749E+02  0.51100000000E-03 0.  1.
         22    1    1    0    0    0  0.26429507085E+02 -0.15494890041E+01 -0.43832285485E+01  0.26835283740E+02  0.00000000000E+00 0. -1.
</event>
<event>
 5    1  0.8952932E-005  0.9118800E+02  0.7818608E-02  0.1130116E+00
         25   -1    0    0    0    0  0.00000000000E+00  0.00000000000E+00  0.99999998245E-14  0.12500000000E+03  0.12500000000E+03 0.  0.
        -11    1    3    3    0    0  0.25437128046E+00  0.16382226140E+02 -0.26513542373E+02  0.31167450449E+02  0.51100000000E-03 0.  1.
         23    2    1    0    0    0  0.21716574713E+02  0.41593776902E+01  0.26997430964E+02  0.90103419670E+02  0.83071384469E+02 0.  0.
         11    1    3    3    0    0  0.21462203433E+02 -0.12222848450E+02  0.53510973337E+02  0.58935969222E+02  0.51100000000E-03 0. -1.
         22    1    1    0    0    0 -0.21716574713E+02 -0.41593776902E+01 -0.26997430964E+02  0.34896580330E+02  0.00000000000E+00 0. -1.
</event>
<event>
 5    1  0.8952932E-005  0.9118800E+02  0.7818608E-02  0.1130116E+00
         25   -1    0    0    0    0  0.00000000000E+00  0.00000000000E+00  0.99999998245E-14  0.12500000000E+03  0.12500000000E+03 0.  0.
        -11    1    3    3    0    0  0.80261478559E+01  0.19241092779E+02 -0.37944238615E+02  0.43294386992E+02  0.51100000000E-03 0. -1.
         23    2    1    0    0    0  0.13263269556E+02 -0.24719786468E+02 -0.13473791682E+02  0.93878862092E+02  0.88570398684E+02 0.  0.
         11    1    3    3    0    0  0.52371217006E+01 -0.43960879247E+02  0.24470446932E+02  0.50584475100E+02  0.51100000000E-03 0.  1.
         22    1    1    0    0    0 -0.13263269556E+02  0.24719786468E+02  0.13473791682E+02  0.31121137908E+02  0.00000000000E+00 0.  1.
</event>
<event>
 5    1  0.8952932E-005  0.9118800E+02  0.7818608E-02  0.1130116E+00
         25   -1    0    0    0    0  0.00000000000E+00  0.00000000000E+00  0.99999998245E-14  0.12500000000E+03  0.12500000000E+03 0.  0.
        -11    1    3    3    0    0 -0.43080024484E+02  0.12607298558E+02 -0.34846192495E+02  0.56825079130E+02  0.51100000000E-03 0.  1.
         23    2    1    0    0    0 -0.50366855149E+01  0.28962838452E+01 -0.27654839797E+02  0.96741429171E+02  0.92522198919E+02 0.  0.
         11    1    3    3    0    0  0.38043338970E+02 -0.97110147126E+01  0.71913526981E+01  0.39916350041E+02  0.51100000000E-03 0. -1.
         22    1    1    0    0    0  0.50366855149E+01 -0.28962838452E+01  0.27654839797E+02  0.28258570829E+02  0.00000000000E+00 0.  1.
</event>
<event>
 5    1  0.8952932E-005  0.9118800E+02  0.7818608E-02  0.1130116E+00
         25   -1    0    0    0    0  0.00000000000E+00  0.00000000000E+00  0.99999998245E-14  0.12500000000E+03  0.12500000000E+03 0.  0.
        -11    1    3    3    0    0 -0.41111979431E+02 -0.31227210665E+02 -0.50619405337E+01  0.51874432825E+02  0.51100000000E-03 0. -1.
         23    2    1    0    0    0 -0.28771387697E+02 -0.62633810443E+00 -0.21823087727E+02  0.88883075887E+02  0.81214339693E+02 0.  0.
         11    1    3    3    0    0  0.12340591734E+02  0.30600872560E+02 -0.16761147194E+02  0.37008643062E+02  0.51100000000E-03 0.  1.
         22    1    1    0    0    0  0.28771387697E+02  0.62633810443E+00  0.21823087727E+02  0.36116924113E+02  0.00000000000E+00 0. -1.
</event>
<event>
 5    1  0.8952932E-005  0.9118800E+02  0.7818608E-02  0.1130116E+00
         25   -1    0    0    0    0  0.00000000000E+00  0.00000000000E+00  0.99999998245E-14  0.12500000000E+03  0.12500000000E+03 0.  0.
        -11    1    3    3    0    0  0.44193215484E+01  0.18694405706E+02  0.34961773523E+02  0.39891563215E+02  0.51100000000E-03 0.  1.
         23    2    1    0    0    0 -0.23980510287E+02 -0.19233369662E+01 -0.11676054198E+02  0.98258752079E+02  0.94549923426E+02 0.  0.
         11    1    3    3    0    0 -0.28399831836E+02 -0.20617742672E+02 -0.46637827720E+02  0.58367188864E+02  0.51100000000E-03 0. -1.
         22    1    1    0    0    0  0.23980510287E+02  0.19233369662E+01  0.11676054198E+02  0.26741247921E+02  0.00000000000E+00 0. -1.
</event>
<event>
 5    1  0.8952932E-005  0.9118800E+02  0.7818608E-02  0.1130116E+00
         25   -1    0    0    0    0  0.00000000000E+00  0.00000000000E+00  0.99999998245E-14  0.12500000000E+03  0.12500000000E+03 0.  0.
        -11    1    3    3    0    0 -0.49439893287E+02  0.97331376172E+01 -0.17820258668E+02  0.53447157412E+02  0.51100000000E-03 0.  1.
         23    2    1    0    0    0 -0.12796161765E+02 -0.12575630569E+02 -0.22070015644E+02  0.96557534729E+02  0.92273418070E+02 0.  0.
         11    1    3    3    0    0  0.36643731522E+02 -0.22308768186E+02 -0.42497569761E+01  0.43110377318E+02  0.51100000000E-03 0. -1.
         22    1    1    0    0    0  0.12796161765E+02  0.12575630569E+02  0.22070015644E+02  0.28442465271E+02  0.00000000000E+00 0.  1.
</event>
<event>
 5    1  0.8952932E-005  0.9118800E+02  0.7818608E-02  0.1130116E+00
         25   -1    0    0    0    0  0.00000000000E+00  0.00000000000E+00  0.99999998245E-14  0.12500000000E+03  0.12500000000E+03 0.  0.
        -11    1    3    3    0    0  0.28236495427E+02 -0.14101332522E+02  0.19747972050E+02  0.37230762190E+02  0.51100000000E-03 0.  1.
         23    2    1    0    0    0 -0.17145632226E+01  0.10780190467E+02 -0.25700043345E+02  0.97077885798E+02  0.92975649767E+02 0.  0.
         11    1    3    3    0    0 -0.29951058650E+02  0.24881522989E+02 -0.45448015395E+02  0.59847123608E+02  0.51100000000E-03 0. -1.
         22    1    1    0    0    0  0.17145632226E+01 -0.10780190467E+02  0.25700043345E+02  0.27922114202E+02  0.00000000000E+00 0. -1.
</event>
<event>
 5    1  0.8952932E-005  0.9118800E+02  0.7818608E-02  0.1130116E+00
         25   -1    0    0    0    0  0.00000000000E+00  0.00000000000E+00  0.99999998245E-14  0.12500000000E+03  0.12500000000E+03 0.  0.
        -11    1    3    3    0    0  0.20233920820E+02 -0.47730640031E+02  0.31110796812E+02  0.60460790832E+02  0.51100000000E-03 0.  1.
         23    2    1    0    0    0  0.10325095510E+02 -0.15336160436E+02  0.23354515579E+02  0.95213445783E+02  0.90434293527E+02 0.  0.
         11    1    3    3    0    0 -0.99088253104E+01  0.32394479595E+02 -0.77562812326E+01  0.34752654950E+02  0.51100000000E-03 0. -1.
         22    1    1    0    0    0 -0.10325095510E+02  0.15336160436E+02 -0.23354515579E+02  0.29786554217E+02  0.00000000000E+00 0.  1.
</event>
<event>
 5    1  0.8952932E-005  0.9118800E+02  0.7818608E-02  0.1130116E+00
         25   -1    0    0    0    0  0.00000000000E+00  0.00000000000E+00  0.99999998245E-14  0.12500000000E+03  0.12500000000E+03 0.  0.
        -11    1    3    3    0    0  0.41823305676E+02  0.16721654462E+02 -0.34178182935E+02  0.56541584826E+02  0.51100000000E-03 0.  1.
         23    2    1    0    0    0  0.59973910199E+01  0.31158717983E+01 -0.29012539268E+02  0.95210659777E+02  0.90430442575E+02 0.  0.
         11    1    3    3    0    0 -0.35825914656E+02 -0.13605782664E+02  0.51656436666E+01  0.38669074951E+02  0.51100000000E-03 0. -1.
         22    1    1    0    0    0 -0.59973910199E+01 -0.31158717983E+01  0.29012539268E+02  0.29789340223E+02  0.00000000000E+00 0.  1.
</event>
<event>
 5    1  0.8952932E-005  0.9118800E+02  0.7818608E-02  0.1130116E+00
         25   -1    0    0    0    0  0.00000000000E+00  0.00000000000E+00  0.99999998245E-14  0.12500000000E+03  0.12500000000E+03 0.  0.
        -11    1    3    3    0    0  0.97699328664E+01  0.44057554699E+02  0.28081662626E+02  0.53151664982E+02  0.51100000000E-03 0.  1.
         23    2    1    0    0    0 -0.19607513041E+02  0.16832542380E+02  0.80562621701E+01  0.97931708388E+02  0.94116561226E+02 0.  0.
         11    1    3    3    0    0 -0.29377445908E+02 -0.27225012318E+02 -0.20025400455E+02  0.44780043406E+02  0.51100000000E-03 0. -1.
         22    1    1    0    0    0  0.19607513041E+02 -0.16832542380E+02 -0.80562621701E+01  0.27068291612E+02  0.00000000000E+00 0. -1.
</event>
<event>
 5    1  0.8952932E-005  0.9118800E+02  0.7818608E-02  0.1130116E+00
         25   -1    0    0    0    0  0.00000000000E+00  0.00000000000E+00  0.99999998245E-14  0.12500000000E+03  0.12500000000E+03 0.  0.
        -11    1    3    3    0    0 -0.18320148276E+02  0.23603767345E+02 -0.34296559168E+02  0.45486477515E+02  0.51100000000E-03 0.  1.
         23    2    1    0    0    0 -0.17392665236E+02 -0.20774201117E+02 -0.97771740219E+01  0.96196087628E+02  0.91782470587E+02 0.  0.
         11    1    3    3    0    0  0.92748303969E+00 -0.44377968462E+02  0.24519385146E+02  0.50709610113E+02  0.51100000000E-03 0. -1.
         22    1    1    0    0    0  0.17392665236E+02  0.20774201117E+02  0.97771740219E+01  0.28803912372E+02  0.00000000000E+00 0. -1.
</event>
<event>
 5    1  0.8952932E-005  0.9118800E+02  0.7818608E-02  0.1130116E+00
         25   -1    0    0    0    0  0.00000000000E+00  0.00000000000E+00  0.99999998245E-14  0.12500000000E+03  0.12500000000E+03 0.  0.
        -11    1    3    3    0    0 -0.26958810752E+02  0.42163878057E+02  0.36054869588E+02  0.61680821260E+02  0.51100000000E-03 0. -1.
         23    2    1    0    0    0 -0.17127881385E+02  0.21469795921E+02  0.11614815112E+02  0.95180201413E+02  0.90388330847E+02 0.  0.
         11    1    3    3    0    0  0.98309293663E+01 -0.20694082136E+02 -0.24440054476E+02  0.33499380154E+02  0.51100000000E-03 0.  1.
         22    1    1    0    0    0  0.17127881385E+02 -0.21469795921E+02 -0.11614815112E+02  0.29819798587E+02  0.00000000000E+00 0. -1.
</event>
<event>
 5    1  0.8952932E-005  0.9118800E+02  0.7818608E-02  0.1130116E+00
         25   -1    0    0    0    0  0.00000000000E+00  0.00000000000E+00  0.99999998245E-14  0.12500000000E+03  0.12500000000E+03 0.  0.
        -11    1    3    3    0    0  0.24010409817E+02 -0.39507564508E+02  0.34106535413E+02  0.57450876330E+02  0.51100000000E-03 0.  1.
         23    2    1    0    0    0  0.21398319634E+02 -0.22976363450E+02  0.21447926555E+01  0.93529355011E+02  0.88075755760E+02 0.  0.
         11    1    3    3    0    0 -0.26120901832E+01  0.16531201058E+02 -0.31961742757E+02  0.36078478681E+02  0.51100000000E-03 0. -1.
         22    1    1    0    0    0 -0.21398319634E+02  0.22976363450E+02 -0.21447926555E+01  0.31470644989E+02  0.00000000000E+00 0.  1.
</event>
<event>
 5    1  0.8952932E-005  0.9118800E+02  0.7818608E-02  0.1130116E+00
         25   -1    0    0    0    0  0.00000000000E+00  0.00000000000E+00  0.99999998245E-14  0.12500000000E+03  0.12500000000E+03 0.  0.
        -11    1    3    3    0    0 -0.10343305172E+02  0.25848431702E+02  0.25703058626E+02  0.37891590180E+02  0.51100000000E-03 0.  1.
         23    2    1    0    0    0  0.26105664755E+02  0.11810786328E+02 -0.13583409368E+02  0.93290231536E+02  0.87735727523E+02 0.  0.
         11    1    3    3    0    0  0.36448969927E+02 -0.14037645374E+02 -0.39286467994E+02  0.55398641356E+02  0.51100000000E-03 0. -1.
         22    1    1    0    0    0 -0.26105664755E+02 -0.11810786328E+02  0.13583409368E+02  0.31709768464E+02  0.00000000000E+00 0. -1.
</event>
<event>
 5    1  0.8952932E-005  0.9118800E+02  0.7818608E-02  0.1130116E+00
         25   -1    0    0    0    0  0.00000000000E+00  0.00000000000E+00  0.99999998245E-14  0.12500000000E+03  0.12500000000E+03 0.  0.
        -11    1    3    3    0    0 -0.58794065293E+01  0.12479046221E+02 -0.42337462896E+02  0.44528134707E+02  0.51100000000E-03 0.  1.
         23    2    1    0    0    0 -0.68835699304E+01 -0.24111614401E+02 -0.35135821555E+02  0.81834279337E+02  0.69523879597E+02 0.  0.
         11    1    3    3    0    0 -0.10041634011E+01 -0.36590660622E+02  0.72016413407E+01  0.37306144630E+02  0.51100000000E-03 0. -1.
         22    1    1    0    0    0  0.68835699304E+01  0.24111614401E+02  0.35135821555E+02  0.43165720663E+02  0.00000000000E+00 0.  1.
</event>
<event>
 5    1  0.8952932E-005  0.9118800E+02  0.7818608E-02  0.1130116E+00
         25   -1    0    0    0    0  0.00000000000E+00  0.00000000000E+00  0.99999998245E-14  0.12500000000E+03  0.12500000000E+03 0.  0.
        -11    1    3    3    0    0  0.25361894125E+01  0.56603668655E+02  0.21326826505E+02  0.60541234634E+02  0.51100000000E-03 0.  1.
         23    2    1    0    0    0 -0.89472878243E+01  0.23384018202E+02  0.13517180414E+02  0.96546873054E+02  0.92258973891E+02 0.  0.
         11    1    3    3    0    0 -0.11483477237E+02 -0.33219650454E+02 -0.78096460915E+01  0.36005638420E+02  0.51100000000E-03 0. -1.
         22    1    1    0    0    0  0.89472878243E+01 -0.23384018202E+02 -0.13517180414E+02  0.28453126946E+02  0.00000000000E+00 0. -1.
</event>
<event>
 5    1  0.8952932E-005  0.9118800E+02  0.7818608E-02  0.1130116E+00
         25   -1    0    0    0    0  0.00000000000E+00  0.00000000000E+00  0.99999998245E-14  0.12500000000E+03  0.12500000000E+03 0.  0.
        -11    1    3    3    0    0 -0.11796239589E+02  0.39194539797E+02 -0.18828186226E+02  0.45054009979E+02  0.51100000000E-03 0. -1.
         23    2    1    0    0    0  0.26070927066E+02  0.58270405575E+01 -0.21920046279E+01  0.98196035292E+02  0.94466972128E+02 0.  0.
         11    1    3    3    0    0  0.37867166656E+02 -0.33367499239E+02  0.16636181598E+02  0.53142025314E+02  0.51100000000E-03 0.  1.
         22    1    1    0    0    0 -0.26070927066E+02 -0.58270405575E+01  0.21920046279E+01  0.26803964708E+02  0.00000000000E+00 0.  1.
</event>
<event>
 5    1  0.8952932E-005  0.9118800E+02  0.7818608E-02  0.1130116E+00
         25   -1    0    0    0    0  0.00000000000E+00  0.00000000000E+00  0.99999998245E-14  0.12500000000E+03  0.12500000000E+03 0.  0.
        -11    1    3    3    0    0 -0.10109931835E+02  0.29885561463E+02  0.39223713071E+02  0.50337433119E+02  0.51100000000E-03 0. -1.
         23    2    1    0    0    0  0.20883996114E+02  0.71929892086E+00  0.14623592630E+02  0.99494938815E+02  0.96170342122E+02 0.  0.
         11    1    3    3    0    0  0.30993927949E+02 -0.29166262542E+02 -0.24600120440E+02  0.49157505697E+02  0.51100000000E-03 0.  1.
         22    1    1    0    0    0 -0.20883996114E+02 -0.71929892086E+00 -0.14623592630E+02  0.25505061185E+02  0.00000000000E+00 0. -1.
</event>
<event>
 5    1  0.8952932E-005  0.9118800E+02  0.7818608E-02  0.1130116E+00
         25   -1    0    0    0    0  0.00000000000E+00  0.00000000000E+00  0.99999998245E-14  0.12500000000E+03  0.12500000000E+03 0.  0.
        -11    1    3    3    0    0 -0.11290081140E+02 -0.34988262873E+02  0.74495820335E+01  0.37511874704E+02  0.51100000000E-03 0. -1.
         23    2    1    0    0    0  0.25884779576E+02  0.10658013631E+02  0.58476978455E+01  0.96402611337E+02  0.92063308838E+02 0.  0.
         11    1    3    3    0    0  0.37174860717E+02  0.45646276504E+02 -0.16018841880E+01  0.58890736633E+02  0.51100000000E-03 0.  1.
         22    1    1    0    0    0 -0.25884779576E+02 -0.10658013631E+02 -0.58476978455E+01  0.28597388663E+02  0.00000000000E+00 0.  1.
</event>
<event>
 5    1  0.8952932E-005  0.9118800E+02  0.7818608E-02  0.1130116E+00
         25   -1    0    0    0    0  0.00000000000E+00  0.00000000000E+00  0.99999998245E-14  0.12500000000E+03  0.12500000000E+03 0.  0.
        -11    1    3    3    0    0 -0.73816462409E+01 -0.46098098385E+01 -0.32274725394E+02  0.33427487903E+02  0.51100000000E-03 0. -1.
         23    2    1    0    0    0 -0.52769653244E+01  0.16841886617E+01  0.29210040532E+02  0.95269387454E+02  0.90511584140E+02 0.  0.
         11    1    3    3    0    0  0.21046809164E+01  0.62939985002E+01  0.61484765926E+02  0.61841899551E+02  0.51100000000E-03 0.  1.
         22    1    1    0    0    0  0.52769653244E+01 -0.16841886617E+01 -0.29210040532E+02  0.29730612546E+02  0.00000000000E+00 0.  1.
</event>
<event>
 5    1  0.8952932E-005  0.9118800E+02  0.7818608E-02  0.1130116E+00
         25   -1    0    0    0    0  0.00000000000E+00  0.00000000000E+00  0.99999998245E-14  0.12500000000E+03  0.12500000000E+03 0.  0.
        -11    1    3    3    0    0 -0.11259814736E+02 -0.45733088236E+02 -0.15910719374E+02  0.49713677984E+02  0.51100000000E-03 0. -1.
         23    2    1    0    0    0 -0.14910695734E+02  0.21164090985E+01 -0.22263760476E+02  0.98120954904E+02  0.94367572428E+02 0.  0.
         11    1    3    3    0    0 -0.36508809984E+01  0.47849497334E+02 -0.63530411022E+01  0.48407276919E+02  0.51100000000E-03 0.  1.
         22    1    1    0    0    0  0.14910695734E+02 -0.21164090985E+01  0.22263760476E+02  0.26879045096E+02  0.00000000000E+00 0. -1.
</event>
<event>
 5    1  0.8952932E-005  0.9118800E+02  0.7818608E-02  0.1130116E+00
         25   -1    0    0    0    0  0.00000000000E+00  0.00000000000E+00  0.99999998245E-14  0.12500000000E+03  0.12500000000E+03 0.  0.
        -11    1    3    3    0    0 -0.10412350254E+02 -0.14032796705E+02 -0.46675945809E+02  0.49839545931E+02  0.51100000000E-03 0.  1.
         23    2    1    0    0    0  0.20029353915E+02  0.25227220158E+01 -0.31310296502E+02  0.87745821555E+02  0.79444668724E+02 0.  0.
         11    1    3    3    0    0  0.30441704169E+02  0.16555518720E+02  0.15365649307E+02  0.37906275624E+02  0.51100000000E-03 0. -1.
         22    1    1    0    0    0 -0.20029353915E+02 -0.25227220158E+01  0.31310296502E+02  0.37254178445E+02  0.00000000000E+00 0.  1.
</event>
<event>
 5    1  0.8952932E-005  0.9118800E+02  0.7818608E-02  0.1130116E+00
         25   -1    0    0    0    0  0.00000000000E+00  0.00000000000E+00  0.99999998245E-14  0.12500000000E+03  0.12500000000E+03 0.  0.
        -11    1    3    3    0    0 -0.25762695129E+02 -0.13916091906E+02  0.30853563365E+02  0.42536060546E+02  0.51100000000E-03 0. -1.
         23    2    1    0    0    0  0.22023333964E+02  0.39193869772E+00  0.23212455548E+02  0.93000016447E+02  0.87321269527E+02 0.  0.
         11    1    3    3    0    0  0.47786029093E+02  0.14308030604E+02 -0.76411078165E+01  0.50463955901E+02  0.51100000000E-03 0.  1.
         22    1    1    0    0    0 -0.22023333964E+02 -0.39193869772E+00 -0.23212455548E+02  0.31999983553E+02  0.00000000000E+00 0. -1.
</event>
<event>
 5    1  0.8952932E-005  0.9118800E+02  0.7818608E-02  0.1130116E+00
         25   -1    0    0    0    0  0.00000000000E+00  0.00000000000E+00  0.99999998245E-14  0.12500000000E+03  0.12500000000E+03 0.  0.
        -11    1    3    3    0    0 -0.84241256418E+01  0.24888618241E+02 -0.32307506428E+02  0.41643537105E+02  0.51100000000E-03 0. -1.
         23    2    1    0    0    0  0.94055087178E+01  0.24531470930E+02  0.16750130951E+02  0.93841958548E+02  0.88518301142E+02 0.  0.
         11    1    3    3    0    0  0.17829634360E+02 -0.35714731091E+00  0.49057637379E+02  0.52198421443E+02  0.51100000000E-03 0.  1.
         22    1    1    0    0    0 -0.94055087178E+01 -0.24531470930E+02 -0.16750130951E+02  0.31158041452E+02  0.00000000000E+00 0.  1.
</event>
<event>
 5    1  0.8952932E-005  0.9118800E+02  0.7818608E-02  0.1130116E+00
         25   -1    0    0    0    0  0.00000000000E+00  0.00000000000E+00  0.99999998245E-14  0.12500000000E+03  0.12500000000E+03 0.  0.
        -11    1    3    3    0    0 -0.47823562740E+02 -0.48150655939E+01  0.39831923901E+02  0.62424836177E+02  0.51100000000E-03 0.  1.
         23    2    1    0    0    0 -0.22128435078E+02 -0.42907514958E+01  0.19496760781E+02  0.95197284211E+02  0.90411951936E+02 0.  0.
         11    1    3    3    0    0  0.25695127662E+02  0.52431409800E+00 -0.20335163119E+02  0.32772448035E+02  0.51100000000E-03 0. -1.
         22    1    1    0    0    0  0.22128435078E+02  0.42907514958E+01 -0.19496760781E+02  0.29802715789E+02  0.00000000000E+00 0.  1.
</event>
<event>
 5    1  0.8952932E-005  0.9118800E+02  0.7818608E-02  0.1130116E+00
         25   -1    0    0    0    0  0.00000000000E+00  0.00000000000E+00  0.99999998245E-14  0.12500000000E+03  0.12500000000E+03 0.  0.
        -11    1    3    3    0    0 -0.22157061507E+01 -0.17984022564E+02 -0.30656693891E+02  0.35611336705E+02  0.51100000000E-03 0.  1.
         23    2    1    0    0    0  0.81846399392E+01 -0.91479433927E+01  0.27254517721E+02  0.95108831815E+02  0.90289578324E+02 0.  0.
         11    1    3    3    0    0  0.10400346090E+02  0.88360791710E+01  0.57911211611E+02  0.59497495111E+02  0.51100000000E-03 0. -1.
         22    1    1    0    0    0 -0.81846399392E+01  0.91479433927E+01 -0.27254517721E+02  0.29891168185E+02  0.00000000000E+00 0. -1.
</event>
<event>
 5    1  0.8952932E-005  0.9118800E+02  0.7818608E-02  0.1130116E+00
         25   -1    0    0    0    0  0.00000000000E+00  0.00000000000E+00  0.99999998245E-14  0.12500000000E+03  0.12500000000E+03 0.  0.
        -11    1    3    3    0    0 -0.25411673126E+02  0.24538983037E+02  0.34298207417E+02  0.49236996779E+02  0.51100000000E-03 0. -1.
         23    2    1    0    0    0 -0.28109538887E+02  0.22187244589E+01 -0.67205701549E+01  0.96013193038E+02  0.91533044631E+02 0.  0.
         11    1    3    3    0    0 -0.26978657608E+01 -0.22320258578E+02 -0.41018777572E+02  0.46776196259E+02  0.51100000000E-03 0.  1.
         22    1    1    0    0    0  0.28109538887E+02 -0.22187244589E+01  0.67205701549E+01  0.28986806962E+02  0.00000000000E+00 0.  1.
</event>
<event>
 5    1  0.8952932E-005  0.9118800E+02  0.7818608E-02  0.1130116E+00
         25   -1    0    0    0    0  0.00000000000E+00  0.00000000000E+00  0.99999998245E-14  0.12500000000E+03  0.12500000000E+03 0.  0.
        -11    1    3    3    0    0 -0.58739864309E+02 -0.70748181648E+01  0.17165450012E+02  0.61604199415E+02  0.51100000000E-03 0.  1.
         23    2    1    0    0    0 -0.21563809649E+02 -0.40530386315E+01 -0.88448255469E+00  0.10304078057E+03  0.10067370631E+03 0.  0.
         11    1    3    3    0    0  0.37176054660E+02  0.30217795334E+01 -0.18049932567E+02  0.41436581152E+02  0.51100000000E-03 0. -1.
         22    1    1    0    0    0  0.21563809649E+02  0.40530386315E+01  0.88448255469E+00  0.21959219433E+02  0.00000000000E+00 0.  1.
</event>
<event>
 5    1  0.8952932E-005  0.9118800E+02  0.7818608E-02  0.1130116E+00
         25   -1    0    0    0    0  0.00000000000E+00  0.00000000000E+00  0.99999998245E-14  0.12500000000E+03  0.12500000000E+03 0.  0.
        -11    1    3    3    0    0 -0.27289544308E+02 -0.25843239852E+02 -0.10230344734E+02  0.38951922009E+02  0.51100000000E-03 0.  1.
         23    2    1    0    0    0 -0.92165028220E+01  0.27529581171E+02 -0.49647774494E+01  0.95547143112E+02  0.90894366041E+02 0.  0.
         11    1    3    3    0    0  0.18073041486E+02  0.53372821024E+02  0.52655672847E+01  0.56595221103E+02  0.51100000000E-03 0. -1.
         22    1    1    0    0    0  0.92165028220E+01 -0.27529581171E+02  0.49647774494E+01  0.29452856888E+02  0.00000000000E+00 0. -1.
</event>
<event>
 5    1  0.8952932E-005  0.9118800E+02  0.7818608E-02  0.1130116E+00
         25   -1    0    0    0    0  0.00000000000E+00  0.00000000000E+00  0.99999998245E-14  0.12500000000E+03  0.12500000000E+03 0.  0.
        -11    1    3    3    0    0  0.27507954186E+02 -0.22332421199E+02  0.12529108587E+02  0.37581952349E+02  0.51100000000E-03 0.  1.
         23    2    1    0    0    0  0.56857429180E+01  0.25906958923E+02 -0.11945273162E+02  0.95910693647E+02  0.91392961501E+02 0.  0.
         11    1    3    3    0    0 -0.21822211268E+02  0.48239380122E+02 -0.24474381749E+02  0.58328741298E+02  0.51100000000E-03 0. -1.
         22    1    1    0    0    0 -0.56857429180E+01 -0.25906958923E+02  0.11945273162E+02  0.29089306353E+02  0.00000000000E+00 0. -1.
</event>
<event>
 5    1  0.8952932E-005  0.9118800E+02  0.7818608E-02  0.1130116E+00
         25   -1    0    0    0    0  0.00000000000E+00  0.00000000000E+00  0.99999998245E-14  0.12500000000E+03  0.12500000000E+03 0.  0.
        -11    1    3    3    0    0 -0.15506737289E+02 -0.24104602142E+02  0.23335768972E+02  0.36960098208E+02  0.51100000000E-03 0.  1.
         23    2    1    0    0    0  0.27271102229E+02  0.93084432736E+01 -0.34654752949E+00  0.96181946143E+02  0.91763209053E+02 0.  0.
         11    1    3    3    0    0  0.42777839517E+02  0.33413045415E+02 -0.23682316501E+02  0.59221847935E+02  0.51100000000E-03 0. -1.
         22    1    1    0    0    0 -0.27271102229E+02 -0.93084432736E+01  0.34654752949E+00  0.28818053857E+02  0.00000000000E+00 0. -1.
</event>
<event>
 5    1  0.8952932E-005  0.9118800E+02  0.7818608E-02  0.1130116E+00
         25   -1    0    0    0    0  0.00000000000E+00  0.00000000000E+00  0.99999998245E-14  0.12500000000E+03  0.12500000000E+03 0.  0.
        -11    1    3    3    0    0 -0.52769615247E+01  0.27694763864E+02 -0.20700254187E+02  0.34976374770E+02  0.51100000000E-03 0.  1.
         23    2    1    0    0    0  0.37416132951E+01 -0.16590633643E+02  0.22027310797E+02  0.97171036389E+02  0.93100800734E+02 0.  0.
         11    1    3    3    0    0  0.90185748198E+01 -0.44285397507E+02  0.42727564984E+02  0.62194661619E+02  0.51100000000E-03 0. -1.
         22    1    1    0    0    0 -0.37416132951E+01  0.16590633643E+02 -0.22027310797E+02  0.27828963611E+02  0.00000000000E+00 0. -1.
</event>
<event>
 5    1  0.8952932E-005  0.9118800E+02  0.7818608E-02  0.1130116E+00
         25   -1    0    0    0    0  0.00000000000E+00  0.00000000000E+00  0.99999998245E-14  0.12500000000E+03  0.12500000000E+03 0.  0.
        -11    1    3    3    0    0  0.53739880519E+02  0.55174713258E+01  0.41614208817E+01  0.54182420323E+02  0.51100000000E-03 0. -1.
         23    2    1    0    0    0  0.16415946984E+02  0.18254789476E+02 -0.13032351549E+02  0.97204985319E+02  0.93146370460E+02 0.  0.
         11    1    3    3    0    0 -0.37323933535E+02  0.12737318150E+02 -0.17193772431E+02  0.43022564996E+02  0.51100000000E-03 0.  1.
         22    1    1    0    0    0 -0.16415946984E+02 -0.18254789476E+02  0.13032351549E+02  0.27795014681E+02  0.00000000000E+00 0. -1.
</event>
<event>
 5    1  0.8952932E-005  0.9118800E+02  0.7818608E-02  0.1130116E+00
         25   -1    0    0    0    0  0.00000000000E+00  0.00000000000E+00  0.99999998245E-14  0.12500000000E+03  0.12500000000E+03 0.  0.
        -11    1    3    3    0    0 -0.79259936774E+01 -0.15421744227E+02  0.56493462829E+02  0.59094525241E+02  0.51100000000E-03 0. -1.
         23    2    1    0    0    0  0.10771659034E+02 -0.87955873279E+01  0.26838399500E+02  0.94772683173E+02  0.89822997018E+02 0.  0.
         11    1    3    3    0    0  0.18697652712E+02  0.66261568987E+01 -0.29655063329E+02  0.35678157932E+02  0.51100000000E-03 0.  1.
         22    1    1    0    0    0 -0.10771659034E+02  0.87955873279E+01 -0.26838399500E+02  0.30227316827E+02  0.00000000000E+00 0. -1.
</event>
<event>
 5    1  0.8952932E-005  0.9118800E+02  0.7818608E-02  0.1130116E+00
         25   -1    0    0    0    0  0.00000000000E+00  0.00000000000E+00  0.99999998245E-14  0.12500000000E+03  0.12500000000E+03 0.  0.
        -11    1    3    3    0    0  0.35783290271E+02  0.46707549043E+02  0.33930870772E+01  0.58936847900E+02  0.51100000000E-03 0.  1.
         23    2    1    0    0    0  0.24403189475E+02  0.13250627279E+02 -0.80591723857E+01  0.96085556561E+02  0.91631812926E+02 0.  0.
         11    1    3    3    0    0 -0.11380100796E+02 -0.33456921764E+02 -0.11452259463E+02  0.37148708660E+02  0.51100000000E-03 0. -1.
         22    1    1    0    0    0 -0.24403189475E+02 -0.13250627279E+02  0.80591723857E+01  0.28914443439E+02  0.00000000000E+00 0.  1.
</event>
<event>
 5    1  0.8952932E-005  0.9118800E+02  0.7818608E-02  0.1130116E+00
         25   -1    0    0    0    0  0.00000000000E+00  0.00000000000E+00  0.99999998245E-14  0.12500000000E+03  0.12500000000E+03 0.  0.
        -11    1    3    3    0    0  0.23274634877E+01  0.47479617260E+02 -0.24494035581E+02  0.53476059323E+02  0.51100000000E-03 0.  1.
         23    2    1    0    0    0 -0.18788127308E+01  0.88053879184E+01 -0.30822187131E+02  0.92889689924E+02  0.87163194532E+02 0.  0.
         11    1    3    3    0    0 -0.42062762185E+01 -0.38674229342E+02 -0.63281515499E+01  0.39413630601E+02  0.51100000000E-03 0. -1.
         22    1    1    0    0    0  0.18788127308E+01 -0.88053879184E+01  0.30822187131E+02  0.32110310076E+02  0.00000000000E+00 0.  1.
</event>
<event>
 5    1  0.8952932E-005  0.9118800E+02  0.7818608E-02  0.1130116E+00
         25   -1    0    0    0    0  0.00000000000E+00  0.00000000000E+00  0.99999998245E-14  0.12500000000E+03  0.12500000000E+03 0.  0.
        -11    1    3    3    0    0  0.82668658662E+01  0.39725226605E+02 -0.13200334982E+02  0.42669468523E+02  0.51100000000E-03 0.  1.
         23    2    1    0    0    0 -0.26504578668E+02  0.50987533897E+01  0.90260343440E+01  0.96540216578E+02  0.92249954712E+02 0.  0.
         11    1    3    3    0    0 -0.34771444534E+02 -0.34626473215E+02  0.22226369326E+02  0.53870748055E+02  0.51100000000E-03 0. -1.
         22    1    1    0    0    0  0.26504578668E+02 -0.50987533897E+01 -0.90260343440E+01  0.28459783422E+02  0.00000000000E+00 0. -1.
</event>
<event>
 5    1  0.8952932E-005  0.9118800E+02  0.7818608E-02  0.1130116E+00
         25   -1    0    0    0    0  0.00000000000E+00  0.00000000000E+00  0.99999998245E-14  0.12500000000E+03  0.12500000000E+03 0.  0.
        -11    1    3    3    0    0  0.65349594627E+01 -0.11584726584E+02 -0.34581628636E+02  0.37051324195E+02  0.51100000000E-03 0.  1.
         23    2    1    0    0    0 -0.27464798987E+02 -0.35908284396E+01  0.11614621432E+02  0.94964876174E+02  0.90090060736E+02 0.  0.
         11    1    3    3    0    0 -0.33999758449E+02  0.79938981442E+01  0.46196250068E+02  0.57913551979E+02  0.51100000000E-03 0. -1.
         22    1    1    0    0    0  0.27464798987E+02  0.35908284396E+01 -0.11614621432E+02  0.30035123826E+02  0.00000000000E+00 0. -1.
</event>
<event>
 5    1  0.8952932E-005  0.9118800E+02  0.7818608E-02  0.1130116E+00
         25   -1    0    0    0    0  0.00000000000E+00  0.00000000000E+00  0.99999998245E-14  0.12500000000E+03  0.12500000000E+03 0.  0.
        -11    1    3    3    0    0  0.14250277869E+02  0.41178840659E+02  0.35422945356E+02  0.56156499137E+02  0.51100000000E-03 0.  1.
         23    2    1    0    0    0 -0.46339188189E+01  0.28242220366E+02  0.24779909047E+01  0.96273067450E+02  0.91887250816E+02 0.  0.
         11    1    3    3    0    0 -0.18884196688E+02 -0.12936620293E+02 -0.32944954452E+02  0.40116568313E+02  0.51100000000E-03 0. -1.
         22    1    1    0    0    0  0.46339188189E+01 -0.28242220366E+02 -0.24779909047E+01  0.28726932550E+02  0.00000000000E+00 0.  1.
</event>
<event>
 5    1  0.8952932E-005  0.9118800E+02  0.7818608E-02  0.1130116E+00
         25   -1    0    0    0    0  0.00000000000E+00  0.00000000000E+00  0.99999998245E-14  0.12500000000E+03  0.12500000000E+03 0.  0.
        -11    1    3    3    0    0  0.22494924308E+02  0.23179454582E+01  0.46133373889E+02  0.51377842281E+02  0.51100000000E-03 0.  1.
         23    2    1    0    0    0  0.21913790457E+02  0.25232168290E+02  0.20371304979E+02  0.85860932620E+02  0.76421418169E+02 0.  0.
         11    1    3    3    0    0 -0.58113385038E+00  0.22914222832E+02 -0.25762068910E+02  0.34483090339E+02  0.51100000000E-03 0. -1.
         22    1    1    0    0    0 -0.21913790457E+02 -0.25232168290E+02 -0.20371304979E+02  0.39139067380E+02  0.00000000000E+00 0.  1.
</event>
<event>
 5    1  0.8952932E-005  0.9118800E+02  0.7818608E-02  0.1130116E+00
         25   -1    0    0    0    0  0.00000000000E+00  0.00000000000E+00  0.99999998245E-14  0.12500000000E+03  0.12500000000E+03 0.  0.
        -11    1    3    3    0    0  0.26862297795E+02 -0.98577602604E+01 -0.18256288201E+02  0.33941870003E+02  0.51100000000E-03 0.  1.
         23    2    1    0    0    0 -0.23692176084E+02 -0.61391906625E+00  0.16621781840E+02  0.96052120359E+02  0.91586189404E+02 0.  0.
         11    1    3    3    0    0 -0.50554473879E+02  0.92438411942E+01  0.34878070040E+02  0.62110250355E+02  0.51100000000E-03 0. -1.
         22    1    1    0    0    0  0.23692176084E+02  0.61391906625E+00 -0.16621781840E+02  0.28947879641E+02  0.00000000000E+00 0. -1.
</event>
<event>
 5    1  0.8952932E-005  0.9118800E+02  0.7818608E-02  0.1130116E+00
         25   -1    0    0    0    0  0.00000000000E+00  0.00000000000E+00  0.99999998245E-14  0.12500000000E+03  0.12500000000E+03 0.  0.
        -11    1    3    3    0    0 -0.78273485012E+01  0.43294755447E+02  0.29767298343E+01  0.44097212548E+02  0.51100000000E-03 0.  1.
         23    2    1    0    0    0 -0.12002400854E+02 -0.11629567884E-02 -0.26000855767E+02  0.96362574693E+02  0.92008932573E+02 0.  0.
         11    1    3    3    0    0 -0.41750523528E+01 -0.43295918403E+02 -0.28977585601E+02  0.52265362145E+02  0.51100000000E-03 0. -1.
         22    1    1    0    0    0  0.12002400854E+02  0.11629567884E-02  0.26000855767E+02  0.28637425307E+02  0.00000000000E+00 0. -1.
</event>
<event>
 5    1  0.8952932E-005  0.9118800E+02  0.7818608E-02  0.1130116E+00
         25   -1    0    0    0    0  0.00000000000E+00  0.00000000000E+00  0.99999998245E-14  0.12500000000E+03  0.12500000000E+03 0.  0.
        -11    1    3    3    0    0  0.49801572660E+02  0.22626468078E+01 -0.47859988290E+01  0.50082152461E+02  0.51100000000E-03 0.  1.
         23    2    1    0    0    0  0.13065511105E+02  0.22763692753E+02 -0.16804470383E+02  0.93834578247E+02  0.88507878529E+02 0.  0.
         11    1    3    3    0    0 -0.36736061556E+02  0.20501045945E+02 -0.12018471554E+02  0.43752425787E+02  0.51100000000E-03 0. -1.
         22    1    1    0    0    0 -0.13065511105E+02 -0.22763692753E+02  0.16804470383E+02  0.31165421753E+02  0.00000000000E+00 0.  1.
</event>
<event>
 5    1  0.8952932E-005  0.9118800E+02  0.7818608E-02  0.1130116E+00
         25   -1    0    0    0    0  0.00000000000E+00  0.00000000000E+00  0.99999998245E-14  0.12500000000E+03  0.12500000000E+03 0.  0.
        -11    1    3    3    0    0 -0.34631707279E+02 -0.46529689815E+01 -0.39156404656E+01  0.35161591402E+02  0.51100000000E-03 0.  1.
         23    2    1    0    0    0  0.26627844044E+02  0.14383903049E+01  0.63863123693E+01  0.97579277347E+02  0.93647313559E+02 0.  0.
         11    1    3    3    0    0  0.61259551323E+02  0.60913592864E+01  0.10301952835E+02  0.62417685945E+02  0.51100000000E-03 0. -1.
         22    1    1    0    0    0 -0.26627844044E+02 -0.14383903049E+01 -0.63863123693E+01  0.27420722653E+02  0.00000000000E+00 0. -1.
</event>
<event>
 5    1  0.8952932E-005  0.9118800E+02  0.7818608E-02  0.1130116E+00
         25   -1    0    0    0    0  0.00000000000E+00  0.00000000000E+00  0.99999998245E-14  0.12500000000E+03  0.12500000000E+03 0.  0.
        -11    1    3    3    0    0  0.10228717948E+02 -0.13605178547E+02  0.40456830053E+02  0.43891715076E+02  0.51100000000E-03 0.  1.
         23    2    1    0    0    0  0.22419698204E+02 -0.20228730918E+02 -0.75587381444E+01  0.93871573371E+02  0.88560111465E+02 0.  0.
         11    1    3    3    0    0  0.12190980256E+02 -0.66235523707E+01 -0.48015568197E+02  0.49979858295E+02  0.51100000000E-03 0. -1.
         22    1    1    0    0    0 -0.22419698204E+02  0.20228730918E+02  0.75587381444E+01  0.31128426629E+02  0.00000000000E+00 0.  1.
</event>
<event>
 5    1  0.8952932E-005  0.9118800E+02  0.7818608E-02  0.1130116E+00
         25   -1    0    0    0    0  0.00000000000E+00  0.00000000000E+00  0.99999998245E-14  0.12500000000E+03  0.12500000000E+03 0.  0.
        -11    1    3    3    0    0  0.32199604688E+02 -0.14171807124E+02  0.29832861659E+02  0.46126503165E+02  0.51100000000E-03 0.  1.
         23    2    1    0    0    0 -0.13534803360E+02 -0.22591345609E+02  0.13431974581E+02  0.95436885490E+02  0.90742610566E+02 0.  0.
         11    1    3    3    0    0 -0.45734408048E+02 -0.84195384844E+01 -0.16400887078E+02  0.49310382324E+02  0.51100000000E-03 0. -1.
         22    1    1    0    0    0  0.13534803360E+02  0.22591345609E+02 -0.13431974581E+02  0.29563114510E+02  0.00000000000E+00 0. -1.
</event>
<event>
 5    1  0.8952932E-005  0.9118800E+02  0.7818608E-02  0.1130116E+00
         25   -1    0    0    0    0  0.00000000000E+00  0.00000000000E+00  0.99999998245E-14  0.12500000000E+03  0.12500000000E+03 0.  0.
        -11    1    3    3    0    0 -0.28490974385E+02  0.19423656526E+02 -0.25477956996E+02  0.42873539010E+02  0.51100000000E-03 0.  1.
         23    2    1    0    0    0 -0.22691648557E+02 -0.14140302723E+02  0.13839978644E+02  0.94893454463E+02  0.89990908517E+02 0.  0.
         11    1    3    3    0    0  0.57993258281E+01 -0.33563959249E+02  0.39317935640E+02  0.52019915453E+02  0.51100000000E-03 0. -1.
         22    1    1    0    0    0  0.22691648557E+02  0.14140302723E+02 -0.13839978644E+02  0.30106545537E+02  0.00000000000E+00 0. -1.
</event>
<event>
 5    1  0.8952932E-005  0.9118800E+02  0.7818608E-02  0.1130116E+00
         25   -1    0    0    0    0  0.00000000000E+00  0.00000000000E+00  0.99999998245E-14  0.12500000000E+03  0.12500000000E+03 0.  0.
        -11    1    3    3    0    0 -0.26176871788E+02  0.50301615335E+02 -0.24455202750E+02  0.61753850598E+02  0.51100000000E-03 0.  1.
         23    2    1    0    0    0 -0.15010217037E+02  0.28309477228E+02 -0.63908316121E+01  0.92326220832E+02  0.86351347459E+02 0.  0.
         11    1    3    3    0    0  0.11166654751E+02 -0.21992138106E+02  0.18064371138E+02  0.30572370233E+02  0.51100000000E-03 0. -1.
         22    1    1    0    0    0  0.15010217037E+02 -0.28309477228E+02  0.63908316121E+01  0.32673779168E+02  0.00000000000E+00 0.  1.
</event>
<event>
 5    1  0.8952932E-005  0.9118800E+02  0.7818608E-02  0.1130116E+00
         25   -1    0    0    0    0  0.00000000000E+00  0.00000000000E+00  0.99999998245E-14  0.12500000000E+03  0.12500000000E+03 0.  0.
        -11    1    3    3    0    0 -0.51286746241E+02  0.22772080160E+02  0.21382656902E+02  0.60050944966E+02  0.51100000000E-03 0.  1.
         23    2    1    0    0    0 -0.26043953147E+02  0.14979444598E+01  0.18148850794E+02  0.93220885502E+02  0.87636872237E+02 0.  0.
         11    1    3    3    0    0  0.25242793094E+02 -0.21274135700E+02 -0.32338061077E+01  0.33169940536E+02  0.51100000000E-03 0. -1.
         22    1    1    0    0    0  0.26043953147E+02 -0.14979444598E+01 -0.18148850794E+02  0.31779114498E+02  0.00000000000E+00 0.  1.
</event>
<event>
 5    1  0.8952932E-005  0.9118800E+02  0.7818608E-02  0.1130116E+00
         25   -1    0    0    0    0  0.00000000000E+00  0.00000000000E+00  0.99999998245E-14  0.12500000000E+03  0.12500000000E+03 0.  0.
        -11    1    3    3    0    0  0.26552127722E+02  0.19710553247E+02  0.25317729786E+01  0.33165211752E+02  0.51100000000E-03 0.  1.
         23    2    1    0    0    0 -0.84101617412E+01 -0.27678382327E+02 -0.11773257515E+02  0.93768073046E+02  0.88413903100E+02 0.  0.
         11    1    3    3    0    0 -0.34962289463E+02 -0.47388935574E+02 -0.14305030493E+02  0.60602861294E+02  0.51100000000E-03 0. -1.
         22    1    1    0    0    0  0.84101617412E+01  0.27678382327E+02  0.11773257515E+02  0.31231926954E+02  0.00000000000E+00 0. -1.
</event>
<event>
 5    1  0.8952932E-005  0.9118800E+02  0.7818608E-02  0.1130116E+00
         25   -1    0    0    0    0  0.00000000000E+00  0.00000000000E+00  0.99999998245E-14  0.12500000000E+03  0.12500000000E+03 0.  0.
        -11    1    3    3    0    0  0.71566009085E+01 -0.28091171392E+02  0.24829604831E+02  0.38168575073E+02  0.51100000000E-03 0.  1.
         23    2    1    0    0    0  0.79257754307E+01  0.24971707182E+02 -0.38957213507E+01  0.98512630923E+02  0.94884971048E+02 0.  0.
         11    1    3    3    0    0  0.76917452227E+00  0.53062878574E+02 -0.28725326182E+02  0.60344055851E+02  0.51100000000E-03 0. -1.
         22    1    1    0    0    0 -0.79257754307E+01 -0.24971707182E+02  0.38957213507E+01  0.26487369077E+02  0.00000000000E+00 0. -1.
</event>
<event>
 5    1  0.8952932E-005  0.9118800E+02  0.7818608E-02  0.1130116E+00
         25   -1    0    0    0    0  0.00000000000E+00  0.00000000000E+00  0.99999998245E-14  0.12500000000E+03  0.12500000000E+03 0.  0.
        -11    1    3    3    0    0  0.11247011875E+02  0.25946051253E+02  0.37904348995E+02  0.47290934911E+02  0.51100000000E-03 0. -1.
         23    2    1    0    0    0 -0.25644084841E+02  0.12291374121E+02  0.14256317187E+02  0.93189002769E+02  0.87591384806E+02 0.  0.
         11    1    3    3    0    0 -0.36891096715E+02 -0.13654677132E+02 -0.23648031808E+02  0.45898067858E+02  0.51100000000E-03 0.  1.
         22    1    1    0    0    0  0.25644084841E+02 -0.12291374121E+02 -0.14256317187E+02  0.31810997231E+02  0.00000000000E+00 0. -1.
</event>
<event>
 5    1  0.8952932E-005  0.9118800E+02  0.7818608E-02  0.1130116E+00
         25   -1    0    0    0    0  0.00000000000E+00  0.00000000000E+00  0.99999998245E-14  0.12500000000E+03  0.12500000000E+03 0.  0.
        -11    1    3    3    0    0  0.49048595187E+02  0.12065096805E+02  0.28351093242E+02  0.57923360909E+02  0.51100000000E-03 0. -1.
         23    2    1    0    0    0  0.19216260175E+02 -0.95321332855E+01  0.19965957956E+02  0.95695295648E+02  0.91097880941E+02 0.  0.
         11    1    3    3    0    0 -0.29832335012E+02 -0.21597230091E+02 -0.83851352864E+01  0.37771934739E+02  0.51100000000E-03 0.  1.
         22    1    1    0    0    0 -0.19216260175E+02  0.95321332855E+01 -0.19965957956E+02  0.29304704352E+02  0.00000000000E+00 0. -1.
</event>
<event>
 5    1  0.8952932E-005  0.9118800E+02  0.7818608E-02  0.1130116E+00
         25   -1    0    0    0    0  0.00000000000E+00  0.00000000000E+00  0.99999998245E-14  0.12500000000E+03  0.12500000000E+03 0.  0.
        -11    1    3    3    0    0  0.10870853119E+02  0.73534602108E+00 -0.44945943891E+02  0.46247746473E+02  0.51100000000E-03 0. -1.
         23    2    1    0    0    0  0.12097566023E+02 -0.27099252364E+02 -0.50698463266E+01  0.94893124969E+02  0.89990450839E+02 0.  0.
         11    1    3    3    0    0  0.12267129042E+01 -0.27834598385E+02  0.39876097565E+02  0.48645378496E+02  0.51100000000E-03 0.  1.
         22    1    1    0    0    0 -0.12097566023E+02  0.27099252364E+02  0.50698463266E+01  0.30106875031E+02  0.00000000000E+00 0. -1.
</event>
<event>
 5    1  0.8952932E-005  0.9118800E+02  0.7818608E-02  0.1130116E+00
         25   -1    0    0    0    0  0.00000000000E+00  0.00000000000E+00  0.99999998245E-14  0.12500000000E+03  0.12500000000E+03 0.  0.
        -11    1    3    3    0    0  0.56783161705E+02  0.92781316249E+01  0.87413120697E+01  0.58196406389E+02  0.51100000000E-03 0. -1.
         23    2    1    0    0    0  0.26274284936E+02  0.39361421097E+01 -0.12384143487E+02  0.95687915913E+02  0.91087754271E+02 0.  0.
         11    1    3    3    0    0 -0.30508876768E+02 -0.53419895152E+01 -0.21125455557E+02  0.37491509524E+02  0.51100000000E-03 0.  1.
         22    1    1    0    0    0 -0.26274284936E+02 -0.39361421097E+01  0.12384143487E+02  0.29312084087E+02  0.00000000000E+00 0. -1.
</event>
<event>
 5    1  0.8952932E-005  0.9118800E+02  0.7818608E-02  0.1130116E+00
         25   -1    0    0    0    0  0.00000000000E+00  0.00000000000E+00  0.99999998245E-14  0.12500000000E+03  0.12500000000E+03 0.  0.
        -11    1    3    3    0    0 -0.84064733974E+01  0.37752885333E+02  0.88289913537E+01  0.39672411504E+02  0.51100000000E-03 0.  1.
         23    2    1    0    0    0  0.28800995999E+02 -0.34519770474E+01  0.66894841072E+01  0.95231514756E+02  0.90459265358E+02 0.  0.
         11    1    3    3    0    0  0.37207469397E+02 -0.41204862380E+02 -0.21395072465E+01  0.55559103252E+02  0.51100000000E-03 0. -1.
         22    1    1    0    0    0 -0.28800995999E+02  0.34519770474E+01 -0.66894841072E+01  0.29768485244E+02  0.00000000000E+00 0.  1.
</event>
<event>
 5    1  0.8952932E-005  0.9118800E+02  0.7818608E-02  0.1130116E+00
         25   -1    0    0    0    0  0.00000000000E+00  0.00000000000E+00  0.99999998245E-14  0.12500000000E+03  0.12500000000E+03 0.  0.
        -11    1    3    3    0    0  0.35333318761E+02  0.24649798783E+02  0.73621162293E+00  0.43088258291E+02  0.51100000000E-03 0.  1.
         23    2    1    0    0    0  0.19454808454E+02 -0.21969777173E+02  0.11467644067E+02  0.93493373055E+02  0.88024674176E+02 0.  0.
         11    1    3    3    0    0 -0.15878510307E+02 -0.46619575956E+02  0.10731432444E+02  0.50405114765E+02  0.51100000000E-03 0. -1.
         22    1    1    0    0    0 -0.19454808454E+02  0.21969777173E+02 -0.11467644067E+02  0.31506626945E+02  0.00000000000E+00 0. -1.
</event>
<event>
 5    1  0.8952932E-005  0.9118800E+02  0.7818608E-02  0.1130116E+00
         25   -1    0    0    0    0  0.00000000000E+00  0.00000000000E+00  0.99999998245E-14  0.12500000000E+03  0.12500000000E+03 0.  0.
        -11    1    3    3    0    0  0.67016550373E+01 -0.27058919927E+02  0.51084709472E+02  0.58195746149E+02  0.51100000000E-03 0.  1.
         23    2    1    0    0    0 -0.14862793039E+01  0.23655270731E+01  0.28949846813E+02  0.95915667878E+02  0.91399764603E+02 0.  0.
         11    1    3    3    0    0 -0.81879343412E+01  0.29424447000E+02 -0.22134862659E+02  0.37719921728E+02  0.51100000000E-03 0. -1.
         22    1    1    0    0    0  0.14862793039E+01 -0.23655270731E+01 -0.28949846813E+02  0.29084332122E+02  0.00000000000E+00 0.  1.
</event>
<event>
 5    1  0.8952932E-005  0.9118800E+02  0.7818608E-02  0.1130116E+00
         25   -1    0    0    0    0  0.00000000000E+00  0.00000000000E+00  0.99999998245E-14  0.12500000000E+03  0.12500000000E+03 0.  0.
        -11    1    3    3    0    0  0.37967282553E+02 -0.33339232885E+02 -0.20747749048E+02  0.54621315296E+02  0.51100000000E-03 0.  1.
         23    2    1    0    0    0  0.18571015740E+02 -0.15093939040E+02  0.13123175387E+02  0.97706642684E+02  0.93817166185E+02 0.  0.
         11    1    3    3    0    0 -0.19396266812E+02  0.18245293845E+02  0.33870924435E+02  0.43085327388E+02  0.51100000000E-03 0. -1.
         22    1    1    0    0    0 -0.18571015740E+02  0.15093939040E+02 -0.13123175387E+02  0.27293357316E+02  0.00000000000E+00 0.  1.
</event>
<event>
 5    1  0.8952932E-005  0.9118800E+02  0.7818608E-02  0.1130116E+00
         25   -1    0    0    0    0  0.00000000000E+00  0.00000000000E+00  0.99999998245E-14  0.12500000000E+03  0.12500000000E+03 0.  0.
        -11    1    3    3    0    0  0.54020383701E+02 -0.21676886339E+02  0.13140532257E+02  0.59672127873E+02  0.51100000000E-03 0.  1.
         23    2    1    0    0    0  0.22810584082E+02 -0.67907247103E+01  0.18748924067E+02  0.94702164402E+02  0.89724807610E+02 0.  0.
         11    1    3    3    0    0 -0.31209799619E+02  0.14886161629E+02  0.56083918096E+01  0.35030036530E+02  0.51100000000E-03 0. -1.
         22    1    1    0    0    0 -0.22810584082E+02  0.67907247103E+01 -0.18748924067E+02  0.30297835598E+02  0.00000000000E+00 0.  1.
</event>
<event>
 5    1  0.8952932E-005  0.9118800E+02  0.7818608E-02  0.1130116E+00
         25   -1    0    0    0    0  0.00000000000E+00  0.00000000000E+00  0.99999998245E-14  0.12500000000E+03  0.12500000000E+03 0.  0.
        -11    1    3    3    0    0 -0.87748917202E+01  0.38220012071E+02 -0.17324262499E+02  0.42870713999E+02  0.51100000000E-03 0.  1.
         23    2    1    0    0    0  0.26669456001E+02 -0.80434047681E+00 -0.11624644776E+02  0.95896061896E+02  0.91372947167E+02 0.  0.
         11    1    3    3    0    0  0.35444347721E+02 -0.39024352548E+02  0.56996177226E+01  0.53025347897E+02  0.51100000000E-03 0. -1.
         22    1    1    0    0    0 -0.26669456001E+02  0.80434047681E+00  0.11624644776E+02  0.29103938104E+02  0.00000000000E+00 0. -1.
</event>
<event>
 5    1  0.8952932E-005  0.9118800E+02  0.7818608E-02  0.1130116E+00
         25   -1    0    0    0    0  0.00000000000E+00  0.00000000000E+00  0.99999998245E-14  0.12500000000E+03  0.12500000000E+03 0.  0.
        -11    1    3    3    0    0  0.71434694016E+01  0.56798208874E+02 -0.67405546576E+01  0.57641137773E+02  0.51100000000E-03 0. -1.
         23    2    1    0    0    0  0.94632129415E+01  0.20249712992E+02 -0.18372866713E+02  0.96066187484E+02  0.91605386692E+02 0.  0.
         11    1    3    3    0    0  0.23197435399E+01 -0.36548495882E+02 -0.11632312055E+02  0.38425049712E+02  0.51100000000E-03 0.  1.
         22    1    1    0    0    0 -0.94632129415E+01 -0.20249712992E+02  0.18372866713E+02  0.28933812516E+02  0.00000000000E+00 0. -1.
</event>
<event>
 5    1  0.8952932E-005  0.9118800E+02  0.7818608E-02  0.1130116E+00
         25   -1    0    0    0    0  0.00000000000E+00  0.00000000000E+00  0.99999998245E-14  0.12500000000E+03  0.12500000000E+03 0.  0.
        -11    1    3    3    0    0 -0.27299779464E+02  0.71790198239E+01 -0.43764589612E+02  0.52078360079E+02  0.51100000000E-03 0.  1.
         23    2    1    0    0    0  0.12545718161E+02  0.75572633577E+01 -0.24776136461E+02  0.96218682943E+02  0.91813238346E+02 0.  0.
         11    1    3    3    0    0  0.39845497625E+02  0.37824353381E+00  0.18988453151E+02  0.44140322863E+02  0.51100000000E-03 0. -1.
         22    1    1    0    0    0 -0.12545718161E+02 -0.75572633577E+01  0.24776136461E+02  0.28781317057E+02  0.00000000000E+00 0. -1.
</event>
<event>
 5    1  0.8952932E-005  0.9118800E+02  0.7818608E-02  0.1130116E+00
         25   -1    0    0    0    0  0.00000000000E+00  0.00000000000E+00  0.99999998245E-14  0.12500000000E+03  0.12500000000E+03 0.  0.
        -11    1    3    3    0    0  0.33235482696E+02 -0.17063005266E+02  0.17615076312E+02  0.41304168948E+02  0.51100000000E-03 0. -1.
         23    2    1    0    0    0 -0.13366728461E+01  0.25908053059E+02  0.10889277316E+02  0.96864785978E+02  0.92688707481E+02 0.  0.
         11    1    3    3    0    0 -0.34572155542E+02  0.42971058325E+02 -0.67257989961E+01  0.55560617030E+02  0.51100000000E-03 0.  1.
         22    1    1    0    0    0  0.13366728461E+01 -0.25908053059E+02 -0.10889277316E+02  0.28135214022E+02  0.00000000000E+00 0.  1.
</event>
<event>
 5    1  0.8952932E-005  0.9118800E+02  0.7818608E-02  0.1130116E+00
         25   -1    0    0    0    0  0.00000000000E+00  0.00000000000E+00  0.99999998245E-14  0.12500000000E+03  0.12500000000E+03 0.  0.
        -11    1    3    3    0    0  0.26661652464E+02 -0.26620229287E+02  0.49473039940E+02  0.62185705758E+02  0.51100000000E-03 0.  1.
         23    2    1    0    0    0  0.16251731892E+02 -0.13678837310E+02  0.21118815363E+02  0.95046139782E+02  0.90202743558E+02 0.  0.
         11    1    3    3    0    0 -0.10409920573E+02  0.12941391977E+02 -0.28354224577E+02  0.32860434024E+02  0.51100000000E-03 0. -1.
         22    1    1    0    0    0 -0.16251731892E+02  0.13678837310E+02 -0.21118815363E+02  0.29953860218E+02  0.00000000000E+00 0.  1.
</event>
<event>
 5    1  0.8952932E-005  0.9118800E+02  0.7818608E-02  0.1130116E+00
         25   -1    0    0    0    0  0.00000000000E+00  0.00000000000E+00  0.99999998245E-14  0.12500000000E+03  0.12500000000E+03 0.  0.
        -11    1    3    3    0    0  0.57013875461E+02 -0.23858212978E+02  0.81123071626E+00  0.61809824600E+02  0.51100000000E-03 0.  1.
         23    2    1    0    0    0  0.26626064381E+02 -0.80380110261E+01  0.62377451503E+01  0.96496203933E+02  0.92190297663E+02 0.  0.
         11    1    3    3    0    0 -0.30387811079E+02  0.15820201952E+02  0.54265144340E+01  0.34686379332E+02  0.51100000000E-03 0. -1.
         22    1    1    0    0    0 -0.26626064381E+02  0.80380110261E+01 -0.62377451503E+01  0.28503796067E+02  0.00000000000E+00 0.  1.
</event>
<event>
 5    1  0.8952932E-005  0.9118800E+02  0.7818608E-02  0.1130116E+00
         25   -1    0    0    0    0  0.00000000000E+00  0.00000000000E+00  0.99999998245E-14  0.12500000000E+03  0.12500000000E+03 0.  0.
        -11    1    3    3    0    0 -0.13734939403E+02 -0.18389248785E+02  0.48878676126E+02  0.53999426028E+02  0.51100000000E-03 0. -1.
         23    2    1    0    0    0 -0.27822238515E+02 -0.45172684236E+01  0.15398110901E+02  0.92881710984E+02  0.87151751251E+02 0.  0.
         11    1    3    3    0    0 -0.14087299112E+02  0.13871980361E+02 -0.33480565225E+02  0.38882284956E+02  0.51100000000E-03 0.  1.
         22    1    1    0    0    0  0.27822238515E+02  0.45172684236E+01 -0.15398110901E+02  0.32118289016E+02  0.00000000000E+00 0. -1.
</event>
<event>
 5    1  0.8952932E-005  0.9118800E+02  0.7818608E-02  0.1130116E+00
         25   -1    0    0    0    0  0.00000000000E+00  0.00000000000E+00  0.99999998245E-14  0.12500000000E+03  0.12500000000E+03 0.  0.
        -11    1    3    3    0    0 -0.16983666853E+02 -0.27758459304E+02 -0.19858237947E+01  0.32602461550E+02  0.51100000000E-03 0.  1.
         23    2    1    0    0    0  0.22882102616E+02  0.19837042383E+02 -0.11865773206E+01  0.94693122293E+02  0.89712209722E+02 0.  0.
         11    1    3    3    0    0  0.39865769469E+02  0.47595501687E+02  0.79924647414E+00  0.62090660742E+02  0.51100000000E-03 0. -1.
         22    1    1    0    0    0 -0.22882102616E+02 -0.19837042383E+02  0.11865773206E+01  0.30306877707E+02  0.00000000000E+00 0. -1.
</event>
<event>
 5    1  0.8952932E-005  0.9118800E+02  0.7818608E-02  0.1130116E+00
         25   -1    0    0    0    0  0.00000000000E+00  0.00000000000E+00  0.99999998245E-14  0.12500000000E+03  0.12500000000E+03 0.  0.
        -11    1    3    3    0    0 -0.28649985587E+01  0.41335833195E+02 -0.35099970485E+02  0.54303473655E+02  0.51100000000E-03 0. -1.
         23    2    1    0    0    0 -0.15050805775E+02  0.24614378780E+02  0.12413730417E+01  0.96122060250E+02  0.91681596095E+02 0.  0.
         11    1    3    3    0    0 -0.12185807216E+02 -0.16721454415E+02  0.36341343527E+02  0.41818586596E+02  0.51100000000E-03 0.  1.
         22    1    1    0    0    0  0.15050805775E+02 -0.24614378780E+02 -0.12413730417E+01  0.28877939750E+02  0.00000000000E+00 0. -1.
</event>
<event>
 5    1  0.8952932E-005  0.9118800E+02  0.7818608E-02  0.1130116E+00
         25   -1    0    0    0    0  0.00000000000E+00  0.00000000000E+00  0.99999998245E-14  0.12500000000E+03  0.12500000000E+03 0.  0.
        -11    1    3    3    0    0  0.29186202849E+01  0.40008914386E+02  0.27799354726E+01  0.40211436386E+02  0.51100000000E-03 0. -1.
         23    2    1    0    0    0  0.26557020055E+02 -0.10584424171E+02  0.43818913803E+01  0.96077580991E+02  0.91620932367E+02 0.  0.
         11    1    3    3    0    0  0.23638399771E+02 -0.50593338557E+02  0.16019559077E+01  0.55866144605E+02  0.51100000000E-03 0.  1.
         22    1    1    0    0    0 -0.26557020055E+02  0.10584424171E+02 -0.43818913803E+01  0.28922419009E+02  0.00000000000E+00 0.  1.
</event>
<event>
 5    1  0.8952932E-005  0.9118800E+02  0.7818608E-02  0.1130116E+00
         25   -1    0    0    0    0  0.00000000000E+00  0.00000000000E+00  0.99999998245E-14  0.12500000000E+03  0.12500000000E+03 0.  0.
        -11    1    3    3    0    0  0.19758971423E+01 -0.12207160019E+02  0.30935535467E+02  0.33315556128E+02  0.51100000000E-03 0.  1.
         23    2    1    0    0    0 -0.27739282828E+01  0.21208635896E+02 -0.20850495332E+02  0.95129545195E+02  0.90318250086E+02 0.  0.
         11    1    3    3    0    0 -0.47498254251E+01  0.33415795915E+02 -0.51786030798E+02  0.61813989067E+02  0.51100000000E-03 0. -1.
         22    1    1    0    0    0  0.27739282828E+01 -0.21208635896E+02  0.20850495332E+02  0.29870454805E+02  0.00000000000E+00 0. -1.
</event>
<event>
 5    1  0.8952932E-005  0.9118800E+02  0.7818608E-02  0.1130116E+00
         25   -1    0    0    0    0  0.00000000000E+00  0.00000000000E+00  0.99999998245E-14  0.12500000000E+03  0.12500000000E+03 0.  0.
        -11    1    3    3    0    0 -0.52506309305E+00  0.32693753511E+02 -0.48720836510E+02  0.58676035316E+02  0.51100000000E-03 0. -1.
         23    2    1    0    0    0  0.72702342958E+01  0.35335529560E+01 -0.29387564515E+02  0.94520970302E+02  0.89472021188E+02 0.  0.
         11    1    3    3    0    0  0.77952973888E+01 -0.29160200555E+02  0.19333271995E+02  0.35844934985E+02  0.51100000000E-03 0.  1.
         22    1    1    0    0    0 -0.72702342958E+01 -0.35335529560E+01  0.29387564515E+02  0.30479029698E+02  0.00000000000E+00 0. -1.
</event>
<event>
 5    1  0.8952932E-005  0.9118800E+02  0.7818608E-02  0.1130116E+00
         25   -1    0    0    0    0  0.00000000000E+00  0.00000000000E+00  0.99999998245E-14  0.12500000000E+03  0.12500000000E+03 0.  0.
        -11    1    3    3    0    0 -0.29884226405E+02  0.48009466271E+00 -0.39309317102E+02  0.49381371893E+02  0.51100000000E-03 0.  1.
         23    2    1    0    0    0  0.41964770938E+01 -0.22863846814E+02 -0.12828477427E+02  0.98449373939E+02  0.94801600644E+02 0.  0.
         11    1    3    3    0    0  0.34080703499E+02 -0.23343941477E+02  0.26480839675E+02  0.49068002046E+02  0.51100000000E-03 0. -1.
         22    1    1    0    0    0 -0.41964770938E+01  0.22863846814E+02  0.12828477427E+02  0.26550626061E+02  0.00000000000E+00 0.  1.
</event>
<event>
 5    1  0.8952932E-005  0.9118800E+02  0.7818608E-02  0.1130116E+00
         25   -1    0    0    0    0  0.00000000000E+00  0.00000000000E+00  0.99999998245E-14  0.12500000000E+03  0.12500000000E+03 0.  0.
        -11    1    3    3    0    0 -0.37019586866E+01 -0.33982541629E+02 -0.13055634990E+02  0.36591901275E+02  0.51100000000E-03 0. -1.
         23    2    1    0    0    0 -0.11406654552E+02  0.22343952547E+02 -0.18682402965E+02  0.93720675134E+02  0.88346866292E+02 0.  0.
         11    1    3    3    0    0 -0.77046958654E+01  0.56326494176E+02 -0.56267679747E+01  0.57128773859E+02  0.51100000000E-03 0.  1.
         22    1    1    0    0    0  0.11406654552E+02 -0.22343952547E+02  0.18682402965E+02  0.31279324866E+02  0.00000000000E+00 0.  1.
</event>
<event>
 5    1  0.8952932E-005  0.9118800E+02  0.7818608E-02  0.1130116E+00
         25   -1    0    0    0    0  0.00000000000E+00  0.00000000000E+00  0.99999998245E-14  0.12500000000E+03  0.12500000000E+03 0.  0.
        -11    1    3    3    0    0  0.35899981770E+02 -0.15617550074E+02  0.31120003014E+02  0.50011710121E+02  0.51100000000E-03 0.  1.
         23    2    1    0    0    0  0.78793922923E+01  0.79230134821E+01  0.36341954498E+02  0.86978997616E+02  0.78228827194E+02 0.  0.
         11    1    3    3    0    0 -0.28020589478E+02  0.23540563556E+02  0.52219514839E+01  0.36967287495E+02  0.51100000000E-03 0. -1.
         22    1    1    0    0    0 -0.78793922923E+01 -0.79230134821E+01 -0.36341954498E+02  0.38021002384E+02  0.00000000000E+00 0.  1.
</event>
<event>
 5    1  0.8952932E-005  0.9118800E+02  0.7818608E-02  0.1130116E+00
         25   -1    0    0    0    0  0.00000000000E+00  0.00000000000E+00  0.99999998245E-14  0.12500000000E+03  0.12500000000E+03 0.  0.
        -11    1    3    3    0    0 -0.19885741021E+02  0.33927047007E+02 -0.37127066144E+02  0.54082402455E+02  0.51100000000E-03 0.  1.
         23    2    1    0    0    0  0.48900272264E+01  0.14922009328E+01 -0.28814788896E+02  0.95735156091E+02  0.91152559058E+02 0.  0.
         11    1    3    3    0    0  0.24775768247E+02 -0.32434846075E+02  0.83122772481E+01  0.41652753636E+02  0.51100000000E-03 0. -1.
         22    1    1    0    0    0 -0.48900272264E+01 -0.14922009328E+01  0.28814788896E+02  0.29264843909E+02  0.00000000000E+00 0.  1.
</event>
<event>
 5    1  0.8952932E-005  0.9118800E+02  0.7818608E-02  0.1130116E+00
         25   -1    0    0    0    0  0.00000000000E+00  0.00000000000E+00  0.99999998245E-14  0.12500000000E+03  0.12500000000E+03 0.  0.
        -11    1    3    3    0    0  0.62023554817E+02 -0.99143727812E+00 -0.64777152412E+01  0.62368783017E+02  0.51100000000E-03 0. -1.
         23    2    1    0    0    0  0.28293479601E+02  0.18279224195E+01 -0.46771693836E+01  0.96264339198E+02  0.91875376458E+02 0.  0.
         11    1    3    3    0    0 -0.33730075216E+02  0.28193596976E+01  0.18005458576E+01  0.33895556181E+02  0.51100000000E-03 0.  1.
         22    1    1    0    0    0 -0.28293479601E+02 -0.18279224195E+01  0.46771693836E+01  0.28735660802E+02  0.00000000000E+00 0. -1.
</event>
<event>
 5    1  0.8952932E-005  0.9118800E+02  0.7818608E-02  0.1130116E+00
         25   -1    0    0    0    0  0.00000000000E+00  0.00000000000E+00  0.99999998245E-14  0.12500000000E+03  0.12500000000E+03 0.  0.
        -11    1    3    3    0    0  0.10522010827E+02  0.23724417457E+02  0.12322391423E+02  0.28729810757E+02  0.51100000000E-03 0.  1.
         23    2    1    0    0    0 -0.88722711977E+01 -0.57944629446E+01 -0.35369937280E+02  0.88076762598E+02  0.79963683317E+02 0.  0.
         11    1    3    3    0    0 -0.19394282025E+02 -0.29518880401E+02 -0.47692328703E+02  0.59346951841E+02  0.51100000000E-03 0. -1.
         22    1    1    0    0    0  0.88722711977E+01  0.57944629446E+01  0.35369937280E+02  0.36923237402E+02  0.00000000000E+00 0. -1.
</event>
<event>
 5    1  0.8952932E-005  0.9118800E+02  0.7818608E-02  0.1130116E+00
         25   -1    0    0    0    0  0.00000000000E+00  0.00000000000E+00  0.99999998245E-14  0.12500000000E+03  0.12500000000E+03 0.  0.
        -11    1    3    3    0    0 -0.39468467788E+02 -0.40062781612E+02  0.45192030406E+01  0.56419939883E+02  0.51100000000E-03 0.  1.
         23    2    1    0    0    0 -0.27819544222E+02 -0.25561511292E+01 -0.44657893316E+01  0.96708583922E+02  0.92477813451E+02 0.  0.
         11    1    3    3    0    0  0.11648923566E+02  0.37506630482E+02 -0.89849923722E+01  0.40288644040E+02  0.51100000000E-03 0. -1.
         22    1    1    0    0    0  0.27819544222E+02  0.25561511292E+01  0.44657893316E+01  0.28291416078E+02  0.00000000000E+00 0.  1.
</event>
<event>
 5    1  0.8952932E-005  0.9118800E+02  0.7818608E-02  0.1130116E+00
         25   -1    0    0    0    0  0.00000000000E+00  0.00000000000E+00  0.99999998245E-14  0.12500000000E+03  0.12500000000E+03 0.  0.
        -11    1    3    3    0    0  0.53795406997E+00  0.37018043203E+02  0.17796673772E+02  0.41077323607E+02  0.51100000000E-03 0.  1.
         23    2    1    0    0    0 -0.53817803107E+01 -0.18002358793E+02  0.21386929953E+02  0.96531609560E+02  0.92238291344E+02 0.  0.
         11    1    3    3    0    0 -0.59197343806E+01 -0.55020401995E+02  0.35902561812E+01  0.55454285953E+02  0.51100000000E-03 0. -1.
         22    1    1    0    0    0  0.53817803107E+01  0.18002358793E+02 -0.21386929953E+02  0.28468390440E+02  0.00000000000E+00 0. -1.
</event>
<event>
 5    1  0.8952932E-005  0.9118800E+02  0.7818608E-02  0.1130116E+00
         25   -1    0    0    0    0  0.00000000000E+00  0.00000000000E+00  0.99999998245E-14  0.12500000000E+03  0.12500000000E+03 0.  0.
        -11    1    3    3    0    0  0.84167770543E+01 -0.12032281720E+02  0.57346372171E+02  0.59196489261E+02  0.51100000000E-03 0. -1.
         23    2    1    0    0    0  0.36190231161E+01 -0.19421966877E+02  0.22881664972E+02  0.94769539905E+02  0.89818622658E+02 0.  0.
         11    1    3    3    0    0 -0.47977539383E+01 -0.73896851571E+01 -0.34464707199E+02  0.35573050644E+02  0.51100000000E-03 0.  1.
         22    1    1    0    0    0 -0.36190231161E+01  0.19421966877E+02 -0.22881664972E+02  0.30230460095E+02  0.00000000000E+00 0. -1.
</event>
<event>
 5    1  0.8952932E-005  0.9118800E+02  0.7818608E-02  0.1130116E+00
         25   -1    0    0    0    0  0.00000000000E+00  0.00000000000E+00  0.99999998245E-14  0.12500000000E+03  0.12500000000E+03 0.  0.
        -11    1    3    3    0    0  0.47184570276E+02 -0.25091320721E+02 -0.31830172041E+02  0.62202233883E+02  0.51100000000E-03 0.  1.
         23    2    1    0    0    0  0.16294614808E+02 -0.13417841816E+02 -0.12731490260E+02  0.10034956806E+03  0.97274827238E+02 0.  0.
         11    1    3    3    0    0 -0.30889955468E+02  0.11673478905E+02  0.19098681781E+02  0.38147334174E+02  0.51100000000E-03 0. -1.
         22    1    1    0    0    0 -0.16294614808E+02  0.13417841816E+02  0.12731490260E+02  0.24650431943E+02  0.00000000000E+00 0.  1.
</event>
<event>
 5    1  0.8952932E-005  0.9118800E+02  0.7818608E-02  0.1130116E+00
         25   -1    0    0    0    0  0.00000000000E+00  0.00000000000E+00  0.99999998245E-14  0.12500000000E+03  0.12500000000E+03 0.  0.
        -11    1    3    3    0    0  0.31371861280E+02  0.19296218648E+02 -0.38891694609E+02  0.53563995782E+02  0.51100000000E-03 0.  1.
         23    2    1    0    0    0 -0.67648594646E+01  0.19838687716E+02 -0.19588903793E+02  0.96310942754E+02  0.91938760534E+02 0.  0.
         11    1    3    3    0    0 -0.38136720745E+02  0.54246906830E+00  0.19302790816E+02  0.42746946972E+02  0.51100000000E-03 0. -1.
         22    1    1    0    0    0  0.67648594646E+01 -0.19838687716E+02  0.19588903793E+02  0.28689057246E+02  0.00000000000E+00 0.  1.
</event>
<event>
 5    1  0.8952932E-005  0.9118800E+02  0.7818608E-02  0.1130116E+00
         25   -1    0    0    0    0  0.00000000000E+00  0.00000000000E+00  0.99999998245E-14  0.12500000000E+03  0.12500000000E+03 0.  0.
        -11    1    3    3    0    0  0.42941514982E+02  0.47976059435E+01 -0.63885733011E+01  0.43678422600E+02  0.51100000000E-03 0.  1.
         23    2    1    0    0    0 -0.13297532231E+02  0.18431349749E+02  0.21417832736E+01  0.10217181013E+03  0.99588917723E+02 0.  0.
         11    1    3    3    0    0 -0.56239047213E+02  0.13633743806E+02  0.85303565747E+01  0.58493387533E+02  0.51100000000E-03 0. -1.
         22    1    1    0    0    0  0.13297532231E+02 -0.18431349749E+02 -0.21417832736E+01  0.22828189867E+02  0.00000000000E+00 0. -1.
</event>
<event>
 5    1  0.8952932E-005  0.9118800E+02  0.7818608E-02  0.1130116E+00
         25   -1    0    0    0    0  0.00000000000E+00  0.00000000000E+00  0.99999998245E-14  0.12500000000E+03  0.12500000000E+03 0.  0.
        -11    1    3    3    0    0  0.46415837066E+02 -0.13699836972E+02 -0.61943930239E+01  0.48790224111E+02  0.51100000000E-03 0. -1.
         23    2    1    0    0    0 -0.49367126889E+01 -0.52346130394E+01  0.17576794797E+02  0.10600747460E+03  0.10429222718E+03 0.  0.
         11    1    3    3    0    0 -0.51352549755E+02  0.84652239322E+01  0.23771187821E+02  0.57217250486E+02  0.51100000000E-03 0.  1.
         22    1    1    0    0    0  0.49367126889E+01  0.52346130394E+01 -0.17576794797E+02  0.18992525403E+02  0.00000000000E+00 0.  1.
</event>
<event>
 5    1  0.8952932E-005  0.9118800E+02  0.7818608E-02  0.1130116E+00
         25   -1    0    0    0    0  0.00000000000E+00  0.00000000000E+00  0.99999998245E-14  0.12500000000E+03  0.12500000000E+03 0.  0.
        -11    1    3    3    0    0 -0.57065654161E+02  0.97745616391E+01  0.39295882123E+01  0.58029928518E+02  0.51100000000E-03 0. -1.
         23    2    1    0    0    0 -0.24250632318E+02 -0.73420394778E+01  0.13544509927E+02  0.96269311518E+02  0.91882141243E+02 0.  0.
         11    1    3    3    0    0  0.32815021843E+02 -0.17116601117E+02  0.96149217142E+01  0.38239382999E+02  0.51100000000E-03 0.  1.
         22    1    1    0    0    0  0.24250632318E+02  0.73420394778E+01 -0.13544509927E+02  0.28730688482E+02  0.00000000000E+00 0. -1.
</event>
<event>
 5    1  0.8952932E-005  0.9118800E+02  0.7818608E-02  0.1130116E+00
         25   -1    0    0    0    0  0.00000000000E+00  0.00000000000E+00  0.99999998245E-14  0.12500000000E+03  0.12500000000E+03 0.  0.
        -11    1    3    3    0    0 -0.29282055423E+02 -0.12337326564E+02 -0.47173248622E+02  0.56876742016E+02  0.51100000000E-03 0.  1.
         23    2    1    0    0    0 -0.23724134201E+02 -0.14680663817E+02 -0.87638574071E+01  0.95756853275E+02  0.91182308146E+02 0.  0.
         11    1    3    3    0    0  0.55579212215E+01 -0.23433372539E+01  0.38409391215E+02  0.38880111260E+02  0.51100000000E-03 0. -1.
         22    1    1    0    0    0  0.23724134201E+02  0.14680663817E+02  0.87638574071E+01  0.29243146725E+02  0.00000000000E+00 0.  1.
</event>
<event>
 5    1  0.8952932E-005  0.9118800E+02  0.7818608E-02  0.1130116E+00
         25   -1    0    0    0    0  0.00000000000E+00  0.00000000000E+00  0.99999998245E-14  0.12500000000E+03  0.12500000000E+03 0.  0.
        -11    1    3    3    0    0 -0.35141558664E+02  0.14187685082E+01  0.49212728849E+02  0.60488302426E+02  0.51100000000E-03 0. -1.
         23    2    1    0    0    0 -0.64610204606E+01  0.28770208827E+01  0.27811517473E+02  0.96303266062E+02  0.91928322706E+02 0.  0.
         11    1    3    3    0    0  0.28680538203E+02  0.14582523744E+01 -0.21401211375E+02  0.35814963636E+02  0.51100000000E-03 0.  1.
         22    1    1    0    0    0  0.64610204606E+01 -0.28770208827E+01 -0.27811517473E+02  0.28696733938E+02  0.00000000000E+00 0. -1.
</event>
<event>
 5    1  0.8952932E-005  0.9118800E+02  0.7818608E-02  0.1130116E+00
         25   -1    0    0    0    0  0.00000000000E+00  0.00000000000E+00  0.99999998245E-14  0.12500000000E+03  0.12500000000E+03 0.  0.
        -11    1    3    3    0    0  0.66338636780E+00  0.71517989162E+01 -0.38345607547E+02  0.39012484253E+02  0.51100000000E-03 0.  1.
         23    2    1    0    0    0  0.80530200810E+01 -0.32400061989E+02 -0.30022343944E+02  0.80100598164E+02  0.66333623005E+02 0.  0.
         11    1    3    3    0    0  0.73896337132E+01 -0.39551860906E+02  0.83232636025E+01  0.41088113911E+02  0.51100000000E-03 0. -1.
         22    1    1    0    0    0 -0.80530200810E+01  0.32400061989E+02  0.30022343944E+02  0.44899401836E+02  0.00000000000E+00 0.  1.
</event>
<event>
 5    1  0.8952932E-005  0.9118800E+02  0.7818608E-02  0.1130116E+00
         25   -1    0    0    0    0  0.00000000000E+00  0.00000000000E+00  0.99999998245E-14  0.12500000000E+03  0.12500000000E+03 0.  0.
        -11    1    3    3    0    0 -0.35944595966E+02 -0.81001528244E+01  0.70480576770E+01  0.37514018343E+02  0.51100000000E-03 0. -1.
         23    2    1    0    0    0  0.20182780755E+02  0.25046360074E+01  0.20421281874E+02  0.96179059802E+02  0.91759277190E+02 0.  0.
         11    1    3    3    0    0  0.56127376721E+02  0.10604788832E+02  0.13373224197E+02  0.58665041459E+02  0.51100000000E-03 0.  1.
         22    1    1    0    0    0 -0.20182780755E+02 -0.25046360074E+01 -0.20421281874E+02  0.28820940198E+02  0.00000000000E+00 0.  1.
</event>
<event>
 5    1  0.8952932E-005  0.9118800E+02  0.7818608E-02  0.1130116E+00
         25   -1    0    0    0    0  0.00000000000E+00  0.00000000000E+00  0.99999998245E-14  0.12500000000E+03  0.12500000000E+03 0.  0.
        -11    1    3    3    0    0 -0.51149422048E+02 -0.21491758584E+02  0.76992151216E+01  0.56012828679E+02  0.51100000000E-03 0. -1.
         23    2    1    0    0    0 -0.14231021888E+02 -0.23919803040E+02 -0.77517066986E+01  0.96107649486E+02  0.91661946148E+02 0.  0.
         11    1    3    3    0    0  0.36918400160E+02 -0.24280444560E+01 -0.15450921820E+02  0.40094820808E+02  0.51100000000E-03 0.  1.
         22    1    1    0    0    0  0.14231021888E+02  0.23919803040E+02  0.77517066986E+01  0.28892350514E+02  0.00000000000E+00 0.  1.
</event>
<event>
 5    1  0.8952932E-005  0.9118800E+02  0.7818608E-02  0.1130116E+00
         25   -1    0    0    0    0  0.00000000000E+00  0.00000000000E+00  0.99999998245E-14  0.12500000000E+03  0.12500000000E+03 0.  0.
        -11    1    3    3    0    0  0.42265024890E+02  0.17682059304E+02 -0.26681626431E+02  0.53017890749E+02  0.51100000000E-03 0.  1.
         23    2    1    0    0    0 -0.78275405833E+00  0.19044675391E+02 -0.21291296390E+02  0.96423232047E+02  0.92091302585E+02 0.  0.
         11    1    3    3    0    0 -0.43047778949E+02  0.13626160871E+01  0.53903300409E+01  0.43405341298E+02  0.51100000000E-03 0. -1.
         22    1    1    0    0    0  0.78275405833E+00 -0.19044675391E+02  0.21291296390E+02  0.28576767953E+02  0.00000000000E+00 0.  1.
</event>
<event>
 5    1  0.8952932E-005  0.9118800E+02  0.7818608E-02  0.1130116E+00
         25   -1    0    0    0    0  0.00000000000E+00  0.00000000000E+00  0.99999998245E-14  0.12500000000E+03  0.12500000000E+03 0.  0.
        -11    1    3    3    0    0 -0.27571464145E+02  0.21040962692E+02  0.93375115642E+01  0.35917918489E+02  0.51100000000E-03 0.  1.
         23    2    1    0    0    0  0.14966392761E+02 -0.90008467653E+01 -0.22164764421E+02  0.96781478837E+02  0.92576291291E+02 0.  0.
         11    1    3    3    0    0  0.42537856907E+02 -0.30041809457E+02 -0.31502275985E+02  0.60863560348E+02  0.51100000000E-03 0. -1.
         22    1    1    0    0    0 -0.14966392761E+02  0.90008467653E+01  0.22164764421E+02  0.28218521163E+02  0.00000000000E+00 0. -1.
</event>
<event>
 5    1  0.8952932E-005  0.9118800E+02  0.7818608E-02  0.1130116E+00
         25   -1    0    0    0    0  0.00000000000E+00  0.00000000000E+00  0.99999998245E-14  0.12500000000E+03  0.12500000000E+03 0.  0.
        -11    1    3    3    0    0  0.36065964120E+02  0.24517637974E+02  0.14173836414E+02  0.45855926320E+02  0.51100000000E-03 0.  1.
         23    2    1    0    0    0  0.14003117981E+02  0.40419410042E+01 -0.25483651779E+02  0.95642869550E+02  0.91025916021E+02 0.  0.
         11    1    3    3    0    0 -0.22062846139E+02 -0.20475696970E+02 -0.39657488193E+02  0.49786943230E+02  0.51100000000E-03 0. -1.
         22    1    1    0    0    0 -0.14003117981E+02 -0.40419410042E+01  0.25483651779E+02  0.29357130450E+02  0.00000000000E+00 0.  1.
</event>
<event>
 5    1  0.8952932E-005  0.9118800E+02  0.7818608E-02  0.1130116E+00
         25   -1    0    0    0    0  0.00000000000E+00  0.00000000000E+00  0.99999998245E-14  0.12500000000E+03  0.12500000000E+03 0.  0.
        -11    1    3    3    0    0  0.15940087133E+02  0.16848857994E+02  0.32544453374E+02  0.39963881683E+02  0.51100000000E-03 0. -1.
         23    2    1    0    0    0 -0.26158361448E+02  0.15287347028E+02 -0.22728168518E+01  0.94616969387E+02  0.89606039678E+02 0.  0.
         11    1    3    3    0    0 -0.42098448581E+02 -0.15615109663E+01 -0.34817270226E+02  0.54653087704E+02  0.51100000000E-03 0.  1.
         22    1    1    0    0    0  0.26158361448E+02 -0.15287347028E+02  0.22728168518E+01  0.30383030613E+02  0.00000000000E+00 0. -1.
</event>
<event>
 5    1  0.8952932E-005  0.9118800E+02  0.7818608E-02  0.1130116E+00
         25   -1    0    0    0    0  0.00000000000E+00  0.00000000000E+00  0.99999998245E-14  0.12500000000E+03  0.12500000000E+03 0.  0.
        -11    1    3    3    0    0  0.31211822191E+02  0.22399918408E+02  0.18177301084E+02  0.42501158385E+02  0.51100000000E-03 0.  1.
         23    2    1    0    0    0 -0.17882342120E+02  0.25562182978E+02  0.52735366624E+01  0.93361201868E+02  0.87836783110E+02 0.  0.
         11    1    3    3    0    0 -0.49094164310E+02  0.31622645707E+01 -0.12903764421E+02  0.50860043483E+02  0.51100000000E-03 0. -1.
         22    1    1    0    0    0  0.17882342120E+02 -0.25562182978E+02 -0.52735366624E+01  0.31638798132E+02  0.00000000000E+00 0. -1.
</event>
<event>
 5    1  0.8952932E-005  0.9118800E+02  0.7818608E-02  0.1130116E+00
         25   -1    0    0    0    0  0.00000000000E+00  0.00000000000E+00  0.99999998245E-14  0.12500000000E+03  0.12500000000E+03 0.  0.
        -11    1    3    3    0    0 -0.26654459655E+02  0.51069548928E+01  0.26972776601E+02  0.38263192308E+02  0.51100000000E-03 0.  1.
         23    2    1    0    0    0  0.62739442531E+01  0.22599491255E+02 -0.17086277394E+02  0.95982070083E+02  0.91490532410E+02 0.  0.
         11    1    3    3    0    0  0.32928403908E+02  0.17492536362E+02 -0.44059053995E+02  0.57718877775E+02  0.51100000000E-03 0. -1.
         22    1    1    0    0    0 -0.62739442531E+01 -0.22599491255E+02  0.17086277394E+02  0.29017929917E+02  0.00000000000E+00 0. -1.
</event>
<event>
 5    1  0.8952932E-005  0.9118800E+02  0.7818608E-02  0.1130116E+00
         25   -1    0    0    0    0  0.00000000000E+00  0.00000000000E+00  0.99999998245E-14  0.12500000000E+03  0.12500000000E+03 0.  0.
        -11    1    3    3    0    0 -0.53199735277E+02  0.71853412558E+01  0.60427946298E+01  0.54021813462E+02  0.51100000000E-03 0.  1.
         23    2    1    0    0    0 -0.21998861881E+02 -0.18614686279E+02  0.95036575385E+01  0.94655709335E+02  0.89660065435E+02 0.  0.
         11    1    3    3    0    0  0.31200873396E+02 -0.25800027535E+02  0.34608629087E+01  0.40633895873E+02  0.51100000000E-03 0. -1.
         22    1    1    0    0    0  0.21998861881E+02  0.18614686279E+02 -0.95036575385E+01  0.30344290665E+02  0.00000000000E+00 0.  1.
</event>
<event>
 5    1  0.8952932E-005  0.9118800E+02  0.7818608E-02  0.1130116E+00
         25   -1    0    0    0    0  0.00000000000E+00  0.00000000000E+00  0.99999998245E-14  0.12500000000E+03  0.12500000000E+03 0.  0.
        -11    1    3    3    0    0  0.19628376690E+02  0.54151685836E+01 -0.57432208615E+02  0.60934848888E+02  0.51100000000E-03 0. -1.
         23    2    1    0    0    0  0.52541764868E+01 -0.66892892507E+01 -0.26905293983E+02  0.96782136765E+02  0.92577179646E+02 0.  0.
         11    1    3    3    0    0 -0.14374200203E+02 -0.12104457834E+02  0.30526914632E+02  0.35847287877E+02  0.51100000000E-03 0.  1.
         22    1    1    0    0    0 -0.52541764868E+01  0.66892892507E+01  0.26905293983E+02  0.28217863235E+02  0.00000000000E+00 0. -1.
</event>
<event>
 5    1  0.8952932E-005  0.9118800E+02  0.7818608E-02  0.1130116E+00
         25   -1    0    0    0    0  0.00000000000E+00  0.00000000000E+00  0.99999998245E-14  0.12500000000E+03  0.12500000000E+03 0.  0.
        -11    1    3    3    0    0 -0.32829761628E+02 -0.13757968146E+02 -0.18799941065E+02  0.40255592411E+02  0.51100000000E-03 0.  1.
         23    2    1    0    0    0 -0.65129941453E+01  0.95976526870E+01  0.25592730393E+02  0.96901568037E+02  0.92738298503E+02 0.  0.
         11    1    3    3    0    0  0.26316767482E+02  0.23355620833E+02  0.44392671458E+02  0.56645975626E+02  0.51100000000E-03 0. -1.
         22    1    1    0    0    0  0.65129941453E+01 -0.95976526870E+01 -0.25592730393E+02  0.28098431963E+02  0.00000000000E+00 0. -1.
</event>
<event>
 5    1  0.8952932E-005  0.9118800E+02  0.7818608E-02  0.1130116E+00
         25   -1    0    0    0    0  0.00000000000E+00  0.00000000000E+00  0.99999998245E-14  0.12500000000E+03  0.12500000000E+03 0.  0.
        -11    1    3    3    0    0  0.21805893398E+02 -0.25994379110E+02 -0.14938430735E+02  0.37072381166E+02  0.51100000000E-03 0.  1.
         23    2    1    0    0    0 -0.29534484506E+02 -0.14025473118E+01 -0.26181174366E+01  0.95316545805E+02  0.90576688233E+02 0.  0.
         11    1    3    3    0    0 -0.51340377904E+02  0.24591831798E+02  0.12320313298E+02  0.58244164640E+02  0.51100000000E-03 0. -1.
         22    1    1    0    0    0  0.29534484506E+02  0.14025473118E+01  0.26181174366E+01  0.29683454195E+02  0.00000000000E+00 0. -1.
</event>
<event>
 5    1  0.8952932E-005  0.9118800E+02  0.7818608E-02  0.1130116E+00
         25   -1    0    0    0    0  0.00000000000E+00  0.00000000000E+00  0.99999998245E-14  0.12500000000E+03  0.12500000000E+03 0.  0.
        -11    1    3    3    0    0  0.28308558229E+01 -0.35658634808E+02 -0.13814708226E+02  0.38345770884E+02  0.51100000000E-03 0. -1.
         23    2    1    0    0    0 -0.13700549151E+01  0.21917574266E+02 -0.18528827331E+02  0.96267186799E+02  0.91879250649E+02 0.  0.
         11    1    3    3    0    0 -0.42009107380E+01  0.57576209074E+02 -0.47141191052E+01  0.57921415915E+02  0.51100000000E-03 0.  1.
         22    1    1    0    0    0  0.13700549151E+01 -0.21917574266E+02  0.18528827331E+02  0.28732813201E+02  0.00000000000E+00 0.  1.
</event>
<event>
 5    1  0.8952932E-005  0.9118800E+02  0.7818608E-02  0.1130116E+00
         25   -1    0    0    0    0  0.00000000000E+00  0.00000000000E+00  0.99999998245E-14  0.12500000000E+03  0.12500000000E+03 0.  0.
        -11    1    3    3    0    0  0.74605607436E+01  0.11816765933E+02 -0.42432017588E+02  0.44674064518E+02  0.51100000000E-03 0.  1.
         23    2    1    0    0    0 -0.23599512381E+02 -0.13295142445E+02 -0.99949456498E+01  0.96127924636E+02  0.91689591335E+02 0.  0.
         11    1    3    3    0    0 -0.31060073125E+02 -0.25111908378E+02  0.32437071938E+02  0.51453860118E+02  0.51100000000E-03 0. -1.
         22    1    1    0    0    0  0.23599512381E+02  0.13295142445E+02  0.99949456498E+01  0.28872075364E+02  0.00000000000E+00 0. -1.
</event>
<event>
 5    1  0.8952932E-005  0.9118800E+02  0.7818608E-02  0.1130116E+00
         25   -1    0    0    0    0  0.00000000000E+00  0.00000000000E+00  0.99999998245E-14  0.12500000000E+03  0.12500000000E+03 0.  0.
        -11    1    3    3    0    0 -0.11762355902E+02 -0.25574249323E+02 -0.47489030482E+02  0.55205101768E+02  0.51100000000E-03 0.  1.
         23    2    1    0    0    0  0.10526806885E+02 -0.22012954218E+02 -0.10722524398E+02  0.98347488935E+02  0.94667165553E+02 0.  0.
         11    1    3    3    0    0  0.22289162786E+02  0.35612951045E+01  0.36766506085E+02  0.43142387167E+02  0.51100000000E-03 0. -1.
         22    1    1    0    0    0 -0.10526806885E+02  0.22012954218E+02  0.10722524398E+02  0.26652511065E+02  0.00000000000E+00 0.  1.
</event>
<event>
 5    1  0.8952932E-005  0.9118800E+02  0.7818608E-02  0.1130116E+00
         25   -1    0    0    0    0  0.00000000000E+00  0.00000000000E+00  0.99999998245E-14  0.12500000000E+03  0.12500000000E+03 0.  0.
        -11    1    3    3    0    0 -0.25170158615E+02  0.93285830918E+01  0.33304198073E+02  0.42775331171E+02  0.51100000000E-03 0. -1.
         23    2    1    0    0    0 -0.87056814196E+01  0.23398553055E+02 -0.15113555063E+02  0.95816087982E+02  0.91263475692E+02 0.  0.
         11    1    3    3    0    0  0.16464477196E+02  0.14069969964E+02 -0.48417753136E+02  0.53040756811E+02  0.51100000000E-03 0.  1.
         22    1    1    0    0    0  0.87056814196E+01 -0.23398553055E+02  0.15113555063E+02  0.29183912018E+02  0.00000000000E+00 0.  1.
</event>
<event>
 5    1  0.8952932E-005  0.9118800E+02  0.7818608E-02  0.1130116E+00
         25   -1    0    0    0    0  0.00000000000E+00  0.00000000000E+00  0.99999998245E-14  0.12500000000E+03  0.12500000000E+03 0.  0.
        -11    1    3    3    0    0 -0.16196978511E+02 -0.33456661028E+02 -0.23018008280E+02  0.43720921599E+02  0.51100000000E-03 0.  1.
         23    2    1    0    0    0 -0.44466055255E+01 -0.14340788855E+02  0.24497114595E+02  0.96267802918E+02  0.91880088864E+02 0.  0.
         11    1    3    3    0    0  0.11750372985E+02  0.19115872174E+02  0.47515122875E+02  0.52546881319E+02  0.51100000000E-03 0. -1.
         22    1    1    0    0    0  0.44466055255E+01  0.14340788855E+02 -0.24497114595E+02  0.28732197082E+02  0.00000000000E+00 0. -1.
</event>
<event>
 5    1  0.8952932E-005  0.9118800E+02  0.7818608E-02  0.1130116E+00
         25   -1    0    0    0    0  0.00000000000E+00  0.00000000000E+00  0.99999998245E-14  0.12500000000E+03  0.12500000000E+03 0.  0.
        -11    1    3    3    0    0  0.16467708976E+02  0.30742838080E+02 -0.13697889609E+02  0.37469183499E+02  0.51100000000E-03 0. -1.
         23    2    1    0    0    0 -0.45642109617E+00 -0.13175277797E+02  0.23897503631E+02  0.97707382957E+02  0.93818152504E+02 0.  0.
         11    1    3    3    0    0 -0.16924130072E+02 -0.43918115877E+02  0.37595393240E+02  0.60238199458E+02  0.51100000000E-03 0.  1.
         22    1    1    0    0    0  0.45642109617E+00  0.13175277797E+02 -0.23897503631E+02  0.27292617043E+02  0.00000000000E+00 0.  1.
</event>
<event>
 5    1  0.8952932E-005  0.9118800E+02  0.7818608E-02  0.1130116E+00
         25   -1    0    0    0    0  0.00000000000E+00  0.00000000000E+00  0.99999998245E-14  0.12500000000E+03  0.12500000000E+03 0.  0.
        -11    1    3    3    0    0  0.27250239336E+02  0.32453950925E+02 -0.56432018287E+01  0.42751376605E+02  0.51100000000E-03 0. -1.
         23    2    1    0    0    0  0.18909486110E+01  0.17511187337E+01  0.29213243516E+02  0.95673293737E+02  0.91067686005E+02 0.  0.
         11    1    3    3    0    0 -0.25359290725E+02 -0.30702832191E+02  0.34856445345E+02  0.52921917132E+02  0.51100000000E-03 0.  1.
         22    1    1    0    0    0 -0.18909486110E+01 -0.17511187337E+01 -0.29213243516E+02  0.29326706263E+02  0.00000000000E+00 0.  1.
</event>
<event>
 5    1  0.8952932E-005  0.9118800E+02  0.7818608E-02  0.1130116E+00
         25   -1    0    0    0    0  0.00000000000E+00  0.00000000000E+00  0.99999998245E-14  0.12500000000E+03  0.12500000000E+03 0.  0.
        -11    1    3    3    0    0 -0.19472131656E+02 -0.22709040408E+02  0.75255035642E-01  0.29914379337E+02  0.51100000000E-03 0.  1.
         23    2    1    0    0    0  0.26922587691E+02  0.12305925704E+02  0.17521745451E+02  0.90601263119E+02  0.83817156834E+02 0.  0.
         11    1    3    3    0    0  0.46394719347E+02  0.35014966112E+02  0.17446490415E+02  0.60686883782E+02  0.51100000000E-03 0. -1.
         22    1    1    0    0    0 -0.26922587691E+02 -0.12305925704E+02 -0.17521745451E+02  0.34398736881E+02  0.00000000000E+00 0. -1.
</event>
<event>
 5    1  0.8952932E-005  0.9118800E+02  0.7818608E-02  0.1130116E+00
         25   -1    0    0    0    0  0.00000000000E+00  0.00000000000E+00  0.99999998245E-14  0.12500000000E+03  0.12500000000E+03 0.  0.
        -11    1    3    3    0    0  0.21524934599E+02 -0.41375327073E+02  0.16374349159E+02  0.49430353130E+02  0.51100000000E-03 0. -1.
         23    2    1    0    0    0 -0.39464420169E+01 -0.13119151754E+01  0.26669055656E+02  0.98008629979E+02  0.94218668505E+02 0.  0.
         11    1    3    3    0    0 -0.25471376616E+02  0.40063411897E+02  0.10294706497E+02  0.48578276850E+02  0.51100000000E-03 0.  1.
         22    1    1    0    0    0  0.39464420169E+01  0.13119151754E+01 -0.26669055656E+02  0.26991370021E+02  0.00000000000E+00 0. -1.
</event>
<event>
 5    1  0.8952932E-005  0.9118800E+02  0.7818608E-02  0.1130116E+00
         25   -1    0    0    0    0  0.00000000000E+00  0.00000000000E+00  0.99999998245E-14  0.12500000000E+03  0.12500000000E+03 0.  0.
        -11    1    3    3    0    0 -0.42680289046E+01  0.44168593502E+02 -0.36296208241E+02  0.57327963993E+02  0.51100000000E-03 0. -1.
         23    2    1    0    0    0 -0.24544630286E+01  0.31722354641E+02 -0.28565106355E+01  0.93054862252E+02  0.87399745784E+02 0.  0.
         11    1    3    3    0    0  0.18135658759E+01 -0.12446238861E+02  0.33439697606E+02  0.35726898259E+02  0.51100000000E-03 0.  1.
         22    1    1    0    0    0  0.24544630286E+01 -0.31722354641E+02  0.28565106355E+01  0.31945137748E+02  0.00000000000E+00 0. -1.
</event>
<event>
 5    1  0.8952932E-005  0.9118800E+02  0.7818608E-02  0.1130116E+00
         25   -1    0    0    0    0  0.00000000000E+00  0.00000000000E+00  0.99999998245E-14  0.12500000000E+03  0.12500000000E+03 0.  0.
        -11    1    3    3    0    0  0.18672839795E+02  0.25944191528E+02  0.27644018306E+02  0.42260711877E+02  0.51100000000E-03 0.  1.
         23    2    1    0    0    0 -0.12530526638E+02  0.15323378125E+02 -0.17786070104E+02  0.98388643313E+02  0.94721490847E+02 0.  0.
         11    1    3    3    0    0 -0.31203366433E+02 -0.10620813403E+02 -0.45430088410E+02  0.56127931436E+02  0.51100000000E-03 0. -1.
         22    1    1    0    0    0  0.12530526638E+02 -0.15323378125E+02  0.17786070104E+02  0.26611356687E+02  0.00000000000E+00 0. -1.
</event>
<event>
 5    1  0.8952932E-005  0.9118800E+02  0.7818608E-02  0.1130116E+00
         25   -1    0    0    0    0  0.00000000000E+00  0.00000000000E+00  0.99999998245E-14  0.12500000000E+03  0.12500000000E+03 0.  0.
        -11    1    3    3    0    0 -0.29262491090E+02  0.17893740129E+02  0.49054668484E+02  0.59856827688E+02  0.51100000000E-03 0.  1.
         23    2    1    0    0    0 -0.17829845681E+02 -0.38323076875E+01  0.19004988826E+02  0.98660304112E+02  0.95079314406E+02 0.  0.
         11    1    3    3    0    0  0.11432645409E+02 -0.21726047816E+02 -0.30049679658E+02  0.38803476423E+02  0.51100000000E-03 0. -1.
         22    1    1    0    0    0  0.17829845681E+02  0.38323076875E+01 -0.19004988826E+02  0.26339695888E+02  0.00000000000E+00 0.  1.
</event>
<event>
 5    1  0.8952932E-005  0.9118800E+02  0.7818608E-02  0.1130116E+00
         25   -1    0    0    0    0  0.00000000000E+00  0.00000000000E+00  0.99999998245E-14  0.12500000000E+03  0.12500000000E+03 0.  0.
        -11    1    3    3    0    0 -0.24589684341E+02 -0.12699829242E+02 -0.32841395683E+02  0.42947590264E+02  0.51100000000E-03 0.  1.
         23    2    1    0    0    0 -0.18513775579E+02 -0.20154762448E+02  0.16383644701E+02  0.93103320718E+02  0.87469024115E+02 0.  0.
         11    1    3    3    0    0  0.60759087627E+01 -0.74549332062E+01  0.49225040384E+02  0.50155730455E+02  0.51100000000E-03 0. -1.
         22    1    1    0    0    0  0.18513775579E+02  0.20154762448E+02 -0.16383644701E+02  0.31896679282E+02  0.00000000000E+00 0.  1.
</event>
<event>
 5    1  0.8952932E-005  0.9118800E+02  0.7818608E-02  0.1130116E+00
         25   -1    0    0    0    0  0.00000000000E+00  0.00000000000E+00  0.99999998245E-14  0.12500000000E+03  0.12500000000E+03 0.  0.
        -11    1    3    3    0    0 -0.47022117508E+01  0.39778150863E+02  0.38321087591E+02  0.55433905111E+02  0.51100000000E-03 0. -1.
         23    2    1    0    0    0  0.15722618193E+02  0.89276364726E+01  0.23638090420E+02  0.95239913735E+02  0.90470870636E+02 0.  0.
         11    1    3    3    0    0  0.20424829944E+02 -0.30850514390E+02 -0.14682997171E+02  0.39806008624E+02  0.51100000000E-03 0.  1.
         22    1    1    0    0    0 -0.15722618193E+02 -0.89276364726E+01 -0.23638090420E+02  0.29760086265E+02  0.00000000000E+00 0. -1.
</event>
<event>
 5    1  0.8952932E-005  0.9118800E+02  0.7818608E-02  0.1130116E+00
         25   -1    0    0    0    0  0.00000000000E+00  0.00000000000E+00  0.99999998245E-14  0.12500000000E+03  0.12500000000E+03 0.  0.
        -11    1    3    3    0    0  0.36886615532E+02 -0.56744970387E+00 -0.12003295648E+02  0.38794632506E+02  0.51100000000E-03 0. -1.
         23    2    1    0    0    0 -0.15187804982E+02  0.22146733993E+02 -0.11949139408E+02  0.95607327796E+02  0.90977095738E+02 0.  0.
         11    1    3    3    0    0 -0.52074420515E+02  0.22714183696E+02  0.54156240292E-01  0.56812695290E+02  0.51100000000E-03 0.  1.
         22    1    1    0    0    0  0.15187804982E+02 -0.22146733993E+02  0.11949139408E+02  0.29392672204E+02  0.00000000000E+00 0.  1.
</event>
<event>
 5    1  0.8952932E-005  0.9118800E+02  0.7818608E-02  0.1130116E+00
         25   -1    0    0    0    0  0.00000000000E+00  0.00000000000E+00  0.99999998245E-14  0.12500000000E+03  0.12500000000E+03 0.  0.
        -11    1    3    3    0    0 -0.53381058052E+02  0.25318654631E+01  0.16369160759E+01  0.53466131298E+02  0.51100000000E-03 0. -1.
         23    2    1    0    0    0 -0.21582203574E+02  0.88430876249E+01  0.22961912809E+02  0.92270179504E+02  0.86270185325E+02 0.  0.
         11    1    3    3    0    0  0.31798854478E+02  0.63112221618E+01  0.21324996733E+02  0.38804048207E+02  0.51100000000E-03 0.  1.
         22    1    1    0    0    0  0.21582203574E+02 -0.88430876249E+01 -0.22961912809E+02  0.32729820496E+02  0.00000000000E+00 0. -1.
</event>
<event>
 5    1  0.8952932E-005  0.9118800E+02  0.7818608E-02  0.1130116E+00
         25   -1    0    0    0    0  0.00000000000E+00  0.00000000000E+00  0.99999998245E-14  0.12500000000E+03  0.12500000000E+03 0.  0.
        -11    1    3    3    0    0 -0.36684773576E+02 -0.88759156665E+01 -0.10850347040E+01  0.37758863752E+02  0.51100000000E-03 0.  1.
         23    2    1    0    0    0  0.20154382963E+02 -0.20939820875E+02  0.12349772413E+01  0.95910475774E+02  0.91392663510E+02 0.  0.
         11    1    3    3    0    0  0.56839156540E+02 -0.12063905209E+02  0.23200119453E+01  0.58151612022E+02  0.51100000000E-03 0. -1.
         22    1    1    0    0    0 -0.20154382963E+02  0.20939820875E+02 -0.12349772413E+01  0.29089524226E+02  0.00000000000E+00 0. -1.
</event>
<event>
 5    1  0.8952932E-005  0.9118800E+02  0.7818608E-02  0.1130116E+00
         25   -1    0    0    0    0  0.00000000000E+00  0.00000000000E+00  0.99999998245E-14  0.12500000000E+03  0.12500000000E+03 0.  0.
        -11    1    3    3    0    0 -0.45916211202E+02  0.10672664750E+02  0.31472737233E+02  0.56681014575E+02  0.51100000000E-03 0.  1.
         23    2    1    0    0    0 -0.27948317106E+02  0.39191172240E+01 -0.34868023654E+01  0.96563655305E+02  0.92281709055E+02 0.  0.
         11    1    3    3    0    0  0.17967894096E+02 -0.67535475256E+01 -0.34959539598E+02  0.39882640730E+02  0.51100000000E-03 0. -1.
         22    1    1    0    0    0  0.27948317106E+02 -0.39191172240E+01  0.34868023654E+01  0.28436344695E+02  0.00000000000E+00 0.  1.
</event>
<event>
 5    1  0.8952932E-005  0.9118800E+02  0.7818608E-02  0.1130116E+00
         25   -1    0    0    0    0  0.00000000000E+00  0.00000000000E+00  0.99999998245E-14  0.12500000000E+03  0.12500000000E+03 0.  0.
        -11    1    3    3    0    0  0.68831420816E+01 -0.33359988237E+02  0.24307813458E+02  0.41846579974E+02  0.51100000000E-03 0.  1.
         23    2    1    0    0    0  0.99130910134E+01  0.18817919597E+02  0.22347063770E+02  0.94149153487E+02  0.88951044804E+02 0.  0.
         11    1    3    3    0    0  0.30299489318E+01  0.52177907835E+02 -0.19607496880E+01  0.52302573513E+02  0.51100000000E-03 0. -1.
         22    1    1    0    0    0 -0.99130910134E+01 -0.18817919597E+02 -0.22347063770E+02  0.30850846513E+02  0.00000000000E+00 0.  1.
</event>
<event>
 5    1  0.8952932E-005  0.9118800E+02  0.7818608E-02  0.1130116E+00
         25   -1    0    0    0    0  0.00000000000E+00  0.00000000000E+00  0.99999998245E-14  0.12500000000E+03  0.12500000000E+03 0.  0.
        -11    1    3    3    0    0 -0.10496128434E+02 -0.10511960223E+02  0.37084184895E+02  0.39948802103E+02  0.51100000000E-03 0. -1.
         23    2    1    0    0    0 -0.83004747510E+01  0.30757307964E+02  0.39911649145E+01  0.92893314222E+02  0.87168391951E+02 0.  0.
         11    1    3    3    0    0  0.21956536827E+01  0.41269268187E+02 -0.33093019981E+02  0.52944512119E+02  0.51100000000E-03 0.  1.
         22    1    1    0    0    0  0.83004747510E+01 -0.30757307964E+02 -0.39911649145E+01  0.32106685778E+02  0.00000000000E+00 0. -1.
</event>
<event>
 5    1  0.8952932E-005  0.9118800E+02  0.7818608E-02  0.1130116E+00
         25   -1    0    0    0    0  0.00000000000E+00  0.00000000000E+00  0.99999998245E-14  0.12500000000E+03  0.12500000000E+03 0.  0.
        -11    1    3    3    0    0  0.83851519130E+01  0.32008640597E+02 -0.28989656597E+02  0.43991635971E+02  0.51100000000E-03 0.  1.
         23    2    1    0    0    0  0.21671938199E+02  0.10211020226E+02  0.16330195063E+02  0.96006671282E+02  0.91524137912E+02 0.  0.
         11    1    3    3    0    0  0.13286786286E+02 -0.21797620372E+02  0.45319851660E+02  0.52015035311E+02  0.51100000000E-03 0. -1.
         22    1    1    0    0    0 -0.21671938199E+02 -0.10211020226E+02 -0.16330195063E+02  0.28993328718E+02  0.00000000000E+00 0.  1.
</event>
<event>
 5    1  0.8952932E-005  0.9118800E+02  0.7818608E-02  0.1130116E+00
         25   -1    0    0    0    0  0.00000000000E+00  0.00000000000E+00  0.99999998245E-14  0.12500000000E+03  0.12500000000E+03 0.  0.
        -11    1    3    3    0    0  0.19743539413E+02 -0.14065204457E+02  0.56159938013E+02  0.61168422923E+02  0.51100000000E-03 0.  1.
         23    2    1    0    0    0  0.17055453982E+02 -0.97645639220E+01  0.22855264606E+02  0.94857034994E+02  0.89940306585E+02 0.  0.
         11    1    3    3    0    0 -0.26880854305E+01  0.43006405349E+01 -0.33304673407E+02  0.33688612071E+02  0.51100000000E-03 0. -1.
         22    1    1    0    0    0 -0.17055453982E+02  0.97645639220E+01 -0.22855264606E+02  0.30142965006E+02  0.00000000000E+00 0.  1.
</event>
<event>
 5    1  0.8952932E-005  0.9118800E+02  0.7818608E-02  0.1130116E+00
         25   -1    0    0    0    0  0.00000000000E+00  0.00000000000E+00  0.99999998245E-14  0.12500000000E+03  0.12500000000E+03 0.  0.
        -11    1    3    3    0    0  0.98253606505E+01 -0.16030888247E+02 -0.58450473782E+02  0.61400203383E+02  0.51100000000E-03 0. -1.
         23    2    1    0    0    0  0.12481512821E+02 -0.53452284354E+01 -0.25995696245E+02  0.95671927227E+02  0.91065810306E+02 0.  0.
         11    1    3    3    0    0  0.26561521700E+01  0.10685659811E+02  0.32454777537E+02  0.34271723844E+02  0.51100000000E-03 0.  1.
         22    1    1    0    0    0 -0.12481512821E+02  0.53452284354E+01  0.25995696245E+02  0.29328072773E+02  0.00000000000E+00 0. -1.
</event>
<event>
 5    1  0.8952932E-005  0.9118800E+02  0.7818608E-02  0.1130116E+00
         25   -1    0    0    0    0  0.00000000000E+00  0.00000000000E+00  0.99999998245E-14  0.12500000000E+03  0.12500000000E+03 0.  0.
        -11    1    3    3    0    0 -0.98401433826E+01 -0.33068224107E+02  0.16809325035E+02  0.38378239613E+02  0.51100000000E-03 0. -1.
         23    2    1    0    0    0  0.32265805805E+00  0.18448862669E+02  0.27420220407E+02  0.91949536627E+02  0.85804336469E+02 0.  0.
         11    1    3    3    0    0  0.10162801441E+02  0.51517086776E+02  0.10610895371E+02  0.53571297014E+02  0.51100000000E-03 0.  1.
         22    1    1    0    0    0 -0.32265805805E+00 -0.18448862669E+02 -0.27420220407E+02  0.33050463373E+02  0.00000000000E+00 0.  1.
</event>
<event>
 5    1  0.8952932E-005  0.9118800E+02  0.7818608E-02  0.1130116E+00
         25   -1    0    0    0    0  0.00000000000E+00  0.00000000000E+00  0.99999998245E-14  0.12500000000E+03  0.12500000000E+03 0.  0.
        -11    1    3    3    0    0  0.11711809846E+01 -0.33079356942E+02  0.51223402611E+01  0.33494087398E+02  0.51100000000E-03 0.  1.
         23    2    1    0    0    0 -0.17375496068E+01  0.28328446447E+02  0.93550362636E+01  0.95116281017E+02  0.90299890666E+02 0.  0.
         11    1    3    3    0    0 -0.29087305915E+01  0.61407803389E+02  0.42326960024E+01  0.61622193619E+02  0.51100000000E-03 0. -1.
         22    1    1    0    0    0  0.17375496068E+01 -0.28328446447E+02 -0.93550362636E+01  0.29883718983E+02  0.00000000000E+00 0. -1.
</event>
<event>
 5    1  0.8952932E-005  0.9118800E+02  0.7818608E-02  0.1130116E+00
         25   -1    0    0    0    0  0.00000000000E+00  0.00000000000E+00  0.99999998245E-14  0.12500000000E+03  0.12500000000E+03 0.  0.
        -11    1    3    3    0    0  0.48793506626E+02  0.29278613022E+02 -0.24064034556E+02  0.61782855459E+02  0.51100000000E-03 0.  1.
         23    2    1    0    0    0  0.24452799476E+02  0.11991822518E+02 -0.47135430395E+01  0.97360161044E+02  0.93354379978E+02 0.  0.
         11    1    3    3    0    0 -0.24340707150E+02 -0.17286790504E+02  0.19350491517E+02  0.35577305585E+02  0.51100000000E-03 0. -1.
         22    1    1    0    0    0 -0.24452799476E+02 -0.11991822518E+02  0.47135430395E+01  0.27639838956E+02  0.00000000000E+00 0.  1.
</event>
<event>
 5    1  0.8952932E-005  0.9118800E+02  0.7818608E-02  0.1130116E+00
         25   -1    0    0    0    0  0.00000000000E+00  0.00000000000E+00  0.99999998245E-14  0.12500000000E+03  0.12500000000E+03 0.  0.
        -11    1    3    3    0    0  0.36515152473E+02  0.30641929538E+02 -0.34864147010E+02  0.59057539340E+02  0.51100000000E-03 0. -1.
         23    2    1    0    0    0  0.28335536095E+02  0.82529717825E+01 -0.91935347309E+01  0.94088267116E+02  0.88865441984E+02 0.  0.
         11    1    3    3    0    0 -0.81796163786E+01 -0.22388957756E+02  0.25670612279E+02  0.35030727776E+02  0.51100000000E-03 0.  1.
         22    1    1    0    0    0 -0.28335536095E+02 -0.82529717825E+01  0.91935347309E+01  0.30911732884E+02  0.00000000000E+00 0. -1.
</event>
<event>
 5    1  0.8952932E-005  0.9118800E+02  0.7818608E-02  0.1130116E+00
         25   -1    0    0    0    0  0.00000000000E+00  0.00000000000E+00  0.99999998245E-14  0.12500000000E+03  0.12500000000E+03 0.  0.
        -11    1    3    3    0    0 -0.14593535556E+02  0.31862415323E+02  0.27876297127E+02  0.44780271683E+02  0.51100000000E-03 0.  1.
         23    2    1    0    0    0  0.15263965714E+02  0.20494285090E+02 -0.12732093913E+02  0.96449858387E+02  0.92127436721E+02 0.  0.
         11    1    3    3    0    0  0.29857501270E+02 -0.11368130232E+02 -0.40608391040E+02  0.51669586704E+02  0.51100000000E-03 0. -1.
         22    1    1    0    0    0 -0.15263965714E+02 -0.20494285090E+02  0.12732093913E+02  0.28550141613E+02  0.00000000000E+00 0. -1.
</event>
<event>
 5    1  0.8952932E-005  0.9118800E+02  0.7818608E-02  0.1130116E+00
         25   -1    0    0    0    0  0.00000000000E+00  0.00000000000E+00  0.99999998245E-14  0.12500000000E+03  0.12500000000E+03 0.  0.
        -11    1    3    3    0    0 -0.42872392422E+01 -0.39755321482E+02  0.23529833347E+02  0.46395248292E+02  0.51100000000E-03 0.  1.
         23    2    1    0    0    0  0.22293764928E+02  0.23530095394E+01  0.17510942730E+02  0.96553880337E+02  0.92268467443E+02 0.  0.
         11    1    3    3    0    0  0.26581004171E+02  0.42108331022E+02 -0.60188906168E+01  0.50158632045E+02  0.51100000000E-03 0. -1.
         22    1    1    0    0    0 -0.22293764928E+02 -0.23530095394E+01 -0.17510942730E+02  0.28446119663E+02  0.00000000000E+00 0. -1.
</event>
<event>
 5    1  0.8952932E-005  0.9118800E+02  0.7818608E-02  0.1130116E+00
         25   -1    0    0    0    0  0.00000000000E+00  0.00000000000E+00  0.99999998245E-14  0.12500000000E+03  0.12500000000E+03 0.  0.
        -11    1    3    3    0    0  0.37373025302E+01  0.97204777365E+00 -0.37082212500E+02  0.37282741197E+02  0.51100000000E-03 0.  1.
         23    2    1    0    0    0 -0.27078679866E+02 -0.11763461915E+02  0.89745905092E+01  0.94142631118E+02  0.88941878659E+02 0.  0.
         11    1    3    3    0    0 -0.30815982397E+02 -0.12735509689E+02  0.46056803009E+02  0.56859889920E+02  0.51100000000E-03 0. -1.
         22    1    1    0    0    0  0.27078679866E+02  0.11763461915E+02 -0.89745905092E+01  0.30857368882E+02  0.00000000000E+00 0. -1.
</event>
<event>
 5    1  0.8952932E-005  0.9118800E+02  0.7818608E-02  0.1130116E+00
         25   -1    0    0    0    0  0.00000000000E+00  0.00000000000E+00  0.99999998245E-14  0.12500000000E+03  0.12500000000E+03 0.  0.
        -11    1    3    3    0    0 -0.81081969062E+01 -0.40008316307E+02 -0.16725816605E+02  0.44115316752E+02  0.51100000000E-03 0. -1.
         23    2    1    0    0    0 -0.29945146567E+01 -0.99432171321E+01  0.26226078264E+02  0.96792875614E+02  0.92591678371E+02 0.  0.
         11    1    3    3    0    0  0.51136822496E+01  0.30065099175E+02  0.42951894870E+02  0.52677558862E+02  0.51100000000E-03 0.  1.
         22    1    1    0    0    0  0.29945146567E+01  0.99432171321E+01 -0.26226078264E+02  0.28207124386E+02  0.00000000000E+00 0.  1.
</event>
<event>
 5    1  0.8952932E-005  0.9118800E+02  0.7818608E-02  0.1130116E+00
         25   -1    0    0    0    0  0.00000000000E+00  0.00000000000E+00  0.99999998245E-14  0.12500000000E+03  0.12500000000E+03 0.  0.
        -11    1    3    3    0    0 -0.44984299139E+02 -0.23482726144E+02 -0.49286091907E+01  0.50983495221E+02  0.51100000000E-03 0.  1.
         23    2    1    0    0    0 -0.55444833890E+00 -0.22845599982E+02 -0.16396562370E+02  0.96873924749E+02  0.92701031209E+02 0.  0.
         11    1    3    3    0    0  0.44429850800E+02  0.63712616178E+00 -0.11467953179E+02  0.45890429527E+02  0.51100000000E-03 0. -1.
         22    1    1    0    0    0  0.55444833890E+00  0.22845599982E+02  0.16396562370E+02  0.28126075251E+02  0.00000000000E+00 0. -1.
</event>
<event>
 5    1  0.8952932E-005  0.9118800E+02  0.7818608E-02  0.1130116E+00
         25   -1    0    0    0    0  0.00000000000E+00  0.00000000000E+00  0.99999998245E-14  0.12500000000E+03  0.12500000000E+03 0.  0.
        -11    1    3    3    0    0  0.17567202114E+02 -0.53907551141E+02 -0.13151869211E+02  0.58203112667E+02  0.51100000000E-03 0.  1.
         23    2    1    0    0    0 -0.74895305001E+01 -0.26533367249E+02 -0.10806544023E+02  0.95387603299E+02  0.90674697819E+02 0.  0.
         11    1    3    3    0    0 -0.25056732614E+02  0.27374183892E+02  0.23453251880E+01  0.37184490632E+02  0.51100000000E-03 0. -1.
         22    1    1    0    0    0  0.74895305001E+01  0.26533367249E+02  0.10806544023E+02  0.29612396701E+02  0.00000000000E+00 0. -1.
</event>
<event>
 5    1  0.8952932E-005  0.9118800E+02  0.7818608E-02  0.1130116E+00
         25   -1    0    0    0    0  0.00000000000E+00  0.00000000000E+00  0.99999998245E-14  0.12500000000E+03  0.12500000000E+03 0.  0.
        -11    1    3    3    0    0 -0.17247310118E+02  0.16631902045E+01  0.35956247087E+02  0.39913501635E+02  0.51100000000E-03 0.  1.
         23    2    1    0    0    0 -0.25325879611E+02  0.10553756087E+02 -0.15998837538E+02  0.93239257751E+02  0.87663073399E+02 0.  0.
         11    1    3    3    0    0 -0.80785694929E+01  0.88905658826E+01 -0.51955084624E+02  0.53325756116E+02  0.51100000000E-03 0. -1.
         22    1    1    0    0    0  0.25325879611E+02 -0.10553756087E+02  0.15998837538E+02  0.31760742249E+02  0.00000000000E+00 0. -1.
</event>
<event>
 5    1  0.8952932E-005  0.9118800E+02  0.7818608E-02  0.1130116E+00
         25   -1    0    0    0    0  0.00000000000E+00  0.00000000000E+00  0.99999998245E-14  0.12500000000E+03  0.12500000000E+03 0.  0.
        -11    1    3    3    0    0 -0.18172919349E+02 -0.30344861307E+02 -0.14063371423E+01  0.35398352925E+02  0.51100000000E-03 0. -1.
         23    2    1    0    0    0  0.20901422383E+02  0.14888192372E+02  0.12022642918E+02  0.96661480764E+02  0.92414123331E+02 0.  0.
         11    1    3    3    0    0  0.39074341732E+02  0.45233053679E+02  0.13428980061E+02  0.61263127839E+02  0.51100000000E-03 0.  1.
         22    1    1    0    0    0 -0.20901422383E+02 -0.14888192372E+02 -0.12022642918E+02  0.28338519236E+02  0.00000000000E+00 0.  1.
</event>
<event>
 5    1  0.8952932E-005  0.9118800E+02  0.7818608E-02  0.1130116E+00
         25   -1    0    0    0    0  0.00000000000E+00  0.00000000000E+00  0.99999998245E-14  0.12500000000E+03  0.12500000000E+03 0.  0.
        -11    1    3    3    0    0 -0.21058398215E+02  0.74524582873E+01  0.44835919613E+02  0.50092464081E+02  0.51100000000E-03 0. -1.
         23    2    1    0    0    0 -0.22320117307E+01 -0.23593575740E+02  0.17791465959E+02  0.95365983169E+02  0.90644888396E+02 0.  0.
         11    1    3    3    0    0  0.18826386484E+02 -0.31046034027E+02 -0.27044453654E+02  0.45273519088E+02  0.51100000000E-03 0.  1.
         22    1    1    0    0    0  0.22320117307E+01  0.23593575740E+02 -0.17791465959E+02  0.29634016831E+02  0.00000000000E+00 0. -1.
</event>
<event>
 5    1  0.8952932E-005  0.9118800E+02  0.7818608E-02  0.1130116E+00
         25   -1    0    0    0    0  0.00000000000E+00  0.00000000000E+00  0.99999998245E-14  0.12500000000E+03  0.12500000000E+03 0.  0.
        -11    1    3    3    0    0  0.11001851035E+02  0.19146352663E+02  0.27134646075E+02  0.34984461756E+02  0.51100000000E-03 0. -1.
         23    2    1    0    0    0  0.63075842398E+01 -0.11560409968E+02 -0.25613260264E+02  0.96199517384E+02  0.91787141506E+02 0.  0.
         11    1    3    3    0    0 -0.46942667951E+01 -0.30706762631E+02 -0.52747906339E+02  0.61215055627E+02  0.51100000000E-03 0.  1.
         22    1    1    0    0    0 -0.63075842398E+01  0.11560409968E+02  0.25613260264E+02  0.28800482616E+02  0.00000000000E+00 0.  1.
</event>
<event>
 5    1  0.8952932E-005  0.9118800E+02  0.7818608E-02  0.1130116E+00
         25   -1    0    0    0    0  0.00000000000E+00  0.00000000000E+00  0.99999998245E-14  0.12500000000E+03  0.12500000000E+03 0.  0.
        -11    1    3    3    0    0 -0.31376666905E+01 -0.36045848366E+02 -0.28673638262E+01  0.36295590810E+02  0.51100000000E-03 0.  1.
         23    2    1    0    0    0  0.25193472146E+02  0.15684052315E+02 -0.71705065943E+00  0.95314739391E+02  0.90574195264E+02 0.  0.
         11    1    3    3    0    0  0.28331138837E+02  0.51729900681E+02  0.21503131667E+01  0.59019148581E+02  0.51100000000E-03 0. -1.
         22    1    1    0    0    0 -0.25193472146E+02 -0.15684052315E+02  0.71705065943E+00  0.29685260609E+02  0.00000000000E+00 0. -1.
</event>
<event>
 5    1  0.8952932E-005  0.9118800E+02  0.7818608E-02  0.1130116E+00
         25   -1    0    0    0    0  0.00000000000E+00  0.00000000000E+00  0.99999998245E-14  0.12500000000E+03  0.12500000000E+03 0.  0.
        -11    1    3    3    0    0  0.90624231199E+01  0.56769483427E+02 -0.24521788627E+02  0.62499759032E+02  0.51100000000E-03 0.  1.
         23    2    1    0    0    0  0.44555889337E+01  0.27782317821E+02 -0.12133613991E+02  0.94357969312E+02  0.89244004437E+02 0.  0.
         11    1    3    3    0    0 -0.46068341863E+01 -0.28987165606E+02  0.12388174636E+02  0.31858210279E+02  0.51100000000E-03 0. -1.
         22    1    1    0    0    0 -0.44555889337E+01 -0.27782317821E+02  0.12133613991E+02  0.30642030688E+02  0.00000000000E+00 0.  1.
</event>
<event>
 5    1  0.8952932E-005  0.9118800E+02  0.7818608E-02  0.1130116E+00
         25   -1    0    0    0    0  0.00000000000E+00  0.00000000000E+00  0.99999998245E-14  0.12500000000E+03  0.12500000000E+03 0.  0.
        -11    1    3    3    0    0  0.47307057548E+01 -0.37007633857E+02 -0.32296957212E+01  0.37448304038E+02  0.51100000000E-03 0. -1.
         23    2    1    0    0    0  0.25768831467E+02 -0.20383873187E+01 -0.29340829431E+02  0.85896650147E+02  0.76479817840E+02 0.  0.
         11    1    3    3    0    0  0.21038125712E+02  0.34969246538E+02 -0.26111133709E+02  0.48448346110E+02  0.51100000000E-03 0.  1.
         22    1    1    0    0    0 -0.25768831467E+02  0.20383873187E+01  0.29340829431E+02  0.39103349853E+02  0.00000000000E+00 0.  1.
</event>
<event>
 5    1  0.8952932E-005  0.9118800E+02  0.7818608E-02  0.1130116E+00
         25   -1    0    0    0    0  0.00000000000E+00  0.00000000000E+00  0.99999998245E-14  0.12500000000E+03  0.12500000000E+03 0.  0.
        -11    1    3    3    0    0  0.28627241374E+02  0.91623475104E+01 -0.22159350202E+02  0.37343063107E+02  0.51100000000E-03 0.  1.
         23    2    1    0    0    0  0.22838306385E+01 -0.21187138482E+02  0.20132481176E+02  0.95684005769E+02  0.91082388211E+02 0.  0.
         11    1    3    3    0    0 -0.26343410735E+02 -0.30349485992E+02  0.42291831378E+02  0.58340942662E+02  0.51100000000E-03 0. -1.
         22    1    1    0    0    0 -0.22838306385E+01  0.21187138482E+02 -0.20132481176E+02  0.29315994231E+02  0.00000000000E+00 0. -1.
</event>
<event>
 5    1  0.8952932E-005  0.9118800E+02  0.7818608E-02  0.1130116E+00
         25   -1    0    0    0    0  0.00000000000E+00  0.00000000000E+00  0.99999998245E-14  0.12500000000E+03  0.12500000000E+03 0.  0.
        -11    1    3    3    0    0 -0.15524940267E+00 -0.31582348245E+02  0.24941969785E+02  0.40243889972E+02  0.51100000000E-03 0.  1.
         23    2    1    0    0    0  0.31845809346E+02 -0.61786178822E+00 -0.33056301853E+01  0.92977125098E+02  0.87288494514E+02 0.  0.
         11    1    3    3    0    0  0.32001058748E+02  0.30964486457E+02 -0.28247599970E+02  0.52733235126E+02  0.51100000000E-03 0. -1.
         22    1    1    0    0    0 -0.31845809346E+02  0.61786178822E+00  0.33056301853E+01  0.32022874902E+02  0.00000000000E+00 0. -1.
</event>
<event>
 5    1  0.8952932E-005  0.9118800E+02  0.7818608E-02  0.1130116E+00
         25   -1    0    0    0    0  0.00000000000E+00  0.00000000000E+00  0.99999998245E-14  0.12500000000E+03  0.12500000000E+03 0.  0.
        -11    1    3    3    0    0 -0.19245754671E+02 -0.12097573076E+02 -0.33876076270E+02  0.40796309771E+02  0.51100000000E-03 0.  1.
         23    2    1    0    0    0 -0.23057923727E+02  0.36249917226E+01  0.18247374041E+02  0.95372730956E+02  0.90654193168E+02 0.  0.
         11    1    3    3    0    0 -0.38121690561E+01  0.15722564799E+02  0.52123450311E+02  0.54576421185E+02  0.51100000000E-03 0. -1.
         22    1    1    0    0    0  0.23057923727E+02 -0.36249917226E+01 -0.18247374041E+02  0.29627269044E+02  0.00000000000E+00 0. -1.
</event>
<event>
 5    1  0.8952932E-005  0.9118800E+02  0.7818608E-02  0.1130116E+00
         25   -1    0    0    0    0  0.00000000000E+00  0.00000000000E+00  0.99999998245E-14  0.12500000000E+03  0.12500000000E+03 0.  0.
        -11    1    3    3    0    0  0.15407803332E+02  0.13966872954E+02 -0.33857775128E+02  0.39734404243E+02  0.51100000000E-03 0.  1.
         23    2    1    0    0    0 -0.15023284312E+02  0.21479592649E+02  0.12710290969E+02  0.95868857413E+02  0.91335723313E+02 0.  0.
         11    1    3    3    0    0 -0.30431087644E+02  0.75127196952E+01  0.46568066097E+02  0.56134453170E+02  0.51100000000E-03 0. -1.
         22    1    1    0    0    0  0.15023284312E+02 -0.21479592649E+02 -0.12710290969E+02  0.29131142587E+02  0.00000000000E+00 0. -1.
</event>
<event>
 5    1  0.8952932E-005  0.9118800E+02  0.7818608E-02  0.1130116E+00
         25   -1    0    0    0    0  0.00000000000E+00  0.00000000000E+00  0.99999998245E-14  0.12500000000E+03  0.12500000000E+03 0.  0.
        -11    1    3    3    0    0  0.39640811860E+02 -0.13729027139E+02 -0.36871397250E+02  0.55851410783E+02  0.51100000000E-03 0.  1.
         23    2    1    0    0    0  0.16433534265E+02  0.14098845153E+02 -0.18712865607E+02  0.96381652348E+02  0.92034847134E+02 0.  0.
         11    1    3    3    0    0 -0.23207277594E+02  0.27827872292E+02  0.18158531642E+02  0.40530241565E+02  0.51100000000E-03 0. -1.
         22    1    1    0    0    0 -0.16433534265E+02 -0.14098845153E+02  0.18712865607E+02  0.28618347652E+02  0.00000000000E+00 0.  1.
</event>
<event>
 5    1  0.8952932E-005  0.9118800E+02  0.7818608E-02  0.1130116E+00
         25   -1    0    0    0    0  0.00000000000E+00  0.00000000000E+00  0.99999998245E-14  0.12500000000E+03  0.12500000000E+03 0.  0.
        -11    1    3    3    0    0 -0.11378143032E+02  0.45072699644E+02 -0.32933709595E+02  0.56970515357E+02  0.51100000000E-03 0.  1.
         23    2    1    0    0    0 -0.41969069451E+01  0.72046763275E+01 -0.27948212548E+02  0.95834541431E+02  0.91288747158E+02 0.  0.
         11    1    3    3    0    0  0.71812360865E+01 -0.37868023317E+02  0.49854970464E+01  0.38864026074E+02  0.51100000000E-03 0. -1.
         22    1    1    0    0    0  0.41969069451E+01 -0.72046763275E+01  0.27948212548E+02  0.29165458569E+02  0.00000000000E+00 0.  1.
</event>
<event>
 5    1  0.8952932E-005  0.9118800E+02  0.7818608E-02  0.1130116E+00
         25   -1    0    0    0    0  0.00000000000E+00  0.00000000000E+00  0.99999998245E-14  0.12500000000E+03  0.12500000000E+03 0.  0.
        -11    1    3    3    0    0  0.98886170381E+01  0.39823316328E+02 -0.19836461786E+02  0.45575941973E+02  0.51100000000E-03 0.  1.
         23    2    1    0    0    0  0.23269541405E+02  0.46621646420E+01  0.15062468183E+02  0.96891544259E+02  0.92724786680E+02 0.  0.
         11    1    3    3    0    0  0.13380924367E+02 -0.35161151686E+02  0.34898929969E+02  0.51315602286E+02  0.51100000000E-03 0. -1.
         22    1    1    0    0    0 -0.23269541405E+02 -0.46621646420E+01 -0.15062468183E+02  0.28108455741E+02  0.00000000000E+00 0. -1.
</event>
<event>
 5    1  0.8952932E-005  0.9118800E+02  0.7818608E-02  0.1130116E+00
         25   -1    0    0    0    0  0.00000000000E+00  0.00000000000E+00  0.99999998245E-14  0.12500000000E+03  0.12500000000E+03 0.  0.
        -11    1    3    3    0    0  0.25543209645E+02  0.45727182370E+02  0.14564197999E+02  0.54364939346E+02  0.51100000000E-03 0.  1.
         23    2    1    0    0    0 -0.67188574899E+01  0.31609768301E+02 -0.53140491531E+00  0.92679683028E+02  0.86861503308E+02 0.  0.
         11    1    3    3    0    0 -0.32262067135E+02 -0.14117414069E+02 -0.15095602914E+02  0.38314743682E+02  0.51100000000E-03 0. -1.
         22    1    1    0    0    0  0.67188574899E+01 -0.31609768301E+02  0.53140491531E+00  0.32320316972E+02  0.00000000000E+00 0.  1.
</event>
<event>
 5    1  0.8952932E-005  0.9118800E+02  0.7818608E-02  0.1130116E+00
         25   -1    0    0    0    0  0.00000000000E+00  0.00000000000E+00  0.99999998245E-14  0.12500000000E+03  0.12500000000E+03 0.  0.
        -11    1    3    3    0    0  0.29472591726E+02 -0.28887952972E+02  0.32646186856E+01  0.41398130699E+02  0.51100000000E-03 0.  1.
         23    2    1    0    0    0  0.15394928398E+02  0.18578051272E+02 -0.17610804373E+02  0.95128805847E+02  0.90317226827E+02 0.  0.
         11    1    3    3    0    0 -0.14077663328E+02  0.47466004244E+02 -0.20875423059E+02  0.53730675148E+02  0.51100000000E-03 0. -1.
         22    1    1    0    0    0 -0.15394928398E+02 -0.18578051272E+02  0.17610804373E+02  0.29871194153E+02  0.00000000000E+00 0. -1.
</event>
<event>
 5    1  0.8952932E-005  0.9118800E+02  0.7818608E-02  0.1130116E+00
         25   -1    0    0    0    0  0.00000000000E+00  0.00000000000E+00  0.99999998245E-14  0.12500000000E+03  0.12500000000E+03 0.  0.
        -11    1    3    3    0    0  0.15543635261E+02  0.57485650240E+02 -0.10890710227E+01  0.59559975290E+02  0.51100000000E-03 0.  1.
         23    2    1    0    0    0  0.13717500321E+02  0.21262840641E+02 -0.11372003061E+02  0.97258322675E+02  0.93217920320E+02 0.  0.
         11    1    3    3    0    0 -0.18261349402E+01 -0.36222809598E+02 -0.10282932038E+02  0.37698347385E+02  0.51100000000E-03 0. -1.
         22    1    1    0    0    0 -0.13717500321E+02 -0.21262840641E+02  0.11372003061E+02  0.27741677325E+02  0.00000000000E+00 0.  1.
</event>
<event>
 5    1  0.8952932E-005  0.9118800E+02  0.7818608E-02  0.1130116E+00
         25   -1    0    0    0    0  0.00000000000E+00  0.00000000000E+00  0.99999998245E-14  0.12500000000E+03  0.12500000000E+03 0.  0.
        -11    1    3    3    0    0 -0.48446881610E+02 -0.26657257905E+02 -0.93944662884E+01  0.56088909187E+02  0.51100000000E-03 0.  1.
         23    2    1    0    0    0 -0.33447900417E+02 -0.42319023606E+00  0.75126668080E+01  0.90716165692E+02  0.83988340994E+02 0.  0.
         11    1    3    3    0    0  0.14998981193E+02  0.26234067669E+02  0.16907133096E+02  0.34627256505E+02  0.51100000000E-03 0. -1.
         22    1    1    0    0    0  0.33447900417E+02  0.42319023606E+00 -0.75126668080E+01  0.34283834308E+02  0.00000000000E+00 0.  1.
</event>
<event>
 5    1  0.8952932E-005  0.9118800E+02  0.7818608E-02  0.1130116E+00
         25   -1    0    0    0    0  0.00000000000E+00  0.00000000000E+00  0.99999998245E-14  0.12500000000E+03  0.12500000000E+03 0.  0.
        -11    1    3    3    0    0  0.43499133647E+02  0.28443692797E+02  0.20773474030E+02  0.55971023856E+02  0.51100000000E-03 0.  1.
         23    2    1    0    0    0  0.14730543177E+02  0.26095212629E+02 -0.49426014562E+01  0.94629317861E+02  0.89623264085E+02 0.  0.
         11    1    3    3    0    0 -0.28768590470E+02 -0.23484801684E+01 -0.25716075486E+02  0.38658294005E+02  0.51100000000E-03 0. -1.
         22    1    1    0    0    0 -0.14730543177E+02 -0.26095212629E+02  0.49426014562E+01  0.30370682139E+02  0.00000000000E+00 0.  1.
</event>
<event>
 5    1  0.8952932E-005  0.9118800E+02  0.7818608E-02  0.1130116E+00
         25   -1    0    0    0    0  0.00000000000E+00  0.00000000000E+00  0.99999998245E-14  0.12500000000E+03  0.12500000000E+03 0.  0.
        -11    1    3    3    0    0 -0.51575779664E+01  0.60636600794E+02 -0.17035610770E+01  0.60879389673E+02  0.51100000000E-03 0.  1.
         23    2    1    0    0    0 -0.11453284673E+02  0.26356799985E+02  0.32352644346E+01  0.96080705901E+02  0.91625195635E+02 0.  0.
         11    1    3    3    0    0 -0.62957067064E+01 -0.34279800809E+02  0.49388255116E+01  0.35201316228E+02  0.51100000000E-03 0. -1.
         22    1    1    0    0    0  0.11453284673E+02 -0.26356799985E+02 -0.32352644346E+01  0.28919294099E+02  0.00000000000E+00 0.  1.
</event>
<event>
 5    1  0.8952932E-005  0.9118800E+02  0.7818608E-02  0.1130116E+00
         25   -1    0    0    0    0  0.00000000000E+00  0.00000000000E+00  0.99999998245E-14  0.12500000000E+03  0.12500000000E+03 0.  0.
        -11    1    3    3    0    0 -0.29851830142E+01 -0.42515517969E+02 -0.87437338507E+01  0.43507855242E+02  0.51100000000E-03 0.  1.
         23    2    1    0    0    0 -0.10036936218E+02 -0.59112115761E+01  0.27273849164E+02  0.95342870012E+02  0.90613009568E+02 0.  0.
         11    1    3    3    0    0 -0.70517532039E+01  0.36604306393E+02  0.36017583014E+02  0.51835014770E+02  0.51100000000E-03 0. -1.
         22    1    1    0    0    0  0.10036936218E+02  0.59112115761E+01 -0.27273849164E+02  0.29657129988E+02  0.00000000000E+00 0. -1.
</event>
<event>
 5    1  0.8952932E-005  0.9118800E+02  0.7818608E-02  0.1130116E+00
         25   -1    0    0    0    0  0.00000000000E+00  0.00000000000E+00  0.99999998245E-14  0.12500000000E+03  0.12500000000E+03 0.  0.
        -11    1    3    3    0    0 -0.13889667564E+02 -0.27241745641E+02  0.24119752346E+02  0.38946091256E+02  0.51100000000E-03 0. -1.
         23    2    1    0    0    0  0.95828565102E+01  0.23528257528E+02  0.14644472657E+02  0.95676449386E+02  0.91072017363E+02 0.  0.
         11    1    3    3    0    0  0.23472524075E+02  0.50770003169E+02 -0.94752796886E+01  0.56730358131E+02  0.51100000000E-03 0.  1.
         22    1    1    0    0    0 -0.95828565102E+01 -0.23528257528E+02 -0.14644472657E+02  0.29323550614E+02  0.00000000000E+00 0. -1.
</event>
<event>
 5    1  0.8952932E-005  0.9118800E+02  0.7818608E-02  0.1130116E+00
         25   -1    0    0    0    0  0.00000000000E+00  0.00000000000E+00  0.99999998245E-14  0.12500000000E+03  0.12500000000E+03 0.  0.
        -11    1    3    3    0    0  0.37008039693E+02 -0.38724606388E+02 -0.45108079060E+01  0.53754418703E+02  0.51100000000E-03 0.  1.
         23    2    1    0    0    0  0.24700842730E+02 -0.25221421491E+02  0.20077636176E+02  0.84387647101E+02  0.73972371702E+02 0.  0.
         11    1    3    3    0    0 -0.12307196962E+02  0.13503184898E+02  0.24588444082E+02  0.30633228398E+02  0.51100000000E-03 0. -1.
         22    1    1    0    0    0 -0.24700842730E+02  0.25221421491E+02 -0.20077636176E+02  0.40612352899E+02  0.00000000000E+00 0.  1.
</event>
<event>
 5    1  0.8952932E-005  0.9118800E+02  0.7818608E-02  0.1130116E+00
         25   -1    0    0    0    0  0.00000000000E+00  0.00000000000E+00  0.99999998245E-14  0.12500000000E+03  0.12500000000E+03 0.  0.
        -11    1    3    3    0    0 -0.45294293049E+02 -0.11858965777E+02  0.16794132348E+02  0.49741842886E+02  0.51100000000E-03 0. -1.
         23    2    1    0    0    0 -0.66224384432E+01  0.83531645264E+01  0.28207784742E+02  0.94845213173E+02  0.89923874991E+02 0.  0.
         11    1    3    3    0    0  0.38671854606E+02  0.20212130304E+02  0.11413652393E+02  0.45103370287E+02  0.51100000000E-03 0.  1.
         22    1    1    0    0    0  0.66224384432E+01 -0.83531645264E+01 -0.28207784742E+02  0.30154786827E+02  0.00000000000E+00 0. -1.
</event>
<event>
 5    1  0.8952932E-005  0.9118800E+02  0.7818608E-02  0.1130116E+00
         25   -1    0    0    0    0  0.00000000000E+00  0.00000000000E+00  0.99999998245E-14  0.12500000000E+03  0.12500000000E+03 0.  0.
        -11    1    3    3    0    0 -0.35909652459E+02  0.38918667903E+02 -0.17357848769E+02  0.55726661170E+02  0.51100000000E-03 0.  1.
         23    2    1    0    0    0 -0.23792285629E+02  0.44088798875E+01 -0.21621950779E+02  0.92549732932E+02  0.86674293957E+02 0.  0.
         11    1    3    3    0    0  0.12117366830E+02 -0.34509788015E+02 -0.42641020103E+01  0.36823071762E+02  0.51100000000E-03 0. -1.
         22    1    1    0    0    0  0.23792285629E+02 -0.44088798875E+01  0.21621950779E+02  0.32450267068E+02  0.00000000000E+00 0.  1.
</event>
<event>
 5    1  0.8952932E-005  0.9118800E+02  0.7818608E-02  0.1130116E+00
         25   -1    0    0    0    0  0.00000000000E+00  0.00000000000E+00  0.99999998245E-14  0.12500000000E+03  0.12500000000E+03 0.  0.
        -11    1    3    3    0    0 -0.15528289500E+02  0.34974548972E+02 -0.21325509169E+02  0.43807809717E+02  0.51100000000E-03 0. -1.
         23    2    1    0    0    0  0.32912072536E+01 -0.12518204127E+02 -0.26851717917E+02  0.95191406694E+02  0.90403825547E+02 0.  0.
         11    1    3    3    0    0  0.18819496754E+02 -0.47492753099E+02 -0.55262087483E+01  0.51383596978E+02  0.51100000000E-03 0.  1.
         22    1    1    0    0    0 -0.32912072536E+01  0.12518204127E+02  0.26851717917E+02  0.29808593306E+02  0.00000000000E+00 0.  1.
</event>
<event>
 5    1  0.8952932E-005  0.9118800E+02  0.7818608E-02  0.1130116E+00
         25   -1    0    0    0    0  0.00000000000E+00  0.00000000000E+00  0.99999998245E-14  0.12500000000E+03  0.12500000000E+03 0.  0.
        -11    1    3    3    0    0 -0.19477527722E+02  0.11393721563E+02  0.38868759862E+02  0.44944092723E+02  0.51100000000E-03 0. -1.
         23    2    1    0    0    0  0.12808003858E+02  0.25258138085E+02  0.91476738044E+00  0.96665298630E+02  0.92419287260E+02 0.  0.
         11    1    3    3    0    0  0.32285531580E+02  0.13864416522E+02 -0.37953992482E+02  0.51721205907E+02  0.51100000000E-03 0.  1.
         22    1    1    0    0    0 -0.12808003858E+02 -0.25258138085E+02 -0.91476738044E+00  0.28334701370E+02  0.00000000000E+00 0.  1.
</event>
<event>
 5    1  0.8952932E-005  0.9118800E+02  0.7818608E-02  0.1130116E+00
         25   -1    0    0    0    0  0.00000000000E+00  0.00000000000E+00  0.99999998245E-14  0.12500000000E+03  0.12500000000E+03 0.  0.
        -11    1    3    3    0    0 -0.14701567965E+02 -0.57326571962E+02  0.13135812569E+02  0.60621955805E+02  0.51100000000E-03 0. -1.
         23    2    1    0    0    0  0.37034325361E+01 -0.26158417643E+02  0.91668952914E+01  0.97035554799E+02  0.92918720932E+02 0.  0.
         11    1    3    3    0    0  0.18405000501E+02  0.31168154319E+02 -0.39689172773E+01  0.36413598994E+02  0.51100000000E-03 0.  1.
         22    1    1    0    0    0 -0.37034325361E+01  0.26158417643E+02 -0.91668952914E+01  0.27964445201E+02  0.00000000000E+00 0. -1.
</event>
<event>
 5    1  0.8952932E-005  0.9118800E+02  0.7818608E-02  0.1130116E+00
         25   -1    0    0    0    0  0.00000000000E+00  0.00000000000E+00  0.99999998245E-14  0.12500000000E+03  0.12500000000E+03 0.  0.
        -11    1    3    3    0    0  0.17104557288E+02 -0.52305275623E+02 -0.17805344105E+02  0.57839761557E+02  0.51100000000E-03 0. -1.
         23    2    1    0    0    0  0.10466142057E+02 -0.27895802230E+02  0.81784411736E+01  0.94103352745E+02  0.88886659214E+02 0.  0.
         11    1    3    3    0    0 -0.66384152307E+01  0.24409473394E+02  0.25983785279E+02  0.36263591187E+02  0.51100000000E-03 0.  1.
         22    1    1    0    0    0 -0.10466142057E+02  0.27895802230E+02 -0.81784411736E+01  0.30896647255E+02  0.00000000000E+00 0. -1.
</event>
<event>
 5    1  0.8952932E-005  0.9118800E+02  0.7818608E-02  0.1130116E+00
         25   -1    0    0    0    0  0.00000000000E+00  0.00000000000E+00  0.99999998245E-14  0.12500000000E+03  0.12500000000E+03 0.  0.
        -11    1    3    3    0    0 -0.77606457397E+01 -0.40558028204E+02 -0.83473160231E+01  0.42129074986E+02  0.51100000000E-03 0.  1.
         23    2    1    0    0    0  0.51176989197E+01  0.11652904422E+02 -0.23739267596E+02  0.98064264449E+02  0.94292449922E+02 0.  0.
         11    1    3    3    0    0  0.12878344659E+02  0.52210932626E+02 -0.15391951573E+02  0.55935189463E+02  0.51100000000E-03 0. -1.
         22    1    1    0    0    0 -0.51176989197E+01 -0.11652904422E+02  0.23739267596E+02  0.26935735551E+02  0.00000000000E+00 0.  1.
</event>
<event>
 5    1  0.8952932E-005  0.9118800E+02  0.7818608E-02  0.1130116E+00
         25   -1    0    0    0    0  0.00000000000E+00  0.00000000000E+00  0.99999998245E-14  0.12500000000E+03  0.12500000000E+03 0.  0.
        -11    1    3    3    0    0  0.29526018226E+02 -0.39411958569E+01 -0.44682929707E+02  0.53701796846E+02  0.51100000000E-03 0.  1.
         23    2    1    0    0    0 -0.10111543756E+02  0.27440717817E+01 -0.23791002728E+02  0.99004133831E+02  0.95530275085E+02 0.  0.
         11    1    3    3    0    0 -0.39637561981E+02  0.66852676386E+01  0.20891926979E+02  0.45302336986E+02  0.51100000000E-03 0. -1.
         22    1    1    0    0    0  0.10111543756E+02 -0.27440717817E+01  0.23791002728E+02  0.25995866169E+02  0.00000000000E+00 0.  1.
</event>
<event>
 5    1  0.8952932E-005  0.9118800E+02  0.7818608E-02  0.1130116E+00
         25   -1    0    0    0    0  0.00000000000E+00  0.00000000000E+00  0.99999998245E-14  0.12500000000E+03  0.12500000000E+03 0.  0.
        -11    1    3    3    0    0 -0.12723481759E+01 -0.29949477735E+02  0.35487561314E+02  0.46453816794E+02  0.51100000000E-03 0. -1.
         23    2    1    0    0    0  0.25096539353E+02 -0.16994220512E+02 -0.26269113078E+01  0.94577303188E+02  0.89550688423E+02 0.  0.
         11    1    3    3    0    0  0.26368887529E+02  0.12955257224E+02 -0.38114472621E+02  0.48123486394E+02  0.51100000000E-03 0.  1.
         22    1    1    0    0    0 -0.25096539353E+02  0.16994220512E+02  0.26269113078E+01  0.30422696812E+02  0.00000000000E+00 0. -1.
</event>
<event>
 5    1  0.8952932E-005  0.9118800E+02  0.7818608E-02  0.1130116E+00
         25   -1    0    0    0    0  0.00000000000E+00  0.00000000000E+00  0.99999998245E-14  0.12500000000E+03  0.12500000000E+03 0.  0.
        -11    1    3    3    0    0  0.37863728423E+02  0.14133878151E+02  0.77918357841E+01  0.41159945904E+02  0.51100000000E-03 0. -1.
         23    2    1    0    0    0  0.16116404278E+01 -0.27428940169E+02  0.82453169281E+01  0.96313254020E+02  0.91941902879E+02 0.  0.
         11    1    3    3    0    0 -0.36252087995E+02 -0.41562818320E+02  0.45348114393E+00  0.55153308116E+02  0.51100000000E-03 0.  1.
         22    1    1    0    0    0 -0.16116404278E+01  0.27428940169E+02 -0.82453169281E+01  0.28686745980E+02  0.00000000000E+00 0. -1.
</event>
<event>
 5    1  0.8952932E-005  0.9118800E+02  0.7818608E-02  0.1130116E+00
         25   -1    0    0    0    0  0.00000000000E+00  0.00000000000E+00  0.99999998245E-14  0.12500000000E+03  0.12500000000E+03 0.  0.
        -11    1    3    3    0    0 -0.41427167006E+01 -0.13558853689E+02  0.31482179085E+02  0.34527267706E+02  0.51100000000E-03 0. -1.
         23    2    1    0    0    0 -0.13925292720E+02  0.32164018432E+02  0.18120789351E+01  0.89904110083E+02  0.82770934034E+02 0.  0.
         11    1    3    3    0    0 -0.97825760189E+01  0.45722872121E+02 -0.29670100150E+02  0.55376842377E+02  0.51100000000E-03 0.  1.
         22    1    1    0    0    0  0.13925292720E+02 -0.32164018432E+02 -0.18120789351E+01  0.35095889917E+02  0.00000000000E+00 0.  1.
</event>
<event>
 5    1  0.8952932E-005  0.9118800E+02  0.7818608E-02  0.1130116E+00
         25   -1    0    0    0    0  0.00000000000E+00  0.00000000000E+00  0.99999998245E-14  0.12500000000E+03  0.12500000000E+03 0.  0.
        -11    1    3    3    0    0  0.30951774946E+02  0.26182603195E+02 -0.17190314814E+01  0.40577039713E+02  0.51100000000E-03 0. -1.
         23    2    1    0    0    0  0.21284409702E+01 -0.58052862838E+01  0.30198513047E+02  0.94174980940E+02  0.88987331879E+02 0.  0.
         11    1    3    3    0    0 -0.28823333976E+02 -0.31987889479E+02  0.31917544528E+02  0.53597941227E+02  0.51100000000E-03 0.  1.
         22    1    1    0    0    0 -0.21284409702E+01  0.58052862838E+01 -0.30198513047E+02  0.30825019060E+02  0.00000000000E+00 0.  1.
</event>
<event>
 5    1  0.8952932E-005  0.9118800E+02  0.7818608E-02  0.1130116E+00
         25   -1    0    0    0    0  0.00000000000E+00  0.00000000000E+00  0.99999998245E-14  0.12500000000E+03  0.12500000000E+03 0.  0.
        -11    1    3    3    0    0 -0.19287176097E+02 -0.17256187027E+02 -0.28847075539E+02  0.38754676104E+02  0.51100000000E-03 0.  1.
         23    2    1    0    0    0  0.23848655086E+02  0.14067717763E+02 -0.64987181301E+01  0.96558966794E+02  0.92275358025E+02 0.  0.
         11    1    3    3    0    0  0.43135831183E+02  0.31323904790E+02  0.22348357408E+02  0.57804290691E+02  0.51100000000E-03 0. -1.
         22    1    1    0    0    0 -0.23848655086E+02 -0.14067717763E+02  0.64987181301E+01  0.28441033206E+02  0.00000000000E+00 0. -1.
</event>
<event>
 5    1  0.8952932E-005  0.9118800E+02  0.7818608E-02  0.1130116E+00
         25   -1    0    0    0    0  0.00000000000E+00  0.00000000000E+00  0.99999998245E-14  0.12500000000E+03  0.12500000000E+03 0.  0.
        -11    1    3    3    0    0 -0.19094583727E+02  0.28260185018E+02  0.27167884264E+02  0.43604301630E+02  0.51100000000E-03 0.  1.
         23    2    1    0    0    0 -0.27999827590E+02 -0.93728818269E+01 -0.63702008042E+01  0.94793697394E+02  0.89852236191E+02 0.  0.
         11    1    3    3    0    0 -0.89052438632E+01 -0.37633066845E+02 -0.33538085068E+02  0.51189395764E+02  0.51100000000E-03 0. -1.
         22    1    1    0    0    0  0.27999827590E+02  0.93728818269E+01  0.63702008042E+01  0.30206302606E+02  0.00000000000E+00 0. -1.
</event>
<event>
 5    1  0.8952932E-005  0.9118800E+02  0.7818608E-02  0.1130116E+00
         25   -1    0    0    0    0  0.00000000000E+00  0.00000000000E+00  0.99999998245E-14  0.12500000000E+03  0.12500000000E+03 0.  0.
        -11    1    3    3    0    0  0.40758546262E+02 -0.44490158977E+02  0.10626905876E+02  0.61266340416E+02  0.51100000000E-03 0. -1.
         23    2    1    0    0    0  0.18621649761E+02 -0.16075379269E+02  0.12639298415E+02  0.97342532240E+02  0.93330772310E+02 0.  0.
         11    1    3    3    0    0 -0.22136896501E+02  0.28414779708E+02  0.20123925393E+01  0.36076191824E+02  0.51100000000E-03 0.  1.
         22    1    1    0    0    0 -0.18621649761E+02  0.16075379269E+02 -0.12639298415E+02  0.27657467760E+02  0.00000000000E+00 0. -1.
</event>
<event>
 5    1  0.8952932E-005  0.9118800E+02  0.7818608E-02  0.1130116E+00
         25   -1    0    0    0    0  0.00000000000E+00  0.00000000000E+00  0.99999998245E-14  0.12500000000E+03  0.12500000000E+03 0.  0.
        -11    1    3    3    0    0 -0.61880522693E+01  0.14813567595E+02 -0.46136071838E+02  0.48849471857E+02  0.51100000000E-03 0.  1.
         23    2    1    0    0    0  0.61242698821E+01 -0.21022092871E+02 -0.22990030528E+02  0.93251353195E+02  0.87680318765E+02 0.  0.
         11    1    3    3    0    0  0.12312322151E+02 -0.35835660466E+02  0.23146041310E+02  0.44401881338E+02  0.51100000000E-03 0. -1.
         22    1    1    0    0    0 -0.61242698821E+01  0.21022092871E+02  0.22990030528E+02  0.31748646805E+02  0.00000000000E+00 0.  1.
</event>
<event>
 5    1  0.8952932E-005  0.9118800E+02  0.7818608E-02  0.1130116E+00
         25   -1    0    0    0    0  0.00000000000E+00  0.00000000000E+00  0.99999998245E-14  0.12500000000E+03  0.12500000000E+03 0.  0.
        -11    1    3    3    0    0 -0.26512116237E+02  0.12055006761E+02  0.44749028293E+01  0.29465916768E+02  0.51100000000E-03 0. -1.
         23    2    1    0    0    0  0.18835531423E+02  0.33129920914E+01  0.35203301871E+02  0.84937228963E+02  0.74895308536E+02 0.  0.
         11    1    3    3    0    0  0.45347647660E+02 -0.87420146700E+01  0.30728399041E+02  0.55471312195E+02  0.51100000000E-03 0.  1.
         22    1    1    0    0    0 -0.18835531423E+02 -0.33129920914E+01 -0.35203301871E+02  0.40062771037E+02  0.00000000000E+00 0.  1.
</event>
<event>
 5    1  0.8952932E-005  0.9118800E+02  0.7818608E-02  0.1130116E+00
         25   -1    0    0    0    0  0.00000000000E+00  0.00000000000E+00  0.99999998245E-14  0.12500000000E+03  0.12500000000E+03 0.  0.
        -11    1    3    3    0    0 -0.18604174607E+02 -0.36720694330E+02 -0.46374618690E+01  0.41425001602E+02  0.51100000000E-03 0. -1.
         23    2    1    0    0    0  0.87853053149E+01  0.51784772220E+01 -0.26916612538E+02  0.96216285050E+02  0.91809973655E+02 0.  0.
         11    1    3    3    0    0  0.27389479922E+02  0.41899171552E+02 -0.22279150669E+02  0.54791283448E+02  0.51100000000E-03 0.  1.
         22    1    1    0    0    0 -0.87853053149E+01 -0.51784772220E+01  0.26916612538E+02  0.28783714950E+02  0.00000000000E+00 0.  1.
</event>
<event>
 5    1  0.8952932E-005  0.9118800E+02  0.7818608E-02  0.1130116E+00
         25   -1    0    0    0    0  0.00000000000E+00  0.00000000000E+00  0.99999998245E-14  0.12500000000E+03  0.12500000000E+03 0.  0.
        -11    1    3    3    0    0  0.13210506035E+02  0.15945621101E+02 -0.26428049986E+02  0.33574128855E+02  0.51100000000E-03 0. -1.
         23    2    1    0    0    0 -0.14022058986E+02 -0.12151327796E+02  0.22249852733E+02  0.96028827223E+02  0.91554392608E+02 0.  0.
         11    1    3    3    0    0 -0.27232565021E+02 -0.28096948898E+02  0.48677902719E+02  0.62454698369E+02  0.51100000000E-03 0.  1.
         22    1    1    0    0    0  0.14022058986E+02  0.12151327796E+02 -0.22249852733E+02  0.28971172777E+02  0.00000000000E+00 0.  1.
</event>
<event>
 5    1  0.8952932E-005  0.9118800E+02  0.7818608E-02  0.1130116E+00
         25   -1    0    0    0    0  0.00000000000E+00  0.00000000000E+00  0.99999998245E-14  0.12500000000E+03  0.12500000000E+03 0.  0.
        -11    1    3    3    0    0 -0.50162171315E+02 -0.16051380018E+02 -0.28675607734E+02  0.59968164143E+02  0.51100000000E-03 0.  1.
         23    2    1    0    0    0 -0.18032494600E+02 -0.21116516635E+01 -0.23393802597E+02  0.95387503750E+02  0.90674560586E+02 0.  0.
         11    1    3    3    0    0  0.32129676715E+02  0.13939728355E+02  0.52818051376E+01  0.35419339606E+02  0.51100000000E-03 0. -1.
         22    1    1    0    0    0  0.18032494600E+02  0.21116516635E+01  0.23393802597E+02  0.29612496250E+02  0.00000000000E+00 0.  1.
</event>
<event>
 5    1  0.8952932E-005  0.9118800E+02  0.7818608E-02  0.1130116E+00
         25   -1    0    0    0    0  0.00000000000E+00  0.00000000000E+00  0.99999998245E-14  0.12500000000E+03  0.12500000000E+03 0.  0.
        -11    1    3    3    0    0 -0.28820907861E+02 -0.40757243246E+01 -0.24677903476E+02  0.38160911663E+02  0.51100000000E-03 0. -1.
         23    2    1    0    0    0  0.48156001590E+01  0.26838931604E+02  0.10459009819E+02  0.95795391786E+02  0.91235124522E+02 0.  0.
         11    1    3    3    0    0  0.33636508020E+02  0.30914655929E+02  0.35136913295E+02  0.57634480123E+02  0.51100000000E-03 0.  1.
         22    1    1    0    0    0 -0.48156001590E+01 -0.26838931604E+02 -0.10459009819E+02  0.29204608214E+02  0.00000000000E+00 0. -1.
</event>
<event>
 5    1  0.8952932E-005  0.9118800E+02  0.7818608E-02  0.1130116E+00
         25   -1    0    0    0    0  0.00000000000E+00  0.00000000000E+00  0.99999998245E-14  0.12500000000E+03  0.12500000000E+03 0.  0.
        -11    1    3    3    0    0 -0.26045278693E+02 -0.30053359422E+02  0.39994044808E+02  0.56401104379E+02  0.51100000000E-03 0.  1.
         23    2    1    0    0    0 -0.26691089415E+02 -0.23543426005E+01  0.12503905100E+02  0.95431354004E+02  0.90734990500E+02 0.  0.
         11    1    3    3    0    0 -0.64581072257E+00  0.27699016822E+02 -0.27490139708E+02  0.39030249626E+02  0.51100000000E-03 0. -1.
         22    1    1    0    0    0  0.26691089415E+02  0.23543426005E+01 -0.12503905100E+02  0.29568645996E+02  0.00000000000E+00 0.  1.
</event>
<event>
 5    1  0.8952932E-005  0.9118800E+02  0.7818608E-02  0.1130116E+00
         25   -1    0    0    0    0  0.00000000000E+00  0.00000000000E+00  0.99999998245E-14  0.12500000000E+03  0.12500000000E+03 0.  0.
        -11    1    3    3    0    0  0.17259945331E+02 -0.47942909646E+01 -0.39178775335E+02  0.43079779197E+02  0.51100000000E-03 0.  1.
         23    2    1    0    0    0  0.26436438585E+02 -0.16135580224E+01  0.12535157418E+02  0.95697798273E+02  0.91101314855E+02 0.  0.
         11    1    3    3    0    0  0.91764932537E+01  0.31807329422E+01  0.51713932753E+02  0.52618019076E+02  0.51100000000E-03 0. -1.
         22    1    1    0    0    0 -0.26436438585E+02  0.16135580224E+01 -0.12535157418E+02  0.29302201727E+02  0.00000000000E+00 0.  1.
</event>
<event>
 5    1  0.8952932E-005  0.9118800E+02  0.7818608E-02  0.1130116E+00
         25   -1    0    0    0    0  0.00000000000E+00  0.00000000000E+00  0.99999998245E-14  0.12500000000E+03  0.12500000000E+03 0.  0.
        -11    1    3    3    0    0 -0.30172560986E+02  0.14990528255E+02 -0.54119966324E+01  0.34123145834E+02  0.51100000000E-03 0.  1.
         23    2    1    0    0    0  0.16299714517E+02 -0.24520743422E+02 -0.50708440961E+01  0.95122566858E+02  0.90308591588E+02 0.  0.
         11    1    3    3    0    0  0.46472275503E+02 -0.39511271677E+02  0.34115253637E+00  0.60999421024E+02  0.51100000000E-03 0. -1.
         22    1    1    0    0    0 -0.16299714517E+02  0.24520743422E+02  0.50708440961E+01  0.29877433142E+02  0.00000000000E+00 0. -1.
</event>
<event>
 5    1  0.8952932E-005  0.9118800E+02  0.7818608E-02  0.1130116E+00
         25   -1    0    0    0    0  0.00000000000E+00  0.00000000000E+00  0.99999998245E-14  0.12500000000E+03  0.12500000000E+03 0.  0.
        -11    1    3    3    0    0 -0.23108874917E+02 -0.38417582229E+02 -0.18209825637E+02  0.48389342569E+02  0.51100000000E-03 0. -1.
         23    2    1    0    0    0  0.16781269626E+02 -0.26546523689E+02 -0.57905090578E+00  0.93588788145E+02  0.88160064861E+02 0.  0.
         11    1    3    3    0    0  0.39890144543E+02  0.11871058540E+02  0.17630774731E+02  0.45199445577E+02  0.51100000000E-03 0.  1.
         22    1    1    0    0    0 -0.16781269626E+02  0.26546523689E+02  0.57905090578E+00  0.31411211855E+02  0.00000000000E+00 0.  1.
</event>
<event>
 5    1  0.8952932E-005  0.9118800E+02  0.7818608E-02  0.1130116E+00
         25   -1    0    0    0    0  0.00000000000E+00  0.00000000000E+00  0.99999998245E-14  0.12500000000E+03  0.12500000000E+03 0.  0.
        -11    1    3    3    0    0 -0.45906638111E+02  0.10254804615E+02 -0.31629802484E+02  0.56683550046E+02  0.51100000000E-03 0.  1.
         23    2    1    0    0    0 -0.87257622394E+01  0.96142288876E+01 -0.28110306741E+02  0.94036123162E+02  0.88792064907E+02 0.  0.
         11    1    3    3    0    0  0.37180875871E+02 -0.64057572777E+00  0.35194957429E+01  0.37352573116E+02  0.51100000000E-03 0. -1.
         22    1    1    0    0    0  0.87257622394E+01 -0.96142288876E+01  0.28110306741E+02  0.30963876838E+02  0.00000000000E+00 0.  1.
</event>
<event>
 5    1  0.8952932E-005  0.9118800E+02  0.7818608E-02  0.1130116E+00
         25   -1    0    0    0    0  0.00000000000E+00  0.00000000000E+00  0.99999998245E-14  0.12500000000E+03  0.12500000000E+03 0.  0.
        -11    1    3    3    0    0  0.60263367942E+02 -0.39216473455E+01  0.14992397662E+02  0.62223989116E+02  0.51100000000E-03 0. -1.
         23    2    1    0    0    0  0.28258117747E+02 -0.57883110652E+01  0.57705104551E+01  0.95583600586E+02  0.90944489368E+02 0.  0.
         11    1    3    3    0    0 -0.32005250195E+02 -0.18666637197E+01 -0.92218872071E+01  0.33359611469E+02  0.51100000000E-03 0.  1.
         22    1    1    0    0    0 -0.28258117747E+02  0.57883110652E+01 -0.57705104551E+01  0.29416399414E+02  0.00000000000E+00 0. -1.
</event>
<event>
 5    1  0.8952932E-005  0.9118800E+02  0.7818608E-02  0.1130116E+00
         25   -1    0    0    0    0  0.00000000000E+00  0.00000000000E+00  0.99999998245E-14  0.12500000000E+03  0.12500000000E+03 0.  0.
        -11    1    3    3    0    0 -0.32997509609E+02 -0.16244042924E+02 -0.12853113051E+02  0.38960327081E+02  0.51100000000E-03 0. -1.
         23    2    1    0    0    0  0.87503836714E+01  0.20883690289E+02 -0.19362456447E+02  0.95207342278E+02  0.90425856753E+02 0.  0.
         11    1    3    3    0    0  0.41747893280E+02  0.37127733213E+02 -0.65093433959E+01  0.56247015197E+02  0.51100000000E-03 0.  1.
         22    1    1    0    0    0 -0.87503836714E+01 -0.20883690289E+02  0.19362456447E+02  0.29792657722E+02  0.00000000000E+00 0.  1.
</event>
<event>
 5    1  0.8952932E-005  0.9118800E+02  0.7818608E-02  0.1130116E+00
         25   -1    0    0    0    0  0.00000000000E+00  0.00000000000E+00  0.99999998245E-14  0.12500000000E+03  0.12500000000E+03 0.  0.
        -11    1    3    3    0    0  0.10588900186E+02  0.30713738404E+02 -0.31669339102E+02  0.45369654764E+02  0.51100000000E-03 0.  1.
         23    2    1    0    0    0 -0.20933551521E+02 -0.37869579729E+01 -0.24339817145E+02  0.92673829045E+02  0.86853078594E+02 0.  0.
         11    1    3    3    0    0 -0.31522451706E+02 -0.34500696377E+02  0.73295219578E+01  0.47304174282E+02  0.51100000000E-03 0. -1.
         22    1    1    0    0    0  0.20933551521E+02  0.37869579729E+01  0.24339817145E+02  0.32326170955E+02  0.00000000000E+00 0. -1.
</event>
<event>
 5    1  0.8952932E-005  0.9118800E+02  0.7818608E-02  0.1130116E+00
         25   -1    0    0    0    0  0.00000000000E+00  0.00000000000E+00  0.99999998245E-14  0.12500000000E+03  0.12500000000E+03 0.  0.
        -11    1    3    3    0    0 -0.34991769937E+02  0.13548116008E+01 -0.43983806715E+02  0.56221301401E+02  0.51100000000E-03 0. -1.
         23    2    1    0    0    0 -0.22587083424E+02  0.15238487702E+02 -0.82213138143E+01  0.96539890269E+02  0.92249512559E+02 0.  0.
         11    1    3    3    0    0  0.12404686513E+02  0.13883676101E+02  0.35762492901E+02  0.40318588868E+02  0.51100000000E-03 0.  1.
         22    1    1    0    0    0  0.22587083424E+02 -0.15238487702E+02  0.82213138143E+01  0.28460109731E+02  0.00000000000E+00 0. -1.
</event>
<event>
 5    1  0.8952932E-005  0.9118800E+02  0.7818608E-02  0.1130116E+00
         25   -1    0    0    0    0  0.00000000000E+00  0.00000000000E+00  0.99999998245E-14  0.12500000000E+03  0.12500000000E+03 0.  0.
        -11    1    3    3    0    0 -0.14627094400E+02  0.46191872578E+02 -0.45451444164E+01  0.48665175648E+02  0.51100000000E-03 0.  1.
         23    2    1    0    0    0 -0.28092510774E+02  0.11783930664E+00 -0.36152224420E+01  0.96675578012E+02  0.92433189401E+02 0.  0.
         11    1    3    3    0    0 -0.13465416374E+02 -0.46074033271E+02  0.92992197444E+00  0.48010402364E+02  0.51100000000E-03 0. -1.
         22    1    1    0    0    0  0.28092510774E+02 -0.11783930664E+00  0.36152224420E+01  0.28324421988E+02  0.00000000000E+00 0.  1.
</event>
<event>
 5    1  0.8952932E-005  0.9118800E+02  0.7818608E-02  0.1130116E+00
         25   -1    0    0    0    0  0.00000000000E+00  0.00000000000E+00  0.99999998245E-14  0.12500000000E+03  0.12500000000E+03 0.  0.
        -11    1    3    3    0    0 -0.12071035625E+02 -0.20540625130E+02 -0.43485308943E+02  0.49584264398E+02  0.51100000000E-03 0. -1.
         23    2    1    0    0    0 -0.21924933287E+00 -0.29466702900E+02  0.14585042439E-02  0.95532481404E+02  0.90874200690E+02 0.  0.
         11    1    3    3    0    0  0.11851786292E+02 -0.89260777706E+01  0.43486767448E+02  0.45948217005E+02  0.51100000000E-03 0.  1.
         22    1    1    0    0    0  0.21924933287E+00  0.29466702900E+02 -0.14585042439E-02  0.29467518596E+02  0.00000000000E+00 0. -1.
</event>
<event>
 5    1  0.8952932E-005  0.9118800E+02  0.7818608E-02  0.1130116E+00
         25   -1    0    0    0    0  0.00000000000E+00  0.00000000000E+00  0.99999998245E-14  0.12500000000E+03  0.12500000000E+03 0.  0.
        -11    1    3    3    0    0  0.46701885177E+01 -0.12017451476E+02 -0.57449812794E+02  0.58878780482E+02  0.51100000000E-03 0.  1.
         23    2    1    0    0    0  0.10358527133E+02 -0.18231113080E+02 -0.25167420922E+02  0.92242227726E+02  0.86229675469E+02 0.  0.
         11    1    3    3    0    0  0.56883386154E+01 -0.62136616041E+01  0.32282391872E+02  0.33363447244E+02  0.51100000000E-03 0. -1.
         22    1    1    0    0    0 -0.10358527133E+02  0.18231113080E+02  0.25167420922E+02  0.32757772274E+02  0.00000000000E+00 0.  1.
</event>
<event>
 5    1  0.8952932E-005  0.9118800E+02  0.7818608E-02  0.1130116E+00
         25   -1    0    0    0    0  0.00000000000E+00  0.00000000000E+00  0.99999998245E-14  0.12500000000E+03  0.12500000000E+03 0.  0.
        -11    1    3    3    0    0 -0.36827329038E+02 -0.28553160919E+02  0.30526010295E+01  0.46699609590E+02  0.51100000000E-03 0. -1.
         23    2    1    0    0    0 -0.75238396315E+01  0.64927302313E+01  0.25523616894E+02  0.97609879007E+02  0.93688151608E+02 0.  0.
         11    1    3    3    0    0  0.29303489406E+02  0.35045891151E+02  0.22471015864E+02  0.50910269417E+02  0.51100000000E-03 0.  1.
         22    1    1    0    0    0  0.75238396315E+01 -0.64927302313E+01 -0.25523616894E+02  0.27390120993E+02  0.00000000000E+00 0.  1.
</event>
<event>
 5    1  0.8952932E-005  0.9118800E+02  0.7818608E-02  0.1130116E+00
         25   -1    0    0    0    0  0.00000000000E+00  0.00000000000E+00  0.99999998245E-14  0.12500000000E+03  0.12500000000E+03 0.  0.
        -11    1    3    3    0    0  0.87305211700E+00  0.29530247957E+02  0.25449741092E+02  0.38993423630E+02  0.51100000000E-03 0. -1.
         23    2    1    0    0    0 -0.26542502891E+02 -0.37986915083E+01 -0.11517737477E+02  0.95817937128E+02  0.91266008360E+02 0.  0.
         11    1    3    3    0    0 -0.27415555008E+02 -0.33328939466E+02 -0.36967478569E+02  0.56824513498E+02  0.51100000000E-03 0.  1.
         22    1    1    0    0    0  0.26542502891E+02  0.37986915083E+01  0.11517737477E+02  0.29182062872E+02  0.00000000000E+00 0.  1.
</event>
<event>
 5    1  0.8952932E-005  0.9118800E+02  0.7818608E-02  0.1130116E+00
         25   -1    0    0    0    0  0.00000000000E+00  0.00000000000E+00  0.99999998245E-14  0.12500000000E+03  0.12500000000E+03 0.  0.
        -11    1    3    3    0    0  0.25272207758E+02 -0.53039956949E+02 -0.12588949712E+02  0.60086630570E+02  0.51100000000E-03 0.  1.
         23    2    1    0    0    0  0.66631712297E+01 -0.23754926380E+02 -0.16964139159E+02  0.95058784334E+02  0.90220264262E+02 0.  0.
         11    1    3    3    0    0 -0.18609036528E+02  0.29285030569E+02 -0.43751894466E+01  0.34972153764E+02  0.51100000000E-03 0. -1.
         22    1    1    0    0    0 -0.66631712297E+01  0.23754926380E+02  0.16964139159E+02  0.29941215666E+02  0.00000000000E+00 0.  1.
</event>
<event>
 5    1  0.8952932E-005  0.9118800E+02  0.7818608E-02  0.1130116E+00
         25   -1    0    0    0    0  0.00000000000E+00  0.00000000000E+00  0.99999998245E-14  0.12500000000E+03  0.12500000000E+03 0.  0.
        -11    1    3    3    0    0 -0.45169115771E+02 -0.29900032302E+02 -0.28808551943E+02  0.61353024510E+02  0.51100000000E-03 0.  1.
         23    2    1    0    0    0 -0.18474991369E+02 -0.13627182447E+02 -0.30889934316E+01  0.10183607788E+03  0.99166624780E+02 0.  0.
         11    1    3    3    0    0  0.26694124401E+02  0.16272849855E+02  0.25719558512E+02  0.40483053371E+02  0.51100000000E-03 0. -1.
         22    1    1    0    0    0  0.18474991369E+02  0.13627182447E+02  0.30889934316E+01  0.23163922119E+02  0.00000000000E+00 0.  1.
</event>
<event>
 5    1  0.8952932E-005  0.9118800E+02  0.7818608E-02  0.1130116E+00
         25   -1    0    0    0    0  0.00000000000E+00  0.00000000000E+00  0.99999998245E-14  0.12500000000E+03  0.12500000000E+03 0.  0.
        -11    1    3    3    0    0  0.12941907757E+02 -0.31280218877E+02 -0.21379240657E+02  0.40037694748E+02  0.51100000000E-03 0.  1.
         23    2    1    0    0    0 -0.28425410550E+02 -0.15879203039E+01  0.27728086118E+01  0.96395561124E+02  0.92053735834E+02 0.  0.
         11    1    3    3    0    0 -0.41367318306E+02  0.29692298573E+02  0.24152049269E+02  0.56357866377E+02  0.51100000000E-03 0. -1.
         22    1    1    0    0    0  0.28425410550E+02  0.15879203039E+01 -0.27728086118E+01  0.28604438876E+02  0.00000000000E+00 0. -1.
</event>
<event>
 5    1  0.8952932E-005  0.9118800E+02  0.7818608E-02  0.1130116E+00
         25   -1    0    0    0    0  0.00000000000E+00  0.00000000000E+00  0.99999998245E-14  0.12500000000E+03  0.12500000000E+03 0.  0.
        -11    1    3    3    0    0  0.16737491271E+02 -0.21332275484E+02  0.20518274911E+02  0.34003076286E+02  0.51100000000E-03 0. -1.
         23    2    1    0    0    0 -0.13178250336E+02  0.26809330269E+02 -0.21547389715E+01  0.95049217516E+02  0.90207008481E+02 0.  0.
         11    1    3    3    0    0 -0.29915741606E+02  0.48141605753E+02 -0.22673013882E+02  0.61046141230E+02  0.51100000000E-03 0.  1.
         22    1    1    0    0    0  0.13178250336E+02 -0.26809330269E+02  0.21547389715E+01  0.29950782484E+02  0.00000000000E+00 0.  1.
</event>
<event>
 5    1  0.8952932E-005  0.9118800E+02  0.7818608E-02  0.1130116E+00
         25   -1    0    0    0    0  0.00000000000E+00  0.00000000000E+00  0.99999998245E-14  0.12500000000E+03  0.12500000000E+03 0.  0.
        -11    1    3    3    0    0 -0.17476661153E+02 -0.19427188555E+02  0.53994427654E+02  0.59985394540E+02  0.51100000000E-03 0.  1.
         23    2    1    0    0    0 -0.17239982733E+02 -0.17159122527E+02  0.21570532346E+02  0.92489380870E+02  0.86587211628E+02 0.  0.
         11    1    3    3    0    0  0.23667841989E+00  0.22680660280E+01 -0.32423895307E+02  0.32503986330E+02  0.51100000000E-03 0. -1.
         22    1    1    0    0    0  0.17239982733E+02  0.17159122527E+02 -0.21570532346E+02  0.32510619130E+02  0.00000000000E+00 0.  1.
</event>
<event>
 5    1  0.8952932E-005  0.9118800E+02  0.7818608E-02  0.1130116E+00
         25   -1    0    0    0    0  0.00000000000E+00  0.00000000000E+00  0.99999998245E-14  0.12500000000E+03  0.12500000000E+03 0.  0.
        -11    1    3    3    0    0  0.49877911017E+02  0.95532397237E+01  0.31278397724E+02  0.59644015300E+02  0.51100000000E-03 0. -1.
         23    2    1    0    0    0  0.27007101500E+02 -0.51546901215E+01  0.58145381050E+01  0.96897273886E+02  0.92732510327E+02 0.  0.
         11    1    3    3    0    0 -0.22870809517E+02 -0.14707929845E+02 -0.25463859619E+02  0.37253258586E+02  0.51100000000E-03 0.  1.
         22    1    1    0    0    0 -0.27007101500E+02  0.51546901215E+01 -0.58145381050E+01  0.28102726114E+02  0.00000000000E+00 0. -1.
</event>
<event>
 5    1  0.8952932E-005  0.9118800E+02  0.7818608E-02  0.1130116E+00
         25   -1    0    0    0    0  0.00000000000E+00  0.00000000000E+00  0.99999998245E-14  0.12500000000E+03  0.12500000000E+03 0.  0.
        -11    1    3    3    0    0 -0.55275693139E+02 -0.11497938456E+02  0.23744740371E+01  0.56508786644E+02  0.51100000000E-03 0. -1.
         23    2    1    0    0    0 -0.18093399961E+02 -0.18939562909E+02  0.12815782474E+02  0.95839711152E+02  0.91295825687E+02 0.  0.
         11    1    3    3    0    0  0.37182293178E+02 -0.74416244528E+01  0.10441308436E+02  0.39330924508E+02  0.51100000000E-03 0.  1.
         22    1    1    0    0    0  0.18093399961E+02  0.18939562909E+02 -0.12815782474E+02  0.29160288848E+02  0.00000000000E+00 0. -1.
</event>
<event>
 5    1  0.8952932E-005  0.9118800E+02  0.7818608E-02  0.1130116E+00
         25   -1    0    0    0    0  0.00000000000E+00  0.00000000000E+00  0.99999998245E-14  0.12500000000E+03  0.12500000000E+03 0.  0.
        -11    1    3    3    0    0  0.43237516194E+02  0.99571284016E+01  0.22360987409E+01  0.44425525889E+02  0.51100000000E-03 0. -1.
         23    2    1    0    0    0  0.24546501595E+02 -0.50359909174E+01 -0.30836571144E+02  0.85266059030E+02  0.75442128532E+02 0.  0.
         11    1    3    3    0    0 -0.18691014599E+02 -0.14993119319E+02 -0.33072669885E+02  0.40840533141E+02  0.51100000000E-03 0.  1.
         22    1    1    0    0    0 -0.24546501595E+02  0.50359909174E+01  0.30836571144E+02  0.39733940970E+02  0.00000000000E+00 0. -1.
</event>
<event>
 5    1  0.8952932E-005  0.9118800E+02  0.7818608E-02  0.1130116E+00
         25   -1    0    0    0    0  0.00000000000E+00  0.00000000000E+00  0.99999998245E-14  0.12500000000E+03  0.12500000000E+03 0.  0.
        -11    1    3    3    0    0 -0.15626744060E+02  0.48069112889E+02 -0.10143703652E+02  0.51553171269E+02  0.51100000000E-03 0.  1.
         23    2    1    0    0    0 -0.12393475455E+02  0.17162975402E+02  0.20739277458E+02  0.95364150290E+02  0.90642360806E+02 0.  0.
         11    1    3    3    0    0  0.32332686048E+01 -0.30906137487E+02  0.30882981110E+02  0.43810979021E+02  0.51100000000E-03 0. -1.
         22    1    1    0    0    0  0.12393475455E+02 -0.17162975402E+02 -0.20739277458E+02  0.29635849710E+02  0.00000000000E+00 0. -1.
</event>
<event>
 5    1  0.8952932E-005  0.9118800E+02  0.7818608E-02  0.1130116E+00
         25   -1    0    0    0    0  0.00000000000E+00  0.00000000000E+00  0.99999998245E-14  0.12500000000E+03  0.12500000000E+03 0.  0.
        -11    1    3    3    0    0  0.18352416226E+02 -0.44900230862E+02 -0.27474052325E+02  0.55746439027E+02  0.51100000000E-03 0. -1.
         23    2    1    0    0    0 -0.93688504427E+00 -0.29362359852E+02  0.35097435638E+01  0.95413783115E+02  0.90710780940E+02 0.  0.
         11    1    3    3    0    0 -0.19289301270E+02  0.15537871010E+02  0.30983795889E+02  0.39667344088E+02  0.51100000000E-03 0.  1.
         22    1    1    0    0    0  0.93688504427E+00  0.29362359852E+02 -0.35097435638E+01  0.29586216885E+02  0.00000000000E+00 0. -1.
</event>
<event>
 5    1  0.8952932E-005  0.9118800E+02  0.7818608E-02  0.1130116E+00
         25   -1    0    0    0    0  0.00000000000E+00  0.00000000000E+00  0.99999998245E-14  0.12500000000E+03  0.12500000000E+03 0.  0.
        -11    1    3    3    0    0 -0.30693420583E+02 -0.57414871371E+01 -0.37896541150E+02  0.49103956797E+02  0.51100000000E-03 0.  1.
         23    2    1    0    0    0 -0.26688518183E+02  0.11238224168E+02  0.51828153353E+01  0.95581701952E+02  0.90941879725E+02 0.  0.
         11    1    3    3    0    0  0.40049024005E+01  0.16979711305E+02  0.43079356486E+02  0.46477745155E+02  0.51100000000E-03 0. -1.
         22    1    1    0    0    0  0.26688518183E+02 -0.11238224168E+02 -0.51828153353E+01  0.29418298048E+02  0.00000000000E+00 0. -1.
</event>
<event>
 5    1  0.8952932E-005  0.9118800E+02  0.7818608E-02  0.1130116E+00
         25   -1    0    0    0    0  0.00000000000E+00  0.00000000000E+00  0.99999998245E-14  0.12500000000E+03  0.12500000000E+03 0.  0.
        -11    1    3    3    0    0  0.36376226967E+02 -0.16377067373E+01 -0.90466457893E+01  0.37520044936E+02  0.51100000000E-03 0. -1.
         23    2    1    0    0    0 -0.18333216824E+02  0.17823662573E+02 -0.14088381124E+02  0.95806297438E+02  0.91250064983E+02 0.  0.
         11    1    3    3    0    0 -0.54709443790E+02  0.19461369310E+02 -0.50417353342E+01  0.58286252502E+02  0.51100000000E-03 0.  1.
         22    1    1    0    0    0  0.18333216824E+02 -0.17823662573E+02  0.14088381124E+02  0.29193702562E+02  0.00000000000E+00 0.  1.
</event>
<event>
 5    1  0.8952932E-005  0.9118800E+02  0.7818608E-02  0.1130116E+00
         25   -1    0    0    0    0  0.00000000000E+00  0.00000000000E+00  0.99999998245E-14  0.12500000000E+03  0.12500000000E+03 0.  0.
        -11    1    3    3    0    0 -0.15843609686E+01  0.39885676053E+02 -0.52003235476E+01  0.40254449681E+02  0.51100000000E-03 0. -1.
         23    2    1    0    0    0 -0.20893963619E+02 -0.89414746600E+01 -0.19913059226E+02  0.94783487750E+02  0.89838031687E+02 0.  0.
         11    1    3    3    0    0 -0.19309602651E+02 -0.48827150713E+02 -0.14712735679E+02  0.54529038069E+02  0.51100000000E-03 0.  1.
         22    1    1    0    0    0  0.20893963619E+02  0.89414746600E+01  0.19913059226E+02  0.30216512250E+02  0.00000000000E+00 0.  1.
</event>
<event>
 5    1  0.8952932E-005  0.9118800E+02  0.7818608E-02  0.1130116E+00
         25   -1    0    0    0    0  0.00000000000E+00  0.00000000000E+00  0.99999998245E-14  0.12500000000E+03  0.12500000000E+03 0.  0.
        -11    1    3    3    0    0  0.34654442962E+02  0.15537318541E+01 -0.30351932314E-01  0.34689269540E+02  0.51100000000E-03 0.  1.
         23    2    1    0    0    0 -0.23411343779E+02 -0.17465837746E+02 -0.17200951631E+00  0.95790821769E+02  0.91228862988E+02 0.  0.
         11    1    3    3    0    0 -0.58065786741E+02 -0.19019569600E+02 -0.14165758400E+00  0.61101552229E+02  0.51100000000E-03 0. -1.
         22    1    1    0    0    0  0.23411343779E+02  0.17465837746E+02  0.17200951631E+00  0.29209178231E+02  0.00000000000E+00 0. -1.
</event>
<event>
 5    1  0.8952932E-005  0.9118800E+02  0.7818608E-02  0.1130116E+00
         25   -1    0    0    0    0  0.00000000000E+00  0.00000000000E+00  0.99999998245E-14  0.12500000000E+03  0.12500000000E+03 0.  0.
        -11    1    3    3    0    0 -0.15586199252E+02 -0.99676640344E+01 -0.56933336247E+02  0.59863918264E+02  0.51100000000E-03 0.  1.
         23    2    1    0    0    0 -0.81759500629E+01  0.82353831794E+01 -0.26213398977E+02  0.96332771646E+02  0.91968434322E+02 0.  0.
         11    1    3    3    0    0  0.74102491891E+01  0.18203047214E+02  0.30719937270E+02  0.36468853382E+02  0.51100000000E-03 0. -1.
         22    1    1    0    0    0  0.81759500629E+01 -0.82353831794E+01  0.26213398977E+02  0.28667228354E+02  0.00000000000E+00 0. -1.
</event>
<event>
 5    1  0.8952932E-005  0.9118800E+02  0.7818608E-02  0.1130116E+00
         25   -1    0    0    0    0  0.00000000000E+00  0.00000000000E+00  0.99999998245E-14  0.12500000000E+03  0.12500000000E+03 0.  0.
        -11    1    3    3    0    0 -0.36786220603E+02 -0.17180630968E+02  0.22646812728E+02  0.46489549725E+02  0.51100000000E-03 0.  1.
         23    2    1    0    0    0  0.66766416569E+01  0.78629369722E+01  0.26265417494E+02  0.96781646437E+02  0.92576517591E+02 0.  0.
         11    1    3    3    0    0  0.43462862260E+02  0.25043567940E+02  0.36186047663E+01  0.50292096712E+02  0.51100000000E-03 0. -1.
         22    1    1    0    0    0 -0.66766416569E+01 -0.78629369722E+01 -0.26265417494E+02  0.28218353563E+02  0.00000000000E+00 0.  1.
</event>
<event>
 5    1  0.8952932E-005  0.9118800E+02  0.7818608E-02  0.1130116E+00
         25   -1    0    0    0    0  0.00000000000E+00  0.00000000000E+00  0.99999998245E-14  0.12500000000E+03  0.12500000000E+03 0.  0.
        -11    1    3    3    0    0  0.15248072001E+02 -0.25695343548E+01  0.51071340972E+02  0.53360922738E+02  0.51100000000E-03 0. -1.
         23    2    1    0    0    0  0.28762094723E+02 -0.23778277221E+01  0.13794032711E+02  0.93012697895E+02  0.87339421075E+02 0.  0.
         11    1    3    3    0    0  0.13514022722E+02  0.19170663265E+00 -0.37277308262E+02  0.39651775157E+02  0.51100000000E-03 0.  1.
         22    1    1    0    0    0 -0.28762094723E+02  0.23778277221E+01 -0.13794032711E+02  0.31987302105E+02  0.00000000000E+00 0. -1.
</event>
<event>
 5    1  0.8952932E-005  0.9118800E+02  0.7818608E-02  0.1130116E+00
         25   -1    0    0    0    0  0.00000000000E+00  0.00000000000E+00  0.99999998245E-14  0.12500000000E+03  0.12500000000E+03 0.  0.
        -11    1    3    3    0    0  0.15213575209E+02  0.50303473177E+02 -0.23862982271E+02  0.57717711384E+02  0.51100000000E-03 0. -1.
         23    2    1    0    0    0 -0.71507939183E+01  0.24128996245E+02 -0.20925487704E+02  0.92270527821E+02  0.86270690013E+02 0.  0.
         11    1    3    3    0    0 -0.22364369127E+02 -0.26174476933E+02  0.29374945664E+01  0.34552816437E+02  0.51100000000E-03 0.  1.
         22    1    1    0    0    0  0.71507939183E+01 -0.24128996245E+02  0.20925487704E+02  0.32729472179E+02  0.00000000000E+00 0. -1.
</event>
<event>
 5    1  0.8952932E-005  0.9118800E+02  0.7818608E-02  0.1130116E+00
         25   -1    0    0    0    0  0.00000000000E+00  0.00000000000E+00  0.99999998245E-14  0.12500000000E+03  0.12500000000E+03 0.  0.
        -11    1    3    3    0    0  0.22301246064E+01 -0.29028831480E+02  0.30250079619E+02  0.41984685661E+02  0.51100000000E-03 0.  1.
         23    2    1    0    0    0  0.28163323922E+02  0.73453354286E+01  0.73042246410E-01  0.95894466127E+02  0.91370764097E+02 0.  0.
         11    1    3    3    0    0  0.25933199315E+02  0.36374166909E+02 -0.30177037373E+02  0.53909780466E+02  0.51100000000E-03 0. -1.
         22    1    1    0    0    0 -0.28163323922E+02 -0.73453354286E+01 -0.73042246410E-01  0.29105533873E+02  0.00000000000E+00 0.  1.
</event>
<event>
 5    1  0.8952932E-005  0.9118800E+02  0.7818608E-02  0.1130116E+00
         25   -1    0    0    0    0  0.00000000000E+00  0.00000000000E+00  0.99999998245E-14  0.12500000000E+03  0.12500000000E+03 0.  0.
        -11    1    3    3    0    0 -0.26603175021E+02  0.31686567139E+02 -0.19729875436E+02  0.45837053169E+02  0.51100000000E-03 0. -1.
         23    2    1    0    0    0 -0.12142178372E+02  0.15352519914E+02  0.23594088882E+02  0.94343623934E+02  0.89223909260E+02 0.  0.
         11    1    3    3    0    0  0.14460996649E+02 -0.16334047225E+02  0.43323964318E+02  0.48506570765E+02  0.51100000000E-03 0.  1.
         22    1    1    0    0    0  0.12142178372E+02 -0.15352519914E+02 -0.23594088882E+02  0.30656376066E+02  0.00000000000E+00 0.  1.
</event>
<event>
 5    1  0.8952932E-005  0.9118800E+02  0.7818608E-02  0.1130116E+00
         25   -1    0    0    0    0  0.00000000000E+00  0.00000000000E+00  0.99999998245E-14  0.12500000000E+03  0.12500000000E+03 0.  0.
        -11    1    3    3    0    0  0.30674881518E+02 -0.39702154833E+02 -0.31607944327E+02  0.59298158482E+02  0.51100000000E-03 0.  1.
         23    2    1    0    0    0  0.29385015339E+01 -0.26721510400E+02 -0.12916703860E+02  0.95175259465E+02  0.90381496261E+02 0.  0.
         11    1    3    3    0    0 -0.27736379984E+02  0.12980644433E+02  0.18691240467E+02  0.35877100983E+02  0.51100000000E-03 0. -1.
         22    1    1    0    0    0 -0.29385015339E+01  0.26721510400E+02  0.12916703860E+02  0.29824740535E+02  0.00000000000E+00 0.  1.
</event>
<event>
 5    1  0.8952932E-005  0.9118800E+02  0.7818608E-02  0.1130116E+00
         25   -1    0    0    0    0  0.00000000000E+00  0.00000000000E+00  0.99999998245E-14  0.12500000000E+03  0.12500000000E+03 0.  0.
        -11    1    3    3    0    0 -0.19557250979E+02  0.25097838516E+02  0.11276006203E+02  0.33757012311E+02  0.51100000000E-03 0. -1.
         23    2    1    0    0    0  0.28804998443E+02 -0.76602193227E+01 -0.58437034258E+01  0.94626396903E+02  0.89619190053E+02 0.  0.
         11    1    3    3    0    0  0.48362249422E+02 -0.32758057839E+02 -0.17119709629E+02  0.60869384592E+02  0.51100000000E-03 0.  1.
         22    1    1    0    0    0 -0.28804998443E+02  0.76602193227E+01  0.58437034258E+01  0.30373603097E+02  0.00000000000E+00 0.  1.
</event>
<event>
 5    1  0.8952932E-005  0.9118800E+02  0.7818608E-02  0.1130116E+00
         25   -1    0    0    0    0  0.00000000000E+00  0.00000000000E+00  0.99999998245E-14  0.12500000000E+03  0.12500000000E+03 0.  0.
        -11    1    3    3    0    0 -0.25717431537E+02 -0.34934630000E+02  0.20239719766E+02  0.47869206329E+02  0.51100000000E-03 0. -1.
         23    2    1    0    0    0 -0.11603611143E+02 -0.19033398373E+02 -0.21068259701E+02  0.94327771323E+02  0.89201697466E+02 0.  0.
         11    1    3    3    0    0  0.14113820394E+02  0.15901231627E+02 -0.41307979467E+02  0.46458564994E+02  0.51100000000E-03 0.  1.
         22    1    1    0    0    0  0.11603611143E+02  0.19033398373E+02  0.21068259701E+02  0.30672228677E+02  0.00000000000E+00 0. -1.
</event>
<event>
 5    1  0.8952932E-005  0.9118800E+02  0.7818608E-02  0.1130116E+00
         25   -1    0    0    0    0  0.00000000000E+00  0.00000000000E+00  0.99999998245E-14  0.12500000000E+03  0.12500000000E+03 0.  0.
        -11    1    3    3    0    0 -0.94455487370E+01  0.47305368968E+02  0.36598529879E+02  0.60551372517E+02  0.51100000000E-03 0.  1.
         23    2    1    0    0    0 -0.13130744936E+02  0.14031266465E+02  0.16993803523E+02  0.99346885971E+02  0.95977713521E+02 0.  0.
         11    1    3    3    0    0 -0.36851961993E+01 -0.33274102503E+02 -0.19604726356E+02  0.38795513454E+02  0.51100000000E-03 0. -1.
         22    1    1    0    0    0  0.13130744936E+02 -0.14031266465E+02 -0.16993803523E+02  0.25653114029E+02  0.00000000000E+00 0.  1.
</event>
<event>
 5    1  0.8952932E-005  0.9118800E+02  0.7818608E-02  0.1130116E+00
         25   -1    0    0    0    0  0.00000000000E+00  0.00000000000E+00  0.99999998245E-14  0.12500000000E+03  0.12500000000E+03 0.  0.
        -11    1    3    3    0    0  0.26345795552E+02 -0.13267247550E+01 -0.22530027531E+02  0.34690968316E+02  0.51100000000E-03 0. -1.
         23    2    1    0    0    0 -0.11487121995E+02 -0.94965190934E+01  0.24943430369E+02  0.95942942937E+02  0.91437058867E+02 0.  0.
         11    1    3    3    0    0 -0.37832917548E+02 -0.81697943384E+01  0.47473457900E+02  0.61251974621E+02  0.51100000000E-03 0.  1.
         22    1    1    0    0    0  0.11487121995E+02  0.94965190934E+01 -0.24943430369E+02  0.29057057063E+02  0.00000000000E+00 0.  1.
</event>
<event>
 5    1  0.8952932E-005  0.9118800E+02  0.7818608E-02  0.1130116E+00
         25   -1    0    0    0    0  0.00000000000E+00  0.00000000000E+00  0.99999998245E-14  0.12500000000E+03  0.12500000000E+03 0.  0.
        -11    1    3    3    0    0  0.32743889566E+02 -0.26378262432E+02 -0.18661792994E+02  0.46002582002E+02  0.51100000000E-03 0. -1.
         23    2    1    0    0    0 -0.86668996879E+01  0.74674330462E+00 -0.27382819053E+02  0.96268631166E+02  0.91881215662E+02 0.  0.
         11    1    3    3    0    0 -0.41410789254E+02  0.27125005736E+02 -0.87210260591E+01  0.50266049164E+02  0.51100000000E-03 0.  1.
         22    1    1    0    0    0  0.86668996879E+01 -0.74674330462E+00  0.27382819053E+02  0.28731368834E+02  0.00000000000E+00 0. -1.
</event>
<event>
 5    1  0.8952932E-005  0.9118800E+02  0.7818608E-02  0.1130116E+00
         25   -1    0    0    0    0  0.00000000000E+00  0.00000000000E+00  0.99999998245E-14  0.12500000000E+03  0.12500000000E+03 0.  0.
        -11    1    3    3    0    0 -0.22853121323E+02  0.31237601064E+02 -0.94040518610E-02  0.38704689162E+02  0.51100000000E-03 0.  1.
         23    2    1    0    0    0 -0.10017501599E+02 -0.21313172148E+02 -0.17612651857E+02  0.95592396379E+02  0.90956578073E+02 0.  0.
         11    1    3    3    0    0  0.12835619724E+02 -0.52550773211E+02 -0.17603247806E+02  0.56887707217E+02  0.51100000000E-03 0. -1.
         22    1    1    0    0    0  0.10017501599E+02  0.21313172148E+02  0.17612651857E+02  0.29407603621E+02  0.00000000000E+00 0. -1.
</event>
<event>
 5    1  0.8952932E-005  0.9118800E+02  0.7818608E-02  0.1130116E+00
         25   -1    0    0    0    0  0.00000000000E+00  0.00000000000E+00  0.99999998245E-14  0.12500000000E+03  0.12500000000E+03 0.  0.
        -11    1    3    3    0    0 -0.35679233445E+02  0.31320302615E+02  0.19135690603E+02  0.51187339355E+02  0.51100000000E-03 0.  1.
         23    2    1    0    0    0  0.69598921281E+01  0.13476319755E+02  0.22867031342E+02  0.97560021593E+02  0.93621607539E+02 0.  0.
         11    1    3    3    0    0  0.42639125573E+02 -0.17843982859E+02  0.37313407392E+01  0.46372682238E+02  0.51100000000E-03 0. -1.
         22    1    1    0    0    0 -0.69598921281E+01 -0.13476319755E+02 -0.22867031342E+02  0.27439978407E+02  0.00000000000E+00 0.  1.
</event>
<event>
 5    1  0.8952932E-005  0.9118800E+02  0.7818608E-02  0.1130116E+00
         25   -1    0    0    0    0  0.00000000000E+00  0.00000000000E+00  0.99999998245E-14  0.12500000000E+03  0.12500000000E+03 0.  0.
        -11    1    3    3    0    0  0.16979537348E+02  0.48736438758E+02 -0.16619709058E+02  0.54219552569E+02  0.51100000000E-03 0.  1.
         23    2    1    0    0    0 -0.10007643467E+02  0.80788608105E+01 -0.17808017005E+02  0.10303306145E+03  0.10066412152E+03 0.  0.
         11    1    3    3    0    0 -0.26987180815E+02 -0.40657577947E+02 -0.11883079462E+01  0.48813508878E+02  0.51100000000E-03 0. -1.
         22    1    1    0    0    0  0.10007643467E+02 -0.80788608105E+01  0.17808017005E+02  0.21966938553E+02  0.00000000000E+00 0.  1.
</event>
<event>
 5    1  0.8952932E-005  0.9118800E+02  0.7818608E-02  0.1130116E+00
         25   -1    0    0    0    0  0.00000000000E+00  0.00000000000E+00  0.99999998245E-14  0.12500000000E+03  0.12500000000E+03 0.  0.
        -11    1    3    3    0    0  0.43182866745E+02 -0.14774238164E+02  0.25845970406E+01  0.45713436053E+02  0.51100000000E-03 0. -1.
         23    2    1    0    0    0  0.89183724665E+01  0.19646566893E+02  0.18245170961E+02  0.96743828612E+02  0.92525440571E+02 0.  0.
         11    1    3    3    0    0 -0.34264494278E+02  0.34420805057E+02  0.15660573920E+02  0.51030392559E+02  0.51100000000E-03 0.  1.
         22    1    1    0    0    0 -0.89183724665E+01 -0.19646566893E+02 -0.18245170961E+02  0.28256171388E+02  0.00000000000E+00 0. -1.
</event>
<event>
 5    1  0.8952932E-005  0.9118800E+02  0.7818608E-02  0.1130116E+00
         25   -1    0    0    0    0  0.00000000000E+00  0.00000000000E+00  0.99999998245E-14  0.12500000000E+03  0.12500000000E+03 0.  0.
        -11    1    3    3    0    0 -0.20072043684E+02  0.49443188281E+02 -0.28956978264E+02  0.60712621386E+02  0.51100000000E-03 0. -1.
         23    2    1    0    0    0 -0.40975637654E+01  0.27712143068E+02 -0.55110889199E+01  0.96449605899E+02  0.92127094141E+02 0.  0.
         11    1    3    3    0    0  0.15974479919E+02 -0.21731045213E+02  0.23445889344E+02  0.35736984514E+02  0.51100000000E-03 0.  1.
         22    1    1    0    0    0  0.40975637654E+01 -0.27712143068E+02  0.55110889199E+01  0.28550394101E+02  0.00000000000E+00 0. -1.
</event>
<event>
 5    1  0.8952932E-005  0.9118800E+02  0.7818608E-02  0.1130116E+00
         25   -1    0    0    0    0  0.00000000000E+00  0.00000000000E+00  0.99999998245E-14  0.12500000000E+03  0.12500000000E+03 0.  0.
        -11    1    3    3    0    0 -0.52773738472E+02  0.18708488164E+02  0.83011895567E+01  0.56603752084E+02  0.51100000000E-03 0.  1.
         23    2    1    0    0    0 -0.28081266301E+02 -0.64899375382E+01  0.14991855151E+02  0.92512578939E+02  0.86620694610E+02 0.  0.
         11    1    3    3    0    0  0.24692472171E+02 -0.25198425702E+02  0.66906655946E+01  0.35908826855E+02  0.51100000000E-03 0. -1.
         22    1    1    0    0    0  0.28081266301E+02  0.64899375382E+01 -0.14991855151E+02  0.32487421061E+02  0.00000000000E+00 0.  1.
</event>
<event>
 5    1  0.8952932E-005  0.9118800E+02  0.7818608E-02  0.1130116E+00
         25   -1    0    0    0    0  0.00000000000E+00  0.00000000000E+00  0.99999998245E-14  0.12500000000E+03  0.12500000000E+03 0.  0.
        -11    1    3    3    0    0  0.46862037136E+01  0.34133354216E+02  0.45786090722E+01  0.34756438778E+02  0.51100000000E-03 0.  1.
         23    2    1    0    0    0  0.23604615330E+01 -0.25729607429E+02  0.14332402389E+02  0.95453388767E+02  0.90765341357E+02 0.  0.
         11    1    3    3    0    0 -0.23257421805E+01 -0.59862961645E+02  0.97537933171E+01  0.60696949989E+02  0.51100000000E-03 0. -1.
         22    1    1    0    0    0 -0.23604615330E+01  0.25729607429E+02 -0.14332402389E+02  0.29546611233E+02  0.00000000000E+00 0. -1.
</event>
<event>
 5    1  0.8952932E-005  0.9118800E+02  0.7818608E-02  0.1130116E+00
         25   -1    0    0    0    0  0.00000000000E+00  0.00000000000E+00  0.99999998245E-14  0.12500000000E+03  0.12500000000E+03 0.  0.
        -11    1    3    3    0    0 -0.12967710778E+02  0.27056035509E+01  0.55721350203E+02  0.57274345758E+02  0.51100000000E-03 0. -1.
         23    2    1    0    0    0  0.10435199697E+02 -0.58217924515E+01  0.28083361926E+02  0.94480139628E+02  0.89414959079E+02 0.  0.
         11    1    3    3    0    0  0.23402910474E+02 -0.85273960024E+01 -0.27637988277E+02  0.37205793870E+02  0.51100000000E-03 0.  1.
         22    1    1    0    0    0 -0.10435199697E+02  0.58217924515E+01 -0.28083361926E+02  0.30519860372E+02  0.00000000000E+00 0. -1.
</event>
<event>
 5    1  0.8952932E-005  0.9118800E+02  0.7818608E-02  0.1130116E+00
         25   -1    0    0    0    0  0.00000000000E+00  0.00000000000E+00  0.99999998245E-14  0.12500000000E+03  0.12500000000E+03 0.  0.
        -11    1    3    3    0    0 -0.12787852097E+02  0.54614461800E+02  0.14675697503E+02  0.57979692103E+02  0.51100000000E-03 0.  1.
         23    2    1    0    0    0  0.23862400365E+01  0.28603469310E+02 -0.74480243882E+01  0.95346574137E+02  0.90618119239E+02 0.  0.
         11    1    3    3    0    0  0.15174092133E+02 -0.26010992489E+02 -0.22123721891E+02  0.37366882034E+02  0.51100000000E-03 0. -1.
         22    1    1    0    0    0 -0.23862400365E+01 -0.28603469310E+02  0.74480243882E+01  0.29653425863E+02  0.00000000000E+00 0.  1.
</event>
<event>
 5    1  0.8952932E-005  0.9118800E+02  0.7818608E-02  0.1130116E+00
         25   -1    0    0    0    0  0.00000000000E+00  0.00000000000E+00  0.99999998245E-14  0.12500000000E+03  0.12500000000E+03 0.  0.
        -11    1    3    3    0    0 -0.66603400197E+01  0.51103730600E+02  0.20183348146E+02  0.55347257864E+02  0.51100000000E-03 0. -1.
         23    2    1    0    0    0  0.15219872845E+02  0.25157480007E+02 -0.13906178436E+01  0.95564016107E+02  0.90917567207E+02 0.  0.
         11    1    3    3    0    0  0.21880212865E+02 -0.25946250593E+02 -0.21573965989E+02  0.40216758244E+02  0.51100000000E-03 0.  1.
         22    1    1    0    0    0 -0.15219872845E+02 -0.25157480007E+02  0.13906178436E+01  0.29435983893E+02  0.00000000000E+00 0.  1.
</event>
<event>
 5    1  0.8952932E-005  0.9118800E+02  0.7818608E-02  0.1130116E+00
         25   -1    0    0    0    0  0.00000000000E+00  0.00000000000E+00  0.99999998245E-14  0.12500000000E+03  0.12500000000E+03 0.  0.
        -11    1    3    3    0    0  0.27857507220E+02  0.21416553019E+01 -0.23274933179E+02  0.36364129450E+02  0.51100000000E-03 0.  1.
         23    2    1    0    0    0  0.11045014615E+02 -0.83071752161E+01  0.29333725037E+02  0.92573638310E+02  0.86708762980E+02 0.  0.
         11    1    3    3    0    0 -0.16812492605E+02 -0.10448830518E+02  0.52608658215E+02  0.56209508860E+02  0.51100000000E-03 0. -1.
         22    1    1    0    0    0 -0.11045014615E+02  0.83071752161E+01 -0.29333725037E+02  0.32426361690E+02  0.00000000000E+00 0. -1.
</event>
<event>
 5    1  0.8952932E-005  0.9118800E+02  0.7818608E-02  0.1130116E+00
         25   -1    0    0    0    0  0.00000000000E+00  0.00000000000E+00  0.99999998245E-14  0.12500000000E+03  0.12500000000E+03 0.  0.
        -11    1    3    3    0    0  0.47161452409E+02  0.21693129835E+02 -0.24447079916E+01  0.51968943349E+02  0.51100000000E-03 0.  1.
         23    2    1    0    0    0  0.35972663350E+01  0.27255426949E+02  0.64106477082E+01  0.96770670796E+02  0.92561696717E+02 0.  0.
         11    1    3    3    0    0 -0.43564186074E+02  0.55622971141E+01  0.88553556998E+01  0.44801727448E+02  0.51100000000E-03 0. -1.
         22    1    1    0    0    0 -0.35972663350E+01 -0.27255426949E+02 -0.64106477082E+01  0.28229329204E+02  0.00000000000E+00 0. -1.
</event>
<event>
 5    1  0.8952932E-005  0.9118800E+02  0.7818608E-02  0.1130116E+00
         25   -1    0    0    0    0  0.00000000000E+00  0.00000000000E+00  0.99999998245E-14  0.12500000000E+03  0.12500000000E+03 0.  0.
        -11    1    3    3    0    0  0.34902258749E+02 -0.36158323487E+02 -0.34207347239E+02  0.60792554055E+02  0.51100000000E-03 0. -1.
         23    2    1    0    0    0  0.24404905626E+02 -0.10428570304E+02 -0.17263226900E+02  0.93339717307E+02  0.87806203236E+02 0.  0.
         11    1    3    3    0    0 -0.10497353123E+02  0.25729753182E+02  0.16944120339E+02  0.32547163252E+02  0.51100000000E-03 0.  1.
         22    1    1    0    0    0 -0.24404905626E+02  0.10428570304E+02  0.17263226900E+02  0.31660282693E+02  0.00000000000E+00 0. -1.
</event>
<event>
 5    1  0.8952932E-005  0.9118800E+02  0.7818608E-02  0.1130116E+00
         25   -1    0    0    0    0  0.00000000000E+00  0.00000000000E+00  0.99999998245E-14  0.12500000000E+03  0.12500000000E+03 0.  0.
        -11    1    3    3    0    0  0.33229999648E+02  0.14717961329E+02 -0.12293219343E+02  0.38366319922E+02  0.51100000000E-03 0.  1.
         23    2    1    0    0    0 -0.19576600568E+02  0.24220905239E+02  0.16824266821E+01  0.93811442805E+02  0.88475198226E+02 0.  0.
         11    1    3    3    0    0 -0.52806600216E+02  0.95029439102E+01  0.13975646025E+02  0.55445122882E+02  0.51100000000E-03 0. -1.
         22    1    1    0    0    0  0.19576600568E+02 -0.24220905239E+02 -0.16824266821E+01  0.31188557195E+02  0.00000000000E+00 0. -1.
</event>
<event>
 5    1  0.8952932E-005  0.9118800E+02  0.7818608E-02  0.1130116E+00
         25   -1    0    0    0    0  0.00000000000E+00  0.00000000000E+00  0.99999998245E-14  0.12500000000E+03  0.12500000000E+03 0.  0.
        -11    1    3    3    0    0 -0.17344006510E+02 -0.48481148909E+02 -0.10124456317E+02  0.52476099105E+02  0.51100000000E-03 0.  1.
         23    2    1    0    0    0  0.16865470156E+02 -0.23571368675E+02  0.11976861398E+00  0.96016076020E+02  0.91536981624E+02 0.  0.
         11    1    3    3    0    0  0.34209476666E+02  0.24909780234E+02  0.10244224931E+02  0.43539976915E+02  0.51100000000E-03 0. -1.
         22    1    1    0    0    0 -0.16865470156E+02  0.23571368675E+02 -0.11976861398E+00  0.28983923980E+02  0.00000000000E+00 0. -1.
</event>
<event>
 5    1  0.8952932E-005  0.9118800E+02  0.7818608E-02  0.1130116E+00
         25   -1    0    0    0    0  0.00000000000E+00  0.00000000000E+00  0.99999998245E-14  0.12500000000E+03  0.12500000000E+03 0.  0.
        -11    1    3    3    0    0  0.13664174920E+02 -0.15987329151E+02  0.36190300675E+02  0.41857403561E+02  0.51100000000E-03 0.  1.
         23    2    1    0    0    0 -0.27959570258E+02 -0.19204778410E+01  0.32170748828E+01  0.96790509134E+02  0.92588483535E+02 0.  0.
         11    1    3    3    0    0 -0.41623745178E+02  0.14066851310E+02 -0.32973225793E+02  0.54933105573E+02  0.51100000000E-03 0. -1.
         22    1    1    0    0    0  0.27959570258E+02  0.19204778410E+01 -0.32170748828E+01  0.28209490866E+02  0.00000000000E+00 0. -1.
</event>
<event>
 5    1  0.8952932E-005  0.9118800E+02  0.7818608E-02  0.1130116E+00
         25   -1    0    0    0    0  0.00000000000E+00  0.00000000000E+00  0.99999998245E-14  0.12500000000E+03  0.12500000000E+03 0.  0.
        -11    1    3    3    0    0  0.32551935289E+02  0.42563065726E+02  0.21565653172E+02  0.57760890333E+02  0.51100000000E-03 0. -1.
         23    2    1    0    0    0  0.26078866694E+02  0.63149046833E+01  0.80276325313E+01  0.96992354736E+02  0.92860587355E+02 0.  0.
         11    1    3    3    0    0 -0.64730685950E+01 -0.36248161043E+02 -0.13538020640E+02  0.39231464403E+02  0.51100000000E-03 0.  1.
         22    1    1    0    0    0 -0.26078866694E+02 -0.63149046833E+01 -0.80276325313E+01  0.28007645264E+02  0.00000000000E+00 0. -1.
</event>
<event>
 5    1  0.8952932E-005  0.9118800E+02  0.7818608E-02  0.1130116E+00
         25   -1    0    0    0    0  0.00000000000E+00  0.00000000000E+00  0.99999998245E-14  0.12500000000E+03  0.12500000000E+03 0.  0.
        -11    1    3    3    0    0 -0.35913560588E+02 -0.88219637303E+01 -0.71766482507E+01  0.37671144906E+02  0.51100000000E-03 0. -1.
         23    2    1    0    0    0  0.41097923474E+01  0.30526066022E+02 -0.48515217457E+00  0.94194700577E+02  0.89015027631E+02 0.  0.
         11    1    3    3    0    0  0.40023352935E+02  0.39348029753E+02  0.66914960761E+01  0.56523555670E+02  0.51100000000E-03 0.  1.
         22    1    1    0    0    0 -0.41097923474E+01 -0.30526066022E+02  0.48515217457E+00  0.30805299423E+02  0.00000000000E+00 0.  1.
</event>
<event>
 5    1  0.8952932E-005  0.9118800E+02  0.7818608E-02  0.1130116E+00
         25   -1    0    0    0    0  0.00000000000E+00  0.00000000000E+00  0.99999998245E-14  0.12500000000E+03  0.12500000000E+03 0.  0.
        -11    1    3    3    0    0 -0.19714588925E+02 -0.22127755979E+02  0.46006871507E+02  0.54725997727E+02  0.51100000000E-03 0.  1.
         23    2    1    0    0    0  0.74957970361E+01  0.25212933971E+01  0.28541028973E+02  0.95383548010E+02  0.90669107212E+02 0.  0.
         11    1    3    3    0    0  0.27210385962E+02  0.24649049376E+02 -0.17465842533E+02  0.40657550283E+02  0.51100000000E-03 0. -1.
         22    1    1    0    0    0 -0.74957970361E+01 -0.25212933971E+01 -0.28541028973E+02  0.29616451990E+02  0.00000000000E+00 0.  1.
</event>
<event>
 5    1  0.8952932E-005  0.9118800E+02  0.7818608E-02  0.1130116E+00
         25   -1    0    0    0    0  0.00000000000E+00  0.00000000000E+00  0.99999998245E-14  0.12500000000E+03  0.12500000000E+03 0.  0.
        -11    1    3    3    0    0  0.16470240883E+02  0.42267088698E+02  0.80252025916E+01  0.46067119495E+02  0.51100000000E-03 0. -1.
         23    2    1    0    0    0 -0.22349592272E+02  0.18369554717E+02 -0.89596016908E+01  0.94714371764E+02  0.89741812668E+02 0.  0.
         11    1    3    3    0    0 -0.38819833154E+02 -0.23897533980E+02 -0.16984804282E+02  0.48647252268E+02  0.51100000000E-03 0.  1.
         22    1    1    0    0    0  0.22349592272E+02 -0.18369554717E+02  0.89596016908E+01  0.30285628236E+02  0.00000000000E+00 0.  1.
</event>
<event>
 5    1  0.8952932E-005  0.9118800E+02  0.7818608E-02  0.1130116E+00
         25   -1    0    0    0    0  0.00000000000E+00  0.00000000000E+00  0.99999998245E-14  0.12500000000E+03  0.12500000000E+03 0.  0.
        -11    1    3    3    0    0  0.32046794671E+02  0.11474667959E+02  0.59927445808E+01  0.34562668319E+02  0.51100000000E-03 0.  1.
         23    2    1    0    0    0 -0.20314462365E+02  0.28002689486E+02  0.79409668208E+01  0.89505113697E+02  0.82166163499E+02 0.  0.
         11    1    3    3    0    0 -0.52361257035E+02  0.16528021527E+02  0.19482222400E+01  0.54942445378E+02  0.51100000000E-03 0. -1.
         22    1    1    0    0    0  0.20314462365E+02 -0.28002689486E+02 -0.79409668208E+01  0.35494886303E+02  0.00000000000E+00 0. -1.
</event>
<event>
 5    1  0.8952932E-005  0.9118800E+02  0.7818608E-02  0.1130116E+00
         25   -1    0    0    0    0  0.00000000000E+00  0.00000000000E+00  0.99999998245E-14  0.12500000000E+03  0.12500000000E+03 0.  0.
        -11    1    3    3    0    0  0.22021377653E+01 -0.36115704839E+02  0.33933067112E+01  0.36341547538E+02  0.51100000000E-03 0. -1.
         23    2    1    0    0    0  0.20751321948E+02  0.17992884870E+02 -0.11143892469E+02  0.95359696224E+02  0.90636218236E+02 0.  0.
         11    1    3    3    0    0  0.18549184183E+02  0.54108589709E+02 -0.14537199180E+02  0.59018148687E+02  0.51100000000E-03 0.  1.
         22    1    1    0    0    0 -0.20751321948E+02 -0.17992884870E+02  0.11143892469E+02  0.29640303776E+02  0.00000000000E+00 0.  1.
</event>
<event>
 5    1  0.8952932E-005  0.9118800E+02  0.7818608E-02  0.1130116E+00
         25   -1    0    0    0    0  0.00000000000E+00  0.00000000000E+00  0.99999998245E-14  0.12500000000E+03  0.12500000000E+03 0.  0.
        -11    1    3    3    0    0  0.33342145553E+02  0.21445863632E+02 -0.44045931408E+02  0.59259326784E+02  0.51100000000E-03 0.  1.
         23    2    1    0    0    0  0.21254219016E+02  0.17979133862E+02 -0.10224182627E+02  0.95343213411E+02  0.90613483283E+02 0.  0.
         11    1    3    3    0    0 -0.12087926537E+02 -0.34667297706E+01  0.33821748781E+02  0.36083886627E+02  0.51100000000E-03 0. -1.
         22    1    1    0    0    0 -0.21254219016E+02 -0.17979133862E+02  0.10224182627E+02  0.29656786589E+02  0.00000000000E+00 0.  1.
</event>
<event>
 4    1  0.8952932E-005  0.9118800E+02  0.7818608E-02  0.1130116E+00
         25   -1    0    0    0    0  0.00000000000E+00  0.00000000000E+00  0.99999998245E-14  0.12500000000E+03  0.12500000000E+03 0.  0.
        -11    1    1    0    0    0  0.15469816684E+02  0.24240304944E+01 -0.97553093585E+01  0.18448772670E+02  0.51100000000E-03 0. -1.
         11    1    1    0    0    0 -0.76595732342E+01 -0.53278982715E+02 -0.16460753341E+01  0.53851913852E+02  0.51100000000E-03 0.  1.
         22    1    1    0    0    0 -0.78102434500E+01  0.50854952221E+02  0.11401384693E+02  0.52699313478E+02  0.00000000000E+00 0.  1.
</event>
<event>
 5    1  0.8952932E-005  0.9118800E+02  0.7818608E-02  0.1130116E+00
         25   -1    0    0    0    0  0.00000000000E+00  0.00000000000E+00  0.99999998245E-14  0.12500000000E+03  0.12500000000E+03 0.  0.
        -11    1    3    3    0    0 -0.15004766196E+02 -0.41897992156E+02 -0.26797973473E+02  0.51949168788E+02  0.51100000000E-03 0. -1.
         23    2    1    0    0    0  0.10759439559E+02 -0.25912171711E+02  0.56724179970E+01  0.96375141776E+02  0.92026004173E+02 0.  0.
         11    1    3    3    0    0  0.25764205755E+02  0.15985820445E+02  0.32470391470E+02  0.44425972988E+02  0.51100000000E-03 0.  1.
         22    1    1    0    0    0 -0.10759439559E+02  0.25912171711E+02 -0.56724179970E+01  0.28624858224E+02  0.00000000000E+00 0. -1.
</event>
<event>
 5    1  0.8952932E-005  0.9118800E+02  0.7818608E-02  0.1130116E+00
         25   -1    0    0    0    0  0.00000000000E+00  0.00000000000E+00  0.99999998245E-14  0.12500000000E+03  0.12500000000E+03 0.  0.
        -11    1    3    3    0    0  0.22965342412E+02  0.18270575763E+02 -0.30809910254E+02  0.42549635262E+02  0.51100000000E-03 0.  1.
         23    2    1    0    0    0  0.43699484816E+01  0.23629578926E+02  0.17947541680E+02  0.95007205827E+02  0.90148774017E+02 0.  0.
         11    1    3    3    0    0 -0.18595393930E+02  0.53590031626E+01  0.48757451934E+02  0.52457570566E+02  0.51100000000E-03 0. -1.
         22    1    1    0    0    0 -0.43699484816E+01 -0.23629578926E+02 -0.17947541680E+02  0.29992794173E+02  0.00000000000E+00 0. -1.
</event>
<event>
 5    1  0.8952932E-005  0.9118800E+02  0.7818608E-02  0.1130116E+00
         25   -1    0    0    0    0  0.00000000000E+00  0.00000000000E+00  0.99999998245E-14  0.12500000000E+03  0.12500000000E+03 0.  0.
        -11    1    3    3    0    0 -0.24070570816E+02  0.46215807413E+02 -0.27373836485E+02  0.58861024103E+02  0.51100000000E-03 0.  1.
         23    2    1    0    0    0  0.25891497682E+01  0.27489905100E+02 -0.11761639353E+02  0.94987756844E+02  0.90121802085E+02 0.  0.
         11    1    3    3    0    0  0.26659720584E+02 -0.18725902312E+02  0.15612197132E+02  0.36126732742E+02  0.51100000000E-03 0. -1.
         22    1    1    0    0    0 -0.25891497682E+01 -0.27489905100E+02  0.11761639353E+02  0.30012243156E+02  0.00000000000E+00 0.  1.
</event>
<event>
 5    1  0.8952932E-005  0.9118800E+02  0.7818608E-02  0.1130116E+00
         25   -1    0    0    0    0  0.00000000000E+00  0.00000000000E+00  0.99999998245E-14  0.12500000000E+03  0.12500000000E+03 0.  0.
        -11    1    3    3    0    0 -0.28587435119E+02  0.46164207188E+00 -0.51673466625E+02  0.59055920223E+02  0.51100000000E-03 0.  1.
         23    2    1    0    0    0 -0.10117950327E+01 -0.14547189326E+01 -0.31920291921E+02  0.93030561896E+02  0.87364984255E+02 0.  0.
         11    1    3    3    0    0  0.27575640086E+02 -0.19163610045E+01  0.19753174703E+02  0.33974641673E+02  0.51100000000E-03 0. -1.
         22    1    1    0    0    0  0.10117950327E+01  0.14547189326E+01  0.31920291921E+02  0.31969438104E+02  0.00000000000E+00 0.  1.
</event>
<event>
 5    1  0.8952932E-005  0.9118800E+02  0.7818608E-02  0.1130116E+00
         25   -1    0    0    0    0  0.00000000000E+00  0.00000000000E+00  0.99999998245E-14  0.12500000000E+03  0.12500000000E+03 0.  0.
        -11    1    3    3    0    0 -0.12177355888E+02 -0.43850593690E+02 -0.80948987365E+01  0.46224343686E+02  0.51100000000E-03 0.  1.
         23    2    1    0    0    0 -0.29961751925E+01  0.24324088834E+01 -0.27490433431E+02  0.97239999838E+02  0.93193347185E+02 0.  0.
         11    1    3    3    0    0  0.91811806952E+01  0.46283002574E+02 -0.19395534695E+02  0.51015656152E+02  0.51100000000E-03 0. -1.
         22    1    1    0    0    0  0.29961751925E+01 -0.24324088834E+01  0.27490433431E+02  0.27760000162E+02  0.00000000000E+00 0.  1.
</event>
<event>
 5    1  0.8952932E-005  0.9118800E+02  0.7818608E-02  0.1130116E+00
         25   -1    0    0    0    0  0.00000000000E+00  0.00000000000E+00  0.99999998245E-14  0.12500000000E+03  0.12500000000E+03 0.  0.
        -11    1    3    3    0    0 -0.18039339772E+01  0.23859007892E+02  0.57553587843E+02  0.62329141734E+02  0.51100000000E-03 0.  1.
         23    2    1    0    0    0  0.20727831369E+01  0.96973864867E+01  0.27233905882E+02  0.96016877942E+02  0.91538076698E+02 0.  0.
         11    1    3    3    0    0  0.38767171141E+01 -0.14161621405E+02 -0.30319681961E+02  0.33687736209E+02  0.51100000000E-03 0. -1.
         22    1    1    0    0    0 -0.20727831369E+01 -0.96973864867E+01 -0.27233905882E+02  0.28983122058E+02  0.00000000000E+00 0.  1.
</event>
<event>
 5    1  0.8952932E-005  0.9118800E+02  0.7818608E-02  0.1130116E+00
         25   -1    0    0    0    0  0.00000000000E+00  0.00000000000E+00  0.99999998245E-14  0.12500000000E+03  0.12500000000E+03 0.  0.
        -11    1    3    3    0    0 -0.10120898929E+02 -0.32748860582E+02  0.46955533987E+02  0.58135553982E+02  0.51100000000E-03 0.  1.
         23    2    1    0    0    0 -0.11312241437E+02  0.28220732423E+01  0.15275234052E+02  0.10578376522E+03  0.10402375356E+03 0.  0.
         11    1    3    3    0    0 -0.11913425085E+01  0.35570933825E+02 -0.31680299935E+02  0.47648211240E+02  0.51100000000E-03 0. -1.
         22    1    1    0    0    0  0.11312241437E+02 -0.28220732423E+01 -0.15275234052E+02  0.19216234778E+02  0.00000000000E+00 0. -1.
</event>
<event>
 5    1  0.8952932E-005  0.9118800E+02  0.7818608E-02  0.1130116E+00
         25   -1    0    0    0    0  0.00000000000E+00  0.00000000000E+00  0.99999998245E-14  0.12500000000E+03  0.12500000000E+03 0.  0.
        -11    1    3    3    0    0  0.36143946691E+02  0.46472007294E+02 -0.62130263720E+01  0.59199949673E+02  0.51100000000E-03 0.  1.
         23    2    1    0    0    0  0.62610560841E+01  0.30588199591E+02  0.82773455527E+00  0.93766621668E+02  0.88411851112E+02 0.  0.
         11    1    3    3    0    0 -0.29882890607E+02 -0.15883807703E+02  0.70407609273E+01  0.34566671995E+02  0.51100000000E-03 0. -1.
         22    1    1    0    0    0 -0.62610560841E+01 -0.30588199591E+02 -0.82773455527E+00  0.31233378332E+02  0.00000000000E+00 0.  1.
</event>
<event>
 5    1  0.8952932E-005  0.9118800E+02  0.7818608E-02  0.1130116E+00
         25   -1    0    0    0    0  0.00000000000E+00  0.00000000000E+00  0.99999998245E-14  0.12500000000E+03  0.12500000000E+03 0.  0.
        -11    1    3    3    0    0  0.36820814188E+02 -0.31328209909E+02  0.49934256683E+01  0.48602092483E+02  0.51100000000E-03 0. -1.
         23    2    1    0    0    0 -0.92559289652E+01 -0.27065277468E+02 -0.50510590178E+01  0.95953233181E+02  0.91451125173E+02 0.  0.
         11    1    3    3    0    0 -0.46076743153E+02  0.42629324412E+01 -0.10044484686E+02  0.47351140699E+02  0.51100000000E-03 0.  1.
         22    1    1    0    0    0  0.92559289652E+01  0.27065277468E+02  0.50510590178E+01  0.29046766819E+02  0.00000000000E+00 0.  1.
</event>
<event>
 5    1  0.8952932E-005  0.9118800E+02  0.7818608E-02  0.1130116E+00
         25   -1    0    0    0    0  0.00000000000E+00  0.00000000000E+00  0.99999998245E-14  0.12500000000E+03  0.12500000000E+03 0.  0.
        -11    1    3    3    0    0 -0.31893902224E+02  0.21417114066E+02 -0.26949006391E+02  0.46927206604E+02  0.51100000000E-03 0. -1.
         23    2    1    0    0    0  0.93376083539E+01  0.27349935650E+02 -0.84308896915E+00  0.96087706614E+02  0.91634745885E+02 0.  0.
         11    1    3    3    0    0  0.41231510578E+02  0.59328215845E+01  0.26105917422E+02  0.49160500010E+02  0.51100000000E-03 0.  1.
         22    1    1    0    0    0 -0.93376083539E+01 -0.27349935650E+02  0.84308896915E+00  0.28912293386E+02  0.00000000000E+00 0. -1.
</event>
<event>
 5    1  0.8952932E-005  0.9118800E+02  0.7818608E-02  0.1130116E+00
         25   -1    0    0    0    0  0.00000000000E+00  0.00000000000E+00  0.99999998245E-14  0.12500000000E+03  0.12500000000E+03 0.  0.
        -11    1    3    3    0    0 -0.43072098387E+02 -0.20777485742E+02  0.35813490449E+02  0.59745423855E+02  0.51100000000E-03 0.  1.
         23    2    1    0    0    0 -0.10722167682E+02 -0.18639884679E+02  0.19187193242E+02  0.96180587009E+02  0.91761357620E+02 0.  0.
         11    1    3    3    0    0  0.32349930705E+02  0.21376010634E+01 -0.16626297208E+02  0.36435163154E+02  0.51100000000E-03 0. -1.
         22    1    1    0    0    0  0.10722167682E+02  0.18639884679E+02 -0.19187193242E+02  0.28819412991E+02  0.00000000000E+00 0.  1.
</event>
<event>
 5    1  0.8952932E-005  0.9118800E+02  0.7818608E-02  0.1130116E+00
         25   -1    0    0    0    0  0.00000000000E+00  0.00000000000E+00  0.99999998245E-14  0.12500000000E+03  0.12500000000E+03 0.  0.
        -11    1    3    3    0    0  0.19305117869E+02 -0.26148154890E+02 -0.28762925548E+02  0.43401837132E+02  0.51100000000E-03 0. -1.
         23    2    1    0    0    0  0.19454643838E+02 -0.15285462651E+02  0.19891358972E+02  0.93254217648E+02  0.87684402331E+02 0.  0.
         11    1    3    3    0    0  0.14952596945E+00  0.10862692239E+02  0.48654284520E+02  0.49852380516E+02  0.51100000000E-03 0.  1.
         22    1    1    0    0    0 -0.19454643838E+02  0.15285462651E+02 -0.19891358972E+02  0.31745782352E+02  0.00000000000E+00 0. -1.
</event>
<event>
 5    1  0.8952932E-005  0.9118800E+02  0.7818608E-02  0.1130116E+00
         25   -1    0    0    0    0  0.00000000000E+00  0.00000000000E+00  0.99999998245E-14  0.12500000000E+03  0.12500000000E+03 0.  0.
        -11    1    3    3    0    0  0.25926589664E+02  0.11611680921E+02 -0.16954645538E+02  0.33082913883E+02  0.51100000000E-03 0.  1.
         23    2    1    0    0    0 -0.19765243561E+02 -0.55833606435E+01  0.21527620997E+02  0.95246391230E+02  0.90479819890E+02 0.  0.
         11    1    3    3    0    0 -0.45691833225E+02 -0.17195041565E+02  0.38482266535E+02  0.62163477346E+02  0.51100000000E-03 0. -1.
         22    1    1    0    0    0  0.19765243561E+02  0.55833606435E+01 -0.21527620997E+02  0.29753608770E+02  0.00000000000E+00 0. -1.
</event>
<event>
 5    1  0.8952932E-005  0.9118800E+02  0.7818608E-02  0.1130116E+00
         25   -1    0    0    0    0  0.00000000000E+00  0.00000000000E+00  0.99999998245E-14  0.12500000000E+03  0.12500000000E+03 0.  0.
        -11    1    3    3    0    0  0.33899106164E+02  0.27542546580E+01  0.51943433062E+02  0.62087483086E+02  0.51100000000E-03 0. -1.
         23    2    1    0    0    0  0.19832598508E+02  0.44398908031E+01  0.23033089682E+02  0.94282451038E+02  0.89138166683E+02 0.  0.
         11    1    3    3    0    0 -0.14066507656E+02  0.16856361451E+01 -0.28910343380E+02  0.32194967953E+02  0.51100000000E-03 0.  1.
         22    1    1    0    0    0 -0.19832598508E+02 -0.44398908031E+01 -0.23033089682E+02  0.30717548962E+02  0.00000000000E+00 0. -1.
</event>
<event>
 5    1  0.8952932E-005  0.9118800E+02  0.7818608E-02  0.1130116E+00
         25   -1    0    0    0    0  0.00000000000E+00  0.00000000000E+00  0.99999998245E-14  0.12500000000E+03  0.12500000000E+03 0.  0.
        -11    1    3    3    0    0  0.27705472106E+02 -0.25624641044E+02 -0.38586147945E+02  0.53973199152E+02  0.51100000000E-03 0.  1.
         23    2    1    0    0    0  0.15642103044E+02 -0.24898312516E+02  0.12171305150E+01  0.95570715937E+02  0.90926778148E+02 0.  0.
         11    1    3    3    0    0 -0.12063369062E+02  0.72632852852E+00  0.39803278460E+02  0.41597516785E+02  0.51100000000E-03 0. -1.
         22    1    1    0    0    0 -0.15642103044E+02  0.24898312516E+02 -0.12171305150E+01  0.29429284063E+02  0.00000000000E+00 0. -1.
</event>
<event>
 5    1  0.8952932E-005  0.9118800E+02  0.7818608E-02  0.1130116E+00
         25   -1    0    0    0    0  0.00000000000E+00  0.00000000000E+00  0.99999998245E-14  0.12500000000E+03  0.12500000000E+03 0.  0.
        -11    1    3    3    0    0 -0.14212976999E+02  0.16089606031E+02 -0.27037397120E+02  0.34523976896E+02  0.51100000000E-03 0. -1.
         23    2    1    0    0    0  0.36870271086E+01 -0.18508781064E+02  0.21259197077E+02  0.96572502647E+02  0.92293692427E+02 0.  0.
         11    1    3    3    0    0  0.17900004108E+02 -0.34598387095E+02  0.48296594197E+02  0.62048525752E+02  0.51100000000E-03 0.  1.
         22    1    1    0    0    0 -0.36870271086E+01  0.18508781064E+02 -0.21259197077E+02  0.28427497353E+02  0.00000000000E+00 0.  1.
</event>
<event>
 5    1  0.8952932E-005  0.9118800E+02  0.7818608E-02  0.1130116E+00
         25   -1    0    0    0    0  0.00000000000E+00  0.00000000000E+00  0.99999998245E-14  0.12500000000E+03  0.12500000000E+03 0.  0.
        -11    1    3    3    0    0 -0.45243521289E+02 -0.21270705450E+01 -0.13395535354E+02  0.47232838316E+02  0.51100000000E-03 0.  1.
         23    2    1    0    0    0 -0.10740413378E+02  0.26412018487E+02  0.57209256560E+01  0.95919419014E+02  0.91404894582E+02 0.  0.
         11    1    3    3    0    0  0.34503107910E+02  0.28539089032E+02  0.19116461010E+02  0.48686580698E+02  0.51100000000E-03 0. -1.
         22    1    1    0    0    0  0.10740413378E+02 -0.26412018487E+02 -0.57209256560E+01  0.29080580986E+02  0.00000000000E+00 0. -1.
</event>
<event>
 5    1  0.8952932E-005  0.9118800E+02  0.7818608E-02  0.1130116E+00
         25   -1    0    0    0    0  0.00000000000E+00  0.00000000000E+00  0.99999998245E-14  0.12500000000E+03  0.12500000000E+03 0.  0.
        -11    1    3    3    0    0 -0.34075423479E+02  0.29593347033E+01  0.48100640190E+02  0.59021722561E+02  0.51100000000E-03 0. -1.
         23    2    1    0    0    0 -0.10819424648E+02  0.14431982377E+02  0.27368095718E+02  0.92222649157E+02  0.86201289372E+02 0.  0.
         11    1    3    3    0    0  0.23255998832E+02  0.11472647673E+02 -0.20732544472E+02  0.33200926596E+02  0.51100000000E-03 0.  1.
         22    1    1    0    0    0  0.10819424648E+02 -0.14431982377E+02 -0.27368095718E+02  0.32777350843E+02  0.00000000000E+00 0. -1.
</event>
<event>
 5    1  0.8952932E-005  0.9118800E+02  0.7818608E-02  0.1130116E+00
         25   -1    0    0    0    0  0.00000000000E+00  0.00000000000E+00  0.99999998245E-14  0.12500000000E+03  0.12500000000E+03 0.  0.
        -11    1    3    3    0    0 -0.20270611663E+02 -0.78771450117E+01 -0.48172508530E+02  0.52853927849E+02  0.51100000000E-03 0. -1.
         23    2    1    0    0    0  0.15278858649E+01  0.18487889415E+02 -0.23638180781E+02  0.94951704194E+02  0.90071782754E+02 0.  0.
         11    1    3    3    0    0  0.21798497528E+02  0.26365034426E+02  0.24534327750E+02  0.42097776345E+02  0.51100000000E-03 0.  1.
         22    1    1    0    0    0 -0.15278858649E+01 -0.18487889415E+02  0.23638180781E+02  0.30048295806E+02  0.00000000000E+00 0.  1.
</event>
<event>
 5    1  0.8952932E-005  0.9118800E+02  0.7818608E-02  0.1130116E+00
         25   -1    0    0    0    0  0.00000000000E+00  0.00000000000E+00  0.99999998245E-14  0.12500000000E+03  0.12500000000E+03 0.  0.
        -11    1    3    3    0    0 -0.35336814389E+02  0.56935388208E+01 -0.34461424262E+02  0.49685979893E+02  0.51100000000E-03 0. -1.
         23    2    1    0    0    0 -0.67572023864E+01 -0.24481323897E+02 -0.12456882665E+02  0.96712742629E+02  0.92483434501E+02 0.  0.
         11    1    3    3    0    0  0.28579612003E+02 -0.30174862718E+02  0.22004541597E+02  0.47026762736E+02  0.51100000000E-03 0.  1.
         22    1    1    0    0    0  0.67572023864E+01  0.24481323897E+02  0.12456882665E+02  0.28287257371E+02  0.00000000000E+00 0. -1.
</event>
<event>
 5    1  0.8952932E-005  0.9118800E+02  0.7818608E-02  0.1130116E+00
         25   -1    0    0    0    0  0.00000000000E+00  0.00000000000E+00  0.99999998245E-14  0.12500000000E+03  0.12500000000E+03 0.  0.
        -11    1    3    3    0    0 -0.47027645238E+02 -0.31353054243E+02  0.25749645330E+02  0.62110044775E+02  0.51100000000E-03 0.  1.
         23    2    1    0    0    0 -0.22879638847E+02 -0.19638007540E+02  0.99806273238E+01  0.93239298879E+02  0.87663132044E+02 0.  0.
         11    1    3    3    0    0  0.24148006392E+02  0.11715046702E+02 -0.15769018007E+02  0.31129254104E+02  0.51100000000E-03 0. -1.
         22    1    1    0    0    0  0.22879638847E+02  0.19638007540E+02 -0.99806273238E+01  0.31760701121E+02  0.00000000000E+00 0.  1.
</event>
<event>
 5    1  0.8952932E-005  0.9118800E+02  0.7818608E-02  0.1130116E+00
         25   -1    0    0    0    0  0.00000000000E+00  0.00000000000E+00  0.99999998245E-14  0.12500000000E+03  0.12500000000E+03 0.  0.
        -11    1    3    3    0    0 -0.29941845249E+02  0.30072987144E+02  0.30227707441E+02  0.52101947662E+02  0.51100000000E-03 0.  1.
         23    2    1    0    0    0 -0.18880779450E+02 -0.58178526543E+01  0.29289198626E+02  0.89670290147E+02  0.82417064597E+02 0.  0.
         11    1    3    3    0    0  0.11061065800E+02 -0.35890839799E+02 -0.93850881555E+00  0.37568342486E+02  0.51100000000E-03 0. -1.
         22    1    1    0    0    0  0.18880779450E+02  0.58178526543E+01 -0.29289198626E+02  0.35329709853E+02  0.00000000000E+00 0.  1.
</event>
<event>
 5    1  0.8952932E-005  0.9118800E+02  0.7818608E-02  0.1130116E+00
         25   -1    0    0    0    0  0.00000000000E+00  0.00000000000E+00  0.99999998245E-14  0.12500000000E+03  0.12500000000E+03 0.  0.
        -11    1    3    3    0    0 -0.17733905133E+02  0.72893952510E+00  0.50080938952E+02  0.53133070593E+02  0.51100000000E-03 0.  1.
         23    2    1    0    0    0  0.16298118050E+02  0.12856846348E+01  0.23755966334E+02  0.96162046304E+02  0.91736097453E+02 0.  0.
         11    1    3    3    0    0  0.34032023183E+02  0.55674510968E+00 -0.26324972619E+02  0.43028975710E+02  0.51100000000E-03 0. -1.
         22    1    1    0    0    0 -0.16298118050E+02 -0.12856846348E+01 -0.23755966334E+02  0.28837953696E+02  0.00000000000E+00 0.  1.
</event>
<event>
 5    1  0.8952932E-005  0.9118800E+02  0.7818608E-02  0.1130116E+00
         25   -1    0    0    0    0  0.00000000000E+00  0.00000000000E+00  0.99999998245E-14  0.12500000000E+03  0.12500000000E+03 0.  0.
        -11    1    3    3    0    0 -0.45647709994E+02  0.26080517990E+02 -0.19327383928E+02  0.56012986137E+02  0.51100000000E-03 0. -1.
         23    2    1    0    0    0 -0.18653476771E+02  0.22099120642E+02  0.83704725884E+01  0.94893719258E+02  0.89991276324E+02 0.  0.
         11    1    3    3    0    0  0.26994233223E+02 -0.39813973477E+01  0.27697856516E+02  0.38880733120E+02  0.51100000000E-03 0.  1.
         22    1    1    0    0    0  0.18653476771E+02 -0.22099120642E+02 -0.83704725884E+01  0.30106280742E+02  0.00000000000E+00 0. -1.
</event>
<event>
 5    1  0.8952932E-005  0.9118800E+02  0.7818608E-02  0.1130116E+00
         25   -1    0    0    0    0  0.00000000000E+00  0.00000000000E+00  0.99999998245E-14  0.12500000000E+03  0.12500000000E+03 0.  0.
        -11    1    3    3    0    0  0.25507504262E+02 -0.77578615687E+01  0.27891247161E+02  0.38584178859E+02  0.51100000000E-03 0.  1.
         23    2    1    0    0    0  0.48738908216E+01  0.11389187038E+02 -0.24210748633E+02  0.97803883687E+02  0.93946638693E+02 0.  0.
         11    1    3    3    0    0 -0.20633613440E+02  0.19147048606E+02 -0.52101995794E+02  0.59219704828E+02  0.51100000000E-03 0. -1.
         22    1    1    0    0    0 -0.48738908216E+01 -0.11389187038E+02  0.24210748633E+02  0.27196116313E+02  0.00000000000E+00 0. -1.
</event>
<event>
 5    1  0.8952932E-005  0.9118800E+02  0.7818608E-02  0.1130116E+00
         25   -1    0    0    0    0  0.00000000000E+00  0.00000000000E+00  0.99999998245E-14  0.12500000000E+03  0.12500000000E+03 0.  0.
        -11    1    3    3    0    0  0.12603844902E+02  0.12187466183E+02 -0.18005680450E+02  0.25131569131E+02  0.51100000000E-03 0.  1.
         23    2    1    0    0    0 -0.28891495621E+02 -0.98073426277E+01  0.22451627395E+02  0.87118895723E+02  0.78452048607E+02 0.  0.
         11    1    3    3    0    0 -0.41495340522E+02 -0.21994808811E+02  0.40457307844E+02  0.61987326592E+02  0.51100000000E-03 0. -1.
         22    1    1    0    0    0  0.28891495621E+02  0.98073426277E+01 -0.22451627395E+02  0.37881104277E+02  0.00000000000E+00 0. -1.
</event>
<event>
 5    1  0.8952932E-005  0.9118800E+02  0.7818608E-02  0.1130116E+00
         25   -1    0    0    0    0  0.00000000000E+00  0.00000000000E+00  0.99999998245E-14  0.12500000000E+03  0.12500000000E+03 0.  0.
        -11    1    3    3    0    0  0.12721611891E+02 -0.48655376420E+02  0.31384130701E+02  0.59280255767E+02  0.51100000000E-03 0. -1.
         23    2    1    0    0    0  0.72226935270E+01 -0.10868834599E+02  0.23274751441E+02  0.98316429738E+02  0.94626145618E+02 0.  0.
         11    1    3    3    0    0 -0.54989183638E+01  0.37786541822E+02 -0.81093792603E+01  0.39036173970E+02  0.51100000000E-03 0.  1.
         22    1    1    0    0    0 -0.72226935270E+01  0.10868834599E+02 -0.23274751441E+02  0.26683570262E+02  0.00000000000E+00 0. -1.
</event>
<event>
 5    1  0.8952932E-005  0.9118800E+02  0.7818608E-02  0.1130116E+00
         25   -1    0    0    0    0  0.00000000000E+00  0.00000000000E+00  0.99999998245E-14  0.12500000000E+03  0.12500000000E+03 0.  0.
        -11    1    3    3    0    0 -0.24627325870E+02  0.17053176610E+02  0.17029822000E+02  0.34457667501E+02  0.51100000000E-03 0.  1.
         23    2    1    0    0    0  0.10606927826E+02 -0.62294992631E+01 -0.26915848750E+02  0.95406478870E+02  0.90700715088E+02 0.  0.
         11    1    3    3    0    0  0.35234253696E+02 -0.23282675873E+02 -0.43945670750E+02  0.60948811369E+02  0.51100000000E-03 0. -1.
         22    1    1    0    0    0 -0.10606927826E+02  0.62294992631E+01  0.26915848750E+02  0.29593521130E+02  0.00000000000E+00 0. -1.
</event>
<event>
 5    1  0.8952932E-005  0.9118800E+02  0.7818608E-02  0.1130116E+00
         25   -1    0    0    0    0  0.00000000000E+00  0.00000000000E+00  0.99999998245E-14  0.12500000000E+03  0.12500000000E+03 0.  0.
        -11    1    3    3    0    0  0.94139254576E+01  0.49839598400E+02  0.22871982907E+02  0.55639331084E+02  0.51100000000E-03 0. -1.
         23    2    1    0    0    0  0.42132017660E+01  0.42385883610E+02 -0.22409253572E+01  0.82346325539E+02  0.70438493629E+02 0.  0.
         11    1    3    3    0    0 -0.52007236916E+01 -0.74537147893E+01 -0.25112908264E+02  0.26706994455E+02  0.51100000000E-03 0.  1.
         22    1    1    0    0    0 -0.42132017660E+01 -0.42385883610E+02  0.22409253572E+01  0.42653674461E+02  0.00000000000E+00 0. -1.
</event>
<event>
 5    1  0.8952932E-005  0.9118800E+02  0.7818608E-02  0.1130116E+00
         25   -1    0    0    0    0  0.00000000000E+00  0.00000000000E+00  0.99999998245E-14  0.12500000000E+03  0.12500000000E+03 0.  0.
        -11    1    3    3    0    0  0.29112222155E+02 -0.16065539966E+02 -0.82784886948E+01  0.34265966038E+02  0.51100000000E-03 0.  1.
         23    2    1    0    0    0 -0.21211653625E+02 -0.13598110141E+02  0.20701602171E+02  0.92390198079E+02  0.86443909674E+02 0.  0.
         11    1    3    3    0    0 -0.50323875780E+02  0.24674298250E+01  0.28980090865E+02  0.58124232041E+02  0.51100000000E-03 0. -1.
         22    1    1    0    0    0  0.21211653625E+02  0.13598110141E+02 -0.20701602171E+02  0.32609801921E+02  0.00000000000E+00 0. -1.
</event>
<event>
 5    1  0.8952932E-005  0.9118800E+02  0.7818608E-02  0.1130116E+00
         25   -1    0    0    0    0  0.00000000000E+00  0.00000000000E+00  0.99999998245E-14  0.12500000000E+03  0.12500000000E+03 0.  0.
        -11    1    3    3    0    0  0.21380034357E+02  0.27085706145E+02  0.38127101405E+02  0.51423897249E+02  0.51100000000E-03 0.  1.
         23    2    1    0    0    0  0.34536935767E+01  0.26525307074E+02 -0.46874261415E+01  0.97843198301E+02  0.93998933905E+02 0.  0.
         11    1    3    3    0    0 -0.17926340781E+02 -0.56039907116E+00 -0.42814527546E+02  0.46419301052E+02  0.51100000000E-03 0. -1.
         22    1    1    0    0    0 -0.34536935767E+01 -0.26525307074E+02  0.46874261415E+01  0.27156801699E+02  0.00000000000E+00 0.  1.
</event>
<event>
 5    1  0.8952932E-005  0.9118800E+02  0.7818608E-02  0.1130116E+00
         25   -1    0    0    0    0  0.00000000000E+00  0.00000000000E+00  0.99999998245E-14  0.12500000000E+03  0.12500000000E+03 0.  0.
        -11    1    3    3    0    0  0.36035011610E+02 -0.32008588452E+02  0.35124988939E+02  0.59639220691E+02  0.51100000000E-03 0.  1.
         23    2    1    0    0    0  0.55593139134E+01 -0.21372687028E+02  0.19667862233E+02  0.95427672956E+02  0.90729919205E+02 0.  0.
         11    1    3    3    0    0 -0.30475697697E+02  0.10635901424E+02 -0.15457126706E+02  0.35788452264E+02  0.51100000000E-03 0. -1.
         22    1    1    0    0    0 -0.55593139134E+01  0.21372687028E+02 -0.19667862233E+02  0.29572327044E+02  0.00000000000E+00 0.  1.
</event>
<event>
 5    1  0.8952932E-005  0.9118800E+02  0.7818608E-02  0.1130116E+00
         25   -1    0    0    0    0  0.00000000000E+00  0.00000000000E+00  0.99999998245E-14  0.12500000000E+03  0.12500000000E+03 0.  0.
        -11    1    3    3    0    0  0.29771286404E+02  0.41336131412E+02  0.92950627905E+01  0.51782269618E+02  0.51100000000E-03 0. -1.
         23    2    1    0    0    0  0.49011942990E+01  0.76306000173E+01  0.26443683287E+02  0.97044389687E+02  0.92930605410E+02 0.  0.
         11    1    3    3    0    0 -0.24870092105E+02 -0.33705531395E+02  0.17148620496E+02  0.45262120069E+02  0.51100000000E-03 0.  1.
         22    1    1    0    0    0 -0.49011942990E+01 -0.76306000173E+01 -0.26443683287E+02  0.27955610313E+02  0.00000000000E+00 0. -1.
</event>
<event>
 5    1  0.8952932E-005  0.9118800E+02  0.7818608E-02  0.1130116E+00
         25   -1    0    0    0    0  0.00000000000E+00  0.00000000000E+00  0.99999998245E-14  0.12500000000E+03  0.12500000000E+03 0.  0.
        -11    1    3    3    0    0  0.14191233209E+02  0.45136275281E+02  0.69334888238E+01  0.47819951001E+02  0.51100000000E-03 0.  1.
         23    2    1    0    0    0  0.27238013831E+02  0.93822884026E+00 -0.85518791627E+01  0.96435611191E+02  0.92108103866E+02 0.  0.
         11    1    3    3    0    0  0.13046780622E+02 -0.44198046440E+02 -0.15485367987E+02  0.48615660190E+02  0.51100000000E-03 0. -1.
         22    1    1    0    0    0 -0.27238013831E+02 -0.93822884026E+00  0.85518791627E+01  0.28564388809E+02  0.00000000000E+00 0. -1.
</event>
<event>
 5    1  0.8952932E-005  0.9118800E+02  0.7818608E-02  0.1130116E+00
         25   -1    0    0    0    0  0.00000000000E+00  0.00000000000E+00  0.99999998245E-14  0.12500000000E+03  0.12500000000E+03 0.  0.
        -11    1    3    3    0    0  0.24559129300E+02  0.55219141247E+01  0.53257150919E+02  0.58906421482E+02  0.51100000000E-03 0.  1.
         23    2    1    0    0    0  0.22532666381E+02  0.73572012547E+01  0.15687121382E+02  0.96575798309E+02  0.92298155871E+02 0.  0.
         11    1    3    3    0    0 -0.20264629193E+01  0.18352871300E+01 -0.37570029537E+02  0.37669376827E+02  0.51100000000E-03 0. -1.
         22    1    1    0    0    0 -0.22532666381E+02 -0.73572012547E+01 -0.15687121382E+02  0.28424201691E+02  0.00000000000E+00 0.  1.
</event>
<event>
 5    1  0.8952932E-005  0.9118800E+02  0.7818608E-02  0.1130116E+00
         25   -1    0    0    0    0  0.00000000000E+00  0.00000000000E+00  0.99999998245E-14  0.12500000000E+03  0.12500000000E+03 0.  0.
        -11    1    3    3    0    0 -0.37257693366E+02  0.38318027228E+02  0.26600836950E+02  0.59699342142E+02  0.51100000000E-03 0.  1.
         23    2    1    0    0    0 -0.18684593718E+02  0.18604794717E+02 -0.13210908206E+01  0.98599285809E+02  0.94999060270E+02 0.  0.
         11    1    3    3    0    0  0.18573099648E+02 -0.19713232510E+02 -0.27921927771E+02  0.38899943666E+02  0.51100000000E-03 0. -1.
         22    1    1    0    0    0  0.18684593718E+02 -0.18604794717E+02  0.13210908206E+01  0.26400714191E+02  0.00000000000E+00 0.  1.
</event>
<event>
 5    1  0.8952932E-005  0.9118800E+02  0.7818608E-02  0.1130116E+00
         25   -1    0    0    0    0  0.00000000000E+00  0.00000000000E+00  0.99999998245E-14  0.12500000000E+03  0.12500000000E+03 0.  0.
        -11    1    3    3    0    0  0.17629452190E+01 -0.21712275050E+02  0.53697031621E+02  0.57947407784E+02  0.51100000000E-03 0.  1.
         23    2    1    0    0    0  0.27678719362E+01  0.50051746762E+01  0.32316425746E+02  0.92181342782E+02  0.86141370406E+02 0.  0.
         11    1    3    3    0    0  0.10049267171E+01  0.26717449726E+02 -0.21380605875E+02  0.34233934998E+02  0.51100000000E-03 0. -1.
         22    1    1    0    0    0 -0.27678719362E+01 -0.50051746762E+01 -0.32316425746E+02  0.32818657218E+02  0.00000000000E+00 0.  1.
</event>
<event>
 5    1  0.8952932E-005  0.9118800E+02  0.7818608E-02  0.1130116E+00
         25   -1    0    0    0    0  0.00000000000E+00  0.00000000000E+00  0.99999998245E-14  0.12500000000E+03  0.12500000000E+03 0.  0.
        -11    1    3    3    0    0  0.37568234159E+01 -0.18727602401E+02 -0.41097395371E+02  0.45319231243E+02  0.51100000000E-03 0. -1.
         23    2    1    0    0    0 -0.20814818669E+02 -0.19858659506E+02  0.32672677360E+01  0.96046622441E+02  0.91578685350E+02 0.  0.
         11    1    3    3    0    0 -0.24571642085E+02 -0.11310571050E+01  0.44364663107E+02  0.50727391199E+02  0.51100000000E-03 0.  1.
         22    1    1    0    0    0  0.20814818669E+02  0.19858659506E+02 -0.32672677360E+01  0.28953377559E+02  0.00000000000E+00 0. -1.
</event>
<event>
 5    1  0.8952932E-005  0.9118800E+02  0.7818608E-02  0.1130116E+00
         25   -1    0    0    0    0  0.00000000000E+00  0.00000000000E+00  0.99999998245E-14  0.12500000000E+03  0.12500000000E+03 0.  0.
        -11    1    3    3    0    0  0.73194251921E+01 -0.19682402222E+02 -0.47482173232E+02  0.51918471833E+02  0.51100000000E-03 0.  1.
         23    2    1    0    0    0  0.19583849639E+02 -0.20700729747E+02 -0.51005944395E+01  0.96050674578E+02  0.91584216132E+02 0.  0.
         11    1    3    3    0    0  0.12264424447E+02 -0.10183275254E+01  0.42381578792E+02  0.44132202745E+02  0.51100000000E-03 0. -1.
         22    1    1    0    0    0 -0.19583849639E+02  0.20700729747E+02  0.51005944395E+01  0.28949325422E+02  0.00000000000E+00 0.  1.
</event>
<event>
 5    1  0.8952932E-005  0.9118800E+02  0.7818608E-02  0.1130116E+00
         25   -1    0    0    0    0  0.00000000000E+00  0.00000000000E+00  0.99999998245E-14  0.12500000000E+03  0.12500000000E+03 0.  0.
        -11    1    3    3    0    0  0.16682549821E+02  0.71293229682E+01  0.45489637249E+02  0.48973889082E+02  0.51100000000E-03 0.  1.
         23    2    1    0    0    0  0.23560481849E+02  0.17940661858E+02  0.89504474401E+00  0.95372905003E+02  0.90654433156E+02 0.  0.
         11    1    3    3    0    0  0.68779320274E+01  0.10811338890E+02 -0.44594592505E+02  0.46399015921E+02  0.51100000000E-03 0. -1.
         22    1    1    0    0    0 -0.23560481849E+02 -0.17940661858E+02 -0.89504474401E+00  0.29627094997E+02  0.00000000000E+00 0. -1.
</event>
<event>
 5    1  0.8952932E-005  0.9118800E+02  0.7818608E-02  0.1130116E+00
         25   -1    0    0    0    0  0.00000000000E+00  0.00000000000E+00  0.99999998245E-14  0.12500000000E+03  0.12500000000E+03 0.  0.
        -11    1    3    3    0    0 -0.29921213197E+02  0.22129824942E+01 -0.13655205921E+02  0.32964237284E+02  0.51100000000E-03 0.  1.
         23    2    1    0    0    0  0.84808939468E+01  0.33007138491E+02  0.12493879515E+02  0.88702702872E+02  0.80936244773E+02 0.  0.
         11    1    3    3    0    0  0.38402107144E+02  0.30794155997E+02  0.26149085436E+02  0.55738465588E+02  0.51100000000E-03 0. -1.
         22    1    1    0    0    0 -0.84808939468E+01 -0.33007138491E+02 -0.12493879515E+02  0.36297297128E+02  0.00000000000E+00 0. -1.
</event>
<event>
 5    1  0.8952932E-005  0.9118800E+02  0.7818608E-02  0.1130116E+00
         25   -1    0    0    0    0  0.00000000000E+00  0.00000000000E+00  0.99999998245E-14  0.12500000000E+03  0.12500000000E+03 0.  0.
        -11    1    3    3    0    0  0.30112276742E+02 -0.46177555825E+02  0.24354716137E+02  0.60268300714E+02  0.51100000000E-03 0.  1.
         23    2    1    0    0    0  0.32228107129E+01 -0.24138443703E+02  0.15456993478E+02  0.96156116408E+02  0.91728016995E+02 0.  0.
         11    1    3    3    0    0 -0.26889466029E+02  0.22039112122E+02 -0.88977226590E+01  0.35887815693E+02  0.51100000000E-03 0. -1.
         22    1    1    0    0    0 -0.32228107129E+01  0.24138443703E+02 -0.15456993478E+02  0.28843883592E+02  0.00000000000E+00 0.  1.
</event>
<event>
 5    1  0.8952932E-005  0.9118800E+02  0.7818608E-02  0.1130116E+00
         25   -1    0    0    0    0  0.00000000000E+00  0.00000000000E+00  0.99999998245E-14  0.12500000000E+03  0.12500000000E+03 0.  0.
        -11    1    3    3    0    0 -0.18898968245E+02  0.56102682018E+02  0.10833749985E+01  0.59210266272E+02  0.51100000000E-03 0.  1.
         23    2    1    0    0    0  0.53241108768E+01  0.28696946862E+02  0.12406155962E+01  0.95786988466E+02  0.91223610521E+02 0.  0.
         11    1    3    3    0    0  0.24223079121E+02 -0.27405735156E+02  0.15724059770E+00  0.36576722194E+02  0.51100000000E-03 0. -1.
         22    1    1    0    0    0 -0.53241108768E+01 -0.28696946862E+02 -0.12406155962E+01  0.29213011534E+02  0.00000000000E+00 0.  1.
</event>
<event>
 5    1  0.8952932E-005  0.9118800E+02  0.7818608E-02  0.1130116E+00
         25   -1    0    0    0    0  0.00000000000E+00  0.00000000000E+00  0.99999998245E-14  0.12500000000E+03  0.12500000000E+03 0.  0.
        -11    1    3    3    0    0 -0.37598035945E+02 -0.64954369287E+01 -0.10615500407E+02  0.39604189892E+02  0.51100000000E-03 0.  1.
         23    2    1    0    0    0  0.11153359635E+02  0.98668321727E+01  0.20464694226E+02  0.99690801711E+02  0.96424584146E+02 0.  0.
         11    1    3    3    0    0  0.48751395580E+02  0.16362269101E+02  0.31080194634E+02  0.60086611819E+02  0.51100000000E-03 0. -1.
         22    1    1    0    0    0 -0.11153359635E+02 -0.98668321727E+01 -0.20464694226E+02  0.25309198289E+02  0.00000000000E+00 0. -1.
</event>
<event>
 5    1  0.8952932E-005  0.9118800E+02  0.7818608E-02  0.1130116E+00
         25   -1    0    0    0    0  0.00000000000E+00  0.00000000000E+00  0.99999998245E-14  0.12500000000E+03  0.12500000000E+03 0.  0.
        -11    1    3    3    0    0  0.23124954924E+02  0.29833965991E+02 -0.15577530872E+01  0.37779037335E+02  0.51100000000E-03 0.  1.
         23    2    1    0    0    0  0.40510809876E+01 -0.21519890825E+02 -0.19759081011E+02  0.95505284530E+02  0.90836782926E+02 0.  0.
         11    1    3    3    0    0 -0.19073873936E+02 -0.51353856816E+02 -0.18201327924E+02  0.57726247195E+02  0.51100000000E-03 0. -1.
         22    1    1    0    0    0 -0.40510809876E+01  0.21519890825E+02  0.19759081011E+02  0.29494715470E+02  0.00000000000E+00 0. -1.
</event>
<event>
 5    1  0.8952932E-005  0.9118800E+02  0.7818608E-02  0.1130116E+00
         25   -1    0    0    0    0  0.00000000000E+00  0.00000000000E+00  0.99999998245E-14  0.12500000000E+03  0.12500000000E+03 0.  0.
        -11    1    3    3    0    0  0.72820717571E+01  0.31989991764E+02  0.23007965170E+02  0.40071867983E+02  0.51100000000E-03 0.  1.
         23    2    1    0    0    0 -0.26106316027E+02 -0.10081988462E+02  0.63940332474E+01  0.96293382487E+02  0.91914882483E+02 0.  0.
         11    1    3    3    0    0 -0.33388387784E+02 -0.42071980226E+02 -0.16613931923E+02  0.56221514504E+02  0.51100000000E-03 0. -1.
         22    1    1    0    0    0  0.26106316027E+02  0.10081988462E+02 -0.63940332474E+01  0.28706617513E+02  0.00000000000E+00 0. -1.
</event>
<event>
 5    1  0.8952932E-005  0.9118800E+02  0.7818608E-02  0.1130116E+00
         25   -1    0    0    0    0  0.00000000000E+00  0.00000000000E+00  0.99999998245E-14  0.12500000000E+03  0.12500000000E+03 0.  0.
        -11    1    3    3    0    0  0.25611814617E+02  0.11560428303E+02 -0.30630123561E+02  0.41566970302E+02  0.51100000000E-03 0. -1.
         23    2    1    0    0    0 -0.78961674738E+01  0.24069827286E+02  0.11794612388E+02  0.97056862601E+02  0.92947381083E+02 0.  0.
         11    1    3    3    0    0 -0.33507982091E+02  0.12509398983E+02  0.42424735948E+02  0.55489892298E+02  0.51100000000E-03 0.  1.
         22    1    1    0    0    0  0.78961674738E+01 -0.24069827286E+02 -0.11794612388E+02  0.27943137399E+02  0.00000000000E+00 0.  1.
</event>
<event>
 5    1  0.8952932E-005  0.9118800E+02  0.7818608E-02  0.1130116E+00
         25   -1    0    0    0    0  0.00000000000E+00  0.00000000000E+00  0.99999998245E-14  0.12500000000E+03  0.12500000000E+03 0.  0.
        -11    1    3    3    0    0  0.12513071252E+02 -0.36615276856E+02  0.31067950777E+02  0.49623311227E+02  0.51100000000E-03 0.  1.
         23    2    1    0    0    0 -0.17521648338E+02 -0.27417135084E+01  0.23556769807E+02  0.95513620820E+02  0.90848253725E+02 0.  0.
         11    1    3    3    0    0 -0.30034719590E+02  0.33873563347E+02 -0.75111809704E+01  0.45890309593E+02  0.51100000000E-03 0. -1.
         22    1    1    0    0    0  0.17521648338E+02  0.27417135084E+01 -0.23556769807E+02  0.29486379180E+02  0.00000000000E+00 0.  1.
</event>
<event>
 5    1  0.8952932E-005  0.9118800E+02  0.7818608E-02  0.1130116E+00
         25   -1    0    0    0    0  0.00000000000E+00  0.00000000000E+00  0.99999998245E-14  0.12500000000E+03  0.12500000000E+03 0.  0.
        -11    1    3    3    0    0  0.23427205316E+02 -0.17447501224E-01  0.47744465566E+02  0.53182405415E+02  0.51100000000E-03 0.  1.
         23    2    1    0    0    0 -0.11497646323E+02 -0.86774492201E+01  0.26143531040E+02  0.95150741865E+02  0.90347581408E+02 0.  0.
         11    1    3    3    0    0 -0.34924851639E+02 -0.86600017189E+01 -0.21600934525E+02  0.41968336450E+02  0.51100000000E-03 0. -1.
         22    1    1    0    0    0  0.11497646323E+02  0.86774492201E+01 -0.26143531040E+02  0.29849258135E+02  0.00000000000E+00 0.  1.
</event>
<event>
 5    1  0.8952932E-005  0.9118800E+02  0.7818608E-02  0.1130116E+00
         25   -1    0    0    0    0  0.00000000000E+00  0.00000000000E+00  0.99999998245E-14  0.12500000000E+03  0.12500000000E+03 0.  0.
        -11    1    3    3    0    0  0.92174163495E+01 -0.39970968187E+02  0.85213546874E+00  0.41028833728E+02  0.51100000000E-03 0. -1.
         23    2    1    0    0    0 -0.26671961255E+02 -0.26540218781E+01 -0.13821495009E+02  0.94842561886E+02  0.89920189454E+02 0.  0.
         11    1    3    3    0    0 -0.35889377604E+02  0.37316946309E+02 -0.14673630478E+02  0.53813728158E+02  0.51100000000E-03 0.  1.
         22    1    1    0    0    0  0.26671961255E+02  0.26540218781E+01  0.13821495009E+02  0.30157438114E+02  0.00000000000E+00 0.  1.
</event>
<event>
 5    1  0.8952932E-005  0.9118800E+02  0.7818608E-02  0.1130116E+00
         25   -1    0    0    0    0  0.00000000000E+00  0.00000000000E+00  0.99999998245E-14  0.12500000000E+03  0.12500000000E+03 0.  0.
        -11    1    3    3    0    0  0.88098044791E+01  0.33896034923E+02 -0.24879573825E+02  0.42959830452E+02  0.51100000000E-03 0.  1.
         23    2    1    0    0    0 -0.17438616755E+02  0.15756560521E+02  0.17277636422E+02  0.95829959306E+02  0.91282472723E+02 0.  0.
         11    1    3    3    0    0 -0.26248421234E+02 -0.18139474403E+02  0.42157210247E+02  0.52870128854E+02  0.51100000000E-03 0. -1.
         22    1    1    0    0    0  0.17438616755E+02 -0.15756560521E+02 -0.17277636422E+02  0.29170040694E+02  0.00000000000E+00 0. -1.
</event>
<event>
 5    1  0.8952932E-005  0.9118800E+02  0.7818608E-02  0.1130116E+00
         25   -1    0    0    0    0  0.00000000000E+00  0.00000000000E+00  0.99999998245E-14  0.12500000000E+03  0.12500000000E+03 0.  0.
        -11    1    3    3    0    0  0.27615720907E+02  0.45888446435E+02 -0.31471497378E+02  0.62119503418E+02  0.51100000000E-03 0. -1.
         23    2    1    0    0    0  0.95578656701E+01  0.20895529011E+02 -0.18196921500E+02  0.95689526089E+02  0.91089963894E+02 0.  0.
         11    1    3    3    0    0 -0.18057855237E+02 -0.24992917424E+02  0.13274575878E+02  0.33570022671E+02  0.51100000000E-03 0.  1.
         22    1    1    0    0    0 -0.95578656701E+01 -0.20895529011E+02  0.18196921500E+02  0.29310473911E+02  0.00000000000E+00 0. -1.
</event>
<event>
 5    1  0.8952932E-005  0.9118800E+02  0.7818608E-02  0.1130116E+00
         25   -1    0    0    0    0  0.00000000000E+00  0.00000000000E+00  0.99999998245E-14  0.12500000000E+03  0.12500000000E+03 0.  0.
        -11    1    3    3    0    0 -0.31841995291E+02 -0.11822686600E+02  0.16911458957E+02  0.37943194737E+02  0.51100000000E-03 0.  1.
         23    2    1    0    0    0  0.19712515894E+02 -0.10265779235E+02 -0.14621166236E+02  0.98396466245E+02  0.94731813881E+02 0.  0.
         11    1    3    3    0    0  0.51554511185E+02  0.15569073655E+01 -0.31532625193E+02  0.60453271507E+02  0.51100000000E-03 0. -1.
         22    1    1    0    0    0 -0.19712515894E+02  0.10265779235E+02  0.14621166236E+02  0.26603533755E+02  0.00000000000E+00 0. -1.
</event>
<event>
 5    1  0.8952932E-005  0.9118800E+02  0.7818608E-02  0.1130116E+00
         25   -1    0    0    0    0  0.00000000000E+00  0.00000000000E+00  0.99999998245E-14  0.12500000000E+03  0.12500000000E+03 0.  0.
        -11    1    3    3    0    0 -0.52351773636E+02  0.60838601659E+01  0.31133010657E+02  0.61212628682E+02  0.51100000000E-03 0. -1.
         23    2    1    0    0    0 -0.26579070624E+02 -0.52893155573E+01  0.11440050656E+02  0.95584041519E+02  0.90945095414E+02 0.  0.
         11    1    3    3    0    0  0.25772703011E+02 -0.11373175723E+02 -0.19692960002E+02  0.34371412837E+02  0.51100000000E-03 0.  1.
         22    1    1    0    0    0  0.26579070624E+02  0.52893155573E+01 -0.11440050656E+02  0.29415958481E+02  0.00000000000E+00 0. -1.
</event>
<event>
 5    1  0.8952932E-005  0.9118800E+02  0.7818608E-02  0.1130116E+00
         25   -1    0    0    0    0  0.00000000000E+00  0.00000000000E+00  0.99999998245E-14  0.12500000000E+03  0.12500000000E+03 0.  0.
        -11    1    3    3    0    0  0.14154744617E+02  0.35548209793E+02  0.21843992171E+02  0.44058960597E+02  0.51100000000E-03 0. -1.
         23    2    1    0    0    0  0.58816377907E+01  0.22113994267E+01 -0.23347257680E+02  0.10082194400E+03  0.97879957097E+02 0.  0.
         11    1    3    3    0    0 -0.82731068267E+01 -0.33336810366E+02 -0.45191249851E+02  0.56762983408E+02  0.51100000000E-03 0.  1.
         22    1    1    0    0    0 -0.58816377907E+01 -0.22113994267E+01  0.23347257680E+02  0.24178055995E+02  0.00000000000E+00 0.  1.
</event>
<event>
 5    1  0.8952932E-005  0.9118800E+02  0.7818608E-02  0.1130116E+00
         25   -1    0    0    0    0  0.00000000000E+00  0.00000000000E+00  0.99999998245E-14  0.12500000000E+03  0.12500000000E+03 0.  0.
        -11    1    3    3    0    0  0.36203083380E+02 -0.27899555682E+02 -0.20315519698E+02  0.50017684815E+02  0.51100000000E-03 0.  1.
         23    2    1    0    0    0 -0.11115461112E+02 -0.20943826209E+02 -0.20986282588E+01  0.10119660586E+03  0.98357264424E+02 0.  0.
         11    1    3    3    0    0 -0.47318544492E+02  0.69557294724E+01  0.18216891439E+02  0.51178921045E+02  0.51100000000E-03 0. -1.
         22    1    1    0    0    0  0.11115461112E+02  0.20943826209E+02  0.20986282588E+01  0.23803394140E+02  0.00000000000E+00 0. -1.
</event>
<event>
 5    1  0.8952932E-005  0.9118800E+02  0.7818608E-02  0.1130116E+00
         25   -1    0    0    0    0  0.00000000000E+00  0.00000000000E+00  0.99999998245E-14  0.12500000000E+03  0.12500000000E+03 0.  0.
        -11    1    3    3    0    0 -0.15822397884E+02  0.37545812350E+02  0.54268441732E+00  0.40747157036E+02  0.51100000000E-03 0. -1.
         23    2    1    0    0    0 -0.14639956223E+02 -0.18554307513E+02 -0.12366678644E+02  0.98325566807E+02  0.94638214806E+02 0.  0.
         11    1    3    3    0    0  0.11824416612E+01 -0.56100119863E+02 -0.12909363061E+02  0.57578409771E+02  0.51100000000E-03 0.  1.
         22    1    1    0    0    0  0.14639956223E+02  0.18554307513E+02  0.12366678644E+02  0.26674433193E+02  0.00000000000E+00 0.  1.
</event>
<event>
 5    1  0.8952932E-005  0.9118800E+02  0.7818608E-02  0.1130116E+00
         25   -1    0    0    0    0  0.00000000000E+00  0.00000000000E+00  0.99999998245E-14  0.12500000000E+03  0.12500000000E+03 0.  0.
        -11    1    3    3    0    0 -0.37166908685E+01  0.40782198869E+01 -0.51225070963E+02  0.51521389383E+02  0.51100000000E-03 0.  1.
         23    2    1    0    0    0  0.23051360187E+02  0.66165141888E+01 -0.14717704888E+02  0.96861871000E+02  0.92684776258E+02 0.  0.
         11    1    3    3    0    0  0.26768051055E+02  0.25382943019E+01  0.36507366075E+02  0.45340481617E+02  0.51100000000E-03 0. -1.
         22    1    1    0    0    0 -0.23051360187E+02 -0.66165141888E+01  0.14717704888E+02  0.28138129000E+02  0.00000000000E+00 0.  1.
</event>
<event>
 5    1  0.8952932E-005  0.9118800E+02  0.7818608E-02  0.1130116E+00
         25   -1    0    0    0    0  0.00000000000E+00  0.00000000000E+00  0.99999998245E-14  0.12500000000E+03  0.12500000000E+03 0.  0.
        -11    1    3    3    0    0 -0.87430166772E+00 -0.61100738189E+02 -0.31454226441E+01  0.61187893366E+02  0.51100000000E-03 0. -1.
         23    2    1    0    0    0  0.44352384854E+01 -0.27957052637E+02  0.61821990614E+01  0.96026085563E+02  0.91550649319E+02 0.  0.
         11    1    3    3    0    0  0.53095401531E+01  0.33143685552E+02  0.93276217055E+01  0.34838192197E+02  0.51100000000E-03 0.  1.
         22    1    1    0    0    0 -0.44352384854E+01  0.27957052637E+02 -0.61821990614E+01  0.28973914437E+02  0.00000000000E+00 0. -1.
</event>
<event>
 5    1  0.8952932E-005  0.9118800E+02  0.7818608E-02  0.1130116E+00
         25   -1    0    0    0    0  0.00000000000E+00  0.00000000000E+00  0.99999998245E-14  0.12500000000E+03  0.12500000000E+03 0.  0.
        -11    1    3    3    0    0 -0.45304493603E+02 -0.60641899444E+01 -0.88098113169E+00  0.45717039147E+02  0.51100000000E-03 0. -1.
         23    2    1    0    0    0  0.42114647340E+00 -0.27688033591E+02 -0.63418310756E+01  0.96591842899E+02  0.92319882608E+02 0.  0.
         11    1    3    3    0    0  0.45725640077E+02 -0.21623843647E+02 -0.54608499439E+01  0.50874803752E+02  0.51100000000E-03 0.  1.
         22    1    1    0    0    0 -0.42114647340E+00  0.27688033591E+02  0.63418310756E+01  0.28408157101E+02  0.00000000000E+00 0. -1.
</event>
<event>
 5    1  0.8952932E-005  0.9118800E+02  0.7818608E-02  0.1130116E+00
         25   -1    0    0    0    0  0.00000000000E+00  0.00000000000E+00  0.99999998245E-14  0.12500000000E+03  0.12500000000E+03 0.  0.
        -11    1    3    3    0    0 -0.13384597787E+02  0.22414722622E+02  0.25502226997E+02  0.36495627549E+02  0.51100000000E-03 0.  1.
         23    2    1    0    0    0  0.43916120337E+01 -0.29485641582E+02  0.71553588919E+01  0.94342399366E+02  0.89222193660E+02 0.  0.
         11    1    3    3    0    0  0.17776209820E+02 -0.51900364204E+02 -0.18346868105E+02  0.57846771817E+02  0.51100000000E-03 0. -1.
         22    1    1    0    0    0 -0.43916120337E+01  0.29485641582E+02 -0.71553588919E+01  0.30657600634E+02  0.00000000000E+00 0. -1.
</event>
<event>
 5    1  0.8952932E-005  0.9118800E+02  0.7818608E-02  0.1130116E+00
         25   -1    0    0    0    0  0.00000000000E+00  0.00000000000E+00  0.99999998245E-14  0.12500000000E+03  0.12500000000E+03 0.  0.
        -11    1    3    3    0    0 -0.44657326730E+02  0.10255462204E+02  0.36949588266E+02  0.58861901167E+02  0.51100000000E-03 0.  1.
         23    2    1    0    0    0 -0.24133198332E+02  0.15824930049E+02  0.75088384119E+01  0.95180168896E+02  0.90388285878E+02 0.  0.
         11    1    3    3    0    0  0.20524128398E+02  0.55694678452E+01 -0.29440749855E+02  0.36318267729E+02  0.51100000000E-03 0. -1.
         22    1    1    0    0    0  0.24133198332E+02 -0.15824930049E+02 -0.75088384119E+01  0.29819831104E+02  0.00000000000E+00 0.  1.
</event>
<event>
 5    1  0.8952932E-005  0.9118800E+02  0.7818608E-02  0.1130116E+00
         25   -1    0    0    0    0  0.00000000000E+00  0.00000000000E+00  0.99999998245E-14  0.12500000000E+03  0.12500000000E+03 0.  0.
        -11    1    3    3    0    0  0.27706193093E+02  0.16197441204E+02 -0.26544789070E+02  0.41648722241E+02  0.51100000000E-03 0.  1.
         23    2    1    0    0    0 -0.21546067500E+02 -0.33480503965E+01 -0.20657879024E+02  0.94963514987E+02  0.90088172069E+02 0.  0.
         11    1    3    3    0    0 -0.49252260593E+02 -0.19545491601E+02  0.58869100465E+01  0.53314792746E+02  0.51100000000E-03 0. -1.
         22    1    1    0    0    0  0.21546067500E+02  0.33480503965E+01  0.20657879024E+02  0.30036485013E+02  0.00000000000E+00 0. -1.
</event>
<event>
 5    1  0.8952932E-005  0.9118800E+02  0.7818608E-02  0.1130116E+00
         25   -1    0    0    0    0  0.00000000000E+00  0.00000000000E+00  0.99999998245E-14  0.12500000000E+03  0.12500000000E+03 0.  0.
        -11    1    3    3    0    0 -0.14930824960E+02  0.11320621203E+02 -0.56298063671E+02  0.59334290016E+02  0.51100000000E-03 0. -1.
         23    2    1    0    0    0 -0.16276957073E+02  0.19342089773E+02 -0.37989665301E+02  0.79368098462E+02  0.64938621909E+02 0.  0.
         11    1    3    3    0    0 -0.13461321135E+01  0.80214685706E+01  0.18308398370E+02  0.20033808446E+02  0.51100000000E-03 0.  1.
         22    1    1    0    0    0  0.16276957073E+02 -0.19342089773E+02  0.37989665301E+02  0.45631901538E+02  0.00000000000E+00 0. -1.
</event>
<event>
 5    1  0.8952932E-005  0.9118800E+02  0.7818608E-02  0.1130116E+00
         25   -1    0    0    0    0  0.00000000000E+00  0.00000000000E+00  0.99999998245E-14  0.12500000000E+03  0.12500000000E+03 0.  0.
        -11    1    3    3    0    0 -0.14017315670E+02  0.34142877012E+02 -0.41062211628E+02  0.55211651064E+02  0.51100000000E-03 0.  1.
         23    2    1    0    0    0  0.66139637717E+01  0.23017320094E+01 -0.29212364916E+02  0.94959947553E+02  0.90083222013E+02 0.  0.
         11    1    3    3    0    0  0.20631279441E+02 -0.31841145002E+02  0.11849846712E+02  0.39748296489E+02  0.51100000000E-03 0. -1.
         22    1    1    0    0    0 -0.66139637717E+01 -0.23017320094E+01  0.29212364916E+02  0.30040052447E+02  0.00000000000E+00 0.  1.
</event>
<event>
 5    1  0.8952932E-005  0.9118800E+02  0.7818608E-02  0.1130116E+00
         25   -1    0    0    0    0  0.00000000000E+00  0.00000000000E+00  0.99999998245E-14  0.12500000000E+03  0.12500000000E+03 0.  0.
        -11    1    3    3    0    0 -0.15663634068E+02  0.32801911839E+02  0.44186755706E+01  0.36617475972E+02  0.51100000000E-03 0.  1.
         23    2    1    0    0    0 -0.12673006154E+02 -0.26085714845E+02  0.49273937045E+01  0.95583188265E+02  0.90943922646E+02 0.  0.
         11    1    3    3    0    0  0.29906279144E+01 -0.58887626684E+02  0.50871813385E+00  0.58965712293E+02  0.51100000000E-03 0. -1.
         22    1    1    0    0    0  0.12673006154E+02  0.26085714845E+02 -0.49273937045E+01  0.29416811735E+02  0.00000000000E+00 0. -1.
</event>
<event>
 5    1  0.8952932E-005  0.9118800E+02  0.7818608E-02  0.1130116E+00
         25   -1    0    0    0    0  0.00000000000E+00  0.00000000000E+00  0.99999998245E-14  0.12500000000E+03  0.12500000000E+03 0.  0.
        -11    1    3    3    0    0 -0.44742896060E+02  0.44676916350E+01 -0.32598388155E+02  0.55538652548E+02  0.51100000000E-03 0.  1.
         23    2    1    0    0    0 -0.71416327895E+01  0.17538167948E+02 -0.20381285558E+02  0.97179377166E+02  0.93111998644E+02 0.  0.
         11    1    3    3    0    0  0.37601263270E+02  0.13070476313E+02  0.12217102596E+02  0.41640724617E+02  0.51100000000E-03 0. -1.
         22    1    1    0    0    0  0.71416327895E+01 -0.17538167948E+02  0.20381285558E+02  0.27820622834E+02  0.00000000000E+00 0.  1.
</event>
<event>
 5    1  0.8952932E-005  0.9118800E+02  0.7818608E-02  0.1130116E+00
         25   -1    0    0    0    0  0.00000000000E+00  0.00000000000E+00  0.99999998245E-14  0.12500000000E+03  0.12500000000E+03 0.  0.
        -11    1    3    3    0    0 -0.50372005791E+02  0.16305968616E+02  0.11094597249E+02  0.54095412637E+02  0.51100000000E-03 0.  1.
         23    2    1    0    0    0 -0.10588818403E+02  0.17602512065E+02  0.21527477468E+02  0.95244264548E+02  0.90476881782E+02 0.  0.
         11    1    3    3    0    0  0.39783187388E+02  0.12965434488E+01  0.10432880219E+02  0.41148851911E+02  0.51100000000E-03 0. -1.
         22    1    1    0    0    0  0.10588818403E+02 -0.17602512065E+02 -0.21527477468E+02  0.29755735452E+02  0.00000000000E+00 0.  1.
</event>
<event>
 5    1  0.8952932E-005  0.9118800E+02  0.7818608E-02  0.1130116E+00
         25   -1    0    0    0    0  0.00000000000E+00  0.00000000000E+00  0.99999998245E-14  0.12500000000E+03  0.12500000000E+03 0.  0.
        -11    1    3    3    0    0  0.11080041226E+01 -0.55636352434E+02  0.28160433491E+02  0.62366989666E+02  0.51100000000E-03 0.  1.
         23    2    1    0    0    0  0.14558621565E+01 -0.25330301562E+02  0.15877673157E+02  0.95069343196E+02  0.90234892358E+02 0.  0.
         11    1    3    3    0    0  0.34785803395E+00  0.30306050872E+02 -0.12282760335E+02  0.32702353530E+02  0.51100000000E-03 0. -1.
         22    1    1    0    0    0 -0.14558621565E+01  0.25330301562E+02 -0.15877673157E+02  0.29930656804E+02  0.00000000000E+00 0.  1.
</event>
<event>
 5    1  0.8952932E-005  0.9118800E+02  0.7818608E-02  0.1130116E+00
         25   -1    0    0    0    0  0.00000000000E+00  0.00000000000E+00  0.99999998245E-14  0.12500000000E+03  0.12500000000E+03 0.  0.
        -11    1    3    3    0    0  0.32573976696E+02 -0.24110621586E+02  0.47001456961E+02  0.62060639601E+02  0.51100000000E-03 0.  1.
         23    2    1    0    0    0  0.10761417304E+02 -0.10271463021E+02  0.24591667112E+02  0.96258720517E+02  0.91867731708E+02 0.  0.
         11    1    3    3    0    0 -0.21812559391E+02  0.13839158565E+02 -0.22409789849E+02  0.34198080916E+02  0.51100000000E-03 0. -1.
         22    1    1    0    0    0 -0.10761417304E+02  0.10271463021E+02 -0.24591667112E+02  0.28741279483E+02  0.00000000000E+00 0.  1.
</event>
<event>
 5    1  0.8952932E-005  0.9118800E+02  0.7818608E-02  0.1130116E+00
         25   -1    0    0    0    0  0.00000000000E+00  0.00000000000E+00  0.99999998245E-14  0.12500000000E+03  0.12500000000E+03 0.  0.
        -11    1    3    3    0    0 -0.49379919067E+02  0.30876377701E+02 -0.19033640894E+02  0.61269948531E+02  0.51100000000E-03 0. -1.
         23    2    1    0    0    0 -0.16594574329E+02  0.19886225196E+02 -0.11508581301E+02  0.96657641361E+02  0.92408929980E+02 0.  0.
         11    1    3    3    0    0  0.32785344738E+02 -0.10990152506E+02  0.75250595928E+01  0.35387692830E+02  0.51100000000E-03 0.  1.
         22    1    1    0    0    0  0.16594574329E+02 -0.19886225196E+02  0.11508581301E+02  0.28342358639E+02  0.00000000000E+00 0. -1.
</event>
<event>
 5    1  0.8952932E-005  0.9118800E+02  0.7818608E-02  0.1130116E+00
         25   -1    0    0    0    0  0.00000000000E+00  0.00000000000E+00  0.99999998245E-14  0.12500000000E+03  0.12500000000E+03 0.  0.
        -11    1    3    3    0    0  0.13355067475E+02  0.21001143203E+02 -0.42466059375E+02  0.49221662327E+02  0.51100000000E-03 0. -1.
         23    2    1    0    0    0  0.22662479115E+02 -0.13095221125E+02 -0.10767517353E+02  0.96697840968E+02  0.92463291321E+02 0.  0.
         11    1    3    3    0    0  0.93074116398E+01 -0.34096364327E+02  0.31698542022E+02  0.47476178641E+02  0.51100000000E-03 0.  1.
         22    1    1    0    0    0 -0.22662479115E+02  0.13095221125E+02  0.10767517353E+02  0.28302159032E+02  0.00000000000E+00 0.  1.
</event>
<event>
 5    1  0.8952932E-005  0.9118800E+02  0.7818608E-02  0.1130116E+00
         25   -1    0    0    0    0  0.00000000000E+00  0.00000000000E+00  0.99999998245E-14  0.12500000000E+03  0.12500000000E+03 0.  0.
        -11    1    3    3    0    0 -0.32381257125E+02 -0.39605035708E+02 -0.17716937386E+02  0.54138660281E+02  0.51100000000E-03 0. -1.
         23    2    1    0    0    0 -0.99309551362E+01 -0.23547378598E+02  0.13736914105E+02  0.95986111638E+02  0.91496054065E+02 0.  0.
         11    1    3    3    0    0  0.22450301989E+02  0.16057657110E+02  0.31453851491E+02  0.41847451357E+02  0.51100000000E-03 0.  1.
         22    1    1    0    0    0  0.99309551362E+01  0.23547378598E+02 -0.13736914105E+02  0.29013888362E+02  0.00000000000E+00 0. -1.
</event>
<event>
 5    1  0.8952932E-005  0.9118800E+02  0.7818608E-02  0.1130116E+00
         25   -1    0    0    0    0  0.00000000000E+00  0.00000000000E+00  0.99999998245E-14  0.12500000000E+03  0.12500000000E+03 0.  0.
        -11    1    3    3    0    0 -0.44628960640E+02 -0.15102830165E+02  0.74207843984E+01  0.47695991950E+02  0.51100000000E-03 0. -1.
         23    2    1    0    0    0  0.98989554802E+01 -0.14426410531E+02  0.13957798856E+02  0.10261851682E+03  0.10014803645E+03 0.  0.
         11    1    3    3    0    0  0.54527916120E+02  0.67641963450E+00  0.65370144576E+01  0.54922524871E+02  0.51100000000E-03 0.  1.
         22    1    1    0    0    0 -0.98989554802E+01  0.14426410531E+02 -0.13957798856E+02  0.22381483179E+02  0.00000000000E+00 0.  1.
</event>
<event>
 5    1  0.8952932E-005  0.9118800E+02  0.7818608E-02  0.1130116E+00
         25   -1    0    0    0    0  0.00000000000E+00  0.00000000000E+00  0.99999998245E-14  0.12500000000E+03  0.12500000000E+03 0.  0.
        -11    1    3    3    0    0  0.15100179662E+02 -0.27638927799E+02 -0.26065391264E+02  0.40881907707E+02  0.51100000000E-03 0.  1.
         23    2    1    0    0    0  0.73626869053E+01  0.22878453591E+01 -0.46453503551E+02  0.77911026906E+02  0.62070578590E+02 0.  0.
         11    1    3    3    0    0 -0.77374927563E+01  0.29926773158E+02 -0.20388112287E+02  0.37029119200E+02  0.51100000000E-03 0. -1.
         22    1    1    0    0    0 -0.73626869053E+01 -0.22878453591E+01  0.46453503551E+02  0.47088973094E+02  0.00000000000E+00 0.  1.
</event>
<event>
 5    1  0.8952932E-005  0.9118800E+02  0.7818608E-02  0.1130116E+00
         25   -1    0    0    0    0  0.00000000000E+00  0.00000000000E+00  0.99999998245E-14  0.12500000000E+03  0.12500000000E+03 0.  0.
        -11    1    3    3    0    0 -0.38805772477E+02  0.42208609801E+02  0.24451383811E+02  0.62332374328E+02  0.51100000000E-03 0. -1.
         23    2    1    0    0    0 -0.18687980081E+02  0.19443136896E+02  0.14955607983E+02  0.94162581464E+02  0.88969912701E+02 0.  0.
         11    1    3    3    0    0  0.20117792396E+02 -0.22765472905E+02 -0.94957758279E+01  0.31830207136E+02  0.51100000000E-03 0.  1.
         22    1    1    0    0    0  0.18687980081E+02 -0.19443136896E+02 -0.14955607983E+02  0.30837418536E+02  0.00000000000E+00 0. -1.
</event>
<event>
 5    1  0.8952932E-005  0.9118800E+02  0.7818608E-02  0.1130116E+00
         25   -1    0    0    0    0  0.00000000000E+00  0.00000000000E+00  0.99999998245E-14  0.12500000000E+03  0.12500000000E+03 0.  0.
        -11    1    3    3    0    0  0.26010604250E+02 -0.31450717099E+02  0.25228301718E+01  0.40890876878E+02  0.51100000000E-03 0.  1.
         23    2    1    0    0    0  0.13085781243E+02  0.22849194166E+02  0.92049464523E+01  0.97106373775E+02  0.93013942201E+02 0.  0.
         11    1    3    3    0    0 -0.12924823007E+02  0.54299911265E+02  0.66821162805E+01  0.56215496897E+02  0.51100000000E-03 0. -1.
         22    1    1    0    0    0 -0.13085781243E+02 -0.22849194166E+02 -0.92049464523E+01  0.27893626225E+02  0.00000000000E+00 0. -1.
</event>
<event>
 5    1  0.8952932E-005  0.9118800E+02  0.7818608E-02  0.1130116E+00
         25   -1    0    0    0    0  0.00000000000E+00  0.00000000000E+00  0.99999998245E-14  0.12500000000E+03  0.12500000000E+03 0.  0.
        -11    1    3    3    0    0  0.46971335332E+01  0.20202607288E+02  0.48190506627E+02  0.52464591239E+02  0.51100000000E-03 0. -1.
         23    2    1    0    0    0  0.36831811774E+00 -0.13419494688E+02  0.32534117325E+02  0.89805010498E+02  0.82621139090E+02 0.  0.
         11    1    3    3    0    0 -0.43288154154E+01 -0.33622101976E+02 -0.15656389302E+02  0.37340419259E+02  0.51100000000E-03 0.  1.
         22    1    1    0    0    0 -0.36831811774E+00  0.13419494688E+02 -0.32534117325E+02  0.35194989502E+02  0.00000000000E+00 0. -1.
</event>
<event>
 5    1  0.8952932E-005  0.9118800E+02  0.7818608E-02  0.1130116E+00
         25   -1    0    0    0    0  0.00000000000E+00  0.00000000000E+00  0.99999998245E-14  0.12500000000E+03  0.12500000000E+03 0.  0.
        -11    1    3    3    0    0 -0.35284423351E+01 -0.43757011698E+02  0.24716493370E+02  0.50378874767E+02  0.51100000000E-03 0.  1.
         23    2    1    0    0    0 -0.20018693451E+02 -0.14824253064E+02 -0.96985155118E+01  0.98268599559E+02  0.94562941418E+02 0.  0.
         11    1    3    3    0    0 -0.16490251116E+02  0.28932758634E+02 -0.34415008882E+02  0.47889724792E+02  0.51100000000E-03 0. -1.
         22    1    1    0    0    0  0.20018693451E+02  0.14824253064E+02  0.96985155118E+01  0.26731400441E+02  0.00000000000E+00 0.  1.
</event>
<event>
 5    1  0.8952932E-005  0.9118800E+02  0.7818608E-02  0.1130116E+00
         25   -1    0    0    0    0  0.00000000000E+00  0.00000000000E+00  0.99999998245E-14  0.12500000000E+03  0.12500000000E+03 0.  0.
        -11    1    3    3    0    0  0.20035963976E+02  0.31508326633E+02 -0.22749806564E+02  0.43723771551E+02  0.51100000000E-03 0.  1.
         23    2    1    0    0    0  0.25132628273E+02 -0.40401402672E+01  0.14696150358E+02  0.95606997897E+02  0.90976642465E+02 0.  0.
         11    1    3    3    0    0  0.50966642970E+01 -0.35548466901E+02  0.37445956922E+02  0.51883226346E+02  0.51100000000E-03 0. -1.
         22    1    1    0    0    0 -0.25132628273E+02  0.40401402672E+01 -0.14696150358E+02  0.29393002103E+02  0.00000000000E+00 0. -1.
</event>
<event>
 5    1  0.8952932E-005  0.9118800E+02  0.7818608E-02  0.1130116E+00
         25   -1    0    0    0    0  0.00000000000E+00  0.00000000000E+00  0.99999998245E-14  0.12500000000E+03  0.12500000000E+03 0.  0.
        -11    1    3    3    0    0 -0.88034613531E+01  0.41599997363E+02 -0.21451053057E+02  0.47625711437E+02  0.51100000000E-03 0.  1.
         23    2    1    0    0    0  0.15025357679E+02  0.17310126624E+00 -0.25302627913E+02  0.95571878811E+02  0.90928376773E+02 0.  0.
         11    1    3    3    0    0  0.23828819032E+02 -0.41426896097E+02 -0.38515748566E+01  0.47946167373E+02  0.51100000000E-03 0. -1.
         22    1    1    0    0    0 -0.15025357679E+02 -0.17310126624E+00  0.25302627913E+02  0.29428121189E+02  0.00000000000E+00 0. -1.
</event>
<event>
 5    1  0.8952932E-005  0.9118800E+02  0.7818608E-02  0.1130116E+00
         25   -1    0    0    0    0  0.00000000000E+00  0.00000000000E+00  0.99999998245E-14  0.12500000000E+03  0.12500000000E+03 0.  0.
        -11    1    3    3    0    0  0.47502563895E+02 -0.26964196187E+02 -0.21525852218E+01  0.54664385810E+02  0.51100000000E-03 0. -1.
         23    2    1    0    0    0  0.14839574714E+02 -0.19341828813E+02  0.18802367122E+02  0.94212854485E+02  0.89040516740E+02 0.  0.
         11    1    3    3    0    0 -0.32662989181E+02  0.76223673733E+01  0.20954952344E+02  0.39548468675E+02  0.51100000000E-03 0.  1.
         22    1    1    0    0    0 -0.14839574714E+02  0.19341828813E+02 -0.18802367122E+02  0.30787145515E+02  0.00000000000E+00 0. -1.
</event>
<event>
 5    1  0.8952932E-005  0.9118800E+02  0.7818608E-02  0.1130116E+00
         25   -1    0    0    0    0  0.00000000000E+00  0.00000000000E+00  0.99999998245E-14  0.12500000000E+03  0.12500000000E+03 0.  0.
        -11    1    3    3    0    0  0.17443286452E+02  0.21057646069E+02  0.37635064050E+02  0.46519788763E+02  0.51100000000E-03 0.  1.
         23    2    1    0    0    0 -0.59504004670E+01 -0.18633125767E+02  0.22883957455E+02  0.94895579223E+02  0.89993859822E+02 0.  0.
         11    1    3    3    0    0 -0.23393686919E+02 -0.39690771836E+02 -0.14751106595E+02  0.48375790460E+02  0.51100000000E-03 0. -1.
         22    1    1    0    0    0  0.59504004670E+01  0.18633125767E+02 -0.22883957455E+02  0.30104420777E+02  0.00000000000E+00 0.  1.
</event>
<event>
 5    1  0.8952932E-005  0.9118800E+02  0.7818608E-02  0.1130116E+00
         25   -1    0    0    0    0  0.00000000000E+00  0.00000000000E+00  0.99999998245E-14  0.12500000000E+03  0.12500000000E+03 0.  0.
        -11    1    3    3    0    0  0.32176622988E+02  0.32517525738E+02 -0.29348714788E+02  0.54351371713E+02  0.51100000000E-03 0.  1.
         23    2    1    0    0    0  0.25043665142E+02 -0.53701196422E+01 -0.13633728238E+02  0.95984454263E+02  0.91493789767E+02 0.  0.
         11    1    3    3    0    0 -0.71329578461E+01 -0.37887645381E+02  0.15714986550E+02  0.41633082551E+02  0.51100000000E-03 0. -1.
         22    1    1    0    0    0 -0.25043665142E+02  0.53701196422E+01  0.13633728238E+02  0.29015545737E+02  0.00000000000E+00 0. -1.
</event>
<event>
 5    1  0.8952932E-005  0.9118800E+02  0.7818608E-02  0.1130116E+00
         25   -1    0    0    0    0  0.00000000000E+00  0.00000000000E+00  0.99999998245E-14  0.12500000000E+03  0.12500000000E+03 0.  0.
        -11    1    3    3    0    0 -0.79235425294E+01  0.53812046468E+01 -0.31680185731E+02  0.33096435728E+02  0.51100000000E-03 0.  1.
         23    2    1    0    0    0 -0.19037443080E+01  0.92330054385E+01  0.29159516525E+02  0.94354445089E+02  0.89239068083E+02 0.  0.
         11    1    3    3    0    0  0.60197982214E+01  0.38518007917E+01  0.60839702256E+02  0.61258009361E+02  0.51100000000E-03 0. -1.
         22    1    1    0    0    0  0.19037443080E+01 -0.92330054385E+01 -0.29159516525E+02  0.30645554911E+02  0.00000000000E+00 0. -1.
</event>
<event>
 5    1  0.8952932E-005  0.9118800E+02  0.7818608E-02  0.1130116E+00
         25   -1    0    0    0    0  0.00000000000E+00  0.00000000000E+00  0.99999998245E-14  0.12500000000E+03  0.12500000000E+03 0.  0.
        -11    1    3    3    0    0 -0.42435626721E+02 -0.15746206035E+02 -0.42541633787E+02  0.62116954411E+02  0.51100000000E-03 0.  1.
         23    2    1    0    0    0 -0.28303746480E+02 -0.12483430876E+02 -0.34349073470E+02  0.78774498819E+02  0.63785771961E+02 0.  0.
         11    1    3    3    0    0  0.14131880242E+02  0.32627751593E+01  0.81925603171E+01  0.16657544408E+02  0.51100000000E-03 0. -1.
         22    1    1    0    0    0  0.28303746480E+02  0.12483430876E+02  0.34349073470E+02  0.46225501181E+02  0.00000000000E+00 0.  1.
</event>
<event>
 5    1  0.8952932E-005  0.9118800E+02  0.7818608E-02  0.1130116E+00
         25   -1    0    0    0    0  0.00000000000E+00  0.00000000000E+00  0.99999998245E-14  0.12500000000E+03  0.12500000000E+03 0.  0.
        -11    1    3    3    0    0  0.69905395911E+01  0.12169113041E+02  0.51515806716E+02  0.53393195239E+02  0.51100000000E-03 0.  1.
         23    2    1    0    0    0 -0.13087934140E+01 -0.18043140604E+02  0.22814901528E+02  0.95883207684E+02  0.91355360659E+02 0.  0.
         11    1    3    3    0    0 -0.82993330051E+01 -0.30212253645E+02 -0.28700905189E+02  0.42490012445E+02  0.51100000000E-03 0. -1.
         22    1    1    0    0    0  0.13087934140E+01  0.18043140604E+02 -0.22814901528E+02  0.29116792316E+02  0.00000000000E+00 0.  1.
</event>
<event>
 5    1  0.8952932E-005  0.9118800E+02  0.7818608E-02  0.1130116E+00
         25   -1    0    0    0    0  0.00000000000E+00  0.00000000000E+00  0.99999998245E-14  0.12500000000E+03  0.12500000000E+03 0.  0.
        -11    1    3    3    0    0  0.51009026723E+02 -0.17457591205E+02  0.86881087892E+01  0.54609262332E+02  0.51100000000E-03 0. -1.
         23    2    1    0    0    0  0.18965954339E+02 -0.28156439888E+01  0.25050765230E+02  0.93453587943E+02  0.87968158931E+02 0.  0.
         11    1    3    3    0    0 -0.32043072384E+02  0.14641947217E+02  0.16362656441E+02  0.38844325611E+02  0.51100000000E-03 0.  1.
         22    1    1    0    0    0 -0.18965954339E+02  0.28156439888E+01 -0.25050765230E+02  0.31546412057E+02  0.00000000000E+00 0. -1.
</event>
<event>
 5    1  0.8952932E-005  0.9118800E+02  0.7818608E-02  0.1130116E+00
         25   -1    0    0    0    0  0.00000000000E+00  0.00000000000E+00  0.99999998245E-14  0.12500000000E+03  0.12500000000E+03 0.  0.
        -11    1    3    3    0    0 -0.19188963259E+02 -0.22699247450E+02  0.68504856743E+01  0.30502480227E+02  0.51100000000E-03 0.  1.
         23    2    1    0    0    0  0.15276646523E+02  0.17221361494E+02 -0.24114854866E+02  0.91661172097E+02  0.85383212778E+02 0.  0.
         11    1    3    3    0    0  0.34465609782E+02  0.39920608945E+02 -0.30965340541E+02  0.61158691870E+02  0.51100000000E-03 0. -1.
         22    1    1    0    0    0 -0.15276646523E+02 -0.17221361494E+02  0.24114854866E+02  0.33338827903E+02  0.00000000000E+00 0. -1.
</event>
<event>
 5    1  0.8952932E-005  0.9118800E+02  0.7818608E-02  0.1130116E+00
         25   -1    0    0    0    0  0.00000000000E+00  0.00000000000E+00  0.99999998245E-14  0.12500000000E+03  0.12500000000E+03 0.  0.
        -11    1    3    3    0    0 -0.42714990506E+02 -0.23955494021E+01 -0.15919142784E+02  0.45647871561E+02  0.51100000000E-03 0.  1.
         23    2    1    0    0    0 -0.13471552170E+02  0.11624216894E+02  0.22751292488E+02  0.96117021515E+02  0.91674725955E+02 0.  0.
         11    1    3    3    0    0  0.29243438336E+02  0.14019766297E+02  0.38670435271E+02  0.50469149954E+02  0.51100000000E-03 0. -1.
         22    1    1    0    0    0  0.13471552170E+02 -0.11624216894E+02 -0.22751292488E+02  0.28882978485E+02  0.00000000000E+00 0. -1.
</event>
<event>
 5    1  0.8952932E-005  0.9118800E+02  0.7818608E-02  0.1130116E+00
         25   -1    0    0    0    0  0.00000000000E+00  0.00000000000E+00  0.99999998245E-14  0.12500000000E+03  0.12500000000E+03 0.  0.
        -11    1    3    3    0    0  0.25323682289E+02 -0.22225324836E+02 -0.28617691893E+02  0.44206631158E+02  0.51100000000E-03 0. -1.
         23    2    1    0    0    0  0.80858889358E+00 -0.23836660071E+02  0.16788558922E+02  0.95833308552E+02  0.91287058985E+02 0.  0.
         11    1    3    3    0    0 -0.24515093396E+02 -0.16113352349E+01  0.45406250815E+02  0.51626677395E+02  0.51100000000E-03 0.  1.
         22    1    1    0    0    0 -0.80858889358E+00  0.23836660071E+02 -0.16788558922E+02  0.29166691448E+02  0.00000000000E+00 0.  1.
</event>
<event>
 5    1  0.8952932E-005  0.9118800E+02  0.7818608E-02  0.1130116E+00
         25   -1    0    0    0    0  0.00000000000E+00  0.00000000000E+00  0.99999998245E-14  0.12500000000E+03  0.12500000000E+03 0.  0.
        -11    1    3    3    0    0  0.29908966672E+02 -0.24438616984E+02  0.43510829083E+02  0.58180619928E+02  0.51100000000E-03 0. -1.
         23    2    1    0    0    0  0.24904811932E+02 -0.13743069861E+02  0.82252682400E+01  0.95389585208E+02  0.90677429948E+02 0.  0.
         11    1    3    3    0    0 -0.50041547400E+01  0.10695547123E+02 -0.35285560843E+02  0.37208965280E+02  0.51100000000E-03 0.  1.
         22    1    1    0    0    0 -0.24904811932E+02  0.13743069861E+02 -0.82252682400E+01  0.29610414792E+02  0.00000000000E+00 0. -1.
</event>
<event>
 5    1  0.8952932E-005  0.9118800E+02  0.7818608E-02  0.1130116E+00
         25   -1    0    0    0    0  0.00000000000E+00  0.00000000000E+00  0.99999998245E-14  0.12500000000E+03  0.12500000000E+03 0.  0.
        -11    1    3    3    0    0 -0.33059315037E+02  0.40011662734E+02 -0.31961302329E+02  0.60953886769E+02  0.51100000000E-03 0. -1.
         23    2    1    0    0    0 -0.14427002325E+02  0.24068092329E+02 -0.67205634428E+01  0.96145582012E+02  0.91713660394E+02 0.  0.
         11    1    3    3    0    0  0.18632312712E+02 -0.15943570405E+02  0.25240738887E+02  0.35191695242E+02  0.51100000000E-03 0.  1.
         22    1    1    0    0    0  0.14427002325E+02 -0.24068092329E+02  0.67205634428E+01  0.28854417988E+02  0.00000000000E+00 0. -1.
</event>
<event>
 5    1  0.8952932E-005  0.9118800E+02  0.7818608E-02  0.1130116E+00
         25   -1    0    0    0    0  0.00000000000E+00  0.00000000000E+00  0.99999998245E-14  0.12500000000E+03  0.12500000000E+03 0.  0.
        -11    1    3    3    0    0  0.42891177404E+02 -0.15038986049E+02 -0.29679145446E+02  0.54283292782E+02  0.51100000000E-03 0.  1.
         23    2    1    0    0    0  0.28165851022E+02  0.96223905017E+01 -0.49428980743E+00  0.95231730229E+02  0.90459563106E+02 0.  0.
         11    1    3    3    0    0 -0.14725326383E+02  0.24661376551E+02  0.29184855639E+02  0.40948437447E+02  0.51100000000E-03 0. -1.
         22    1    1    0    0    0 -0.28165851022E+02 -0.96223905017E+01  0.49428980743E+00  0.29768269771E+02  0.00000000000E+00 0.  1.
</event>
<event>
 5    1  0.8952932E-005  0.9118800E+02  0.7818608E-02  0.1130116E+00
         25   -1    0    0    0    0  0.00000000000E+00  0.00000000000E+00  0.99999998245E-14  0.12500000000E+03  0.12500000000E+03 0.  0.
        -11    1    3    3    0    0  0.23758608879E+02 -0.27040303154E+02  0.10535011223E+02  0.37505145677E+02  0.51100000000E-03 0.  1.
         23    2    1    0    0    0  0.11966410541E+02  0.26979586731E+02 -0.52859969238E+01  0.95016090234E+02  0.90161092265E+02 0.  0.
         11    1    3    3    0    0 -0.11792198339E+02  0.54019889884E+02 -0.15821008147E+02  0.57510944557E+02  0.51100000000E-03 0. -1.
         22    1    1    0    0    0 -0.11966410541E+02 -0.26979586731E+02  0.52859969238E+01  0.29983909766E+02  0.00000000000E+00 0. -1.
</event>
<event>
 5    1  0.8952932E-005  0.9118800E+02  0.7818608E-02  0.1130116E+00
         25   -1    0    0    0    0  0.00000000000E+00  0.00000000000E+00  0.99999998245E-14  0.12500000000E+03  0.12500000000E+03 0.  0.
        -11    1    3    3    0    0 -0.31983121553E+02  0.14823806365E+02  0.58002773626E+01  0.35725460349E+02  0.51100000000E-03 0. -1.
         23    2    1    0    0    0  0.15370974213E+02 -0.81089122673E+01 -0.23363043234E+02  0.95882082911E+02  0.91353821638E+02 0.  0.
         11    1    3    3    0    0  0.47354095766E+02 -0.22932718632E+02 -0.29163320597E+02  0.60156622563E+02  0.51100000000E-03 0.  1.
         22    1    1    0    0    0 -0.15370974213E+02  0.81089122673E+01  0.23363043234E+02  0.29117917089E+02  0.00000000000E+00 0.  1.
</event>
<event>
 5    1  0.8952932E-005  0.9118800E+02  0.7818608E-02  0.1130116E+00
         25   -1    0    0    0    0  0.00000000000E+00  0.00000000000E+00  0.99999998245E-14  0.12500000000E+03  0.12500000000E+03 0.  0.
        -11    1    3    3    0    0 -0.42479357597E+02 -0.33834772775E+02  0.41910949799E+01  0.54468825469E+02  0.51100000000E-03 0. -1.
         23    2    1    0    0    0 -0.33207223511E+01 -0.21997395884E+02  0.16627539265E+02  0.97226133063E+02  0.93174745859E+02 0.  0.
         11    1    3    3    0    0  0.39158635246E+02  0.11837376891E+02  0.12436444285E+02  0.42757307594E+02  0.51100000000E-03 0.  1.
         22    1    1    0    0    0  0.33207223511E+01  0.21997395884E+02 -0.16627539265E+02  0.27773866937E+02  0.00000000000E+00 0. -1.
</event>
<event>
 5    1  0.8952932E-005  0.9118800E+02  0.7818608E-02  0.1130116E+00
         25   -1    0    0    0    0  0.00000000000E+00  0.00000000000E+00  0.99999998245E-14  0.12500000000E+03  0.12500000000E+03 0.  0.
        -11    1    3    3    0    0 -0.31453953035E+02  0.37076329667E+01 -0.40094067639E+02  0.51094343756E+02  0.51100000000E-03 0. -1.
         23    2    1    0    0    0 -0.77938388864E+01  0.26019806609E+02 -0.82434144239E+01  0.96614649167E+02  0.92350756855E+02 0.  0.
         11    1    3    3    0    0  0.23660114149E+02  0.22312173642E+02  0.31850653215E+02  0.45520305411E+02  0.51100000000E-03 0.  1.
         22    1    1    0    0    0  0.77938388864E+01 -0.26019806609E+02  0.82434144239E+01  0.28385350833E+02  0.00000000000E+00 0. -1.
</event>
<event>
 5    1  0.8952932E-005  0.9118800E+02  0.7818608E-02  0.1130116E+00
         25   -1    0    0    0    0  0.00000000000E+00  0.00000000000E+00  0.99999998245E-14  0.12500000000E+03  0.12500000000E+03 0.  0.
        -11    1    3    3    0    0  0.19747599037E+02 -0.39641626120E+02 -0.48098277530E+01  0.44548407743E+02  0.51100000000E-03 0.  1.
         23    2    1    0    0    0  0.17810144739E+02  0.74527793931E+01 -0.22911130434E+02  0.95038940705E+02  0.90192766762E+02 0.  0.
         11    1    3    3    0    0 -0.19374542976E+01  0.47094405513E+02 -0.18101302681E+02  0.50490532962E+02  0.51100000000E-03 0. -1.
         22    1    1    0    0    0 -0.17810144739E+02 -0.74527793931E+01  0.22911130434E+02  0.29961059295E+02  0.00000000000E+00 0. -1.
</event>
<event>
 5    1  0.8952932E-005  0.9118800E+02  0.7818608E-02  0.1130116E+00
         25   -1    0    0    0    0  0.00000000000E+00  0.00000000000E+00  0.99999998245E-14  0.12500000000E+03  0.12500000000E+03 0.  0.
        -11    1    3    3    0    0 -0.35527993783E+02  0.38208232501E+02 -0.13341393117E+02  0.53852577874E+02  0.51100000000E-03 0.  1.
         23    2    1    0    0    0  0.47422605358E+01  0.27915582308E+02 -0.58256197751E+01  0.96091409298E+02  0.91639796620E+02 0.  0.
         11    1    3    3    0    0  0.40270254319E+02 -0.10292650192E+02  0.75157733418E+01  0.42238831424E+02  0.51100000000E-03 0. -1.
         22    1    1    0    0    0 -0.47422605358E+01 -0.27915582308E+02  0.58256197751E+01  0.28908590702E+02  0.00000000000E+00 0.  1.
</event>
<event>
 5    1  0.8952932E-005  0.9118800E+02  0.7818608E-02  0.1130116E+00
         25   -1    0    0    0    0  0.00000000000E+00  0.00000000000E+00  0.99999998245E-14  0.12500000000E+03  0.12500000000E+03 0.  0.
        -11    1    3    3    0    0  0.25467732787E+02 -0.27382802179E+02  0.32174388704E+01  0.37533653987E+02  0.51100000000E-03 0.  1.
         23    2    1    0    0    0 -0.22585634373E+02  0.89878272474E+01 -0.90982742842E+01  0.99044836475E+02  0.95583519075E+02 0.  0.
         11    1    3    3    0    0 -0.48053367160E+02  0.36370629426E+02 -0.12315713155E+02  0.61511182488E+02  0.51100000000E-03 0. -1.
         22    1    1    0    0    0  0.22585634373E+02 -0.89878272474E+01  0.90982742842E+01  0.25955163525E+02  0.00000000000E+00 0. -1.
</event>
<event>
 5    1  0.8952932E-005  0.9118800E+02  0.7818608E-02  0.1130116E+00
         25   -1    0    0    0    0  0.00000000000E+00  0.00000000000E+00  0.99999998245E-14  0.12500000000E+03  0.12500000000E+03 0.  0.
        -11    1    3    3    0    0  0.26086704543E+02  0.63727149669E+01  0.19293941709E+02  0.33066355059E+02  0.51100000000E-03 0.  1.
         23    2    1    0    0    0 -0.22425046164E+02 -0.69290730135E+01 -0.17779959747E+02  0.95554767501E+02  0.90904850670E+02 0.  0.
         11    1    3    3    0    0 -0.48511750707E+02 -0.13301787980E+02 -0.37073901456E+02  0.62488412442E+02  0.51100000000E-03 0. -1.
         22    1    1    0    0    0  0.22425046164E+02  0.69290730135E+01  0.17779959747E+02  0.29445232499E+02  0.00000000000E+00 0. -1.
</event>
<event>
 5    1  0.8952932E-005  0.9118800E+02  0.7818608E-02  0.1130116E+00
         25   -1    0    0    0    0  0.00000000000E+00  0.00000000000E+00  0.99999998245E-14  0.12500000000E+03  0.12500000000E+03 0.  0.
        -11    1    3    3    0    0  0.24556557594E+02 -0.28176081865E+01 -0.35271455254E+02  0.43070163603E+02  0.51100000000E-03 0. -1.
         23    2    1    0    0    0  0.19971538294E+02 -0.79448285385E+01  0.18110570240E+02  0.96893499031E+02  0.92727421821E+02 0.  0.
         11    1    3    3    0    0 -0.45850193002E+01 -0.51272203520E+01  0.53382025493E+02  0.53823335428E+02  0.51100000000E-03 0.  1.
         22    1    1    0    0    0 -0.19971538294E+02  0.79448285385E+01 -0.18110570240E+02  0.28106500969E+02  0.00000000000E+00 0. -1.
</event>
<event>
 5    1  0.8952932E-005  0.9118800E+02  0.7818608E-02  0.1130116E+00
         25   -1    0    0    0    0  0.00000000000E+00  0.00000000000E+00  0.99999998245E-14  0.12500000000E+03  0.12500000000E+03 0.  0.
        -11    1    3    3    0    0  0.48333200752E+02  0.24463655873E+02 -0.25341147190E+02  0.59805873414E+02  0.51100000000E-03 0. -1.
         23    2    1    0    0    0  0.17115571347E+02  0.21337915073E+02 -0.50111263676E+01  0.97190634857E+02  0.93127110522E+02 0.  0.
         11    1    3    3    0    0 -0.31217629405E+02 -0.31257407999E+01  0.20330020822E+02  0.37384761443E+02  0.51100000000E-03 0.  1.
         22    1    1    0    0    0 -0.17115571347E+02 -0.21337915073E+02  0.50111263676E+01  0.27809365143E+02  0.00000000000E+00 0. -1.
</event>
<event>
 5    1  0.8952932E-005  0.9118800E+02  0.7818608E-02  0.1130116E+00
         25   -1    0    0    0    0  0.00000000000E+00  0.00000000000E+00  0.99999998245E-14  0.12500000000E+03  0.12500000000E+03 0.  0.
        -11    1    3    3    0    0 -0.53190708525E+01  0.10765377099E+02  0.31475099107E+02  0.33687797834E+02  0.51100000000E-03 0.  1.
         23    2    1    0    0    0  0.67625362614E+00  0.53098358782E+01 -0.29408347833E+02  0.95108486182E+02  0.90289099816E+02 0.  0.
         11    1    3    3    0    0  0.59953244786E+01 -0.54555412204E+01 -0.60883446941E+02  0.61420688349E+02  0.51100000000E-03 0. -1.
         22    1    1    0    0    0 -0.67625362614E+00 -0.53098358782E+01  0.29408347833E+02  0.29891513818E+02  0.00000000000E+00 0. -1.
</event>
<event>
 5    1  0.8952932E-005  0.9118800E+02  0.7818608E-02  0.1130116E+00
         25   -1    0    0    0    0  0.00000000000E+00  0.00000000000E+00  0.99999998245E-14  0.12500000000E+03  0.12500000000E+03 0.  0.
        -11    1    3    3    0    0  0.14061276887E+02  0.42572238623E+02  0.12454199682E+01  0.44851600643E+02  0.51100000000E-03 0.  1.
         23    2    1    0    0    0 -0.22242371393E+02  0.11946203977E+02  0.16618596114E+02  0.94773974601E+02  0.89824794184E+02 0.  0.
         11    1    3    3    0    0 -0.36303648280E+02 -0.30626034646E+02  0.15373176145E+02  0.49922373958E+02  0.51100000000E-03 0. -1.
         22    1    1    0    0    0  0.22242371393E+02 -0.11946203977E+02 -0.16618596114E+02  0.30226025399E+02  0.00000000000E+00 0. -1.
</event>
<event>
 5    1  0.8952932E-005  0.9118800E+02  0.7818608E-02  0.1130116E+00
         25   -1    0    0    0    0  0.00000000000E+00  0.00000000000E+00  0.99999998245E-14  0.12500000000E+03  0.12500000000E+03 0.  0.
        -11    1    3    3    0    0  0.82903236282E+01  0.52795747070E+01  0.30176740676E+02  0.31737029682E+02  0.51100000000E-03 0. -1.
         23    2    1    0    0    0  0.21532416970E+01 -0.75349070317E+01 -0.30218946700E+02  0.93781479640E+02  0.88432855377E+02 0.  0.
         11    1    3    3    0    0 -0.61370819312E+01 -0.12814481739E+02 -0.60395687376E+02  0.62044449959E+02  0.51100000000E-03 0.  1.
         22    1    1    0    0    0 -0.21532416970E+01  0.75349070317E+01  0.30218946700E+02  0.31218520360E+02  0.00000000000E+00 0.  1.
</event>
<event>
 5    1  0.8952932E-005  0.9118800E+02  0.7818608E-02  0.1130116E+00
         25   -1    0    0    0    0  0.00000000000E+00  0.00000000000E+00  0.99999998245E-14  0.12500000000E+03  0.12500000000E+03 0.  0.
        -11    1    3    3    0    0  0.40610557789E+02  0.26313114014E+02 -0.23994926227E+02  0.54012534267E+02  0.51100000000E-03 0.  1.
         23    2    1    0    0    0  0.32797338766E+01  0.22926245705E+02 -0.24208719579E+02  0.91497291153E+02  0.85142955012E+02 0.  0.
         11    1    3    3    0    0 -0.37330823912E+02 -0.33868683091E+01 -0.21379335179E+00  0.37484756885E+02  0.51100000000E-03 0. -1.
         22    1    1    0    0    0 -0.32797338766E+01 -0.22926245705E+02  0.24208719579E+02  0.33502708847E+02  0.00000000000E+00 0.  1.
</event>
<event>
 5    1  0.8952932E-005  0.9118800E+02  0.7818608E-02  0.1130116E+00
         25   -1    0    0    0    0  0.00000000000E+00  0.00000000000E+00  0.99999998245E-14  0.12500000000E+03  0.12500000000E+03 0.  0.
        -11    1    3    3    0    0 -0.73110395308E+01 -0.41989296999E+02 -0.17212053712E+02  0.45965282059E+02  0.51100000000E-03 0. -1.
         23    2    1    0    0    0 -0.72997472790E+01  0.88808760159E+01 -0.25052216554E+02  0.97436077503E+02  0.93455975602E+02 0.  0.
         11    1    3    3    0    0  0.11292251843E-01  0.50870173015E+02 -0.78401628417E+01  0.51470795445E+02  0.51100000000E-03 0.  1.
         22    1    1    0    0    0  0.72997472790E+01 -0.88808760159E+01  0.25052216554E+02  0.27563922497E+02  0.00000000000E+00 0.  1.
</event>
<event>
 5    1  0.8952932E-005  0.9118800E+02  0.7818608E-02  0.1130116E+00
         25   -1    0    0    0    0  0.00000000000E+00  0.00000000000E+00  0.99999998245E-14  0.12500000000E+03  0.12500000000E+03 0.  0.
        -11    1    3    3    0    0  0.29300689715E+02 -0.24075691372E+02  0.42321915063E+02  0.56827051900E+02  0.51100000000E-03 0.  1.
         23    2    1    0    0    0  0.16590503785E+02 -0.19425822846E+02  0.19816867553E+01  0.99377070982E+02  0.96017017999E+02 0.  0.
         11    1    3    3    0    0 -0.12710185930E+02  0.46498685258E+01 -0.40340228307E+02  0.42550019082E+02  0.51100000000E-03 0. -1.
         22    1    1    0    0    0 -0.16590503785E+02  0.19425822846E+02 -0.19816867553E+01  0.25622929018E+02  0.00000000000E+00 0.  1.
</event>
<event>
 5    1  0.8952932E-005  0.9118800E+02  0.7818608E-02  0.1130116E+00
         25   -1    0    0    0    0  0.00000000000E+00  0.00000000000E+00  0.99999998245E-14  0.12500000000E+03  0.12500000000E+03 0.  0.
        -11    1    3    3    0    0  0.38897622382E+02  0.21848900106E+01 -0.12265201838E+02  0.40844019731E+02  0.51100000000E-03 0. -1.
         23    2    1    0    0    0 -0.14641767785E+02  0.15826663831E+02 -0.18689752055E+02  0.96466309671E+02  0.92149755387E+02 0.  0.
         11    1    3    3    0    0 -0.53539390168E+02  0.13641773820E+02 -0.64245502173E+01  0.55622289941E+02  0.51100000000E-03 0.  1.
         22    1    1    0    0    0  0.14641767785E+02 -0.15826663831E+02  0.18689752055E+02  0.28533690329E+02  0.00000000000E+00 0.  1.
</event>
<event>
 5    1  0.8952932E-005  0.9118800E+02  0.7818608E-02  0.1130116E+00
         25   -1    0    0    0    0  0.00000000000E+00  0.00000000000E+00  0.99999998245E-14  0.12500000000E+03  0.12500000000E+03 0.  0.
        -11    1    3    3    0    0 -0.27106236502E+02 -0.50344201478E+02 -0.82260121468E+01  0.57766373920E+02  0.51100000000E-03 0. -1.
         23    2    1    0    0    0  0.53862410058E+00 -0.28887987518E+02  0.59112074575E+01  0.95508504406E+02  0.90841213673E+02 0.  0.
         11    1    3    3    0    0  0.27644860603E+02  0.21456213960E+02  0.14137219604E+02  0.37742130487E+02  0.51100000000E-03 0.  1.
         22    1    1    0    0    0 -0.53862410058E+00  0.28887987518E+02 -0.59112074575E+01  0.29491495594E+02  0.00000000000E+00 0. -1.
</event>
<event>
 5    1  0.8952932E-005  0.9118800E+02  0.7818608E-02  0.1130116E+00
         25   -1    0    0    0    0  0.00000000000E+00  0.00000000000E+00  0.99999998245E-14  0.12500000000E+03  0.12500000000E+03 0.  0.
        -11    1    3    3    0    0 -0.97651421959E+01  0.49920900208E+02 -0.46643394050E+01  0.51080430127E+02  0.51100000000E-03 0. -1.
         23    2    1    0    0    0 -0.22105370219E+02  0.25234901221E+01 -0.10488053989E+02  0.10040295401E+03  0.97343405030E+02 0.  0.
         11    1    3    3    0    0 -0.12340228023E+02 -0.47397410085E+02 -0.58237145836E+01  0.49322523884E+02  0.51100000000E-03 0.  1.
         22    1    1    0    0    0  0.22105370219E+02 -0.25234901221E+01  0.10488053989E+02  0.24597045989E+02  0.00000000000E+00 0. -1.
</event>
<event>
 5    1  0.8952932E-005  0.9118800E+02  0.7818608E-02  0.1130116E+00
         25   -1    0    0    0    0  0.00000000000E+00  0.00000000000E+00  0.99999998245E-14  0.12500000000E+03  0.12500000000E+03 0.  0.
        -11    1    3    3    0    0 -0.34739303228E+02  0.15875137751E+02  0.12811270728E+02  0.40286075079E+02  0.51100000000E-03 0. -1.
         23    2    1    0    0    0  0.19623863154E+02  0.19551243329E+02  0.12083329004E+02  0.94778253515E+02  0.89830748515E+02 0.  0.
         11    1    3    3    0    0  0.54363166381E+02  0.36761055781E+01 -0.72794172440E+00  0.54492178436E+02  0.51100000000E-03 0.  1.
         22    1    1    0    0    0 -0.19623863154E+02 -0.19551243329E+02 -0.12083329004E+02  0.30221746485E+02  0.00000000000E+00 0.  1.
</event>
<event>
 5    1  0.8952932E-005  0.9118800E+02  0.7818608E-02  0.1130116E+00
         25   -1    0    0    0    0  0.00000000000E+00  0.00000000000E+00  0.99999998245E-14  0.12500000000E+03  0.12500000000E+03 0.  0.
        -11    1    3    3    0    0  0.22760683050E+02  0.53222783236E+02  0.21706873884E+02  0.61821531220E+02  0.51100000000E-03 0. -1.
         23    2    1    0    0    0  0.11329946238E+02  0.24143922571E+02  0.31936320307E+01  0.98139323083E+02  0.94391899922E+02 0.  0.
         11    1    3    3    0    0 -0.11430736812E+02 -0.29078860665E+02 -0.18513241853E+02  0.36317791863E+02  0.51100000000E-03 0.  1.
         22    1    1    0    0    0 -0.11329946238E+02 -0.24143922571E+02 -0.31936320307E+01  0.26860676917E+02  0.00000000000E+00 0. -1.
</event>
<event>
 5    1  0.8952932E-005  0.9118800E+02  0.7818608E-02  0.1130116E+00
         25   -1    0    0    0    0  0.00000000000E+00  0.00000000000E+00  0.99999998245E-14  0.12500000000E+03  0.12500000000E+03 0.  0.
        -11    1    3    3    0    0 -0.42305444769E+02 -0.42539386954E+02 -0.17450441647E+02  0.62480941202E+02  0.51100000000E-03 0.  1.
         23    2    1    0    0    0 -0.18019908788E+02 -0.19634790798E+02 -0.75532388993E+01  0.97299936097E+02  0.93273704891E+02 0.  0.
         11    1    3    3    0    0  0.24285535981E+02  0.22904596157E+02  0.98972027475E+01  0.34818994895E+02  0.51100000000E-03 0. -1.
         22    1    1    0    0    0  0.18019908788E+02  0.19634790798E+02  0.75532388993E+01  0.27700063903E+02  0.00000000000E+00 0.  1.
</event>
<event>
 5    1  0.8952932E-005  0.9118800E+02  0.7818608E-02  0.1130116E+00
         25   -1    0    0    0    0  0.00000000000E+00  0.00000000000E+00  0.99999998245E-14  0.12500000000E+03  0.12500000000E+03 0.  0.
        -11    1    3    3    0    0 -0.57141585367E+01 -0.28159844524E+02  0.24725440276E+02  0.37907464285E+02  0.51100000000E-03 0.  1.
         23    2    1    0    0    0 -0.11674651101E+02  0.26204548803E+02  0.61994603378E+01  0.95650227177E+02  0.91036019213E+02 0.  0.
         11    1    3    3    0    0 -0.59604925647E+01  0.54364393327E+02 -0.18525979938E+02  0.57742762892E+02  0.51100000000E-03 0. -1.
         22    1    1    0    0    0  0.11674651101E+02 -0.26204548803E+02 -0.61994603378E+01  0.29349772823E+02  0.00000000000E+00 0. -1.
</event>
<event>
 5    1  0.8952932E-005  0.9118800E+02  0.7818608E-02  0.1130116E+00
         25   -1    0    0    0    0  0.00000000000E+00  0.00000000000E+00  0.99999998245E-14  0.12500000000E+03  0.12500000000E+03 0.  0.
        -11    1    3    3    0    0 -0.25583516724E+02 -0.23345370071E+02 -0.33137807099E+02  0.47933671790E+02  0.51100000000E-03 0.  1.
         23    2    1    0    0    0 -0.94293971662E+01  0.20567968454E+02 -0.13286876700E+02  0.98760793654E+02  0.95211335531E+02 0.  0.
         11    1    3    3    0    0  0.16154119557E+02  0.43913338524E+02  0.19850930399E+02  0.50827121864E+02  0.51100000000E-03 0. -1.
         22    1    1    0    0    0  0.94293971662E+01 -0.20567968454E+02  0.13286876700E+02  0.26239206346E+02  0.00000000000E+00 0. -1.
</event>
<event>
 5    1  0.8952932E-005  0.9118800E+02  0.7818608E-02  0.1130116E+00
         25   -1    0    0    0    0  0.00000000000E+00  0.00000000000E+00  0.99999998245E-14  0.12500000000E+03  0.12500000000E+03 0.  0.
        -11    1    3    3    0    0  0.13031167190E+01 -0.21421329597E+02  0.48837863049E+02  0.53345181060E+02  0.51100000000E-03 0.  1.
         23    2    1    0    0    0 -0.50183706168E+01 -0.32647720421E+02  0.16662692014E+02  0.88004013765E+02  0.79849880659E+02 0.  0.
         11    1    3    3    0    0 -0.63214873357E+01 -0.11226390824E+02 -0.32175171035E+02  0.34658832705E+02  0.51100000000E-03 0. -1.
         22    1    1    0    0    0  0.50183706168E+01  0.32647720421E+02 -0.16662692014E+02  0.36995986235E+02  0.00000000000E+00 0. -1.
</event>
<event>
 5    1  0.8952932E-005  0.9118800E+02  0.7818608E-02  0.1130116E+00
         25   -1    0    0    0    0  0.00000000000E+00  0.00000000000E+00  0.99999998245E-14  0.12500000000E+03  0.12500000000E+03 0.  0.
        -11    1    3    3    0    0  0.64561106891E+01  0.39956493380E+02 -0.75849960933E+01  0.41179301772E+02  0.51100000000E-03 0. -1.
         23    2    1    0    0    0 -0.60418501252E+01 -0.90057720024E+01 -0.27457344593E+02  0.95478589898E+02  0.90800041160E+02 0.  0.
         11    1    3    3    0    0 -0.12497960814E+02 -0.48962265382E+02 -0.19872348500E+02  0.54299288126E+02  0.51100000000E-03 0.  1.
         22    1    1    0    0    0  0.60418501252E+01  0.90057720024E+01  0.27457344593E+02  0.29521410102E+02  0.00000000000E+00 0.  1.
</event>
<event>
 5    1  0.8952932E-005  0.9118800E+02  0.7818608E-02  0.1130116E+00
         25   -1    0    0    0    0  0.00000000000E+00  0.00000000000E+00  0.99999998245E-14  0.12500000000E+03  0.12500000000E+03 0.  0.
        -11    1    3    3    0    0 -0.32153731359E+02  0.90087028609E+01  0.24822687468E+02  0.41607511112E+02  0.51100000000E-03 0.  1.
         23    2    1    0    0    0 -0.73750915169E+01  0.20282470208E+02 -0.20987620262E+02  0.94896000650E+02  0.89994445175E+02 0.  0.
         11    1    3    3    0    0  0.24778639843E+02  0.11273767347E+02 -0.45810307730E+02  0.53288489538E+02  0.51100000000E-03 0. -1.
         22    1    1    0    0    0  0.73750915169E+01 -0.20282470208E+02  0.20987620262E+02  0.30103999350E+02  0.00000000000E+00 0.  1.
</event>
<event>
 5    1  0.8952932E-005  0.9118800E+02  0.7818608E-02  0.1130116E+00
         25   -1    0    0    0    0  0.00000000000E+00  0.00000000000E+00  0.99999998245E-14  0.12500000000E+03  0.12500000000E+03 0.  0.
        -11    1    3    3    0    0 -0.18961836682E+02 -0.24738843255E+01 -0.30454801292E+02  0.35960621185E+02  0.51100000000E-03 0.  1.
         23    2    1    0    0    0 -0.10799908654E+02 -0.34765545420E+01  0.27894440701E+02  0.94886476784E+02  0.89981215795E+02 0.  0.
         11    1    3    3    0    0  0.81619280280E+01 -0.10026702166E+01  0.58349241993E+02  0.58925855599E+02  0.51100000000E-03 0. -1.
         22    1    1    0    0    0  0.10799908654E+02  0.34765545420E+01 -0.27894440701E+02  0.30113523216E+02  0.00000000000E+00 0. -1.
</event>
<event>
 5    1  0.8952932E-005  0.9118800E+02  0.7818608E-02  0.1130116E+00
         25   -1    0    0    0    0  0.00000000000E+00  0.00000000000E+00  0.99999998245E-14  0.12500000000E+03  0.12500000000E+03 0.  0.
        -11    1    3    3    0    0 -0.48082612688E+02 -0.34600612086E+02 -0.14240221094E+02  0.60925560290E+02  0.51100000000E-03 0. -1.
         23    2    1    0    0    0 -0.23017224819E+02 -0.53020920800E+01 -0.84428385109E+01  0.99916412917E+02  0.96716612996E+02 0.  0.
         11    1    3    3    0    0  0.25065387868E+02  0.29298520006E+02  0.57973825830E+01  0.38990852627E+02  0.51100000000E-03 0.  1.
         22    1    1    0    0    0  0.23017224819E+02  0.53020920800E+01  0.84428385109E+01  0.25083587083E+02  0.00000000000E+00 0. -1.
</event>
<event>
 5    1  0.8952932E-005  0.9118800E+02  0.7818608E-02  0.1130116E+00
         25   -1    0    0    0    0  0.00000000000E+00  0.00000000000E+00  0.99999998245E-14  0.12500000000E+03  0.12500000000E+03 0.  0.
        -11    1    3    3    0    0 -0.32518824826E+01  0.33518359679E+02  0.14840967375E+01  0.33708422073E+02  0.51100000000E-03 0.  1.
         23    2    1    0    0    0 -0.29651566735E+01 -0.24384195774E+02 -0.17718338439E+02  0.94712697798E+02  0.89739480996E+02 0.  0.
         11    1    3    3    0    0  0.28672580918E+00 -0.57902555454E+02 -0.19202435176E+02  0.61004275725E+02  0.51100000000E-03 0. -1.
         22    1    1    0    0    0  0.29651566735E+01  0.24384195774E+02  0.17718338439E+02  0.30287302202E+02  0.00000000000E+00 0. -1.
</event>
<event>
 5    1  0.8952932E-005  0.9118800E+02  0.7818608E-02  0.1130116E+00
         25   -1    0    0    0    0  0.00000000000E+00  0.00000000000E+00  0.99999998245E-14  0.12500000000E+03  0.12500000000E+03 0.  0.
        -11    1    3    3    0    0 -0.57026854846E+02 -0.16811444613E+02  0.48395473718E+01  0.59649878982E+02  0.51100000000E-03 0.  1.
         23    2    1    0    0    0 -0.26100433159E+02  0.88799027573E+00  0.12421912374E+02  0.96080715001E+02  0.91625208050E+02 0.  0.
         11    1    3    3    0    0  0.30926421687E+02  0.17699434889E+02  0.75823650025E+01  0.36430836019E+02  0.51100000000E-03 0. -1.
         22    1    1    0    0    0  0.26100433159E+02 -0.88799027573E+00 -0.12421912374E+02  0.28919284999E+02  0.00000000000E+00 0.  1.
</event>
<event>
 5    1  0.8952932E-005  0.9118800E+02  0.7818608E-02  0.1130116E+00
         25   -1    0    0    0    0  0.00000000000E+00  0.00000000000E+00  0.99999998245E-14  0.12500000000E+03  0.12500000000E+03 0.  0.
        -11    1    3    3    0    0 -0.34523361507E+02 -0.89162514848E+01  0.19254132630E+02  0.40522631379E+02  0.51100000000E-03 0.  1.
         23    2    1    0    0    0  0.70207432346E+01 -0.18057376278E+02 -0.19096757571E+02  0.97796216746E+02  0.93936436948E+02 0.  0.
         11    1    3    3    0    0  0.41544104742E+02 -0.91411247930E+01 -0.38350890201E+02  0.57273585367E+02  0.51100000000E-03 0. -1.
         22    1    1    0    0    0 -0.70207432346E+01  0.18057376278E+02  0.19096757571E+02  0.27203783254E+02  0.00000000000E+00 0. -1.
</event>
<event>
 5    1  0.8952932E-005  0.9118800E+02  0.7818608E-02  0.1130116E+00
         25   -1    0    0    0    0  0.00000000000E+00  0.00000000000E+00  0.99999998245E-14  0.12500000000E+03  0.12500000000E+03 0.  0.
        -11    1    3    3    0    0  0.26961599821E+02 -0.46069472590E+02 -0.19117006211E+02  0.56699066098E+02  0.51100000000E-03 0.  1.
         23    2    1    0    0    0  0.11837708300E+02 -0.27305674551E+02  0.91677602543E+01  0.93858724680E+02  0.88541974057E+02 0.  0.
         11    1    3    3    0    0 -0.15123891521E+02  0.18763798039E+02  0.28284766466E+02  0.37159658581E+02  0.51100000000E-03 0. -1.
         22    1    1    0    0    0 -0.11837708300E+02  0.27305674551E+02 -0.91677602543E+01  0.31141275320E+02  0.00000000000E+00 0.  1.
</event>
<event>
 5    1  0.8952932E-005  0.9118800E+02  0.7818608E-02  0.1130116E+00
         25   -1    0    0    0    0  0.00000000000E+00  0.00000000000E+00  0.99999998245E-14  0.12500000000E+03  0.12500000000E+03 0.  0.
        -11    1    3    3    0    0  0.33223928595E+02 -0.45383793479E+01 -0.29759047176E+02  0.44833326973E+02  0.51100000000E-03 0.  1.
         23    2    1    0    0    0 -0.90367629083E+01  0.20094640037E+02 -0.21068200463E+02  0.94515139613E+02  0.89463874850E+02 0.  0.
         11    1    3    3    0    0 -0.42260691503E+02  0.24633019385E+02  0.86908467134E+01  0.49681812640E+02  0.51100000000E-03 0. -1.
         22    1    1    0    0    0  0.90367629083E+01 -0.20094640037E+02  0.21068200463E+02  0.30484860387E+02  0.00000000000E+00 0. -1.
</event>
<event>
 5    1  0.8952932E-005  0.9118800E+02  0.7818608E-02  0.1130116E+00
         25   -1    0    0    0    0  0.00000000000E+00  0.00000000000E+00  0.99999998245E-14  0.12500000000E+03  0.12500000000E+03 0.  0.
        -11    1    3    3    0    0 -0.11648085438E+01  0.26718873645E+02 -0.37351127258E+02  0.45938673201E+02  0.51100000000E-03 0.  1.
         23    2    1    0    0    0 -0.10468718303E+02 -0.18933643338E+02 -0.19632460728E+02  0.95785099227E+02  0.91221021737E+02 0.  0.
         11    1    3    3    0    0 -0.93039097587E+01 -0.45652516983E+02  0.17718666529E+02  0.49846426025E+02  0.51100000000E-03 0. -1.
         22    1    1    0    0    0  0.10468718303E+02  0.18933643338E+02  0.19632460728E+02  0.29214900773E+02  0.00000000000E+00 0. -1.
</event>
<event>
 5    1  0.8952932E-005  0.9118800E+02  0.7818608E-02  0.1130116E+00
         25   -1    0    0    0    0  0.00000000000E+00  0.00000000000E+00  0.99999998245E-14  0.12500000000E+03  0.12500000000E+03 0.  0.
        -11    1    3    3    0    0 -0.31334440177E+02 -0.17115656175E+02 -0.49943702579E+02  0.61393535939E+02  0.51100000000E-03 0. -1.
         23    2    1    0    0    0 -0.93902783203E+01 -0.14510631288E+02 -0.22457497496E+02  0.96661423093E+02  0.92414045325E+02 0.  0.
         11    1    3    3    0    0  0.21944161857E+02  0.26050248870E+01  0.27486205082E+02  0.35267887154E+02  0.51100000000E-03 0.  1.
         22    1    1    0    0    0  0.93902783203E+01  0.14510631288E+02  0.22457497496E+02  0.28338576907E+02  0.00000000000E+00 0. -1.
</event>
<event>
 5    1  0.8952932E-005  0.9118800E+02  0.7818608E-02  0.1130116E+00
         25   -1    0    0    0    0  0.00000000000E+00  0.00000000000E+00  0.99999998245E-14  0.12500000000E+03  0.12500000000E+03 0.  0.
        -11    1    3    3    0    0 -0.24268278263E+02 -0.21999597364E+02 -0.48803145511E+02  0.58776514239E+02  0.51100000000E-03 0.  1.
         23    2    1    0    0    0 -0.15426031232E+02  0.30141764030E+01 -0.29457916010E+02  0.91611131876E+02  0.85309923039E+02 0.  0.
         11    1    3    3    0    0  0.88422470312E+01  0.25013773767E+02  0.19345229501E+02  0.32834617637E+02  0.51100000000E-03 0. -1.
         22    1    1    0    0    0  0.15426031232E+02 -0.30141764030E+01  0.29457916010E+02  0.33388868124E+02  0.00000000000E+00 0.  1.
</event>
<event>
 5    1  0.8952932E-005  0.9118800E+02  0.7818608E-02  0.1130116E+00
         25   -1    0    0    0    0  0.00000000000E+00  0.00000000000E+00  0.99999998245E-14  0.12500000000E+03  0.12500000000E+03 0.  0.
        -11    1    3    3    0    0 -0.51698313789E+02  0.99630622585E+01  0.15049495436E+02  0.54758246606E+02  0.51100000000E-03 0. -1.
         23    2    1    0    0    0 -0.29174300988E+02 -0.13095785517E+02 -0.48729597989E+01  0.92652122579E+02  0.86821832766E+02 0.  0.
         11    1    3    3    0    0  0.22524012802E+02 -0.23058847776E+02 -0.19922455235E+02  0.37893875973E+02  0.51100000000E-03 0.  1.
         22    1    1    0    0    0  0.29174300988E+02  0.13095785517E+02  0.48729597989E+01  0.32347877421E+02  0.00000000000E+00 0. -1.
</event>
<event>
 5    1  0.8952932E-005  0.9118800E+02  0.7818608E-02  0.1130116E+00
         25   -1    0    0    0    0  0.00000000000E+00  0.00000000000E+00  0.99999998245E-14  0.12500000000E+03  0.12500000000E+03 0.  0.
        -11    1    3    3    0    0  0.14229547448E+02 -0.29865547188E+02  0.48556496865E+02  0.58755121628E+02  0.51100000000E-03 0.  1.
         23    2    1    0    0    0  0.18426606779E+02 -0.40949706979E+01  0.22291487008E+02  0.95790087035E+02  0.91227856265E+02 0.  0.
         11    1    3    3    0    0  0.41970593315E+01  0.25770576491E+02 -0.26265009857E+02  0.37034965408E+02  0.51100000000E-03 0. -1.
         22    1    1    0    0    0 -0.18426606779E+02  0.40949706979E+01 -0.22291487008E+02  0.29209912965E+02  0.00000000000E+00 0.  1.
</event>
<event>
 5    1  0.8952932E-005  0.9118800E+02  0.7818608E-02  0.1130116E+00
         25   -1    0    0    0    0  0.00000000000E+00  0.00000000000E+00  0.99999998245E-14  0.12500000000E+03  0.12500000000E+03 0.  0.
        -11    1    3    3    0    0  0.41211214943E+02  0.67000825506E+01 -0.34111065849E+00  0.41753702830E+02  0.51100000000E-03 0.  1.
         23    2    1    0    0    0 -0.87940864312E+01  0.25396264119E+02 -0.10587092129E+02  0.96114143477E+02  0.91670801617E+02 0.  0.
         11    1    3    3    0    0 -0.50005301374E+02  0.18696181568E+02 -0.10245981470E+02  0.54360440647E+02  0.51100000000E-03 0. -1.
         22    1    1    0    0    0  0.87940864312E+01 -0.25396264119E+02  0.10587092129E+02  0.28885856523E+02  0.00000000000E+00 0. -1.
</event>
<event>
 5    1  0.8952932E-005  0.9118800E+02  0.7818608E-02  0.1130116E+00
         25   -1    0    0    0    0  0.00000000000E+00  0.00000000000E+00  0.99999998245E-14  0.12500000000E+03  0.12500000000E+03 0.  0.
        -11    1    3    3    0    0 -0.89017929668E+01 -0.36605600938E+02 -0.10795145976E+01  0.37687893150E+02  0.51100000000E-03 0.  1.
         23    2    1    0    0    0  0.19932627162E+02  0.14822303922E+02 -0.11610530320E+02  0.97580759794E+02  0.93649292302E+02 0.  0.
         11    1    3    3    0    0  0.28834420129E+02  0.51427904860E+02 -0.10531015722E+02  0.59892866644E+02  0.51100000000E-03 0. -1.
         22    1    1    0    0    0 -0.19932627162E+02 -0.14822303922E+02  0.11610530320E+02  0.27419240206E+02  0.00000000000E+00 0. -1.
</event>
<event>
 5    1  0.8952932E-005  0.9118800E+02  0.7818608E-02  0.1130116E+00
         25   -1    0    0    0    0  0.00000000000E+00  0.00000000000E+00  0.99999998245E-14  0.12500000000E+03  0.12500000000E+03 0.  0.
        -11    1    3    3    0    0 -0.38799158064E+02  0.17439777984E+02 -0.75334257465E+01  0.43200382248E+02  0.51100000000E-03 0.  1.
         23    2    1    0    0    0  0.97940875667E+01  0.14801210351E+02  0.19305847096E+02  0.98775665667E+02  0.95230858531E+02 0.  0.
         11    1    3    3    0    0  0.48593245631E+02 -0.26385676324E+01  0.26839272843E+02  0.55575283419E+02  0.51100000000E-03 0. -1.
         22    1    1    0    0    0 -0.97940875667E+01 -0.14801210351E+02 -0.19305847096E+02  0.26224334333E+02  0.00000000000E+00 0.  1.
</event>
<event>
 5    1  0.8952932E-005  0.9118800E+02  0.7818608E-02  0.1130116E+00
         25   -1    0    0    0    0  0.00000000000E+00  0.00000000000E+00  0.99999998245E-14  0.12500000000E+03  0.12500000000E+03 0.  0.
        -11    1    3    3    0    0  0.27301948690E+02  0.17259689419E+02  0.20063087413E+02  0.38023949794E+02  0.51100000000E-03 0.  1.
         23    2    1    0    0    0 -0.24753690855E+02 -0.42449504023E+01  0.17470377030E+02  0.94406227947E+02  0.89311572524E+02 0.  0.
         11    1    3    3    0    0 -0.52055639545E+02 -0.21504639822E+02 -0.25927103822E+01  0.56382278153E+02  0.51100000000E-03 0. -1.
         22    1    1    0    0    0  0.24753690855E+02  0.42449504023E+01 -0.17470377030E+02  0.30593772053E+02  0.00000000000E+00 0.  1.
</event>
<event>
 5    1  0.8952932E-005  0.9118800E+02  0.7818608E-02  0.1130116E+00
         25   -1    0    0    0    0  0.00000000000E+00  0.00000000000E+00  0.99999998245E-14  0.12500000000E+03  0.12500000000E+03 0.  0.
        -11    1    3    3    0    0  0.81081513405E+01 -0.45923640022E+02 -0.41520558035E+02  0.62439407194E+02  0.51100000000E-03 0.  1.
         23    2    1    0    0    0  0.23474057961E+01 -0.21246609620E+02 -0.20822088084E+02  0.95158952993E+02  0.90358941164E+02 0.  0.
         11    1    3    3    0    0 -0.57607455444E+01  0.24677030402E+02  0.20698469951E+02  0.32719545799E+02  0.51100000000E-03 0. -1.
         22    1    1    0    0    0 -0.23474057961E+01  0.21246609620E+02  0.20822088084E+02  0.29841047007E+02  0.00000000000E+00 0.  1.
</event>
<event>
 5    1  0.8952932E-005  0.9118800E+02  0.7818608E-02  0.1130116E+00
         25   -1    0    0    0    0  0.00000000000E+00  0.00000000000E+00  0.99999998245E-14  0.12500000000E+03  0.12500000000E+03 0.  0.
        -11    1    3    3    0    0 -0.12401654446E+01 -0.22790020028E+02  0.24095316743E+02  0.33188963714E+02  0.51100000000E-03 0.  1.
         23    2    1    0    0    0 -0.51969924129E+01  0.11752136371E+02 -0.27061661325E+02  0.95042447478E+02  0.90197626740E+02 0.  0.
         11    1    3    3    0    0 -0.39568269683E+01  0.34542156400E+02 -0.51156978068E+02  0.61853483764E+02  0.51100000000E-03 0. -1.
         22    1    1    0    0    0  0.51969924129E+01 -0.11752136371E+02  0.27061661325E+02  0.29957552522E+02  0.00000000000E+00 0. -1.
</event>
<event>
 5    1  0.8952932E-005  0.9118800E+02  0.7818608E-02  0.1130116E+00
         25   -1    0    0    0    0  0.00000000000E+00  0.00000000000E+00  0.99999998245E-14  0.12500000000E+03  0.12500000000E+03 0.  0.
        -11    1    3    3    0    0 -0.18019372732E+02 -0.38443788546E+02 -0.48056207926E+01  0.42728405808E+02  0.51100000000E-03 0.  1.
         23    2    1    0    0    0 -0.12224513147E+02  0.10507976253E+02 -0.24385287622E+02  0.95768193025E+02  0.91197852257E+02 0.  0.
         11    1    3    3    0    0  0.57948595854E+01  0.48951764799E+02 -0.19579666829E+02  0.53039787217E+02  0.51100000000E-03 0. -1.
         22    1    1    0    0    0  0.12224513147E+02 -0.10507976253E+02  0.24385287622E+02  0.29231806975E+02  0.00000000000E+00 0.  1.
</event>
<event>
 5    1  0.8952932E-005  0.9118800E+02  0.7818608E-02  0.1130116E+00
         25   -1    0    0    0    0  0.00000000000E+00  0.00000000000E+00  0.99999998245E-14  0.12500000000E+03  0.12500000000E+03 0.  0.
        -11    1    3    3    0    0  0.19163129855E+02  0.26637436993E+02  0.10909197254E+02  0.34580184794E+02  0.51100000000E-03 0.  1.
         23    2    1    0    0    0  0.55867684826E+01 -0.29289210814E+02 -0.60443262241E+01  0.94576263679E+02  0.89549237405E+02 0.  0.
         11    1    3    3    0    0 -0.13576361372E+02 -0.55926647807E+02 -0.16953523478E+02  0.59996078886E+02  0.51100000000E-03 0. -1.
         22    1    1    0    0    0 -0.55867684826E+01  0.29289210814E+02  0.60443262241E+01  0.30423736321E+02  0.00000000000E+00 0. -1.
</event>
<event>
 5    1  0.8952932E-005  0.9118800E+02  0.7818608E-02  0.1130116E+00
         25   -1    0    0    0    0  0.00000000000E+00  0.00000000000E+00  0.99999998245E-14  0.12500000000E+03  0.12500000000E+03 0.  0.
        -11    1    3    3    0    0  0.39000307829E+02 -0.37889341618E+02  0.78257400602E+01  0.54935129260E+02  0.51100000000E-03 0. -1.
         23    2    1    0    0    0  0.27613735337E+00 -0.28946483091E+02 -0.23392291359E+01  0.95957838783E+02  0.91457420125E+02 0.  0.
         11    1    3    3    0    0 -0.38724170476E+02  0.89428585271E+01 -0.10164969196E+02  0.41022709524E+02  0.51100000000E-03 0.  1.
         22    1    1    0    0    0 -0.27613735337E+00  0.28946483091E+02  0.23392291359E+01  0.29042161217E+02  0.00000000000E+00 0. -1.
</event>
<event>
 5    1  0.8952932E-005  0.9118800E+02  0.7818608E-02  0.1130116E+00
         25   -1    0    0    0    0  0.00000000000E+00  0.00000000000E+00  0.99999998245E-14  0.12500000000E+03  0.12500000000E+03 0.  0.
        -11    1    3    3    0    0 -0.15670556113E+02 -0.57052787121E+02  0.51613410974E+01  0.59390456214E+02  0.51100000000E-03 0.  1.
         23    2    1    0    0    0  0.24476934665E+01 -0.31010421328E+02 -0.65553120083E+01  0.93209914285E+02  0.87621222152E+02 0.  0.
         11    1    3    3    0    0  0.18118249579E+02  0.26042365794E+02 -0.11716653106E+02  0.33819458071E+02  0.51100000000E-03 0. -1.
         22    1    1    0    0    0 -0.24476934665E+01  0.31010421328E+02  0.65553120083E+01  0.31790085715E+02  0.00000000000E+00 0.  1.
</event>
<event>
 5    1  0.8952932E-005  0.9118800E+02  0.7818608E-02  0.1130116E+00
         25   -1    0    0    0    0  0.00000000000E+00  0.00000000000E+00  0.99999998245E-14  0.12500000000E+03  0.12500000000E+03 0.  0.
        -11    1    3    3    0    0  0.50187736323E+01  0.92250611274E+01  0.36120785063E+02  0.37616498447E+02  0.51100000000E-03 0. -1.
         23    2    1    0    0    0 -0.23745614452E+02  0.22967324742E+01 -0.15098454813E+02  0.96767172945E+02  0.92556972921E+02 0.  0.
         11    1    3    3    0    0 -0.28764388084E+02 -0.69283286532E+01 -0.51219239876E+02  0.59150674498E+02  0.51100000000E-03 0.  1.
         22    1    1    0    0    0  0.23745614452E+02 -0.22967324742E+01  0.15098454813E+02  0.28232827055E+02  0.00000000000E+00 0.  1.
</event>
<event>
 5    1  0.8952932E-005  0.9118800E+02  0.7818608E-02  0.1130116E+00
         25   -1    0    0    0    0  0.00000000000E+00  0.00000000000E+00  0.99999998245E-14  0.12500000000E+03  0.12500000000E+03 0.  0.
        -11    1    3    3    0    0  0.10137283837E+02  0.15751775331E+02 -0.36716534554E+02  0.41218768293E+02  0.51100000000E-03 0. -1.
         23    2    1    0    0    0  0.31501527066E+02  0.43316196215E+01  0.81204395958E+01  0.92181549774E+02  0.86141670773E+02 0.  0.
         11    1    3    3    0    0  0.21364243229E+02 -0.11420155709E+02  0.44836974150E+02  0.50962781481E+02  0.51100000000E-03 0.  1.
         22    1    1    0    0    0 -0.31501527066E+02 -0.43316196215E+01 -0.81204395958E+01  0.32818450226E+02  0.00000000000E+00 0. -1.
</event>
<event>
 5    1  0.8952932E-005  0.9118800E+02  0.7818608E-02  0.1130116E+00
         25   -1    0    0    0    0  0.00000000000E+00  0.00000000000E+00  0.99999998245E-14  0.12500000000E+03  0.12500000000E+03 0.  0.
        -11    1    3    3    0    0  0.23333851032E+02  0.19689758907E+02 -0.22605212464E+02  0.37988825207E+02  0.51100000000E-03 0.  1.
         23    2    1    0    0    0 -0.28452451978E+02  0.73811222270E+01 -0.56529541997E+00  0.95600296807E+02  0.90967434842E+02 0.  0.
         11    1    3    3    0    0 -0.51786303010E+02 -0.12308636680E+02  0.22039917044E+02  0.57611471600E+02  0.51100000000E-03 0. -1.
         22    1    1    0    0    0  0.28452451978E+02 -0.73811222270E+01  0.56529541997E+00  0.29399703193E+02  0.00000000000E+00 0. -1.
</event>
<event>
 5    1  0.8952932E-005  0.9118800E+02  0.7818608E-02  0.1130116E+00
         25   -1    0    0    0    0  0.00000000000E+00  0.00000000000E+00  0.99999998245E-14  0.12500000000E+03  0.12500000000E+03 0.  0.
        -11    1    3    3    0    0 -0.47823134454E+02 -0.32576540142E+02  0.67541410218E+01  0.58257201940E+02  0.51100000000E-03 0.  1.
         23    2    1    0    0    0 -0.32140090196E+02 -0.28038641391E+02 -0.95088276513E+01  0.81301388899E+02  0.68559078353E+02 0.  0.
         11    1    3    3    0    0  0.15683044258E+02  0.45378987511E+01 -0.16262968673E+02  0.23044186959E+02  0.51100000000E-03 0. -1.
         22    1    1    0    0    0  0.32140090196E+02  0.28038641391E+02  0.95088276513E+01  0.43698611101E+02  0.00000000000E+00 0.  1.
</event>
<event>
 5    1  0.8952932E-005  0.9118800E+02  0.7818608E-02  0.1130116E+00
         25   -1    0    0    0    0  0.00000000000E+00  0.00000000000E+00  0.99999998245E-14  0.12500000000E+03  0.12500000000E+03 0.  0.
        -11    1    3    3    0    0  0.34159235581E+02 -0.11692978055E+01  0.16689806230E+02  0.38036433391E+02  0.51100000000E-03 0. -1.
         23    2    1    0    0    0 -0.15372212369E+02  0.24968839377E+02  0.48314124094E+01  0.95283163041E+02  0.90530606760E+02 0.  0.
         11    1    3    3    0    0 -0.49531447950E+02  0.26138137183E+02 -0.11858393821E+02  0.57246729651E+02  0.51100000000E-03 0.  1.
         22    1    1    0    0    0  0.15372212369E+02 -0.24968839377E+02 -0.48314124094E+01  0.29716836959E+02  0.00000000000E+00 0.  1.
</event>
<event>
 5    1  0.8952932E-005  0.9118800E+02  0.7818608E-02  0.1130116E+00
         25   -1    0    0    0    0  0.00000000000E+00  0.00000000000E+00  0.99999998245E-14  0.12500000000E+03  0.12500000000E+03 0.  0.
        -11    1    3    3    0    0 -0.39168653142E+02  0.37878409939E+02  0.81237774214E+01  0.55090408315E+02  0.51100000000E-03 0.  1.
         23    2    1    0    0    0 -0.22274251258E+01  0.27707953676E+02 -0.70846286437E+01  0.96314043808E+02  0.91942976633E+02 0.  0.
         11    1    3    3    0    0  0.36941228016E+02 -0.10170456263E+02 -0.15208406065E+02  0.41223635493E+02  0.51100000000E-03 0. -1.
         22    1    1    0    0    0  0.22274251258E+01 -0.27707953676E+02  0.70846286437E+01  0.28685956192E+02  0.00000000000E+00 0.  1.
</event>
<event>
 5    1  0.8952932E-005  0.9118800E+02  0.7818608E-02  0.1130116E+00
         25   -1    0    0    0    0  0.00000000000E+00  0.00000000000E+00  0.99999998245E-14  0.12500000000E+03  0.12500000000E+03 0.  0.
        -11    1    3    3    0    0  0.25008160908E+01  0.44571193104E+02  0.20428955846E+02  0.49093661231E+02  0.51100000000E-03 0.  1.
         23    2    1    0    0    0  0.11954699605E+02  0.19446465630E+02 -0.17971857557E+02  0.95947159653E+02  0.91442823192E+02 0.  0.
         11    1    3    3    0    0  0.94538835145E+01 -0.25124727474E+02 -0.38400813403E+02  0.46853498422E+02  0.51100000000E-03 0. -1.
         22    1    1    0    0    0 -0.11954699605E+02 -0.19446465630E+02  0.17971857557E+02  0.29052840347E+02  0.00000000000E+00 0. -1.
</event>
<event>
 5    1  0.8952932E-005  0.9118800E+02  0.7818608E-02  0.1130116E+00
         25   -1    0    0    0    0  0.00000000000E+00  0.00000000000E+00  0.99999998245E-14  0.12500000000E+03  0.12500000000E+03 0.  0.
        -11    1    3    3    0    0  0.12972967522E+02  0.32036924859E+02  0.13380368054E+02  0.37063414444E+02  0.51100000000E-03 0.  1.
         23    2    1    0    0    0  0.12167885712E+02 -0.15537377818E+02  0.31375726243E+02  0.87933792352E+02  0.79739877652E+02 0.  0.
         11    1    3    3    0    0 -0.80508181055E+00 -0.47574302676E+02  0.17995358189E+02  0.50870377908E+02  0.51100000000E-03 0. -1.
         22    1    1    0    0    0 -0.12167885712E+02  0.15537377818E+02 -0.31375726243E+02  0.37066207648E+02  0.00000000000E+00 0. -1.
</event>
<event>
 5    1  0.8952932E-005  0.9118800E+02  0.7818608E-02  0.1130116E+00
         25   -1    0    0    0    0  0.00000000000E+00  0.00000000000E+00  0.99999998245E-14  0.12500000000E+03  0.12500000000E+03 0.  0.
        -11    1    3    3    0    0 -0.56532455665E+02  0.10007486144E+02 -0.10166278950E+02  0.58304558573E+02  0.51100000000E-03 0.  1.
         23    2    1    0    0    0 -0.28442243633E+02 -0.11331822818E+02 -0.38428396370E+01  0.94143252800E+02  0.88942752375E+02 0.  0.
         11    1    3    3    0    0  0.28090212032E+02 -0.21339308962E+02  0.63234393127E+01  0.35838694228E+02  0.51100000000E-03 0. -1.
         22    1    1    0    0    0  0.28442243633E+02  0.11331822818E+02  0.38428396370E+01  0.30856747200E+02  0.00000000000E+00 0.  1.
</event>
<event>
 5    1  0.8952932E-005  0.9118800E+02  0.7818608E-02  0.1130116E+00
         25   -1    0    0    0    0  0.00000000000E+00  0.00000000000E+00  0.99999998245E-14  0.12500000000E+03  0.12500000000E+03 0.  0.
        -11    1    3    3    0    0 -0.91146789168E+01 -0.53944655187E+02  0.66120817880E+01  0.55107375376E+02  0.51100000000E-03 0.  1.
         23    2    1    0    0    0  0.63480128987E+01 -0.19327835662E+02  0.21095830735E+02  0.95693062706E+02  0.91094816958E+02 0.  0.
         11    1    3    3    0    0  0.15462691815E+02  0.34616819525E+02  0.14483748947E+02  0.40585687330E+02  0.51100000000E-03 0. -1.
         22    1    1    0    0    0 -0.63480128987E+01  0.19327835662E+02 -0.21095830735E+02  0.29306937294E+02  0.00000000000E+00 0.  1.
</event>
<event>
 5    1  0.8952932E-005  0.9118800E+02  0.7818608E-02  0.1130116E+00
         25   -1    0    0    0    0  0.00000000000E+00  0.00000000000E+00  0.99999998245E-14  0.12500000000E+03  0.12500000000E+03 0.  0.
        -11    1    3    3    0    0 -0.31752507088E+02 -0.47192149023E+02 -0.12109977583E+02  0.58154726318E+02  0.51100000000E-03 0.  1.
         23    2    1    0    0    0 -0.27631011999E+02 -0.14212597085E+02  0.10720310853E+01  0.93909487128E+02  0.88613609463E+02 0.  0.
         11    1    3    3    0    0  0.41214950897E+01  0.32979551938E+02  0.13182008668E+02  0.35754760810E+02  0.51100000000E-03 0. -1.
         22    1    1    0    0    0  0.27631011999E+02  0.14212597085E+02 -0.10720310853E+01  0.31090512872E+02  0.00000000000E+00 0.  1.
</event>
<event>
 5    1  0.8952932E-005  0.9118800E+02  0.7818608E-02  0.1130116E+00
         25   -1    0    0    0    0  0.00000000000E+00  0.00000000000E+00  0.99999998245E-14  0.12500000000E+03  0.12500000000E+03 0.  0.
        -11    1    3    3    0    0 -0.21895400274E+02 -0.62268819544E+01  0.24969165446E+02  0.33788190768E+02  0.51100000000E-03 0. -1.
         23    2    1    0    0    0  0.19716402768E+02  0.99868793544E+00 -0.20975474339E+02  0.96195409404E+02  0.91781546897E+02 0.  0.
         11    1    3    3    0    0  0.41611803042E+02  0.72255698899E+01 -0.45944639785E+02  0.62407218636E+02  0.51100000000E-03 0.  1.
         22    1    1    0    0    0 -0.19716402768E+02 -0.99868793544E+00  0.20975474339E+02  0.28804590596E+02  0.00000000000E+00 0.  1.
</event>
<event>
 5    1  0.8952932E-005  0.9118800E+02  0.7818608E-02  0.1130116E+00
         25   -1    0    0    0    0  0.00000000000E+00  0.00000000000E+00  0.99999998245E-14  0.12500000000E+03  0.12500000000E+03 0.  0.
        -11    1    3    3    0    0  0.29393883753E+02  0.38942050759E+02  0.93502637959E+01  0.49678075171E+02  0.51100000000E-03 0.  1.
         23    2    1    0    0    0 -0.10454165370E+02  0.20271226629E+02  0.19674898722E+02  0.94878349276E+02  0.89969924525E+02 0.  0.
         11    1    3    3    0    0 -0.39848049123E+02 -0.18670824130E+02  0.10324634926E+02  0.45200274105E+02  0.51100000000E-03 0. -1.
         22    1    1    0    0    0  0.10454165370E+02 -0.20271226629E+02 -0.19674898722E+02  0.30121650724E+02  0.00000000000E+00 0. -1.
</event>
<event>
 5    1  0.8952932E-005  0.9118800E+02  0.7818608E-02  0.1130116E+00
         25   -1    0    0    0    0  0.00000000000E+00  0.00000000000E+00  0.99999998245E-14  0.12500000000E+03  0.12500000000E+03 0.  0.
        -11    1    3    3    0    0  0.18681586141E+02  0.52424308024E+02 -0.73908912911E+01  0.56142096567E+02  0.51100000000E-03 0. -1.
         23    2    1    0    0    0  0.22305087907E+02  0.97252389170E+01  0.36515131578E+01  0.10039449722E+03  0.97332544948E+02 0.  0.
         11    1    3    3    0    0  0.36235017652E+01 -0.42699069107E+02  0.11042404449E+02  0.44252400657E+02  0.51100000000E-03 0.  1.
         22    1    1    0    0    0 -0.22305087907E+02 -0.97252389170E+01 -0.36515131578E+01  0.24605502776E+02  0.00000000000E+00 0. -1.
</event>
<event>
 5    1  0.8952932E-005  0.9118800E+02  0.7818608E-02  0.1130116E+00
         25   -1    0    0    0    0  0.00000000000E+00  0.00000000000E+00  0.99999998245E-14  0.12500000000E+03  0.12500000000E+03 0.  0.
        -11    1    3    3    0    0 -0.37743515859E+02 -0.18182559516E+02 -0.38441605788E+02  0.56858908852E+02  0.51100000000E-03 0. -1.
         23    2    1    0    0    0 -0.28137256843E+02 -0.13143410740E+02 -0.31442249245E+01  0.93785570341E+02  0.88438637401E+02 0.  0.
         11    1    3    3    0    0  0.96062590155E+01  0.50391487768E+01  0.35297380864E+02  0.36926661490E+02  0.51100000000E-03 0.  1.
         22    1    1    0    0    0  0.28137256843E+02  0.13143410740E+02  0.31442249245E+01  0.31214429659E+02  0.00000000000E+00 0. -1.
</event>
<event>
 5    1  0.8952932E-005  0.9118800E+02  0.7818608E-02  0.1130116E+00
         25   -1    0    0    0    0  0.00000000000E+00  0.00000000000E+00  0.99999998245E-14  0.12500000000E+03  0.12500000000E+03 0.  0.
        -11    1    3    3    0    0  0.18695022018E+02 -0.31806311255E+02  0.22325662586E+02  0.43122853501E+02  0.51100000000E-03 0.  1.
         23    2    1    0    0    0 -0.65736655658E+01 -0.16591144636E+02 -0.22190255926E+02  0.96523929039E+02  0.92227882225E+02 0.  0.
         11    1    3    3    0    0 -0.25268687583E+02  0.15215166619E+02 -0.44515918512E+02  0.53401075538E+02  0.51100000000E-03 0. -1.
         22    1    1    0    0    0  0.65736655658E+01  0.16591144636E+02  0.22190255926E+02  0.28476070961E+02  0.00000000000E+00 0. -1.
</event>
<event>
 5    1  0.8952932E-005  0.9118800E+02  0.7818608E-02  0.1130116E+00
         25   -1    0    0    0    0  0.00000000000E+00  0.00000000000E+00  0.99999998245E-14  0.12500000000E+03  0.12500000000E+03 0.  0.
        -11    1    3    3    0    0  0.34477859477E+02 -0.92903017688E+01  0.25672019501E+02  0.43978234237E+02  0.51100000000E-03 0.  1.
         23    2    1    0    0    0  0.19259692517E+02 -0.25158487724E+01 -0.22691893284E+02  0.95130495958E+02  0.90319565928E+02 0.  0.
         11    1    3    3    0    0 -0.15218166960E+02  0.67744529964E+01 -0.48363912785E+02  0.51152261721E+02  0.51100000000E-03 0. -1.
         22    1    1    0    0    0 -0.19259692517E+02  0.25158487724E+01  0.22691893284E+02  0.29869504042E+02  0.00000000000E+00 0. -1.
</event>
<event>
 5    1  0.8952932E-005  0.9118800E+02  0.7818608E-02  0.1130116E+00
         25   -1    0    0    0    0  0.00000000000E+00  0.00000000000E+00  0.99999998245E-14  0.12500000000E+03  0.12500000000E+03 0.  0.
        -11    1    3    3    0    0  0.10913577385E+02  0.26379021937E+02 -0.33923240698E+02  0.44336725515E+02  0.51100000000E-03 0.  1.
         23    2    1    0    0    0  0.50139792945E+01  0.23295729110E+02  0.17022329811E+02  0.95715350517E+02  0.91125395084E+02 0.  0.
         11    1    3    3    0    0 -0.58995980907E+01 -0.30832928265E+01  0.50945570509E+02  0.51378625002E+02  0.51100000000E-03 0. -1.
         22    1    1    0    0    0 -0.50139792945E+01 -0.23295729110E+02 -0.17022329811E+02  0.29284649483E+02  0.00000000000E+00 0. -1.
</event>
<event>
 5    1  0.8952932E-005  0.9118800E+02  0.7818608E-02  0.1130116E+00
         25   -1    0    0    0    0  0.00000000000E+00  0.00000000000E+00  0.99999998245E-14  0.12500000000E+03  0.12500000000E+03 0.  0.
        -11    1    3    3    0    0  0.31903540040E+02 -0.37536828862E+02  0.33209486474E+02  0.59411441492E+02  0.51100000000E-03 0.  1.
         23    2    1    0    0    0  0.60165799216E+01 -0.27128112982E+02  0.10838306113E+02  0.95173792945E+02  0.90379468001E+02 0.  0.
         11    1    3    3    0    0 -0.25886960118E+02  0.10408715880E+02 -0.22371180361E+02  0.35762351453E+02  0.51100000000E-03 0. -1.
         22    1    1    0    0    0 -0.60165799216E+01  0.27128112982E+02 -0.10838306113E+02  0.29826207055E+02  0.00000000000E+00 0.  1.
</event>
<event>
 5    1  0.8952932E-005  0.9118800E+02  0.7818608E-02  0.1130116E+00
         25   -1    0    0    0    0  0.00000000000E+00  0.00000000000E+00  0.99999998245E-14  0.12500000000E+03  0.12500000000E+03 0.  0.
        -11    1    3    3    0    0 -0.28786245969E+02 -0.21896186865E+02  0.36378348366E+02  0.51297906256E+02  0.51100000000E-03 0.  1.
         23    2    1    0    0    0  0.93916614112E+01 -0.22723645459E+02  0.71292094356E+01  0.99399355591E+02  0.96046024893E+02 0.  0.
         11    1    3    3    0    0  0.38177907380E+02 -0.82745859384E+00 -0.29249138930E+02  0.48101449334E+02  0.51100000000E-03 0. -1.
         22    1    1    0    0    0 -0.93916614112E+01  0.22723645459E+02 -0.71292094356E+01  0.25600644409E+02  0.00000000000E+00 0. -1.
</event>
<event>
 5    1  0.8952932E-005  0.9118800E+02  0.7818608E-02  0.1130116E+00
         25   -1    0    0    0    0  0.00000000000E+00  0.00000000000E+00  0.99999998245E-14  0.12500000000E+03  0.12500000000E+03 0.  0.
        -11    1    3    3    0    0 -0.36333893470E+02  0.12125472489E+02 -0.13460979804E+02  0.40600207823E+02  0.51100000000E-03 0. -1.
         23    2    1    0    0    0  0.15999367622E+02 -0.61363958075E+01 -0.22455363386E+02  0.96753257486E+02  0.92538177914E+02 0.  0.
         11    1    3    3    0    0  0.52333261092E+02 -0.18261868296E+02 -0.89943835821E+01  0.56153049663E+02  0.51100000000E-03 0.  1.
         22    1    1    0    0    0 -0.15999367622E+02  0.61363958075E+01  0.22455363386E+02  0.28246742514E+02  0.00000000000E+00 0.  1.
</event>
<event>
 5    1  0.8952932E-005  0.9118800E+02  0.7818608E-02  0.1130116E+00
         25   -1    0    0    0    0  0.00000000000E+00  0.00000000000E+00  0.99999998245E-14  0.12500000000E+03  0.12500000000E+03 0.  0.
        -11    1    3    3    0    0  0.17836643156E+01 -0.33917359809E+02  0.50958215849E+02  0.61239762553E+02  0.51100000000E-03 0.  1.
         23    2    1    0    0    0 -0.56620427452E+01 -0.21321041926E+02  0.21182202466E+02  0.94416814127E+02  0.89326387656E+02 0.  0.
         11    1    3    3    0    0 -0.74457070608E+01  0.12596317883E+02 -0.29776013383E+02  0.33177051573E+02  0.51100000000E-03 0. -1.
         22    1    1    0    0    0  0.56620427452E+01  0.21321041926E+02 -0.21182202466E+02  0.30583185873E+02  0.00000000000E+00 0.  1.
</event>
<event>
 5    1  0.8952932E-005  0.9118800E+02  0.7818608E-02  0.1130116E+00
         25   -1    0    0    0    0  0.00000000000E+00  0.00000000000E+00  0.99999998245E-14  0.12500000000E+03  0.12500000000E+03 0.  0.
        -11    1    3    3    0    0  0.54207436190E+01  0.37498746634E+02  0.55343919720E+01  0.38290598784E+02  0.51100000000E-03 0. -1.
         23    2    1    0    0    0  0.78617895283E+01 -0.22349708661E+02  0.11829662388E+02  0.98518721254E+02  0.94892994017E+02 0.  0.
         11    1    3    3    0    0  0.24410459093E+01 -0.59848455295E+02  0.62952704162E+01  0.60228122469E+02  0.51100000000E-03 0.  1.
         22    1    1    0    0    0 -0.78617895283E+01  0.22349708661E+02 -0.11829662388E+02  0.26481278746E+02  0.00000000000E+00 0.  1.
</event>
<event>
 5    1  0.8952932E-005  0.9118800E+02  0.7818608E-02  0.1130116E+00
         25   -1    0    0    0    0  0.00000000000E+00  0.00000000000E+00  0.99999998245E-14  0.12500000000E+03  0.12500000000E+03 0.  0.
        -11    1    3    3    0    0  0.20462315482E+02  0.21887894889E+02 -0.15070452573E+02  0.33539601050E+02  0.51100000000E-03 0.  1.
         23    2    1    0    0    0 -0.43588496392E+01 -0.21480518977E+02  0.20589268061E+02  0.94927916185E+02  0.90038764131E+02 0.  0.
         11    1    3    3    0    0 -0.24821165121E+02 -0.43368413866E+02  0.35659720634E+02  0.61388315135E+02  0.51100000000E-03 0. -1.
         22    1    1    0    0    0  0.43588496392E+01  0.21480518977E+02 -0.20589268061E+02  0.30072083815E+02  0.00000000000E+00 0. -1.
</event>
<event>
 5    1  0.8952932E-005  0.9118800E+02  0.7818608E-02  0.1130116E+00
         25   -1    0    0    0    0  0.00000000000E+00  0.00000000000E+00  0.99999998245E-14  0.12500000000E+03  0.12500000000E+03 0.  0.
        -11    1    3    3    0    0 -0.19192439497E+02 -0.35617804437E+02  0.25180839891E+02  0.47655560270E+02  0.51100000000E-03 0.  1.
         23    2    1    0    0    0 -0.52042133153E+01  0.10305016983E+02  0.26936673846E+02  0.95693659234E+02  0.91095635507E+02 0.  0.
         11    1    3    3    0    0  0.13988226182E+02  0.45922821420E+02  0.17558339551E+01  0.48038098964E+02  0.51100000000E-03 0. -1.
         22    1    1    0    0    0  0.52042133153E+01 -0.10305016983E+02 -0.26936673846E+02  0.29306340766E+02  0.00000000000E+00 0. -1.
</event>
<event>
 5    1  0.8952932E-005  0.9118800E+02  0.7818608E-02  0.1130116E+00
         25   -1    0    0    0    0  0.00000000000E+00  0.00000000000E+00  0.99999998245E-14  0.12500000000E+03  0.12500000000E+03 0.  0.
        -11    1    3    3    0    0 -0.32586602062E+02 -0.14180861765E+02  0.98389202655E+01  0.36875301037E+02  0.51100000000E-03 0.  1.
         23    2    1    0    0    0  0.22923202340E+02 -0.17474217667E+02 -0.76680604497E+01  0.95173490991E+02  0.90379050381E+02 0.  0.
         11    1    3    3    0    0  0.55509804402E+02 -0.32933559024E+01 -0.17506980715E+02  0.58298189954E+02  0.51100000000E-03 0. -1.
         22    1    1    0    0    0 -0.22923202340E+02  0.17474217667E+02  0.76680604497E+01  0.29826509009E+02  0.00000000000E+00 0. -1.
</event>
<event>
 5    1  0.8952932E-005  0.9118800E+02  0.7818608E-02  0.1130116E+00
         25   -1    0    0    0    0  0.00000000000E+00  0.00000000000E+00  0.99999998245E-14  0.12500000000E+03  0.12500000000E+03 0.  0.
        -11    1    3    3    0    0 -0.20737814137E+02  0.48652217000E+02  0.12192216545E+02  0.54274720624E+02  0.51100000000E-03 0. -1.
         23    2    1    0    0    0  0.12119123721E+02  0.27241352492E+02  0.56611033521E+00  0.95179119291E+02  0.90386834344E+02 0.  0.
         11    1    3    3    0    0  0.32856937859E+02 -0.21410864508E+02 -0.11626106210E+02  0.40904398667E+02  0.51100000000E-03 0.  1.
         22    1    1    0    0    0 -0.12119123721E+02 -0.27241352492E+02 -0.56611033521E+00  0.29820880709E+02  0.00000000000E+00 0. -1.
</event>
<event>
 5    1  0.8952932E-005  0.9118800E+02  0.7818608E-02  0.1130116E+00
         25   -1    0    0    0    0  0.00000000000E+00  0.00000000000E+00  0.99999998245E-14  0.12500000000E+03  0.12500000000E+03 0.  0.
        -11    1    3    3    0    0  0.38289614547E+02  0.50299653045E+01  0.85660714492E+01  0.39557208110E+02  0.51100000000E-03 0. -1.
         23    2    1    0    0    0 -0.81861431103E+01  0.12040517697E+02 -0.24133567746E+02  0.96814611985E+02  0.92621018112E+02 0.  0.
         11    1    3    3    0    0 -0.46475757658E+02  0.70105523923E+01 -0.32699639195E+02  0.57257403874E+02  0.51100000000E-03 0.  1.
         22    1    1    0    0    0  0.81861431103E+01 -0.12040517697E+02  0.24133567746E+02  0.28185388015E+02  0.00000000000E+00 0.  1.
</event>
<event>
 5    1  0.8952932E-005  0.9118800E+02  0.7818608E-02  0.1130116E+00
         25   -1    0    0    0    0  0.00000000000E+00  0.00000000000E+00  0.99999998245E-14  0.12500000000E+03  0.12500000000E+03 0.  0.
        -11    1    3    3    0    0  0.56902362238E+01  0.33926931882E+02 -0.30304671836E+02  0.45845268355E+02  0.51100000000E-03 0. -1.
         23    2    1    0    0    0 -0.28820022716E+02  0.90653256858E+01 -0.16577640079E+02  0.90538543419E+02  0.83723568095E+02 0.  0.
         11    1    3    3    0    0 -0.34510258940E+02 -0.24861606196E+02  0.13727031757E+02  0.44693275063E+02  0.51100000000E-03 0.  1.
         22    1    1    0    0    0  0.28820022716E+02 -0.90653256858E+01  0.16577640079E+02  0.34461456581E+02  0.00000000000E+00 0.  1.
</event>
<event>
 5    1  0.8952932E-005  0.9118800E+02  0.7818608E-02  0.1130116E+00
         25   -1    0    0    0    0  0.00000000000E+00  0.00000000000E+00  0.99999998245E-14  0.12500000000E+03  0.12500000000E+03 0.  0.
        -11    1    3    3    0    0  0.10046477291E+02  0.46630011330E+02  0.35543050894E+02  0.59486117118E+02  0.51100000000E-03 0.  1.
         23    2    1    0    0    0  0.87831520782E+00  0.28758743702E+02  0.53733593522E+01  0.95730395158E+02  0.91146030025E+02 0.  0.
         11    1    3    3    0    0 -0.91681620837E+01 -0.17871267628E+02 -0.30169691542E+02  0.36244278040E+02  0.51100000000E-03 0. -1.
         22    1    1    0    0    0 -0.87831520782E+00 -0.28758743702E+02 -0.53733593522E+01  0.29269604842E+02  0.00000000000E+00 0.  1.
</event>
<event>
 5    1  0.8952932E-005  0.9118800E+02  0.7818608E-02  0.1130116E+00
         25   -1    0    0    0    0  0.00000000000E+00  0.00000000000E+00  0.99999998245E-14  0.12500000000E+03  0.12500000000E+03 0.  0.
        -11    1    3    3    0    0  0.10507982113E+02  0.50821839942E+02 -0.56412186171E+01  0.52202494681E+02  0.51100000000E-03 0.  1.
         23    2    1    0    0    0 -0.15170994561E+02  0.19769888706E+02  0.13329251844E+02  0.96739134299E+02  0.92519098433E+02 0.  0.
         11    1    3    3    0    0 -0.25678976675E+02 -0.31051951236E+02  0.18970470462E+02  0.44536639618E+02  0.51100000000E-03 0. -1.
         22    1    1    0    0    0  0.15170994561E+02 -0.19769888706E+02 -0.13329251844E+02  0.28260865701E+02  0.00000000000E+00 0.  1.
</event>
<event>
 5    1  0.8952932E-005  0.9118800E+02  0.7818608E-02  0.1130116E+00
         25   -1    0    0    0    0  0.00000000000E+00  0.00000000000E+00  0.99999998245E-14  0.12500000000E+03  0.12500000000E+03 0.  0.
        -11    1    3    3    0    0  0.18538514772E+02 -0.28918976196E+02  0.60011599800E+01  0.34871157645E+02  0.51100000000E-03 0.  1.
         23    2    1    0    0    0 -0.28478709132E+02  0.76095291296E+01 -0.40241055526E+01  0.95248777623E+02  0.90483116689E+02 0.  0.
         11    1    3    3    0    0 -0.47017223904E+02  0.36528505326E+02 -0.10025265533E+02  0.60377619978E+02  0.51100000000E-03 0. -1.
         22    1    1    0    0    0  0.28478709132E+02 -0.76095291296E+01  0.40241055526E+01  0.29751222377E+02  0.00000000000E+00 0. -1.
</event>
<event>
 5    1  0.8952932E-005  0.9118800E+02  0.7818608E-02  0.1130116E+00
         25   -1    0    0    0    0  0.00000000000E+00  0.00000000000E+00  0.99999998245E-14  0.12500000000E+03  0.12500000000E+03 0.  0.
        -11    1    3    3    0    0 -0.17755743721E+02  0.51831374089E+02 -0.73753155429E+01  0.55282484158E+02  0.51100000000E-03 0. -1.
         23    2    1    0    0    0 -0.11601949702E+02  0.15174744210E+02 -0.22564603429E+02  0.95435842196E+02  0.90741173395E+02 0.  0.
         11    1    3    3    0    0  0.61537940194E+01 -0.36656629880E+02 -0.15189287886E+02  0.40153358038E+02  0.51100000000E-03 0.  1.
         22    1    1    0    0    0  0.11601949702E+02 -0.15174744210E+02  0.22564603429E+02  0.29564157804E+02  0.00000000000E+00 0. -1.
</event>
<event>
 5    1  0.8952932E-005  0.9118800E+02  0.7818608E-02  0.1130116E+00
         25   -1    0    0    0    0  0.00000000000E+00  0.00000000000E+00  0.99999998245E-14  0.12500000000E+03  0.12500000000E+03 0.  0.
        -11    1    3    3    0    0 -0.33845149888E+02  0.28870588805E+01 -0.14312479280E+02  0.36860227120E+02  0.51100000000E-03 0.  1.
         23    2    1    0    0    0  0.12793730549E+02  0.16963465553E+02  0.19499769337E+02  0.96161142375E+02  0.91734865748E+02 0.  0.
         11    1    3    3    0    0  0.46638880437E+02  0.14076406672E+02  0.33812248617E+02  0.59300915255E+02  0.51100000000E-03 0. -1.
         22    1    1    0    0    0 -0.12793730549E+02 -0.16963465553E+02 -0.19499769337E+02  0.28838857625E+02  0.00000000000E+00 0. -1.
</event>
<event>
 5    1  0.8952932E-005  0.9118800E+02  0.7818608E-02  0.1130116E+00
         25   -1    0    0    0    0  0.00000000000E+00  0.00000000000E+00  0.99999998245E-14  0.12500000000E+03  0.12500000000E+03 0.  0.
        -11    1    3    3    0    0  0.35222516417E+02 -0.19612409588E+02  0.31053903597E+01  0.40434091088E+02  0.51100000000E-03 0.  1.
         23    2    1    0    0    0 -0.19106303426E+02 -0.18308403421E+02 -0.10622011128E+02  0.96485519699E+02  0.92175809868E+02 0.  0.
         11    1    3    3    0    0 -0.54328819842E+02  0.13040061667E+01 -0.13727401487E+02  0.56051428611E+02  0.51100000000E-03 0. -1.
         22    1    1    0    0    0  0.19106303426E+02  0.18308403421E+02  0.10622011128E+02  0.28514480301E+02  0.00000000000E+00 0. -1.
</event>
<event>
 5    1  0.8952932E-005  0.9118800E+02  0.7818608E-02  0.1130116E+00
         25   -1    0    0    0    0  0.00000000000E+00  0.00000000000E+00  0.99999998245E-14  0.12500000000E+03  0.12500000000E+03 0.  0.
        -11    1    3    3    0    0  0.20594492158E+02  0.39310652750E+02  0.50154700292E+01  0.44661118064E+02  0.51100000000E-03 0.  1.
         23    2    1    0    0    0  0.24651509286E+02 -0.10786379372E+02 -0.86306389374E+01  0.96741712392E+02  0.92522581558E+02 0.  0.
         11    1    3    3    0    0  0.40570171278E+01 -0.50097032122E+02 -0.13646108967E+02  0.52080594328E+02  0.51100000000E-03 0. -1.
         22    1    1    0    0    0 -0.24651509286E+02  0.10786379372E+02  0.86306389374E+01  0.28258287608E+02  0.00000000000E+00 0.  1.
</event>
<event>
 5    1  0.8952932E-005  0.9118800E+02  0.7818608E-02  0.1130116E+00
         25   -1    0    0    0    0  0.00000000000E+00  0.00000000000E+00  0.99999998245E-14  0.12500000000E+03  0.12500000000E+03 0.  0.
        -11    1    3    3    0    0 -0.45038340995E+01 -0.49678384513E+02  0.26153124427E+02  0.56322396318E+02  0.51100000000E-03 0.  1.
         23    2    1    0    0    0 -0.81165566654E+01 -0.26890370262E+02 -0.63697047319E+01  0.96198200694E+02  0.91785348359E+02 0.  0.
         11    1    3    3    0    0 -0.36127225659E+01  0.22788014252E+02 -0.32522829159E+02  0.39875804376E+02  0.51100000000E-03 0. -1.
         22    1    1    0    0    0  0.81165566654E+01  0.26890370262E+02  0.63697047319E+01  0.28801799306E+02  0.00000000000E+00 0.  1.
</event>
<event>
 5    1  0.8952932E-005  0.9118800E+02  0.7818608E-02  0.1130116E+00
         25   -1    0    0    0    0  0.00000000000E+00  0.00000000000E+00  0.99999998245E-14  0.12500000000E+03  0.12500000000E+03 0.  0.
        -11    1    3    3    0    0  0.18307626968E+02 -0.43269226084E+02  0.12820819505E+02  0.48700806401E+02  0.51100000000E-03 0. -1.
         23    2    1    0    0    0  0.22963238672E+02 -0.81142121852E+01 -0.17216647093E+02  0.95174445407E+02  0.90380370389E+02 0.  0.
         11    1    3    3    0    0  0.46556117034E+01  0.35155013899E+02 -0.30037466598E+02  0.46473639006E+02  0.51100000000E-03 0.  1.
         22    1    1    0    0    0 -0.22963238672E+02  0.81142121852E+01  0.17216647093E+02  0.29825554593E+02  0.00000000000E+00 0. -1.
</event>
<event>
 5    1  0.8952932E-005  0.9118800E+02  0.7818608E-02  0.1130116E+00
         25   -1    0    0    0    0  0.00000000000E+00  0.00000000000E+00  0.99999998245E-14  0.12500000000E+03  0.12500000000E+03 0.  0.
        -11    1    3    3    0    0 -0.37751396467E+02  0.41653902189E+02  0.18286484056E+02  0.59115234941E+02  0.51100000000E-03 0.  1.
         23    2    1    0    0    0 -0.14239600549E+02  0.12698030562E+02  0.21139927944E+02  0.96523645644E+02  0.92227498128E+02 0.  0.
         11    1    3    3    0    0  0.23511795918E+02 -0.28955871628E+02  0.28534438879E+01  0.37408410702E+02  0.51100000000E-03 0. -1.
         22    1    1    0    0    0  0.14239600549E+02 -0.12698030562E+02 -0.21139927944E+02  0.28476354356E+02  0.00000000000E+00 0.  1.
</event>
<event>
 5    1  0.8952932E-005  0.9118800E+02  0.7818608E-02  0.1130116E+00
         25   -1    0    0    0    0  0.00000000000E+00  0.00000000000E+00  0.99999998245E-14  0.12500000000E+03  0.12500000000E+03 0.  0.
        -11    1    3    3    0    0 -0.13778779214E+02  0.12759717383E+01  0.41047845665E+02  0.43317531030E+02  0.51100000000E-03 0. -1.
         23    2    1    0    0    0  0.20817474950E+02 -0.20185094922E+02  0.10716005931E+02  0.94086603173E+02  0.88863101415E+02 0.  0.
         11    1    3    3    0    0  0.34596254164E+02 -0.21461066660E+02 -0.30331839734E+02  0.50769072143E+02  0.51100000000E-03 0.  1.
         22    1    1    0    0    0 -0.20817474950E+02  0.20185094922E+02 -0.10716005931E+02  0.30913396827E+02  0.00000000000E+00 0. -1.
</event>
<event>
 5    1  0.8952932E-005  0.9118800E+02  0.7818608E-02  0.1130116E+00
         25   -1    0    0    0    0  0.00000000000E+00  0.00000000000E+00  0.99999998245E-14  0.12500000000E+03  0.12500000000E+03 0.  0.
        -11    1    3    3    0    0  0.45983747874E+02 -0.12313567387E+02  0.39020554610E+02  0.61552682254E+02  0.51100000000E-03 0. -1.
         23    2    1    0    0    0  0.26141251988E+02 -0.41326522963E+01  0.12328478658E+02  0.95803506092E+02  0.91246241144E+02 0.  0.
         11    1    3    3    0    0 -0.19842495885E+02  0.81809150903E+01 -0.26692075952E+02  0.34250823838E+02  0.51100000000E-03 0.  1.
         22    1    1    0    0    0 -0.26141251988E+02  0.41326522963E+01 -0.12328478658E+02  0.29196493908E+02  0.00000000000E+00 0. -1.
</event>
<event>
 5    1  0.8952932E-005  0.9118800E+02  0.7818608E-02  0.1130116E+00
         25   -1    0    0    0    0  0.00000000000E+00  0.00000000000E+00  0.99999998245E-14  0.12500000000E+03  0.12500000000E+03 0.  0.
        -11    1    3    3    0    0 -0.48601205834E+02 -0.48108460784E+01  0.31545330897E+02  0.58140599844E+02  0.51100000000E-03 0. -1.
         23    2    1    0    0    0 -0.12655007102E+02  0.21125390633E+01  0.27099898292E+02  0.95016395922E+02  0.90161516073E+02 0.  0.
         11    1    3    3    0    0  0.35946198733E+02  0.69233851417E+01 -0.44454326045E+01  0.36875796079E+02  0.51100000000E-03 0.  1.
         22    1    1    0    0    0  0.12655007102E+02 -0.21125390633E+01 -0.27099898292E+02  0.29983604078E+02  0.00000000000E+00 0. -1.
</event>
<event>
 5    1  0.8952932E-005  0.9118800E+02  0.7818608E-02  0.1130116E+00
         25   -1    0    0    0    0  0.00000000000E+00  0.00000000000E+00  0.99999998245E-14  0.12500000000E+03  0.12500000000E+03 0.  0.
        -11    1    3    3    0    0  0.52683733429E+01  0.46181852303E+02 -0.19962625735E+02  0.50586813167E+02  0.51100000000E-03 0.  1.
         23    2    1    0    0    0 -0.15521808701E+02  0.20529411117E+02  0.12054509585E+02  0.96580034000E+02  0.92303892117E+02 0.  0.
         11    1    3    3    0    0 -0.20790182044E+02 -0.25652441187E+02  0.32017135320E+02  0.45993220833E+02  0.51100000000E-03 0. -1.
         22    1    1    0    0    0  0.15521808701E+02 -0.20529411117E+02 -0.12054509585E+02  0.28419966000E+02  0.00000000000E+00 0.  1.
</event>
<event>
 5    1  0.8952932E-005  0.9118800E+02  0.7818608E-02  0.1130116E+00
         25   -1    0    0    0    0  0.00000000000E+00  0.00000000000E+00  0.99999998245E-14  0.12500000000E+03  0.12500000000E+03 0.  0.
        -11    1    3    3    0    0 -0.30597148163E+02  0.22070888155E+01  0.15017124660E+02  0.34155098449E+02  0.51100000000E-03 0.  1.
         23    2    1    0    0    0  0.16991939401E+02  0.15685410872E+02 -0.19730631914E+02  0.94601711322E+02  0.89584752221E+02 0.  0.
         11    1    3    3    0    0  0.47589087564E+02  0.13478322057E+02 -0.34747756574E+02  0.60446612873E+02  0.51100000000E-03 0. -1.
         22    1    1    0    0    0 -0.16991939401E+02 -0.15685410872E+02  0.19730631914E+02  0.30398288678E+02  0.00000000000E+00 0. -1.
</event>
<event>
 5    1  0.8952932E-005  0.9118800E+02  0.7818608E-02  0.1130116E+00
         25   -1    0    0    0    0  0.00000000000E+00  0.00000000000E+00  0.99999998245E-14  0.12500000000E+03  0.12500000000E+03 0.  0.
        -11    1    3    3    0    0  0.35374874311E+01 -0.31568782436E+02 -0.33592733733E+02  0.46233901001E+02  0.51100000000E-03 0.  1.
         23    2    1    0    0    0 -0.49579240341E+00 -0.24326026304E+02  0.15584996765E+02  0.96105476470E+02  0.91658982744E+02 0.  0.
         11    1    3    3    0    0 -0.40332798345E+01  0.72427561327E+01  0.49177730498E+02  0.49871575470E+02  0.51100000000E-03 0. -1.
         22    1    1    0    0    0  0.49579240341E+00  0.24326026304E+02 -0.15584996765E+02  0.28894523530E+02  0.00000000000E+00 0.  1.
</event>
<event>
 5    1  0.8952932E-005  0.9118800E+02  0.7818608E-02  0.1130116E+00
         25   -1    0    0    0    0  0.00000000000E+00  0.00000000000E+00  0.99999998245E-14  0.12500000000E+03  0.12500000000E+03 0.  0.
        -11    1    3    3    0    0  0.13056529895E+02  0.22202910589E+01  0.33275540494E+02  0.35814302460E+02  0.51100000000E-03 0.  1.
         23    2    1    0    0    0 -0.21782341622E+02 -0.13591044987E+02 -0.13296845986E+02  0.96086456054E+02  0.91633039966E+02 0.  0.
         11    1    3    3    0    0 -0.34838871517E+02 -0.15811336045E+02 -0.46572386479E+02  0.60272153594E+02  0.51100000000E-03 0. -1.
         22    1    1    0    0    0  0.21782341622E+02  0.13591044987E+02  0.13296845986E+02  0.28913543946E+02  0.00000000000E+00 0. -1.
</event>
<event>
 5    1  0.8952932E-005  0.9118800E+02  0.7818608E-02  0.1130116E+00
         25   -1    0    0    0    0  0.00000000000E+00  0.00000000000E+00  0.99999998245E-14  0.12500000000E+03  0.12500000000E+03 0.  0.
        -11    1    3    3    0    0  0.21256554743E+02 -0.13622072989E+02 -0.45176196300E+02  0.51752204827E+02  0.51100000000E-03 0.  1.
         23    2    1    0    0    0 -0.13010651354E+02  0.26337324284E+01 -0.29232681368E+02  0.92894498055E+02  0.87170089560E+02 0.  0.
         11    1    3    3    0    0 -0.34267206097E+02  0.16255805417E+02  0.15943514932E+02  0.41142293228E+02  0.51100000000E-03 0. -1.
         22    1    1    0    0    0  0.13010651354E+02 -0.26337324284E+01  0.29232681368E+02  0.32105501945E+02  0.00000000000E+00 0.  1.
</event>
<event>
 5    1  0.8952932E-005  0.9118800E+02  0.7818608E-02  0.1130116E+00
         25   -1    0    0    0    0  0.00000000000E+00  0.00000000000E+00  0.99999998245E-14  0.12500000000E+03  0.12500000000E+03 0.  0.
        -11    1    3    3    0    0  0.15461580588E+02 -0.15054922294E+02  0.57185095916E+02  0.61121570290E+02  0.51100000000E-03 0. -1.
         23    2    1    0    0    0  0.47801524889E+01  0.22106328938E+01  0.26946828480E+02  0.97543337407E+02  0.93599328800E+02 0.  0.
         11    1    3    3    0    0 -0.10681428099E+02  0.17265555188E+02 -0.30238267435E+02  0.36421767117E+02  0.51100000000E-03 0.  1.
         22    1    1    0    0    0 -0.47801524889E+01 -0.22106328938E+01 -0.26946828480E+02  0.27456662593E+02  0.00000000000E+00 0. -1.
</event>
<event>
 5    1  0.8952932E-005  0.9118800E+02  0.7818608E-02  0.1130116E+00
         25   -1    0    0    0    0  0.00000000000E+00  0.00000000000E+00  0.99999998245E-14  0.12500000000E+03  0.12500000000E+03 0.  0.
        -11    1    3    3    0    0 -0.17507510486E+02  0.22760240678E+02 -0.34851656767E+02  0.45157274705E+02  0.51100000000E-03 0.  1.
         23    2    1    0    0    0 -0.30278809881E+02 -0.87743162684E+01 -0.54928315263E+00  0.93470701471E+02  0.87992473358E+02 0.  0.
         11    1    3    3    0    0 -0.12771299394E+02 -0.31534556946E+02  0.34302373614E+02  0.48313426766E+02  0.51100000000E-03 0. -1.
         22    1    1    0    0    0  0.30278809881E+02  0.87743162684E+01  0.54928315263E+00  0.31529298529E+02  0.00000000000E+00 0. -1.
</event>
<event>
 5    1  0.8952932E-005  0.9118800E+02  0.7818608E-02  0.1130116E+00
         25   -1    0    0    0    0  0.00000000000E+00  0.00000000000E+00  0.99999998245E-14  0.12500000000E+03  0.12500000000E+03 0.  0.
        -11    1    3    3    0    0  0.69937295069E+01 -0.50145529530E+02  0.35407538688E+02  0.61783332546E+02  0.51100000000E-03 0.  1.
         23    2    1    0    0    0  0.35218740200E+01 -0.27689612273E+02  0.11371404910E+02  0.94859876011E+02  0.89944254973E+02 0.  0.
         11    1    3    3    0    0 -0.34718554869E+01  0.22455917256E+02 -0.24036133778E+02  0.33076543465E+02  0.51100000000E-03 0. -1.
         22    1    1    0    0    0 -0.35218740200E+01  0.27689612273E+02 -0.11371404910E+02  0.30140123989E+02  0.00000000000E+00 0.  1.
</event>
<event>
 5    1  0.8952932E-005  0.9118800E+02  0.7818608E-02  0.1130116E+00
         25   -1    0    0    0    0  0.00000000000E+00  0.00000000000E+00  0.99999998245E-14  0.12500000000E+03  0.12500000000E+03 0.  0.
        -11    1    3    3    0    0  0.47272010441E+02 -0.11600436431E+02  0.26750297851E+02  0.55540899632E+02  0.51100000000E-03 0.  1.
         23    2    1    0    0    0  0.37094543592E+02 -0.23173599554E+02  0.68223192093E+01  0.80733026758E+02  0.67514862731E+02 0.  0.
         11    1    3    3    0    0 -0.10177466849E+02 -0.11573163123E+02 -0.19927978642E+02  0.25192127126E+02  0.51100000000E-03 0. -1.
         22    1    1    0    0    0 -0.37094543592E+02  0.23173599554E+02 -0.68223192093E+01  0.44266973242E+02  0.00000000000E+00 0.  1.
</event>
<event>
 5    1  0.8952932E-005  0.9118800E+02  0.7818608E-02  0.1130116E+00
         25   -1    0    0    0    0  0.00000000000E+00  0.00000000000E+00  0.99999998245E-14  0.12500000000E+03  0.12500000000E+03 0.  0.
        -11    1    3    3    0    0  0.38958442813E+02  0.44481156352E+01 -0.98351533578E+01  0.40426182617E+02  0.51100000000E-03 0.  1.
         23    2    1    0    0    0 -0.14408250835E+02  0.32581111223E+00 -0.25074354079E+02  0.96078950961E+02  0.91622801422E+02 0.  0.
         11    1    3    3    0    0 -0.53366693648E+02 -0.41223045230E+01 -0.15239200721E+02  0.55652768344E+02  0.51100000000E-03 0. -1.
         22    1    1    0    0    0  0.14408250835E+02 -0.32581111223E+00  0.25074354079E+02  0.28921049039E+02  0.00000000000E+00 0.  1.
</event>
<event>
 5    1  0.8952932E-005  0.9118800E+02  0.7818608E-02  0.1130116E+00
         25   -1    0    0    0    0  0.00000000000E+00  0.00000000000E+00  0.99999998245E-14  0.12500000000E+03  0.12500000000E+03 0.  0.
        -11    1    3    3    0    0 -0.24430428916E+02 -0.31989152690E+02 -0.43021305605E+02  0.58915061598E+02  0.51100000000E-03 0.  1.
         23    2    1    0    0    0 -0.18144883220E+02 -0.14648681251E+02 -0.50347931181E+01  0.10114272037E+03  0.98288758733E+02 0.  0.
         11    1    3    3    0    0  0.62855456963E+01  0.17340471439E+02  0.37986512487E+02  0.42227658775E+02  0.51100000000E-03 0. -1.
         22    1    1    0    0    0  0.18144883220E+02  0.14648681251E+02  0.50347931181E+01  0.23857279627E+02  0.00000000000E+00 0.  1.
</event>
<event>
 5    1  0.8952932E-005  0.9118800E+02  0.7818608E-02  0.1130116E+00
         25   -1    0    0    0    0  0.00000000000E+00  0.00000000000E+00  0.99999998245E-14  0.12500000000E+03  0.12500000000E+03 0.  0.
        -11    1    3    3    0    0 -0.43922315447E+02 -0.68639406051E+01  0.39770918001E+02  0.59649051910E+02  0.51100000000E-03 0.  1.
         23    2    1    0    0    0 -0.28386087719E+02 -0.37121162930E+01  0.78091926031E+01  0.95326219107E+02  0.90590036851E+02 0.  0.
         11    1    3    3    0    0  0.15536227728E+02  0.31518243122E+01 -0.31961725398E+02  0.35677167197E+02  0.51100000000E-03 0. -1.
         22    1    1    0    0    0  0.28386087719E+02  0.37121162930E+01 -0.78091926031E+01  0.29673780893E+02  0.00000000000E+00 0.  1.
</event>
<event>
 5    1  0.8952932E-005  0.9118800E+02  0.7818608E-02  0.1130116E+00
         25   -1    0    0    0    0  0.00000000000E+00  0.00000000000E+00  0.99999998245E-14  0.12500000000E+03  0.12500000000E+03 0.  0.
        -11    1    3    3    0    0 -0.16372711345E+02  0.27101627317E+01  0.53889554092E+02  0.56387008250E+02  0.51100000000E-03 0.  1.
         23    2    1    0    0    0  0.44319968508E+01  0.16771511885E+02  0.22801003330E+02  0.96350183948E+02  0.91992097416E+02 0.  0.
         11    1    3    3    0    0  0.20804708196E+02  0.14061349153E+02 -0.31088550762E+02  0.39963175698E+02  0.51100000000E-03 0. -1.
         22    1    1    0    0    0 -0.44319968508E+01 -0.16771511885E+02 -0.22801003330E+02  0.28649816052E+02  0.00000000000E+00 0.  1.
</event>
<event>
 5    1  0.8952932E-005  0.9118800E+02  0.7818608E-02  0.1130116E+00
         25   -1    0    0    0    0  0.00000000000E+00  0.00000000000E+00  0.99999998245E-14  0.12500000000E+03  0.12500000000E+03 0.  0.
        -11    1    3    3    0    0 -0.26605855781E+02 -0.12177804258E+02  0.18249377796E+02  0.34484928137E+02  0.51100000000E-03 0.  1.
         23    2    1    0    0    0  0.30388943073E+02 -0.57639375252E+01  0.10364513196E+02  0.92378933637E+02  0.86427619482E+02 0.  0.
         11    1    3    3    0    0  0.56994798854E+02  0.64138667330E+01 -0.78848646005E+01  0.57894005500E+02  0.51100000000E-03 0. -1.
         22    1    1    0    0    0 -0.30388943073E+02  0.57639375252E+01 -0.10364513196E+02  0.32621066363E+02  0.00000000000E+00 0. -1.
</event>
<event>
 5    1  0.8952932E-005  0.9118800E+02  0.7818608E-02  0.1130116E+00
         25   -1    0    0    0    0  0.00000000000E+00  0.00000000000E+00  0.99999998245E-14  0.12500000000E+03  0.12500000000E+03 0.  0.
        -11    1    3    3    0    0  0.26215445769E+02 -0.76772573819E+01  0.19754147179E+02  0.33710772890E+02  0.51100000000E-03 0. -1.
         23    2    1    0    0    0 -0.21715542056E+02  0.79313850788E+01 -0.17175712151E+02  0.96199362439E+02  0.91786930495E+02 0.  0.
         11    1    3    3    0    0 -0.47930987825E+02  0.15608642461E+02 -0.36929859330E+02  0.62488589549E+02  0.51100000000E-03 0.  1.
         22    1    1    0    0    0  0.21715542056E+02 -0.79313850788E+01  0.17175712151E+02  0.28800637561E+02  0.00000000000E+00 0.  1.
</event>
<event>
 5    1  0.8952932E-005  0.9118800E+02  0.7818608E-02  0.1130116E+00
         25   -1    0    0    0    0  0.00000000000E+00  0.00000000000E+00  0.99999998245E-14  0.12500000000E+03  0.12500000000E+03 0.  0.
        -11    1    3    3    0    0  0.23996383256E+02 -0.13684747815E+01 -0.25835437343E+02  0.35286951633E+02  0.51100000000E-03 0.  1.
         23    2    1    0    0    0 -0.22119538291E+02 -0.15838804088E+02  0.10587205653E+02  0.95807010898E+02  0.91251042320E+02 0.  0.
         11    1    3    3    0    0 -0.46115921547E+02 -0.14470329307E+02  0.36422642996E+02  0.60520059265E+02  0.51100000000E-03 0. -1.
         22    1    1    0    0    0  0.22119538291E+02  0.15838804088E+02 -0.10587205653E+02  0.29192989102E+02  0.00000000000E+00 0. -1.
</event>
<event>
 5    1  0.8952932E-005  0.9118800E+02  0.7818608E-02  0.1130116E+00
         25   -1    0    0    0    0  0.00000000000E+00  0.00000000000E+00  0.99999998245E-14  0.12500000000E+03  0.12500000000E+03 0.  0.
        -11    1    3    3    0    0  0.12837743544E+02 -0.29283965324E+02  0.33335374941E+02  0.46190967810E+02  0.51100000000E-03 0.  1.
         23    2    1    0    0    0  0.27905845780E+02 -0.43895086721E+01 -0.69706462582E+01  0.95903712878E+02  0.91383413262E+02 0.  0.
         11    1    3    3    0    0  0.15068102235E+02  0.24894456652E+02 -0.40306021200E+02  0.49712745068E+02  0.51100000000E-03 0. -1.
         22    1    1    0    0    0 -0.27905845780E+02  0.43895086721E+01  0.69706462582E+01  0.29096287122E+02  0.00000000000E+00 0. -1.
</event>
<event>
 5    1  0.8952932E-005  0.9118800E+02  0.7818608E-02  0.1130116E+00
         25   -1    0    0    0    0  0.00000000000E+00  0.00000000000E+00  0.99999998245E-14  0.12500000000E+03  0.12500000000E+03 0.  0.
        -11    1    3    3    0    0 -0.18968214889E+02 -0.41595720618E+01 -0.55067188200E+02  0.58390842025E+02  0.51100000000E-03 0. -1.
         23    2    1    0    0    0 -0.10195013124E+02 -0.16975055481E+02 -0.19463048521E+02  0.97234894942E+02  0.93186499749E+02 0.  0.
         11    1    3    3    0    0  0.87732017644E+01 -0.12815483419E+02  0.35604139679E+02  0.38844052917E+02  0.51100000000E-03 0.  1.
         22    1    1    0    0    0  0.10195013124E+02  0.16975055481E+02  0.19463048521E+02  0.27765105058E+02  0.00000000000E+00 0. -1.
</event>
<event>
 5    1  0.8952932E-005  0.9118800E+02  0.7818608E-02  0.1130116E+00
         25   -1    0    0    0    0  0.00000000000E+00  0.00000000000E+00  0.99999998245E-14  0.12500000000E+03  0.12500000000E+03 0.  0.
        -11    1    3    3    0    0  0.36210694774E+02  0.53130691033E+00 -0.15562581606E+02  0.39416882799E+02  0.51100000000E-03 0.  1.
         23    2    1    0    0    0 -0.15958390620E+02 -0.93113548321E+01 -0.25581993340E+02  0.93443543557E+02  0.87953885016E+02 0.  0.
         11    1    3    3    0    0 -0.52169085394E+02 -0.98426617424E+01 -0.10019411733E+02  0.54026660759E+02  0.51100000000E-03 0. -1.
         22    1    1    0    0    0  0.15958390620E+02  0.93113548321E+01  0.25581993340E+02  0.31556456443E+02  0.00000000000E+00 0. -1.
</event>
<event>
 5    1  0.8952932E-005  0.9118800E+02  0.7818608E-02  0.1130116E+00
         25   -1    0    0    0    0  0.00000000000E+00  0.00000000000E+00  0.99999998245E-14  0.12500000000E+03  0.12500000000E+03 0.  0.
        -11    1    3    3    0    0 -0.56374611109E+02 -0.15561783498E+02 -0.19376162622E+02  0.61609265225E+02  0.51100000000E-03 0. -1.
         23    2    1    0    0    0 -0.22182588788E+02 -0.98439315102E+01 -0.14794006928E+02  0.96577599083E+02  0.92300594640E+02 0.  0.
         11    1    3    3    0    0  0.34192022321E+02  0.57178519882E+01  0.45821556946E+01  0.34968333859E+02  0.51100000000E-03 0.  1.
         22    1    1    0    0    0  0.22182588788E+02  0.98439315102E+01  0.14794006928E+02  0.28422400917E+02  0.00000000000E+00 0. -1.
</event>
<event>
 5    1  0.8952932E-005  0.9118800E+02  0.7818608E-02  0.1130116E+00
         25   -1    0    0    0    0  0.00000000000E+00  0.00000000000E+00  0.99999998245E-14  0.12500000000E+03  0.12500000000E+03 0.  0.
        -11    1    3    3    0    0  0.47814456521E+02  0.95615402795E+01 -0.12631479284E+02  0.50370622133E+02  0.51100000000E-03 0. -1.
         23    2    1    0    0    0  0.12725590796E+02  0.16843668320E+02  0.17801534769E+02  0.97385792358E+02  0.93388693585E+02 0.  0.
         11    1    3    3    0    0 -0.35088865725E+02  0.72821280400E+01  0.30433014053E+02  0.47015170225E+02  0.51100000000E-03 0.  1.
         22    1    1    0    0    0 -0.12725590796E+02 -0.16843668320E+02 -0.17801534769E+02  0.27614207642E+02  0.00000000000E+00 0. -1.
</event>
<event>
 5    1  0.8952932E-005  0.9118800E+02  0.7818608E-02  0.1130116E+00
         25   -1    0    0    0    0  0.00000000000E+00  0.00000000000E+00  0.99999998245E-14  0.12500000000E+03  0.12500000000E+03 0.  0.
        -11    1    3    3    0    0  0.31135529612E+02 -0.52100827287E+02 -0.14785532822E+02  0.62470228023E+02  0.51100000000E-03 0.  1.
         23    2    1    0    0    0  0.13698494937E+02 -0.25273330296E+02 -0.63456734235E+01  0.95560951799E+02  0.90913354078E+02 0.  0.
         11    1    3    3    0    0 -0.17437034675E+02  0.26827496991E+02  0.84398593980E+01  0.33090723776E+02  0.51100000000E-03 0. -1.
         22    1    1    0    0    0 -0.13698494937E+02  0.25273330296E+02  0.63456734235E+01  0.29439048201E+02  0.00000000000E+00 0.  1.
</event>
<event>
 5    1  0.8952932E-005  0.9118800E+02  0.7818608E-02  0.1130116E+00
         25   -1    0    0    0    0  0.00000000000E+00  0.00000000000E+00  0.99999998245E-14  0.12500000000E+03  0.12500000000E+03 0.  0.
        -11    1    3    3    0    0  0.41676729063E+02  0.36059652004E+02  0.42010444126E+01  0.55271122863E+02  0.51100000000E-03 0. -1.
         23    2    1    0    0    0  0.27789627917E+02 -0.11484091206E+00  0.11887041229E+02  0.94774541238E+02  0.89825582712E+02 0.  0.
         11    1    3    3    0    0 -0.13887101147E+02 -0.36174492916E+02  0.76859968161E+01  0.39503418375E+02  0.51100000000E-03 0.  1.
         22    1    1    0    0    0 -0.27789627917E+02  0.11484091206E+00 -0.11887041229E+02  0.30225458762E+02  0.00000000000E+00 0. -1.
</event>
<event>
 5    1  0.8952932E-005  0.9118800E+02  0.7818608E-02  0.1130116E+00
         25   -1    0    0    0    0  0.00000000000E+00  0.00000000000E+00  0.99999998245E-14  0.12500000000E+03  0.12500000000E+03 0.  0.
        -11    1    3    3    0    0 -0.53041542578E-01  0.36076035781E+02 -0.28586654274E+01  0.36189157760E+02  0.51100000000E-03 0.  1.
         23    2    1    0    0    0 -0.20230957375E+01 -0.24882381827E+02 -0.10998354018E+02  0.97720160689E+02  0.93835175559E+02 0.  0.
         11    1    3    3    0    0 -0.19700541950E+01 -0.60958417608E+02 -0.81396885910E+01  0.61531002929E+02  0.51100000000E-03 0. -1.
         22    1    1    0    0    0  0.20230957375E+01  0.24882381827E+02  0.10998354018E+02  0.27279839311E+02  0.00000000000E+00 0. -1.
</event>
<event>
 5    1  0.8952932E-005  0.9118800E+02  0.7818608E-02  0.1130116E+00
         25   -1    0    0    0    0  0.00000000000E+00  0.00000000000E+00  0.99999998245E-14  0.12500000000E+03  0.12500000000E+03 0.  0.
        -11    1    3    3    0    0 -0.22937989853E+02  0.10105371130E+02 -0.53408947253E+02  0.58998182609E+02  0.51100000000E-03 0.  1.
         23    2    1    0    0    0 -0.24914566842E+02  0.62790209312E+01 -0.20656548214E+02  0.92032520131E+02  0.85925142029E+02 0.  0.
         11    1    3    3    0    0 -0.19765769893E+01 -0.38263501987E+01  0.32752399039E+02  0.33034337522E+02  0.51100000000E-03 0. -1.
         22    1    1    0    0    0  0.24914566842E+02 -0.62790209312E+01  0.20656548214E+02  0.32967479869E+02  0.00000000000E+00 0.  1.
</event>
<event>
 5    1  0.8952932E-005  0.9118800E+02  0.7818608E-02  0.1130116E+00
         25   -1    0    0    0    0  0.00000000000E+00  0.00000000000E+00  0.99999998245E-14  0.12500000000E+03  0.12500000000E+03 0.  0.
        -11    1    3    3    0    0 -0.33115660672E+02  0.10338559675E+02  0.14239175010E+02  0.37500492038E+02  0.51100000000E-03 0. -1.
         23    2    1    0    0    0  0.18818225624E+02 -0.12663998911E+02  0.20218380595E+02  0.94614388307E+02  0.89602439011E+02 0.  0.
         11    1    3    3    0    0  0.51933886296E+02 -0.23002558586E+02  0.59792055850E+01  0.57113896269E+02  0.51100000000E-03 0.  1.
         22    1    1    0    0    0 -0.18818225624E+02  0.12663998911E+02 -0.20218380595E+02  0.30385611693E+02  0.00000000000E+00 0.  1.
</event>
<event>
 5    1  0.8952932E-005  0.9118800E+02  0.7818608E-02  0.1130116E+00
         25   -1    0    0    0    0  0.00000000000E+00  0.00000000000E+00  0.99999998245E-14  0.12500000000E+03  0.12500000000E+03 0.  0.
        -11    1    3    3    0    0  0.57195216417E+02  0.19460860322E+01  0.79139149982E+01  0.57772918246E+02  0.51100000000E-03 0.  1.
         23    2    1    0    0    0  0.26183930051E+02 -0.12182323031E+02 -0.74819368131E+01  0.95167357378E+02  0.90370566804E+02 0.  0.
         11    1    3    3    0    0 -0.31011286366E+02 -0.14128409063E+02 -0.15395851811E+02  0.37394439132E+02  0.51100000000E-03 0. -1.
         22    1    1    0    0    0 -0.26183930051E+02  0.12182323031E+02  0.74819368131E+01  0.29832642622E+02  0.00000000000E+00 0.  1.
</event>
<event>
 5    1  0.8952932E-005  0.9118800E+02  0.7818608E-02  0.1130116E+00
         25   -1    0    0    0    0  0.00000000000E+00  0.00000000000E+00  0.99999998245E-14  0.12500000000E+03  0.12500000000E+03 0.  0.
        -11    1    3    3    0    0 -0.29749660187E+02  0.41929226669E+02 -0.22318555514E+02  0.56046590001E+02  0.51100000000E-03 0.  1.
         23    2    1    0    0    0 -0.10539118704E+02  0.83790913768E+01 -0.26841328224E+02  0.94971029052E+02  0.90098597454E+02 0.  0.
         11    1    3    3    0    0  0.19210541483E+02 -0.33550135292E+02 -0.45227727102E+01  0.38924439051E+02  0.51100000000E-03 0. -1.
         22    1    1    0    0    0  0.10539118704E+02 -0.83790913768E+01  0.26841328224E+02  0.30028970948E+02  0.00000000000E+00 0.  1.
</event>
<event>
 5    1  0.8952932E-005  0.9118800E+02  0.7818608E-02  0.1130116E+00
         25   -1    0    0    0    0  0.00000000000E+00  0.00000000000E+00  0.99999998245E-14  0.12500000000E+03  0.12500000000E+03 0.  0.
        -11    1    3    3    0    0  0.15717289870E+02  0.31968968541E+02  0.36442974958E+02  0.50962128826E+02  0.51100000000E-03 0.  1.
         23    2    1    0    0    0 -0.39662822245E+01  0.29218825759E+02 -0.32318226225E+01  0.95336624419E+02  0.90604393407E+02 0.  0.
         11    1    3    3    0    0 -0.19683572095E+02 -0.27501427818E+01 -0.39674797581E+02  0.44374495592E+02  0.51100000000E-03 0. -1.
         22    1    1    0    0    0  0.39662822245E+01 -0.29218825759E+02  0.32318226225E+01  0.29663375581E+02  0.00000000000E+00 0.  1.
</event>
<event>
 5    1  0.8952932E-005  0.9118800E+02  0.7818608E-02  0.1130116E+00
         25   -1    0    0    0    0  0.00000000000E+00  0.00000000000E+00  0.99999998245E-14  0.12500000000E+03  0.12500000000E+03 0.  0.
        -11    1    3    3    0    0 -0.40016716630E+02 -0.34939679549E+01  0.97648362106E+01  0.41338812857E+02  0.51100000000E-03 0. -1.
         23    2    1    0    0    0  0.40135338742E+00  0.25393608756E+02 -0.13546525725E+02  0.96216240527E+02  0.91809913037E+02 0.  0.
         11    1    3    3    0    0  0.40418070018E+02  0.28887576710E+02 -0.23311361936E+02  0.54877427670E+02  0.51100000000E-03 0.  1.
         22    1    1    0    0    0 -0.40135338742E+00 -0.25393608756E+02  0.13546525725E+02  0.28783759473E+02  0.00000000000E+00 0.  1.
</event>
<event>
 5    1  0.8952932E-005  0.9118800E+02  0.7818608E-02  0.1130116E+00
         25   -1    0    0    0    0  0.00000000000E+00  0.00000000000E+00  0.99999998245E-14  0.12500000000E+03  0.12500000000E+03 0.  0.
        -11    1    3    3    0    0  0.16983060172E+02 -0.28008863816E+02 -0.11537868770E+02  0.34728132704E+02  0.51100000000E-03 0.  1.
         23    2    1    0    0    0 -0.24717318070E+02  0.11757559525E+01 -0.27437387612E+02  0.88052219909E+02  0.79925308741E+02 0.  0.
         11    1    3    3    0    0 -0.41700378243E+02  0.29184619768E+02 -0.15899518842E+02  0.53324087205E+02  0.51100000000E-03 0. -1.
         22    1    1    0    0    0  0.24717318070E+02 -0.11757559525E+01  0.27437387612E+02  0.36947780091E+02  0.00000000000E+00 0. -1.
</event>
<event>
 5    1  0.8952932E-005  0.9118800E+02  0.7818608E-02  0.1130116E+00
         25   -1    0    0    0    0  0.00000000000E+00  0.00000000000E+00  0.99999998245E-14  0.12500000000E+03  0.12500000000E+03 0.  0.
        -11    1    3    3    0    0  0.77539326452E+01  0.36706082665E+02 -0.27816489305E+02  0.46703501513E+02  0.51100000000E-03 0.  1.
         23    2    1    0    0    0 -0.63472426748E+00  0.22565928146E+02  0.18475614240E+02  0.95828570321E+02  0.91280570662E+02 0.  0.
         11    1    3    3    0    0 -0.83886569127E+01 -0.14140154519E+02  0.46292103544E+02  0.49125068808E+02  0.51100000000E-03 0. -1.
         22    1    1    0    0    0  0.63472426748E+00 -0.22565928146E+02 -0.18475614240E+02  0.29171429679E+02  0.00000000000E+00 0. -1.
</event>
<event>
 5    1  0.8952932E-005  0.9118800E+02  0.7818608E-02  0.1130116E+00
         25   -1    0    0    0    0  0.00000000000E+00  0.00000000000E+00  0.99999998245E-14  0.12500000000E+03  0.12500000000E+03 0.  0.
        -11    1    3    3    0    0 -0.81367243847E+01 -0.44068631668E+02  0.80139340710E+01  0.45524429929E+02  0.51100000000E-03 0. -1.
         23    2    1    0    0    0 -0.22898732900E+02 -0.40190661007E+01 -0.18076733298E+02  0.95550498349E+02  0.90898980122E+02 0.  0.
         11    1    3    3    0    0 -0.14762008515E+02  0.40049565567E+02 -0.26090667369E+02  0.50026068420E+02  0.51100000000E-03 0.  1.
         22    1    1    0    0    0  0.22898732900E+02  0.40190661007E+01  0.18076733298E+02  0.29449501651E+02  0.00000000000E+00 0.  1.
</event>
<event>
 5    1  0.8952932E-005  0.9118800E+02  0.7818608E-02  0.1130116E+00
         25   -1    0    0    0    0  0.00000000000E+00  0.00000000000E+00  0.99999998245E-14  0.12500000000E+03  0.12500000000E+03 0.  0.
        -11    1    3    3    0    0  0.16812927667E+02  0.27306914293E+02  0.39743343578E+02  0.51067362023E+02  0.51100000000E-03 0. -1.
         23    2    1    0    0    0 -0.58922263991E+01  0.31433432450E+02  0.52163386020E+01  0.92596463218E+02  0.86741661297E+02 0.  0.
         11    1    3    3    0    0 -0.22705154066E+02  0.41265181575E+01 -0.34527004976E+02  0.41529101196E+02  0.51100000000E-03 0.  1.
         22    1    1    0    0    0  0.58922263991E+01 -0.31433432450E+02 -0.52163386020E+01  0.32403536782E+02  0.00000000000E+00 0. -1.
</event>
<event>
 5    1  0.8952932E-005  0.9118800E+02  0.7818608E-02  0.1130116E+00
         25   -1    0    0    0    0  0.00000000000E+00  0.00000000000E+00  0.99999998245E-14  0.12500000000E+03  0.12500000000E+03 0.  0.
        -11    1    3    3    0    0  0.44914019540E+02  0.86864477014E+01  0.18344253172E+02  0.49287271680E+02  0.51100000000E-03 0.  1.
         23    2    1    0    0    0  0.16313968067E+02 -0.24387063356E+02  0.35565545588E+01  0.95444569136E+02  0.90753194346E+02 0.  0.
         11    1    3    3    0    0 -0.28600051473E+02 -0.33073511057E+02 -0.14787698613E+02  0.46157297456E+02  0.51100000000E-03 0. -1.
         22    1    1    0    0    0 -0.16313968067E+02  0.24387063356E+02 -0.35565545588E+01  0.29555430864E+02  0.00000000000E+00 0.  1.
</event>
<event>
 5    1  0.8952932E-005  0.9118800E+02  0.7818608E-02  0.1130116E+00
         25   -1    0    0    0    0  0.00000000000E+00  0.00000000000E+00  0.99999998245E-14  0.12500000000E+03  0.12500000000E+03 0.  0.
        -11    1    3    3    0    0  0.36722848472E+02 -0.26754986700E+02 -0.28230835778E+02  0.53491840520E+02  0.51100000000E-03 0. -1.
         23    2    1    0    0    0  0.24266948534E+01 -0.28971372984E+02 -0.37519835110E+01  0.95686066781E+02  0.91085216667E+02 0.  0.
         11    1    3    3    0    0 -0.34296153618E+02 -0.22163862838E+01  0.24478852267E+02  0.42194226261E+02  0.51100000000E-03 0.  1.
         22    1    1    0    0    0 -0.24266948534E+01  0.28971372984E+02  0.37519835110E+01  0.29313933219E+02  0.00000000000E+00 0. -1.
</event>
<event>
 5    1  0.8952932E-005  0.9118800E+02  0.7818608E-02  0.1130116E+00
         25   -1    0    0    0    0  0.00000000000E+00  0.00000000000E+00  0.99999998245E-14  0.12500000000E+03  0.12500000000E+03 0.  0.
        -11    1    3    3    0    0  0.23353605412E+02 -0.23957566286E+02  0.15183726391E+01  0.33491212635E+02  0.51100000000E-03 0.  1.
         23    2    1    0    0    0 -0.21769478141E+02  0.14411028005E+02 -0.14880369591E+02  0.94949820203E+02  0.90069168147E+02 0.  0.
         11    1    3    3    0    0 -0.45123083553E+02  0.38368594290E+02 -0.16398742231E+02  0.61458607567E+02  0.51100000000E-03 0. -1.
         22    1    1    0    0    0  0.21769478141E+02 -0.14411028005E+02  0.14880369591E+02  0.30050179797E+02  0.00000000000E+00 0. -1.
</event>
<event>
 5    1  0.8952932E-005  0.9118800E+02  0.7818608E-02  0.1130116E+00
         25   -1    0    0    0    0  0.00000000000E+00  0.00000000000E+00  0.99999998245E-14  0.12500000000E+03  0.12500000000E+03 0.  0.
        -11    1    3    3    0    0 -0.30151387025E+01  0.24039491697E+02 -0.45152433737E+02  0.51241882236E+02  0.51100000000E-03 0.  1.
         23    2    1    0    0    0 -0.25991086079E+02  0.22332972880E+01 -0.15362383101E+02  0.94725803283E+02  0.89757734044E+02 0.  0.
         11    1    3    3    0    0 -0.22975947376E+02 -0.21806194409E+02  0.29790050636E+02  0.43483921047E+02  0.51100000000E-03 0. -1.
         22    1    1    0    0    0  0.25991086079E+02 -0.22332972880E+01  0.15362383101E+02  0.30274196717E+02  0.00000000000E+00 0.  1.
</event>
<event>
 5    1  0.8952932E-005  0.9118800E+02  0.7818608E-02  0.1130116E+00
         25   -1    0    0    0    0  0.00000000000E+00  0.00000000000E+00  0.99999998245E-14  0.12500000000E+03  0.12500000000E+03 0.  0.
        -11    1    3    3    0    0  0.34339479689E+02  0.46048123222E+02  0.16924691512E+02  0.59883843402E+02  0.51100000000E-03 0.  1.
         23    2    1    0    0    0  0.24933261686E+02  0.12234604958E+02  0.79765574451E+01  0.96104004335E+02  0.91656975096E+02 0.  0.
         11    1    3    3    0    0 -0.94062180028E+01 -0.33813518264E+02 -0.89481340668E+01  0.36220160933E+02  0.51100000000E-03 0. -1.
         22    1    1    0    0    0 -0.24933261686E+02 -0.12234604958E+02 -0.79765574451E+01  0.28895995665E+02  0.00000000000E+00 0.  1.
</event>
<event>
 5    1  0.8952932E-005  0.9118800E+02  0.7818608E-02  0.1130116E+00
         25   -1    0    0    0    0  0.00000000000E+00  0.00000000000E+00  0.99999998245E-14  0.12500000000E+03  0.12500000000E+03 0.  0.
        -11    1    3    3    0    0 -0.18733294000E+01  0.61423291553E+02 -0.84684251687E+01  0.62032607017E+02  0.51100000000E-03 0. -1.
         23    2    1    0    0    0  0.26847286116E+01  0.28654687085E+02  0.14454550750E+00  0.96219455303E+02  0.91814289878E+02 0.  0.
         11    1    3    3    0    0  0.45580580115E+01 -0.32768604468E+02  0.86129706762E+01  0.34186848286E+02  0.51100000000E-03 0.  1.
         22    1    1    0    0    0 -0.26847286116E+01 -0.28654687085E+02 -0.14454550750E+00  0.28780544697E+02  0.00000000000E+00 0. -1.
</event>
<event>
 5    1  0.8952932E-005  0.9118800E+02  0.7818608E-02  0.1130116E+00
         25   -1    0    0    0    0  0.00000000000E+00  0.00000000000E+00  0.99999998245E-14  0.12500000000E+03  0.12500000000E+03 0.  0.
        -11    1    3    3    0    0 -0.31287032743E+02  0.31577945690E+02  0.42936730789E+02  0.61802976651E+02  0.51100000000E-03 0.  1.
         23    2    1    0    0    0 -0.80542970373E+01  0.16224996945E+02  0.21100682554E+02  0.97190630520E+02  0.93127104701E+02 0.  0.
         11    1    3    3    0    0  0.23232735706E+02 -0.15352948745E+02 -0.21836048235E+02  0.35387653868E+02  0.51100000000E-03 0. -1.
         22    1    1    0    0    0  0.80542970373E+01 -0.16224996945E+02 -0.21100682554E+02  0.27809369480E+02  0.00000000000E+00 0.  1.
</event>
<event>
 5    1  0.8952932E-005  0.9118800E+02  0.7818608E-02  0.1130116E+00
         25   -1    0    0    0    0  0.00000000000E+00  0.00000000000E+00  0.99999998245E-14  0.12500000000E+03  0.12500000000E+03 0.  0.
        -11    1    3    3    0    0  0.30053640477E+02 -0.33227054654E+02  0.32158071404E+02  0.55148889595E+02  0.51100000000E-03 0. -1.
         23    2    1    0    0    0  0.18893327079E+02  0.54963811791E+01  0.19269845630E+02  0.97459212706E+02  0.93486914467E+02 0.  0.
         11    1    3    3    0    0 -0.11160313399E+02  0.38723435833E+02 -0.12888225775E+02  0.42310323111E+02  0.51100000000E-03 0.  1.
         22    1    1    0    0    0 -0.18893327079E+02 -0.54963811791E+01 -0.19269845630E+02  0.27540787294E+02  0.00000000000E+00 0. -1.
</event>
<event>
 5    1  0.8952932E-005  0.9118800E+02  0.7818608E-02  0.1130116E+00
         25   -1    0    0    0    0  0.00000000000E+00  0.00000000000E+00  0.99999998245E-14  0.12500000000E+03  0.12500000000E+03 0.  0.
        -11    1    3    3    0    0  0.36464411138E+02  0.85780388584E+01 -0.44832440293E+01  0.37727118994E+02  0.51100000000E-03 0.  1.
         23    2    1    0    0    0 -0.93754965185E+01 -0.26148442657E+02 -0.99464763497E+01  0.95494519490E+02  0.90821968006E+02 0.  0.
         11    1    3    3    0    0 -0.45839907657E+02 -0.34726481515E+02 -0.54632323204E+01  0.57767400496E+02  0.51100000000E-03 0. -1.
         22    1    1    0    0    0  0.93754965185E+01  0.26148442657E+02  0.99464763497E+01  0.29505480510E+02  0.00000000000E+00 0. -1.
</event>
<event>
 5    1  0.8952932E-005  0.9118800E+02  0.7818608E-02  0.1130116E+00
         25   -1    0    0    0    0  0.00000000000E+00  0.00000000000E+00  0.99999998245E-14  0.12500000000E+03  0.12500000000E+03 0.  0.
        -11    1    3    3    0    0  0.35401808391E+02 -0.13354777716E+01 -0.45147375069E+02  0.57387777567E+02  0.51100000000E-03 0. -1.
         23    2    1    0    0    0  0.20020464824E+02 -0.16542705507E+02 -0.13473981947E+02  0.95742038575E+02  0.91161996707E+02 0.  0.
         11    1    3    3    0    0 -0.15381343567E+02 -0.15207227736E+02  0.31673393122E+02  0.38354261008E+02  0.51100000000E-03 0.  1.
         22    1    1    0    0    0 -0.20020464824E+02  0.16542705507E+02  0.13473981947E+02  0.29257961425E+02  0.00000000000E+00 0. -1.
</event>
<event>
 5    1  0.8952932E-005  0.9118800E+02  0.7818608E-02  0.1130116E+00
         25   -1    0    0    0    0  0.00000000000E+00  0.00000000000E+00  0.99999998245E-14  0.12500000000E+03  0.12500000000E+03 0.  0.
        -11    1    3    3    0    0  0.78902360937E+01 -0.25766063858E+02 -0.20150372233E+02  0.33647932682E+02  0.51100000000E-03 0. -1.
         23    2    1    0    0    0  0.57674941569E+01  0.23826532815E+02  0.16586191756E+02  0.95401530246E+02  0.90693894841E+02 0.  0.
         11    1    3    3    0    0 -0.21227419368E+01  0.49592596673E+02  0.36736563989E+02  0.61753597564E+02  0.51100000000E-03 0.  1.
         22    1    1    0    0    0 -0.57674941569E+01 -0.23826532815E+02 -0.16586191756E+02  0.29598469754E+02  0.00000000000E+00 0.  1.
</event>
<event>
 5    1  0.8952932E-005  0.9118800E+02  0.7818608E-02  0.1130116E+00
         25   -1    0    0    0    0  0.00000000000E+00  0.00000000000E+00  0.99999998245E-14  0.12500000000E+03  0.12500000000E+03 0.  0.
        -11    1    3    3    0    0  0.68318564413E+01  0.28681725036E+02  0.25619402687E+02  0.39059818327E+02  0.51100000000E-03 0.  1.
         23    2    1    0    0    0  0.24929902538E+02 -0.15766085468E+02 -0.36589661080E+01  0.95276986618E+02  0.90522078271E+02 0.  0.
         11    1    3    3    0    0  0.18098046096E+02 -0.44447810504E+02 -0.29278368795E+02  0.56217168291E+02  0.51100000000E-03 0. -1.
         22    1    1    0    0    0 -0.24929902538E+02  0.15766085468E+02  0.36589661080E+01  0.29723013382E+02  0.00000000000E+00 0. -1.
</event>
<event>
 5    1  0.8952932E-005  0.9118800E+02  0.7818608E-02  0.1130116E+00
         25   -1    0    0    0    0  0.00000000000E+00  0.00000000000E+00  0.99999998245E-14  0.12500000000E+03  0.12500000000E+03 0.  0.
        -11    1    3    3    0    0 -0.49108701588E+01  0.17026079291E+02  0.57894606960E+02  0.60545763990E+02  0.51100000000E-03 0. -1.
         23    2    1    0    0    0  0.78712061620E+01  0.12414756075E+02  0.28341480427E+02  0.93073184192E+02  0.87425946080E+02 0.  0.
         11    1    3    3    0    0  0.12782076321E+02 -0.46113232163E+01 -0.29553126533E+02  0.32527420202E+02  0.51100000000E-03 0.  1.
         22    1    1    0    0    0 -0.78712061620E+01 -0.12414756075E+02 -0.28341480427E+02  0.31926815808E+02  0.00000000000E+00 0. -1.
</event>
<event>
 5    1  0.8952932E-005  0.9118800E+02  0.7818608E-02  0.1130116E+00
         25   -1    0    0    0    0  0.00000000000E+00  0.00000000000E+00  0.99999998245E-14  0.12500000000E+03  0.12500000000E+03 0.  0.
        -11    1    3    3    0    0 -0.21043719404E+02 -0.35592296694E+02 -0.43385892105E+01  0.41574909103E+02  0.51100000000E-03 0. -1.
         23    2    1    0    0    0 -0.16073546452E+02  0.17050712408E+02 -0.17125832138E+02  0.95976219826E+02  0.91482539080E+02 0.  0.
         11    1    3    3    0    0  0.49701729518E+01  0.52643009102E+02 -0.12787242927E+02  0.54401310724E+02  0.51100000000E-03 0.  1.
         22    1    1    0    0    0  0.16073546452E+02 -0.17050712408E+02  0.17125832138E+02  0.29023780174E+02  0.00000000000E+00 0. -1.
</event>
<event>
 5    1  0.8952932E-005  0.9118800E+02  0.7818608E-02  0.1130116E+00
         25   -1    0    0    0    0  0.00000000000E+00  0.00000000000E+00  0.99999998245E-14  0.12500000000E+03  0.12500000000E+03 0.  0.
        -11    1    3    3    0    0 -0.17934775812E+02 -0.43980042193E+02 -0.35941371921E+02  0.59562425325E+02  0.51100000000E-03 0.  1.
         23    2    1    0    0    0  0.33070824080E+01 -0.26494723842E+02 -0.13423746341E+02  0.95115151810E+02  0.90298327518E+02 0.  0.
         11    1    3    3    0    0  0.21241858220E+02  0.17485318351E+02  0.22517625581E+02  0.35552726485E+02  0.51100000000E-03 0. -1.
         22    1    1    0    0    0 -0.33070824080E+01  0.26494723842E+02  0.13423746341E+02  0.29884848190E+02  0.00000000000E+00 0.  1.
</event>
<event>
 4    1  0.8952932E-005  0.9118800E+02  0.7818608E-02  0.1130116E+00
         25   -1    0    0    0    0  0.00000000000E+00  0.00000000000E+00  0.99999998245E-14  0.12500000000E+03  0.12500000000E+03 0.  0.
        -11    1    1    0    0    0 -0.82960400688E+01 -0.15097219009E+02  0.31372302571E+01  0.17509783454E+02  0.51100000000E-03 0.  1.
         11    1    1    0    0    0  0.28837650177E+02 -0.15870115869E+02  0.39180547605E+02  0.51172120889E+02  0.51100000000E-03 0. -1.
         22    1    1    0    0    0 -0.20541610108E+02  0.30967334879E+02 -0.42317777862E+02  0.56318095657E+02  0.00000000000E+00 0. -1.
</event>
<event>
 5    1  0.8952932E-005  0.9118800E+02  0.7818608E-02  0.1130116E+00
         25   -1    0    0    0    0  0.00000000000E+00  0.00000000000E+00  0.99999998245E-14  0.12500000000E+03  0.12500000000E+03 0.  0.
        -11    1    3    3    0    0  0.45015460868E+02 -0.20281355676E+02  0.81979951484E+01  0.50049297996E+02  0.51100000000E-03 0.  1.
         23    2    1    0    0    0  0.12543185432E+02 -0.23791269940E+01  0.29530475342E+02  0.92827951263E+02  0.87074610626E+02 0.  0.
         11    1    3    3    0    0 -0.32472275437E+02  0.17902228682E+02  0.21332480194E+02  0.42778653266E+02  0.51100000000E-03 0. -1.
         22    1    1    0    0    0 -0.12543185432E+02  0.23791269940E+01 -0.29530475342E+02  0.32172048737E+02  0.00000000000E+00 0.  1.
</event>
<event>
 5    1  0.8952932E-005  0.9118800E+02  0.7818608E-02  0.1130116E+00
         25   -1    0    0    0    0  0.00000000000E+00  0.00000000000E+00  0.99999998245E-14  0.12500000000E+03  0.12500000000E+03 0.  0.
        -11    1    3    3    0    0  0.74777077406E+01 -0.40348055516E+02  0.25955177778E+02  0.48554638817E+02  0.51100000000E-03 0. -1.
         23    2    1    0    0    0 -0.15147683440E+02 -0.14167123472E+02 -0.12892965191E+02  0.10057893834E+03  0.97569127216E+02 0.  0.
         11    1    3    3    0    0 -0.22625391180E+02  0.26180932043E+02 -0.38848142969E+02  0.52024299525E+02  0.51100000000E-03 0.  1.
         22    1    1    0    0    0  0.15147683440E+02  0.14167123472E+02  0.12892965191E+02  0.24421061658E+02  0.00000000000E+00 0.  1.
</event>
<event>
 5    1  0.8952932E-005  0.9118800E+02  0.7818608E-02  0.1130116E+00
         25   -1    0    0    0    0  0.00000000000E+00  0.00000000000E+00  0.99999998245E-14  0.12500000000E+03  0.12500000000E+03 0.  0.
        -11    1    3    3    0    0  0.24064465002E+02 -0.52442381342E+02 -0.63149709402E+01  0.58044643981E+02  0.51100000000E-03 0. -1.
         23    2    1    0    0    0  0.16610119824E+02 -0.16618680405E+02 -0.16808371973E+02  0.96110590394E+02  0.91665956595E+02 0.  0.
         11    1    3    3    0    0 -0.74543451778E+01  0.35823700937E+02 -0.10493401033E+02  0.38065946413E+02  0.51100000000E-03 0.  1.
         22    1    1    0    0    0 -0.16610119824E+02  0.16618680405E+02  0.16808371973E+02  0.28889409606E+02  0.00000000000E+00 0. -1.
</event>
<event>
 5    1  0.8952932E-005  0.9118800E+02  0.7818608E-02  0.1130116E+00
         25   -1    0    0    0    0  0.00000000000E+00  0.00000000000E+00  0.99999998245E-14  0.12500000000E+03  0.12500000000E+03 0.  0.
        -11    1    3    3    0    0 -0.36360841239E+02 -0.22806712838E+02  0.25480046465E+02  0.49914824393E+02  0.51100000000E-03 0.  1.
         23    2    1    0    0    0 -0.28467511360E+02 -0.38198627540E+01 -0.12944506282E+02  0.93495225800E+02  0.88027305139E+02 0.  0.
         11    1    3    3    0    0  0.78933298789E+01  0.18986850084E+02 -0.38424552747E+02  0.43580401406E+02  0.51100000000E-03 0. -1.
         22    1    1    0    0    0  0.28467511360E+02  0.38198627540E+01  0.12944506282E+02  0.31504774200E+02  0.00000000000E+00 0. -1.
</event>
<event>
 5    1  0.8952932E-005  0.9118800E+02  0.7818608E-02  0.1130116E+00
         25   -1    0    0    0    0  0.00000000000E+00  0.00000000000E+00  0.99999998245E-14  0.12500000000E+03  0.12500000000E+03 0.  0.
        -11    1    3    3    0    0  0.27629796009E+01 -0.42413725309E+02  0.17595244819E+02  0.46001639007E+02  0.51100000000E-03 0. -1.
         23    2    1    0    0    0  0.11456885056E+02 -0.12356802386E+02 -0.22518198021E+02  0.96874921822E+02  0.92702375674E+02 0.  0.
         11    1    3    3    0    0  0.86939054549E+01  0.30056922923E+02 -0.40113442840E+02  0.50873282815E+02  0.51100000000E-03 0.  1.
         22    1    1    0    0    0 -0.11456885056E+02  0.12356802386E+02  0.22518198021E+02  0.28125078178E+02  0.00000000000E+00 0.  1.
</event>
<event>
 5    1  0.8952932E-005  0.9118800E+02  0.7818608E-02  0.1130116E+00
         25   -1    0    0    0    0  0.00000000000E+00  0.00000000000E+00  0.99999998245E-14  0.12500000000E+03  0.12500000000E+03 0.  0.
        -11    1    3    3    0    0  0.44732546191E+02 -0.18089773408E+02  0.22294552474E+02  0.53153435082E+02  0.51100000000E-03 0.  1.
         23    2    1    0    0    0  0.23044166446E+02 -0.70148078492E+01 -0.14208079249E+02  0.97033758703E+02  0.92916304681E+02 0.  0.
         11    1    3    3    0    0 -0.21688379745E+02  0.11074965559E+02 -0.36502631723E+02  0.43880323621E+02  0.51100000000E-03 0. -1.
         22    1    1    0    0    0 -0.23044166446E+02  0.70148078492E+01  0.14208079249E+02  0.27966241297E+02  0.00000000000E+00 0.  1.
</event>
<event>
 5    1  0.8952932E-005  0.9118800E+02  0.7818608E-02  0.1130116E+00
         25   -1    0    0    0    0  0.00000000000E+00  0.00000000000E+00  0.99999998245E-14  0.12500000000E+03  0.12500000000E+03 0.  0.
        -11    1    3    3    0    0  0.11577131078E+01  0.23847946616E+02 -0.30703896579E+02  0.38894654168E+02  0.51100000000E-03 0. -1.
         23    2    1    0    0    0  0.15829540521E+02 -0.24458743784E+02 -0.53891514126E+01  0.95371509429E+02  0.90652508830E+02 0.  0.
         11    1    3    3    0    0  0.14671827413E+02 -0.48306690400E+02  0.25314745166E+02  0.56476855261E+02  0.51100000000E-03 0.  1.
         22    1    1    0    0    0 -0.15829540521E+02  0.24458743784E+02  0.53891514126E+01  0.29628490571E+02  0.00000000000E+00 0.  1.
</event>
<event>
 5    1  0.8952932E-005  0.9118800E+02  0.7818608E-02  0.1130116E+00
         25   -1    0    0    0    0  0.00000000000E+00  0.00000000000E+00  0.99999998245E-14  0.12500000000E+03  0.12500000000E+03 0.  0.
        -11    1    3    3    0    0  0.43142328290E+02  0.19139375851E+02  0.61557329249E+01  0.47596945767E+02  0.51100000000E-03 0. -1.
         23    2    1    0    0    0  0.96967579188E-01  0.26872798673E+02  0.17690307654E+02  0.92826972537E+02  0.87073205605E+02 0.  0.
         11    1    3    3    0    0 -0.43045360710E+02  0.77334228219E+01  0.11534574730E+02  0.45230026771E+02  0.51100000000E-03 0.  1.
         22    1    1    0    0    0 -0.96967579188E-01 -0.26872798673E+02 -0.17690307654E+02  0.32173027463E+02  0.00000000000E+00 0.  1.
</event>
<event>
 5    1  0.8952932E-005  0.9118800E+02  0.7818608E-02  0.1130116E+00
         25   -1    0    0    0    0  0.00000000000E+00  0.00000000000E+00  0.99999998245E-14  0.12500000000E+03  0.12500000000E+03 0.  0.
        -11    1    3    3    0    0  0.57157750391E+01  0.43198130038E+01  0.34180387471E+02  0.34923197973E+02  0.51100000000E-03 0. -1.
         23    2    1    0    0    0 -0.11560561885E+02 -0.19443278704E+02 -0.18854532652E+02  0.95552061543E+02  0.90901129727E+02 0.  0.
         11    1    3    3    0    0 -0.17276336924E+02 -0.23763091708E+02 -0.53034920123E+02  0.60628863570E+02  0.51100000000E-03 0.  1.
         22    1    1    0    0    0  0.11560561885E+02  0.19443278704E+02  0.18854532652E+02  0.29447938457E+02  0.00000000000E+00 0.  1.
</event>
<event>
 5    1  0.8952932E-005  0.9118800E+02  0.7818608E-02  0.1130116E+00
         25   -1    0    0    0    0  0.00000000000E+00  0.00000000000E+00  0.99999998245E-14  0.12500000000E+03  0.12500000000E+03 0.  0.
        -11    1    3    3    0    0  0.22261340825E+02 -0.14758955565E+02 -0.22857130254E+02  0.35154551176E+02  0.51100000000E-03 0.  1.
         23    2    1    0    0    0  0.18984128688E+01  0.20326191241E+02  0.21559924351E+02  0.95308446323E+02  0.90565509885E+02 0.  0.
         11    1    3    3    0    0 -0.20362927956E+02  0.35085146806E+02  0.44417054604E+02  0.60153895147E+02  0.51100000000E-03 0. -1.
         22    1    1    0    0    0 -0.18984128688E+01 -0.20326191241E+02 -0.21559924351E+02  0.29691553677E+02  0.00000000000E+00 0. -1.
</event>
<event>
 5    1  0.8952932E-005  0.9118800E+02  0.7818608E-02  0.1130116E+00
         25   -1    0    0    0    0  0.00000000000E+00  0.00000000000E+00  0.99999998245E-14  0.12500000000E+03  0.12500000000E+03 0.  0.
        -11    1    3    3    0    0  0.30547570900E+02  0.35152722835E+01 -0.19347290411E+02  0.36329449124E+02  0.51100000000E-03 0.  1.
         23    2    1    0    0    0  0.17640762528E+01 -0.40197266496E+01  0.30394171548E+02  0.94290460253E+02  0.89149397436E+02 0.  0.
         11    1    3    3    0    0 -0.28783494647E+02 -0.75349989331E+01  0.49741461959E+02  0.57961011129E+02  0.51100000000E-03 0. -1.
         22    1    1    0    0    0 -0.17640762528E+01  0.40197266496E+01 -0.30394171548E+02  0.30709539747E+02  0.00000000000E+00 0. -1.
</event>
<event>
 5    1  0.8952932E-005  0.9118800E+02  0.7818608E-02  0.1130116E+00
         25   -1    0    0    0    0  0.00000000000E+00  0.00000000000E+00  0.99999998245E-14  0.12500000000E+03  0.12500000000E+03 0.  0.
        -11    1    3    3    0    0 -0.25352587151E+02  0.11752491288E+02 -0.38843541064E+02  0.47850761847E+02  0.51100000000E-03 0.  1.
         23    2    1    0    0    0 -0.73602051241E+01 -0.22564736847E+02 -0.28412759397E+02  0.87978048876E+02  0.79809223897E+02 0.  0.
         11    1    3    3    0    0  0.17992382027E+02 -0.34317228135E+02  0.10430781666E+02  0.40127287029E+02  0.51100000000E-03 0. -1.
         22    1    1    0    0    0  0.73602051241E+01  0.22564736847E+02  0.28412759397E+02  0.37021951124E+02  0.00000000000E+00 0. -1.
</event>
<event>
 5    1  0.8952932E-005  0.9118800E+02  0.7818608E-02  0.1130116E+00
         25   -1    0    0    0    0  0.00000000000E+00  0.00000000000E+00  0.99999998245E-14  0.12500000000E+03  0.12500000000E+03 0.  0.
        -11    1    3    3    0    0  0.20238846201E+02  0.11223628631E+02  0.18567339774E+02  0.29670302354E+02  0.51100000000E-03 0.  1.
         23    2    1    0    0    0 -0.22369469055E+02 -0.24559407416E+02  0.21569352281E+02  0.85391988232E+02  0.75650492780E+02 0.  0.
         11    1    3    3    0    0 -0.42608315256E+02 -0.35783036048E+02  0.30020125062E+01  0.55721685878E+02  0.51100000000E-03 0. -1.
         22    1    1    0    0    0  0.22369469055E+02  0.24559407416E+02 -0.21569352281E+02  0.39608011768E+02  0.00000000000E+00 0. -1.
</event>
<event>
 5    1  0.8952932E-005  0.9118800E+02  0.7818608E-02  0.1130116E+00
         25   -1    0    0    0    0  0.00000000000E+00  0.00000000000E+00  0.99999998245E-14  0.12500000000E+03  0.12500000000E+03 0.  0.
        -11    1    3    3    0    0 -0.28527254725E+02  0.21870874829E+02  0.22389140209E+02  0.42348707507E+02  0.51100000000E-03 0. -1.
         23    2    1    0    0    0  0.17770057466E+02 -0.22279524198E+01  0.24578937693E+02  0.94588441466E+02  0.89566234523E+02 0.  0.
         11    1    3    3    0    0  0.46297312191E+02 -0.24098827249E+02  0.21897974841E+01  0.52239733960E+02  0.51100000000E-03 0.  1.
         22    1    1    0    0    0 -0.17770057466E+02  0.22279524198E+01 -0.24578937693E+02  0.30411558534E+02  0.00000000000E+00 0. -1.
</event>
<event>
 5    1  0.8952932E-005  0.9118800E+02  0.7818608E-02  0.1130116E+00
         25   -1    0    0    0    0  0.00000000000E+00  0.00000000000E+00  0.99999998245E-14  0.12500000000E+03  0.12500000000E+03 0.  0.
        -11    1    3    3    0    0  0.13367785763E+02 -0.54021586845E+02 -0.21044844174E+02  0.59497184875E+02  0.51100000000E-03 0. -1.
         23    2    1    0    0    0  0.86681404956E+01 -0.16374992435E+02 -0.20400895366E+02  0.97441451986E+02  0.93463163848E+02 0.  0.
         11    1    3    3    0    0 -0.46996452678E+01  0.37646594410E+02  0.64394880770E+00  0.37944267111E+02  0.51100000000E-03 0.  1.
         22    1    1    0    0    0 -0.86681404956E+01  0.16374992435E+02  0.20400895366E+02  0.27558548014E+02  0.00000000000E+00 0. -1.
</event>
<event>
 5    1  0.8952932E-005  0.9118800E+02  0.7818608E-02  0.1130116E+00
         25   -1    0    0    0    0  0.00000000000E+00  0.00000000000E+00  0.99999998245E-14  0.12500000000E+03  0.12500000000E+03 0.  0.
        -11    1    3    3    0    0 -0.30407766498E+02 -0.22722129459E+02 -0.47619049278E+02  0.60897465341E+02  0.51100000000E-03 0.  1.
         23    2    1    0    0    0 -0.22484117082E+02 -0.45818222719E+01 -0.22692721688E+02  0.92727903168E+02  0.86930867890E+02 0.  0.
         11    1    3    3    0    0  0.79236494157E+01  0.18140307187E+02  0.24926327590E+02  0.31830437828E+02  0.51100000000E-03 0. -1.
         22    1    1    0    0    0  0.22484117082E+02  0.45818222719E+01  0.22692721688E+02  0.32272096832E+02  0.00000000000E+00 0.  1.
</event>
<event>
 5    1  0.8952932E-005  0.9118800E+02  0.7818608E-02  0.1130116E+00
         25   -1    0    0    0    0  0.00000000000E+00  0.00000000000E+00  0.99999998245E-14  0.12500000000E+03  0.12500000000E+03 0.  0.
        -11    1    3    3    0    0 -0.19771719244E+02 -0.63732356935E+01  0.44956919861E+02  0.49524374391E+02  0.51100000000E-03 0. -1.
         23    2    1    0    0    0 -0.11908330049E+02 -0.25666117054E+02  0.27758123188E+01  0.96570033007E+02  0.92290347554E+02 0.  0.
         11    1    3    3    0    0  0.78633891957E+01 -0.19292881361E+02 -0.42181107543E+02  0.47045658616E+02  0.51100000000E-03 0.  1.
         22    1    1    0    0    0  0.11908330049E+02  0.25666117054E+02 -0.27758123188E+01  0.28429966993E+02  0.00000000000E+00 0. -1.
</event>
<event>
 5    1  0.8952932E-005  0.9118800E+02  0.7818608E-02  0.1130116E+00
         25   -1    0    0    0    0  0.00000000000E+00  0.00000000000E+00  0.99999998245E-14  0.12500000000E+03  0.12500000000E+03 0.  0.
        -11    1    3    3    0    0  0.19283947548E+02  0.37095480289E+02  0.24711179331E+01  0.41881400585E+02  0.51100000000E-03 0. -1.
         23    2    1    0    0    0 -0.33331670847E+01 -0.26291794332E+00 -0.29061447662E+02  0.95746848565E+02  0.91168591857E+02 0.  0.
         11    1    3    3    0    0 -0.22617114633E+02 -0.37358398232E+02 -0.31532565595E+02  0.53865447980E+02  0.51100000000E-03 0.  1.
         22    1    1    0    0    0  0.33331670847E+01  0.26291794332E+00  0.29061447662E+02  0.29253151435E+02  0.00000000000E+00 0. -1.
</event>
<event>
 5    1  0.8952932E-005  0.9118800E+02  0.7818608E-02  0.1130116E+00
         25   -1    0    0    0    0  0.00000000000E+00  0.00000000000E+00  0.99999998245E-14  0.12500000000E+03  0.12500000000E+03 0.  0.
        -11    1    3    3    0    0 -0.21957617950E+01 -0.38493395193E+02 -0.77976359153E+01  0.39336572924E+02  0.51100000000E-03 0.  1.
         23    2    1    0    0    0  0.96554829352E+01  0.53451293123E+01  0.26531789512E+02  0.96264401645E+02  0.91875461421E+02 0.  0.
         11    1    3    3    0    0  0.11851244730E+02  0.43838524505E+02  0.34329425428E+02  0.56927828721E+02  0.51100000000E-03 0. -1.
         22    1    1    0    0    0 -0.96554829352E+01 -0.53451293123E+01 -0.26531789512E+02  0.28735598355E+02  0.00000000000E+00 0. -1.
</event>
<event>
 5    1  0.8952932E-005  0.9118800E+02  0.7818608E-02  0.1130116E+00
         25   -1    0    0    0    0  0.00000000000E+00  0.00000000000E+00  0.99999998245E-14  0.12500000000E+03  0.12500000000E+03 0.  0.
        -11    1    3    3    0    0  0.30504802439E+02 -0.76158885199E+01 -0.11991833558E+02  0.33650390817E+02  0.51100000000E-03 0. -1.
         23    2    1    0    0    0 -0.27978286381E+02 -0.94475486911E+01  0.60008806736E+01  0.94866111204E+02  0.89952919914E+02 0.  0.
         11    1    3    3    0    0 -0.58483088820E+02 -0.18316601712E+01  0.17992714231E+02  0.61215720388E+02  0.51100000000E-03 0.  1.
         22    1    1    0    0    0  0.27978286381E+02  0.94475486911E+01 -0.60008806736E+01  0.30133888796E+02  0.00000000000E+00 0.  1.
</event>
<event>
 5    1  0.8952932E-005  0.9118800E+02  0.7818608E-02  0.1130116E+00
         25   -1    0    0    0    0  0.00000000000E+00  0.00000000000E+00  0.99999998245E-14  0.12500000000E+03  0.12500000000E+03 0.  0.
        -11    1    3    3    0    0 -0.15520211120E+02  0.31266456648E+02 -0.13725624172E+02  0.37508146098E+02  0.51100000000E-03 0.  1.
         23    2    1    0    0    0  0.28825008082E+02 -0.12662485005E+01  0.52202170112E+01  0.95678759544E+02  0.91075188093E+02 0.  0.
         11    1    3    3    0    0  0.44345219202E+02 -0.32532705149E+02  0.18945841183E+02  0.58170613447E+02  0.51100000000E-03 0. -1.
         22    1    1    0    0    0 -0.28825008082E+02  0.12662485005E+01 -0.52202170112E+01  0.29321240456E+02  0.00000000000E+00 0. -1.
</event>
<event>
 5    1  0.8952932E-005  0.9118800E+02  0.7818608E-02  0.1130116E+00
         25   -1    0    0    0    0  0.00000000000E+00  0.00000000000E+00  0.99999998245E-14  0.12500000000E+03  0.12500000000E+03 0.  0.
        -11    1    3    3    0    0  0.28789146701E+02 -0.24511950397E+02 -0.23769022238E+02  0.44661136332E+02  0.51100000000E-03 0. -1.
         23    2    1    0    0    0  0.10460676248E+02  0.72210832806E+01  0.19724414864E+02  0.10153465677E+03  0.98785951389E+02 0.  0.
         11    1    3    3    0    0 -0.18328470453E+02  0.31733033678E+02  0.43493437101E+02  0.56873520435E+02  0.51100000000E-03 0.  1.
         22    1    1    0    0    0 -0.10460676248E+02 -0.72210832806E+01 -0.19724414864E+02  0.23465343233E+02  0.00000000000E+00 0.  1.
</event>
<event>
 5    1  0.8952932E-005  0.9118800E+02  0.7818608E-02  0.1130116E+00
         25   -1    0    0    0    0  0.00000000000E+00  0.00000000000E+00  0.99999998245E-14  0.12500000000E+03  0.12500000000E+03 0.  0.
        -11    1    3    3    0    0 -0.55349478855E+01 -0.33325065121E+02  0.65177535166E+01  0.34404603247E+02  0.51100000000E-03 0.  1.
         23    2    1    0    0    0  0.17932817598E+02  0.11658313950E+02 -0.23393427640E+02  0.93302134332E+02  0.87752684193E+02 0.  0.
         11    1    3    3    0    0  0.23467765484E+02  0.44983379071E+02 -0.29911181157E+02  0.58897531085E+02  0.51100000000E-03 0. -1.
         22    1    1    0    0    0 -0.17932817598E+02 -0.11658313950E+02  0.23393427640E+02  0.31697865668E+02  0.00000000000E+00 0. -1.
</event>
<event>
 5    1  0.8952932E-005  0.9118800E+02  0.7818608E-02  0.1130116E+00
         25   -1    0    0    0    0  0.00000000000E+00  0.00000000000E+00  0.99999998245E-14  0.12500000000E+03  0.12500000000E+03 0.  0.
        -11    1    3    3    0    0  0.32470388454E+02  0.29028446806E+02 -0.19456514059E+02  0.47702544900E+02  0.51100000000E-03 0.  1.
         23    2    1    0    0    0  0.21157543788E+02 -0.88793885557E+00  0.18177767047E+02  0.97091913190E+02  0.92994506814E+02 0.  0.
         11    1    3    3    0    0 -0.11312844666E+02 -0.29916385661E+02  0.37634281106E+02  0.49389368290E+02  0.51100000000E-03 0. -1.
         22    1    1    0    0    0 -0.21157543788E+02  0.88793885557E+00 -0.18177767047E+02  0.27908086810E+02  0.00000000000E+00 0. -1.
</event>
<event>
 5    1  0.8952932E-005  0.9118800E+02  0.7818608E-02  0.1130116E+00
         25   -1    0    0    0    0  0.00000000000E+00  0.00000000000E+00  0.99999998245E-14  0.12500000000E+03  0.12500000000E+03 0.  0.
        -11    1    3    3    0    0 -0.61653141061E+01  0.20528740543E+02  0.28409045716E+02  0.35588118313E+02  0.51100000000E-03 0.  1.
         23    2    1    0    0    0  0.58546713043E+01  0.49838892402E+01 -0.28336143706E+02  0.95639254639E+02  0.91020951763E+02 0.  0.
         11    1    3    3    0    0  0.12019985410E+02 -0.15544851303E+02 -0.56745189422E+02  0.60051136326E+02  0.51100000000E-03 0. -1.
         22    1    1    0    0    0 -0.58546713043E+01 -0.49838892402E+01  0.28336143706E+02  0.29360745361E+02  0.00000000000E+00 0. -1.
</event>
<event>
 5    1  0.8952932E-005  0.9118800E+02  0.7818608E-02  0.1130116E+00
         25   -1    0    0    0    0  0.00000000000E+00  0.00000000000E+00  0.99999998245E-14  0.12500000000E+03  0.12500000000E+03 0.  0.
        -11    1    3    3    0    0 -0.18219140532E+02 -0.40353115194E+02 -0.22438010645E+02  0.49636431273E+02  0.51100000000E-03 0.  1.
         23    2    1    0    0    0 -0.20471842910E+01 -0.68063497869E+00 -0.31499878645E+02  0.93426330873E+02  0.87929418958E+02 0.  0.
         11    1    3    3    0    0  0.16171956241E+02  0.39672480215E+02 -0.90618680004E+01  0.43789899600E+02  0.51100000000E-03 0. -1.
         22    1    1    0    0    0  0.20471842910E+01  0.68063497869E+00  0.31499878645E+02  0.31573669127E+02  0.00000000000E+00 0. -1.
</event>
<event>
 5    1  0.8952932E-005  0.9118800E+02  0.7818608E-02  0.1130116E+00
         25   -1    0    0    0    0  0.00000000000E+00  0.00000000000E+00  0.99999998245E-14  0.12500000000E+03  0.12500000000E+03 0.  0.
        -11    1    3    3    0    0 -0.16432518905E+02 -0.26918312171E+02  0.33382940173E+02  0.45924328004E+02  0.51100000000E-03 0. -1.
         23    2    1    0    0    0  0.22781805663E+02 -0.13092047009E+02  0.86517991195E+00  0.98710060852E+02  0.95144706699E+02 0.  0.
         11    1    3    3    0    0  0.39214324567E+02  0.13826265162E+02 -0.32517760262E+02  0.52785732848E+02  0.51100000000E-03 0.  1.
         22    1    1    0    0    0 -0.22781805663E+02  0.13092047009E+02 -0.86517991195E+00  0.26289939148E+02  0.00000000000E+00 0.  1.
</event>
<event>
 5    1  0.8952932E-005  0.9118800E+02  0.7818608E-02  0.1130116E+00
         25   -1    0    0    0    0  0.00000000000E+00  0.00000000000E+00  0.99999998245E-14  0.12500000000E+03  0.12500000000E+03 0.  0.
        -11    1    3    3    0    0 -0.25628918590E+02  0.45577211798E+02  0.23853954156E+02  0.57472905204E+02  0.51100000000E-03 0.  1.
         23    2    1    0    0    0 -0.73063520418E+01  0.28660852500E+02 -0.43319238664E+01  0.95106977226E+02  0.90287010730E+02 0.  0.
         11    1    3    3    0    0  0.18322566548E+02 -0.16916359299E+02 -0.28185878023E+02  0.37634072023E+02  0.51100000000E-03 0. -1.
         22    1    1    0    0    0  0.73063520418E+01 -0.28660852500E+02  0.43319238664E+01  0.29893022774E+02  0.00000000000E+00 0.  1.
</event>
<event>
 5    1  0.8952932E-005  0.9118800E+02  0.7818608E-02  0.1130116E+00
         25   -1    0    0    0    0  0.00000000000E+00  0.00000000000E+00  0.99999998245E-14  0.12500000000E+03  0.12500000000E+03 0.  0.
        -11    1    3    3    0    0  0.18286242439E+02 -0.19068549692E+02  0.47228431012E+02  0.54115810499E+02  0.51100000000E-03 0. -1.
         23    2    1    0    0    0  0.28041315166E+02 -0.87356620670E+01  0.99842079229E+01  0.93978853087E+02  0.88711404406E+02 0.  0.
         11    1    3    3    0    0  0.97550727266E+01  0.10332887625E+02 -0.37244223089E+02  0.39863042588E+02  0.51100000000E-03 0.  1.
         22    1    1    0    0    0 -0.28041315166E+02  0.87356620670E+01 -0.99842079229E+01  0.31021146913E+02  0.00000000000E+00 0.  1.
</event>
<event>
 5    1  0.8952932E-005  0.9118800E+02  0.7818608E-02  0.1130116E+00
         25   -1    0    0    0    0  0.00000000000E+00  0.00000000000E+00  0.99999998245E-14  0.12500000000E+03  0.12500000000E+03 0.  0.
        -11    1    3    3    0    0 -0.10831016758E+02  0.97502623555E+01  0.85883513310E+01  0.16915623514E+02  0.51100000000E-03 0.  1.
         23    2    1    0    0    0  0.47891347446E+02  0.27863301568E+01 -0.19817823283E+01  0.76986749151E+02  0.60180456027E+02 0.  0.
         11    1    3    3    0    0  0.58722364204E+02 -0.69639321987E+01 -0.10570133659E+02  0.60071125637E+02  0.51100000000E-03 0. -1.
         22    1    1    0    0    0 -0.47891347446E+02 -0.27863301568E+01  0.19817823283E+01  0.48013250849E+02  0.00000000000E+00 0. -1.
</event>
<event>
 5    1  0.8952932E-005  0.9118800E+02  0.7818608E-02  0.1130116E+00
         25   -1    0    0    0    0  0.00000000000E+00  0.00000000000E+00  0.99999998245E-14  0.12500000000E+03  0.12500000000E+03 0.  0.
        -11    1    3    3    0    0  0.14808912027E+02  0.30731975956E+02  0.14117746375E+01  0.34143100759E+02  0.51100000000E-03 0. -1.
         23    2    1    0    0    0 -0.20734795576E+02 -0.17971137782E+02  0.11451939107E+02  0.95267182272E+02  0.90508538646E+02 0.  0.
         11    1    3    3    0    0 -0.35543707603E+02 -0.48703113738E+02  0.10040164469E+02  0.61124081513E+02  0.51100000000E-03 0.  1.
         22    1    1    0    0    0  0.20734795576E+02  0.17971137782E+02 -0.11451939107E+02  0.29732817728E+02  0.00000000000E+00 0.  1.
</event>
<event>
 5    1  0.8952932E-005  0.9118800E+02  0.7818608E-02  0.1130116E+00
         25   -1    0    0    0    0  0.00000000000E+00  0.00000000000E+00  0.99999998245E-14  0.12500000000E+03  0.12500000000E+03 0.  0.
        -11    1    3    3    0    0  0.14603956489E+02  0.37871439002E+02  0.32971793939E+02  0.52293982761E+02  0.51100000000E-03 0. -1.
         23    2    1    0    0    0 -0.15077780730E+02  0.25222635819E+02  0.46042773075E+01  0.95255753515E+02  0.90492753184E+02 0.  0.
         11    1    3    3    0    0 -0.29681737218E+02 -0.12648803182E+02 -0.28367516632E+02  0.42961770754E+02  0.51100000000E-03 0.  1.
         22    1    1    0    0    0  0.15077780730E+02 -0.25222635819E+02 -0.46042773075E+01  0.29744246485E+02  0.00000000000E+00 0.  1.
</event>
<event>
 5    1  0.8952932E-005  0.9118800E+02  0.7818608E-02  0.1130116E+00
         25   -1    0    0    0    0  0.00000000000E+00  0.00000000000E+00  0.99999998245E-14  0.12500000000E+03  0.12500000000E+03 0.  0.
        -11    1    3    3    0    0 -0.12536590608E+01 -0.36693836500E+02  0.21582235985E+01  0.36778624600E+02  0.51100000000E-03 0.  1.
         23    2    1    0    0    0  0.81018380122E+01  0.14199247886E+02 -0.24931555890E+02  0.95186565129E+02  0.90397130940E+02 0.  0.
         11    1    3    3    0    0  0.93554970731E+01  0.50893084386E+02 -0.27089779489E+02  0.58407940529E+02  0.51100000000E-03 0. -1.
         22    1    1    0    0    0 -0.81018380122E+01 -0.14199247886E+02  0.24931555890E+02  0.29813434871E+02  0.00000000000E+00 0. -1.
</event>
<event>
 5    1  0.8952932E-005  0.9118800E+02  0.7818608E-02  0.1130116E+00
         25   -1    0    0    0    0  0.00000000000E+00  0.00000000000E+00  0.99999998245E-14  0.12500000000E+03  0.12500000000E+03 0.  0.
        -11    1    3    3    0    0 -0.31291018134E+02  0.35789918440E+02  0.70738665910E+01  0.48063350556E+02  0.51100000000E-03 0. -1.
         23    2    1    0    0    0 -0.22735148228E+02 -0.12909353948E+02  0.84385806838E+01  0.97527322150E+02  0.93577938305E+02 0.  0.
         11    1    3    3    0    0  0.85558699062E+01 -0.48699272389E+02  0.13647140929E+01  0.49463971594E+02  0.51100000000E-03 0.  1.
         22    1    1    0    0    0  0.22735148228E+02  0.12909353948E+02 -0.84385806838E+01  0.27472677850E+02  0.00000000000E+00 0. -1.
</event>
<event>
 5    1  0.8952932E-005  0.9118800E+02  0.7818608E-02  0.1130116E+00
         25   -1    0    0    0    0  0.00000000000E+00  0.00000000000E+00  0.99999998245E-14  0.12500000000E+03  0.12500000000E+03 0.  0.
        -11    1    3    3    0    0 -0.10388044857E+02 -0.30886282815E+02  0.29504779732E+02  0.43959139771E+02  0.51100000000E-03 0.  1.
         23    2    1    0    0    0  0.13917814276E+02  0.12652876327E+02  0.24555413531E+02  0.94068314510E+02  0.88837371795E+02 0.  0.
         11    1    3    3    0    0  0.24305859133E+02  0.43539159142E+02 -0.49493662011E+01  0.50109174739E+02  0.51100000000E-03 0. -1.
         22    1    1    0    0    0 -0.13917814276E+02 -0.12652876327E+02 -0.24555413531E+02  0.30931685490E+02  0.00000000000E+00 0. -1.
</event>
<event>
 5    1  0.8952932E-005  0.9118800E+02  0.7818608E-02  0.1130116E+00
         25   -1    0    0    0    0  0.00000000000E+00  0.00000000000E+00  0.99999998245E-14  0.12500000000E+03  0.12500000000E+03 0.  0.
        -11    1    3    3    0    0  0.46372846326E+01  0.48714030305E+02 -0.28651412289E+02  0.56705066650E+02  0.51100000000E-03 0.  1.
         23    2    1    0    0    0  0.16369514106E+02  0.24673581552E+02 -0.71811167121E+00  0.95381385869E+02  0.90666126349E+02 0.  0.
         11    1    3    3    0    0  0.11732229474E+02 -0.24040448753E+02  0.27933300618E+02  0.38676319219E+02  0.51100000000E-03 0. -1.
         22    1    1    0    0    0 -0.16369514106E+02 -0.24673581552E+02  0.71811167121E+00  0.29618614131E+02  0.00000000000E+00 0.  1.
</event>
<event>
 5    1  0.8952932E-005  0.9118800E+02  0.7818608E-02  0.1130116E+00
         25   -1    0    0    0    0  0.00000000000E+00  0.00000000000E+00  0.99999998245E-14  0.12500000000E+03  0.12500000000E+03 0.  0.
        -11    1    3    3    0    0  0.58339337532E+02  0.10552225759E+02 -0.67022317737E+01  0.59663621103E+02  0.51100000000E-03 0. -1.
         23    2    1    0    0    0  0.19622895050E+02  0.12062232842E+02  0.72611702733E+01  0.10084880821E+03  0.97914258674E+02 0.  0.
         11    1    3    3    0    0 -0.38716442482E+02  0.15100070834E+01  0.13963402047E+02  0.41185187104E+02  0.51100000000E-03 0.  1.
         22    1    1    0    0    0 -0.19622895050E+02 -0.12062232842E+02 -0.72611702733E+01  0.24151191793E+02  0.00000000000E+00 0. -1.
</event>
<event>
 5    1  0.8952932E-005  0.9118800E+02  0.7818608E-02  0.1130116E+00
         25   -1    0    0    0    0  0.00000000000E+00  0.00000000000E+00  0.99999998245E-14  0.12500000000E+03  0.12500000000E+03 0.  0.
        -11    1    3    3    0    0  0.19390475033E+02 -0.51023676788E+01 -0.29072734238E+02  0.35316406304E+02  0.51100000000E-03 0.  1.
         23    2    1    0    0    0 -0.49927068128E+01 -0.57749173543E+01  0.27253522823E+02  0.96697503678E+02  0.92462835342E+02 0.  0.
         11    1    3    3    0    0 -0.24383181846E+02 -0.67254967545E+00  0.56326257061E+02  0.61381097374E+02  0.51100000000E-03 0. -1.
         22    1    1    0    0    0  0.49927068128E+01  0.57749173543E+01 -0.27253522823E+02  0.28302496322E+02  0.00000000000E+00 0. -1.
</event>
<event>
 5    1  0.8952932E-005  0.9118800E+02  0.7818608E-02  0.1130116E+00
         25   -1    0    0    0    0  0.00000000000E+00  0.00000000000E+00  0.99999998245E-14  0.12500000000E+03  0.12500000000E+03 0.  0.
        -11    1    3    3    0    0  0.25013454496E+02 -0.31881971579E+02  0.30643494976E+02  0.50805086381E+02  0.51100000000E-03 0. -1.
         23    2    1    0    0    0  0.27010600660E+02  0.72446158617E+01  0.86827955194E+01  0.95717787908E+02  0.91128738480E+02 0.  0.
         11    1    3    3    0    0  0.19971461641E+01  0.39126587441E+02 -0.21960699456E+02  0.44912701527E+02  0.51100000000E-03 0.  1.
         22    1    1    0    0    0 -0.27010600660E+02 -0.72446158617E+01 -0.86827955194E+01  0.29282212092E+02  0.00000000000E+00 0. -1.
</event>
<event>
 5    1  0.8952932E-005  0.9118800E+02  0.7818608E-02  0.1130116E+00
         25   -1    0    0    0    0  0.00000000000E+00  0.00000000000E+00  0.99999998245E-14  0.12500000000E+03  0.12500000000E+03 0.  0.
        -11    1    3    3    0    0  0.52668913199E+02 -0.39585800548E+01  0.22164399865E+02  0.57279537317E+02  0.51100000000E-03 0.  1.
         23    2    1    0    0    0  0.16365652440E+02 -0.18045150541E+02  0.13409970498E+02  0.97191919402E+02  0.93128834688E+02 0.  0.
         11    1    3    3    0    0 -0.36303260760E+02 -0.14086570486E+02 -0.87544293668E+01  0.39912382084E+02  0.51100000000E-03 0. -1.
         22    1    1    0    0    0 -0.16365652440E+02  0.18045150541E+02 -0.13409970498E+02  0.27808080598E+02  0.00000000000E+00 0.  1.
</event>
<event>
 5    1  0.8952932E-005  0.9118800E+02  0.7818608E-02  0.1130116E+00
         25   -1    0    0    0    0  0.00000000000E+00  0.00000000000E+00  0.99999998245E-14  0.12500000000E+03  0.12500000000E+03 0.  0.
        -11    1    3    3    0    0  0.15696895783E+02  0.34661414540E+02  0.23196053073E+02  0.44563023613E+02  0.51100000000E-03 0.  1.
         23    2    1    0    0    0  0.24626779302E+02 -0.42487749728E+01 -0.11532896459E+02  0.97476590904E+02  0.93510147716E+02 0.  0.
         11    1    3    3    0    0  0.89298835189E+01 -0.38910189512E+02 -0.34728949532E+02  0.52913567291E+02  0.51100000000E-03 0. -1.
         22    1    1    0    0    0 -0.24626779302E+02  0.42487749728E+01  0.11532896459E+02  0.27523409096E+02  0.00000000000E+00 0. -1.
</event>
<event>
 5    1  0.8952932E-005  0.9118800E+02  0.7818608E-02  0.1130116E+00
         25   -1    0    0    0    0  0.00000000000E+00  0.00000000000E+00  0.99999998245E-14  0.12500000000E+03  0.12500000000E+03 0.  0.
        -11    1    3    3    0    0  0.19951158910E+02 -0.30192690040E+02 -0.31015082067E+02  0.47661122412E+02  0.51100000000E-03 0. -1.
         23    2    1    0    0    0  0.24501473341E+02  0.12264512537E+02 -0.67235285892E+01  0.96787479724E+02  0.92584393560E+02 0.  0.
         11    1    3    3    0    0  0.45503144313E+01  0.42457202577E+02  0.24291553478E+02  0.49126357312E+02  0.51100000000E-03 0.  1.
         22    1    1    0    0    0 -0.24501473341E+02 -0.12264512537E+02  0.67235285892E+01  0.28212520276E+02  0.00000000000E+00 0.  1.
</event>
<event>
 5    1  0.8952932E-005  0.9118800E+02  0.7818608E-02  0.1130116E+00
         25   -1    0    0    0    0  0.00000000000E+00  0.00000000000E+00  0.99999998245E-14  0.12500000000E+03  0.12500000000E+03 0.  0.
        -11    1    3    3    0    0 -0.45795333963E+02  0.37018643046E+02 -0.16917115827E+02  0.61268110416E+02  0.51100000000E-03 0.  1.
         23    2    1    0    0    0 -0.17749888816E+02  0.24157179393E+02 -0.38438080981E+01  0.94777446668E+02  0.89829625776E+02 0.  0.
         11    1    3    3    0    0  0.28045445147E+02 -0.12861463653E+02  0.13073307729E+02  0.33509336252E+02  0.51100000000E-03 0. -1.
         22    1    1    0    0    0  0.17749888816E+02 -0.24157179393E+02  0.38438080981E+01  0.30222553332E+02  0.00000000000E+00 0.  1.
</event>
<event>
 5    1  0.8952932E-005  0.9118800E+02  0.7818608E-02  0.1130116E+00
         25   -1    0    0    0    0  0.00000000000E+00  0.00000000000E+00  0.99999998245E-14  0.12500000000E+03  0.12500000000E+03 0.  0.
        -11    1    3    3    0    0 -0.66000100925E+01  0.17256192794E+02 -0.48465604835E+02  0.51867631287E+02  0.51100000000E-03 0.  1.
         23    2    1    0    0    0  0.17910030062E+02  0.19121269582E+02 -0.11206163828E+02  0.96504908581E+02  0.92202099462E+02 0.  0.
         11    1    3    3    0    0  0.24510040155E+02  0.18650767879E+01  0.37259441007E+02  0.44637277294E+02  0.51100000000E-03 0. -1.
         22    1    1    0    0    0 -0.17910030062E+02 -0.19121269582E+02  0.11206163828E+02  0.28495091419E+02  0.00000000000E+00 0.  1.
</event>
<event>
 5    1  0.8952932E-005  0.9118800E+02  0.7818608E-02  0.1130116E+00
         25   -1    0    0    0    0  0.00000000000E+00  0.00000000000E+00  0.99999998245E-14  0.12500000000E+03  0.12500000000E+03 0.  0.
        -11    1    3    3    0    0 -0.82477084389E+01  0.62817549738E+01 -0.30443867973E+02  0.32160756171E+02  0.51100000000E-03 0.  1.
         23    2    1    0    0    0 -0.19619071986E+02 -0.93560287923E+01  0.25583029079E+02  0.91430152857E+02  0.85044330877E+02 0.  0.
         11    1    3    3    0    0 -0.11371363547E+02 -0.15637783766E+02  0.56026897052E+02  0.59269396686E+02  0.51100000000E-03 0. -1.
         22    1    1    0    0    0  0.19619071986E+02  0.93560287923E+01 -0.25583029079E+02  0.33569847143E+02  0.00000000000E+00 0. -1.
</event>
<event>
 5    1  0.8952932E-005  0.9118800E+02  0.7818608E-02  0.1130116E+00
         25   -1    0    0    0    0  0.00000000000E+00  0.00000000000E+00  0.99999998245E-14  0.12500000000E+03  0.12500000000E+03 0.  0.
        -11    1    3    3    0    0 -0.64475856692E+01  0.43747386104E+02 -0.11474605311E+02  0.45684480070E+02  0.51100000000E-03 0. -1.
         23    2    1    0    0    0 -0.21746468221E+02  0.52727637113E+01  0.17811786053E+02  0.96399813993E+02  0.92059510635E+02 0.  0.
         11    1    3    3    0    0 -0.15298882551E+02 -0.38474622393E+02  0.29286391364E+02  0.50715333924E+02  0.51100000000E-03 0.  1.
         22    1    1    0    0    0  0.21746468221E+02 -0.52727637113E+01 -0.17811786053E+02  0.28600186007E+02  0.00000000000E+00 0. -1.
</event>
<event>
 5    1  0.8952932E-005  0.9118800E+02  0.7818608E-02  0.1130116E+00
         25   -1    0    0    0    0  0.00000000000E+00  0.00000000000E+00  0.99999998245E-14  0.12500000000E+03  0.12500000000E+03 0.  0.
        -11    1    3    3    0    0 -0.13542957050E+02 -0.28865601318E+02  0.26322081306E+02  0.41345938007E+02  0.51100000000E-03 0. -1.
         23    2    1    0    0    0  0.28494246453E+02 -0.31741698658E+01  0.20785886670E+01  0.96254253078E+02  0.91861652878E+02 0.  0.
         11    1    3    3    0    0  0.42037203503E+02  0.25691431452E+02 -0.24243492639E+02  0.54908315072E+02  0.51100000000E-03 0.  1.
         22    1    1    0    0    0 -0.28494246453E+02  0.31741698658E+01 -0.20785886670E+01  0.28745746922E+02  0.00000000000E+00 0.  1.
</event>
<event>
 5    1  0.8952932E-005  0.9118800E+02  0.7818608E-02  0.1130116E+00
         25   -1    0    0    0    0  0.00000000000E+00  0.00000000000E+00  0.99999998245E-14  0.12500000000E+03  0.12500000000E+03 0.  0.
        -11    1    3    3    0    0 -0.49126745550E+02  0.22513061415E+02 -0.25131742752E+02  0.59597647241E+02  0.51100000000E-03 0.  1.
         23    2    1    0    0    0 -0.26940331398E+02  0.11313166214E+02  0.11350118459E+01  0.95758634821E+02  0.91184750399E+02 0.  0.
         11    1    3    3    0    0  0.22186414152E+02 -0.11199895201E+02  0.26266754597E+02  0.36160987580E+02  0.51100000000E-03 0. -1.
         22    1    1    0    0    0  0.26940331398E+02 -0.11313166214E+02 -0.11350118459E+01  0.29241365179E+02  0.00000000000E+00 0.  1.
</event>
<event>
 5    1  0.8952932E-005  0.9118800E+02  0.7818608E-02  0.1130116E+00
         25   -1    0    0    0    0  0.00000000000E+00  0.00000000000E+00  0.99999998245E-14  0.12500000000E+03  0.12500000000E+03 0.  0.
        -11    1    3    3    0    0 -0.31711463847E+02 -0.47515878781E+02 -0.17213893668E+02  0.59663169637E+02  0.51100000000E-03 0. -1.
         23    2    1    0    0    0 -0.24460332065E+02 -0.13266518851E+02 -0.50879640453E+01  0.96712268644E+02  0.92482793865E+02 0.  0.
         11    1    3    3    0    0  0.72511317826E+01  0.34249359930E+02  0.12125929623E+02  0.37049099007E+02  0.51100000000E-03 0.  1.
         22    1    1    0    0    0  0.24460332065E+02  0.13266518851E+02  0.50879640453E+01  0.28287731356E+02  0.00000000000E+00 0. -1.
</event>
<event>
 5    1  0.8952932E-005  0.9118800E+02  0.7818608E-02  0.1130116E+00
         25   -1    0    0    0    0  0.00000000000E+00  0.00000000000E+00  0.99999998245E-14  0.12500000000E+03  0.12500000000E+03 0.  0.
        -11    1    3    3    0    0  0.52412588144E+02  0.16210122392E+02  0.26255802274E+00  0.54862705009E+02  0.51100000000E-03 0. -1.
         23    2    1    0    0    0  0.18940906146E+02  0.12330536799E+02  0.20767054800E+02  0.94306830915E+02  0.89172348454E+02 0.  0.
         11    1    3    3    0    0 -0.33471681998E+02 -0.38795855923E+01  0.20504496778E+02  0.39444125906E+02  0.51100000000E-03 0.  1.
         22    1    1    0    0    0 -0.18940906146E+02 -0.12330536799E+02 -0.20767054800E+02  0.30693169085E+02  0.00000000000E+00 0. -1.
</event>
<event>
 5    1  0.8952932E-005  0.9118800E+02  0.7818608E-02  0.1130116E+00
         25   -1    0    0    0    0  0.00000000000E+00  0.00000000000E+00  0.99999998245E-14  0.12500000000E+03  0.12500000000E+03 0.  0.
        -11    1    3    3    0    0  0.34218039577E+02  0.10208935437E+01  0.25117992917E+02  0.42459745932E+02  0.51100000000E-03 0. -1.
         23    2    1    0    0    0 -0.74843120519E+01  0.27918992764E+02  0.72838549132E+01  0.95191618188E+02  0.90404117976E+02 0.  0.
         11    1    3    3    0    0 -0.41702351629E+02  0.26898099220E+02 -0.17834138004E+02  0.52731872256E+02  0.51100000000E-03 0.  1.
         22    1    1    0    0    0  0.74843120519E+01 -0.27918992764E+02 -0.72838549132E+01  0.29808381812E+02  0.00000000000E+00 0. -1.
</event>
<event>
 5    1  0.8952932E-005  0.9118800E+02  0.7818608E-02  0.1130116E+00
         25   -1    0    0    0    0  0.00000000000E+00  0.00000000000E+00  0.99999998245E-14  0.12500000000E+03  0.12500000000E+03 0.  0.
        -11    1    3    3    0    0  0.10971379976E+02  0.25246764543E+02  0.22843271015E+02  0.35771291973E+02  0.51100000000E-03 0.  1.
         23    2    1    0    0    0 -0.13025895995E+01 -0.28619275596E+02 -0.18627298399E+01  0.96290603667E+02  0.91911103338E+02 0.  0.
         11    1    3    3    0    0 -0.12273969576E+02 -0.53866040140E+02 -0.24706000855E+02  0.60519311694E+02  0.51100000000E-03 0. -1.
         22    1    1    0    0    0  0.13025895995E+01  0.28619275596E+02  0.18627298399E+01  0.28709396333E+02  0.00000000000E+00 0. -1.
</event>
<event>
 5    1  0.8952932E-005  0.9118800E+02  0.7818608E-02  0.1130116E+00
         25   -1    0    0    0    0  0.00000000000E+00  0.00000000000E+00  0.99999998245E-14  0.12500000000E+03  0.12500000000E+03 0.  0.
        -11    1    3    3    0    0 -0.43559367432E+01  0.58804714649E+01 -0.37634864298E+02  0.38339759266E+02  0.51100000000E-03 0.  1.
         23    2    1    0    0    0  0.18635525560E+01 -0.30272640597E+02  0.46456984709E+01  0.94316321747E+02  0.89185651519E+02 0.  0.
         11    1    3    3    0    0  0.62194892991E+01 -0.36153112062E+02  0.42280562769E+02  0.55976562481E+02  0.51100000000E-03 0. -1.
         22    1    1    0    0    0 -0.18635525560E+01  0.30272640597E+02 -0.46456984709E+01  0.30683678253E+02  0.00000000000E+00 0. -1.
</event>
<event>
 5    1  0.8952932E-005  0.9118800E+02  0.7818608E-02  0.1130116E+00
         25   -1    0    0    0    0  0.00000000000E+00  0.00000000000E+00  0.99999998245E-14  0.12500000000E+03  0.12500000000E+03 0.  0.
        -11    1    3    3    0    0  0.26153431147E+02  0.28782336250E+02 -0.82058855049E+00  0.38898563040E+02  0.51100000000E-03 0.  1.
         23    2    1    0    0    0  0.15949832557E+02 -0.25020659214E+02 -0.83492480070E+01  0.94175651047E+02  0.88988273170E+02 0.  0.
         11    1    3    3    0    0 -0.10203598589E+02 -0.53802995464E+02 -0.75286594565E+01  0.55277088007E+02  0.51100000000E-03 0. -1.
         22    1    1    0    0    0 -0.15949832557E+02  0.25020659214E+02  0.83492480070E+01  0.30824348953E+02  0.00000000000E+00 0. -1.
</event>
<event>
 5    1  0.8952932E-005  0.9118800E+02  0.7818608E-02  0.1130116E+00
         25   -1    0    0    0    0  0.00000000000E+00  0.00000000000E+00  0.99999998245E-14  0.12500000000E+03  0.12500000000E+03 0.  0.
        -11    1    3    3    0    0 -0.28689271948E+01  0.25655295947E+01  0.60183693093E+02  0.60306629817E+02  0.51100000000E-03 0. -1.
         23    2    1    0    0    0 -0.12841543858E+02 -0.58821472327E+00  0.27073588482E+02  0.95029507203E+02  0.90179691731E+02 0.  0.
         11    1    3    3    0    0 -0.99726166637E+01 -0.31537443180E+01 -0.33110104611E+02  0.34722877386E+02  0.51100000000E-03 0.  1.
         22    1    1    0    0    0  0.12841543858E+02  0.58821472327E+00 -0.27073588482E+02  0.29970492797E+02  0.00000000000E+00 0. -1.
</event>
<event>
 5    1  0.8952932E-005  0.9118800E+02  0.7818608E-02  0.1130116E+00
         25   -1    0    0    0    0  0.00000000000E+00  0.00000000000E+00  0.99999998245E-14  0.12500000000E+03  0.12500000000E+03 0.  0.
        -11    1    3    3    0    0  0.32689597616E+02  0.21875038305E+02 -0.65214959807E+01  0.39870502922E+02  0.51100000000E-03 0. -1.
         23    2    1    0    0    0 -0.22695645142E+02  0.18446386418E+02 -0.45905935514E+01  0.95395354597E+02  0.90685382776E+02 0.  0.
         11    1    3    3    0    0 -0.55385242758E+02 -0.34286518874E+01  0.19309024292E+01  0.55524851675E+02  0.51100000000E-03 0.  1.
         22    1    1    0    0    0  0.22695645142E+02 -0.18446386418E+02  0.45905935514E+01  0.29604645403E+02  0.00000000000E+00 0.  1.
</event>
<event>
 5    1  0.8952932E-005  0.9118800E+02  0.7818608E-02  0.1130116E+00
         25   -1    0    0    0    0  0.00000000000E+00  0.00000000000E+00  0.99999998245E-14  0.12500000000E+03  0.12500000000E+03 0.  0.
        -11    1    3    3    0    0 -0.21417308899E+02 -0.49268778518E+02 -0.28617732195E+02  0.60869436118E+02  0.51100000000E-03 0.  1.
         23    2    1    0    0    0 -0.19073229685E+02 -0.19361819765E+02 -0.10844489534E+02  0.95737889541E+02  0.91156307436E+02 0.  0.
         11    1    3    3    0    0  0.23440792144E+01  0.29906958752E+02  0.17773242661E+02  0.34868453423E+02  0.51100000000E-03 0. -1.
         22    1    1    0    0    0  0.19073229685E+02  0.19361819765E+02  0.10844489534E+02  0.29262110459E+02  0.00000000000E+00 0.  1.
</event>
<event>
 5    1  0.8952932E-005  0.9118800E+02  0.7818608E-02  0.1130116E+00
         25   -1    0    0    0    0  0.00000000000E+00  0.00000000000E+00  0.99999998245E-14  0.12500000000E+03  0.12500000000E+03 0.  0.
        -11    1    3    3    0    0 -0.15517406470E+02  0.45140547569E+02 -0.31915093626E+02  0.57419788748E+02  0.51100000000E-03 0. -1.
         23    2    1    0    0    0  0.10305822947E+02  0.23729529511E+02 -0.11503188295E+02  0.96687036567E+02  0.92448683829E+02 0.  0.
         11    1    3    3    0    0  0.25823229416E+02 -0.21411018059E+02  0.20411905331E+02  0.39267247819E+02  0.51100000000E-03 0.  1.
         22    1    1    0    0    0 -0.10305822947E+02 -0.23729529511E+02  0.11503188295E+02  0.28312963433E+02  0.00000000000E+00 0. -1.
</event>
<event>
 5    1  0.8952932E-005  0.9118800E+02  0.7818608E-02  0.1130116E+00
         25   -1    0    0    0    0  0.00000000000E+00  0.00000000000E+00  0.99999998245E-14  0.12500000000E+03  0.12500000000E+03 0.  0.
        -11    1    3    3    0    0  0.20601951245E+02  0.17288475648E+02 -0.22272036215E+02  0.34919555878E+02  0.51100000000E-03 0.  1.
         23    2    1    0    0    0  0.18415727715E+01 -0.14507480272E+02  0.25686762712E+02  0.95442121985E+02  0.90749823670E+02 0.  0.
         11    1    3    3    0    0 -0.18760378473E+02 -0.31795955921E+02  0.47958798927E+02  0.60522566107E+02  0.51100000000E-03 0. -1.
         22    1    1    0    0    0 -0.18415727715E+01  0.14507480272E+02 -0.25686762712E+02  0.29557878015E+02  0.00000000000E+00 0. -1.
</event>
<event>
 5    1  0.8952932E-005  0.9118800E+02  0.7818608E-02  0.1130116E+00
         25   -1    0    0    0    0  0.00000000000E+00  0.00000000000E+00  0.99999998245E-14  0.12500000000E+03  0.12500000000E+03 0.  0.
        -11    1    3    3    0    0 -0.83600245155E+01 -0.49263807491E+02  0.91288542874E+01  0.50795164330E+02  0.51100000000E-03 0. -1.
         23    2    1    0    0    0 -0.37003452373E+01 -0.18961838688E+02 -0.22837390146E+02  0.95086954853E+02  0.90259286022E+02 0.  0.
         11    1    3    3    0    0  0.46596792782E+01  0.30301968803E+02 -0.31966244433E+02  0.44291790523E+02  0.51100000000E-03 0.  1.
         22    1    1    0    0    0  0.37003452373E+01  0.18961838688E+02  0.22837390146E+02  0.29913045147E+02  0.00000000000E+00 0. -1.
</event>
<event>
 5    1  0.8952932E-005  0.9118800E+02  0.7818608E-02  0.1130116E+00
         25   -1    0    0    0    0  0.00000000000E+00  0.00000000000E+00  0.99999998245E-14  0.12500000000E+03  0.12500000000E+03 0.  0.
        -11    1    3    3    0    0  0.10902973362E+02  0.29688019620E+01 -0.31730145048E+02  0.33682201802E+02  0.51100000000E-03 0.  1.
         23    2    1    0    0    0  0.98912845035E+00  0.25726467502E+01  0.29328780333E+02  0.95541991883E+02  0.90887281678E+02 0.  0.
         11    1    3    3    0    0 -0.99138449112E+01 -0.39615521173E+00  0.61058925381E+02  0.61859790081E+02  0.51100000000E-03 0. -1.
         22    1    1    0    0    0 -0.98912845035E+00 -0.25726467502E+01 -0.29328780333E+02  0.29458008117E+02  0.00000000000E+00 0. -1.
</event>
<event>
 5    1  0.8952932E-005  0.9118800E+02  0.7818608E-02  0.1130116E+00
         25   -1    0    0    0    0  0.00000000000E+00  0.00000000000E+00  0.99999998245E-14  0.12500000000E+03  0.12500000000E+03 0.  0.
        -11    1    3    3    0    0 -0.17961092073E+02  0.14695085460E+02  0.25410359782E+02  0.34412682977E+02  0.51100000000E-03 0.  1.
         23    2    1    0    0    0  0.14147867549E+02  0.83766233382E+01 -0.25336597399E+02  0.94796140272E+02  0.89855634592E+02 0.  0.
         11    1    3    3    0    0  0.32108959622E+02 -0.63184621216E+01 -0.50746957181E+02  0.60383457295E+02  0.51100000000E-03 0. -1.
         22    1    1    0    0    0 -0.14147867549E+02 -0.83766233382E+01  0.25336597399E+02  0.30203859728E+02  0.00000000000E+00 0. -1.
</event>
<event>
 4    1  0.8952932E-005  0.9118800E+02  0.7818608E-02  0.1130116E+00
         25   -1    0    0    0    0  0.00000000000E+00  0.00000000000E+00  0.99999998245E-14  0.12500000000E+03  0.12500000000E+03 0.  0.
        -11    1    1    0    0    0 -0.32000644394E+01 -0.46195114280E-01 -0.15178411348E+02  0.15512147424E+02  0.51100000000E-03 0. -1.
         11    1    1    0    0    0  0.44177415757E+02 -0.33481522304E+02  0.94799583452E+01  0.56236340645E+02  0.51100000000E-03 0.  1.
         22    1    1    0    0    0 -0.40977351317E+02  0.33527717418E+02  0.56984530027E+01  0.53251511930E+02  0.00000000000E+00 0.  1.
</event>
<event>
 4    1  0.8952932E-005  0.9118800E+02  0.7818608E-02  0.1130116E+00
         25   -1    0    0    0    0  0.00000000000E+00  0.00000000000E+00  0.99999998245E-14  0.12500000000E+03  0.12500000000E+03 0.  0.
        -11    1    1    0    0    0  0.25882183867E+02  0.10866348600E+02  0.11171007709E+02  0.30211858385E+02  0.51100000000E-03 0. -1.
         11    1    1    0    0    0  0.16975968648E+02 -0.39155021352E+02 -0.72294161218E+01  0.43284681660E+02  0.51100000000E-03 0.  1.
         22    1    1    0    0    0 -0.42858152515E+02  0.28288672753E+02 -0.39415915873E+01  0.51503459955E+02  0.00000000000E+00 0.  1.
</event>
<event>
 5    1  0.8952932E-005  0.9118800E+02  0.7818608E-02  0.1130116E+00
         25   -1    0    0    0    0  0.00000000000E+00  0.00000000000E+00  0.99999998245E-14  0.12500000000E+03  0.12500000000E+03 0.  0.
        -11    1    3    3    0    0  0.10363314655E+02 -0.30479278365E+02 -0.12738021932E+02  0.34621408164E+02  0.51100000000E-03 0. -1.
         23    2    1    0    0    0 -0.15773243964E+02  0.11944726771E+02  0.22036297175E+02  0.95384630410E+02  0.90670599439E+02 0.  0.
         11    1    3    3    0    0 -0.26136558619E+02  0.42424005135E+02  0.34774319107E+02  0.60763222246E+02  0.51100000000E-03 0.  1.
         22    1    1    0    0    0  0.15773243964E+02 -0.11944726771E+02 -0.22036297175E+02  0.29615369590E+02  0.00000000000E+00 0.  1.
</event>
<event>
 5    1  0.8952932E-005  0.9118800E+02  0.7818608E-02  0.1130116E+00
         25   -1    0    0    0    0  0.00000000000E+00  0.00000000000E+00  0.99999998245E-14  0.12500000000E+03  0.12500000000E+03 0.  0.
        -11    1    3    3    0    0  0.47795475092E+02  0.37978422567E+02 -0.72518711243E+01  0.61476480503E+02  0.51100000000E-03 0. -1.
         23    2    1    0    0    0  0.21609511642E+02  0.15448513260E+02 -0.11051723732E+02  0.96229039766E+02  0.91827337659E+02 0.  0.
         11    1    3    3    0    0 -0.26185963450E+02 -0.22529909308E+02 -0.37998526075E+01  0.34752559263E+02  0.51100000000E-03 0.  1.
         22    1    1    0    0    0 -0.21609511642E+02 -0.15448513260E+02  0.11051723732E+02  0.28770960234E+02  0.00000000000E+00 0. -1.
</event>
<event>
 5    1  0.8952932E-005  0.9118800E+02  0.7818608E-02  0.1130116E+00
         25   -1    0    0    0    0  0.00000000000E+00  0.00000000000E+00  0.99999998245E-14  0.12500000000E+03  0.12500000000E+03 0.  0.
        -11    1    3    3    0    0  0.65049971802E+01  0.25612355657E+02  0.29679333521E+02  0.39738779412E+02  0.51100000000E-03 0. -1.
         23    2    1    0    0    0  0.23418821789E+02  0.39329011307E+01 -0.18287293263E+02  0.95027779192E+02  0.90177296467E+02 0.  0.
         11    1    3    3    0    0  0.16913824609E+02 -0.21679454527E+02 -0.47966626784E+02  0.55288999780E+02  0.51100000000E-03 0.  1.
         22    1    1    0    0    0 -0.23418821789E+02 -0.39329011307E+01  0.18287293263E+02  0.29972220808E+02  0.00000000000E+00 0.  1.
</event>
<event>
 5    1  0.8952932E-005  0.9118800E+02  0.7818608E-02  0.1130116E+00
         25   -1    0    0    0    0  0.00000000000E+00  0.00000000000E+00  0.99999998245E-14  0.12500000000E+03  0.12500000000E+03 0.  0.
        -11    1    3    3    0    0 -0.35599083792E+02 -0.11384247179E+02 -0.91344338911E+01  0.38475105373E+02  0.51100000000E-03 0.  1.
         23    2    1    0    0    0  0.14172153565E+02  0.36095829852E+01  0.21639337265E+02  0.98882191071E+02  0.95370581249E+02 0.  0.
         11    1    3    3    0    0  0.49771237358E+02  0.14993830165E+02  0.30773771156E+02  0.60407085698E+02  0.51100000000E-03 0. -1.
         22    1    1    0    0    0 -0.14172153565E+02 -0.36095829852E+01 -0.21639337265E+02  0.26117808929E+02  0.00000000000E+00 0. -1.
</event>
<event>
 5    1  0.8952932E-005  0.9118800E+02  0.7818608E-02  0.1130116E+00
         25   -1    0    0    0    0  0.00000000000E+00  0.00000000000E+00  0.99999998245E-14  0.12500000000E+03  0.12500000000E+03 0.  0.
        -11    1    3    3    0    0 -0.27189291158E+02  0.31534661804E+02  0.15602402211E+02  0.44464900807E+02  0.51100000000E-03 0.  1.
         23    2    1    0    0    0 -0.21552139814E+02 -0.18566848548E+02  0.32951278426E+01  0.96362952962E+02  0.92009446474E+02 0.  0.
         11    1    3    3    0    0  0.56371513444E+01 -0.50101510352E+02 -0.12307274368E+02  0.51898052155E+02  0.51100000000E-03 0. -1.
         22    1    1    0    0    0  0.21552139814E+02  0.18566848548E+02 -0.32951278426E+01  0.28637047038E+02  0.00000000000E+00 0. -1.
</event>
<event>
 5    1  0.8952932E-005  0.9118800E+02  0.7818608E-02  0.1130116E+00
         25   -1    0    0    0    0  0.00000000000E+00  0.00000000000E+00  0.99999998245E-14  0.12500000000E+03  0.12500000000E+03 0.  0.
        -11    1    3    3    0    0 -0.36945465780E+02 -0.26218908605E+02 -0.15596993488E+02  0.47913096500E+02  0.51100000000E-03 0. -1.
         23    2    1    0    0    0  0.39848028230E+01 -0.25273764799E+02  0.11436708160E+02  0.96974295117E+02  0.92836274049E+02 0.  0.
         11    1    3    3    0    0  0.40930268603E+02  0.94514380649E+00  0.27033701647E+02  0.49061198617E+02  0.51100000000E-03 0.  1.
         22    1    1    0    0    0 -0.39848028230E+01  0.25273764799E+02 -0.11436708160E+02  0.28025704883E+02  0.00000000000E+00 0.  1.
</event>
<event>
 5    1  0.8952932E-005  0.9118800E+02  0.7818608E-02  0.1130116E+00
         25   -1    0    0    0    0  0.00000000000E+00  0.00000000000E+00  0.99999998245E-14  0.12500000000E+03  0.12500000000E+03 0.  0.
        -11    1    3    3    0    0  0.36029032977E+02 -0.20195876637E+02  0.23507666570E+02  0.47524467785E+02  0.51100000000E-03 0.  1.
         23    2    1    0    0    0 -0.10893245703E+01 -0.29724267614E+02 -0.44011891385E+01  0.94931924254E+02  0.90044328325E+02 0.  0.
         11    1    3    3    0    0 -0.37118357547E+02 -0.95283909769E+01 -0.27908855709E+02  0.47407456469E+02  0.51100000000E-03 0. -1.
         22    1    1    0    0    0  0.10893245703E+01  0.29724267614E+02  0.44011891385E+01  0.30068075746E+02  0.00000000000E+00 0.  1.
</event>
<event>
 5    1  0.8952932E-005  0.9118800E+02  0.7818608E-02  0.1130116E+00
         25   -1    0    0    0    0  0.00000000000E+00  0.00000000000E+00  0.99999998245E-14  0.12500000000E+03  0.12500000000E+03 0.  0.
        -11    1    3    3    0    0  0.36023641429E+02  0.31105855993E+02 -0.20567240939E+02  0.51848707013E+02  0.51100000000E-03 0. -1.
         23    2    1    0    0    0 -0.18421384807E+01  0.29783493196E+02  0.40949557909E+00  0.95156782550E+02  0.90355938585E+02 0.  0.
         11    1    3    3    0    0 -0.37865779909E+02 -0.13223627970E+01  0.20976736518E+02  0.43308075537E+02  0.51100000000E-03 0.  1.
         22    1    1    0    0    0  0.18421384807E+01 -0.29783493196E+02 -0.40949557909E+00  0.29843217450E+02  0.00000000000E+00 0.  1.
</event>
<event>
 5    1  0.8952932E-005  0.9118800E+02  0.7818608E-02  0.1130116E+00
         25   -1    0    0    0    0  0.00000000000E+00  0.00000000000E+00  0.99999998245E-14  0.12500000000E+03  0.12500000000E+03 0.  0.
        -11    1    3    3    0    0  0.13456214371E+02  0.41266212509E+02  0.35412405039E+02  0.56017929549E+02  0.51100000000E-03 0.  1.
         23    2    1    0    0    0 -0.11705152918E+02  0.12591707321E+02  0.23301290625E+02  0.96042931038E+02  0.91573646643E+02 0.  0.
         11    1    3    3    0    0 -0.25161367289E+02 -0.28674505188E+02 -0.12111114415E+02  0.40025001490E+02  0.51100000000E-03 0. -1.
         22    1    1    0    0    0  0.11705152918E+02 -0.12591707321E+02 -0.23301290625E+02  0.28957068962E+02  0.00000000000E+00 0.  1.
</event>
<event>
 5    1  0.8952932E-005  0.9118800E+02  0.7818608E-02  0.1130116E+00
         25   -1    0    0    0    0  0.00000000000E+00  0.00000000000E+00  0.99999998245E-14  0.12500000000E+03  0.12500000000E+03 0.  0.
        -11    1    3    3    0    0 -0.52835682275E+02 -0.24650533846E+00 -0.15269865196E+02  0.54998535160E+02  0.51100000000E-03 0.  1.
         23    2    1    0    0    0 -0.22191570198E+02  0.17330669833E+02  0.59668869010E+01  0.96217685222E+02  0.91811879980E+02 0.  0.
         11    1    3    3    0    0  0.30644112077E+02  0.17577175171E+02  0.21236752097E+02  0.41219150062E+02  0.51100000000E-03 0. -1.
         22    1    1    0    0    0  0.22191570198E+02 -0.17330669833E+02 -0.59668869010E+01  0.28782314778E+02  0.00000000000E+00 0.  1.
</event>
<event>
 5    1  0.8952932E-005  0.9118800E+02  0.7818608E-02  0.1130116E+00
         25   -1    0    0    0    0  0.00000000000E+00  0.00000000000E+00  0.99999998245E-14  0.12500000000E+03  0.12500000000E+03 0.  0.
        -11    1    3    3    0    0 -0.32162563025E+02  0.96894801587E+01  0.13359665620E+02  0.36149649401E+02  0.51100000000E-03 0. -1.
         23    2    1    0    0    0  0.26668970632E+02  0.24802451548E+00  0.12013125128E+02  0.95749176318E+02  0.91171783351E+02 0.  0.
         11    1    3    3    0    0  0.58831533657E+02 -0.94414556432E+01 -0.13465404920E+01  0.59599526916E+02  0.51100000000E-03 0.  1.
         22    1    1    0    0    0 -0.26668970632E+02 -0.24802451548E+00 -0.12013125128E+02  0.29250823682E+02  0.00000000000E+00 0.  1.
</event>
<event>
 5    1  0.8952932E-005  0.9118800E+02  0.7818608E-02  0.1130116E+00
         25   -1    0    0    0    0  0.00000000000E+00  0.00000000000E+00  0.99999998245E-14  0.12500000000E+03  0.12500000000E+03 0.  0.
        -11    1    3    3    0    0 -0.31874397057E+02  0.86178855391E+00 -0.13992627380E+02  0.34821164376E+02  0.51100000000E-03 0.  1.
         23    2    1    0    0    0  0.14882322117E+02  0.29926342599E+00  0.25132138519E+02  0.95790456068E+02  0.91228361911E+02 0.  0.
         11    1    3    3    0    0  0.46756719174E+02 -0.56252512792E+00  0.39124765899E+02  0.60969291692E+02  0.51100000000E-03 0. -1.
         22    1    1    0    0    0 -0.14882322117E+02 -0.29926342599E+00 -0.25132138519E+02  0.29209543932E+02  0.00000000000E+00 0. -1.
</event>
<event>
 5    1  0.8952932E-005  0.9118800E+02  0.7818608E-02  0.1130116E+00
         25   -1    0    0    0    0  0.00000000000E+00  0.00000000000E+00  0.99999998245E-14  0.12500000000E+03  0.12500000000E+03 0.  0.
        -11    1    3    3    0    0 -0.22763648045E+02 -0.29722570389E+02 -0.65409364505E+01  0.38005245859E+02  0.51100000000E-03 0.  1.
         23    2    1    0    0    0  0.20070400819E+02  0.63237102368E+01 -0.20414580473E+02  0.95681654274E+02  0.91079161001E+02 0.  0.
         11    1    3    3    0    0  0.42834048863E+02  0.36046280626E+02 -0.13873644023E+02  0.57676408416E+02  0.51100000000E-03 0. -1.
         22    1    1    0    0    0 -0.20070400819E+02 -0.63237102368E+01  0.20414580473E+02  0.29318345726E+02  0.00000000000E+00 0. -1.
</event>
<event>
 5    1  0.8952932E-005  0.9118800E+02  0.7818608E-02  0.1130116E+00
         25   -1    0    0    0    0  0.00000000000E+00  0.00000000000E+00  0.99999998245E-14  0.12500000000E+03  0.12500000000E+03 0.  0.
        -11    1    3    3    0    0  0.10614735786E+02 -0.31938513598E+02 -0.20598352447E+02  0.39459262416E+02  0.51100000000E-03 0.  1.
         23    2    1    0    0    0 -0.17856905667E+02 -0.73233571912E-01  0.19850697467E+02  0.98299351448E+02  0.94603582713E+02 0.  0.
         11    1    3    3    0    0 -0.28471641453E+02  0.31865280026E+02  0.40449049914E+02  0.58840089032E+02  0.51100000000E-03 0. -1.
         22    1    1    0    0    0  0.17856905667E+02  0.73233571912E-01 -0.19850697467E+02  0.26700648552E+02  0.00000000000E+00 0. -1.
</event>
<event>
 5    1  0.8952932E-005  0.9118800E+02  0.7818608E-02  0.1130116E+00
         25   -1    0    0    0    0  0.00000000000E+00  0.00000000000E+00  0.99999998245E-14  0.12500000000E+03  0.12500000000E+03 0.  0.
        -11    1    3    3    0    0 -0.55414597645E+02  0.87621128253E+01 -0.12954283106E+02  0.57579212433E+02  0.51100000000E-03 0. -1.
         23    2    1    0    0    0 -0.16156075417E+02 -0.93702737927E+01 -0.15256317492E+02  0.10088411256E+03  0.97959318795E+02 0.  0.
         11    1    3    3    0    0  0.39258522228E+02 -0.18132386618E+02 -0.23020343862E+01  0.43304900122E+02  0.51100000000E-03 0.  1.
         22    1    1    0    0    0  0.16156075417E+02  0.93702737927E+01  0.15256317492E+02  0.24115887445E+02  0.00000000000E+00 0.  1.
</event>
<event>
 5    1  0.8952932E-005  0.9118800E+02  0.7818608E-02  0.1130116E+00
         25   -1    0    0    0    0  0.00000000000E+00  0.00000000000E+00  0.99999998245E-14  0.12500000000E+03  0.12500000000E+03 0.  0.
        -11    1    3    3    0    0  0.15656751908E+02 -0.28339802398E+01  0.40901829247E+02  0.43887640177E+02  0.51100000000E-03 0.  1.
         23    2    1    0    0    0  0.95797864524E+01  0.23331357322E+02 -0.70158633867E+01  0.98820869342E+02  0.95290174391E+02 0.  0.
         11    1    3    3    0    0 -0.60769654555E+01  0.26165337562E+02 -0.47917692634E+02  0.54933229165E+02  0.51100000000E-03 0. -1.
         22    1    1    0    0    0 -0.95797864524E+01 -0.23331357322E+02  0.70158633867E+01  0.26179130658E+02  0.00000000000E+00 0. -1.
</event>
<event>
 5    1  0.8952932E-005  0.9118800E+02  0.7818608E-02  0.1130116E+00
         25   -1    0    0    0    0  0.00000000000E+00  0.00000000000E+00  0.99999998245E-14  0.12500000000E+03  0.12500000000E+03 0.  0.
        -11    1    3    3    0    0  0.24507024891E+02 -0.43742643646E+02  0.74793781763E+01  0.50694716098E+02  0.51100000000E-03 0.  1.
         23    2    1    0    0    0 -0.87921298078E+01 -0.15255703100E+02  0.21965115583E+02  0.96848546641E+02  0.92666804522E+02 0.  0.
         11    1    3    3    0    0 -0.33299154699E+02  0.28486940546E+02  0.14485737407E+02  0.46153830543E+02  0.51100000000E-03 0. -1.
         22    1    1    0    0    0  0.87921298078E+01  0.15255703100E+02 -0.21965115583E+02  0.28151453359E+02  0.00000000000E+00 0.  1.
</event>
<event>
 5    1  0.8952932E-005  0.9118800E+02  0.7818608E-02  0.1130116E+00
         25   -1    0    0    0    0  0.00000000000E+00  0.00000000000E+00  0.99999998245E-14  0.12500000000E+03  0.12500000000E+03 0.  0.
        -11    1    3    3    0    0 -0.13921867489E+02  0.78578023297E+00 -0.32617539635E+02  0.35473084685E+02  0.51100000000E-03 0. -1.
         23    2    1    0    0    0  0.16729052462E+02  0.85520283622E+01  0.20439329285E+02  0.97237353026E+02  0.93189796955E+02 0.  0.
         11    1    3    3    0    0  0.30650919951E+02  0.77662481292E+01  0.53056868920E+02  0.61764268341E+02  0.51100000000E-03 0.  1.
         22    1    1    0    0    0 -0.16729052462E+02 -0.85520283622E+01 -0.20439329285E+02  0.27762646974E+02  0.00000000000E+00 0.  1.
</event>
<event>
 5    1  0.8952932E-005  0.9118800E+02  0.7818608E-02  0.1130116E+00
         25   -1    0    0    0    0  0.00000000000E+00  0.00000000000E+00  0.99999998245E-14  0.12500000000E+03  0.12500000000E+03 0.  0.
        -11    1    3    3    0    0  0.28574159929E+02 -0.85506786674E+01  0.15093621098E+02  0.33427744755E+02  0.51100000000E-03 0.  1.
         23    2    1    0    0    0 -0.25358261218E+02 -0.79973209265E+01 -0.14254440264E+02  0.94830684111E+02  0.89903676386E+02 0.  0.
         11    1    3    3    0    0 -0.53932421147E+02  0.55335774095E+00 -0.29348061362E+02  0.61402939355E+02  0.51100000000E-03 0. -1.
         22    1    1    0    0    0  0.25358261218E+02  0.79973209265E+01  0.14254440264E+02  0.30169315889E+02  0.00000000000E+00 0. -1.
</event>
<event>
 5    1  0.8952932E-005  0.9118800E+02  0.7818608E-02  0.1130116E+00
         25   -1    0    0    0    0  0.00000000000E+00  0.00000000000E+00  0.99999998245E-14  0.12500000000E+03  0.12500000000E+03 0.  0.
        -11    1    3    3    0    0 -0.12928202599E+02  0.55658993508E+02 -0.22416638214E+02  0.61380515229E+02  0.51100000000E-03 0.  1.
         23    2    1    0    0    0  0.21200634559E+01  0.27514588630E+02 -0.11374513984E+02  0.95151602641E+02  0.90348772323E+02 0.  0.
         11    1    3    3    0    0  0.15048266055E+02 -0.28144404878E+02  0.11042124230E+02  0.33771087411E+02  0.51100000000E-03 0. -1.
         22    1    1    0    0    0 -0.21200634559E+01 -0.27514588630E+02  0.11374513984E+02  0.29848397359E+02  0.00000000000E+00 0.  1.
</event>
<event>
 5    1  0.8952932E-005  0.9118800E+02  0.7818608E-02  0.1130116E+00
         25   -1    0    0    0    0  0.00000000000E+00  0.00000000000E+00  0.99999998245E-14  0.12500000000E+03  0.12500000000E+03 0.  0.
        -11    1    3    3    0    0 -0.33503344409E+01 -0.13351889230E+02 -0.41993640531E+02  0.44192346987E+02  0.51100000000E-03 0. -1.
         23    2    1    0    0    0 -0.14271548925E+02 -0.12128735622E+02  0.14228896010E+02  0.10147884318E+03  0.98715301726E+02 0.  0.
         11    1    3    3    0    0 -0.10921214484E+02  0.12231536081E+01  0.56222536542E+02  0.57286496192E+02  0.51100000000E-03 0.  1.
         22    1    1    0    0    0  0.14271548925E+02  0.12128735622E+02 -0.14228896010E+02  0.23521156821E+02  0.00000000000E+00 0.  1.
</event>
<event>
 5    1  0.8952932E-005  0.9118800E+02  0.7818608E-02  0.1130116E+00
         25   -1    0    0    0    0  0.00000000000E+00  0.00000000000E+00  0.99999998245E-14  0.12500000000E+03  0.12500000000E+03 0.  0.
        -11    1    3    3    0    0  0.19364626283E+02  0.14267460575E+02  0.30895309203E+02  0.39154429038E+02  0.51100000000E-03 0.  1.
         23    2    1    0    0    0  0.24554604416E+01  0.16696942155E+02 -0.23442689279E+02  0.96114418061E+02  0.91671176033E+02 0.  0.
         11    1    3    3    0    0 -0.16909165841E+02  0.24294815794E+01 -0.54337998482E+02  0.56959989023E+02  0.51100000000E-03 0. -1.
         22    1    1    0    0    0 -0.24554604416E+01 -0.16696942155E+02  0.23442689279E+02  0.28885581939E+02  0.00000000000E+00 0. -1.
</event>
<event>
 5    1  0.8952932E-005  0.9118800E+02  0.7818608E-02  0.1130116E+00
         25   -1    0    0    0    0  0.00000000000E+00  0.00000000000E+00  0.99999998245E-14  0.12500000000E+03  0.12500000000E+03 0.  0.
        -11    1    3    3    0    0 -0.86667834785E+01  0.12767559784E+02 -0.30750113957E+02  0.34404843080E+02  0.51100000000E-03 0. -1.
         23    2    1    0    0    0 -0.85016145655E+00  0.43755960298E+01  0.29209992058E+02  0.95451865522E+02  0.90763243555E+02 0.  0.
         11    1    3    3    0    0  0.78166220219E+01 -0.83919637538E+01  0.59960106015E+02  0.61047022442E+02  0.51100000000E-03 0.  1.
         22    1    1    0    0    0  0.85016145655E+00 -0.43755960298E+01 -0.29209992058E+02  0.29548134478E+02  0.00000000000E+00 0.  1.
</event>
<event>
 5    1  0.8952932E-005  0.9118800E+02  0.7818608E-02  0.1130116E+00
         25   -1    0    0    0    0  0.00000000000E+00  0.00000000000E+00  0.99999998245E-14  0.12500000000E+03  0.12500000000E+03 0.  0.
        -11    1    3    3    0    0  0.94990577458E+01 -0.20584502496E+02 -0.30310627350E+02  0.37850864874E+02  0.51100000000E-03 0. -1.
         23    2    1    0    0    0  0.18318466694E+02 -0.29011768152E+01  0.23434870381E+02  0.95113946418E+02  0.90296658878E+02 0.  0.
         11    1    3    3    0    0  0.88194089480E+01  0.17683325681E+02  0.53745497731E+02  0.57263081544E+02  0.51100000000E-03 0.  1.
         22    1    1    0    0    0 -0.18318466694E+02  0.29011768152E+01 -0.23434870381E+02  0.29886053582E+02  0.00000000000E+00 0.  1.
</event>
<event>
 5    1  0.8952932E-005  0.9118800E+02  0.7818608E-02  0.1130116E+00
         25   -1    0    0    0    0  0.00000000000E+00  0.00000000000E+00  0.99999998245E-14  0.12500000000E+03  0.12500000000E+03 0.  0.
        -11    1    3    3    0    0 -0.17334187269E+02 -0.39097286593E+02  0.20961290670E+02  0.47628222453E+02  0.51100000000E-03 0.  1.
         23    2    1    0    0    0 -0.20411093738E+02 -0.10981320956E+02 -0.17915833892E+02  0.95705303183E+02  0.91111611751E+02 0.  0.
         11    1    3    3    0    0 -0.30769064689E+01  0.28115965637E+02 -0.38877124562E+02  0.48077080730E+02  0.51100000000E-03 0. -1.
         22    1    1    0    0    0  0.20411093738E+02  0.10981320956E+02  0.17915833892E+02  0.29294696817E+02  0.00000000000E+00 0.  1.
</event>
<event>
 5    1  0.8952932E-005  0.9118800E+02  0.7818608E-02  0.1130116E+00
         25   -1    0    0    0    0  0.00000000000E+00  0.00000000000E+00  0.99999998245E-14  0.12500000000E+03  0.12500000000E+03 0.  0.
        -11    1    3    3    0    0  0.46381850814E+02 -0.44491227423E+01 -0.68903021056E+00  0.46599844861E+02  0.51100000000E-03 0. -1.
         23    2    1    0    0    0  0.89454108560E+01  0.58370026086E+01  0.28103476517E+02  0.94935130681E+02  0.90048779394E+02 0.  0.
         11    1    3    3    0    0 -0.37436439958E+02  0.10286125351E+02  0.28792506727E+02  0.48335285821E+02  0.51100000000E-03 0.  1.
         22    1    1    0    0    0 -0.89454108560E+01 -0.58370026086E+01 -0.28103476517E+02  0.30064869319E+02  0.00000000000E+00 0.  1.
</event>
<event>
 5    1  0.8952932E-005  0.9118800E+02  0.7818608E-02  0.1130116E+00
         25   -1    0    0    0    0  0.00000000000E+00  0.00000000000E+00  0.99999998245E-14  0.12500000000E+03  0.12500000000E+03 0.  0.
        -11    1    3    3    0    0  0.17556866636E+02  0.51168876131E+02 -0.13242203628E+02  0.55694285234E+02  0.51100000000E-03 0.  1.
         23    2    1    0    0    0  0.22210450037E+02  0.17983657547E+02  0.79419424093E+01  0.95338737740E+02  0.90607308949E+02 0.  0.
         11    1    3    3    0    0  0.46535834010E+01 -0.33185218583E+02  0.21184146037E+02  0.39644452506E+02  0.51100000000E-03 0. -1.
         22    1    1    0    0    0 -0.22210450037E+02 -0.17983657547E+02 -0.79419424093E+01  0.29661262260E+02  0.00000000000E+00 0.  1.
</event>
<event>
 5    1  0.8952932E-005  0.9118800E+02  0.7818608E-02  0.1130116E+00
         25   -1    0    0    0    0  0.00000000000E+00  0.00000000000E+00  0.99999998245E-14  0.12500000000E+03  0.12500000000E+03 0.  0.
        -11    1    3    3    0    0 -0.20665787019E+02 -0.93358584770E+01  0.25917695708E+02  0.34437769348E+02  0.51100000000E-03 0. -1.
         23    2    1    0    0    0  0.28722176479E+02  0.26011726348E+01 -0.74358897209E+01  0.95217085826E+02  0.90439324724E+02 0.  0.
         11    1    3    3    0    0  0.49387963498E+02  0.11937031112E+02 -0.33353585429E+02  0.60779316477E+02  0.51100000000E-03 0.  1.
         22    1    1    0    0    0 -0.28722176479E+02 -0.26011726348E+01  0.74358897209E+01  0.29782914174E+02  0.00000000000E+00 0.  1.
</event>
<event>
 5    1  0.8952932E-005  0.9118800E+02  0.7818608E-02  0.1130116E+00
         25   -1    0    0    0    0  0.00000000000E+00  0.00000000000E+00  0.99999998245E-14  0.12500000000E+03  0.12500000000E+03 0.  0.
        -11    1    3    3    0    0 -0.14980281639E+02  0.21696767483E+02 -0.37419815057E+02  0.45775551513E+02  0.51100000000E-03 0. -1.
         23    2    1    0    0    0 -0.21397042949E+02 -0.67013843414E+01  0.92199663148E+01  0.10075644874E+03  0.97796278988E+02 0.  0.
         11    1    3    3    0    0 -0.64167613108E+01 -0.28398151824E+02  0.46639781372E+02  0.54980897223E+02  0.51100000000E-03 0.  1.
         22    1    1    0    0    0  0.21397042949E+02  0.67013843414E+01 -0.92199663148E+01  0.24243551264E+02  0.00000000000E+00 0.  1.
</event>
<event>
 5    1  0.8952932E-005  0.9118800E+02  0.7818608E-02  0.1130116E+00
         25   -1    0    0    0    0  0.00000000000E+00  0.00000000000E+00  0.99999998245E-14  0.12500000000E+03  0.12500000000E+03 0.  0.
        -11    1    3    3    0    0  0.60955121792E+01  0.89954239421E+01  0.37889441514E+02  0.39416781948E+02  0.51100000000E-03 0.  1.
         23    2    1    0    0    0 -0.15074019811E+02  0.22094381702E+02 -0.12390958558E+02  0.95522489419E+02  0.90860455396E+02 0.  0.
         11    1    3    3    0    0 -0.21169531990E+02  0.13098957760E+02 -0.50280400072E+02  0.56105707471E+02  0.51100000000E-03 0. -1.
         22    1    1    0    0    0  0.15074019811E+02 -0.22094381702E+02  0.12390958558E+02  0.29477510581E+02  0.00000000000E+00 0. -1.
</event>
<event>
 5    1  0.8952932E-005  0.9118800E+02  0.7818608E-02  0.1130116E+00
         25   -1    0    0    0    0  0.00000000000E+00  0.00000000000E+00  0.99999998245E-14  0.12500000000E+03  0.12500000000E+03 0.  0.
        -11    1    3    3    0    0  0.22611259936E+02 -0.21887185723E+02 -0.29041397851E+02  0.42821965907E+02  0.51100000000E-03 0. -1.
         23    2    1    0    0    0  0.12480363226E+02 -0.11044870207E+02  0.22807423644E+02  0.96752394837E+02  0.92537012645E+02 0.  0.
         11    1    3    3    0    0 -0.10130896710E+02  0.10842315516E+02  0.51848821495E+02  0.53930428930E+02  0.51100000000E-03 0.  1.
         22    1    1    0    0    0 -0.12480363226E+02  0.11044870207E+02 -0.22807423644E+02  0.28247605163E+02  0.00000000000E+00 0.  1.
</event>
<event>
 5    1  0.8952932E-005  0.9118800E+02  0.7818608E-02  0.1130116E+00
         25   -1    0    0    0    0  0.00000000000E+00  0.00000000000E+00  0.99999998245E-14  0.12500000000E+03  0.12500000000E+03 0.  0.
        -11    1    3    3    0    0  0.18489570606E+02 -0.30798062937E+02 -0.19997341279E+02  0.41112997463E+02  0.51100000000E-03 0.  1.
         23    2    1    0    0    0  0.11565271418E+02 -0.57369618810E+01  0.27140259546E+02  0.94945683790E+02  0.90063427358E+02 0.  0.
         11    1    3    3    0    0 -0.69242991872E+01  0.25061101056E+02  0.47137600826E+02  0.53832686327E+02  0.51100000000E-03 0. -1.
         22    1    1    0    0    0 -0.11565271418E+02  0.57369618810E+01 -0.27140259546E+02  0.30054316210E+02  0.00000000000E+00 0. -1.
</event>
<event>
 5    1  0.8952932E-005  0.9118800E+02  0.7818608E-02  0.1130116E+00
         25   -1    0    0    0    0  0.00000000000E+00  0.00000000000E+00  0.99999998245E-14  0.12500000000E+03  0.12500000000E+03 0.  0.
        -11    1    3    3    0    0  0.10697605697E+02 -0.37797969260E+02 -0.84879338562E+01  0.40189180997E+02  0.51100000000E-03 0.  1.
         23    2    1    0    0    0 -0.24649908831E+02 -0.76498685807E+01 -0.24583148039E+02  0.89356351728E+02  0.81939538270E+02 0.  0.
         11    1    3    3    0    0 -0.35347514527E+02  0.30148100679E+02 -0.16095214183E+02  0.49167170731E+02  0.51100000000E-03 0. -1.
         22    1    1    0    0    0  0.24649908831E+02  0.76498685807E+01  0.24583148039E+02  0.35643648272E+02  0.00000000000E+00 0. -1.
</event>
<event>
 5    1  0.8952932E-005  0.9118800E+02  0.7818608E-02  0.1130116E+00
         25   -1    0    0    0    0  0.00000000000E+00  0.00000000000E+00  0.99999998245E-14  0.12500000000E+03  0.12500000000E+03 0.  0.
        -11    1    3    3    0    0  0.39081529702E+02 -0.21156230321E+02 -0.14385145819E+02  0.46710646171E+02  0.51100000000E-03 0.  1.
         23    2    1    0    0    0 -0.11613686726E+02 -0.23482857072E+02 -0.42975991851E+01  0.98452087570E+02  0.94805178617E+02 0.  0.
         11    1    3    3    0    0 -0.50695216427E+02 -0.23266267508E+01  0.10087546634E+02  0.51741441399E+02  0.51100000000E-03 0. -1.
         22    1    1    0    0    0  0.11613686726E+02  0.23482857072E+02  0.42975991851E+01  0.26547912430E+02  0.00000000000E+00 0. -1.
</event>
<event>
 5    1  0.8952932E-005  0.9118800E+02  0.7818608E-02  0.1130116E+00
         25   -1    0    0    0    0  0.00000000000E+00  0.00000000000E+00  0.99999998245E-14  0.12500000000E+03  0.12500000000E+03 0.  0.
        -11    1    3    3    0    0 -0.14323574390E+02  0.75626197186E+00 -0.41151908477E+02  0.43579998704E+02  0.51100000000E-03 0.  1.
         23    2    1    0    0    0  0.97291190830E+01 -0.21008433001E+02  0.62508167391E+01  0.10101911751E+03  0.98131439287E+02 0.  0.
         11    1    3    3    0    0  0.24052693473E+02 -0.21764694973E+02  0.47402725216E+02  0.57439118802E+02  0.51100000000E-03 0. -1.
         22    1    1    0    0    0 -0.97291190830E+01  0.21008433001E+02 -0.62508167391E+01  0.23980882494E+02  0.00000000000E+00 0. -1.
</event>
<event>
 5    1  0.8952932E-005  0.9118800E+02  0.7818608E-02  0.1130116E+00
         25   -1    0    0    0    0  0.00000000000E+00  0.00000000000E+00  0.99999998245E-14  0.12500000000E+03  0.12500000000E+03 0.  0.
        -11    1    3    3    0    0  0.97174007542E+01 -0.32784054638E+02  0.32500897085E+02  0.47175527846E+02  0.51100000000E-03 0.  1.
         23    2    1    0    0    0  0.25220645943E+02 -0.28876358895E+02 -0.34342616952E+01  0.86506893627E+02  0.77470790669E+02 0.  0.
         11    1    3    3    0    0  0.15503245189E+02  0.39076957435E+01 -0.35935158780E+02  0.39331365782E+02  0.51100000000E-03 0. -1.
         22    1    1    0    0    0 -0.25220645943E+02  0.28876358895E+02  0.34342616952E+01  0.38493106373E+02  0.00000000000E+00 0. -1.
</event>
<event>
 5    1  0.8952932E-005  0.9118800E+02  0.7818608E-02  0.1130116E+00
         25   -1    0    0    0    0  0.00000000000E+00  0.00000000000E+00  0.99999998245E-14  0.12500000000E+03  0.12500000000E+03 0.  0.
        -11    1    3    3    0    0  0.30444095303E+02 -0.29617577846E+02 -0.75714462719E+01  0.43143605033E+02  0.51100000000E-03 0. -1.
         23    2    1    0    0    0  0.16876304555E+02  0.21544415407E+02 -0.92812345429E+01  0.96101681618E+02  0.91653807365E+02 0.  0.
         11    1    3    3    0    0 -0.13567790748E+02  0.51161993253E+02 -0.17097882711E+01  0.52958076585E+02  0.51100000000E-03 0.  1.
         22    1    1    0    0    0 -0.16876304555E+02 -0.21544415407E+02  0.92812345429E+01  0.28898318382E+02  0.00000000000E+00 0.  1.
</event>
<event>
 5    1  0.8952932E-005  0.9118800E+02  0.7818608E-02  0.1130116E+00
         25   -1    0    0    0    0  0.00000000000E+00  0.00000000000E+00  0.99999998245E-14  0.12500000000E+03  0.12500000000E+03 0.  0.
        -11    1    3    3    0    0 -0.87634735731E+01  0.21887617346E+02 -0.28791637328E+01  0.23751965102E+02  0.51100000000E-03 0.  1.
         23    2    1    0    0    0 -0.30324130837E+02 -0.24976512433E+02 -0.23404042016E+02  0.79271144044E+02  0.64751725931E+02 0.  0.
         11    1    3    3    0    0 -0.21560657264E+02 -0.46864129779E+02 -0.20524878283E+02  0.55519178942E+02  0.51100000000E-03 0. -1.
         22    1    1    0    0    0  0.30324130837E+02  0.24976512433E+02  0.23404042016E+02  0.45728855956E+02  0.00000000000E+00 0. -1.
</event>
<event>
 5    1  0.8952932E-005  0.9118800E+02  0.7818608E-02  0.1130116E+00
         25   -1    0    0    0    0  0.00000000000E+00  0.00000000000E+00  0.99999998245E-14  0.12500000000E+03  0.12500000000E+03 0.  0.
        -11    1    3    3    0    0  0.49300449135E+00 -0.35037562559E+02 -0.20176820330E+02  0.40434860237E+02  0.51100000000E-03 0.  1.
         23    2    1    0    0    0 -0.56170346651E+01 -0.47215033008E+01  0.27097767482E+02  0.96926299240E+02  0.92771627182E+02 0.  0.
         11    1    3    3    0    0 -0.61100391565E+01  0.30316059258E+02  0.47274587813E+02  0.56491439002E+02  0.51100000000E-03 0. -1.
         22    1    1    0    0    0  0.56170346651E+01  0.47215033008E+01 -0.27097767482E+02  0.28073700760E+02  0.00000000000E+00 0. -1.
</event>
<event>
 5    1  0.8952932E-005  0.9118800E+02  0.7818608E-02  0.1130116E+00
         25   -1    0    0    0    0  0.00000000000E+00  0.00000000000E+00  0.99999998245E-14  0.12500000000E+03  0.12500000000E+03 0.  0.
        -11    1    3    3    0    0 -0.83346146422E+01 -0.28478110254E+01 -0.45846718482E+02  0.46685087819E+02  0.51100000000E-03 0.  1.
         23    2    1    0    0    0  0.17207295345E+02  0.19756148178E+02 -0.80589162848E+01  0.97589371849E+02  0.93660786684E+02 0.  0.
         11    1    3    3    0    0  0.25541909987E+02  0.22603959203E+02  0.37787802197E+02  0.50904284030E+02  0.51100000000E-03 0. -1.
         22    1    1    0    0    0 -0.17207295345E+02 -0.19756148178E+02  0.80589162848E+01  0.27410628151E+02  0.00000000000E+00 0. -1.
</event>
<event>
 5    1  0.8952932E-005  0.9118800E+02  0.7818608E-02  0.1130116E+00
         25   -1    0    0    0    0  0.00000000000E+00  0.00000000000E+00  0.99999998245E-14  0.12500000000E+03  0.12500000000E+03 0.  0.
        -11    1    3    3    0    0  0.42344834070E+02 -0.14768067287E+02  0.27377552199E+02  0.52542469951E+02  0.51100000000E-03 0. -1.
         23    2    1    0    0    0  0.14634565922E+02  0.17185175384E+02  0.18630092222E+02  0.95732593062E+02  0.91149044238E+02 0.  0.
         11    1    3    3    0    0 -0.27710268149E+02  0.31953242671E+02 -0.87474599770E+01  0.43190123111E+02  0.51100000000E-03 0.  1.
         22    1    1    0    0    0 -0.14634565922E+02 -0.17185175384E+02 -0.18630092222E+02  0.29267406938E+02  0.00000000000E+00 0. -1.
</event>
<event>
 5    1  0.8952932E-005  0.9118800E+02  0.7818608E-02  0.1130116E+00
         25   -1    0    0    0    0  0.00000000000E+00  0.00000000000E+00  0.99999998245E-14  0.12500000000E+03  0.12500000000E+03 0.  0.
        -11    1    3    3    0    0  0.33268650725E+02 -0.13237946313E+01  0.87757123950E+01  0.34432087965E+02  0.51100000000E-03 0.  1.
         23    2    1    0    0    0 -0.23768515564E+02  0.12225575052E+02 -0.10703683429E+02  0.96208059176E+02  0.91798773379E+02 0.  0.
         11    1    3    3    0    0 -0.57037166290E+02  0.13549369683E+02 -0.19479395824E+02  0.61775971211E+02  0.51100000000E-03 0. -1.
         22    1    1    0    0    0  0.23768515564E+02 -0.12225575052E+02  0.10703683429E+02  0.28791940824E+02  0.00000000000E+00 0. -1.
</event>
<event>
 5    1  0.8952932E-005  0.9118800E+02  0.7818608E-02  0.1130116E+00
         25   -1    0    0    0    0  0.00000000000E+00  0.00000000000E+00  0.99999998245E-14  0.12500000000E+03  0.12500000000E+03 0.  0.
        -11    1    3    3    0    0  0.32315267618E+02  0.15737249872E+02 -0.11485191444E+02  0.37733899580E+02  0.51100000000E-03 0.  1.
         23    2    1    0    0    0 -0.12061877009E+02 -0.22984619617E+02 -0.11449552632E+02  0.96629700893E+02  0.92371127650E+02 0.  0.
         11    1    3    3    0    0 -0.44377144627E+02 -0.38721869489E+02  0.35638812102E-01  0.58895801313E+02  0.51100000000E-03 0. -1.
         22    1    1    0    0    0  0.12061877009E+02  0.22984619617E+02  0.11449552632E+02  0.28370299107E+02  0.00000000000E+00 0. -1.
</event>
<event>
 5    1  0.8952932E-005  0.9118800E+02  0.7818608E-02  0.1130116E+00
         25   -1    0    0    0    0  0.00000000000E+00  0.00000000000E+00  0.99999998245E-14  0.12500000000E+03  0.12500000000E+03 0.  0.
        -11    1    3    3    0    0  0.22221451446E+02 -0.16854958660E+02  0.25530320947E+02  0.37811107148E+02  0.51100000000E-03 0.  1.
         23    2    1    0    0    0 -0.24921111601E+02  0.12035446104E+02  0.45258925399E+01  0.96957220722E+02  0.92813281273E+02 0.  0.
         11    1    3    3    0    0 -0.47142563047E+02  0.28890404764E+02 -0.21004428407E+02  0.59146113575E+02  0.51100000000E-03 0. -1.
         22    1    1    0    0    0  0.24921111601E+02 -0.12035446104E+02 -0.45258925399E+01  0.28042779278E+02  0.00000000000E+00 0. -1.
</event>
<event>
 5    1  0.8952932E-005  0.9118800E+02  0.7818608E-02  0.1130116E+00
         25   -1    0    0    0    0  0.00000000000E+00  0.00000000000E+00  0.99999998245E-14  0.12500000000E+03  0.12500000000E+03 0.  0.
        -11    1    3    3    0    0 -0.24684481319E+02  0.30763649777E+02 -0.22521232658E+02  0.45419507772E+02  0.51100000000E-03 0. -1.
         23    2    1    0    0    0 -0.14118616378E+02 -0.18515406863E+02 -0.17103862960E+02  0.96108863853E+02  0.91663602173E+02 0.  0.
         11    1    3    3    0    0  0.10565864941E+02 -0.49279056639E+02  0.54173696980E+01  0.50689356081E+02  0.51100000000E-03 0.  1.
         22    1    1    0    0    0  0.14118616378E+02  0.18515406863E+02  0.17103862960E+02  0.28891136147E+02  0.00000000000E+00 0. -1.
</event>
<event>
 5    1  0.8952932E-005  0.9118800E+02  0.7818608E-02  0.1130116E+00
         25   -1    0    0    0    0  0.00000000000E+00  0.00000000000E+00  0.99999998245E-14  0.12500000000E+03  0.12500000000E+03 0.  0.
        -11    1    3    3    0    0  0.11432935441E+02  0.16372757994E+02  0.40476574576E+02  0.45134602101E+02  0.51100000000E-03 0. -1.
         23    2    1    0    0    0 -0.26723917085E+01  0.27110422393E+02 -0.78826536907E+01  0.96640646887E+02  0.92385938983E+02 0.  0.
         11    1    3    3    0    0 -0.14105327149E+02  0.10737664399E+02 -0.48359228266E+02  0.51506044786E+02  0.51100000000E-03 0.  1.
         22    1    1    0    0    0  0.26723917085E+01 -0.27110422393E+02  0.78826536907E+01  0.28359353113E+02  0.00000000000E+00 0.  1.
</event>
<event>
 5    1  0.8952932E-005  0.9118800E+02  0.7818608E-02  0.1130116E+00
         25   -1    0    0    0    0  0.00000000000E+00  0.00000000000E+00  0.99999998245E-14  0.12500000000E+03  0.12500000000E+03 0.  0.
        -11    1    3    3    0    0  0.16110789865E+02  0.27010335918E+02  0.11828790939E+02  0.33601132299E+02  0.51100000000E-03 0.  1.
         23    2    1    0    0    0 -0.43975218745E+01 -0.24156571554E+02 -0.16341083557E+02  0.95505777520E+02  0.90837461325E+02 0.  0.
         11    1    3    3    0    0 -0.20508311739E+02 -0.51166907471E+02 -0.28169874496E+02  0.61904645221E+02  0.51100000000E-03 0. -1.
         22    1    1    0    0    0  0.43975218745E+01  0.24156571554E+02  0.16341083557E+02  0.29494222480E+02  0.00000000000E+00 0. -1.
</event>
<event>
 5    1  0.8952932E-005  0.9118800E+02  0.7818608E-02  0.1130116E+00
         25   -1    0    0    0    0  0.00000000000E+00  0.00000000000E+00  0.99999998245E-14  0.12500000000E+03  0.12500000000E+03 0.  0.
        -11    1    3    3    0    0  0.11128802697E+02 -0.54150185524E+02  0.29220991693E+00  0.55282711842E+02  0.51100000000E-03 0.  1.
         23    2    1    0    0    0  0.24803092048E+02 -0.17161247459E+02  0.21512012882E+01  0.94762118849E+02  0.89808294229E+02 0.  0.
         11    1    3    3    0    0  0.13674289352E+02  0.36988938065E+02  0.18589913712E+01  0.39479407007E+02  0.51100000000E-03 0. -1.
         22    1    1    0    0    0 -0.24803092048E+02  0.17161247459E+02 -0.21512012882E+01  0.30237881151E+02  0.00000000000E+00 0.  1.
</event>
<event>
 5    1  0.8952932E-005  0.9118800E+02  0.7818608E-02  0.1130116E+00
         25   -1    0    0    0    0  0.00000000000E+00  0.00000000000E+00  0.99999998245E-14  0.12500000000E+03  0.12500000000E+03 0.  0.
        -11    1    3    3    0    0  0.53209852676E+00  0.10897778356E+02  0.33537733062E+02  0.35267892496E+02  0.51100000000E-03 0. -1.
         23    2    1    0    0    0  0.22358645452E+02 -0.16874066778E+02 -0.13348581833E+02  0.93970533471E+02  0.88699680765E+02 0.  0.
         11    1    3    3    0    0  0.21826546926E+02 -0.27771845134E+02 -0.46886314894E+02  0.58702640975E+02  0.51100000000E-03 0.  1.
         22    1    1    0    0    0 -0.22358645452E+02  0.16874066778E+02  0.13348581833E+02  0.31029466529E+02  0.00000000000E+00 0.  1.
</event>
<event>
 5    1  0.8952932E-005  0.9118800E+02  0.7818608E-02  0.1130116E+00
         25   -1    0    0    0    0  0.00000000000E+00  0.00000000000E+00  0.99999998245E-14  0.12500000000E+03  0.12500000000E+03 0.  0.
        -11    1    3    3    0    0 -0.33131878550E+02  0.46055574830E+02 -0.25041552866E+01  0.56790035597E+02  0.51100000000E-03 0. -1.
         23    2    1    0    0    0 -0.20856110867E+01  0.25966514667E+02 -0.13884741762E+02  0.95480587551E+02  0.90802791189E+02 0.  0.
         11    1    3    3    0    0  0.31046267463E+02 -0.20089060163E+02 -0.11380586476E+02  0.38690551953E+02  0.51100000000E-03 0.  1.
         22    1    1    0    0    0  0.20856110867E+01 -0.25966514667E+02  0.13884741762E+02  0.29519412449E+02  0.00000000000E+00 0. -1.
</event>
<event>
 5    1  0.8952932E-005  0.9118800E+02  0.7818608E-02  0.1130116E+00
         25   -1    0    0    0    0  0.00000000000E+00  0.00000000000E+00  0.99999998245E-14  0.12500000000E+03  0.12500000000E+03 0.  0.
        -11    1    3    3    0    0 -0.53853377352E+01  0.40369369079E+02 -0.95273944857E+01  0.41826535457E+02  0.51100000000E-03 0. -1.
         23    2    1    0    0    0  0.19301914585E+02 -0.51197927309E+01 -0.22228784059E+02  0.95118650884E+02  0.90303171157E+02 0.  0.
         11    1    3    3    0    0  0.24687252320E+02 -0.45489161810E+02 -0.12701389573E+02  0.53292115427E+02  0.51100000000E-03 0.  1.
         22    1    1    0    0    0 -0.19301914585E+02  0.51197927309E+01  0.22228784059E+02  0.29881349116E+02  0.00000000000E+00 0.  1.
</event>
<event>
 5    1  0.8952932E-005  0.9118800E+02  0.7818608E-02  0.1130116E+00
         25   -1    0    0    0    0  0.00000000000E+00  0.00000000000E+00  0.99999998245E-14  0.12500000000E+03  0.12500000000E+03 0.  0.
        -11    1    3    3    0    0  0.26613795485E+02 -0.53341171329E+02  0.11634990981E+02  0.60736707881E+02  0.51100000000E-03 0. -1.
         23    2    1    0    0    0  0.74256441115E+01 -0.22713791205E+02  0.14593897497E+02  0.96999315267E+02  0.92869956481E+02 0.  0.
         11    1    3    3    0    0 -0.19188151373E+02  0.30627380124E+02  0.29589065165E+01  0.36262607386E+02  0.51100000000E-03 0.  1.
         22    1    1    0    0    0 -0.74256441115E+01  0.22713791205E+02 -0.14593897497E+02  0.28000684733E+02  0.00000000000E+00 0. -1.
</event>
<event>
 5    1  0.8952932E-005  0.9118800E+02  0.7818608E-02  0.1130116E+00
         25   -1    0    0    0    0  0.00000000000E+00  0.00000000000E+00  0.99999998245E-14  0.12500000000E+03  0.12500000000E+03 0.  0.
        -11    1    3    3    0    0  0.42993732533E+02 -0.33257991324E+02 -0.28825646491E+02  0.61526197021E+02  0.51100000000E-03 0. -1.
         23    2    1    0    0    0  0.22593045546E+02 -0.18680806319E+02 -0.67865704139E+01  0.94908875566E+02  0.90012326330E+02 0.  0.
         11    1    3    3    0    0 -0.20400686987E+02  0.14577185005E+02  0.22039076077E+02  0.33382678545E+02  0.51100000000E-03 0.  1.
         22    1    1    0    0    0 -0.22593045546E+02  0.18680806319E+02  0.67865704139E+01  0.30091124434E+02  0.00000000000E+00 0. -1.
</event>
<event>
 5    1  0.8952932E-005  0.9118800E+02  0.7818608E-02  0.1130116E+00
         25   -1    0    0    0    0  0.00000000000E+00  0.00000000000E+00  0.99999998245E-14  0.12500000000E+03  0.12500000000E+03 0.  0.
        -11    1    3    3    0    0  0.38278888497E+01 -0.27860429075E+02  0.49480821637E+02  0.56914040020E+02  0.51100000000E-03 0.  1.
         23    2    1    0    0    0  0.18535921721E+02 -0.44401798543E+01  0.21793183083E+02  0.96047652598E+02  0.91580091448E+02 0.  0.
         11    1    3    3    0    0  0.14708032871E+02  0.23420249221E+02 -0.27687638553E+02  0.39133612578E+02  0.51100000000E-03 0. -1.
         22    1    1    0    0    0 -0.18535921721E+02  0.44401798543E+01 -0.21793183083E+02  0.28952347402E+02  0.00000000000E+00 0.  1.
</event>
<event>
 5    1  0.8952932E-005  0.9118800E+02  0.7818608E-02  0.1130116E+00
         25   -1    0    0    0    0  0.00000000000E+00  0.00000000000E+00  0.99999998245E-14  0.12500000000E+03  0.12500000000E+03 0.  0.
        -11    1    3    3    0    0 -0.24336915845E+01 -0.53873493839E+02  0.19132630315E+02  0.57221794242E+02  0.51100000000E-03 0.  1.
         23    2    1    0    0    0  0.16130457831E+02 -0.29069049376E+02  0.46147161090E+01  0.91436673195E+02  0.85053914070E+02 0.  0.
         11    1    3    3    0    0  0.18564149415E+02  0.24804444463E+02 -0.14517914206E+02  0.34214878953E+02  0.51100000000E-03 0. -1.
         22    1    1    0    0    0 -0.16130457831E+02  0.29069049376E+02 -0.46147161090E+01  0.33563326805E+02  0.00000000000E+00 0.  1.
</event>
<event>
 5    1  0.8952932E-005  0.9118800E+02  0.7818608E-02  0.1130116E+00
         25   -1    0    0    0    0  0.00000000000E+00  0.00000000000E+00  0.99999998245E-14  0.12500000000E+03  0.12500000000E+03 0.  0.
        -11    1    3    3    0    0 -0.97390822066E+01 -0.29873102061E+02 -0.81900537445E+01  0.32470431620E+02  0.51100000000E-03 0.  1.
         23    2    1    0    0    0  0.51950084611E+01  0.28971088997E+02  0.63333232715E+01  0.94893138751E+02  0.89990469984E+02 0.  0.
         11    1    3    3    0    0  0.14934090668E+02  0.58844191058E+02  0.14523377016E+02  0.62422707131E+02  0.51100000000E-03 0. -1.
         22    1    1    0    0    0 -0.51950084611E+01 -0.28971088997E+02 -0.63333232715E+01  0.30106861249E+02  0.00000000000E+00 0. -1.
</event>
<event>
 5    1  0.8952932E-005  0.9118800E+02  0.7818608E-02  0.1130116E+00
         25   -1    0    0    0    0  0.00000000000E+00  0.00000000000E+00  0.99999998245E-14  0.12500000000E+03  0.12500000000E+03 0.  0.
        -11    1    3    3    0    0  0.11342171803E+02  0.37927980195E+02 -0.45698788010E+02  0.60461192254E+02  0.51100000000E-03 0. -1.
         23    2    1    0    0    0  0.11649612430E+02  0.22928110282E+02 -0.13567211689E+02  0.95922844983E+02  0.91409579617E+02 0.  0.
         11    1    3    3    0    0  0.30744062716E+00 -0.14999869913E+02  0.32131576321E+02  0.35461652729E+02  0.51100000000E-03 0.  1.
         22    1    1    0    0    0 -0.11649612430E+02 -0.22928110282E+02  0.13567211689E+02  0.29077155017E+02  0.00000000000E+00 0. -1.
</event>
<event>
 5    1  0.8952932E-005  0.9118800E+02  0.7818608E-02  0.1130116E+00
         25   -1    0    0    0    0  0.00000000000E+00  0.00000000000E+00  0.99999998245E-14  0.12500000000E+03  0.12500000000E+03 0.  0.
        -11    1    3    3    0    0 -0.28464443618E+01 -0.47119109783E+02  0.14933148441E+02  0.49510722827E+02  0.51100000000E-03 0.  1.
         23    2    1    0    0    0  0.31513359788E+01 -0.17073407779E+02 -0.21662431679E+02  0.97238639841E+02  0.93191523006E+02 0.  0.
         11    1    3    3    0    0  0.59977803406E+01  0.30045702003E+02 -0.36595580120E+02  0.47727917014E+02  0.51100000000E-03 0. -1.
         22    1    1    0    0    0 -0.31513359788E+01  0.17073407779E+02  0.21662431679E+02  0.27761360159E+02  0.00000000000E+00 0.  1.
</event>
<event>
 5    1  0.8952932E-005  0.9118800E+02  0.7818608E-02  0.1130116E+00
         25   -1    0    0    0    0  0.00000000000E+00  0.00000000000E+00  0.99999998245E-14  0.12500000000E+03  0.12500000000E+03 0.  0.
        -11    1    3    3    0    0 -0.24545146305E+02 -0.17444573243E+02  0.12305156285E+02  0.32529897236E+02  0.51100000000E-03 0.  1.
         23    2    1    0    0    0 -0.35474792210E+02  0.24455513463E+02 -0.92963928608E+01  0.80921026086E+02  0.67862040358E+02 0.  0.
         11    1    3    3    0    0 -0.10929645905E+02  0.41900086706E+02 -0.21601549146E+02  0.48391128850E+02  0.51100000000E-03 0. -1.
         22    1    1    0    0    0  0.35474792210E+02 -0.24455513463E+02  0.92963928608E+01  0.44078973914E+02  0.00000000000E+00 0. -1.
</event>
<event>
 5    1  0.8952932E-005  0.9118800E+02  0.7818608E-02  0.1130116E+00
         25   -1    0    0    0    0  0.00000000000E+00  0.00000000000E+00  0.99999998245E-14  0.12500000000E+03  0.12500000000E+03 0.  0.
        -11    1    3    3    0    0 -0.32480616633E+01 -0.34316497497E+02 -0.41895019447E+01  0.34723534265E+02  0.51100000000E-03 0.  1.
         23    2    1    0    0    0 -0.16967940977E+02  0.23853196194E+02  0.53400861648E+01  0.95244286097E+02  0.90476911553E+02 0.  0.
         11    1    3    3    0    0 -0.13719879314E+02  0.58169693691E+02  0.95295881096E+01  0.60520751832E+02  0.51100000000E-03 0. -1.
         22    1    1    0    0    0  0.16967940977E+02 -0.23853196194E+02 -0.53400861648E+01  0.29755713903E+02  0.00000000000E+00 0. -1.
</event>
<event>
 5    1  0.8952932E-005  0.9118800E+02  0.7818608E-02  0.1130116E+00
         25   -1    0    0    0    0  0.00000000000E+00  0.00000000000E+00  0.99999998245E-14  0.12500000000E+03  0.12500000000E+03 0.  0.
        -11    1    3    3    0    0 -0.23674400956E+02  0.23221747503E+02  0.16561934556E+02  0.37067836384E+02  0.51100000000E-03 0.  1.
         23    2    1    0    0    0  0.15914071200E+01 -0.28507949282E+02  0.24474835395E+01  0.96342960297E+02  0.91982281306E+02 0.  0.
         11    1    3    3    0    0  0.25265808076E+02 -0.51729696784E+02 -0.14114451016E+02  0.59275123913E+02  0.51100000000E-03 0. -1.
         22    1    1    0    0    0 -0.15914071200E+01  0.28507949282E+02 -0.24474835395E+01  0.28657039703E+02  0.00000000000E+00 0. -1.
</event>
<event>
 5    1  0.8952932E-005  0.9118800E+02  0.7818608E-02  0.1130116E+00
         25   -1    0    0    0    0  0.00000000000E+00  0.00000000000E+00  0.99999998245E-14  0.12500000000E+03  0.12500000000E+03 0.  0.
        -11    1    3    3    0    0  0.11875610510E+02  0.16736772608E+01 -0.54423213199E+02  0.55728964244E+02  0.51100000000E-03 0.  1.
         23    2    1    0    0    0 -0.14389538746E+02  0.63646187504E+01 -0.25120953932E+02  0.95358314427E+02  0.90634312524E+02 0.  0.
         11    1    3    3    0    0 -0.26265149256E+02  0.46909414895E+01  0.29302259267E+02  0.39629350183E+02  0.51100000000E-03 0. -1.
         22    1    1    0    0    0  0.14389538746E+02 -0.63646187504E+01  0.25120953932E+02  0.29641685573E+02  0.00000000000E+00 0. -1.
</event>
<event>
 5    1  0.8952932E-005  0.9118800E+02  0.7818608E-02  0.1130116E+00
         25   -1    0    0    0    0  0.00000000000E+00  0.00000000000E+00  0.99999998245E-14  0.12500000000E+03  0.12500000000E+03 0.  0.
        -11    1    3    3    0    0 -0.35984709526E+02  0.20087188477E+02 -0.24843196690E+02  0.48120462203E+02  0.51100000000E-03 0.  1.
         23    2    1    0    0    0  0.10585993262E+02  0.52772541232E+01 -0.25387324951E+02  0.96992341537E+02  0.92860569588E+02 0.  0.
         11    1    3    3    0    0  0.46570702788E+02 -0.14809934354E+02 -0.54412826120E+00  0.48871879333E+02  0.51100000000E-03 0. -1.
         22    1    1    0    0    0 -0.10585993262E+02 -0.52772541232E+01  0.25387324951E+02  0.28007658463E+02  0.00000000000E+00 0.  1.
</event>
<event>
 5    1  0.8952932E-005  0.9118800E+02  0.7818608E-02  0.1130116E+00
         25   -1    0    0    0    0  0.00000000000E+00  0.00000000000E+00  0.99999998245E-14  0.12500000000E+03  0.12500000000E+03 0.  0.
        -11    1    3    3    0    0 -0.11026434367E+02 -0.16722651889E+02 -0.30574004599E+02  0.36551321433E+02  0.51100000000E-03 0.  1.
         23    2    1    0    0    0 -0.13097600840E+02  0.29348322277E+01  0.25596237371E+02  0.96097962779E+02  0.91648735369E+02 0.  0.
         11    1    3    3    0    0 -0.20711664732E+01  0.19657484117E+02  0.56170241970E+02  0.59546641346E+02  0.51100000000E-03 0. -1.
         22    1    1    0    0    0  0.13097600840E+02 -0.29348322277E+01 -0.25596237371E+02  0.28902037221E+02  0.00000000000E+00 0. -1.
</event>
<event>
 5    1  0.8952932E-005  0.9118800E+02  0.7818608E-02  0.1130116E+00
         25   -1    0    0    0    0  0.00000000000E+00  0.00000000000E+00  0.99999998245E-14  0.12500000000E+03  0.12500000000E+03 0.  0.
        -11    1    3    3    0    0 -0.27375580443E+02 -0.14747171977E+02 -0.35154012986E+02  0.46932996018E+02  0.51100000000E-03 0. -1.
         23    2    1    0    0    0 -0.70727643235E+01  0.24496131767E+02 -0.13834422846E+02  0.95991799052E+02  0.91503823762E+02 0.  0.
         11    1    3    3    0    0  0.20302816120E+02  0.39243303744E+02  0.21319590140E+02  0.49058803034E+02  0.51100000000E-03 0.  1.
         22    1    1    0    0    0  0.70727643235E+01 -0.24496131767E+02  0.13834422846E+02  0.29008200948E+02  0.00000000000E+00 0. -1.
</event>
<event>
 5    1  0.8952932E-005  0.9118800E+02  0.7818608E-02  0.1130116E+00
         25   -1    0    0    0    0  0.00000000000E+00  0.00000000000E+00  0.99999998245E-14  0.12500000000E+03  0.12500000000E+03 0.  0.
        -11    1    3    3    0    0  0.18028522883E+02 -0.15971247079E+02  0.30536961263E+02  0.38892343386E+02  0.51100000000E-03 0.  1.
         23    2    1    0    0    0 -0.17983772190E+02 -0.37979321435E+01 -0.17139198650E+02  0.99868496243E+02  0.96654663937E+02 0.  0.
         11    1    3    3    0    0 -0.36012295072E+02  0.12173314935E+02 -0.47676159913E+02  0.60976152857E+02  0.51100000000E-03 0. -1.
         22    1    1    0    0    0  0.17983772190E+02  0.37979321435E+01  0.17139198650E+02  0.25131503757E+02  0.00000000000E+00 0. -1.
</event>
<event>
 5    1  0.8952932E-005  0.9118800E+02  0.7818608E-02  0.1130116E+00
         25   -1    0    0    0    0  0.00000000000E+00  0.00000000000E+00  0.99999998245E-14  0.12500000000E+03  0.12500000000E+03 0.  0.
        -11    1    3    3    0    0  0.34733212893E+02 -0.25859973706E+01 -0.26852844880E+01  0.34932709791E+02  0.51100000000E-03 0.  1.
         23    2    1    0    0    0 -0.24664863392E+02 -0.63839833080E+01  0.12877143913E+02  0.96452993775E+02  0.92131690768E+02 0.  0.
         11    1    3    3    0    0 -0.59398076285E+02 -0.37979859373E+01  0.15562428401E+02  0.61520283985E+02  0.51100000000E-03 0. -1.
         22    1    1    0    0    0  0.24664863392E+02  0.63839833080E+01 -0.12877143913E+02  0.28547006225E+02  0.00000000000E+00 0. -1.
</event>
<event>
 5    1  0.8952932E-005  0.9118800E+02  0.7818608E-02  0.1130116E+00
         25   -1    0    0    0    0  0.00000000000E+00  0.00000000000E+00  0.99999998245E-14  0.12500000000E+03  0.12500000000E+03 0.  0.
        -11    1    3    3    0    0  0.32146536670E+02  0.15890019539E+02 -0.24111701482E+02  0.43211881345E+02  0.51100000000E-03 0.  1.
         23    2    1    0    0    0 -0.20715394608E+02  0.28505534201E+01 -0.16859829951E+02  0.98139115902E+02  0.94391625558E+02 0.  0.
         11    1    3    3    0    0 -0.52861931278E+02 -0.13039466119E+02  0.72518715308E+01  0.54927234557E+02  0.51100000000E-03 0. -1.
         22    1    1    0    0    0  0.20715394608E+02 -0.28505534201E+01  0.16859829951E+02  0.26860884098E+02  0.00000000000E+00 0.  1.
</event>
<event>
 5    1  0.8952932E-005  0.9118800E+02  0.7818608E-02  0.1130116E+00
         25   -1    0    0    0    0  0.00000000000E+00  0.00000000000E+00  0.99999998245E-14  0.12500000000E+03  0.12500000000E+03 0.  0.
        -11    1    3    3    0    0 -0.31462616602E+01  0.29211019084E+02 -0.23608385892E+02  0.37690031614E+02  0.51100000000E-03 0.  1.
         23    2    1    0    0    0 -0.81691312721E+01 -0.14998353782E+02  0.19109475888E+02  0.99370770776E+02  0.96008815710E+02 0.  0.
         11    1    3    3    0    0 -0.50228696120E+01 -0.44209372866E+02  0.42717861780E+02  0.61680739162E+02  0.51100000000E-03 0. -1.
         22    1    1    0    0    0  0.81691312721E+01  0.14998353782E+02 -0.19109475888E+02  0.25629229224E+02  0.00000000000E+00 0. -1.
</event>
<event>
 5    1  0.8952932E-005  0.9118800E+02  0.7818608E-02  0.1130116E+00
         25   -1    0    0    0    0  0.00000000000E+00  0.00000000000E+00  0.99999998245E-14  0.12500000000E+03  0.12500000000E+03 0.  0.
        -11    1    3    3    0    0  0.32940775717E+02 -0.66151308379E+01  0.49489903804E+02  0.59817265397E+02  0.51100000000E-03 0.  1.
         23    2    1    0    0    0  0.53166820319E+01  0.19884250910E+01  0.29438782355E+02  0.95018958512E+02  0.90165068779E+02 0.  0.
         11    1    3    3    0    0 -0.27624093685E+02  0.86035559290E+01 -0.20051121449E+02  0.35201693115E+02  0.51100000000E-03 0. -1.
         22    1    1    0    0    0 -0.53166820319E+01 -0.19884250910E+01 -0.29438782355E+02  0.29981041488E+02  0.00000000000E+00 0.  1.
</event>
<event>
 5    1  0.8952932E-005  0.9118800E+02  0.7818608E-02  0.1130116E+00
         25   -1    0    0    0    0  0.00000000000E+00  0.00000000000E+00  0.99999998245E-14  0.12500000000E+03  0.12500000000E+03 0.  0.
        -11    1    3    3    0    0 -0.32401385899E+01 -0.11331068757E+02 -0.28403034355E+02  0.30750999627E+02  0.51100000000E-03 0.  1.
         23    2    1    0    0    0 -0.84795357514E+01  0.11699932499E+02  0.28876926387E+02  0.92709632635E+02  0.86904592276E+02 0.  0.
         11    1    3    3    0    0 -0.52393971615E+01  0.23031001255E+02  0.57279960741E+02  0.61958633008E+02  0.51100000000E-03 0. -1.
         22    1    1    0    0    0  0.84795357514E+01 -0.11699932499E+02 -0.28876926387E+02  0.32290367365E+02  0.00000000000E+00 0. -1.
</event>
<event>
 5    1  0.8952932E-005  0.9118800E+02  0.7818608E-02  0.1130116E+00
         25   -1    0    0    0    0  0.00000000000E+00  0.00000000000E+00  0.99999998245E-14  0.12500000000E+03  0.12500000000E+03 0.  0.
        -11    1    3    3    0    0  0.24838655384E+02 -0.11299691506E+02 -0.29345204268E+02  0.40072220343E+02  0.51100000000E-03 0.  1.
         23    2    1    0    0    0 -0.94034268811E+01  0.26838359749E+02 -0.10052846931E+02  0.94837411872E+02  0.89913030024E+02 0.  0.
         11    1    3    3    0    0 -0.34242082265E+02  0.38138051255E+02  0.19292357337E+02  0.54765191529E+02  0.51100000000E-03 0. -1.
         22    1    1    0    0    0  0.94034268811E+01 -0.26838359749E+02  0.10052846931E+02  0.30162588128E+02  0.00000000000E+00 0.  1.
</event>
<event>
 5    1  0.8952932E-005  0.9118800E+02  0.7818608E-02  0.1130116E+00
         25   -1    0    0    0    0  0.00000000000E+00  0.00000000000E+00  0.99999998245E-14  0.12500000000E+03  0.12500000000E+03 0.  0.
        -11    1    3    3    0    0  0.25676726557E+02  0.16781356793E+02 -0.12435302623E+02  0.33099017721E+02  0.51100000000E-03 0.  1.
         23    2    1    0    0    0 -0.27032581005E+02 -0.95244085455E+01  0.76453642836E+01  0.95336446792E+02  0.90604148348E+02 0.  0.
         11    1    3    3    0    0 -0.52709307562E+02 -0.26305765338E+02  0.20080666906E+02  0.62237429071E+02  0.51100000000E-03 0. -1.
         22    1    1    0    0    0  0.27032581005E+02  0.95244085455E+01 -0.76453642836E+01  0.29663553208E+02  0.00000000000E+00 0. -1.
</event>
<event>
 5    1  0.8952932E-005  0.9118800E+02  0.7818608E-02  0.1130116E+00
         25   -1    0    0    0    0  0.00000000000E+00  0.00000000000E+00  0.99999998245E-14  0.12500000000E+03  0.12500000000E+03 0.  0.
        -11    1    3    3    0    0 -0.16469760099E+02 -0.25290607908E+02 -0.45531312078E+02  0.54625710301E+02  0.51100000000E-03 0. -1.
         23    2    1    0    0    0 -0.10013107846E+02 -0.23778181982E+02 -0.14974530990E+01  0.99156110338E+02  0.95728927626E+02 0.  0.
         11    1    3    3    0    0  0.64566522537E+01  0.15124259263E+01  0.44033858979E+02  0.44530400036E+02  0.51100000000E-03 0.  1.
         22    1    1    0    0    0  0.10013107846E+02  0.23778181982E+02  0.14974530990E+01  0.25843889662E+02  0.00000000000E+00 0. -1.
</event>
<event>
 5    1  0.8952932E-005  0.9118800E+02  0.7818608E-02  0.1130116E+00
         25   -1    0    0    0    0  0.00000000000E+00  0.00000000000E+00  0.99999998245E-14  0.12500000000E+03  0.12500000000E+03 0.  0.
        -11    1    3    3    0    0 -0.22824882982E+01  0.10624218549E+02 -0.55710194379E+02  0.56760105097E+02  0.51100000000E-03 0. -1.
         23    2    1    0    0    0  0.57869576247E+01 -0.12641547850E+02 -0.27346346467E+02  0.94322316324E+02  0.89194052947E+02 0.  0.
         11    1    3    3    0    0  0.80694459229E+01 -0.23265766399E+02  0.28363847912E+02  0.37562211227E+02  0.51100000000E-03 0.  1.
         22    1    1    0    0    0 -0.57869576247E+01  0.12641547850E+02  0.27346346467E+02  0.30677683676E+02  0.00000000000E+00 0. -1.
</event>
<event>
 5    1  0.8952932E-005  0.9118800E+02  0.7818608E-02  0.1130116E+00
         25   -1    0    0    0    0  0.00000000000E+00  0.00000000000E+00  0.99999998245E-14  0.12500000000E+03  0.12500000000E+03 0.  0.
        -11    1    3    3    0    0 -0.24034348944E+02 -0.40108567863E+02 -0.42706750564E+01  0.46953017059E+02  0.51100000000E-03 0.  1.
         23    2    1    0    0    0 -0.10576766579E+02 -0.61114745827E+01  0.27192125636E+02  0.95190105511E+02  0.90402026403E+02 0.  0.
         11    1    3    3    0    0  0.13457582365E+02  0.33997093281E+02  0.31462800693E+02  0.48237088452E+02  0.51100000000E-03 0. -1.
         22    1    1    0    0    0  0.10576766579E+02  0.61114745827E+01 -0.27192125636E+02  0.29809894489E+02  0.00000000000E+00 0. -1.
</event>
<event>
 5    1  0.8952932E-005  0.9118800E+02  0.7818608E-02  0.1130116E+00
         25   -1    0    0    0    0  0.00000000000E+00  0.00000000000E+00  0.99999998245E-14  0.12500000000E+03  0.12500000000E+03 0.  0.
        -11    1    3    3    0    0  0.24169274158E+02 -0.25937153182E+02 -0.20865491787E+01  0.35513989021E+02  0.51100000000E-03 0.  1.
         23    2    1    0    0    0 -0.18770921700E+02  0.12759593551E+02  0.17277489598E+02  0.96475162124E+02  0.92161762846E+02 0.  0.
         11    1    3    3    0    0 -0.42940195858E+02  0.38696746733E+02  0.19364038777E+02  0.60961173102E+02  0.51100000000E-03 0. -1.
         22    1    1    0    0    0  0.18770921700E+02 -0.12759593551E+02 -0.17277489598E+02  0.28524837876E+02  0.00000000000E+00 0. -1.
</event>
<event>
 5    1  0.8952932E-005  0.9118800E+02  0.7818608E-02  0.1130116E+00
         25   -1    0    0    0    0  0.00000000000E+00  0.00000000000E+00  0.99999998245E-14  0.12500000000E+03  0.12500000000E+03 0.  0.
        -11    1    3    3    0    0 -0.35832189303E+02 -0.32864890621E+02 -0.37598442835E+02  0.61462913449E+02  0.51100000000E-03 0. -1.
         23    2    1    0    0    0 -0.26994864474E+02 -0.20846037671E+02 -0.17013454183E+02  0.86885204739E+02  0.78078813930E+02 0.  0.
         11    1    3    3    0    0  0.88373248292E+01  0.12018852950E+02  0.20584988652E+02  0.25422291290E+02  0.51100000000E-03 0.  1.
         22    1    1    0    0    0  0.26994864474E+02  0.20846037671E+02  0.17013454183E+02  0.38114795261E+02  0.00000000000E+00 0. -1.
</event>
<event>
 5    1  0.8952932E-005  0.9118800E+02  0.7818608E-02  0.1130116E+00
         25   -1    0    0    0    0  0.00000000000E+00  0.00000000000E+00  0.99999998245E-14  0.12500000000E+03  0.12500000000E+03 0.  0.
        -11    1    3    3    0    0  0.56380320258E+02  0.47931959503E+01  0.55101660110E+01  0.56851360314E+02  0.51100000000E-03 0.  1.
         23    2    1    0    0    0  0.18491663141E+02  0.66243726478E+01  0.19538216489E+02  0.97295021706E+02  0.93267118678E+02 0.  0.
         11    1    3    3    0    0 -0.37888657118E+02  0.18311766975E+01  0.14028050478E+02  0.40443661392E+02  0.51100000000E-03 0. -1.
         22    1    1    0    0    0 -0.18491663141E+02 -0.66243726478E+01 -0.19538216489E+02  0.27704978294E+02  0.00000000000E+00 0.  1.
</event>
<event>
 5    1  0.8952932E-005  0.9118800E+02  0.7818608E-02  0.1130116E+00
         25   -1    0    0    0    0  0.00000000000E+00  0.00000000000E+00  0.99999998245E-14  0.12500000000E+03  0.12500000000E+03 0.  0.
        -11    1    3    3    0    0  0.33323732950E+00 -0.45043060649E+02 -0.39023128998E+02  0.59596920699E+02  0.51100000000E-03 0. -1.
         23    2    1    0    0    0 -0.77606657048E+01 -0.12087252793E+02 -0.24691490107E+02  0.96434298609E+02  0.92106322543E+02 0.  0.
         11    1    3    3    0    0 -0.80939030343E+01  0.32955807856E+02  0.14331638891E+02  0.36837377911E+02  0.51100000000E-03 0.  1.
         22    1    1    0    0    0  0.77606657048E+01  0.12087252793E+02  0.24691490107E+02  0.28565701391E+02  0.00000000000E+00 0. -1.
</event>
<event>
 5    1  0.8952932E-005  0.9118800E+02  0.7818608E-02  0.1130116E+00
         25   -1    0    0    0    0  0.00000000000E+00  0.00000000000E+00  0.99999998245E-14  0.12500000000E+03  0.12500000000E+03 0.  0.
        -11    1    3    3    0    0  0.41820234908E+02 -0.22131594063E+02 -0.77768334457E+01  0.47950168324E+02  0.51100000000E-03 0. -1.
         23    2    1    0    0    0 -0.36454495311E+01 -0.28833863277E+02  0.46721341109E+01  0.95563461296E+02  0.90916804409E+02 0.  0.
         11    1    3    3    0    0 -0.45465684439E+02 -0.67022692136E+01  0.12448967557E+02  0.47613292972E+02  0.51100000000E-03 0.  1.
         22    1    1    0    0    0  0.36454495311E+01  0.28833863277E+02 -0.46721341109E+01  0.29436538704E+02  0.00000000000E+00 0. -1.
</event>
<event>
 5    1  0.8952932E-005  0.9118800E+02  0.7818608E-02  0.1130116E+00
         25   -1    0    0    0    0  0.00000000000E+00  0.00000000000E+00  0.99999998245E-14  0.12500000000E+03  0.12500000000E+03 0.  0.
        -11    1    3    3    0    0  0.36248418051E+02  0.13496756766E+01 -0.46111452726E+02  0.58668863193E+02  0.51100000000E-03 0. -1.
         23    2    1    0    0    0  0.57692841718E+01  0.10498026434E+02 -0.26158036588E+02  0.96229597204E+02  0.91828096469E+02 0.  0.
         11    1    3    3    0    0 -0.30479133879E+02  0.91483507573E+01  0.19953416137E+02  0.37560734011E+02  0.51100000000E-03 0.  1.
         22    1    1    0    0    0 -0.57692841718E+01 -0.10498026434E+02  0.26158036588E+02  0.28770402796E+02  0.00000000000E+00 0. -1.
</event>
<event>
 5    1  0.8952932E-005  0.9118800E+02  0.7818608E-02  0.1130116E+00
         25   -1    0    0    0    0  0.00000000000E+00  0.00000000000E+00  0.99999998245E-14  0.12500000000E+03  0.12500000000E+03 0.  0.
        -11    1    3    3    0    0  0.20731877467E+02 -0.48506131721E+02 -0.13832449440E+02  0.54534321446E+02  0.51100000000E-03 0.  1.
         23    2    1    0    0    0 -0.10913371098E+02 -0.25787565354E+02 -0.14438646741E+02  0.93494846210E+02  0.88026766115E+02 0.  0.
         11    1    3    3    0    0 -0.31645248565E+02  0.22718566367E+02 -0.60619730074E+00  0.38960524764E+02  0.51100000000E-03 0. -1.
         22    1    1    0    0    0  0.10913371098E+02  0.25787565354E+02  0.14438646741E+02  0.31505153790E+02  0.00000000000E+00 0.  1.
</event>
<event>
 5    1  0.8952932E-005  0.9118800E+02  0.7818608E-02  0.1130116E+00
         25   -1    0    0    0    0  0.00000000000E+00  0.00000000000E+00  0.99999998245E-14  0.12500000000E+03  0.12500000000E+03 0.  0.
        -11    1    3    3    0    0 -0.29862828399E+02  0.36275778307E+00 -0.43740863766E+02  0.52963980934E+02  0.51100000000E-03 0. -1.
         23    2    1    0    0    0  0.14756017993E+01  0.18242653390E+02 -0.26090487445E+02  0.93130181386E+02  0.87507401667E+02 0.  0.
         11    1    3    3    0    0  0.31338430198E+02  0.17879895607E+02  0.17650376321E+02  0.40166200451E+02  0.51100000000E-03 0.  1.
         22    1    1    0    0    0 -0.14756017993E+01 -0.18242653390E+02  0.26090487445E+02  0.31869818614E+02  0.00000000000E+00 0. -1.
</event>
<event>
 5    1  0.8952932E-005  0.9118800E+02  0.7818608E-02  0.1130116E+00
         25   -1    0    0    0    0  0.00000000000E+00  0.00000000000E+00  0.99999998245E-14  0.12500000000E+03  0.12500000000E+03 0.  0.
        -11    1    3    3    0    0  0.63549260699E+01 -0.32878648494E+02 -0.31391793101E+01  0.33633986667E+02  0.51100000000E-03 0. -1.
         23    2    1    0    0    0 -0.17967364194E+02  0.23176032920E+02  0.49131296531E+01  0.95266289821E+02  0.90507306088E+02 0.  0.
         11    1    3    3    0    0 -0.24322290264E+02  0.56054681414E+02  0.80523089631E+01  0.61632303154E+02  0.51100000000E-03 0.  1.
         22    1    1    0    0    0  0.17967364194E+02 -0.23176032920E+02 -0.49131296531E+01  0.29733710179E+02  0.00000000000E+00 0.  1.
</event>
<event>
 5    1  0.8952932E-005  0.9118800E+02  0.7818608E-02  0.1130116E+00
         25   -1    0    0    0    0  0.00000000000E+00  0.00000000000E+00  0.99999998245E-14  0.12500000000E+03  0.12500000000E+03 0.  0.
        -11    1    3    3    0    0 -0.23845421882E+00 -0.31942864418E+02 -0.17755791617E+02  0.36546840956E+02  0.51100000000E-03 0.  1.
         23    2    1    0    0    0 -0.19988118987E+02  0.17196503640E+02  0.10554588218E+02  0.96598521684E+02  0.92328925159E+02 0.  0.
         11    1    3    3    0    0 -0.19749664768E+02  0.49139368059E+02  0.28310379835E+02  0.60051680728E+02  0.51100000000E-03 0. -1.
         22    1    1    0    0    0  0.19988118987E+02 -0.17196503640E+02 -0.10554588218E+02  0.28401478316E+02  0.00000000000E+00 0. -1.
</event>
<event>
 5    1  0.8952932E-005  0.9118800E+02  0.7818608E-02  0.1130116E+00
         25   -1    0    0    0    0  0.00000000000E+00  0.00000000000E+00  0.99999998245E-14  0.12500000000E+03  0.12500000000E+03 0.  0.
        -11    1    3    3    0    0 -0.56861272876E+02  0.23305876184E+02  0.10822220123E+02  0.62397825815E+02  0.51100000000E-03 0.  1.
         23    2    1    0    0    0 -0.29078290348E+02  0.10112783343E+02  0.34888425838E+01  0.94016336901E+02  0.88764205765E+02 0.  0.
         11    1    3    3    0    0  0.27782982528E+02 -0.13193092841E+02 -0.73333775395E+01  0.31618511086E+02  0.51100000000E-03 0. -1.
         22    1    1    0    0    0  0.29078290348E+02 -0.10112783343E+02 -0.34888425838E+01  0.30983663099E+02  0.00000000000E+00 0.  1.
</event>
<event>
 5    1  0.8952932E-005  0.9118800E+02  0.7818608E-02  0.1130116E+00
         25   -1    0    0    0    0  0.00000000000E+00  0.00000000000E+00  0.99999998245E-14  0.12500000000E+03  0.12500000000E+03 0.  0.
        -11    1    3    3    0    0  0.50055299221E+01 -0.29540238131E+01  0.35255118248E+02  0.35731008234E+02  0.51100000000E-03 0. -1.
         23    2    1    0    0    0 -0.19041021945E+02  0.91574616336E+01 -0.19182170166E+02  0.96462738874E+02  0.92144911518E+02 0.  0.
         11    1    3    3    0    0 -0.24046551867E+02  0.12111485447E+02 -0.54437288414E+02  0.60731730640E+02  0.51100000000E-03 0.  1.
         22    1    1    0    0    0  0.19041021945E+02 -0.91574616336E+01  0.19182170166E+02  0.28537261126E+02  0.00000000000E+00 0.  1.
</event>
<event>
 5    1  0.8952932E-005  0.9118800E+02  0.7818608E-02  0.1130116E+00
         25   -1    0    0    0    0  0.00000000000E+00  0.00000000000E+00  0.99999998245E-14  0.12500000000E+03  0.12500000000E+03 0.  0.
        -11    1    3    3    0    0 -0.10056031811E+02  0.13197420178E+02 -0.48889851040E+02  0.51628608446E+02  0.51100000000E-03 0. -1.
         23    2    1    0    0    0  0.13647587054E+02  0.22491130106E+02 -0.12938005624E+02  0.95682777154E+02  0.91080702065E+02 0.  0.
         11    1    3    3    0    0  0.23703618865E+02  0.92937099288E+01  0.35951845416E+02  0.44054168708E+02  0.51100000000E-03 0.  1.
         22    1    1    0    0    0 -0.13647587054E+02 -0.22491130106E+02  0.12938005624E+02  0.29317222846E+02  0.00000000000E+00 0. -1.
</event>
<event>
 5    1  0.8952932E-005  0.9118800E+02  0.7818608E-02  0.1130116E+00
         25   -1    0    0    0    0  0.00000000000E+00  0.00000000000E+00  0.99999998245E-14  0.12500000000E+03  0.12500000000E+03 0.  0.
        -11    1    3    3    0    0  0.59802313012E+01  0.13009696713E+02  0.34689668711E+02  0.37528502375E+02  0.51100000000E-03 0.  1.
         23    2    1    0    0    0  0.15044982280E+02  0.98327796967E+01 -0.22886113746E+02  0.95900012873E+02  0.91378352023E+02 0.  0.
         11    1    3    3    0    0  0.90647509788E+01 -0.31769170161E+01 -0.57575782457E+02  0.58371510498E+02  0.51100000000E-03 0. -1.
         22    1    1    0    0    0 -0.15044982280E+02 -0.98327796967E+01  0.22886113746E+02  0.29099987127E+02  0.00000000000E+00 0. -1.
</event>
<event>
 5    1  0.8952932E-005  0.9118800E+02  0.7818608E-02  0.1130116E+00
         25   -1    0    0    0    0  0.00000000000E+00  0.00000000000E+00  0.99999998245E-14  0.12500000000E+03  0.12500000000E+03 0.  0.
        -11    1    3    3    0    0  0.27155246537E+02  0.28751282474E+02  0.39758365762E+01  0.39747338718E+02  0.51100000000E-03 0. -1.
         23    2    1    0    0    0 -0.25179152591E+02  0.13148189441E+02 -0.76512139209E+01  0.95582221612E+02  0.90942593998E+02 0.  0.
         11    1    3    3    0    0 -0.52334399128E+02 -0.15603093033E+02 -0.11627050497E+02  0.55834882894E+02  0.51100000000E-03 0.  1.
         22    1    1    0    0    0  0.25179152591E+02 -0.13148189441E+02  0.76512139209E+01  0.29417778388E+02  0.00000000000E+00 0.  1.
</event>
<event>
 5    1  0.8952932E-005  0.9118800E+02  0.7818608E-02  0.1130116E+00
         25   -1    0    0    0    0  0.00000000000E+00  0.00000000000E+00  0.99999998245E-14  0.12500000000E+03  0.12500000000E+03 0.  0.
        -11    1    3    3    0    0 -0.30757925410E+02  0.17043355795E+02 -0.16376894490E+02  0.38790831722E+02  0.51100000000E-03 0.  1.
         23    2    1    0    0    0  0.14962310250E+02  0.32716923201E+02 -0.32288992014E+01  0.88879457620E+02  0.81208770493E+02 0.  0.
         11    1    3    3    0    0  0.45720235660E+02  0.15673567406E+02  0.13147995288E+02  0.50088625898E+02  0.51100000000E-03 0. -1.
         22    1    1    0    0    0 -0.14962310250E+02 -0.32716923201E+02  0.32288992014E+01  0.36120542380E+02  0.00000000000E+00 0. -1.
</event>
<event>
 5    1  0.8952932E-005  0.9118800E+02  0.7818608E-02  0.1130116E+00
         25   -1    0    0    0    0  0.00000000000E+00  0.00000000000E+00  0.99999998245E-14  0.12500000000E+03  0.12500000000E+03 0.  0.
        -11    1    3    3    0    0  0.46714073129E+02  0.15657029857E+02  0.21914484170E+02  0.53922090361E+02  0.51100000000E-03 0. -1.
         23    2    1    0    0    0  0.16437745832E+02  0.20569769160E+02 -0.87104278145E+01  0.97265789284E+02  0.93227932086E+02 0.  0.
         11    1    3    3    0    0 -0.30276327296E+02  0.49127393024E+01 -0.30624911984E+02  0.43343698923E+02  0.51100000000E-03 0.  1.
         22    1    1    0    0    0 -0.16437745832E+02 -0.20569769160E+02  0.87104278145E+01  0.27734210716E+02  0.00000000000E+00 0. -1.
</event>
<event>
 5    1  0.8952932E-005  0.9118800E+02  0.7818608E-02  0.1130116E+00
         25   -1    0    0    0    0  0.00000000000E+00  0.00000000000E+00  0.99999998245E-14  0.12500000000E+03  0.12500000000E+03 0.  0.
        -11    1    3    3    0    0 -0.15435826626E+02 -0.54755287080E+02 -0.50155477840E+01  0.57110086033E+02  0.51100000000E-03 0.  1.
         23    2    1    0    0    0 -0.20424982277E+02 -0.18583486893E+02 -0.12987447656E+02  0.94484435402E+02  0.89420964267E+02 0.  0.
         11    1    3    3    0    0 -0.49891556513E+01  0.36171800187E+02 -0.79718998719E+01  0.37374349369E+02  0.51100000000E-03 0. -1.
         22    1    1    0    0    0  0.20424982277E+02  0.18583486893E+02  0.12987447656E+02  0.30515564598E+02  0.00000000000E+00 0.  1.
</event>
<event>
 5    1  0.8952932E-005  0.9118800E+02  0.7818608E-02  0.1130116E+00
         25   -1    0    0    0    0  0.00000000000E+00  0.00000000000E+00  0.99999998245E-14  0.12500000000E+03  0.12500000000E+03 0.  0.
        -11    1    3    3    0    0  0.31029163959E+01  0.32051769983E+02 -0.26775975005E+02  0.41879552134E+02  0.51100000000E-03 0.  1.
         23    2    1    0    0    0  0.27313596096E+02 -0.82697948733E+01  0.89559364630E+00  0.96447870011E+02  0.92124738821E+02 0.  0.
         11    1    3    3    0    0  0.24210679700E+02 -0.40321564857E+02  0.27671568651E+02  0.54568317877E+02  0.51100000000E-03 0. -1.
         22    1    1    0    0    0 -0.27313596096E+02  0.82697948733E+01 -0.89559364630E+00  0.28552129989E+02  0.00000000000E+00 0.  1.
</event>
<event>
 5    1  0.8952932E-005  0.9118800E+02  0.7818608E-02  0.1130116E+00
         25   -1    0    0    0    0  0.00000000000E+00  0.00000000000E+00  0.99999998245E-14  0.12500000000E+03  0.12500000000E+03 0.  0.
        -11    1    3    3    0    0  0.16945262030E+02  0.69211709900E+01 -0.53898745492E+02  0.56922045633E+02  0.51100000000E-03 0. -1.
         23    2    1    0    0    0 -0.10275154140E+02  0.81729223771E+01 -0.25730233257E+02  0.96113664887E+02  0.91670149022E+02 0.  0.
         11    1    3    3    0    0 -0.27220416170E+02  0.12517513871E+01  0.28168512235E+02  0.39191619254E+02  0.51100000000E-03 0.  1.
         22    1    1    0    0    0  0.10275154140E+02 -0.81729223771E+01  0.25730233257E+02  0.28886335113E+02  0.00000000000E+00 0. -1.
</event>
<event>
 5    1  0.8952932E-005  0.9118800E+02  0.7818608E-02  0.1130116E+00
         25   -1    0    0    0    0  0.00000000000E+00  0.00000000000E+00  0.99999998245E-14  0.12500000000E+03  0.12500000000E+03 0.  0.
        -11    1    3    3    0    0  0.48634311881E+02 -0.35236701844E+01  0.51496235849E+01  0.49032960007E+02  0.51100000000E-03 0. -1.
         23    2    1    0    0    0  0.15878920691E+02  0.25994959972E+02 -0.46047736106E+01  0.94192825409E+02  0.89012394375E+02 0.  0.
         11    1    3    3    0    0 -0.32755391190E+02  0.29518630156E+02 -0.97543971955E+01  0.45159865403E+02  0.51100000000E-03 0.  1.
         22    1    1    0    0    0 -0.15878920691E+02 -0.25994959972E+02  0.46047736106E+01  0.30807174591E+02  0.00000000000E+00 0. -1.
</event>
<event>
 5    1  0.8952932E-005  0.9118800E+02  0.7818608E-02  0.1130116E+00
         25   -1    0    0    0    0  0.00000000000E+00  0.00000000000E+00  0.99999998245E-14  0.12500000000E+03  0.12500000000E+03 0.  0.
        -11    1    3    3    0    0  0.30847580584E+02  0.21390289810E+02  0.49827884586E+01  0.37867478225E+02  0.51100000000E-03 0. -1.
         23    2    1    0    0    0 -0.96811123901E+01 -0.11722926539E+02 -0.23163977756E+02  0.97292224751E+02  0.93263370022E+02 0.  0.
         11    1    3    3    0    0 -0.40528692974E+02 -0.33113216349E+02 -0.28146766215E+02  0.59424746526E+02  0.51100000000E-03 0.  1.
         22    1    1    0    0    0  0.96811123901E+01  0.11722926539E+02  0.23163977756E+02  0.27707775249E+02  0.00000000000E+00 0.  1.
</event>
<event>
 5    1  0.8952932E-005  0.9118800E+02  0.7818608E-02  0.1130116E+00
         25   -1    0    0    0    0  0.00000000000E+00  0.00000000000E+00  0.99999998245E-14  0.12500000000E+03  0.12500000000E+03 0.  0.
        -11    1    3    3    0    0  0.15403061172E+02 -0.26734057498E+02  0.12395784057E+02  0.33250858431E+02  0.51100000000E-03 0.  1.
         23    2    1    0    0    0 -0.21478055808E+02  0.20220944050E+02 -0.41548009844E+01  0.95209803109E+02  0.90429258413E+02 0.  0.
         11    1    3    3    0    0 -0.36881116980E+02  0.46955001548E+02 -0.16550585041E+02  0.61958944678E+02  0.51100000000E-03 0. -1.
         22    1    1    0    0    0  0.21478055808E+02 -0.20220944050E+02  0.41548009844E+01  0.29790196891E+02  0.00000000000E+00 0. -1.
</event>
<event>
 5    1  0.8952932E-005  0.9118800E+02  0.7818608E-02  0.1130116E+00
         25   -1    0    0    0    0  0.00000000000E+00  0.00000000000E+00  0.99999998245E-14  0.12500000000E+03  0.12500000000E+03 0.  0.
        -11    1    3    3    0    0  0.24870479911E+02  0.29902786375E+02 -0.58732345084E+01  0.39334619457E+02  0.51100000000E-03 0.  1.
         23    2    1    0    0    0 -0.18507561026E+02  0.53801332054E+01  0.21449135994E+02  0.96163545930E+02  0.91738140828E+02 0.  0.
         11    1    3    3    0    0 -0.43378040937E+02 -0.24522653169E+02  0.27322370502E+02  0.56828926473E+02  0.51100000000E-03 0. -1.
         22    1    1    0    0    0  0.18507561026E+02 -0.53801332054E+01 -0.21449135994E+02  0.28836454070E+02  0.00000000000E+00 0. -1.
</event>
<event>
 5    1  0.8952932E-005  0.9118800E+02  0.7818608E-02  0.1130116E+00
         25   -1    0    0    0    0  0.00000000000E+00  0.00000000000E+00  0.99999998245E-14  0.12500000000E+03  0.12500000000E+03 0.  0.
        -11    1    3    3    0    0  0.53348586826E+01 -0.51452018939E+02  0.30328829464E+02  0.59963396060E+02  0.51100000000E-03 0.  1.
         23    2    1    0    0    0  0.77931417255E+01 -0.16448101730E+02  0.22754513826E+02  0.95861691746E+02  0.91325916017E+02 0.  0.
         11    1    3    3    0    0  0.24582830429E+01  0.35003917209E+02 -0.75743156384E+01  0.35898295686E+02  0.51100000000E-03 0. -1.
         22    1    1    0    0    0 -0.77931417255E+01  0.16448101730E+02 -0.22754513826E+02  0.29138308254E+02  0.00000000000E+00 0.  1.
</event>
<event>
 5    1  0.8952932E-005  0.9118800E+02  0.7818608E-02  0.1130116E+00
         25   -1    0    0    0    0  0.00000000000E+00  0.00000000000E+00  0.99999998245E-14  0.12500000000E+03  0.12500000000E+03 0.  0.
        -11    1    3    3    0    0 -0.88158795034E+01  0.53929212681E+02 -0.11152263819E+01  0.54656412633E+02  0.51100000000E-03 0.  1.
         23    2    1    0    0    0 -0.20437888739E+02  0.16705074666E+02  0.12277139632E+02  0.95888233080E+02  0.91362236564E+02 0.  0.
         11    1    3    3    0    0 -0.11622009235E+02 -0.37224138015E+02  0.13392366014E+02  0.41231820447E+02  0.51100000000E-03 0. -1.
         22    1    1    0    0    0  0.20437888739E+02 -0.16705074666E+02 -0.12277139632E+02  0.29111766920E+02  0.00000000000E+00 0.  1.
</event>
<event>
 5    1  0.8952932E-005  0.9118800E+02  0.7818608E-02  0.1130116E+00
         25   -1    0    0    0    0  0.00000000000E+00  0.00000000000E+00  0.99999998245E-14  0.12500000000E+03  0.12500000000E+03 0.  0.
        -11    1    3    3    0    0 -0.76368864482E+01 -0.18836756007E+02  0.32165211074E+02  0.38049260377E+02  0.51100000000E-03 0. -1.
         23    2    1    0    0    0 -0.60128779375E+01 -0.12649712788E+02 -0.25413657673E+02  0.95982351386E+02  0.91490916744E+02 0.  0.
         11    1    3    3    0    0  0.16240085107E+01  0.61870432187E+01 -0.57578868748E+02  0.57933091010E+02  0.51100000000E-03 0.  1.
         22    1    1    0    0    0  0.60128779375E+01  0.12649712788E+02  0.25413657673E+02  0.29017648614E+02  0.00000000000E+00 0.  1.
</event>
<event>
 5    1  0.8952932E-005  0.9118800E+02  0.7818608E-02  0.1130116E+00
         25   -1    0    0    0    0  0.00000000000E+00  0.00000000000E+00  0.99999998245E-14  0.12500000000E+03  0.12500000000E+03 0.  0.
        -11    1    3    3    0    0  0.29094817953E+02 -0.25863409948E+01 -0.11749139355E+02  0.31483962065E+02  0.51100000000E-03 0. -1.
         23    2    1    0    0    0 -0.29083365227E+02  0.10610691356E+02  0.54399305979E+01  0.93567186749E+02  0.88129431447E+02 0.  0.
         11    1    3    3    0    0 -0.58178183180E+02  0.13197032351E+02  0.17189069953E+02  0.62083224684E+02  0.51100000000E-03 0.  1.
         22    1    1    0    0    0  0.29083365227E+02 -0.10610691356E+02 -0.54399305979E+01  0.31432813251E+02  0.00000000000E+00 0.  1.
</event>
<event>
 5    1  0.8952932E-005  0.9118800E+02  0.7818608E-02  0.1130116E+00
         25   -1    0    0    0    0  0.00000000000E+00  0.00000000000E+00  0.99999998245E-14  0.12500000000E+03  0.12500000000E+03 0.  0.
        -11    1    3    3    0    0  0.21500806350E+02  0.38264715590E+02 -0.61312929087E+00  0.43895888881E+02  0.51100000000E-03 0. -1.
         23    2    1    0    0    0 -0.52824536061E+01  0.59968142046E+00  0.26831270843E+02  0.97647102001E+02  0.93737801874E+02 0.  0.
         11    1    3    3    0    0 -0.26783259956E+02 -0.37665034169E+02  0.27444400134E+02  0.53751213120E+02  0.51100000000E-03 0.  1.
         22    1    1    0    0    0  0.52824536061E+01 -0.59968142046E+00 -0.26831270843E+02  0.27352897999E+02  0.00000000000E+00 0.  1.
</event>
<event>
 5    1  0.8952932E-005  0.9118800E+02  0.7818608E-02  0.1130116E+00
         25   -1    0    0    0    0  0.00000000000E+00  0.00000000000E+00  0.99999998245E-14  0.12500000000E+03  0.12500000000E+03 0.  0.
        -11    1    3    3    0    0  0.57238542283E+01  0.28944749111E+02 -0.26329928307E+02  0.39545241600E+02  0.51100000000E-03 0. -1.
         23    2    1    0    0    0  0.27043788374E+02 -0.32960107085E+01  0.13108456142E+02  0.94766545043E+02  0.89814454631E+02 0.  0.
         11    1    3    3    0    0  0.21319934146E+02 -0.32240759819E+02  0.39438384449E+02  0.55221303443E+02  0.51100000000E-03 0.  1.
         22    1    1    0    0    0 -0.27043788374E+02  0.32960107085E+01 -0.13108456142E+02  0.30233454957E+02  0.00000000000E+00 0.  1.
</event>
<event>
 5    1  0.8952932E-005  0.9118800E+02  0.7818608E-02  0.1130116E+00
         25   -1    0    0    0    0  0.00000000000E+00  0.00000000000E+00  0.99999998245E-14  0.12500000000E+03  0.12500000000E+03 0.  0.
        -11    1    3    3    0    0 -0.41316685044E+00 -0.55121751869E+02  0.20104260354E+02  0.58675033197E+02  0.51100000000E-03 0. -1.
         23    2    1    0    0    0 -0.14831881415E+02 -0.24567173225E+02  0.42716766904E+01  0.95986590543E+02  0.91496708333E+02 0.  0.
         11    1    3    3    0    0 -0.14418714565E+02  0.30554578645E+02 -0.15832583664E+02  0.37311557346E+02  0.51100000000E-03 0.  1.
         22    1    1    0    0    0  0.14831881415E+02  0.24567173225E+02 -0.42716766904E+01  0.29013409457E+02  0.00000000000E+00 0. -1.
</event>
<event>
 5    1  0.8952932E-005  0.9118800E+02  0.7818608E-02  0.1130116E+00
         25   -1    0    0    0    0  0.00000000000E+00  0.00000000000E+00  0.99999998245E-14  0.12500000000E+03  0.12500000000E+03 0.  0.
        -11    1    3    3    0    0 -0.18682804605E+02 -0.12600863237E+01 -0.47617544675E+02  0.51167035937E+02  0.51100000000E-03 0.  1.
         23    2    1    0    0    0 -0.38240984954E+01 -0.25876086188E+02 -0.14252598322E+02  0.95211879472E+02  0.90432128516E+02 0.  0.
         11    1    3    3    0    0  0.14858706110E+02 -0.24615999864E+02  0.33364946353E+02  0.44044843535E+02  0.51100000000E-03 0. -1.
         22    1    1    0    0    0  0.38240984954E+01  0.25876086188E+02  0.14252598322E+02  0.29788120528E+02  0.00000000000E+00 0.  1.
</event>
<event>
 5    1  0.8952932E-005  0.9118800E+02  0.7818608E-02  0.1130116E+00
         25   -1    0    0    0    0  0.00000000000E+00  0.00000000000E+00  0.99999998245E-14  0.12500000000E+03  0.12500000000E+03 0.  0.
        -11    1    3    3    0    0 -0.27001527733E+01 -0.19107765306E+02  0.27704759467E+02  0.33763163616E+02  0.51100000000E-03 0. -1.
         23    2    1    0    0    0  0.20456652656E+02  0.24753128242E+02 -0.40158151958E+01  0.92637695272E+02  0.86801058853E+02 0.  0.
         11    1    3    3    0    0  0.23156805429E+02  0.43860893548E+02 -0.31720574663E+02  0.58874531656E+02  0.51100000000E-03 0.  1.
         22    1    1    0    0    0 -0.20456652656E+02 -0.24753128242E+02  0.40158151958E+01  0.32362304728E+02  0.00000000000E+00 0.  1.
</event>
<event>
 5    1  0.8952932E-005  0.9118800E+02  0.7818608E-02  0.1130116E+00
         25   -1    0    0    0    0  0.00000000000E+00  0.00000000000E+00  0.99999998245E-14  0.12500000000E+03  0.12500000000E+03 0.  0.
        -11    1    3    3    0    0  0.21782415908E+02  0.13537015930E+02 -0.30876817411E+02  0.40138538798E+02  0.51100000000E-03 0.  1.
         23    2    1    0    0    0  0.41046031379E+02 -0.63330774168E+01  0.23749912867E+01  0.83400418930E+02  0.72284885921E+02 0.  0.
         11    1    3    3    0    0  0.19263615471E+02 -0.19870093347E+02  0.33251808698E+02  0.43261880133E+02  0.51100000000E-03 0. -1.
         22    1    1    0    0    0 -0.41046031379E+02  0.63330774168E+01 -0.23749912867E+01  0.41599581070E+02  0.00000000000E+00 0.  1.
</event>
<event>
 5    1  0.8952932E-005  0.9118800E+02  0.7818608E-02  0.1130116E+00
         25   -1    0    0    0    0  0.00000000000E+00  0.00000000000E+00  0.99999998245E-14  0.12500000000E+03  0.12500000000E+03 0.  0.
        -11    1    3    3    0    0 -0.41941342986E+02 -0.19882617882E+02 -0.11738500841E+02  0.47876791325E+02  0.51100000000E-03 0.  1.
         23    2    1    0    0    0 -0.30128595032E+02  0.16122377949E+02 -0.18148667951E+02  0.86308431697E+02  0.77149905536E+02 0.  0.
         11    1    3    3    0    0  0.11812747953E+02  0.36004995832E+02 -0.64101671103E+01  0.38431640372E+02  0.51100000000E-03 0. -1.
         22    1    1    0    0    0  0.30128595032E+02 -0.16122377949E+02  0.18148667951E+02  0.38691568303E+02  0.00000000000E+00 0. -1.
</event>
<event>
 5    1  0.8952932E-005  0.9118800E+02  0.7818608E-02  0.1130116E+00
         25   -1    0    0    0    0  0.00000000000E+00  0.00000000000E+00  0.99999998245E-14  0.12500000000E+03  0.12500000000E+03 0.  0.
        -11    1    3    3    0    0  0.11301974717E+02  0.73005712161E+01 -0.30710785109E+02  0.33528872556E+02  0.51100000000E-03 0.  1.
         23    2    1    0    0    0 -0.10591448147E+02 -0.22768455447E+02  0.17479567135E+02  0.94403977309E+02  0.89308422488E+02 0.  0.
         11    1    3    3    0    0 -0.21893422864E+02 -0.30069026663E+02  0.48190352244E+02  0.60875104754E+02  0.51100000000E-03 0. -1.
         22    1    1    0    0    0  0.10591448147E+02  0.22768455447E+02 -0.17479567135E+02  0.30596022691E+02  0.00000000000E+00 0. -1.
</event>
<event>
 5    1  0.8952932E-005  0.9118800E+02  0.7818608E-02  0.1130116E+00
         25   -1    0    0    0    0  0.00000000000E+00  0.00000000000E+00  0.99999998245E-14  0.12500000000E+03  0.12500000000E+03 0.  0.
        -11    1    3    3    0    0 -0.18954755754E+02  0.46941932929E+02  0.23739647968E+02  0.55914208558E+02  0.51100000000E-03 0.  1.
         23    2    1    0    0    0  0.11089803653E+02  0.25814572116E+02  0.88976137597E+01  0.95528939462E+02  0.90869328519E+02 0.  0.
         11    1    3    3    0    0  0.30044559407E+02 -0.21127360813E+02 -0.14842034208E+02  0.39614730904E+02  0.51100000000E-03 0. -1.
         22    1    1    0    0    0 -0.11089803653E+02 -0.25814572116E+02 -0.88976137597E+01  0.29471060538E+02  0.00000000000E+00 0.  1.
</event>
<event>
 5    1  0.8952932E-005  0.9118800E+02  0.7818608E-02  0.1130116E+00
         25   -1    0    0    0    0  0.00000000000E+00  0.00000000000E+00  0.99999998245E-14  0.12500000000E+03  0.12500000000E+03 0.  0.
        -11    1    3    3    0    0  0.45389082010E+02 -0.16761090311E+02  0.27191573975E+02  0.55502113560E+02  0.51100000000E-03 0. -1.
         23    2    1    0    0    0  0.60756537474E+01 -0.18896384266E+02  0.22251092547E+02  0.95182253165E+02  0.90391168215E+02 0.  0.
         11    1    3    3    0    0 -0.39313428263E+02 -0.21352939551E+01 -0.49404814286E+01  0.39680139605E+02  0.51100000000E-03 0.  1.
         22    1    1    0    0    0 -0.60756537474E+01  0.18896384266E+02 -0.22251092547E+02  0.29817746835E+02  0.00000000000E+00 0. -1.
</event>
<event>
 5    1  0.8952932E-005  0.9118800E+02  0.7818608E-02  0.1130116E+00
         25   -1    0    0    0    0  0.00000000000E+00  0.00000000000E+00  0.99999998245E-14  0.12500000000E+03  0.12500000000E+03 0.  0.
        -11    1    3    3    0    0 -0.20913589843E+02  0.56350562643E+01 -0.39919740514E+02  0.45417152951E+02  0.51100000000E-03 0. -1.
         23    2    1    0    0    0 -0.20709967823E+02 -0.22325943776E+02  0.47305376623E+00  0.94543895315E+02  0.89504043644E+02 0.  0.
         11    1    3    3    0    0  0.20362201985E+00 -0.27961000041E+02  0.40392794280E+02  0.49126742363E+02  0.51100000000E-03 0.  1.
         22    1    1    0    0    0  0.20709967823E+02  0.22325943776E+02 -0.47305376623E+00  0.30456104685E+02  0.00000000000E+00 0.  1.
</event>
<event>
 5    1  0.8952932E-005  0.9118800E+02  0.7818608E-02  0.1130116E+00
         25   -1    0    0    0    0  0.00000000000E+00  0.00000000000E+00  0.99999998245E-14  0.12500000000E+03  0.12500000000E+03 0.  0.
        -11    1    3    3    0    0  0.10958479071E+02 -0.44698976264E+02  0.25831741195E+01  0.46095113964E+02  0.51100000000E-03 0.  1.
         23    2    1    0    0    0  0.19741864474E+02  0.69440016787E+01  0.14145103334E+02  0.99740460801E+02  0.96488938228E+02 0.  0.
         11    1    3    3    0    0  0.87833854028E+01  0.51642977942E+02  0.11561929214E+02  0.53645346837E+02  0.51100000000E-03 0. -1.
         22    1    1    0    0    0 -0.19741864474E+02 -0.69440016787E+01 -0.14145103334E+02  0.25259539199E+02  0.00000000000E+00 0. -1.
</event>
<event>
 5    1  0.8952932E-005  0.9118800E+02  0.7818608E-02  0.1130116E+00
         25   -1    0    0    0    0  0.00000000000E+00  0.00000000000E+00  0.99999998245E-14  0.12500000000E+03  0.12500000000E+03 0.  0.
        -11    1    3    3    0    0  0.30510505334E+02  0.97120603782E+01  0.15801293849E+02  0.35705684982E+02  0.51100000000E-03 0. -1.
         23    2    1    0    0    0 -0.24372475875E+02 -0.13591970216E+02  0.87898297266E+01  0.95742174701E+02  0.91162183361E+02 0.  0.
         11    1    3    3    0    0 -0.54882981208E+02 -0.23304030594E+02 -0.70114641223E+01  0.60036489718E+02  0.51100000000E-03 0.  1.
         22    1    1    0    0    0  0.24372475875E+02  0.13591970216E+02 -0.87898297266E+01  0.29257825299E+02  0.00000000000E+00 0.  1.
</event>
<event>
 5    1  0.8952932E-005  0.9118800E+02  0.7818608E-02  0.1130116E+00
         25   -1    0    0    0    0  0.00000000000E+00  0.00000000000E+00  0.99999998245E-14  0.12500000000E+03  0.12500000000E+03 0.  0.
        -11    1    3    3    0    0  0.90921505142E+01 -0.91471651397E+01 -0.36844956080E+02  0.39037016021E+02  0.51100000000E-03 0. -1.
         23    2    1    0    0    0  0.35727037390E+01 -0.24823859403E+02  0.16545399690E+02  0.94954393689E+02  0.90075515110E+02 0.  0.
         11    1    3    3    0    0 -0.55194467752E+01 -0.15676694263E+02  0.53390355770E+02  0.55917377668E+02  0.51100000000E-03 0.  1.
         22    1    1    0    0    0 -0.35727037390E+01  0.24823859403E+02 -0.16545399690E+02  0.30045606311E+02  0.00000000000E+00 0.  1.
</event>
<event>
 5    1  0.8952932E-005  0.9118800E+02  0.7818608E-02  0.1130116E+00
         25   -1    0    0    0    0  0.00000000000E+00  0.00000000000E+00  0.99999998245E-14  0.12500000000E+03  0.12500000000E+03 0.  0.
        -11    1    3    3    0    0 -0.11171107377E+02  0.30733184756E+02  0.53242794700E+01  0.33131106794E+02  0.51100000000E-03 0. -1.
         23    2    1    0    0    0  0.16142754516E+02 -0.23085163807E+02 -0.94891850795E+01  0.95275297397E+02  0.90519745632E+02 0.  0.
         11    1    3    3    0    0  0.27313861893E+02 -0.53818348562E+02 -0.14813464549E+02  0.62144190603E+02  0.51100000000E-03 0.  1.
         22    1    1    0    0    0 -0.16142754516E+02  0.23085163807E+02  0.94891850795E+01  0.29724702603E+02  0.00000000000E+00 0.  1.
</event>
<event>
 5    1  0.8952932E-005  0.9118800E+02  0.7818608E-02  0.1130116E+00
         25   -1    0    0    0    0  0.00000000000E+00  0.00000000000E+00  0.99999998245E-14  0.12500000000E+03  0.12500000000E+03 0.  0.
        -11    1    3    3    0    0 -0.20339140821E+02 -0.36841463674E+01 -0.37850473601E+02  0.43126696325E+02  0.51100000000E-03 0. -1.
         23    2    1    0    0    0  0.24160185724E+02  0.86388508311E+01 -0.79426515591E+01  0.98140550421E+02  0.94393525229E+02 0.  0.
         11    1    3    3    0    0  0.44499326545E+02  0.12322997198E+02  0.29907822042E+02  0.55013854096E+02  0.51100000000E-03 0.  1.
         22    1    1    0    0    0 -0.24160185724E+02 -0.86388508311E+01  0.79426515591E+01  0.26859449579E+02  0.00000000000E+00 0. -1.
</event>
<event>
 5    1  0.8952932E-005  0.9118800E+02  0.7818608E-02  0.1130116E+00
         25   -1    0    0    0    0  0.00000000000E+00  0.00000000000E+00  0.99999998245E-14  0.12500000000E+03  0.12500000000E+03 0.  0.
        -11    1    3    3    0    0 -0.20028437865E+02 -0.35958685235E+02 -0.12920881029E+02  0.43140636689E+02  0.51100000000E-03 0.  1.
         23    2    1    0    0    0  0.67293522018E+01  0.68592153957E+01 -0.27643182981E+02  0.95734344665E+02  0.91151446320E+02 0.  0.
         11    1    3    3    0    0  0.26757790066E+02  0.42817900630E+02 -0.14722301951E+02  0.52593707976E+02  0.51100000000E-03 0. -1.
         22    1    1    0    0    0 -0.67293522018E+01 -0.68592153957E+01  0.27643182981E+02  0.29265655335E+02  0.00000000000E+00 0. -1.
</event>
<event>
 5    1  0.8952932E-005  0.9118800E+02  0.7818608E-02  0.1130116E+00
         25   -1    0    0    0    0  0.00000000000E+00  0.00000000000E+00  0.99999998245E-14  0.12500000000E+03  0.12500000000E+03 0.  0.
        -11    1    3    3    0    0  0.51593757447E+01 -0.28156445774E+02 -0.34634731172E+02  0.44932941149E+02  0.51100000000E-03 0. -1.
         23    2    1    0    0    0 -0.20966942082E+02 -0.15944225489E+02  0.89370735141E+01  0.97184495876E+02  0.93118870101E+02 0.  0.
         11    1    3    3    0    0 -0.26126317827E+02  0.12212220285E+02  0.43571804686E+02  0.52251554726E+02  0.51100000000E-03 0.  1.
         22    1    1    0    0    0  0.20966942082E+02  0.15944225489E+02 -0.89370735141E+01  0.27815504124E+02  0.00000000000E+00 0.  1.
</event>
<event>
 5    1  0.8952932E-005  0.9118800E+02  0.7818608E-02  0.1130116E+00
         25   -1    0    0    0    0  0.00000000000E+00  0.00000000000E+00  0.99999998245E-14  0.12500000000E+03  0.12500000000E+03 0.  0.
        -11    1    3    3    0    0  0.10685572791E+02  0.80822061202E+01  0.34819885162E+02  0.37308550288E+02  0.51100000000E-03 0. -1.
         23    2    1    0    0    0  0.17479381878E+02 -0.73385760362E+01 -0.21640713299E+02  0.96230155350E+02  0.91828856236E+02 0.  0.
         11    1    3    3    0    0  0.67938090873E+01 -0.15420782156E+02 -0.56460598461E+02  0.58921605062E+02  0.51100000000E-03 0.  1.
         22    1    1    0    0    0 -0.17479381878E+02  0.73385760362E+01  0.21640713299E+02  0.28769844650E+02  0.00000000000E+00 0.  1.
</event>
<event>
 5    1  0.8952932E-005  0.9118800E+02  0.7818608E-02  0.1130116E+00
         25   -1    0    0    0    0  0.00000000000E+00  0.00000000000E+00  0.99999998245E-14  0.12500000000E+03  0.12500000000E+03 0.  0.
        -11    1    3    3    0    0  0.40027089128E+02 -0.27823198517E+01  0.18465737295E+02  0.44168910129E+02  0.51100000000E-03 0.  1.
         23    2    1    0    0    0 -0.10500822084E+01 -0.22045374699E+02 -0.13003217895E+02  0.99383893857E+02  0.96025899966E+02 0.  0.
         11    1    3    3    0    0 -0.41077171337E+02 -0.19263054848E+02 -0.31468955191E+02  0.55214983729E+02  0.51100000000E-03 0. -1.
         22    1    1    0    0    0  0.10500822084E+01  0.22045374699E+02  0.13003217895E+02  0.25616106143E+02  0.00000000000E+00 0. -1.
</event>
<event>
 5    1  0.8952932E-005  0.9118800E+02  0.7818608E-02  0.1130116E+00
         25   -1    0    0    0    0  0.00000000000E+00  0.00000000000E+00  0.99999998245E-14  0.12500000000E+03  0.12500000000E+03 0.  0.
        -11    1    3    3    0    0 -0.23553684701E+02  0.14963865314E+02  0.15894040377E+00  0.27905529747E+02  0.51100000000E-03 0. -1.
         23    2    1    0    0    0  0.33333521900E+01 -0.31357086773E+02 -0.22707256763E+02  0.86141311944E+02  0.76878657546E+02 0.  0.
         11    1    3    3    0    0  0.26887036891E+02 -0.46320952087E+02 -0.22866197167E+02  0.58235782197E+02  0.51100000000E-03 0.  1.
         22    1    1    0    0    0 -0.33333521900E+01  0.31357086773E+02  0.22707256763E+02  0.38858688056E+02  0.00000000000E+00 0.  1.
</event>
<event>
 5    1  0.8952932E-005  0.9118800E+02  0.7818608E-02  0.1130116E+00
         25   -1    0    0    0    0  0.00000000000E+00  0.00000000000E+00  0.99999998245E-14  0.12500000000E+03  0.12500000000E+03 0.  0.
        -11    1    3    3    0    0 -0.62616422232E+01  0.25298097436E+02  0.19574474763E+02  0.32593894516E+02  0.51100000000E-03 0. -1.
         23    2    1    0    0    0  0.39422652499E+00 -0.28856545107E+02 -0.97515529728E+01  0.94537754590E+02  0.89495467189E+02 0.  0.
         11    1    3    3    0    0  0.66558687482E+01 -0.54154642543E+02 -0.29326027736E+02  0.61943860073E+02  0.51100000000E-03 0.  1.
         22    1    1    0    0    0 -0.39422652499E+00  0.28856545107E+02  0.97515529728E+01  0.30462245410E+02  0.00000000000E+00 0.  1.
</event>
<event>
 5    1  0.8952932E-005  0.9118800E+02  0.7818608E-02  0.1130116E+00
         25   -1    0    0    0    0  0.00000000000E+00  0.00000000000E+00  0.99999998245E-14  0.12500000000E+03  0.12500000000E+03 0.  0.
        -11    1    3    3    0    0  0.17393385593E+02 -0.14491549946E+02  0.41719490510E+02  0.47466311958E+02  0.51100000000E-03 0. -1.
         23    2    1    0    0    0  0.85203381278E+01  0.24070355646E+02  0.13094034400E+02  0.96304496526E+02  0.91929995820E+02 0.  0.
         11    1    3    3    0    0 -0.88730474651E+01  0.38561905592E+02 -0.28625456109E+02  0.48838184569E+02  0.51100000000E-03 0.  1.
         22    1    1    0    0    0 -0.85203381278E+01 -0.24070355646E+02 -0.13094034400E+02  0.28695503474E+02  0.00000000000E+00 0. -1.
</event>
<event>
 5    1  0.8952932E-005  0.9118800E+02  0.7818608E-02  0.1130116E+00
         25   -1    0    0    0    0  0.00000000000E+00  0.00000000000E+00  0.99999998245E-14  0.12500000000E+03  0.12500000000E+03 0.  0.
        -11    1    3    3    0    0  0.34719740826E+01  0.53490763733E+02  0.19273290703E+02  0.56962936578E+02  0.51100000000E-03 0.  1.
         23    2    1    0    0    0 -0.16371989341E+02  0.23827096462E+02  0.38769827520E+01  0.95831462909E+02  0.91284531697E+02 0.  0.
         11    1    3    3    0    0 -0.19843963424E+02 -0.29663667271E+02 -0.15396307951E+02  0.38868526331E+02  0.51100000000E-03 0. -1.
         22    1    1    0    0    0  0.16371989341E+02 -0.23827096462E+02 -0.38769827520E+01  0.29168537091E+02  0.00000000000E+00 0.  1.
</event>
<event>
 5    1  0.8952932E-005  0.9118800E+02  0.7818608E-02  0.1130116E+00
         25   -1    0    0    0    0  0.00000000000E+00  0.00000000000E+00  0.99999998245E-14  0.12500000000E+03  0.12500000000E+03 0.  0.
        -11    1    3    3    0    0 -0.19920466803E+01 -0.59022879653E+02  0.71161365872E+00  0.59060773503E+02  0.51100000000E-03 0.  1.
         23    2    1    0    0    0  0.10960460564E+02 -0.26228545095E+02 -0.81718544753E+01  0.95422179270E+02  0.90722350154E+02 0.  0.
         11    1    3    3    0    0  0.12952507244E+02  0.32794334558E+02 -0.88834681341E+01  0.36361405767E+02  0.51100000000E-03 0. -1.
         22    1    1    0    0    0 -0.10960460564E+02  0.26228545095E+02  0.81718544753E+01  0.29577820730E+02  0.00000000000E+00 0.  1.
</event>
<event>
 5    1  0.8952932E-005  0.9118800E+02  0.7818608E-02  0.1130116E+00
         25   -1    0    0    0    0  0.00000000000E+00  0.00000000000E+00  0.99999998245E-14  0.12500000000E+03  0.12500000000E+03 0.  0.
        -11    1    3    3    0    0  0.32919317299E+01 -0.49836348756E+02  0.37416537391E+02  0.62405895094E+02  0.51100000000E-03 0. -1.
         23    2    1    0    0    0 -0.43433411610E+00 -0.24041100848E+02  0.16283541626E+02  0.95960080854E+02  0.91460484437E+02 0.  0.
         11    1    3    3    0    0 -0.37262658460E+01  0.25795247908E+02 -0.21132995765E+02  0.33554185760E+02  0.51100000000E-03 0.  1.
         22    1    1    0    0    0  0.43433411610E+00  0.24041100848E+02 -0.16283541626E+02  0.29039919146E+02  0.00000000000E+00 0. -1.
</event>
<event>
 5    1  0.8952932E-005  0.9118800E+02  0.7818608E-02  0.1130116E+00
         25   -1    0    0    0    0  0.00000000000E+00  0.00000000000E+00  0.99999998245E-14  0.12500000000E+03  0.12500000000E+03 0.  0.
        -11    1    3    3    0    0  0.25220025103E+02  0.30694033147E+02 -0.42264794797E+01  0.39950425105E+02  0.51100000000E-03 0.  1.
         23    2    1    0    0    0 -0.23958006333E+02  0.62525957511E+01  0.12371627095E+02  0.97320798819E+02  0.93301659710E+02 0.  0.
         11    1    3    3    0    0 -0.49178031436E+02 -0.24441437396E+02  0.16598106575E+02  0.57370373713E+02  0.51100000000E-03 0. -1.
         22    1    1    0    0    0  0.23958006333E+02 -0.62525957511E+01 -0.12371627095E+02  0.27679201181E+02  0.00000000000E+00 0. -1.
</event>
<event>
 5    1  0.8952932E-005  0.9118800E+02  0.7818608E-02  0.1130116E+00
         25   -1    0    0    0    0  0.00000000000E+00  0.00000000000E+00  0.99999998245E-14  0.12500000000E+03  0.12500000000E+03 0.  0.
        -11    1    3    3    0    0  0.18318748876E+02 -0.12861952550E+02 -0.26593202486E+02  0.34759240534E+02  0.51100000000E-03 0.  1.
         23    2    1    0    0    0 -0.24866207846E+02  0.11675692066E+01  0.14662583768E+02  0.96109121280E+02  0.91663953220E+02 0.  0.
         11    1    3    3    0    0 -0.43184956722E+02  0.14029521756E+02  0.41255786254E+02  0.61349880745E+02  0.51100000000E-03 0. -1.
         22    1    1    0    0    0  0.24866207846E+02 -0.11675692066E+01 -0.14662583768E+02  0.28890878720E+02  0.00000000000E+00 0. -1.
</event>
<event>
 5    1  0.8952932E-005  0.9118800E+02  0.7818608E-02  0.1130116E+00
         25   -1    0    0    0    0  0.00000000000E+00  0.00000000000E+00  0.99999998245E-14  0.12500000000E+03  0.12500000000E+03 0.  0.
        -11    1    3    3    0    0 -0.28345762742E+02 -0.53889773571E+00  0.30182564110E+02  0.41409658930E+02  0.51100000000E-03 0. -1.
         23    2    1    0    0    0 -0.90492016380E+01  0.27010102448E+02 -0.10895949719E+02  0.94501550780E+02  0.89444886355E+02 0.  0.
         11    1    3    3    0    0  0.19296561104E+02  0.27549000184E+02 -0.41078513829E+02  0.53091891850E+02  0.51100000000E-03 0.  1.
         22    1    1    0    0    0  0.90492016380E+01 -0.27010102448E+02  0.10895949719E+02  0.30498449220E+02  0.00000000000E+00 0.  1.
</event>
<event>
 5    1  0.8952932E-005  0.9118800E+02  0.7818608E-02  0.1130116E+00
         25   -1    0    0    0    0  0.00000000000E+00  0.00000000000E+00  0.99999998245E-14  0.12500000000E+03  0.12500000000E+03 0.  0.
        -11    1    3    3    0    0 -0.35226518398E+02 -0.14218811678E+02  0.33328612582E+02  0.50535914168E+02  0.51100000000E-03 0. -1.
         23    2    1    0    0    0 -0.28437645536E+02 -0.81723587553E+01 -0.91911576992E+01  0.94016705936E+02  0.88764725448E+02 0.  0.
         11    1    3    3    0    0  0.67888728622E+01  0.60464529227E+01 -0.42519770281E+02  0.43480791767E+02  0.51100000000E-03 0.  1.
         22    1    1    0    0    0  0.28437645536E+02  0.81723587553E+01  0.91911576992E+01  0.30983294064E+02  0.00000000000E+00 0. -1.
</event>
<event>
 5    1  0.8952932E-005  0.9118800E+02  0.7818608E-02  0.1130116E+00
         25   -1    0    0    0    0  0.00000000000E+00  0.00000000000E+00  0.99999998245E-14  0.12500000000E+03  0.12500000000E+03 0.  0.
        -11    1    3    3    0    0  0.22435841129E+02  0.27102009847E+02 -0.94984004705E+01  0.36443182033E+02  0.51100000000E-03 0. -1.
         23    2    1    0    0    0 -0.25735771889E+02 -0.14031215772E+01  0.12211413426E+02  0.96479528007E+02  0.92167684151E+02 0.  0.
         11    1    3    3    0    0 -0.48171613017E+02 -0.28505131425E+02  0.21709813896E+02  0.60036345974E+02  0.51100000000E-03 0.  1.
         22    1    1    0    0    0  0.25735771889E+02  0.14031215772E+01 -0.12211413426E+02  0.28520471993E+02  0.00000000000E+00 0.  1.
</event>
<event>
 5    1  0.8952932E-005  0.9118800E+02  0.7818608E-02  0.1130116E+00
         25   -1    0    0    0    0  0.00000000000E+00  0.00000000000E+00  0.99999998245E-14  0.12500000000E+03  0.12500000000E+03 0.  0.
        -11    1    3    3    0    0 -0.48414290176E+01  0.56234737061E+02  0.23551013082E+02  0.61159098298E+02  0.51100000000E-03 0. -1.
         23    2    1    0    0    0 -0.69543205058E+01  0.23223613672E+02  0.19219500532E+01  0.10068143307E+03  0.97700349369E+02 0.  0.
         11    1    3    3    0    0 -0.21128914882E+01 -0.33011123389E+02 -0.21629063028E+02  0.39522334769E+02  0.51100000000E-03 0.  1.
         22    1    1    0    0    0  0.69543205058E+01 -0.23223613672E+02 -0.19219500532E+01  0.24318566933E+02  0.00000000000E+00 0. -1.
</event>
<event>
 5    1  0.8952932E-005  0.9118800E+02  0.7818608E-02  0.1130116E+00
         25   -1    0    0    0    0  0.00000000000E+00  0.00000000000E+00  0.99999998245E-14  0.12500000000E+03  0.12500000000E+03 0.  0.
        -11    1    3    3    0    0  0.30270729630E+02 -0.30980489255E+02 -0.38961834684E+02  0.58259182530E+02  0.51100000000E-03 0. -1.
         23    2    1    0    0    0  0.75259342124E+01 -0.26943128577E+02 -0.10030138056E+02  0.95281730658E+02  0.90528628977E+02 0.  0.
         11    1    3    3    0    0 -0.22744795418E+02  0.40373606782E+01  0.28931696629E+02  0.37022548128E+02  0.51100000000E-03 0.  1.
         22    1    1    0    0    0 -0.75259342124E+01  0.26943128577E+02  0.10030138056E+02  0.29718269342E+02  0.00000000000E+00 0.  1.
</event>
<event>
 5    1  0.8952932E-005  0.9118800E+02  0.7818608E-02  0.1130116E+00
         25   -1    0    0    0    0  0.00000000000E+00  0.00000000000E+00  0.99999998245E-14  0.12500000000E+03  0.12500000000E+03 0.  0.
        -11    1    3    3    0    0  0.21709722797E+02  0.28837497414E+02 -0.37537695007E+02  0.52076788185E+02  0.51100000000E-03 0.  1.
         23    2    1    0    0    0 -0.96075791301E+01 -0.28755316698E+01 -0.24519081202E+02  0.98509254406E+02  0.94880522772E+02 0.  0.
         11    1    3    3    0    0 -0.31317301927E+02 -0.31713029084E+02  0.13018613805E+02  0.46432466221E+02  0.51100000000E-03 0. -1.
         22    1    1    0    0    0  0.96075791301E+01  0.28755316698E+01  0.24519081202E+02  0.26490745594E+02  0.00000000000E+00 0.  1.
</event>
<event>
 5    1  0.8952932E-005  0.9118800E+02  0.7818608E-02  0.1130116E+00
         25   -1    0    0    0    0  0.00000000000E+00  0.00000000000E+00  0.99999998245E-14  0.12500000000E+03  0.12500000000E+03 0.  0.
        -11    1    3    3    0    0 -0.57214915959E+02  0.11194132060E+02 -0.13668593096E+02  0.59880594839E+02  0.51100000000E-03 0. -1.
         23    2    1    0    0    0 -0.24542933159E+02 -0.45214268325E+01 -0.14484985626E+02  0.96144954042E+02  0.91712804507E+02 0.  0.
         11    1    3    3    0    0  0.32671982800E+02 -0.15715558893E+02 -0.81639253026E+00  0.36264359204E+02  0.51100000000E-03 0.  1.
         22    1    1    0    0    0  0.24542933159E+02  0.45214268325E+01  0.14484985626E+02  0.28855045958E+02  0.00000000000E+00 0. -1.
</event>
<event>
 5    1  0.8952932E-005  0.9118800E+02  0.7818608E-02  0.1130116E+00
         25   -1    0    0    0    0  0.00000000000E+00  0.00000000000E+00  0.99999998245E-14  0.12500000000E+03  0.12500000000E+03 0.  0.
        -11    1    3    3    0    0 -0.38751741395E+02  0.16051165234E+02  0.24095297785E+02  0.48372727255E+02  0.51100000000E-03 0.  1.
         23    2    1    0    0    0  0.25232361890E+01  0.28912747061E+02  0.53768544693E+01  0.95483492289E+02  0.90806789791E+02 0.  0.
         11    1    3    3    0    0  0.41274977584E+02  0.12861581827E+02 -0.18718443315E+02  0.47110765034E+02  0.51100000000E-03 0. -1.
         22    1    1    0    0    0 -0.25232361890E+01 -0.28912747061E+02 -0.53768544693E+01  0.29516507711E+02  0.00000000000E+00 0.  1.
</event>
<event>
 5    1  0.8952932E-005  0.9118800E+02  0.7818608E-02  0.1130116E+00
         25   -1    0    0    0    0  0.00000000000E+00  0.00000000000E+00  0.99999998245E-14  0.12500000000E+03  0.12500000000E+03 0.  0.
        -11    1    3    3    0    0 -0.14965937065E+01  0.33655939877E+02 -0.72633047722E+01  0.34463280142E+02  0.51100000000E-03 0.  1.
         23    2    1    0    0    0  0.25887407920E+02 -0.17992926679E+02  0.72243345326E+00  0.93465491769E+02  0.87985072269E+02 0.  0.
         11    1    3    3    0    0  0.27384001626E+02 -0.51648866556E+02  0.79857382255E+01  0.59002211626E+02  0.51100000000E-03 0. -1.
         22    1    1    0    0    0 -0.25887407920E+02  0.17992926679E+02 -0.72243345326E+00  0.31534508231E+02  0.00000000000E+00 0. -1.
</event>
<event>
 5    1  0.8952932E-005  0.9118800E+02  0.7818608E-02  0.1130116E+00
         25   -1    0    0    0    0  0.00000000000E+00  0.00000000000E+00  0.99999998245E-14  0.12500000000E+03  0.12500000000E+03 0.  0.
        -11    1    3    3    0    0 -0.23035575131E+02 -0.27841651267E+02  0.25936415172E+02  0.44480252913E+02  0.51100000000E-03 0. -1.
         23    2    1    0    0    0 -0.59971275076E+01 -0.17358603130E+02 -0.21951708615E+02  0.96378956132E+02  0.92031185111E+02 0.  0.
         11    1    3    3    0    0  0.17038447623E+02  0.10483048137E+02 -0.47888123788E+02  0.51898703219E+02  0.51100000000E-03 0.  1.
         22    1    1    0    0    0  0.59971275076E+01  0.17358603130E+02  0.21951708615E+02  0.28621043868E+02  0.00000000000E+00 0. -1.
</event>
<event>
 5    1  0.8952932E-005  0.9118800E+02  0.7818608E-02  0.1130116E+00
         25   -1    0    0    0    0  0.00000000000E+00  0.00000000000E+00  0.99999998245E-14  0.12500000000E+03  0.12500000000E+03 0.  0.
        -11    1    3    3    0    0 -0.16801107612E+02 -0.29838571762E+02 -0.17491659063E+01  0.34288149023E+02  0.51100000000E-03 0.  1.
         23    2    1    0    0    0  0.48166635053E+01  0.25105531301E+02 -0.15756406255E+02  0.94970809413E+02  0.90098292732E+02 0.  0.
         11    1    3    3    0    0  0.21617771117E+02  0.54944103064E+02 -0.14007240349E+02  0.60682660390E+02  0.51100000000E-03 0. -1.
         22    1    1    0    0    0 -0.48166635053E+01 -0.25105531301E+02  0.15756406255E+02  0.30029190587E+02  0.00000000000E+00 0. -1.
</event>
<event>
 5    1  0.8952932E-005  0.9118800E+02  0.7818608E-02  0.1130116E+00
         25   -1    0    0    0    0  0.00000000000E+00  0.00000000000E+00  0.99999998245E-14  0.12500000000E+03  0.12500000000E+03 0.  0.
        -11    1    3    3    0    0  0.28299035909E+02  0.65752378166E+01  0.37247957333E+02  0.47238538414E+02  0.51100000000E-03 0. -1.
         23    2    1    0    0    0 -0.62465498055E+01 -0.18809041485E+02  0.27330305469E+02  0.91239890061E+02  0.84764217187E+02 0.  0.
         11    1    3    3    0    0 -0.34545585715E+02 -0.25384279302E+02 -0.99176518643E+01  0.44001351647E+02  0.51100000000E-03 0.  1.
         22    1    1    0    0    0  0.62465498055E+01  0.18809041485E+02 -0.27330305469E+02  0.33760109939E+02  0.00000000000E+00 0.  1.
</event>
<event>
 5    1  0.8952932E-005  0.9118800E+02  0.7818608E-02  0.1130116E+00
         25   -1    0    0    0    0  0.00000000000E+00  0.00000000000E+00  0.99999998245E-14  0.12500000000E+03  0.12500000000E+03 0.  0.
        -11    1    3    3    0    0  0.39250397311E+02  0.28158893340E+02 -0.14508017931E+01  0.48328271119E+02  0.51100000000E-03 0.  1.
         23    2    1    0    0    0 -0.10579336385E+02  0.24333913953E+02  0.17592601830E+01  0.98407581475E+02  0.94746479453E+02 0.  0.
         11    1    3    3    0    0 -0.49829733696E+02 -0.38249793875E+01  0.32100619761E+01  0.50079310356E+02  0.51100000000E-03 0. -1.
         22    1    1    0    0    0  0.10579336385E+02 -0.24333913953E+02 -0.17592601830E+01  0.26592418525E+02  0.00000000000E+00 0.  1.
</event>
<event>
 5    1  0.8952932E-005  0.9118800E+02  0.7818608E-02  0.1130116E+00
         25   -1    0    0    0    0  0.00000000000E+00  0.00000000000E+00  0.99999998245E-14  0.12500000000E+03  0.12500000000E+03 0.  0.
        -11    1    3    3    0    0 -0.28058674353E+02  0.34764080035E+02  0.41755783150E+02  0.61150436580E+02  0.51100000000E-03 0. -1.
         23    2    1    0    0    0 -0.19836867063E+02  0.19220742309E+02  0.13934178897E+02  0.94062974104E+02  0.88829857176E+02 0.  0.
         11    1    3    3    0    0  0.82218072905E+01 -0.15543337727E+02 -0.27821604253E+02  0.32912537524E+02  0.51100000000E-03 0.  1.
         22    1    1    0    0    0  0.19836867063E+02 -0.19220742309E+02 -0.13934178897E+02  0.30937025896E+02  0.00000000000E+00 0. -1.
</event>
<event>
 5    1  0.8952932E-005  0.9118800E+02  0.7818608E-02  0.1130116E+00
         25   -1    0    0    0    0  0.00000000000E+00  0.00000000000E+00  0.99999998245E-14  0.12500000000E+03  0.12500000000E+03 0.  0.
        -11    1    3    3    0    0 -0.31438378638E+02 -0.32643442148E+02 -0.65969315352E+00  0.45325502336E+02  0.51100000000E-03 0. -1.
         23    2    1    0    0    0  0.13013019781E+02 -0.15413429893E+02 -0.19833602150E+02  0.96710703807E+02  0.92480678802E+02 0.  0.
         11    1    3    3    0    0  0.44451398419E+02  0.17230012255E+02 -0.19173908996E+02  0.51385201471E+02  0.51100000000E-03 0.  1.
         22    1    1    0    0    0 -0.13013019781E+02  0.15413429893E+02  0.19833602150E+02  0.28289296193E+02  0.00000000000E+00 0. -1.
</event>
<event>
 5    1  0.8952932E-005  0.9118800E+02  0.7818608E-02  0.1130116E+00
         25   -1    0    0    0    0  0.00000000000E+00  0.00000000000E+00  0.99999998245E-14  0.12500000000E+03  0.12500000000E+03 0.  0.
        -11    1    3    3    0    0 -0.16152779145E+02 -0.55029442882E+02  0.21656523952E+02  0.61303808103E+02  0.51100000000E-03 0.  1.
         23    2    1    0    0    0 -0.99516904209E+01 -0.27392712992E+02  0.19863608285E+01  0.95787973424E+02  0.91224960159E+02 0.  0.
         11    1    3    3    0    0  0.62010887237E+01  0.27636729889E+02 -0.19670163123E+02  0.34484165321E+02  0.51100000000E-03 0. -1.
         22    1    1    0    0    0  0.99516904209E+01  0.27392712992E+02 -0.19863608285E+01  0.29212026576E+02  0.00000000000E+00 0.  1.
</event>
<event>
 5    1  0.8952932E-005  0.9118800E+02  0.7818608E-02  0.1130116E+00
         25   -1    0    0    0    0  0.00000000000E+00  0.00000000000E+00  0.99999998245E-14  0.12500000000E+03  0.12500000000E+03 0.  0.
        -11    1    3    3    0    0  0.35668494826E+02 -0.21209776757E+02  0.10819838396E+01  0.41512249307E+02  0.51100000000E-03 0.  1.
         23    2    1    0    0    0 -0.94837736666E+01 -0.80603914816E+01 -0.26280466120E+02  0.95921231573E+02  0.91407373297E+02 0.  0.
         11    1    3    3    0    0 -0.45152268493E+02  0.13149385276E+02 -0.27362449959E+02  0.54408982266E+02  0.51100000000E-03 0. -1.
         22    1    1    0    0    0  0.94837736666E+01  0.80603914816E+01  0.26280466120E+02  0.29078768427E+02  0.00000000000E+00 0.  1.
</event>
<event>
 5    1  0.8952932E-005  0.9118800E+02  0.7818608E-02  0.1130116E+00
         25   -1    0    0    0    0  0.00000000000E+00  0.00000000000E+00  0.99999998245E-14  0.12500000000E+03  0.12500000000E+03 0.  0.
        -11    1    3    3    0    0 -0.10948068275E+02 -0.18974516614E+02 -0.23678252438E+02  0.32257590091E+02  0.51100000000E-03 0.  1.
         23    2    1    0    0    0  0.27627460238E+02  0.20208290869E+02 -0.13647826376E+02  0.88150105240E+02  0.80078251167E+02 0.  0.
         11    1    3    3    0    0  0.38575528513E+02  0.39182807483E+02  0.10030426062E+02  0.55892515148E+02  0.51100000000E-03 0. -1.
         22    1    1    0    0    0 -0.27627460238E+02 -0.20208290869E+02  0.13647826376E+02  0.36849894760E+02  0.00000000000E+00 0. -1.
</event>
<event>
 5    1  0.8952932E-005  0.9118800E+02  0.7818608E-02  0.1130116E+00
         25   -1    0    0    0    0  0.00000000000E+00  0.00000000000E+00  0.99999998245E-14  0.12500000000E+03  0.12500000000E+03 0.  0.
        -11    1    3    3    0    0 -0.47717432649E+01  0.13049711471E+02  0.35995245434E+02  0.38583962956E+02  0.51100000000E-03 0. -1.
         23    2    1    0    0    0  0.20436062553E+02 -0.16270107731E+02 -0.84978248386E+01  0.97530706503E+02  0.93582458964E+02 0.  0.
         11    1    3    3    0    0  0.25207805818E+02 -0.29319819202E+02 -0.44493070273E+02  0.58946743547E+02  0.51100000000E-03 0.  1.
         22    1    1    0    0    0 -0.20436062553E+02  0.16270107731E+02  0.84978248386E+01  0.27469293497E+02  0.00000000000E+00 0.  1.
</event>
<event>
 5    1  0.8952932E-005  0.9118800E+02  0.7818608E-02  0.1130116E+00
         25   -1    0    0    0    0  0.00000000000E+00  0.00000000000E+00  0.99999998245E-14  0.12500000000E+03  0.12500000000E+03 0.  0.
        -11    1    3    3    0    0  0.43798694013E+02  0.21964323986E+02 -0.33652677619E+02  0.59441230107E+02  0.51100000000E-03 0.  1.
         23    2    1    0    0    0  0.14579009341E+02  0.27021400018E+01 -0.25697849792E+02  0.95331353960E+02  0.90597121864E+02 0.  0.
         11    1    3    3    0    0 -0.29219684672E+02 -0.19262183984E+02  0.79548278279E+01  0.35890123853E+02  0.51100000000E-03 0. -1.
         22    1    1    0    0    0 -0.14579009341E+02 -0.27021400018E+01  0.25697849792E+02  0.29668646040E+02  0.00000000000E+00 0.  1.
</event>
<event>
 5    1  0.8952932E-005  0.9118800E+02  0.7818608E-02  0.1130116E+00
         25   -1    0    0    0    0  0.00000000000E+00  0.00000000000E+00  0.99999998245E-14  0.12500000000E+03  0.12500000000E+03 0.  0.
        -11    1    3    3    0    0 -0.37415083519E+02 -0.27044586661E+02  0.25172336052E+02  0.52582740941E+02  0.51100000000E-03 0.  1.
         23    2    1    0    0    0 -0.42710420298E+01 -0.59352945648E+01  0.31744706545E+02  0.92423997864E+02  0.86492771177E+02 0.  0.
         11    1    3    3    0    0  0.33144041489E+02  0.21109292096E+02  0.65723704930E+01  0.39841256922E+02  0.51100000000E-03 0. -1.
         22    1    1    0    0    0  0.42710420298E+01  0.59352945648E+01 -0.31744706545E+02  0.32576002136E+02  0.00000000000E+00 0.  1.
</event>
<event>
 5    1  0.8952932E-005  0.9118800E+02  0.7818608E-02  0.1130116E+00
         25   -1    0    0    0    0  0.00000000000E+00  0.00000000000E+00  0.99999998245E-14  0.12500000000E+03  0.12500000000E+03 0.  0.
        -11    1    3    3    0    0  0.33784478334E+02 -0.26869025519E+02  0.87208943593E+01  0.44038500284E+02  0.51100000000E-03 0.  1.
         23    2    1    0    0    0  0.16335132798E+02  0.21886566937E+02  0.10208760907E+02  0.95843917014E+02  0.91301584069E+02 0.  0.
         11    1    3    3    0    0 -0.17449345536E+02  0.48755592456E+02  0.14878665481E+01  0.51805416729E+02  0.51100000000E-03 0. -1.
         22    1    1    0    0    0 -0.16335132798E+02 -0.21886566937E+02 -0.10208760907E+02  0.29156082986E+02  0.00000000000E+00 0. -1.
</event>
<event>
 5    1  0.8952932E-005  0.9118800E+02  0.7818608E-02  0.1130116E+00
         25   -1    0    0    0    0  0.00000000000E+00  0.00000000000E+00  0.99999998245E-14  0.12500000000E+03  0.12500000000E+03 0.  0.
        -11    1    3    3    0    0 -0.22952646239E+02  0.57056791600E+02 -0.92859533913E+01  0.62197510945E+02  0.51100000000E-03 0.  1.
         23    2    1    0    0    0 -0.12113211142E+02  0.26251148712E+02 -0.22591605975E+00  0.96088000227E+02  0.91635146405E+02 0.  0.
         11    1    3    3    0    0  0.10839435098E+02 -0.30805642889E+02  0.90600373316E+01  0.33890489282E+02  0.51100000000E-03 0. -1.
         22    1    1    0    0    0  0.12113211142E+02 -0.26251148712E+02  0.22591605975E+00  0.28911999773E+02  0.00000000000E+00 0.  1.
</event>
<event>
 5    1  0.8952932E-005  0.9118800E+02  0.7818608E-02  0.1130116E+00
         25   -1    0    0    0    0  0.00000000000E+00  0.00000000000E+00  0.99999998245E-14  0.12500000000E+03  0.12500000000E+03 0.  0.
        -11    1    3    3    0    0 -0.35187484210E-01  0.36175570506E+02  0.16719712683E+02  0.39852502206E+02  0.51100000000E-03 0. -1.
         23    2    1    0    0    0 -0.26724896596E+02  0.20865539770E+01 -0.15695193725E+02  0.93936952634E+02  0.88652344349E+02 0.  0.
         11    1    3    3    0    0 -0.26689709112E+02 -0.34089016529E+02 -0.32414906408E+02  0.54084450428E+02  0.51100000000E-03 0.  1.
         22    1    1    0    0    0  0.26724896596E+02 -0.20865539770E+01  0.15695193725E+02  0.31063047366E+02  0.00000000000E+00 0.  1.
</event>
<event>
 5    1  0.8952932E-005  0.9118800E+02  0.7818608E-02  0.1130116E+00
         25   -1    0    0    0    0  0.00000000000E+00  0.00000000000E+00  0.99999998245E-14  0.12500000000E+03  0.12500000000E+03 0.  0.
        -11    1    3    3    0    0  0.35040389124E+02  0.38770953113E+02  0.20089728921E+02  0.55987613663E+02  0.51100000000E-03 0. -1.
         23    2    1    0    0    0 -0.13229941177E+01  0.28088754710E+02  0.81935343732E+01  0.95710710829E+02  0.91119030434E+02 0.  0.
         11    1    3    3    0    0 -0.36363383242E+02 -0.10682198403E+02 -0.11896194548E+02  0.39723097166E+02  0.51100000000E-03 0.  1.
         22    1    1    0    0    0  0.13229941177E+01 -0.28088754710E+02 -0.81935343732E+01  0.29289289171E+02  0.00000000000E+00 0. -1.
</event>
<event>
 5    1  0.8952932E-005  0.9118800E+02  0.7818608E-02  0.1130116E+00
         25   -1    0    0    0    0  0.00000000000E+00  0.00000000000E+00  0.99999998245E-14  0.12500000000E+03  0.12500000000E+03 0.  0.
        -11    1    3    3    0    0  0.55683269930E+01 -0.58716971304E+02  0.85881910919E+01  0.59602399374E+02  0.51100000000E-03 0.  1.
         23    2    1    0    0    0  0.56064382415E+01 -0.26253630881E+02 -0.92023895465E+01  0.96620971519E+02  0.92359313985E+02 0.  0.
         11    1    3    3    0    0  0.38111248536E-01  0.32463340424E+02 -0.17790580638E+02  0.37018572145E+02  0.51100000000E-03 0. -1.
         22    1    1    0    0    0 -0.56064382415E+01  0.26253630881E+02  0.92023895465E+01  0.28379028481E+02  0.00000000000E+00 0.  1.
</event>
<event>
 5    1  0.8952932E-005  0.9118800E+02  0.7818608E-02  0.1130116E+00
         25   -1    0    0    0    0  0.00000000000E+00  0.00000000000E+00  0.99999998245E-14  0.12500000000E+03  0.12500000000E+03 0.  0.
        -11    1    3    3    0    0 -0.32366722280E+02 -0.16922567691E+02 -0.27981316319E+00  0.36524735510E+02  0.51100000000E-03 0.  1.
         23    2    1    0    0    0  0.26465162516E+02 -0.11797331019E+02  0.40727672199E+01  0.95739629548E+02  0.91158693425E+02 0.  0.
         11    1    3    3    0    0  0.58831884796E+02  0.51252366717E+01  0.43525803831E+01  0.59214894038E+02  0.51100000000E-03 0. -1.
         22    1    1    0    0    0 -0.26465162516E+02  0.11797331019E+02 -0.40727672199E+01  0.29260370452E+02  0.00000000000E+00 0.  1.
</event>
<event>
 5    1  0.8952932E-005  0.9118800E+02  0.7818608E-02  0.1130116E+00
         25   -1    0    0    0    0  0.00000000000E+00  0.00000000000E+00  0.99999998245E-14  0.12500000000E+03  0.12500000000E+03 0.  0.
        -11    1    3    3    0    0 -0.46363510242E+01 -0.25996469152E+02 -0.23313635903E+02  0.35225527370E+02  0.51100000000E-03 0. -1.
         23    2    1    0    0    0 -0.13870389009E+02  0.25170799836E+02  0.70127970984E+01  0.95417299333E+02  0.90715626180E+02 0.  0.
         11    1    3    3    0    0 -0.92340379847E+01  0.51167268988E+02  0.30326433002E+02  0.60191771963E+02  0.51100000000E-03 0.  1.
         22    1    1    0    0    0  0.13870389009E+02 -0.25170799836E+02 -0.70127970984E+01  0.29582700667E+02  0.00000000000E+00 0.  1.
</event>
<event>
 5    1  0.8952932E-005  0.9118800E+02  0.7818608E-02  0.1130116E+00
         25   -1    0    0    0    0  0.00000000000E+00  0.00000000000E+00  0.99999998245E-14  0.12500000000E+03  0.12500000000E+03 0.  0.
        -11    1    3    3    0    0 -0.21547395495E+02  0.24540691635E+02 -0.27499986417E+02  0.42694086848E+02  0.51100000000E-03 0. -1.
         23    2    1    0    0    0 -0.18199450206E+02 -0.22252695940E+02 -0.17734871482E+01  0.96198129903E+02  0.91785251952E+02 0.  0.
         11    1    3    3    0    0  0.33479452885E+01 -0.46793387575E+02  0.25726499269E+02  0.53504043056E+02  0.51100000000E-03 0.  1.
         22    1    1    0    0    0  0.18199450206E+02  0.22252695940E+02  0.17734871482E+01  0.28801870097E+02  0.00000000000E+00 0.  1.
</event>
<event>
 5    1  0.8952932E-005  0.9118800E+02  0.7818608E-02  0.1130116E+00
         25   -1    0    0    0    0  0.00000000000E+00  0.00000000000E+00  0.99999998245E-14  0.12500000000E+03  0.12500000000E+03 0.  0.
        -11    1    3    3    0    0  0.26466849724E+02 -0.26837490694E+02 -0.12196756166E+02  0.39616990072E+02  0.51100000000E-03 0. -1.
         23    2    1    0    0    0 -0.24397497943E+02 -0.50499874236E+01 -0.16498030746E+02  0.95118144345E+02  0.90302469990E+02 0.  0.
         11    1    3    3    0    0 -0.50864347668E+02  0.21787503271E+02 -0.43012745809E+01  0.55501154274E+02  0.51100000000E-03 0.  1.
         22    1    1    0    0    0  0.24397497943E+02  0.50499874236E+01  0.16498030746E+02  0.29881855655E+02  0.00000000000E+00 0.  1.
</event>
<event>
 5    1  0.8952932E-005  0.9118800E+02  0.7818608E-02  0.1130116E+00
         25   -1    0    0    0    0  0.00000000000E+00  0.00000000000E+00  0.99999998245E-14  0.12500000000E+03  0.12500000000E+03 0.  0.
        -11    1    3    3    0    0  0.97059370687E+01  0.26993227997E+02 -0.52817316654E+02  0.60104147202E+02  0.51100000000E-03 0.  1.
         23    2    1    0    0    0  0.14609317667E+01  0.15095319706E+01 -0.28932794130E+02  0.95991043029E+02  0.91502790980E+02 0.  0.
         11    1    3    3    0    0 -0.82450053020E+01 -0.25483696027E+02  0.23884522524E+02  0.35886895826E+02  0.51100000000E-03 0. -1.
         22    1    1    0    0    0 -0.14609317667E+01 -0.15095319706E+01  0.28932794130E+02  0.29008956971E+02  0.00000000000E+00 0.  1.
</event>
<event>
 5    1  0.8952932E-005  0.9118800E+02  0.7818608E-02  0.1130116E+00
         25   -1    0    0    0    0  0.00000000000E+00  0.00000000000E+00  0.99999998245E-14  0.12500000000E+03  0.12500000000E+03 0.  0.
        -11    1    3    3    0    0  0.40035958732E+02  0.16289944171E+02  0.65328706813E+01  0.43714055774E+02  0.51100000000E-03 0.  1.
         23    2    1    0    0    0 -0.14303211427E+01 -0.16144765864E+02  0.21153230722E+02  0.98351201652E+02  0.94672067755E+02 0.  0.
         11    1    3    3    0    0 -0.41466279874E+02 -0.32434710035E+02  0.14620360041E+02  0.54637145878E+02  0.51100000000E-03 0. -1.
         22    1    1    0    0    0  0.14303211427E+01  0.16144765864E+02 -0.21153230722E+02  0.26648798348E+02  0.00000000000E+00 0. -1.
</event>
<event>
 5    1  0.8952932E-005  0.9118800E+02  0.7818608E-02  0.1130116E+00
         25   -1    0    0    0    0  0.00000000000E+00  0.00000000000E+00  0.99999998245E-14  0.12500000000E+03  0.12500000000E+03 0.  0.
        -11    1    3    3    0    0  0.12218571084E+02  0.21991270918E+02  0.18325809935E+02  0.31124665235E+02  0.51100000000E-03 0.  1.
         23    2    1    0    0    0  0.59427483715E+01 -0.26206411337E+02 -0.18730913234E+02  0.92244246857E+02  0.86232602387E+02 0.  0.
         11    1    3    3    0    0 -0.62758227129E+01 -0.48197682254E+02 -0.37056723169E+02  0.61119581623E+02  0.51100000000E-03 0. -1.
         22    1    1    0    0    0 -0.59427483715E+01  0.26206411337E+02  0.18730913234E+02  0.32755753143E+02  0.00000000000E+00 0. -1.
</event>
<event>
 5    1  0.8952932E-005  0.9118800E+02  0.7818608E-02  0.1130116E+00
         25   -1    0    0    0    0  0.00000000000E+00  0.00000000000E+00  0.99999998245E-14  0.12500000000E+03  0.12500000000E+03 0.  0.
        -11    1    3    3    0    0 -0.44319861408E+01  0.33345292222E+02  0.95924453873E+01  0.34979508620E+02  0.51100000000E-03 0.  1.
         23    2    1    0    0    0 -0.10871217904E+02 -0.26797816242E+02  0.10949072981E+01  0.96060318661E+02  0.91597378047E+02 0.  0.
         11    1    3    3    0    0 -0.64392317630E+01 -0.60143108464E+02 -0.84975380892E+01  0.61080810041E+02  0.51100000000E-03 0. -1.
         22    1    1    0    0    0  0.10871217904E+02  0.26797816242E+02 -0.10949072981E+01  0.28939681339E+02  0.00000000000E+00 0. -1.
</event>
<event>
 5    1  0.8952932E-005  0.9118800E+02  0.7818608E-02  0.1130116E+00
         25   -1    0    0    0    0  0.00000000000E+00  0.00000000000E+00  0.99999998245E-14  0.12500000000E+03  0.12500000000E+03 0.  0.
        -11    1    3    3    0    0 -0.43548270741E+01 -0.20700137948E+02 -0.24541516828E+02  0.32399788246E+02  0.51100000000E-03 0.  1.
         23    2    1    0    0    0  0.74527255872E+01  0.91859193742E+01  0.28346353172E+02  0.94284532047E+02  0.89141084870E+02 0.  0.
         11    1    3    3    0    0  0.11807552661E+02  0.29886057322E+02  0.52887869999E+02  0.61884743802E+02  0.51100000000E-03 0. -1.
         22    1    1    0    0    0 -0.74527255872E+01 -0.91859193742E+01 -0.28346353172E+02  0.30715467953E+02  0.00000000000E+00 0. -1.
</event>
<event>
 5    1  0.8952932E-005  0.9118800E+02  0.7818608E-02  0.1130116E+00
         25   -1    0    0    0    0  0.00000000000E+00  0.00000000000E+00  0.99999998245E-14  0.12500000000E+03  0.12500000000E+03 0.  0.
        -11    1    3    3    0    0  0.33486060351E+02 -0.43652261439E+02 -0.63384983418E+01  0.55380616898E+02  0.51100000000E-03 0.  1.
         23    2    1    0    0    0 -0.12889188363E+01 -0.24020033428E+02 -0.15541771152E+02  0.96361390254E+02  0.92007323424E+02 0.  0.
         11    1    3    3    0    0 -0.34774979188E+02  0.19632228011E+02 -0.92032728100E+01  0.40980773356E+02  0.51100000000E-03 0. -1.
         22    1    1    0    0    0  0.12889188363E+01  0.24020033428E+02  0.15541771152E+02  0.28638609746E+02  0.00000000000E+00 0.  1.
</event>
<event>
 5    1  0.8952932E-005  0.9118800E+02  0.7818608E-02  0.1130116E+00
         25   -1    0    0    0    0  0.00000000000E+00  0.00000000000E+00  0.99999998245E-14  0.12500000000E+03  0.12500000000E+03 0.  0.
        -11    1    3    3    0    0  0.41760687579E+02 -0.32334993243E+02  0.29729906767E+02  0.60608367176E+02  0.51100000000E-03 0.  1.
         23    2    1    0    0    0  0.27104367845E+02 -0.79906469589E+01  0.10817060500E+02  0.94742670426E+02  0.89781220790E+02 0.  0.
         11    1    3    3    0    0 -0.14656319734E+02  0.24344346285E+02 -0.18912846267E+02  0.34134303250E+02  0.51100000000E-03 0. -1.
         22    1    1    0    0    0 -0.27104367845E+02  0.79906469589E+01 -0.10817060500E+02  0.30257329574E+02  0.00000000000E+00 0.  1.
</event>
<event>
 5    1  0.8952932E-005  0.9118800E+02  0.7818608E-02  0.1130116E+00
         25   -1    0    0    0    0  0.00000000000E+00  0.00000000000E+00  0.99999998245E-14  0.12500000000E+03  0.12500000000E+03 0.  0.
        -11    1    3    3    0    0 -0.26261082236E+02 -0.22737286206E+01  0.49459813345E+02  0.56045404972E+02  0.51100000000E-03 0. -1.
         23    2    1    0    0    0  0.44977887939E+01 -0.13332655681E+02  0.22718482017E+02  0.98276990500E+02  0.94574032509E+02 0.  0.
         11    1    3    3    0    0  0.30758871030E+02 -0.11058927061E+02 -0.26741331328E+02  0.42231585528E+02  0.51100000000E-03 0.  1.
         22    1    1    0    0    0 -0.44977887939E+01  0.13332655681E+02 -0.22718482017E+02  0.26723009500E+02  0.00000000000E+00 0. -1.
</event>
<event>
 5    1  0.8952932E-005  0.9118800E+02  0.7818608E-02  0.1130116E+00
         25   -1    0    0    0    0  0.00000000000E+00  0.00000000000E+00  0.99999998245E-14  0.12500000000E+03  0.12500000000E+03 0.  0.
        -11    1    3    3    0    0  0.18787932985E+02 -0.83166886571E+01  0.31500321681E+02  0.37608828782E+02  0.51100000000E-03 0.  1.
         23    2    1    0    0    0 -0.21221892172E+02 -0.19545071137E+02 -0.81231145865E+01  0.95027287348E+02  0.90176614691E+02 0.  0.
         11    1    3    3    0    0 -0.40009825157E+02 -0.11228382480E+02 -0.39623436268E+02  0.57418458566E+02  0.51100000000E-03 0. -1.
         22    1    1    0    0    0  0.21221892172E+02  0.19545071137E+02  0.81231145865E+01  0.29972712652E+02  0.00000000000E+00 0. -1.
</event>
<event>
 5    1  0.8952932E-005  0.9118800E+02  0.7818608E-02  0.1130116E+00
         25   -1    0    0    0    0  0.00000000000E+00  0.00000000000E+00  0.99999998245E-14  0.12500000000E+03  0.12500000000E+03 0.  0.
        -11    1    3    3    0    0 -0.17684150725E+02  0.26336436117E+02 -0.47051261825E+02  0.56746438600E+02  0.51100000000E-03 0.  1.
         23    2    1    0    0    0 -0.14044771366E+02 -0.64681092528E+01 -0.21650781047E+02  0.98394580252E+02  0.94729325253E+02 0.  0.
         11    1    3    3    0    0  0.36393793588E+01 -0.32804545370E+02  0.25400480778E+02  0.41648141652E+02  0.51100000000E-03 0. -1.
         22    1    1    0    0    0  0.14044771366E+02  0.64681092528E+01  0.21650781047E+02  0.26605419748E+02  0.00000000000E+00 0.  1.
</event>
<event>
 5    1  0.8952932E-005  0.9118800E+02  0.7818608E-02  0.1130116E+00
         25   -1    0    0    0    0  0.00000000000E+00  0.00000000000E+00  0.99999998245E-14  0.12500000000E+03  0.12500000000E+03 0.  0.
        -11    1    3    3    0    0 -0.19523507474E+02  0.30898654413E+02 -0.33271899894E+02  0.49425838500E+02  0.51100000000E-03 0.  1.
         23    2    1    0    0    0 -0.16551335290E+02  0.25330661459E+02  0.99816373788E+01  0.93137448398E+02  0.87517781619E+02 0.  0.
         11    1    3    3    0    0  0.29721721842E+01 -0.55679929548E+01  0.43253537273E+02  0.43711609898E+02  0.51100000000E-03 0. -1.
         22    1    1    0    0    0  0.16551335290E+02 -0.25330661459E+02 -0.99816373788E+01  0.31862551602E+02  0.00000000000E+00 0.  1.
</event>
<event>
 5    1  0.8952932E-005  0.9118800E+02  0.7818608E-02  0.1130116E+00
         25   -1    0    0    0    0  0.00000000000E+00  0.00000000000E+00  0.99999998245E-14  0.12500000000E+03  0.12500000000E+03 0.  0.
        -11    1    3    3    0    0 -0.38044610274E+02 -0.25337286041E+02  0.14975242729E+02  0.48100190539E+02  0.51100000000E-03 0. -1.
         23    2    1    0    0    0  0.13363709711E+01 -0.34601941211E+02  0.10567481088E+02  0.88795692529E+02  0.81079733178E+02 0.  0.
         11    1    3    3    0    0  0.39380981245E+02 -0.92646551703E+01 -0.44077616411E+01  0.40695501990E+02  0.51100000000E-03 0.  1.
         22    1    1    0    0    0 -0.13363709711E+01  0.34601941211E+02 -0.10567481088E+02  0.36204307471E+02  0.00000000000E+00 0. -1.
</event>
<event>
 5    1  0.8952932E-005  0.9118800E+02  0.7818608E-02  0.1130116E+00
         25   -1    0    0    0    0  0.00000000000E+00  0.00000000000E+00  0.99999998245E-14  0.12500000000E+03  0.12500000000E+03 0.  0.
        -11    1    3    3    0    0 -0.12436536096E+02  0.63079452236E+01 -0.34688493671E+02  0.37386484141E+02  0.51100000000E-03 0.  1.
         23    2    1    0    0    0  0.21958114068E+02  0.14680929071E+02  0.12008732489E+02  0.95984519514E+02  0.91493878913E+02 0.  0.
         11    1    3    3    0    0  0.34394650164E+02  0.83729838477E+01  0.46697226160E+02  0.58598035374E+02  0.51100000000E-03 0. -1.
         22    1    1    0    0    0 -0.21958114068E+02 -0.14680929071E+02 -0.12008732489E+02  0.29015480486E+02  0.00000000000E+00 0. -1.
</event>
<event>
 5    1  0.8952932E-005  0.9118800E+02  0.7818608E-02  0.1130116E+00
         25   -1    0    0    0    0  0.00000000000E+00  0.00000000000E+00  0.99999998245E-14  0.12500000000E+03  0.12500000000E+03 0.  0.
        -11    1    3    3    0    0 -0.30249977325E+02  0.10566497106E+00  0.28207033099E+02  0.41360718197E+02  0.51100000000E-03 0. -1.
         23    2    1    0    0    0 -0.18657702581E+02 -0.46392078367E+00 -0.23861153566E+02  0.94706770763E+02  0.89731224726E+02 0.  0.
         11    1    3    3    0    0  0.11592274744E+02 -0.56958575473E+00 -0.52068186664E+02  0.53346052567E+02  0.51100000000E-03 0.  1.
         22    1    1    0    0    0  0.18657702581E+02  0.46392078367E+00  0.23861153566E+02  0.30293229237E+02  0.00000000000E+00 0.  1.
</event>
<event>
 5    1  0.8952932E-005  0.9118800E+02  0.7818608E-02  0.1130116E+00
         25   -1    0    0    0    0  0.00000000000E+00  0.00000000000E+00  0.99999998245E-14  0.12500000000E+03  0.12500000000E+03 0.  0.
        -11    1    3    3    0    0 -0.31471405841E+02 -0.50913415212E+02 -0.11325816528E+02  0.60917151563E+02  0.51100000000E-03 0.  1.
         23    2    1    0    0    0 -0.17282250485E+02 -0.17840733305E+02 -0.13040741611E+02  0.96945964845E+02  0.92798120731E+02 0.  0.
         11    1    3    3    0    0  0.14189155356E+02  0.33072681907E+02 -0.17149250827E+01  0.36028813282E+02  0.51100000000E-03 0. -1.
         22    1    1    0    0    0  0.17282250485E+02  0.17840733305E+02  0.13040741611E+02  0.28054035155E+02  0.00000000000E+00 0.  1.
</event>
<event>
 5    1  0.8952932E-005  0.9118800E+02  0.7818608E-02  0.1130116E+00
         25   -1    0    0    0    0  0.00000000000E+00  0.00000000000E+00  0.99999998245E-14  0.12500000000E+03  0.12500000000E+03 0.  0.
        -11    1    3    3    0    0 -0.44041509844E+01  0.24698690059E+02  0.30704527723E+02  0.39650849417E+02  0.51100000000E-03 0. -1.
         23    2    1    0    0    0  0.50914227967E+01  0.78675659171E+01 -0.24834646704E+02  0.98456058009E+02  0.94810413469E+02 0.  0.
         11    1    3    3    0    0  0.94955737810E+01 -0.16831124141E+02 -0.55539174427E+02  0.58805208592E+02  0.51100000000E-03 0.  1.
         22    1    1    0    0    0 -0.50914227967E+01 -0.78675659171E+01  0.24834646704E+02  0.26543941991E+02  0.00000000000E+00 0.  1.
</event>
<event>
 5    1  0.8952932E-005  0.9118800E+02  0.7818608E-02  0.1130116E+00
         25   -1    0    0    0    0  0.00000000000E+00  0.00000000000E+00  0.99999998245E-14  0.12500000000E+03  0.12500000000E+03 0.  0.
        -11    1    3    3    0    0  0.20567760754E+02 -0.45914022308E+02  0.32924100643E+02  0.60125923114E+02  0.51100000000E-03 0. -1.
         23    2    1    0    0    0  0.13277071661E+02 -0.13166342748E+02  0.23489792097E+02  0.94976616679E+02  0.90106349220E+02 0.  0.
         11    1    3    3    0    0 -0.72906890929E+01  0.32747679559E+02 -0.94343085462E+01  0.34850693565E+02  0.51100000000E-03 0.  1.
         22    1    1    0    0    0 -0.13277071661E+02  0.13166342748E+02 -0.23489792097E+02  0.30023383321E+02  0.00000000000E+00 0. -1.
</event>
<event>
 5    1  0.8952932E-005  0.9118800E+02  0.7818608E-02  0.1130116E+00
         25   -1    0    0    0    0  0.00000000000E+00  0.00000000000E+00  0.99999998245E-14  0.12500000000E+03  0.12500000000E+03 0.  0.
        -11    1    3    3    0    0 -0.17755001376E+02  0.23680856341E+02  0.28448810864E+02  0.41053110367E+02  0.51100000000E-03 0. -1.
         23    2    1    0    0    0  0.19518448480E+02  0.15383407208E+02 -0.12616371527E+02  0.97129013671E+02  0.93044362633E+02 0.  0.
         11    1    3    3    0    0  0.37273449856E+02 -0.82974491330E+01 -0.41065182392E+02  0.56075903305E+02  0.51100000000E-03 0.  1.
         22    1    1    0    0    0 -0.19518448480E+02 -0.15383407208E+02  0.12616371527E+02  0.27870986329E+02  0.00000000000E+00 0.  1.
</event>
<event>
 5    1  0.8952932E-005  0.9118800E+02  0.7818608E-02  0.1130116E+00
         25   -1    0    0    0    0  0.00000000000E+00  0.00000000000E+00  0.99999998245E-14  0.12500000000E+03  0.12500000000E+03 0.  0.
        -11    1    3    3    0    0 -0.91183375860E+01 -0.49425545912E+02  0.23165035017E+02  0.55341191861E+02  0.51100000000E-03 0.  1.
         23    2    1    0    0    0 -0.57611463682E+01 -0.26767031919E+02 -0.10174039168E+02  0.95790825444E+02  0.91228868024E+02 0.  0.
         11    1    3    3    0    0  0.33571912179E+01  0.22658513993E+02 -0.33339074185E+02  0.40449633583E+02  0.51100000000E-03 0. -1.
         22    1    1    0    0    0  0.57611463682E+01  0.26767031919E+02  0.10174039168E+02  0.29209174556E+02  0.00000000000E+00 0.  1.
</event>
<event>
 5    1  0.8952932E-005  0.9118800E+02  0.7818608E-02  0.1130116E+00
         25   -1    0    0    0    0  0.00000000000E+00  0.00000000000E+00  0.99999998245E-14  0.12500000000E+03  0.12500000000E+03 0.  0.
        -11    1    3    3    0    0 -0.36099558694E+02  0.47324160771E+02  0.12083223876E+02  0.60735151519E+02  0.51100000000E-03 0.  1.
         23    2    1    0    0    0 -0.25345039660E+02  0.17381677871E+02  0.16280619105E+01  0.94224289666E+02  0.89056568632E+02 0.  0.
         11    1    3    3    0    0  0.10754519033E+02 -0.29942482900E+02 -0.10455161966E+02  0.33489138147E+02  0.51100000000E-03 0. -1.
         22    1    1    0    0    0  0.25345039660E+02 -0.17381677871E+02 -0.16280619105E+01  0.30775710334E+02  0.00000000000E+00 0.  1.
</event>
<event>
 5    1  0.8952932E-005  0.9118800E+02  0.7818608E-02  0.1130116E+00
         25   -1    0    0    0    0  0.00000000000E+00  0.00000000000E+00  0.99999998245E-14  0.12500000000E+03  0.12500000000E+03 0.  0.
        -11    1    3    3    0    0 -0.98720302973E+01 -0.43469707911E+01 -0.39866831726E+02  0.41300331831E+02  0.51100000000E-03 0.  1.
         23    2    1    0    0    0  0.16748675998E+02 -0.16095154973E+02  0.10531447661E+02  0.99495420977E+02  0.96170968822E+02 0.  0.
         11    1    3    3    0    0  0.26620706295E+02 -0.11748184182E+02  0.50398279387E+02  0.58195089146E+02  0.51100000000E-03 0. -1.
         22    1    1    0    0    0 -0.16748675998E+02  0.16095154973E+02 -0.10531447661E+02  0.25504579023E+02  0.00000000000E+00 0. -1.
</event>
<event>
 5    1  0.8952932E-005  0.9118800E+02  0.7818608E-02  0.1130116E+00
         25   -1    0    0    0    0  0.00000000000E+00  0.00000000000E+00  0.99999998245E-14  0.12500000000E+03  0.12500000000E+03 0.  0.
        -11    1    3    3    0    0  0.13068441536E+02  0.15306698453E+02 -0.47464002991E+02  0.51554929560E+02  0.51100000000E-03 0. -1.
         23    2    1    0    0    0 -0.14965104502E+02 -0.76069792358E+01 -0.27172743561E+02  0.93059767087E+02  0.87406760447E+02 0.  0.
         11    1    3    3    0    0 -0.28033546038E+02 -0.22913677688E+02  0.20291259430E+02  0.41504837528E+02  0.51100000000E-03 0.  1.
         22    1    1    0    0    0  0.14965104502E+02  0.76069792358E+01  0.27172743561E+02  0.31940232913E+02  0.00000000000E+00 0. -1.
</event>
<event>
 5    1  0.8952932E-005  0.9118800E+02  0.7818608E-02  0.1130116E+00
         25   -1    0    0    0    0  0.00000000000E+00  0.00000000000E+00  0.99999998245E-14  0.12500000000E+03  0.12500000000E+03 0.  0.
        -11    1    3    3    0    0  0.45130973725E+02  0.16771517071E+02  0.13341539120E+02  0.49960837069E+02  0.51100000000E-03 0.  1.
         23    2    1    0    0    0  0.35216426150E+02 -0.93604032369E+01 -0.10907413034E+02  0.86963366623E+02  0.78203846810E+02 0.  0.
         11    1    3    3    0    0 -0.99145475756E+01 -0.26131920308E+02 -0.24248952154E+02  0.37002529555E+02  0.51100000000E-03 0. -1.
         22    1    1    0    0    0 -0.35216426150E+02  0.93604032369E+01  0.10907413034E+02  0.38036633377E+02  0.00000000000E+00 0.  1.
</event>
<event>
 5    1  0.8952932E-005  0.9118800E+02  0.7818608E-02  0.1130116E+00
         25   -1    0    0    0    0  0.00000000000E+00  0.00000000000E+00  0.99999998245E-14  0.12500000000E+03  0.12500000000E+03 0.  0.
        -11    1    3    3    0    0  0.31940048329E+02 -0.51004963928E+02 -0.13532448668E+02  0.61683062503E+02  0.51100000000E-03 0.  1.
         23    2    1    0    0    0  0.92241787243E+01 -0.27841811224E+02 -0.48089648412E+01  0.95278323261E+02  0.90523923994E+02 0.  0.
         11    1    3    3    0    0 -0.22715869605E+02  0.23163152704E+02  0.87234838264E+01  0.33595260758E+02  0.51100000000E-03 0. -1.
         22    1    1    0    0    0 -0.92241787243E+01  0.27841811224E+02  0.48089648412E+01  0.29721676739E+02  0.00000000000E+00 0.  1.
</event>
<event>
 5    1  0.8952932E-005  0.9118800E+02  0.7818608E-02  0.1130116E+00
         25   -1    0    0    0    0  0.00000000000E+00  0.00000000000E+00  0.99999998245E-14  0.12500000000E+03  0.12500000000E+03 0.  0.
        -11    1    3    3    0    0 -0.28504295257E+02  0.28496862632E+00  0.17308289281E+02  0.33348957005E+02  0.51100000000E-03 0.  1.
         23    2    1    0    0    0  0.90794263690E+01  0.14744014098E+01 -0.29908289150E+02  0.93709177023E+02  0.88330596373E+02 0.  0.
         11    1    3    3    0    0  0.37583721626E+02  0.11894327835E+01 -0.47216578431E+02  0.60360220018E+02  0.51100000000E-03 0. -1.
         22    1    1    0    0    0 -0.90794263690E+01 -0.14744014098E+01  0.29908289150E+02  0.31290822977E+02  0.00000000000E+00 0. -1.
</event>
<event>
 5    1  0.8952932E-005  0.9118800E+02  0.7818608E-02  0.1130116E+00
         25   -1    0    0    0    0  0.00000000000E+00  0.00000000000E+00  0.99999998245E-14  0.12500000000E+03  0.12500000000E+03 0.  0.
        -11    1    3    3    0    0  0.14202271850E+02  0.28362819407E+02  0.40511433528E+01  0.31977582978E+02  0.51100000000E-03 0.  1.
         23    2    1    0    0    0  0.27619375532E+02 -0.25357610839E+02 -0.12290881402E+00  0.87505287855E+02  0.79065301895E+02 0.  0.
         11    1    3    3    0    0  0.13417103682E+02 -0.53720430247E+02 -0.41740521668E+01  0.55527704877E+02  0.51100000000E-03 0. -1.
         22    1    1    0    0    0 -0.27619375532E+02  0.25357610839E+02  0.12290881402E+00  0.37494712145E+02  0.00000000000E+00 0. -1.
</event>
<event>
 5    1  0.8952932E-005  0.9118800E+02  0.7818608E-02  0.1130116E+00
         25   -1    0    0    0    0  0.00000000000E+00  0.00000000000E+00  0.99999998245E-14  0.12500000000E+03  0.12500000000E+03 0.  0.
        -11    1    3    3    0    0  0.45049656864E+02 -0.40272132310E+01  0.30079611920E+02  0.54318257368E+02  0.51100000000E-03 0.  1.
         23    2    1    0    0    0  0.26106351320E+02 -0.10801759157E+02 -0.64489724529E+01  0.96020544763E+02  0.91543083795E+02 0.  0.
         11    1    3    3    0    0 -0.18943305543E+02 -0.67745459261E+01 -0.36528584373E+02  0.41702287395E+02  0.51100000000E-03 0. -1.
         22    1    1    0    0    0 -0.26106351320E+02  0.10801759157E+02  0.64489724529E+01  0.28979455237E+02  0.00000000000E+00 0.  1.
</event>
<event>
 5    1  0.8952932E-005  0.9118800E+02  0.7818608E-02  0.1130116E+00
         25   -1    0    0    0    0  0.00000000000E+00  0.00000000000E+00  0.99999998245E-14  0.12500000000E+03  0.12500000000E+03 0.  0.
        -11    1    3    3    0    0 -0.10231245484E+02 -0.31714539531E+02  0.15695668828E+02  0.36835369172E+02  0.51100000000E-03 0.  1.
         23    2    1    0    0    0  0.31041698327E+02 -0.11502284772E+01 -0.72753635293E+01  0.93096379907E+02  0.87459104596E+02 0.  0.
         11    1    3    3    0    0  0.41272943811E+02  0.30564311054E+02 -0.22971032357E+02  0.56261010734E+02  0.51100000000E-03 0. -1.
         22    1    1    0    0    0 -0.31041698327E+02  0.11502284772E+01  0.72753635293E+01  0.31903620093E+02  0.00000000000E+00 0. -1.
</event>
<event>
 5    1  0.8952932E-005  0.9118800E+02  0.7818608E-02  0.1130116E+00
         25   -1    0    0    0    0  0.00000000000E+00  0.00000000000E+00  0.99999998245E-14  0.12500000000E+03  0.12500000000E+03 0.  0.
        -11    1    3    3    0    0  0.14261972798E+02 -0.31745544431E+02  0.12788505138E+02  0.37077342451E+02  0.51100000000E-03 0. -1.
         23    2    1    0    0    0  0.64931744802E+01  0.26568027364E+02 -0.14739013628E+01  0.97610334466E+02  0.93688759285E+02 0.  0.
         11    1    3    3    0    0 -0.77687983182E+01  0.58313571795E+02 -0.14262406501E+02  0.60532992015E+02  0.51100000000E-03 0.  1.
         22    1    1    0    0    0 -0.64931744802E+01 -0.26568027364E+02  0.14739013628E+01  0.27389665534E+02  0.00000000000E+00 0.  1.
</event>
<event>
 5    1  0.8952932E-005  0.9118800E+02  0.7818608E-02  0.1130116E+00
         25   -1    0    0    0    0  0.00000000000E+00  0.00000000000E+00  0.99999998245E-14  0.12500000000E+03  0.12500000000E+03 0.  0.
        -11    1    3    3    0    0  0.20513376516E+02 -0.20596940671E+02  0.14933257211E+02  0.32680800974E+02  0.51100000000E-03 0.  1.
         23    2    1    0    0    0 -0.32950700445E+02  0.19777894815E+01  0.70102319587E+01  0.91253834838E+02  0.84784778761E+02 0.  0.
         11    1    3    3    0    0 -0.53464076960E+02  0.22574730152E+02 -0.79230252527E+01  0.58573033864E+02  0.51100000000E-03 0. -1.
         22    1    1    0    0    0  0.32950700445E+02 -0.19777894815E+01 -0.70102319587E+01  0.33746165162E+02  0.00000000000E+00 0. -1.
</event>
<event>
 5    1  0.8952932E-005  0.9118800E+02  0.7818608E-02  0.1130116E+00
         25   -1    0    0    0    0  0.00000000000E+00  0.00000000000E+00  0.99999998245E-14  0.12500000000E+03  0.12500000000E+03 0.  0.
        -11    1    3    3    0    0  0.83525969895E+00 -0.13007788246E+02 -0.55710099575E+02  0.57214643306E+02  0.51100000000E-03 0.  1.
         23    2    1    0    0    0  0.13885462203E+02  0.61343876155E+01 -0.26040706273E+02  0.94857751324E+02  0.89941302142E+02 0.  0.
         11    1    3    3    0    0  0.13050202504E+02  0.19142175861E+02  0.29669393301E+02  0.37643108018E+02  0.51100000000E-03 0. -1.
         22    1    1    0    0    0 -0.13885462203E+02 -0.61343876155E+01  0.26040706273E+02  0.30142248676E+02  0.00000000000E+00 0.  1.
</event>
<event>
 5    1  0.8952932E-005  0.9118800E+02  0.7818608E-02  0.1130116E+00
         25   -1    0    0    0    0  0.00000000000E+00  0.00000000000E+00  0.99999998245E-14  0.12500000000E+03  0.12500000000E+03 0.  0.
        -11    1    3    3    0    0  0.37153693566E+02 -0.33466604692E+01  0.48615025264E+02  0.61278199742E+02  0.51100000000E-03 0. -1.
         23    2    1    0    0    0  0.11585402626E+02 -0.70655933762E+01  0.26246545494E+02  0.95452998221E+02  0.90764803505E+02 0.  0.
         11    1    3    3    0    0 -0.25568290940E+02 -0.37189329070E+01 -0.22368479770E+02  0.34174798479E+02  0.51100000000E-03 0.  1.
         22    1    1    0    0    0 -0.11585402626E+02  0.70655933762E+01 -0.26246545494E+02  0.29547001779E+02  0.00000000000E+00 0. -1.
</event>
<event>
 5    1  0.8952932E-005  0.9118800E+02  0.7818608E-02  0.1130116E+00
         25   -1    0    0    0    0  0.00000000000E+00  0.00000000000E+00  0.99999998245E-14  0.12500000000E+03  0.12500000000E+03 0.  0.
        -11    1    3    3    0    0 -0.11919294295E+02  0.18047068173E+02 -0.27993797575E+02  0.35375400337E+02  0.51100000000E-03 0.  1.
         23    2    1    0    0    0  0.98609970860E+01 -0.23310778598E+02  0.12089053790E+02  0.96950456618E+02  0.92804170997E+02 0.  0.
         11    1    3    3    0    0  0.21780291381E+02 -0.41357846771E+02  0.40082851365E+02  0.61575056281E+02  0.51100000000E-03 0. -1.
         22    1    1    0    0    0 -0.98609970860E+01  0.23310778598E+02 -0.12089053790E+02  0.28049543382E+02  0.00000000000E+00 0. -1.
</event>
<event>
 5    1  0.8952932E-005  0.9118800E+02  0.7818608E-02  0.1130116E+00
         25   -1    0    0    0    0  0.00000000000E+00  0.00000000000E+00  0.99999998245E-14  0.12500000000E+03  0.12500000000E+03 0.  0.
        -11    1    3    3    0    0 -0.20150017855E+02 -0.33853946778E+02  0.18784962468E+01  0.39441623704E+02  0.51100000000E-03 0. -1.
         23    2    1    0    0    0  0.23820261116E+00  0.23714020015E+02  0.56205514647E+01  0.10062784202E+03  0.97631759717E+02 0.  0.
         11    1    3    3    0    0  0.20388220466E+02  0.57567966793E+02  0.37420552178E+01  0.61186218317E+02  0.51100000000E-03 0.  1.
         22    1    1    0    0    0 -0.23820261116E+00 -0.23714020015E+02 -0.56205514647E+01  0.24372157978E+02  0.00000000000E+00 0.  1.
</event>
<event>
 5    1  0.8952932E-005  0.9118800E+02  0.7818608E-02  0.1130116E+00
         25   -1    0    0    0    0  0.00000000000E+00  0.00000000000E+00  0.99999998245E-14  0.12500000000E+03  0.12500000000E+03 0.  0.
        -11    1    3    3    0    0  0.36323529061E+02  0.83134584658E+01 -0.16400912815E+02  0.40712434176E+02  0.51100000000E-03 0.  1.
         23    2    1    0    0    0 -0.16890512689E+02  0.21873905018E+02 -0.76917180438E+01  0.96313423591E+02  0.91942133419E+02 0.  0.
         11    1    3    3    0    0 -0.53214041750E+02  0.13560446552E+02  0.87091947717E+01  0.55600989415E+02  0.51100000000E-03 0. -1.
         22    1    1    0    0    0  0.16890512689E+02 -0.21873905018E+02  0.76917180438E+01  0.28686576409E+02  0.00000000000E+00 0. -1.
</event>
<event>
 5    1  0.8952932E-005  0.9118800E+02  0.7818608E-02  0.1130116E+00
         25   -1    0    0    0    0  0.00000000000E+00  0.00000000000E+00  0.99999998245E-14  0.12500000000E+03  0.12500000000E+03 0.  0.
        -11    1    3    3    0    0 -0.29206767388E+02  0.82560139675E+01  0.84077511772E+01  0.31494242458E+02  0.51100000000E-03 0.  1.
         23    2    1    0    0    0  0.10288270021E+02 -0.24336077153E+02 -0.21624164670E+02  0.90857685361E+02  0.84198701536E+02 0.  0.
         11    1    3    3    0    0  0.39495037409E+02 -0.32592091121E+02 -0.30031915847E+02  0.59363442903E+02  0.51100000000E-03 0. -1.
         22    1    1    0    0    0 -0.10288270021E+02  0.24336077153E+02  0.21624164670E+02  0.34142314639E+02  0.00000000000E+00 0. -1.
</event>
<event>
 5    1  0.8952932E-005  0.9118800E+02  0.7818608E-02  0.1130116E+00
         25   -1    0    0    0    0  0.00000000000E+00  0.00000000000E+00  0.99999998245E-14  0.12500000000E+03  0.12500000000E+03 0.  0.
        -11    1    3    3    0    0  0.29834545792E+02  0.17877962394E+02  0.21616198888E+01  0.34848160106E+02  0.51100000000E-03 0.  1.
         23    2    1    0    0    0 -0.27486464788E+02  0.12643858670E+01 -0.99423847980E+01  0.95743283956E+02  0.91163704341E+02 0.  0.
         11    1    3    3    0    0 -0.57321010581E+02 -0.16613576527E+02 -0.12104004687E+02  0.60895123850E+02  0.51100000000E-03 0. -1.
         22    1    1    0    0    0  0.27486464788E+02 -0.12643858670E+01  0.99423847980E+01  0.29256716044E+02  0.00000000000E+00 0. -1.
</event>
<event>
 5    1  0.8952932E-005  0.9118800E+02  0.7818608E-02  0.1130116E+00
         25   -1    0    0    0    0  0.00000000000E+00  0.00000000000E+00  0.99999998245E-14  0.12500000000E+03  0.12500000000E+03 0.  0.
        -11    1    3    3    0    0  0.14454523745E+02  0.39543334067E+02 -0.91642449949E+01  0.43088187621E+02  0.51100000000E-03 0.  1.
         23    2    1    0    0    0 -0.12691788322E+02 -0.14332574857E+02 -0.99553250709E+01  0.10342193961E+03  0.10114585954E+03 0.  0.
         11    1    3    3    0    0 -0.27146312068E+02 -0.53875908925E+02 -0.79108007600E+00  0.60333751991E+02  0.51100000000E-03 0. -1.
         22    1    1    0    0    0  0.12691788322E+02  0.14332574857E+02  0.99553250709E+01  0.21578060388E+02  0.00000000000E+00 0. -1.
</event>
<event>
 5    1  0.8952932E-005  0.9118800E+02  0.7818608E-02  0.1130116E+00
         25   -1    0    0    0    0  0.00000000000E+00  0.00000000000E+00  0.99999998245E-14  0.12500000000E+03  0.12500000000E+03 0.  0.
        -11    1    3    3    0    0  0.13953744003E+02 -0.35210504992E+02  0.20579148646E+02  0.43104384843E+02  0.51100000000E-03 0. -1.
         23    2    1    0    0    0 -0.23037515276E+02  0.92371289189E-01 -0.66308638037E+01  0.10102701526E+03  0.98141498945E+02 0.  0.
         11    1    3    3    0    0 -0.36991259278E+02  0.35302876281E+02 -0.27210012449E+02  0.57922630417E+02  0.51100000000E-03 0.  1.
         22    1    1    0    0    0  0.23037515276E+02 -0.92371289189E-01  0.66308638037E+01  0.23972984739E+02  0.00000000000E+00 0.  1.
</event>
<event>
 5    1  0.8952932E-005  0.9118800E+02  0.7818608E-02  0.1130116E+00
         25   -1    0    0    0    0  0.00000000000E+00  0.00000000000E+00  0.99999998245E-14  0.12500000000E+03  0.12500000000E+03 0.  0.
        -11    1    3    3    0    0 -0.17022346042E+02 -0.31254725835E+02 -0.25379616753E+02  0.43712047522E+02  0.51100000000E-03 0.  1.
         23    2    1    0    0    0  0.17748475409E+02 -0.20343759926E+02  0.11586407568E+02  0.95621065581E+02  0.90995969115E+02 0.  0.
         11    1    3    3    0    0  0.34770821451E+02  0.10910965909E+02  0.36966024321E+02  0.51909018059E+02  0.51100000000E-03 0. -1.
         22    1    1    0    0    0 -0.17748475409E+02  0.20343759926E+02 -0.11586407568E+02  0.29378934419E+02  0.00000000000E+00 0. -1.
</event>
<event>
 5    1  0.8952932E-005  0.9118800E+02  0.7818608E-02  0.1130116E+00
         25   -1    0    0    0    0  0.00000000000E+00  0.00000000000E+00  0.99999998245E-14  0.12500000000E+03  0.12500000000E+03 0.  0.
        -11    1    3    3    0    0 -0.84169913076E+01  0.42577138086E+02 -0.41835304674E+02  0.60281432861E+02  0.51100000000E-03 0.  1.
         23    2    1    0    0    0 -0.41015427732E+01  0.14492115201E+02 -0.30708278618E+02  0.90797040599E+02  0.84108621138E+02 0.  0.
         11    1    3    3    0    0  0.43154485344E+01 -0.28085022885E+02  0.11127026056E+02  0.30515607738E+02  0.51100000000E-03 0. -1.
         22    1    1    0    0    0  0.41015427732E+01 -0.14492115201E+02  0.30708278618E+02  0.34202959401E+02  0.00000000000E+00 0.  1.
</event>
<event>
 5    1  0.8952932E-005  0.9118800E+02  0.7818608E-02  0.1130116E+00
         25   -1    0    0    0    0  0.00000000000E+00  0.00000000000E+00  0.99999998245E-14  0.12500000000E+03  0.12500000000E+03 0.  0.
        -11    1    3    3    0    0  0.45033096491E+01  0.20512228399E+02 -0.30556809473E+02  0.37077620165E+02  0.51100000000E-03 0.  1.
         23    2    1    0    0    0  0.53295339288E+01 -0.26556248978E+02  0.66829364783E+01  0.97101972621E+02  0.93008027370E+02 0.  0.
         11    1    3    3    0    0  0.82622427969E+00 -0.47068477376E+02  0.37239745951E+02  0.60024352456E+02  0.51100000000E-03 0. -1.
         22    1    1    0    0    0 -0.53295339288E+01  0.26556248978E+02 -0.66829364783E+01  0.27898027379E+02  0.00000000000E+00 0. -1.
</event>
<event>
 5    1  0.8952932E-005  0.9118800E+02  0.7818608E-02  0.1130116E+00
         25   -1    0    0    0    0  0.00000000000E+00  0.00000000000E+00  0.99999998245E-14  0.12500000000E+03  0.12500000000E+03 0.  0.
        -11    1    3    3    0    0  0.91602050058E+00  0.31478385171E+02 -0.20291647222E+02  0.37463032095E+02  0.51100000000E-03 0.  1.
         23    2    1    0    0    0  0.92761634848E-01 -0.23525475611E+02 -0.22403380083E+02  0.92513571348E+02  0.86622126717E+02 0.  0.
         11    1    3    3    0    0 -0.82325886573E+00 -0.55003860782E+02 -0.21117328606E+01  0.55050539252E+02  0.51100000000E-03 0. -1.
         22    1    1    0    0    0 -0.92761634848E-01  0.23525475611E+02  0.22403380083E+02  0.32486428652E+02  0.00000000000E+00 0. -1.
</event>
<event>
 5    1  0.8952932E-005  0.9118800E+02  0.7818608E-02  0.1130116E+00
         25   -1    0    0    0    0  0.00000000000E+00  0.00000000000E+00  0.99999998245E-14  0.12500000000E+03  0.12500000000E+03 0.  0.
        -11    1    3    3    0    0  0.32286853928E+02  0.65918162510E+01  0.30752218411E+01  0.33096071786E+02  0.51100000000E-03 0. -1.
         23    2    1    0    0    0 -0.22944978788E+02 -0.18233451901E+02  0.99728072817E+01  0.94042162465E+02  0.88800566531E+02 0.  0.
         11    1    3    3    0    0 -0.55231832715E+02 -0.24825268152E+02  0.68975854406E+01  0.60946090679E+02  0.51100000000E-03 0.  1.
         22    1    1    0    0    0  0.22944978788E+02  0.18233451901E+02 -0.99728072817E+01  0.30957837535E+02  0.00000000000E+00 0.  1.
</event>
<event>
 5    1  0.8952932E-005  0.9118800E+02  0.7818608E-02  0.1130116E+00
         25   -1    0    0    0    0  0.00000000000E+00  0.00000000000E+00  0.99999998245E-14  0.12500000000E+03  0.12500000000E+03 0.  0.
        -11    1    3    3    0    0 -0.99071181342E+01 -0.19900105189E+02 -0.23964258813E+02  0.32687166855E+02  0.51100000000E-03 0.  1.
         23    2    1    0    0    0  0.19952479817E+02  0.18286174321E+02  0.14249959375E+02  0.94413287781E+02  0.89321452884E+02 0.  0.
         11    1    3    3    0    0  0.29859597951E+02  0.38186279510E+02  0.38214218189E+02  0.61726120927E+02  0.51100000000E-03 0. -1.
         22    1    1    0    0    0 -0.19952479817E+02 -0.18286174321E+02 -0.14249959375E+02  0.30586712219E+02  0.00000000000E+00 0. -1.
</event>
<event>
 5    1  0.8952932E-005  0.9118800E+02  0.7818608E-02  0.1130116E+00
         25   -1    0    0    0    0  0.00000000000E+00  0.00000000000E+00  0.99999998245E-14  0.12500000000E+03  0.12500000000E+03 0.  0.
        -11    1    3    3    0    0 -0.51912813071E+01  0.33860380505E+02 -0.14800319654E+02  0.37316540993E+02  0.51100000000E-03 0. -1.
         23    2    1    0    0    0 -0.16730718586E+02 -0.22927701398E+02 -0.67888647660E+01  0.95816355255E+02  0.91263841765E+02 0.  0.
         11    1    3    3    0    0 -0.11539437279E+02 -0.56788081903E+02  0.80114548880E+01  0.58499814262E+02  0.51100000000E-03 0.  1.
         22    1    1    0    0    0  0.16730718586E+02  0.22927701398E+02  0.67888647660E+01  0.29183644745E+02  0.00000000000E+00 0.  1.
</event>
<event>
 5    1  0.8952932E-005  0.9118800E+02  0.7818608E-02  0.1130116E+00
         25   -1    0    0    0    0  0.00000000000E+00  0.00000000000E+00  0.99999998245E-14  0.12500000000E+03  0.12500000000E+03 0.  0.
        -11    1    3    3    0    0  0.34289462737E+02 -0.37985178312E+02  0.27161083484E-01  0.51172666182E+02  0.51100000000E-03 0.  1.
         23    2    1    0    0    0  0.34865585764E+01 -0.16170269258E+02 -0.23952188702E+02  0.95890876993E+02  0.91365853842E+02 0.  0.
         11    1    3    3    0    0 -0.30802904160E+02  0.21814909055E+02 -0.23979349786E+02  0.44718210811E+02  0.51100000000E-03 0. -1.
         22    1    1    0    0    0 -0.34865585764E+01  0.16170269258E+02  0.23952188702E+02  0.29109123007E+02  0.00000000000E+00 0. -1.
</event>
<event>
 5    1  0.8952932E-005  0.9118800E+02  0.7818608E-02  0.1130116E+00
         25   -1    0    0    0    0  0.00000000000E+00  0.00000000000E+00  0.99999998245E-14  0.12500000000E+03  0.12500000000E+03 0.  0.
        -11    1    3    3    0    0 -0.25934171041E+02 -0.13966006362E+02  0.32004637112E+02  0.43496291316E+02  0.51100000000E-03 0.  1.
         23    2    1    0    0    0  0.13881210126E+02 -0.25962238893E+02  0.69023819343E+00  0.95551701719E+02  0.90900634925E+02 0.  0.
         11    1    3    3    0    0  0.39815381167E+02 -0.11996232531E+02 -0.31314398919E+02  0.52055410403E+02  0.51100000000E-03 0. -1.
         22    1    1    0    0    0 -0.13881210126E+02  0.25962238893E+02 -0.69023819343E+00  0.29448298281E+02  0.00000000000E+00 0. -1.
</event>
<event>
 5    1  0.8952932E-005  0.9118800E+02  0.7818608E-02  0.1130116E+00
         25   -1    0    0    0    0  0.00000000000E+00  0.00000000000E+00  0.99999998245E-14  0.12500000000E+03  0.12500000000E+03 0.  0.
        -11    1    3    3    0    0  0.18500404355E+02 -0.54857177773E+02  0.64398467806E+00  0.57896369758E+02  0.51100000000E-03 0. -1.
         23    2    1    0    0    0  0.21614780346E+02 -0.21480009441E+02 -0.97707695864E+01  0.92999101993E+02  0.87319960480E+02 0.  0.
         11    1    3    3    0    0  0.31143759903E+01  0.33377168333E+02 -0.10414754264E+02  0.35102732235E+02  0.51100000000E-03 0.  1.
         22    1    1    0    0    0 -0.21614780346E+02  0.21480009441E+02  0.97707695864E+01  0.32000898007E+02  0.00000000000E+00 0. -1.
</event>
<event>
 5    1  0.8952932E-005  0.9118800E+02  0.7818608E-02  0.1130116E+00
         25   -1    0    0    0    0  0.00000000000E+00  0.00000000000E+00  0.99999998245E-14  0.12500000000E+03  0.12500000000E+03 0.  0.
        -11    1    3    3    0    0  0.21519276552E+02 -0.31938337386E+02  0.41977582996E+02  0.56967132039E+02  0.51100000000E-03 0.  1.
         23    2    1    0    0    0  0.58242149076E+01  0.13303311465E+01  0.28082529176E+02  0.96289031623E+02  0.91908965317E+02 0.  0.
         11    1    3    3    0    0 -0.15695061645E+02  0.33268668532E+02 -0.13895053820E+02  0.39321899584E+02  0.51100000000E-03 0. -1.
         22    1    1    0    0    0 -0.58242149076E+01 -0.13303311465E+01 -0.28082529176E+02  0.28710968377E+02  0.00000000000E+00 0.  1.
</event>
<event>
 5    1  0.8952932E-005  0.9118800E+02  0.7818608E-02  0.1130116E+00
         25   -1    0    0    0    0  0.00000000000E+00  0.00000000000E+00  0.99999998245E-14  0.12500000000E+03  0.12500000000E+03 0.  0.
        -11    1    3    3    0    0  0.28639210251E+02  0.33937018640E+02 -0.36959222570E+02  0.57774646094E+02  0.51100000000E-03 0.  1.
         23    2    1    0    0    0  0.12223245167E+02  0.25755102586E+02 -0.30472715408E+01  0.96329128101E+02  0.91963482020E+02 0.  0.
         11    1    3    3    0    0 -0.16415965084E+02 -0.81819160548E+01  0.33911951029E+02  0.38554482007E+02  0.51100000000E-03 0. -1.
         22    1    1    0    0    0 -0.12223245167E+02 -0.25755102586E+02  0.30472715408E+01  0.28670871899E+02  0.00000000000E+00 0.  1.
</event>
<event>
 5    1  0.8952932E-005  0.9118800E+02  0.7818608E-02  0.1130116E+00
         25   -1    0    0    0    0  0.00000000000E+00  0.00000000000E+00  0.99999998245E-14  0.12500000000E+03  0.12500000000E+03 0.  0.
        -11    1    3    3    0    0 -0.93103004856E+01  0.27543537993E+02  0.37758556736E+02  0.47655396203E+02  0.51100000000E-03 0. -1.
         23    2    1    0    0    0  0.13392601576E+02  0.26519366683E+02 -0.38267169475E+01  0.95045328430E+02  0.90201619207E+02 0.  0.
         11    1    3    3    0    0  0.22702902062E+02 -0.10241713096E+01 -0.41585273683E+02  0.47389932227E+02  0.51100000000E-03 0.  1.
         22    1    1    0    0    0 -0.13392601576E+02 -0.26519366683E+02  0.38267169475E+01  0.29954671570E+02  0.00000000000E+00 0.  1.
</event>
<event>
 5    1  0.8952932E-005  0.9118800E+02  0.7818608E-02  0.1130116E+00
         25   -1    0    0    0    0  0.00000000000E+00  0.00000000000E+00  0.99999998245E-14  0.12500000000E+03  0.12500000000E+03 0.  0.
        -11    1    3    3    0    0  0.29680327062E+01  0.37766484941E+02 -0.49359221600E+02  0.62220972029E+02  0.51100000000E-03 0.  1.
         23    2    1    0    0    0  0.38182723968E+01  0.14331383066E+02 -0.24218881344E+02  0.96600669757E+02  0.92331833294E+02 0.  0.
         11    1    3    3    0    0  0.85023969066E+00 -0.23435101876E+02  0.25140340256E+02  0.34379697729E+02  0.51100000000E-03 0. -1.
         22    1    1    0    0    0 -0.38182723968E+01 -0.14331383066E+02  0.24218881344E+02  0.28399330243E+02  0.00000000000E+00 0.  1.
</event>
<event>
 5    1  0.8952932E-005  0.9118800E+02  0.7818608E-02  0.1130116E+00
         25   -1    0    0    0    0  0.00000000000E+00  0.00000000000E+00  0.99999998245E-14  0.12500000000E+03  0.12500000000E+03 0.  0.
        -11    1    3    3    0    0 -0.36797390098E+02 -0.15257898176E+02  0.16724018474E+02  0.43203520331E+02  0.51100000000E-03 0.  1.
         23    2    1    0    0    0 -0.10222053111E+02 -0.33423137518E+01 -0.27112115009E+02  0.95832754480E+02  0.91286300286E+02 0.  0.
         11    1    3    3    0    0  0.26575336988E+02  0.11915584424E+02 -0.43836133482E+02  0.52629234149E+02  0.51100000000E-03 0. -1.
         22    1    1    0    0    0  0.10222053111E+02  0.33423137518E+01  0.27112115009E+02  0.29167245520E+02  0.00000000000E+00 0. -1.
</event>
<event>
 5    1  0.8952932E-005  0.9118800E+02  0.7818608E-02  0.1130116E+00
         25   -1    0    0    0    0  0.00000000000E+00  0.00000000000E+00  0.99999998245E-14  0.12500000000E+03  0.12500000000E+03 0.  0.
        -11    1    3    3    0    0  0.13108113411E+02  0.21802183111E+02 -0.53630011376E+02  0.59357694919E+02  0.51100000000E-03 0.  1.
         23    2    1    0    0    0  0.18033723249E+02  0.20575481919E+02 -0.26668072751E+02  0.86793302489E+02  0.77931544462E+02 0.  0.
         11    1    3    3    0    0  0.49256098379E+01 -0.12267011919E+01  0.26961938625E+02  0.27435607570E+02  0.51100000000E-03 0. -1.
         22    1    1    0    0    0 -0.18033723249E+02 -0.20575481919E+02  0.26668072751E+02  0.38206697511E+02  0.00000000000E+00 0.  1.
</event>
<event>
 5    1  0.8952932E-005  0.9118800E+02  0.7818608E-02  0.1130116E+00
         25   -1    0    0    0    0  0.00000000000E+00  0.00000000000E+00  0.99999998245E-14  0.12500000000E+03  0.12500000000E+03 0.  0.
        -11    1    3    3    0    0  0.38533372888E+02  0.29900741303E+02  0.36392932013E+02  0.60854914817E+02  0.51100000000E-03 0.  1.
         23    2    1    0    0    0  0.80497484956E+01  0.18565584896E+02  0.12441272290E+02  0.10124574460E+03  0.98419693914E+02 0.  0.
         11    1    3    3    0    0 -0.30483624392E+02 -0.11335156407E+02 -0.23951659723E+02  0.40390829784E+02  0.51100000000E-03 0. -1.
         22    1    1    0    0    0 -0.80497484956E+01 -0.18565584896E+02 -0.12441272290E+02  0.23754255399E+02  0.00000000000E+00 0.  1.
</event>
<event>
 5    1  0.8952932E-005  0.9118800E+02  0.7818608E-02  0.1130116E+00
         25   -1    0    0    0    0  0.00000000000E+00  0.00000000000E+00  0.99999998245E-14  0.12500000000E+03  0.12500000000E+03 0.  0.
        -11    1    3    3    0    0 -0.17527143363E+02  0.50378342401E+02 -0.31377747214E+02  0.61884902505E+02  0.51100000000E-03 0. -1.
         23    2    1    0    0    0 -0.11007702103E+02  0.16396006985E+02 -0.77454684287E+01  0.10378701266E+03  0.10159602928E+03 0.  0.
         11    1    3    3    0    0  0.65194412599E+01 -0.33982335416E+02  0.23632278786E+02  0.41902110156E+02  0.51100000000E-03 0.  1.
         22    1    1    0    0    0  0.11007702103E+02 -0.16396006985E+02  0.77454684287E+01  0.21212987339E+02  0.00000000000E+00 0. -1.
</event>
<event>
 5    1  0.8952932E-005  0.9118800E+02  0.7818608E-02  0.1130116E+00
         25   -1    0    0    0    0  0.00000000000E+00  0.00000000000E+00  0.99999998245E-14  0.12500000000E+03  0.12500000000E+03 0.  0.
        -11    1    3    3    0    0  0.12172922932E+02 -0.26021150466E+02 -0.34926079655E+02  0.45222907520E+02  0.51100000000E-03 0.  1.
         23    2    1    0    0    0 -0.21346029972E+02 -0.25628462187E+02 -0.31844559737E+02  0.78885500604E+02  0.64002930800E+02 0.  0.
         11    1    3    3    0    0 -0.33518952904E+02  0.39268827819E+00  0.30815199174E+01  0.33662593084E+02  0.51100000000E-03 0. -1.
         22    1    1    0    0    0  0.21346029972E+02  0.25628462187E+02  0.31844559737E+02  0.46114499396E+02  0.00000000000E+00 0.  1.
</event>
<event>
 5    1  0.8952932E-005  0.9118800E+02  0.7818608E-02  0.1130116E+00
         25   -1    0    0    0    0  0.00000000000E+00  0.00000000000E+00  0.99999998245E-14  0.12500000000E+03  0.12500000000E+03 0.  0.
        -11    1    3    3    0    0  0.12567282821E+02  0.15148647825E+02 -0.38995147708E+02  0.43681113465E+02  0.51100000000E-03 0. -1.
         23    2    1    0    0    0 -0.86732421881E+01  0.27061052741E+02  0.70071522127E+01  0.95731828079E+02  0.91147995149E+02 0.  0.
         11    1    3    3    0    0 -0.21240525009E+02  0.11912404916E+02  0.46002299921E+02  0.52050714614E+02  0.51100000000E-03 0.  1.
         22    1    1    0    0    0  0.86732421881E+01 -0.27061052741E+02 -0.70071522127E+01  0.29268171921E+02  0.00000000000E+00 0.  1.
</event>
<event>
 5    1  0.8952932E-005  0.9118800E+02  0.7818608E-02  0.1130116E+00
         25   -1    0    0    0    0  0.00000000000E+00  0.00000000000E+00  0.99999998245E-14  0.12500000000E+03  0.12500000000E+03 0.  0.
        -11    1    3    3    0    0  0.41951919598E+02  0.12117984447E+02 -0.42962680910E+02  0.61258477424E+02  0.51100000000E-03 0.  1.
         23    2    1    0    0    0  0.11853606922E+02  0.51650000461E+01 -0.24636841817E+02  0.97176283547E+02  0.93107845463E+02 0.  0.
         11    1    3    3    0    0 -0.30098312676E+02 -0.69529844007E+01  0.18325839093E+02  0.35917806124E+02  0.51100000000E-03 0. -1.
         22    1    1    0    0    0 -0.11853606922E+02 -0.51650000461E+01  0.24636841817E+02  0.27823716453E+02  0.00000000000E+00 0.  1.
</event>
<event>
 5    1  0.8952932E-005  0.9118800E+02  0.7818608E-02  0.1130116E+00
         25   -1    0    0    0    0  0.00000000000E+00  0.00000000000E+00  0.99999998245E-14  0.12500000000E+03  0.12500000000E+03 0.  0.
        -11    1    3    3    0    0 -0.56597218709E+01  0.46245582916E+02  0.17740660078E+02  0.49853960837E+02  0.51100000000E-03 0. -1.
         23    2    1    0    0    0 -0.10817721850E+02  0.18466706760E+02 -0.19122757012E+02  0.96299439024E+02  0.91923118725E+02 0.  0.
         11    1    3    3    0    0 -0.51579999793E+01 -0.27778876156E+02 -0.36863417089E+02  0.46445478187E+02  0.51100000000E-03 0.  1.
         22    1    1    0    0    0  0.10817721850E+02 -0.18466706760E+02  0.19122757012E+02  0.28700560976E+02  0.00000000000E+00 0. -1.
</event>
<event>
 5    1  0.8952932E-005  0.9118800E+02  0.7818608E-02  0.1130116E+00
         25   -1    0    0    0    0  0.00000000000E+00  0.00000000000E+00  0.99999998245E-14  0.12500000000E+03  0.12500000000E+03 0.  0.
        -11    1    3    3    0    0 -0.98877444497E+01  0.27940875088E+02  0.25266619669E+02  0.38946913366E+02  0.51100000000E-03 0. -1.
         23    2    1    0    0    0 -0.24006719623E+02 -0.42721498964E+01 -0.17990124558E+02  0.94697880711E+02  0.89718839592E+02 0.  0.
         11    1    3    3    0    0 -0.14118975173E+02 -0.32213024984E+02 -0.43256744227E+02  0.55750967345E+02  0.51100000000E-03 0.  1.
         22    1    1    0    0    0  0.24006719623E+02  0.42721498964E+01  0.17990124558E+02  0.30302119289E+02  0.00000000000E+00 0.  1.
</event>
<event>
 5    1  0.8952932E-005  0.9118800E+02  0.7818608E-02  0.1130116E+00
         25   -1    0    0    0    0  0.00000000000E+00  0.00000000000E+00  0.99999998245E-14  0.12500000000E+03  0.12500000000E+03 0.  0.
        -11    1    3    3    0    0  0.24534331110E+02  0.40940404993E+01 -0.29141154024E+02  0.38313201755E+02  0.51100000000E-03 0. -1.
         23    2    1    0    0    0  0.11490368397E+02 -0.25564594124E+02  0.15110346684E+02  0.93158209606E+02  0.87547429439E+02 0.  0.
         11    1    3    3    0    0 -0.13043962713E+02 -0.29658634623E+02  0.44251500708E+02  0.54845007850E+02  0.51100000000E-03 0.  1.
         22    1    1    0    0    0 -0.11490368397E+02  0.25564594124E+02 -0.15110346684E+02  0.31841790394E+02  0.00000000000E+00 0.  1.
</event>
<event>
 5    1  0.8952932E-005  0.9118800E+02  0.7818608E-02  0.1130116E+00
         25   -1    0    0    0    0  0.00000000000E+00  0.00000000000E+00  0.99999998245E-14  0.12500000000E+03  0.12500000000E+03 0.  0.
        -11    1    3    3    0    0  0.99710520032E+00 -0.19553779206E+02 -0.51393123580E+02  0.54996342166E+02  0.51100000000E-03 0.  1.
         23    2    1    0    0    0 -0.91870608443E+00 -0.27242040555E+02 -0.11931694580E+02  0.95245367923E+02  0.90478406158E+02 0.  0.
         11    1    3    3    0    0 -0.19158112847E+01 -0.76882613487E+01  0.39461429000E+02  0.40249025758E+02  0.51100000000E-03 0. -1.
         22    1    1    0    0    0  0.91870608443E+00  0.27242040555E+02  0.11931694580E+02  0.29754632077E+02  0.00000000000E+00 0.  1.
</event>
<event>
 5    1  0.8952932E-005  0.9118800E+02  0.7818608E-02  0.1130116E+00
         25   -1    0    0    0    0  0.00000000000E+00  0.00000000000E+00  0.99999998245E-14  0.12500000000E+03  0.12500000000E+03 0.  0.
        -11    1    3    3    0    0  0.47135053351E+02 -0.64781636964E+01 -0.20018071549E+02  0.51617855904E+02  0.51100000000E-03 0.  1.
         23    2    1    0    0    0  0.24085063098E+02  0.13972968301E+02  0.10739298146E+02  0.95155961530E+02  0.90354802763E+02 0.  0.
         11    1    3    3    0    0 -0.23049990254E+02  0.20451131997E+02  0.30757369695E+02  0.43538105626E+02  0.51100000000E-03 0. -1.
         22    1    1    0    0    0 -0.24085063098E+02 -0.13972968301E+02 -0.10739298146E+02  0.29844038470E+02  0.00000000000E+00 0.  1.
</event>
<event>
 5    1  0.8952932E-005  0.9118800E+02  0.7818608E-02  0.1130116E+00
         25   -1    0    0    0    0  0.00000000000E+00  0.00000000000E+00  0.99999998245E-14  0.12500000000E+03  0.12500000000E+03 0.  0.
        -11    1    3    3    0    0 -0.16575266777E+02 -0.19808625982E+02 -0.53452564207E+02  0.59365796151E+02  0.51100000000E-03 0.  1.
         23    2    1    0    0    0 -0.39250262979E+01 -0.21407252153E+02 -0.18974915598E+02  0.96125726016E+02  0.91686593916E+02 0.  0.
         11    1    3    3    0    0  0.12650240479E+02 -0.15986261706E+01  0.34477648609E+02  0.36759929865E+02  0.51100000000E-03 0. -1.
         22    1    1    0    0    0  0.39250262979E+01  0.21407252153E+02  0.18974915598E+02  0.28874273984E+02  0.00000000000E+00 0.  1.
</event>
<event>
 5    1  0.8952932E-005  0.9118800E+02  0.7818608E-02  0.1130116E+00
         25   -1    0    0    0    0  0.00000000000E+00  0.00000000000E+00  0.99999998245E-14  0.12500000000E+03  0.12500000000E+03 0.  0.
        -11    1    3    3    0    0 -0.86114835847E+01  0.30417867981E+02 -0.10730578225E+02  0.33384871594E+02  0.51100000000E-03 0.  1.
         23    2    1    0    0    0  0.73549026834E+01 -0.25643324949E+02  0.11736372192E+02  0.95855238204E+02  0.91317082471E+02 0.  0.
         11    1    3    3    0    0  0.15966386268E+02 -0.56061192930E+02  0.22466950417E+02  0.62470366610E+02  0.51100000000E-03 0. -1.
         22    1    1    0    0    0 -0.73549026834E+01  0.25643324949E+02 -0.11736372192E+02  0.29144761796E+02  0.00000000000E+00 0. -1.
</event>
<event>
 5    1  0.8952932E-005  0.9118800E+02  0.7818608E-02  0.1130116E+00
         25   -1    0    0    0    0  0.00000000000E+00  0.00000000000E+00  0.99999998245E-14  0.12500000000E+03  0.12500000000E+03 0.  0.
        -11    1    3    3    0    0  0.20014065304E+02  0.15302921162E+02  0.70397964509E+01  0.26159146401E+02  0.51100000000E-03 0.  1.
         23    2    1    0    0    0 -0.72736995443E+01 -0.29077408773E+02 -0.23822654209E+02  0.86712648831E+02  0.77802070716E+02 0.  0.
         11    1    3    3    0    0 -0.27287764848E+02 -0.44380329935E+02 -0.30862450660E+02  0.60553502430E+02  0.51100000000E-03 0. -1.
         22    1    1    0    0    0  0.72736995443E+01  0.29077408773E+02  0.23822654209E+02  0.38287351169E+02  0.00000000000E+00 0. -1.
</event>
<event>
 5    1  0.8952932E-005  0.9118800E+02  0.7818608E-02  0.1130116E+00
         25   -1    0    0    0    0  0.00000000000E+00  0.00000000000E+00  0.99999998245E-14  0.12500000000E+03  0.12500000000E+03 0.  0.
        -11    1    3    3    0    0  0.33916918987E+02 -0.26467363214E+02  0.43331856161E+01  0.43239509790E+02  0.51100000000E-03 0. -1.
         23    2    1    0    0    0 -0.17090657078E+02 -0.17782496021E+02  0.15088033991E+02  0.96087087767E+02  0.91633901706E+02 0.  0.
         11    1    3    3    0    0 -0.51007576065E+02  0.86848671930E+01  0.10754848375E+02  0.52847577977E+02  0.51100000000E-03 0.  1.
         22    1    1    0    0    0  0.17090657078E+02  0.17782496021E+02 -0.15088033991E+02  0.28912912233E+02  0.00000000000E+00 0.  1.
</event>
<event>
 5    1  0.8952932E-005  0.9118800E+02  0.7818608E-02  0.1130116E+00
         25   -1    0    0    0    0  0.00000000000E+00  0.00000000000E+00  0.99999998245E-14  0.12500000000E+03  0.12500000000E+03 0.  0.
        -11    1    3    3    0    0 -0.22454650671E+02 -0.20705729222E+02 -0.87699435313E+01  0.31778144521E+02  0.51100000000E-03 0.  1.
         23    2    1    0    0    0  0.16585471166E+02  0.25290382534E+02  0.66190740416E+01  0.94040454724E+02  0.88798162599E+02 0.  0.
         11    1    3    3    0    0  0.39040121837E+02  0.45996111756E+02  0.15389017573E+02  0.62262310203E+02  0.51100000000E-03 0. -1.
         22    1    1    0    0    0 -0.16585471166E+02 -0.25290382534E+02 -0.66190740416E+01  0.30959545276E+02  0.00000000000E+00 0. -1.
</event>
<event>
 5    1  0.8952932E-005  0.9118800E+02  0.7818608E-02  0.1130116E+00
         25   -1    0    0    0    0  0.00000000000E+00  0.00000000000E+00  0.99999998245E-14  0.12500000000E+03  0.12500000000E+03 0.  0.
        -11    1    3    3    0    0 -0.29395808955E+02 -0.20232894554E+02 -0.17642573172E+02  0.39808843170E+02  0.51100000000E-03 0.  1.
         23    2    1    0    0    0 -0.89505400394E+01  0.25885216931E+02  0.80920340169E+01  0.96440629610E+02  0.92114914115E+02 0.  0.
         11    1    3    3    0    0  0.20445268915E+02  0.46118111485E+02  0.25734607189E+02  0.56631786440E+02  0.51100000000E-03 0. -1.
         22    1    1    0    0    0  0.89505400394E+01 -0.25885216931E+02 -0.80920340169E+01  0.28559370390E+02  0.00000000000E+00 0. -1.
</event>
<event>
 5    1  0.8952932E-005  0.9118800E+02  0.7818608E-02  0.1130116E+00
         25   -1    0    0    0    0  0.00000000000E+00  0.00000000000E+00  0.99999998245E-14  0.12500000000E+03  0.12500000000E+03 0.  0.
        -11    1    3    3    0    0  0.34858197703E+01 -0.50073463026E+02  0.12704093463E+02  0.51777375656E+02  0.51100000000E-03 0. -1.
         23    2    1    0    0    0  0.26759010173E+02 -0.30574782718E+02  0.88194119539E+00  0.84359628644E+02  0.73925010389E+02 0.  0.
         11    1    3    3    0    0  0.23273190402E+02  0.19498680308E+02 -0.11822152268E+02  0.32582252988E+02  0.51100000000E-03 0.  1.
         22    1    1    0    0    0 -0.26759010173E+02  0.30574782718E+02 -0.88194119539E+00  0.40640371356E+02  0.00000000000E+00 0. -1.
</event>
<event>
 5    1  0.8952932E-005  0.9118800E+02  0.7818608E-02  0.1130116E+00
         25   -1    0    0    0    0  0.00000000000E+00  0.00000000000E+00  0.99999998245E-14  0.12500000000E+03  0.12500000000E+03 0.  0.
        -11    1    3    3    0    0 -0.17449622438E+02 -0.27885688790E+02  0.12276645139E+02  0.35111493541E+02  0.51100000000E-03 0. -1.
         23    2    1    0    0    0  0.23113050406E+02  0.15211641220E+02  0.13290770996E+02  0.94303881005E+02  0.89168213234E+02 0.  0.
         11    1    3    3    0    0  0.40562672844E+02  0.43097330010E+02  0.10141258564E+01  0.59192387464E+02  0.51100000000E-03 0.  1.
         22    1    1    0    0    0 -0.23113050406E+02 -0.15211641220E+02 -0.13290770996E+02  0.30696118995E+02  0.00000000000E+00 0.  1.
</event>
<event>
 5    1  0.8952932E-005  0.9118800E+02  0.7818608E-02  0.1130116E+00
         25   -1    0    0    0    0  0.00000000000E+00  0.00000000000E+00  0.99999998245E-14  0.12500000000E+03  0.12500000000E+03 0.  0.
        -11    1    3    3    0    0 -0.75083836687E+01  0.27576783622E+02  0.50208803398E+02  0.57773512609E+02  0.51100000000E-03 0.  1.
         23    2    1    0    0    0  0.55361144493E+01 -0.90472267555E+00  0.28660561884E+02  0.95795635706E+02  0.91235458712E+02 0.  0.
         11    1    3    3    0    0  0.13044498118E+02 -0.28481506298E+02 -0.21548241514E+02  0.38022123096E+02  0.51100000000E-03 0. -1.
         22    1    1    0    0    0 -0.55361144493E+01  0.90472267555E+00 -0.28660561884E+02  0.29204364294E+02  0.00000000000E+00 0.  1.
</event>
<event>
 5    1  0.8952932E-005  0.9118800E+02  0.7818608E-02  0.1130116E+00
         25   -1    0    0    0    0  0.00000000000E+00  0.00000000000E+00  0.99999998245E-14  0.12500000000E+03  0.12500000000E+03 0.  0.
        -11    1    3    3    0    0  0.17324250387E+02  0.56089085669E+02  0.95001318738E+01  0.59467366585E+02  0.51100000000E-03 0. -1.
         23    2    1    0    0    0 -0.51298726133E+01  0.29884171141E+02  0.50146071418E+01  0.94266865396E+02  0.89116307985E+02 0.  0.
         11    1    3    3    0    0 -0.22454123000E+02 -0.26204914528E+02 -0.44855247320E+01  0.34799498811E+02  0.51100000000E-03 0.  1.
         22    1    1    0    0    0  0.51298726133E+01 -0.29884171141E+02 -0.50146071418E+01  0.30733134604E+02  0.00000000000E+00 0. -1.
</event>
<event>
 5    1  0.8952932E-005  0.9118800E+02  0.7818608E-02  0.1130116E+00
         25   -1    0    0    0    0  0.00000000000E+00  0.00000000000E+00  0.99999998245E-14  0.12500000000E+03  0.12500000000E+03 0.  0.
        -11    1    3    3    0    0  0.13532495965E+02  0.30029323195E+02  0.20370940522E+02  0.38728076593E+02  0.51100000000E-03 0. -1.
         23    2    1    0    0    0 -0.23781336589E+02 -0.12420416501E+02  0.10931298753E+02  0.96029117921E+02  0.91554789499E+02 0.  0.
         11    1    3    3    0    0 -0.37313832554E+02 -0.42449739697E+02 -0.94396417691E+01  0.57301041327E+02  0.51100000000E-03 0.  1.
         22    1    1    0    0    0  0.23781336589E+02  0.12420416501E+02 -0.10931298753E+02  0.28970882079E+02  0.00000000000E+00 0.  1.
</event>
<event>
 5    1  0.8952932E-005  0.9118800E+02  0.7818608E-02  0.1130116E+00
         25   -1    0    0    0    0  0.00000000000E+00  0.00000000000E+00  0.99999998245E-14  0.12500000000E+03  0.12500000000E+03 0.  0.
        -11    1    3    3    0    0  0.33858833432E+02  0.49066165325E+02  0.28087128385E+01  0.59680801345E+02  0.51100000000E-03 0.  1.
         23    2    1    0    0    0  0.13977592210E+02  0.20318879144E+02  0.14322127479E+02  0.96480650968E+02  0.92169207125E+02 0.  0.
         11    1    3    3    0    0 -0.19881241222E+02 -0.28747286182E+02  0.11513414641E+02  0.36799849623E+02  0.51100000000E-03 0. -1.
         22    1    1    0    0    0 -0.13977592210E+02 -0.20318879144E+02 -0.14322127479E+02  0.28519349032E+02  0.00000000000E+00 0.  1.
</event>
<event>
 5    1  0.8952932E-005  0.9118800E+02  0.7818608E-02  0.1130116E+00
         25   -1    0    0    0    0  0.00000000000E+00  0.00000000000E+00  0.99999998245E-14  0.12500000000E+03  0.12500000000E+03 0.  0.
        -11    1    3    3    0    0 -0.17910958935E+02 -0.16408041628E+02  0.55313407363E+02  0.60411913679E+02  0.51100000000E-03 0. -1.
         23    2    1    0    0    0 -0.18106172640E+02 -0.79750816618E+01  0.19443093359E+02  0.97260690446E+02  0.93221095313E+02 0.  0.
         11    1    3    3    0    0 -0.19521370544E+00  0.84329599665E+01 -0.35870314004E+02  0.36848776767E+02  0.51100000000E-03 0.  1.
         22    1    1    0    0    0  0.18106172640E+02  0.79750816618E+01 -0.19443093359E+02  0.27739309554E+02  0.00000000000E+00 0. -1.
</event>
<event>
 5    1  0.8952932E-005  0.9118800E+02  0.7818608E-02  0.1130116E+00
         25   -1    0    0    0    0  0.00000000000E+00  0.00000000000E+00  0.99999998245E-14  0.12500000000E+03  0.12500000000E+03 0.  0.
        -11    1    3    3    0    0  0.32341619104E+02 -0.11148292066E+02  0.37392712615E+02  0.50680170671E+02  0.51100000000E-03 0. -1.
         23    2    1    0    0    0 -0.46971649023E+01 -0.24324939846E+02  0.16868903110E+02  0.95027913841E+02  0.90177483111E+02 0.  0.
         11    1    3    3    0    0 -0.37038784006E+02 -0.13176647780E+02 -0.20523809505E+02  0.44347743170E+02  0.51100000000E-03 0.  1.
         22    1    1    0    0    0  0.46971649023E+01  0.24324939846E+02 -0.16868903110E+02  0.29972086159E+02  0.00000000000E+00 0. -1.
</event>
<event>
 5    1  0.8952932E-005  0.9118800E+02  0.7818608E-02  0.1130116E+00
         25   -1    0    0    0    0  0.00000000000E+00  0.00000000000E+00  0.99999998245E-14  0.12500000000E+03  0.12500000000E+03 0.  0.
        -11    1    3    3    0    0 -0.12229590064E+02  0.57017183839E+01  0.40645535789E+02  0.42826767862E+02  0.51100000000E-03 0.  1.
         23    2    1    0    0    0 -0.22036391930E+02  0.39519395271E+01 -0.14146565661E+02  0.98517067471E+02  0.94890815508E+02 0.  0.
         11    1    3    3    0    0 -0.98068018665E+01 -0.17497788568E+01 -0.54792101451E+02  0.55690299609E+02  0.51100000000E-03 0. -1.
         22    1    1    0    0    0  0.22036391930E+02 -0.39519395271E+01  0.14146565661E+02  0.26482932529E+02  0.00000000000E+00 0. -1.
</event>
<event>
 5    1  0.8952932E-005  0.9118800E+02  0.7818608E-02  0.1130116E+00
         25   -1    0    0    0    0  0.00000000000E+00  0.00000000000E+00  0.99999998245E-14  0.12500000000E+03  0.12500000000E+03 0.  0.
        -11    1    3    3    0    0 -0.19387058127E+02  0.32342034051E+02  0.11278815882E+02  0.39358313955E+02  0.51100000000E-03 0. -1.
         23    2    1    0    0    0 -0.65187076607E+01 -0.21838496375E+02  0.18675288907E+02  0.95535107513E+02  0.90877812904E+02 0.  0.
         11    1    3    3    0    0  0.12868350467E+02 -0.54180530426E+02  0.73964730254E+01  0.56176793558E+02  0.51100000000E-03 0.  1.
         22    1    1    0    0    0  0.65187076607E+01  0.21838496375E+02 -0.18675288907E+02  0.29464892487E+02  0.00000000000E+00 0.  1.
</event>
<event>
 5    1  0.8952932E-005  0.9118800E+02  0.7818608E-02  0.1130116E+00
         25   -1    0    0    0    0  0.00000000000E+00  0.00000000000E+00  0.99999998245E-14  0.12500000000E+03  0.12500000000E+03 0.  0.
        -11    1    3    3    0    0  0.69924491470E+01 -0.27623785096E+02 -0.41864488487E+02  0.50641911937E+02  0.51100000000E-03 0. -1.
         23    2    1    0    0    0  0.25865541653E+02 -0.10327113020E+02 -0.32661926296E+01  0.96958182609E+02  0.92814576722E+02 0.  0.
         11    1    3    3    0    0  0.18873092506E+02  0.17296672076E+02  0.38598295857E+02  0.46316270672E+02  0.51100000000E-03 0.  1.
         22    1    1    0    0    0 -0.25865541653E+02  0.10327113020E+02  0.32661926296E+01  0.28041817391E+02  0.00000000000E+00 0.  1.
</event>
<event>
 5    1  0.8952932E-005  0.9118800E+02  0.7818608E-02  0.1130116E+00
         25   -1    0    0    0    0  0.00000000000E+00  0.00000000000E+00  0.99999998245E-14  0.12500000000E+03  0.12500000000E+03 0.  0.
        -11    1    3    3    0    0  0.65254244185E+01 -0.55024761345E+02 -0.24036125858E+02  0.60399013828E+02  0.51100000000E-03 0. -1.
         23    2    1    0    0    0  0.14325800402E+02 -0.28671760394E+02 -0.90849550498E+01  0.91685816691E+02  0.85419284548E+02 0.  0.
         11    1    3    3    0    0  0.78003759838E+01  0.26353000950E+02  0.14951170808E+02  0.31286802863E+02  0.51100000000E-03 0.  1.
         22    1    1    0    0    0 -0.14325800402E+02  0.28671760394E+02  0.90849550498E+01  0.33314183309E+02  0.00000000000E+00 0. -1.
</event>
<event>
 5    1  0.8952932E-005  0.9118800E+02  0.7818608E-02  0.1130116E+00
         25   -1    0    0    0    0  0.00000000000E+00  0.00000000000E+00  0.99999998245E-14  0.12500000000E+03  0.12500000000E+03 0.  0.
        -11    1    3    3    0    0  0.26621214851E+02  0.72948530425E+01 -0.19650493177E+02  0.33882825199E+02  0.51100000000E-03 0. -1.
         23    2    1    0    0    0 -0.19592492186E+02 -0.25601709007E+02 -0.65273332676E+01  0.92107457779E+02  0.86034088853E+02 0.  0.
         11    1    3    3    0    0 -0.46213707038E+02 -0.32896562050E+02  0.13123159910E+02  0.58224632580E+02  0.51100000000E-03 0.  1.
         22    1    1    0    0    0  0.19592492186E+02  0.25601709007E+02  0.65273332676E+01  0.32892542221E+02  0.00000000000E+00 0.  1.
</event>
<event>
 5    1  0.8952932E-005  0.9118800E+02  0.7818608E-02  0.1130116E+00
         25   -1    0    0    0    0  0.00000000000E+00  0.00000000000E+00  0.99999998245E-14  0.12500000000E+03  0.12500000000E+03 0.  0.
        -11    1    3    3    0    0 -0.75480076952E+01  0.15137080319E+02  0.36230790756E+02  0.39984669810E+02  0.51100000000E-03 0. -1.
         23    2    1    0    0    0  0.31251274749E+02 -0.67168882360E+01  0.10831330446E+02  0.91249792886E+02  0.84778819416E+02 0.  0.
         11    1    3    3    0    0  0.38799282444E+02 -0.21853968555E+02 -0.25399460309E+02  0.51265123076E+02  0.51100000000E-03 0.  1.
         22    1    1    0    0    0 -0.31251274749E+02  0.67168882360E+01 -0.10831330446E+02  0.33750207114E+02  0.00000000000E+00 0.  1.
</event>
<event>
 5    1  0.8952932E-005  0.9118800E+02  0.7818608E-02  0.1130116E+00
         25   -1    0    0    0    0  0.00000000000E+00  0.00000000000E+00  0.99999998245E-14  0.12500000000E+03  0.12500000000E+03 0.  0.
        -11    1    3    3    0    0 -0.35358127553E+02 -0.31087448728E+02  0.11262912576E+02  0.48409501675E+02  0.51100000000E-03 0.  1.
         23    2    1    0    0    0 -0.34382287973E+01  0.14986608178E+01  0.27813835984E+02  0.96934418345E+02  0.92782566176E+02 0.  0.
         11    1    3    3    0    0  0.31919898755E+02  0.32586109546E+02  0.16550923408E+02  0.48524916670E+02  0.51100000000E-03 0. -1.
         22    1    1    0    0    0  0.34382287973E+01 -0.14986608178E+01 -0.27813835984E+02  0.28065581655E+02  0.00000000000E+00 0.  1.
</event>
<event>
 5    1  0.8952932E-005  0.9118800E+02  0.7818608E-02  0.1130116E+00
         25   -1    0    0    0    0  0.00000000000E+00  0.00000000000E+00  0.99999998245E-14  0.12500000000E+03  0.12500000000E+03 0.  0.
        -11    1    3    3    0    0  0.65386488956E+01  0.54743028671E+02 -0.52741834370E+01  0.55383843570E+02  0.51100000000E-03 0.  1.
         23    2    1    0    0    0  0.14944771363E+02  0.15345876261E+02 -0.17345094827E+02  0.97437445259E+02  0.93457804996E+02 0.  0.
         11    1    3    3    0    0  0.84061224670E+01 -0.39397152410E+02 -0.12070911390E+02  0.42053601689E+02  0.51100000000E-03 0. -1.
         22    1    1    0    0    0 -0.14944771363E+02 -0.15345876261E+02  0.17345094827E+02  0.27562554741E+02  0.00000000000E+00 0.  1.
</event>
<event>
 5    1  0.8952932E-005  0.9118800E+02  0.7818608E-02  0.1130116E+00
         25   -1    0    0    0    0  0.00000000000E+00  0.00000000000E+00  0.99999998245E-14  0.12500000000E+03  0.12500000000E+03 0.  0.
        -11    1    3    3    0    0 -0.45002232752E+02 -0.16845342513E+02  0.21183141866E+02  0.52513731696E+02  0.51100000000E-03 0. -1.
         23    2    1    0    0    0 -0.23800160306E+02  0.14744432315E+02 -0.17702752692E+01  0.96946839939E+02  0.92799299484E+02 0.  0.
         11    1    3    3    0    0  0.21202072446E+02  0.31589774828E+02 -0.22953417135E+02  0.44433108243E+02  0.51100000000E-03 0.  1.
         22    1    1    0    0    0  0.23800160306E+02 -0.14744432315E+02  0.17702752692E+01  0.28053160061E+02  0.00000000000E+00 0. -1.
</event>
<event>
 5    1  0.8952932E-005  0.9118800E+02  0.7818608E-02  0.1130116E+00
         25   -1    0    0    0    0  0.00000000000E+00  0.00000000000E+00  0.99999998245E-14  0.12500000000E+03  0.12500000000E+03 0.  0.
        -11    1    3    3    0    0 -0.41113610804E+02  0.38779751645E+02  0.14355822189E+02  0.58311986435E+02  0.51100000000E-03 0. -1.
         23    2    1    0    0    0 -0.24593053741E+02  0.12638348186E+02 -0.77020882565E+01  0.96296893884E+02  0.91919657696E+02 0.  0.
         11    1    3    3    0    0  0.16520557063E+02 -0.26141403458E+02 -0.22057910446E+02  0.37984907449E+02  0.51100000000E-03 0.  1.
         22    1    1    0    0    0  0.24593053741E+02 -0.12638348186E+02  0.77020882565E+01  0.28703106116E+02  0.00000000000E+00 0. -1.
</event>
<event>
 5    1  0.8952932E-005  0.9118800E+02  0.7818608E-02  0.1130116E+00
         25   -1    0    0    0    0  0.00000000000E+00  0.00000000000E+00  0.99999998245E-14  0.12500000000E+03  0.12500000000E+03 0.  0.
        -11    1    3    3    0    0  0.20504633401E+02  0.38287308748E+02  0.38470647132E+02  0.58020243821E+02  0.51100000000E-03 0. -1.
         23    2    1    0    0    0  0.22606079647E+02  0.17748624664E+02  0.74057188337E+01  0.95320155224E+02  0.90581669261E+02 0.  0.
         11    1    3    3    0    0  0.21014462463E+01 -0.20538684084E+02 -0.31064928298E+02  0.37299911403E+02  0.51100000000E-03 0.  1.
         22    1    1    0    0    0 -0.22606079647E+02 -0.17748624664E+02 -0.74057188337E+01  0.29679844776E+02  0.00000000000E+00 0. -1.
</event>
<event>
 5    1  0.8952932E-005  0.9118800E+02  0.7818608E-02  0.1130116E+00
         25   -1    0    0    0    0  0.00000000000E+00  0.00000000000E+00  0.99999998245E-14  0.12500000000E+03  0.12500000000E+03 0.  0.
        -11    1    3    3    0    0  0.18007904039E+02 -0.20962330758E+02  0.12937406244E+02  0.30513610066E+02  0.51100000000E-03 0.  1.
         23    2    1    0    0    0 -0.17683233282E+02  0.24030493821E+02  0.21011270774E+02  0.88508427383E+02  0.80635642526E+02 0.  0.
         11    1    3    3    0    0 -0.35691137320E+02  0.44992824579E+02  0.80738645295E+01  0.57994817316E+02  0.51100000000E-03 0. -1.
         22    1    1    0    0    0  0.17683233282E+02 -0.24030493821E+02 -0.21011270774E+02  0.36491572617E+02  0.00000000000E+00 0. -1.
</event>
<event>
 5    1  0.8952932E-005  0.9118800E+02  0.7818608E-02  0.1130116E+00
         25   -1    0    0    0    0  0.00000000000E+00  0.00000000000E+00  0.99999998245E-14  0.12500000000E+03  0.12500000000E+03 0.  0.
        -11    1    3    3    0    0 -0.57194563016E+02  0.34669808710E+01  0.16588504072E+02  0.59652464011E+02  0.51100000000E-03 0. -1.
         23    2    1    0    0    0 -0.22473529753E+02  0.10600280940E+02  0.16633155158E+02  0.95098706615E+02  0.90275559560E+02 0.  0.
         11    1    3    3    0    0  0.34721033264E+02  0.71333000689E+01  0.44651086074E-01  0.35446242604E+02  0.51100000000E-03 0.  1.
         22    1    1    0    0    0  0.22473529753E+02 -0.10600280940E+02 -0.16633155158E+02  0.29901293385E+02  0.00000000000E+00 0. -1.
</event>
<event>
 5    1  0.8952932E-005  0.9118800E+02  0.7818608E-02  0.1130116E+00
         25   -1    0    0    0    0  0.00000000000E+00  0.00000000000E+00  0.99999998245E-14  0.12500000000E+03  0.12500000000E+03 0.  0.
        -11    1    3    3    0    0  0.30408092533E+02  0.19821999507E+02 -0.37444019197E+02  0.52149960017E+02  0.51100000000E-03 0. -1.
         23    2    1    0    0    0  0.15652045681E+02  0.36036617632E+02 -0.30857823419E+02  0.75041721302E+02  0.55994913389E+02 0.  0.
         11    1    3    3    0    0 -0.14756046852E+02  0.16214618125E+02  0.65861957781E+01  0.22891761285E+02  0.51100000000E-03 0.  1.
         22    1    1    0    0    0 -0.15652045681E+02 -0.36036617632E+02  0.30857823419E+02  0.49958278698E+02  0.00000000000E+00 0. -1.
</event>
<event>
 5    1  0.8952932E-005  0.9118800E+02  0.7818608E-02  0.1130116E+00
         25   -1    0    0    0    0  0.00000000000E+00  0.00000000000E+00  0.99999998245E-14  0.12500000000E+03  0.12500000000E+03 0.  0.
        -11    1    3    3    0    0 -0.28686629861E+02 -0.18789981885E+02  0.23116263812E+02  0.41356351446E+02  0.51100000000E-03 0.  1.
         23    2    1    0    0    0  0.13960285839E+02 -0.24456039499E+02 -0.94311775227E+01  0.95302616981E+02  0.90557463775E+02 0.  0.
         11    1    3    3    0    0  0.42646915700E+02 -0.56660576143E+01 -0.32547441334E+02  0.53946265536E+02  0.51100000000E-03 0. -1.
         22    1    1    0    0    0 -0.13960285839E+02  0.24456039499E+02  0.94311775227E+01  0.29697383019E+02  0.00000000000E+00 0. -1.
</event>
<event>
 5    1  0.8952932E-005  0.9118800E+02  0.7818608E-02  0.1130116E+00
         25   -1    0    0    0    0  0.00000000000E+00  0.00000000000E+00  0.99999998245E-14  0.12500000000E+03  0.12500000000E+03 0.  0.
        -11    1    3    3    0    0  0.37810981208E+02  0.22914592288E+02  0.69095808457E+01  0.44749202757E+02  0.51100000000E-03 0. -1.
         23    2    1    0    0    0  0.17679552821E+02 -0.15305699721E+02 -0.18779370752E+02  0.95008404548E+02  0.90150436144E+02 0.  0.
         11    1    3    3    0    0 -0.20131428387E+02 -0.38220292009E+02 -0.25688951598E+02  0.50259201791E+02  0.51100000000E-03 0.  1.
         22    1    1    0    0    0 -0.17679552821E+02  0.15305699721E+02  0.18779370752E+02  0.29991595452E+02  0.00000000000E+00 0.  1.
</event>
<event>
 5    1  0.8952932E-005  0.9118800E+02  0.7818608E-02  0.1130116E+00
         25   -1    0    0    0    0  0.00000000000E+00  0.00000000000E+00  0.99999998245E-14  0.12500000000E+03  0.12500000000E+03 0.  0.
        -11    1    3    3    0    0 -0.41758880771E+02  0.45393753947E+02  0.41003569450E+01  0.61815936036E+02  0.51100000000E-03 0.  1.
         23    2    1    0    0    0 -0.22637502825E+02  0.19562693992E+02  0.75616319492E+01  0.94140093841E+02  0.88938312669E+02 0.  0.
         11    1    3    3    0    0  0.19121377946E+02 -0.25831059955E+02  0.34612750042E+01  0.32324157806E+02  0.51100000000E-03 0. -1.
         22    1    1    0    0    0  0.22637502825E+02 -0.19562693992E+02 -0.75616319492E+01  0.30859906159E+02  0.00000000000E+00 0.  1.
</event>
<event>
 5    1  0.8952932E-005  0.9118800E+02  0.7818608E-02  0.1130116E+00
         25   -1    0    0    0    0  0.00000000000E+00  0.00000000000E+00  0.99999998245E-14  0.12500000000E+03  0.12500000000E+03 0.  0.
        -11    1    3    3    0    0  0.27680975925E+02 -0.26307941171E+02 -0.41273584019E+01  0.38410666285E+02  0.51100000000E-03 0. -1.
         23    2    1    0    0    0 -0.24117835736E+02 -0.16946434452E+02  0.11562222428E+02  0.93337141180E+02  0.87802535811E+02 0.  0.
         11    1    3    3    0    0 -0.51798811660E+02  0.93615067193E+01  0.15689580830E+02  0.54926474895E+02  0.51100000000E-03 0.  1.
         22    1    1    0    0    0  0.24117835736E+02  0.16946434452E+02 -0.11562222428E+02  0.31662858820E+02  0.00000000000E+00 0.  1.
</event>
<event>
 5    1  0.8952932E-005  0.9118800E+02  0.7818608E-02  0.1130116E+00
         25   -1    0    0    0    0  0.00000000000E+00  0.00000000000E+00  0.99999998245E-14  0.12500000000E+03  0.12500000000E+03 0.  0.
        -11    1    3    3    0    0  0.26926438442E+02  0.51094415114E+01  0.48782513531E+02  0.55954205440E+02  0.51100000000E-03 0.  1.
         23    2    1    0    0    0  0.26726607220E+02 -0.10178353087E+02  0.15756283212E+02  0.92347728016E+02  0.86382475098E+02 0.  0.
         11    1    3    3    0    0 -0.19983122225E+00 -0.15287794598E+02 -0.33026230319E+02  0.36393522577E+02  0.51100000000E-03 0. -1.
         22    1    1    0    0    0 -0.26726607220E+02  0.10178353087E+02 -0.15756283212E+02  0.32652271984E+02  0.00000000000E+00 0.  1.
</event>
<event>
 5    1  0.8952932E-005  0.9118800E+02  0.7818608E-02  0.1130116E+00
         25   -1    0    0    0    0  0.00000000000E+00  0.00000000000E+00  0.99999998245E-14  0.12500000000E+03  0.12500000000E+03 0.  0.
        -11    1    3    3    0    0 -0.23507511684E+01 -0.32285369896E+02 -0.20805689868E+02  0.38480486893E+02  0.51100000000E-03 0.  1.
         23    2    1    0    0    0 -0.23328046997E+02  0.51328968679E+01  0.17018105551E+02  0.95671510037E+02  0.91065237655E+02 0.  0.
         11    1    3    3    0    0 -0.20977295829E+02  0.37418266764E+02  0.37823795420E+02  0.57191023143E+02  0.51100000000E-03 0. -1.
         22    1    1    0    0    0  0.23328046997E+02 -0.51328968679E+01 -0.17018105551E+02  0.29328489963E+02  0.00000000000E+00 0. -1.
</event>
<event>
 5    1  0.8952932E-005  0.9118800E+02  0.7818608E-02  0.1130116E+00
         25   -1    0    0    0    0  0.00000000000E+00  0.00000000000E+00  0.99999998245E-14  0.12500000000E+03  0.12500000000E+03 0.  0.
        -11    1    3    3    0    0  0.17243332239E+02  0.50638648912E+02 -0.16908487513E+01  0.53520689832E+02  0.51100000000E-03 0. -1.
         23    2    1    0    0    0  0.12292206199E+02  0.13920816772E+02 -0.22349924718E+02  0.95941324742E+02  0.91434846670E+02 0.  0.
         11    1    3    3    0    0 -0.49511260401E+01 -0.36717832140E+02 -0.20659075967E+02  0.42420634910E+02  0.51100000000E-03 0.  1.
         22    1    1    0    0    0 -0.12292206199E+02 -0.13920816772E+02  0.22349924718E+02  0.29058675258E+02  0.00000000000E+00 0. -1.
</event>
<event>
 5    1  0.8952932E-005  0.9118800E+02  0.7818608E-02  0.1130116E+00
         25   -1    0    0    0    0  0.00000000000E+00  0.00000000000E+00  0.99999998245E-14  0.12500000000E+03  0.12500000000E+03 0.  0.
        -11    1    3    3    0    0  0.20794463359E+01  0.30417578271E+02 -0.33309501392E+01  0.30669991752E+02  0.51100000000E-03 0. -1.
         23    2    1    0    0    0  0.64487080180E+01 -0.14714638841E+02 -0.35344433466E+02  0.86175582318E+02  0.76934358901E+02 0.  0.
         11    1    3    3    0    0  0.43692616821E+01 -0.45132217112E+02 -0.32013483327E+02  0.55505590566E+02  0.51100000000E-03 0.  1.
         22    1    1    0    0    0 -0.64487080180E+01  0.14714638841E+02  0.35344433466E+02  0.38824417682E+02  0.00000000000E+00 0.  1.
</event>
<event>
 5    1  0.8952932E-005  0.9118800E+02  0.7818608E-02  0.1130116E+00
         25   -1    0    0    0    0  0.00000000000E+00  0.00000000000E+00  0.99999998245E-14  0.12500000000E+03  0.12500000000E+03 0.  0.
        -11    1    3    3    0    0 -0.88571657712E+01  0.47619226312E+02 -0.84976597986E+01  0.49175708661E+02  0.51100000000E-03 0.  1.
         23    2    1    0    0    0  0.23599659647E+02  0.17390614002E+02  0.43772071297E+01  0.95359869551E+02  0.90636457277E+02 0.  0.
         11    1    3    3    0    0  0.32456825418E+02 -0.30228612310E+02  0.12874866928E+02  0.46184160890E+02  0.51100000000E-03 0. -1.
         22    1    1    0    0    0 -0.23599659647E+02 -0.17390614002E+02 -0.43772071297E+01  0.29640130449E+02  0.00000000000E+00 0.  1.
</event>
<event>
 5    1  0.8952932E-005  0.9118800E+02  0.7818608E-02  0.1130116E+00
         25   -1    0    0    0    0  0.00000000000E+00  0.00000000000E+00  0.99999998245E-14  0.12500000000E+03  0.12500000000E+03 0.  0.
        -11    1    3    3    0    0  0.30543191371E+02  0.15761699251E+02  0.47173093752E+02  0.58366244327E+02  0.51100000000E-03 0. -1.
         23    2    1    0    0    0  0.13599625676E+02 -0.86624171055E+01  0.24134857613E+02  0.95974517391E+02  0.91480212876E+02 0.  0.
         11    1    3    3    0    0 -0.16943565695E+02 -0.24424116356E+02 -0.23038236139E+02  0.37608273064E+02  0.51100000000E-03 0.  1.
         22    1    1    0    0    0 -0.13599625676E+02  0.86624171055E+01 -0.24134857613E+02  0.29025482609E+02  0.00000000000E+00 0. -1.
</event>
<event>
 5    1  0.8952932E-005  0.9118800E+02  0.7818608E-02  0.1130116E+00
         25   -1    0    0    0    0  0.00000000000E+00  0.00000000000E+00  0.99999998245E-14  0.12500000000E+03  0.12500000000E+03 0.  0.
        -11    1    3    3    0    0  0.30679763974E+02  0.18814535207E+02  0.81938382870E+01  0.36910345957E+02  0.51100000000E-03 0.  1.
         23    2    1    0    0    0 -0.46002634748E+01 -0.18774044415E+02 -0.21246650084E+02  0.96276363261E+02  0.91891734206E+02 0.  0.
         11    1    3    3    0    0 -0.35280027449E+02 -0.37588579622E+02 -0.29440488371E+02  0.59366017304E+02  0.51100000000E-03 0. -1.
         22    1    1    0    0    0  0.46002634748E+01  0.18774044415E+02  0.21246650084E+02  0.28723636739E+02  0.00000000000E+00 0. -1.
</event>
<event>
 5    1  0.8952932E-005  0.9118800E+02  0.7818608E-02  0.1130116E+00
         25   -1    0    0    0    0  0.00000000000E+00  0.00000000000E+00  0.99999998245E-14  0.12500000000E+03  0.12500000000E+03 0.  0.
        -11    1    3    3    0    0  0.14038896229E+02  0.15211728311E+02 -0.40545631489E+02  0.45524010353E+02  0.51100000000E-03 0. -1.
         23    2    1    0    0    0 -0.88562934464E+01 -0.22492809116E+02 -0.12639180279E+02  0.97721633596E+02  0.93837137632E+02 0.  0.
         11    1    3    3    0    0 -0.22895189675E+02 -0.37704537427E+02  0.27906451209E+02  0.52197623243E+02  0.51100000000E-03 0.  1.
         22    1    1    0    0    0  0.88562934464E+01  0.22492809116E+02  0.12639180279E+02  0.27278366404E+02  0.00000000000E+00 0. -1.
</event>
<event>
 5    1  0.8952932E-005  0.9118800E+02  0.7818608E-02  0.1130116E+00
         25   -1    0    0    0    0  0.00000000000E+00  0.00000000000E+00  0.99999998245E-14  0.12500000000E+03  0.12500000000E+03 0.  0.
        -11    1    3    3    0    0  0.50144361969E+02 -0.20725189453E+02 -0.30833009496E+02  0.62407251101E+02  0.51100000000E-03 0. -1.
         23    2    1    0    0    0  0.26662412899E+02 -0.95165556382E+01 -0.13806391140E+02  0.93502928245E+02  0.88038242039E+02 0.  0.
         11    1    3    3    0    0 -0.23481949070E+02  0.11208633815E+02  0.17026618356E+02  0.31095677144E+02  0.51100000000E-03 0.  1.
         22    1    1    0    0    0 -0.26662412899E+02  0.95165556382E+01  0.13806391140E+02  0.31497071755E+02  0.00000000000E+00 0. -1.
</event>
<event>
 5    1  0.8952932E-005  0.9118800E+02  0.7818608E-02  0.1130116E+00
         25   -1    0    0    0    0  0.00000000000E+00  0.00000000000E+00  0.99999998245E-14  0.12500000000E+03  0.12500000000E+03 0.  0.
        -11    1    3    3    0    0  0.13368990350E+01  0.20709513097E+01  0.37906583306E+02  0.37986644976E+02  0.51100000000E-03 0.  1.
         23    2    1    0    0    0 -0.25474618117E+02 -0.35245636032E+01 -0.13291899353E+02  0.96050849663E+02  0.91584455099E+02 0.  0.
         11    1    3    3    0    0 -0.26811517152E+02 -0.55955149128E+01 -0.51198482659E+02  0.58064204687E+02  0.51100000000E-03 0. -1.
         22    1    1    0    0    0  0.25474618117E+02  0.35245636032E+01  0.13291899353E+02  0.28949150337E+02  0.00000000000E+00 0. -1.
</event>
<event>
 5    1  0.8952932E-005  0.9118800E+02  0.7818608E-02  0.1130116E+00
         25   -1    0    0    0    0  0.00000000000E+00  0.00000000000E+00  0.99999998245E-14  0.12500000000E+03  0.12500000000E+03 0.  0.
        -11    1    3    3    0    0  0.91409582135E+00 -0.15267746220E+02  0.37945667394E+02  0.40912263688E+02  0.51100000000E-03 0.  1.
         23    2    1    0    0    0 -0.28747347821E+02 -0.79628424618E+01 -0.61376760242E+01  0.94545313434E+02  0.89506024147E+02 0.  0.
         11    1    3    3    0    0 -0.29661443643E+02  0.73049037582E+01 -0.44083343418E+02  0.53633049746E+02  0.51100000000E-03 0. -1.
         22    1    1    0    0    0  0.28747347821E+02  0.79628424618E+01  0.61376760242E+01  0.30454686566E+02  0.00000000000E+00 0. -1.
</event>
<event>
 5    1  0.8952932E-005  0.9118800E+02  0.7818608E-02  0.1130116E+00
         25   -1    0    0    0    0  0.00000000000E+00  0.00000000000E+00  0.99999998245E-14  0.12500000000E+03  0.12500000000E+03 0.  0.
        -11    1    3    3    0    0 -0.52984791094E+02 -0.90299354843E+01 -0.27126489828E+02  0.60206098302E+02  0.51100000000E-03 0.  1.
         23    2    1    0    0    0 -0.10252188878E+02 -0.10828119291E+02 -0.12906967962E+02  0.10527830215E+03  0.10341458087E+03 0.  0.
         11    1    3    3    0    0  0.42732602217E+02 -0.17981838070E+01  0.14219521866E+02  0.45072203846E+02  0.51100000000E-03 0. -1.
         22    1    1    0    0    0  0.10252188878E+02  0.10828119291E+02  0.12906967962E+02  0.19721697852E+02  0.00000000000E+00 0.  1.
</event>
<event>
 5    1  0.8952932E-005  0.9118800E+02  0.7818608E-02  0.1130116E+00
         25   -1    0    0    0    0  0.00000000000E+00  0.00000000000E+00  0.99999998245E-14  0.12500000000E+03  0.12500000000E+03 0.  0.
        -11    1    3    3    0    0 -0.46376224694E+02 -0.28957189870E+02 -0.83022423278E+01  0.55300997188E+02  0.51100000000E-03 0. -1.
         23    2    1    0    0    0 -0.11215932726E+02 -0.27981256826E+02  0.76133077122E+01  0.93908034241E+02  0.88611559969E+02 0.  0.
         11    1    3    3    0    0  0.35160291969E+02  0.97593304431E+00  0.15915550040E+02  0.38607037052E+02  0.51100000000E-03 0.  1.
         22    1    1    0    0    0  0.11215932726E+02  0.27981256826E+02 -0.76133077122E+01  0.31091965759E+02  0.00000000000E+00 0. -1.
</event>
<event>
 5    1  0.8952932E-005  0.9118800E+02  0.7818608E-02  0.1130116E+00
         25   -1    0    0    0    0  0.00000000000E+00  0.00000000000E+00  0.99999998245E-14  0.12500000000E+03  0.12500000000E+03 0.  0.
        -11    1    3    3    0    0  0.26825598064E+02  0.27189843227E+02  0.54133776502E+00  0.38199389171E+02  0.51100000000E-03 0.  1.
         23    2    1    0    0    0 -0.16873286070E+02 -0.14067880709E+02  0.12856032924E+02  0.99546304139E+02  0.96237082431E+02 0.  0.
         11    1    3    3    0    0 -0.43698884134E+02 -0.41257723936E+02  0.12314695159E+02  0.61346914968E+02  0.51100000000E-03 0. -1.
         22    1    1    0    0    0  0.16873286070E+02  0.14067880709E+02 -0.12856032924E+02  0.25453695861E+02  0.00000000000E+00 0. -1.
</event>
<event>
 5    1  0.8952932E-005  0.9118800E+02  0.7818608E-02  0.1130116E+00
         25   -1    0    0    0    0  0.00000000000E+00  0.00000000000E+00  0.99999998245E-14  0.12500000000E+03  0.12500000000E+03 0.  0.
        -11    1    3    3    0    0  0.40262538619E+02  0.10360539018E+02  0.10993893768E+01  0.41588717726E+02  0.51100000000E-03 0. -1.
         23    2    1    0    0    0 -0.78414048548E+01  0.96650435786E+01  0.26303909010E+02  0.95900234937E+02  0.91378655792E+02 0.  0.
         11    1    3    3    0    0 -0.48103943474E+02 -0.69549543917E+00  0.25204519633E+02  0.54311517212E+02  0.51100000000E-03 0.  1.
         22    1    1    0    0    0  0.78414048548E+01 -0.96650435786E+01 -0.26303909010E+02  0.29099765063E+02  0.00000000000E+00 0.  1.
</event>
<event>
 5    1  0.8952932E-005  0.9118800E+02  0.7818608E-02  0.1130116E+00
         25   -1    0    0    0    0  0.00000000000E+00  0.00000000000E+00  0.99999998245E-14  0.12500000000E+03  0.12500000000E+03 0.  0.
        -11    1    3    3    0    0 -0.11392042949E+02  0.60607321941E+02 -0.28112916412E+01  0.61732726138E+02  0.51100000000E-03 0. -1.
         23    2    1    0    0    0  0.92007088214E+00  0.30548310850E+02  0.88409364831E+00  0.94425051958E+02  0.89337914625E+02 0.  0.
         11    1    3    3    0    0  0.12312113831E+02 -0.30059011092E+02  0.36953852896E+01  0.32692325820E+02  0.51100000000E-03 0.  1.
         22    1    1    0    0    0 -0.92007088214E+00 -0.30548310850E+02 -0.88409364831E+00  0.30574948042E+02  0.00000000000E+00 0. -1.
</event>
<event>
 5    1  0.8952932E-005  0.9118800E+02  0.7818608E-02  0.1130116E+00
         25   -1    0    0    0    0  0.00000000000E+00  0.00000000000E+00  0.99999998245E-14  0.12500000000E+03  0.12500000000E+03 0.  0.
        -11    1    3    3    0    0 -0.21237815633E+02  0.22052238842E+02 -0.21265591840E+02  0.37276955983E+02  0.51100000000E-03 0.  1.
         23    2    1    0    0    0  0.18089718197E+02 -0.18800562750E+02 -0.16381693854E+02  0.94193199489E+02  0.89012919693E+02 0.  0.
         11    1    3    3    0    0  0.39327533830E+02 -0.40852801592E+02  0.48838979858E+01  0.56916243506E+02  0.51100000000E-03 0. -1.
         22    1    1    0    0    0 -0.18089718197E+02  0.18800562750E+02  0.16381693854E+02  0.30806800511E+02  0.00000000000E+00 0. -1.
</event>
<event>
 5    1  0.8952932E-005  0.9118800E+02  0.7818608E-02  0.1130116E+00
         25   -1    0    0    0    0  0.00000000000E+00  0.00000000000E+00  0.99999998245E-14  0.12500000000E+03  0.12500000000E+03 0.  0.
        -11    1    3    3    0    0 -0.11143285839E+02 -0.52766029236E+02  0.15169646654E+02  0.56022717182E+02  0.51100000000E-03 0. -1.
         23    2    1    0    0    0 -0.13609997469E+02 -0.16239669865E+02  0.23281337196E+02  0.93520172013E+02  0.88062721985E+02 0.  0.
         11    1    3    3    0    0 -0.24667116306E+01  0.36526359370E+02  0.81116905413E+01  0.37497454831E+02  0.51100000000E-03 0.  1.
         22    1    1    0    0    0  0.13609997469E+02  0.16239669865E+02 -0.23281337196E+02  0.31479827987E+02  0.00000000000E+00 0. -1.
</event>
<event>
 5    1  0.8952932E-005  0.9118800E+02  0.7818608E-02  0.1130116E+00
         25   -1    0    0    0    0  0.00000000000E+00  0.00000000000E+00  0.99999998245E-14  0.12500000000E+03  0.12500000000E+03 0.  0.
        -11    1    3    3    0    0 -0.18564969977E+02 -0.35167327923E+02  0.11535493025E+02  0.41406118667E+02  0.51100000000E-03 0.  1.
         23    2    1    0    0    0 -0.96325279606E+00  0.91776804358E+01  0.30791035976E+02  0.92855862578E+02  0.87114669514E+02 0.  0.
         11    1    3    3    0    0  0.17601717181E+02  0.44345008358E+02  0.19255542950E+02  0.51449743912E+02  0.51100000000E-03 0. -1.
         22    1    1    0    0    0  0.96325279606E+00 -0.91776804358E+01 -0.30791035976E+02  0.32144137422E+02  0.00000000000E+00 0.  1.
</event>
<event>
 5    1  0.8952932E-005  0.9118800E+02  0.7818608E-02  0.1130116E+00
         25   -1    0    0    0    0  0.00000000000E+00  0.00000000000E+00  0.99999998245E-14  0.12500000000E+03  0.12500000000E+03 0.  0.
        -11    1    3    3    0    0 -0.34625145780E+02 -0.22784710623E+02  0.16322908188E+02  0.44547514975E+02  0.51100000000E-03 0. -1.
         23    2    1    0    0    0  0.29219158801E+01 -0.28018018541E+02 -0.14417693204E+02  0.93354829235E+02  0.87827713786E+02 0.  0.
         11    1    3    3    0    0  0.37547061660E+02 -0.52333079189E+01 -0.30740601393E+02  0.48807314260E+02  0.51100000000E-03 0.  1.
         22    1    1    0    0    0 -0.29219158801E+01  0.28018018541E+02  0.14417693204E+02  0.31645170765E+02  0.00000000000E+00 0.  1.
</event>
<event>
 5    1  0.8952932E-005  0.9118800E+02  0.7818608E-02  0.1130116E+00
         25   -1    0    0    0    0  0.00000000000E+00  0.00000000000E+00  0.99999998245E-14  0.12500000000E+03  0.12500000000E+03 0.  0.
        -11    1    3    3    0    0  0.52831836005E+02 -0.72466522305E+01 -0.31963367044E+02  0.62172129585E+02  0.51100000000E-03 0. -1.
         23    2    1    0    0    0  0.27126978192E+02  0.84566848109E+00 -0.15860009368E+02  0.93565496693E+02  0.88127034293E+02 0.  0.
         11    1    3    3    0    0 -0.25704857813E+02  0.80923207116E+01  0.16103357676E+02  0.31393367108E+02  0.51100000000E-03 0.  1.
         22    1    1    0    0    0 -0.27126978192E+02 -0.84566848109E+00  0.15860009368E+02  0.31434503307E+02  0.00000000000E+00 0. -1.
</event>
<event>
 5    1  0.8952932E-005  0.9118800E+02  0.7818608E-02  0.1130116E+00
         25   -1    0    0    0    0  0.00000000000E+00  0.00000000000E+00  0.99999998245E-14  0.12500000000E+03  0.12500000000E+03 0.  0.
        -11    1    3    3    0    0 -0.46679608773E+02 -0.31706945750E+02 -0.20397280268E+02  0.60003044311E+02  0.51100000000E-03 0. -1.
         23    2    1    0    0    0 -0.27880750598E+02 -0.52984458407E+01 -0.39700844800E+01  0.96343912461E+02  0.91983575248E+02 0.  0.
         11    1    3    3    0    0  0.18798858175E+02  0.26408499910E+02  0.16427195788E+02  0.36340868150E+02  0.51100000000E-03 0.  1.
         22    1    1    0    0    0  0.27880750598E+02  0.52984458407E+01  0.39700844800E+01  0.28656087539E+02  0.00000000000E+00 0. -1.
</event>
<event>
 5    1  0.8952932E-005  0.9118800E+02  0.7818608E-02  0.1130116E+00
         25   -1    0    0    0    0  0.00000000000E+00  0.00000000000E+00  0.99999998245E-14  0.12500000000E+03  0.12500000000E+03 0.  0.
        -11    1    3    3    0    0 -0.23073865752E+02  0.27557987480E+02  0.10088284386E+02  0.37331212635E+02  0.51100000000E-03 0.  1.
         23    2    1    0    0    0  0.24993094083E+02  0.13637141786E+02 -0.14456329427E+02  0.93068638482E+02  0.87419446466E+02 0.  0.
         11    1    3    3    0    0  0.48066959835E+02 -0.13920845694E+02 -0.24544613813E+02  0.55737425847E+02  0.51100000000E-03 0. -1.
         22    1    1    0    0    0 -0.24993094083E+02 -0.13637141786E+02  0.14456329427E+02  0.31931361518E+02  0.00000000000E+00 0. -1.
</event>
<event>
 5    1  0.8952932E-005  0.9118800E+02  0.7818608E-02  0.1130116E+00
         25   -1    0    0    0    0  0.00000000000E+00  0.00000000000E+00  0.99999998245E-14  0.12500000000E+03  0.12500000000E+03 0.  0.
        -11    1    3    3    0    0  0.35535672411E+02  0.32972519787E+02  0.46443078256E+01  0.48698466816E+02  0.51100000000E-03 0.  1.
         23    2    1    0    0    0  0.13156531699E+02  0.75050144923E+01 -0.26332448312E+02  0.94622090214E+02  0.89613182922E+02 0.  0.
         11    1    3    3    0    0 -0.22379140712E+02 -0.25467505295E+02 -0.30976756137E+02  0.45923623398E+02  0.51100000000E-03 0. -1.
         22    1    1    0    0    0 -0.13156531699E+02 -0.75050144923E+01  0.26332448312E+02  0.30377909786E+02  0.00000000000E+00 0.  1.
</event>
<event>
 5    1  0.8952932E-005  0.9118800E+02  0.7818608E-02  0.1130116E+00
         25   -1    0    0    0    0  0.00000000000E+00  0.00000000000E+00  0.99999998245E-14  0.12500000000E+03  0.12500000000E+03 0.  0.
        -11    1    3    3    0    0  0.37688805174E+02  0.36600601703E+02  0.16019172772E+01  0.52560595694E+02  0.51100000000E-03 0.  1.
         23    2    1    0    0    0  0.12800242128E+02  0.11747277693E+02 -0.23502162982E+02  0.95773361525E+02  0.91204936167E+02 0.  0.
         11    1    3    3    0    0 -0.24888563046E+02 -0.24853324010E+02 -0.25104080259E+02  0.43212765831E+02  0.51100000000E-03 0. -1.
         22    1    1    0    0    0 -0.12800242128E+02 -0.11747277693E+02  0.23502162982E+02  0.29226638475E+02  0.00000000000E+00 0. -1.
</event>
<event>
 5    1  0.8952932E-005  0.9118800E+02  0.7818608E-02  0.1130116E+00
         25   -1    0    0    0    0  0.00000000000E+00  0.00000000000E+00  0.99999998245E-14  0.12500000000E+03  0.12500000000E+03 0.  0.
        -11    1    3    3    0    0 -0.44130211135E+02 -0.33047055235E+02 -0.20397683704E+02  0.58784767545E+02  0.51100000000E-03 0.  1.
         23    2    1    0    0    0 -0.18324583449E+02 -0.63567552601E+01 -0.21651402108E+02  0.95931427464E+02  0.91421315162E+02 0.  0.
         11    1    3    3    0    0  0.25805627686E+02  0.26690299975E+02 -0.12537184037E+01  0.37146659919E+02  0.51100000000E-03 0. -1.
         22    1    1    0    0    0  0.18324583449E+02  0.63567552601E+01  0.21651402108E+02  0.29068572536E+02  0.00000000000E+00 0.  1.
</event>
<event>
 5    1  0.8952932E-005  0.9118800E+02  0.7818608E-02  0.1130116E+00
         25   -1    0    0    0    0  0.00000000000E+00  0.00000000000E+00  0.99999998245E-14  0.12500000000E+03  0.12500000000E+03 0.  0.
        -11    1    3    3    0    0 -0.57047947644E+01  0.37351513610E+02  0.19787794130E+01  0.37836435092E+02  0.51100000000E-03 0. -1.
         23    2    1    0    0    0 -0.22639306467E+02 -0.18184596970E+02 -0.61953090907E+00  0.95955179759E+02  0.91453785815E+02 0.  0.
         11    1    3    3    0    0 -0.16934511702E+02 -0.55536110580E+02 -0.25983103221E+01  0.58118744667E+02  0.51100000000E-03 0.  1.
         22    1    1    0    0    0  0.22639306467E+02  0.18184596970E+02  0.61953090907E+00  0.29044820241E+02  0.00000000000E+00 0.  1.
</event>
<event>
 5    1  0.8952932E-005  0.9118800E+02  0.7818608E-02  0.1130116E+00
         25   -1    0    0    0    0  0.00000000000E+00  0.00000000000E+00  0.99999998245E-14  0.12500000000E+03  0.12500000000E+03 0.  0.
        -11    1    3    3    0    0  0.25935916183E+02  0.10207839437E+02  0.25795358460E+02  0.37977259677E+02  0.51100000000E-03 0.  1.
         23    2    1    0    0    0 -0.14918802273E+02 -0.24640736003E+02  0.40504407667E+01  0.95911469572E+02  0.91394022743E+02 0.  0.
         11    1    3    3    0    0 -0.40854718456E+02 -0.34848575440E+02 -0.21744917694E+02  0.57934209895E+02  0.51100000000E-03 0. -1.
         22    1    1    0    0    0  0.14918802273E+02  0.24640736003E+02 -0.40504407667E+01  0.29088530428E+02  0.00000000000E+00 0. -1.
</event>
<event>
 5    1  0.8952932E-005  0.9118800E+02  0.7818608E-02  0.1130116E+00
         25   -1    0    0    0    0  0.00000000000E+00  0.00000000000E+00  0.99999998245E-14  0.12500000000E+03  0.12500000000E+03 0.  0.
        -11    1    3    3    0    0  0.10766567120E+01 -0.78962555996E+01  0.45065212591E+02  0.45764434098E+02  0.51100000000E-03 0.  1.
         23    2    1    0    0    0 -0.22485426940E+02 -0.20526125793E+02  0.46789055172E+01  0.94197266005E+02  0.89018630079E+02 0.  0.
         11    1    3    3    0    0 -0.23562083652E+02 -0.12629870193E+02 -0.40386307074E+02  0.48432831906E+02  0.51100000000E-03 0. -1.
         22    1    1    0    0    0  0.22485426940E+02  0.20526125793E+02 -0.46789055172E+01  0.30802733995E+02  0.00000000000E+00 0. -1.
</event>
<event>
 5    1  0.8952932E-005  0.9118800E+02  0.7818608E-02  0.1130116E+00
         25   -1    0    0    0    0  0.00000000000E+00  0.00000000000E+00  0.99999998245E-14  0.12500000000E+03  0.12500000000E+03 0.  0.
        -11    1    3    3    0    0  0.49846041965E+02 -0.17447474727E+02  0.35143794444E+01  0.52928188492E+02  0.51100000000E-03 0.  1.
         23    2    1    0    0    0  0.15870136187E+02 -0.13782601639E+02 -0.21234264731E+02  0.95121657857E+02  0.90307333391E+02 0.  0.
         11    1    3    3    0    0 -0.33975905778E+02  0.36648730878E+01 -0.24748644176E+02  0.42193469365E+02  0.51100000000E-03 0. -1.
         22    1    1    0    0    0 -0.15870136187E+02  0.13782601639E+02  0.21234264731E+02  0.29878342143E+02  0.00000000000E+00 0. -1.
</event>
<event>
 5    1  0.8952932E-005  0.9118800E+02  0.7818608E-02  0.1130116E+00
         25   -1    0    0    0    0  0.00000000000E+00  0.00000000000E+00  0.99999998245E-14  0.12500000000E+03  0.12500000000E+03 0.  0.
        -11    1    3    3    0    0 -0.56589146477E+02 -0.89783037858E+01 -0.48384609606E+01  0.57500888190E+02  0.51100000000E-03 0. -1.
         23    2    1    0    0    0 -0.22733304404E+02 -0.34087579336E+00 -0.19164953214E+02  0.95264251193E+02  0.90504490486E+02 0.  0.
         11    1    3    3    0    0  0.33855842072E+02  0.86374279925E+01 -0.14326492253E+02  0.37763363003E+02  0.51100000000E-03 0.  1.
         22    1    1    0    0    0  0.22733304404E+02  0.34087579336E+00  0.19164953214E+02  0.29735748807E+02  0.00000000000E+00 0. -1.
</event>
<event>
 5    1  0.8952932E-005  0.9118800E+02  0.7818608E-02  0.1130116E+00
         25   -1    0    0    0    0  0.00000000000E+00  0.00000000000E+00  0.99999998245E-14  0.12500000000E+03  0.12500000000E+03 0.  0.
        -11    1    3    3    0    0 -0.87809592350E+01  0.24924081782E+02  0.35662122645E+01  0.26665201442E+02  0.51100000000E-03 0.  1.
         23    2    1    0    0    0  0.13973325960E+02 -0.32622747799E+02  0.76987839992E+01  0.88685143710E+02  0.80909121410E+02 0.  0.
         11    1    3    3    0    0  0.22754285195E+02 -0.57546829581E+02  0.41325717347E+01  0.62019942268E+02  0.51100000000E-03 0. -1.
         22    1    1    0    0    0 -0.13973325960E+02  0.32622747799E+02 -0.76987839992E+01  0.36314856290E+02  0.00000000000E+00 0. -1.
</event>
<event>
 5    1  0.8952932E-005  0.9118800E+02  0.7818608E-02  0.1130116E+00
         25   -1    0    0    0    0  0.00000000000E+00  0.00000000000E+00  0.99999998245E-14  0.12500000000E+03  0.12500000000E+03 0.  0.
        -11    1    3    3    0    0  0.35989294373E+02 -0.36498871225E+01 -0.14979894884E+02  0.39152882863E+02  0.51100000000E-03 0. -1.
         23    2    1    0    0    0 -0.77662433023E+01 -0.30341712009E+02 -0.14685789108E+02  0.90408000573E+02  0.83528439128E+02 0.  0.
         11    1    3    3    0    0 -0.43755537675E+02 -0.26691824886E+02  0.29410577571E+00  0.51255117710E+02  0.51100000000E-03 0.  1.
         22    1    1    0    0    0  0.77662433023E+01  0.30341712009E+02  0.14685789108E+02  0.34591999427E+02  0.00000000000E+00 0.  1.
</event>
<event>
 5    1  0.8952932E-005  0.9118800E+02  0.7818608E-02  0.1130116E+00
         25   -1    0    0    0    0  0.00000000000E+00  0.00000000000E+00  0.99999998245E-14  0.12500000000E+03  0.12500000000E+03 0.  0.
        -11    1    3    3    0    0  0.13477162575E+02 -0.78420802024E+01 -0.33902993290E+02  0.37316820433E+02  0.51100000000E-03 0. -1.
         23    2    1    0    0    0 -0.25947391108E+02 -0.60098898692E+01  0.10180699555E+02  0.96486274796E+02  0.92176833853E+02 0.  0.
         11    1    3    3    0    0 -0.39424553683E+02  0.18321903333E+01  0.44083692845E+02  0.59169454363E+02  0.51100000000E-03 0.  1.
         22    1    1    0    0    0  0.25947391108E+02  0.60098898692E+01 -0.10180699555E+02  0.28513725204E+02  0.00000000000E+00 0.  1.
</event>
<event>
 5    1  0.8952932E-005  0.9118800E+02  0.7818608E-02  0.1130116E+00
         25   -1    0    0    0    0  0.00000000000E+00  0.00000000000E+00  0.99999998245E-14  0.12500000000E+03  0.12500000000E+03 0.  0.
        -11    1    3    3    0    0 -0.19091542822E+02  0.38217697139E+02 -0.67850691340E+00  0.42726335600E+02  0.51100000000E-03 0.  1.
         23    2    1    0    0    0  0.90529583041E+01  0.66769197857E+01 -0.29191723579E+02  0.93715913992E+02  0.88340129601E+02 0.  0.
         11    1    3    3    0    0  0.28144501126E+02 -0.31540777354E+02 -0.28513216665E+02  0.50989578391E+02  0.51100000000E-03 0. -1.
         22    1    1    0    0    0 -0.90529583041E+01 -0.66769197857E+01  0.29191723579E+02  0.31284086008E+02  0.00000000000E+00 0. -1.
</event>
<event>
 5    1  0.8952932E-005  0.9118800E+02  0.7818608E-02  0.1130116E+00
         25   -1    0    0    0    0  0.00000000000E+00  0.00000000000E+00  0.99999998245E-14  0.12500000000E+03  0.12500000000E+03 0.  0.
        -11    1    3    3    0    0  0.35574069173E+01  0.54105417725E+01  0.39244681324E+02  0.39775295332E+02  0.51100000000E-03 0.  1.
         23    2    1    0    0    0 -0.91104543772E+01  0.26743082767E+02 -0.10092234172E+02  0.94999232587E+02  0.90137717669E+02 0.  0.
         11    1    3    3    0    0 -0.12667861295E+02  0.21332540994E+02 -0.49336915496E+02  0.55223937255E+02  0.51100000000E-03 0. -1.
         22    1    1    0    0    0  0.91104543772E+01 -0.26743082767E+02  0.10092234172E+02  0.30000767413E+02  0.00000000000E+00 0. -1.
</event>
<event>
 5    1  0.8952932E-005  0.9118800E+02  0.7818608E-02  0.1130116E+00
         25   -1    0    0    0    0  0.00000000000E+00  0.00000000000E+00  0.99999998245E-14  0.12500000000E+03  0.12500000000E+03 0.  0.
        -11    1    3    3    0    0  0.38880397446E+01 -0.33372129278E+02  0.24595311131E+02  0.41638266000E+02  0.51100000000E-03 0.  1.
         23    2    1    0    0    0 -0.27045267954E+02  0.77735729864E+01  0.75328756720E+01  0.95868931163E+02  0.91335824246E+02 0.  0.
         11    1    3    3    0    0 -0.30933307699E+02  0.41145702264E+02 -0.17062435459E+02  0.54230665163E+02  0.51100000000E-03 0. -1.
         22    1    1    0    0    0  0.27045267954E+02 -0.77735729864E+01 -0.75328756720E+01  0.29131068837E+02  0.00000000000E+00 0.  1.
</event>
<event>
 5    1  0.8952932E-005  0.9118800E+02  0.7818608E-02  0.1130116E+00
         25   -1    0    0    0    0  0.00000000000E+00  0.00000000000E+00  0.99999998245E-14  0.12500000000E+03  0.12500000000E+03 0.  0.
        -11    1    3    3    0    0 -0.12019196653E+02  0.26101392088E+02  0.19185321973E+02  0.34551705264E+02  0.51100000000E-03 0.  1.
         23    2    1    0    0    0  0.19911045619E+01 -0.20299338017E+02 -0.19663095307E+02  0.96668658021E+02  0.92423830830E+02 0.  0.
         11    1    3    3    0    0  0.14010301215E+02 -0.46400730105E+02 -0.38848417280E+02  0.62116952757E+02  0.51100000000E-03 0. -1.
         22    1    1    0    0    0 -0.19911045619E+01  0.20299338017E+02  0.19663095307E+02  0.28331341979E+02  0.00000000000E+00 0. -1.
</event>
<event>
 5    1  0.8952932E-005  0.9118800E+02  0.7818608E-02  0.1130116E+00
         25   -1    0    0    0    0  0.00000000000E+00  0.00000000000E+00  0.99999998245E-14  0.12500000000E+03  0.12500000000E+03 0.  0.
        -11    1    3    3    0    0  0.91729989308E+01  0.22774411096E+02 -0.28575309794E+02  0.37674474651E+02  0.51100000000E-03 0.  1.
         23    2    1    0    0    0 -0.29003053213E+02  0.17343394651E+00  0.77113024240E+01  0.94988812752E+02  0.90123266629E+02 0.  0.
         11    1    3    3    0    0 -0.38176052143E+02 -0.22600977150E+02  0.36286612218E+02  0.57314338100E+02  0.51100000000E-03 0. -1.
         22    1    1    0    0    0  0.29003053213E+02 -0.17343394651E+00 -0.77113024240E+01  0.30011187248E+02  0.00000000000E+00 0. -1.
</event>
<event>
 5    1  0.8952932E-005  0.9118800E+02  0.7818608E-02  0.1130116E+00
         25   -1    0    0    0    0  0.00000000000E+00  0.00000000000E+00  0.99999998245E-14  0.12500000000E+03  0.12500000000E+03 0.  0.
        -11    1    3    3    0    0 -0.80511516325E+01  0.20185991780E+02 -0.25558782863E+02  0.33549168223E+02  0.51100000000E-03 0. -1.
         23    2    1    0    0    0  0.16131488024E+01 -0.12182119301E+02  0.26604292435E+02  0.95694801558E+02  0.91097202974E+02 0.  0.
         11    1    3    3    0    0  0.96643004349E+01 -0.32368111081E+02  0.52163075298E+02  0.62145633335E+02  0.51100000000E-03 0.  1.
         22    1    1    0    0    0 -0.16131488024E+01  0.12182119301E+02 -0.26604292435E+02  0.29305198442E+02  0.00000000000E+00 0.  1.
</event>
<event>
 5    1  0.8952932E-005  0.9118800E+02  0.7818608E-02  0.1130116E+00
         25   -1    0    0    0    0  0.00000000000E+00  0.00000000000E+00  0.99999998245E-14  0.12500000000E+03  0.12500000000E+03 0.  0.
        -11    1    3    3    0    0 -0.19178029741E+02 -0.37417398857E+02  0.27837524966E+01  0.42137961985E+02  0.51100000000E-03 0.  1.
         23    2    1    0    0    0 -0.17675333497E+02  0.15592377682E+02  0.15650072095E+02  0.96707520211E+02  0.92476375647E+02 0.  0.
         11    1    3    3    0    0  0.15026962438E+01  0.53009776540E+02  0.12866319598E+02  0.54569558227E+02  0.51100000000E-03 0. -1.
         22    1    1    0    0    0  0.17675333497E+02 -0.15592377682E+02 -0.15650072095E+02  0.28292479789E+02  0.00000000000E+00 0. -1.
</event>
<event>
 5    1  0.8952932E-005  0.9118800E+02  0.7818608E-02  0.1130116E+00
         25   -1    0    0    0    0  0.00000000000E+00  0.00000000000E+00  0.99999998245E-14  0.12500000000E+03  0.12500000000E+03 0.  0.
        -11    1    3    3    0    0 -0.40154843110E+02 -0.20391053494E+02  0.24951067057E+02  0.51485553657E+02  0.51100000000E-03 0.  1.
         23    2    1    0    0    0 -0.42683253221E+01 -0.30822177289E+02  0.63024165530E+01  0.93251839923E+02  0.87681012658E+02 0.  0.
         11    1    3    3    0    0  0.35886517788E+02 -0.10431123795E+02 -0.18648650504E+02  0.41766286266E+02  0.51100000000E-03 0. -1.
         22    1    1    0    0    0  0.42683253221E+01  0.30822177289E+02 -0.63024165530E+01  0.31748160077E+02  0.00000000000E+00 0.  1.
</event>
<event>
 5    1  0.8952932E-005  0.9118800E+02  0.7818608E-02  0.1130116E+00
         25   -1    0    0    0    0  0.00000000000E+00  0.00000000000E+00  0.99999998245E-14  0.12500000000E+03  0.12500000000E+03 0.  0.
        -11    1    3    3    0    0  0.37883526851E+02  0.22883552469E+02  0.19714718303E+01  0.44302429750E+02  0.51100000000E-03 0.  1.
         23    2    1    0    0    0  0.68132209044E+01 -0.10262790420E+02  0.26387038408E+02  0.95879206017E+02  0.91349885080E+02 0.  0.
         11    1    3    3    0    0 -0.31070305947E+02 -0.33146342888E+02  0.24415566577E+02  0.51576776267E+02  0.51100000000E-03 0. -1.
         22    1    1    0    0    0 -0.68132209044E+01  0.10262790420E+02 -0.26387038408E+02  0.29120793983E+02  0.00000000000E+00 0. -1.
</event>
<event>
 5    1  0.8952932E-005  0.9118800E+02  0.7818608E-02  0.1130116E+00
         25   -1    0    0    0    0  0.00000000000E+00  0.00000000000E+00  0.99999998245E-14  0.12500000000E+03  0.12500000000E+03 0.  0.
        -11    1    3    3    0    0  0.48626925156E+02  0.27534216842E+02  0.18338044906E+02  0.58813219929E+02  0.51100000000E-03 0.  1.
         23    2    1    0    0    0  0.22587406337E+02  0.16314632056E+02 -0.63653254066E+01  0.96418965874E+02  0.92085511719E+02 0.  0.
         11    1    3    3    0    0 -0.26039518819E+02 -0.11219584785E+02 -0.24703370312E+02  0.37605745945E+02  0.51100000000E-03 0. -1.
         22    1    1    0    0    0 -0.22587406337E+02 -0.16314632056E+02  0.63653254066E+01  0.28581034126E+02  0.00000000000E+00 0.  1.
</event>
<event>
 5    1  0.8952932E-005  0.9118800E+02  0.7818608E-02  0.1130116E+00
         25   -1    0    0    0    0  0.00000000000E+00  0.00000000000E+00  0.99999998245E-14  0.12500000000E+03  0.12500000000E+03 0.  0.
        -11    1    3    3    0    0  0.31426163804E+02 -0.12572372068E+02  0.51363626691E+01  0.34235223566E+02  0.51100000000E-03 0. -1.
         23    2    1    0    0    0 -0.17120099852E+02  0.51174448495E+01 -0.25166934128E+02  0.94134798978E+02  0.88930870594E+02 0.  0.
         11    1    3    3    0    0 -0.48546263656E+02  0.17689816918E+02 -0.30303296797E+02  0.59899575412E+02  0.51100000000E-03 0.  1.
         22    1    1    0    0    0  0.17120099852E+02 -0.51174448495E+01  0.25166934128E+02  0.30865201022E+02  0.00000000000E+00 0.  1.
</event>
<event>
 5    1  0.8952932E-005  0.9118800E+02  0.7818608E-02  0.1130116E+00
         25   -1    0    0    0    0  0.00000000000E+00  0.00000000000E+00  0.99999998245E-14  0.12500000000E+03  0.12500000000E+03 0.  0.
        -11    1    3    3    0    0  0.30244447210E+02 -0.35938183036E+02  0.19635711903E+02  0.50910124427E+02  0.51100000000E-03 0.  1.
         23    2    1    0    0    0 -0.12397839019E+02 -0.16607715451E+02  0.17660729496E+02  0.97770898084E+02  0.93902739688E+02 0.  0.
         11    1    3    3    0    0 -0.42642286230E+02  0.19330467585E+02 -0.19749824074E+01  0.46860773657E+02  0.51100000000E-03 0. -1.
         22    1    1    0    0    0  0.12397839019E+02  0.16607715451E+02 -0.17660729496E+02  0.27229101916E+02  0.00000000000E+00 0.  1.
</event>
<event>
 5    1  0.8952932E-005  0.9118800E+02  0.7818608E-02  0.1130116E+00
         25   -1    0    0    0    0  0.00000000000E+00  0.00000000000E+00  0.99999998245E-14  0.12500000000E+03  0.12500000000E+03 0.  0.
        -11    1    3    3    0    0 -0.75996759779E+01  0.17566415062E+02  0.36634746522E+02  0.41333263433E+02  0.51100000000E-03 0. -1.
         23    2    1    0    0    0  0.22586571822E+02 -0.17773375792E+02  0.13717719070E+02  0.93153148818E+02  0.87540203361E+02 0.  0.
         11    1    3    3    0    0  0.30186247800E+02 -0.35339790854E+02 -0.22917027451E+02  0.51819885385E+02  0.51100000000E-03 0.  1.
         22    1    1    0    0    0 -0.22586571822E+02  0.17773375792E+02 -0.13717719070E+02  0.31846851182E+02  0.00000000000E+00 0.  1.
</event>
<event>
 5    1  0.8952932E-005  0.9118800E+02  0.7818608E-02  0.1130116E+00
         25   -1    0    0    0    0  0.00000000000E+00  0.00000000000E+00  0.99999998245E-14  0.12500000000E+03  0.12500000000E+03 0.  0.
        -11    1    3    3    0    0 -0.23225332039E+02 -0.20998130614E+02 -0.30318121811E+02  0.43583552494E+02  0.51100000000E-03 0.  1.
         23    2    1    0    0    0  0.15893469978E+02 -0.61328809174E+01  0.12815961474E+02  0.10368185081E+03  0.10146655953E+03 0.  0.
         11    1    3    3    0    0  0.39118802016E+02  0.14865249697E+02  0.43134083285E+02  0.60098298319E+02  0.51100000000E-03 0. -1.
         22    1    1    0    0    0 -0.15893469978E+02  0.61328809174E+01 -0.12815961474E+02  0.21318149187E+02  0.00000000000E+00 0. -1.
</event>
<event>
 5    1  0.8952932E-005  0.9118800E+02  0.7818608E-02  0.1130116E+00
         25   -1    0    0    0    0  0.00000000000E+00  0.00000000000E+00  0.99999998245E-14  0.12500000000E+03  0.12500000000E+03 0.  0.
        -11    1    3    3    0    0  0.47846431377E+02  0.22831794628E+02 -0.30224291209E+02  0.61025237572E+02  0.51100000000E-03 0.  1.
         23    2    1    0    0    0  0.28563399256E+02  0.52315167613E+01 -0.92210473560E+01  0.94532570521E+02  0.89488226211E+02 0.  0.
         11    1    3    3    0    0 -0.19283032121E+02 -0.17600277867E+02  0.21003243853E+02  0.33507332949E+02  0.51100000000E-03 0. -1.
         22    1    1    0    0    0 -0.28563399256E+02 -0.52315167613E+01  0.92210473560E+01  0.30467429479E+02  0.00000000000E+00 0.  1.
</event>
<event>
 5    1  0.8952932E-005  0.9118800E+02  0.7818608E-02  0.1130116E+00
         25   -1    0    0    0    0  0.00000000000E+00  0.00000000000E+00  0.99999998245E-14  0.12500000000E+03  0.12500000000E+03 0.  0.
        -11    1    3    3    0    0 -0.19052740322E+02 -0.86274025700E+01  0.42242508572E+02  0.47136700347E+02  0.51100000000E-03 0. -1.
         23    2    1    0    0    0 -0.14644148006E+02  0.24052556528E+02  0.58651781471E+01  0.96235840685E+02  0.91836594946E+02 0.  0.
         11    1    3    3    0    0  0.44085923160E+01  0.32679959098E+02 -0.36377330425E+02  0.49099140338E+02  0.51100000000E-03 0.  1.
         22    1    1    0    0    0  0.14644148006E+02 -0.24052556528E+02 -0.58651781471E+01  0.28764159315E+02  0.00000000000E+00 0.  1.
</event>
<event>
 5    1  0.8952932E-005  0.9118800E+02  0.7818608E-02  0.1130116E+00
         25   -1    0    0    0    0  0.00000000000E+00  0.00000000000E+00  0.99999998245E-14  0.12500000000E+03  0.12500000000E+03 0.  0.
        -11    1    3    3    0    0  0.26267896146E+01 -0.34800773366E+02  0.28699491807E+02  0.45184673073E+02  0.51100000000E-03 0.  1.
         23    2    1    0    0    0 -0.27562113586E+02  0.10426632419E+01  0.94997495126E+01  0.95828052983E+02  0.91279862214E+02 0.  0.
         11    1    3    3    0    0 -0.30188903200E+02  0.35843436608E+02 -0.19199742294E+02  0.50643379910E+02  0.51100000000E-03 0. -1.
         22    1    1    0    0    0  0.27562113586E+02 -0.10426632419E+01 -0.94997495126E+01  0.29171947017E+02  0.00000000000E+00 0. -1.
</event>
<event>
 5    1  0.8952932E-005  0.9118800E+02  0.7818608E-02  0.1130116E+00
         25   -1    0    0    0    0  0.00000000000E+00  0.00000000000E+00  0.99999998245E-14  0.12500000000E+03  0.12500000000E+03 0.  0.
        -11    1    3    3    0    0 -0.78016158044E+01  0.35918321306E+02 -0.68508034257E+01  0.37388828845E+02  0.51100000000E-03 0. -1.
         23    2    1    0    0    0 -0.10724602866E+02 -0.17346821441E+02  0.19408092085E+02  0.96846787765E+02  0.92664431910E+02 0.  0.
         11    1    3    3    0    0 -0.29229870619E+01 -0.53265142747E+02  0.26258895511E+02  0.59457958920E+02  0.51100000000E-03 0.  1.
         22    1    1    0    0    0  0.10724602866E+02  0.17346821441E+02 -0.19408092085E+02  0.28153212235E+02  0.00000000000E+00 0.  1.
</event>
<event>
 5    1  0.8952932E-005  0.9118800E+02  0.7818608E-02  0.1130116E+00
         25   -1    0    0    0    0  0.00000000000E+00  0.00000000000E+00  0.99999998245E-14  0.12500000000E+03  0.12500000000E+03 0.  0.
        -11    1    3    3    0    0 -0.43423670592E+02 -0.15162921657E+02 -0.97205922380E+01  0.47010842096E+02  0.51100000000E-03 0. -1.
         23    2    1    0    0    0 -0.12526356703E+02 -0.24441014596E+01  0.26069869031E+02  0.95973782274E+02  0.91479208394E+02 0.  0.
         11    1    3    3    0    0  0.30897313889E+02  0.12718820198E+02  0.35790461269E+02  0.48962940178E+02  0.51100000000E-03 0.  1.
         22    1    1    0    0    0  0.12526356703E+02  0.24441014596E+01 -0.26069869031E+02  0.29026217726E+02  0.00000000000E+00 0. -1.
</event>
<event>
 5    1  0.8952932E-005  0.9118800E+02  0.7818608E-02  0.1130116E+00
         25   -1    0    0    0    0  0.00000000000E+00  0.00000000000E+00  0.99999998245E-14  0.12500000000E+03  0.12500000000E+03 0.  0.
        -11    1    3    3    0    0  0.78827955122E+01  0.70024203611E+01  0.52286599384E+02  0.53339111648E+02  0.51100000000E-03 0.  1.
         23    2    1    0    0    0 -0.11311752569E+02  0.20682824394E+02  0.16369169968E+02  0.96300092395E+02  0.91924007195E+02 0.  0.
         11    1    3    3    0    0 -0.19194548081E+02  0.13680404033E+02 -0.35917429417E+02  0.42960980747E+02  0.51100000000E-03 0. -1.
         22    1    1    0    0    0  0.11311752569E+02 -0.20682824394E+02 -0.16369169968E+02  0.28699907605E+02  0.00000000000E+00 0. -1.
</event>
<event>
 5    1  0.8952932E-005  0.9118800E+02  0.7818608E-02  0.1130116E+00
         25   -1    0    0    0    0  0.00000000000E+00  0.00000000000E+00  0.99999998245E-14  0.12500000000E+03  0.12500000000E+03 0.  0.
        -11    1    3    3    0    0 -0.30744614807E+02 -0.28809405188E+02 -0.22921671315E+02  0.47964738955E+02  0.51100000000E-03 0.  1.
         23    2    1    0    0    0 -0.86643085841E+01  0.12692087675E+02 -0.25699353837E+02  0.95056451105E+02  0.90217031520E+02 0.  0.
         11    1    3    3    0    0  0.22080306223E+02  0.41501492863E+02 -0.27776825221E+01  0.47091712150E+02  0.51100000000E-03 0. -1.
         22    1    1    0    0    0  0.86643085841E+01 -0.12692087675E+02  0.25699353837E+02  0.29943548895E+02  0.00000000000E+00 0. -1.
</event>
<event>
 5    1  0.8952932E-005  0.9118800E+02  0.7818608E-02  0.1130116E+00
         25   -1    0    0    0    0  0.00000000000E+00  0.00000000000E+00  0.99999998245E-14  0.12500000000E+03  0.12500000000E+03 0.  0.
        -11    1    3    3    0    0  0.38973241661E+02  0.13002145380E+02  0.10570808361E+02  0.42423004841E+02  0.51100000000E-03 0.  1.
         23    2    1    0    0    0 -0.16511826852E+02  0.19952472948E+02  0.50499544961E+01  0.98613570853E+02  0.95017854708E+02 0.  0.
         11    1    3    3    0    0 -0.55485068513E+02  0.69503275680E+01 -0.55208538646E+01  0.56190566013E+02  0.51100000000E-03 0. -1.
         22    1    1    0    0    0  0.16511826852E+02 -0.19952472948E+02 -0.50499544961E+01  0.26386429147E+02  0.00000000000E+00 0. -1.
</event>
<event>
 5    1  0.8952932E-005  0.9118800E+02  0.7818608E-02  0.1130116E+00
         25   -1    0    0    0    0  0.00000000000E+00  0.00000000000E+00  0.99999998245E-14  0.12500000000E+03  0.12500000000E+03 0.  0.
        -11    1    3    3    0    0  0.21143770466E+02 -0.83687316509E+00 -0.58371406716E+02  0.62088489340E+02  0.51100000000E-03 0.  1.
         23    2    1    0    0    0  0.13718555603E+02  0.22772219147E+01 -0.25257244455E+02  0.96167502624E+02  0.91743531957E+02 0.  0.
         11    1    3    3    0    0 -0.74252148636E+01  0.31140950798E+01  0.33114162261E+02  0.34079013284E+02  0.51100000000E-03 0. -1.
         22    1    1    0    0    0 -0.13718555603E+02 -0.22772219147E+01  0.25257244455E+02  0.28832497376E+02  0.00000000000E+00 0.  1.
</event>
<event>
 5    1  0.8952932E-005  0.9118800E+02  0.7818608E-02  0.1130116E+00
         25   -1    0    0    0    0  0.00000000000E+00  0.00000000000E+00  0.99999998245E-14  0.12500000000E+03  0.12500000000E+03 0.  0.
        -11    1    3    3    0    0 -0.13611012911E+02  0.28112858033E+02 -0.12151232188E+02  0.33514846012E+02  0.51100000000E-03 0.  1.
         23    2    1    0    0    0  0.22129051501E+02 -0.20556280679E+02 -0.59617847735E+01  0.94213664177E+02  0.89041653423E+02 0.  0.
         11    1    3    3    0    0  0.35740064413E+02 -0.48669138712E+02  0.61894474142E+01  0.60698818166E+02  0.51100000000E-03 0. -1.
         22    1    1    0    0    0 -0.22129051501E+02  0.20556280679E+02  0.59617847735E+01  0.30786335823E+02  0.00000000000E+00 0. -1.
</event>
<event>
 5    1  0.8952932E-005  0.9118800E+02  0.7818608E-02  0.1130116E+00
         25   -1    0    0    0    0  0.00000000000E+00  0.00000000000E+00  0.99999998245E-14  0.12500000000E+03  0.12500000000E+03 0.  0.
        -11    1    3    3    0    0  0.21853048605E+02 -0.24137206620E+02  0.32857439520E+02  0.46257667568E+02  0.51100000000E-03 0.  1.
         23    2    1    0    0    0  0.16784481485E+02 -0.21394391441E+02 -0.14649132040E+02  0.94112528861E+02  0.88899562514E+02 0.  0.
         11    1    3    3    0    0 -0.50685671203E+01  0.27428151791E+01 -0.47506571560E+02  0.47854861293E+02  0.51100000000E-03 0. -1.
         22    1    1    0    0    0 -0.16784481485E+02  0.21394391441E+02  0.14649132040E+02  0.30887471139E+02  0.00000000000E+00 0. -1.
</event>
<event>
 5    1  0.8952932E-005  0.9118800E+02  0.7818608E-02  0.1130116E+00
         25   -1    0    0    0    0  0.00000000000E+00  0.00000000000E+00  0.99999998245E-14  0.12500000000E+03  0.12500000000E+03 0.  0.
        -11    1    3    3    0    0  0.15405564852E+02 -0.28626409303E+02  0.28427530705E+02  0.43184803348E+02  0.51100000000E-03 0. -1.
         23    2    1    0    0    0 -0.26113153968E+02 -0.18574660247E+02  0.21371384348E+02  0.86481811019E+02  0.77430309019E+02 0.  0.
         11    1    3    3    0    0 -0.41518718820E+02  0.10051749056E+02 -0.70561463572E+01  0.43297007671E+02  0.51100000000E-03 0.  1.
         22    1    1    0    0    0  0.26113153968E+02  0.18574660247E+02 -0.21371384348E+02  0.38518188981E+02  0.00000000000E+00 0. -1.
</event>
<event>
 5    1  0.8952932E-005  0.9118800E+02  0.7818608E-02  0.1130116E+00
         25   -1    0    0    0    0  0.00000000000E+00  0.00000000000E+00  0.99999998245E-14  0.12500000000E+03  0.12500000000E+03 0.  0.
        -11    1    3    3    0    0 -0.44930926163E+02  0.33452263398E+02  0.44919038298E+01  0.56196256571E+02  0.51100000000E-03 0.  1.
         23    2    1    0    0    0 -0.18163091048E+02  0.76072916919E+01  0.20385156210E+02  0.96657040433E+02  0.92408117113E+02 0.  0.
         11    1    3    3    0    0  0.26767835116E+02 -0.25844971706E+02  0.15893252381E+02  0.40460783862E+02  0.51100000000E-03 0. -1.
         22    1    1    0    0    0  0.18163091048E+02 -0.76072916919E+01 -0.20385156210E+02  0.28342959567E+02  0.00000000000E+00 0.  1.
</event>
<event>
 5    1  0.8952932E-005  0.9118800E+02  0.7818608E-02  0.1130116E+00
         25   -1    0    0    0    0  0.00000000000E+00  0.00000000000E+00  0.99999998245E-14  0.12500000000E+03  0.12500000000E+03 0.  0.
        -11    1    3    3    0    0  0.17440282427E+02 -0.53383328436E+02 -0.16119953374E+02  0.58427699793E+02  0.51100000000E-03 0. -1.
         23    2    1    0    0    0  0.12809444369E+02 -0.25560124408E+02  0.77495955243E+01  0.95378081501E+02  0.90661570553E+02 0.  0.
         11    1    3    3    0    0 -0.46308380583E+01  0.27823204028E+02  0.23869548898E+02  0.36950381708E+02  0.51100000000E-03 0.  1.
         22    1    1    0    0    0 -0.12809444369E+02  0.25560124408E+02 -0.77495955243E+01  0.29621918499E+02  0.00000000000E+00 0. -1.
</event>
<event>
 5    1  0.8952932E-005  0.9118800E+02  0.7818608E-02  0.1130116E+00
         25   -1    0    0    0    0  0.00000000000E+00  0.00000000000E+00  0.99999998245E-14  0.12500000000E+03  0.12500000000E+03 0.  0.
        -11    1    3    3    0    0 -0.59365709103E+01  0.39626768328E+02  0.46636253983E+02  0.61485476562E+02  0.51100000000E-03 0. -1.
         23    2    1    0    0    0 -0.24817624371E+01  0.12272312356E+02  0.26700621661E+02  0.95509459272E+02  0.90842527585E+02 0.  0.
         11    1    3    3    0    0  0.34548084732E+01 -0.27354455972E+02 -0.19935632322E+02  0.34023982710E+02  0.51100000000E-03 0.  1.
         22    1    1    0    0    0  0.24817624371E+01 -0.12272312356E+02 -0.26700621661E+02  0.29490540728E+02  0.00000000000E+00 0. -1.
</event>
<event>
 5    1  0.8952932E-005  0.9118800E+02  0.7818608E-02  0.1130116E+00
         25   -1    0    0    0    0  0.00000000000E+00  0.00000000000E+00  0.99999998245E-14  0.12500000000E+03  0.12500000000E+03 0.  0.
        -11    1    3    3    0    0  0.30327764747E+02  0.35880685447E+02  0.35410428608E+02  0.58831074758E+02  0.51100000000E-03 0.  1.
         23    2    1    0    0    0  0.18906225319E+02  0.23230093438E+02  0.37140430383E+01  0.94819265870E+02  0.89887799325E+02 0.  0.
         11    1    3    3    0    0 -0.11421539428E+02 -0.12650592009E+02 -0.31696385569E+02  0.35988191112E+02  0.51100000000E-03 0. -1.
         22    1    1    0    0    0 -0.18906225319E+02 -0.23230093438E+02 -0.37140430383E+01  0.30180734130E+02  0.00000000000E+00 0.  1.
</event>
<event>
 5    1  0.8952932E-005  0.9118800E+02  0.7818608E-02  0.1130116E+00
         25   -1    0    0    0    0  0.00000000000E+00  0.00000000000E+00  0.99999998245E-14  0.12500000000E+03  0.12500000000E+03 0.  0.
        -11    1    3    3    0    0  0.10969039122E+01 -0.23578737942E+02  0.51073509119E+02  0.56264228557E+02  0.51100000000E-03 0.  1.
         23    2    1    0    0    0  0.17279567463E+01 -0.26974283819E+02  0.12108142368E+02  0.95382354353E+02  0.90667461574E+02 0.  0.
         11    1    3    3    0    0  0.63105283413E+00 -0.33955458770E+01 -0.38965366751E+02  0.39118125796E+02  0.51100000000E-03 0. -1.
         22    1    1    0    0    0 -0.17279567463E+01  0.26974283819E+02 -0.12108142368E+02  0.29617645647E+02  0.00000000000E+00 0.  1.
</event>
<event>
 5    1  0.8952932E-005  0.9118800E+02  0.7818608E-02  0.1130116E+00
         25   -1    0    0    0    0  0.00000000000E+00  0.00000000000E+00  0.99999998245E-14  0.12500000000E+03  0.12500000000E+03 0.  0.
        -11    1    3    3    0    0 -0.13848199108E+02 -0.52292179696E+01 -0.42890783407E+02  0.45373303171E+02  0.51100000000E-03 0.  1.
         23    2    1    0    0    0  0.16714748862E+01 -0.32643747534E+02 -0.33382416508E+02  0.78279621007E+02  0.62808480730E+02 0.  0.
         11    1    3    3    0    0  0.15519673994E+02 -0.27414529565E+02  0.95083668992E+01  0.32906317836E+02  0.51100000000E-03 0. -1.
         22    1    1    0    0    0 -0.16714748862E+01  0.32643747534E+02  0.33382416508E+02  0.46720378993E+02  0.00000000000E+00 0. -1.
</event>
<event>
 5    1  0.8952932E-005  0.9118800E+02  0.7818608E-02  0.1130116E+00
         25   -1    0    0    0    0  0.00000000000E+00  0.00000000000E+00  0.99999998245E-14  0.12500000000E+03  0.12500000000E+03 0.  0.
        -11    1    3    3    0    0  0.80409591236E+01 -0.31543278430E+02  0.14443720854E+02  0.35612589208E+02  0.51100000000E-03 0.  1.
         23    2    1    0    0    0 -0.21274403509E+02  0.11165864564E+02 -0.16407427457E+02  0.95905662890E+02  0.91386080573E+02 0.  0.
         11    1    3    3    0    0 -0.29315362633E+02  0.42709142995E+02 -0.30851148311E+02  0.60293073681E+02  0.51100000000E-03 0. -1.
         22    1    1    0    0    0  0.21274403509E+02 -0.11165864564E+02  0.16407427457E+02  0.29094337110E+02  0.00000000000E+00 0. -1.
</event>
<event>
 5    1  0.8952932E-005  0.9118800E+02  0.7818608E-02  0.1130116E+00
         25   -1    0    0    0    0  0.00000000000E+00  0.00000000000E+00  0.99999998245E-14  0.12500000000E+03  0.12500000000E+03 0.  0.
        -11    1    3    3    0    0  0.18783530640E+02  0.47638286010E+02 -0.24123671583E+02  0.56605466592E+02  0.51100000000E-03 0.  1.
         23    2    1    0    0    0  0.13779305172E+02  0.24660858137E+02  0.72701069712E+01  0.95830124607E+02  0.91282699082E+02 0.  0.
         11    1    3    3    0    0 -0.50042254681E+01 -0.22977427873E+02  0.31393778554E+02  0.39224658014E+02  0.51100000000E-03 0. -1.
         22    1    1    0    0    0 -0.13779305172E+02 -0.24660858137E+02 -0.72701069712E+01  0.29169875393E+02  0.00000000000E+00 0.  1.
</event>
<event>
 5    1  0.8952932E-005  0.9118800E+02  0.7818608E-02  0.1130116E+00
         25   -1    0    0    0    0  0.00000000000E+00  0.00000000000E+00  0.99999998245E-14  0.12500000000E+03  0.12500000000E+03 0.  0.
        -11    1    3    3    0    0 -0.50608610365E+02  0.27049318970E+02 -0.66751498278E+01  0.57770708194E+02  0.51100000000E-03 0. -1.
         23    2    1    0    0    0 -0.13115139468E+02  0.22207684997E+02  0.74916521910E+01  0.98142728941E+02  0.94396410076E+02 0.  0.
         11    1    3    3    0    0  0.37493470897E+02 -0.48416339725E+01  0.14166802019E+02  0.40372020746E+02  0.51100000000E-03 0.  1.
         22    1    1    0    0    0  0.13115139468E+02 -0.22207684997E+02 -0.74916521910E+01  0.26857271059E+02  0.00000000000E+00 0. -1.
</event>
<event>
 5    1  0.8952932E-005  0.9118800E+02  0.7818608E-02  0.1130116E+00
         25   -1    0    0    0    0  0.00000000000E+00  0.00000000000E+00  0.99999998245E-14  0.12500000000E+03  0.12500000000E+03 0.  0.
        -11    1    3    3    0    0 -0.50872935895E+01  0.22578194377E+02  0.46137497400E+02  0.51617091007E+02  0.51100000000E-03 0. -1.
         23    2    1    0    0    0  0.13447748790E+02  0.24630861942E+02  0.53967853106E+01  0.96422970777E+02  0.92090947950E+02 0.  0.
         11    1    3    3    0    0  0.18535042380E+02  0.20526675651E+01 -0.40740712090E+02  0.44805879770E+02  0.51100000000E-03 0.  1.
         22    1    1    0    0    0 -0.13447748790E+02 -0.24630861942E+02 -0.53967853106E+01  0.28577029223E+02  0.00000000000E+00 0. -1.
</event>
<event>
 5    1  0.8952932E-005  0.9118800E+02  0.7818608E-02  0.1130116E+00
         25   -1    0    0    0    0  0.00000000000E+00  0.00000000000E+00  0.99999998245E-14  0.12500000000E+03  0.12500000000E+03 0.  0.
        -11    1    3    3    0    0  0.42964379006E+02  0.27419199036E+02 -0.18419469134E+02  0.54194346408E+02  0.51100000000E-03 0. -1.
         23    2    1    0    0    0  0.18646979981E+02  0.15379857952E+02  0.14467044897E+02  0.96830064234E+02  0.92641869899E+02 0.  0.
         11    1    3    3    0    0 -0.24317399026E+02 -0.12039341084E+02  0.32886514031E+02  0.42635717825E+02  0.51100000000E-03 0.  1.
         22    1    1    0    0    0 -0.18646979981E+02 -0.15379857952E+02 -0.14467044897E+02  0.28169935766E+02  0.00000000000E+00 0. -1.
</event>
<event>
 5    1  0.8952932E-005  0.9118800E+02  0.7818608E-02  0.1130116E+00
         25   -1    0    0    0    0  0.00000000000E+00  0.00000000000E+00  0.99999998245E-14  0.12500000000E+03  0.12500000000E+03 0.  0.
        -11    1    3    3    0    0  0.16400577171E+01  0.39009238758E+02 -0.96408478168E+01  0.40216370357E+02  0.51100000000E-03 0. -1.
         23    2    1    0    0    0  0.17391252752E+02 -0.11833092604E+02 -0.21685439310E+02  0.94788478507E+02  0.89844975523E+02 0.  0.
         11    1    3    3    0    0  0.15751195035E+02 -0.50842331363E+02 -0.12044591493E+02  0.54572108150E+02  0.51100000000E-03 0.  1.
         22    1    1    0    0    0 -0.17391252752E+02  0.11833092604E+02  0.21685439310E+02  0.30211521493E+02  0.00000000000E+00 0.  1.
</event>
<event>
 5    1  0.8952932E-005  0.9118800E+02  0.7818608E-02  0.1130116E+00
         25   -1    0    0    0    0  0.00000000000E+00  0.00000000000E+00  0.99999998245E-14  0.12500000000E+03  0.12500000000E+03 0.  0.
        -11    1    3    3    0    0  0.24778535161E+02 -0.12609091970E+02 -0.26822689030E+02  0.38631873525E+02  0.51100000000E-03 0. -1.
         23    2    1    0    0    0 -0.24069489114E+02  0.87582587495E+01  0.21218687140E+01  0.99298837976E+02  0.95915116087E+02 0.  0.
         11    1    3    3    0    0 -0.48848024275E+02  0.21367350720E+02  0.28944557744E+02  0.60666964450E+02  0.51100000000E-03 0.  1.
         22    1    1    0    0    0  0.24069489114E+02 -0.87582587495E+01 -0.21218687140E+01  0.25701162024E+02  0.00000000000E+00 0.  1.
</event>
<event>
 5    1  0.8952932E-005  0.9118800E+02  0.7818608E-02  0.1130116E+00
         25   -1    0    0    0    0  0.00000000000E+00  0.00000000000E+00  0.99999998245E-14  0.12500000000E+03  0.12500000000E+03 0.  0.
        -11    1    3    3    0    0 -0.62441306930E+01 -0.38747780611E+02 -0.32102517879E+00  0.39248983781E+02  0.51100000000E-03 0. -1.
         23    2    1    0    0    0 -0.17865764682E+02  0.12528130931E+02  0.19791293373E+02  0.95540962241E+02  0.90885865569E+02 0.  0.
         11    1    3    3    0    0 -0.11621633989E+02  0.51275911543E+02  0.20112318552E+02  0.56291978460E+02  0.51100000000E-03 0.  1.
         22    1    1    0    0    0  0.17865764682E+02 -0.12528130931E+02 -0.19791293373E+02  0.29459037759E+02  0.00000000000E+00 0.  1.
</event>
<event>
 5    1  0.8952932E-005  0.9118800E+02  0.7818608E-02  0.1130116E+00
         25   -1    0    0    0    0  0.00000000000E+00  0.00000000000E+00  0.99999998245E-14  0.12500000000E+03  0.12500000000E+03 0.  0.
        -11    1    3    3    0    0 -0.56263013663E+02  0.71006623029E+01 -0.17219958853E+02  0.59266120969E+02  0.51100000000E-03 0. -1.
         23    2    1    0    0    0 -0.27860119523E+02 -0.98594715346E+01 -0.29299984275E+01  0.95301846361E+02  0.90556400051E+02 0.  0.
         11    1    3    3    0    0  0.28402894140E+02 -0.16960133838E+02  0.14289960426E+02  0.36035725392E+02  0.51100000000E-03 0.  1.
         22    1    1    0    0    0  0.27860119523E+02  0.98594715346E+01  0.29299984275E+01  0.29698153639E+02  0.00000000000E+00 0. -1.
</event>
<event>
 5    1  0.8952932E-005  0.9118800E+02  0.7818608E-02  0.1130116E+00
         25   -1    0    0    0    0  0.00000000000E+00  0.00000000000E+00  0.99999998245E-14  0.12500000000E+03  0.12500000000E+03 0.  0.
        -11    1    3    3    0    0 -0.20716232448E+02 -0.22951610683E+02  0.16725680772E+02  0.35152341563E+02  0.51100000000E-03 0.  1.
         23    2    1    0    0    0  0.25122530189E+02  0.14390099567E+02  0.83627747480E+01  0.94864431478E+02  0.89950585709E+02 0.  0.
         11    1    3    3    0    0  0.45838762638E+02  0.37341710250E+02 -0.83629060237E+01  0.59712089915E+02  0.51100000000E-03 0. -1.
         22    1    1    0    0    0 -0.25122530189E+02 -0.14390099567E+02 -0.83627747480E+01  0.30135568522E+02  0.00000000000E+00 0. -1.
</event>
<event>
 5    1  0.8952932E-005  0.9118800E+02  0.7818608E-02  0.1130116E+00
         25   -1    0    0    0    0  0.00000000000E+00  0.00000000000E+00  0.99999998245E-14  0.12500000000E+03  0.12500000000E+03 0.  0.
        -11    1    3    3    0    0  0.33429042114E+02 -0.66072954015E+01 -0.27586979567E+01  0.34187243584E+02  0.51100000000E-03 0.  1.
         23    2    1    0    0    0 -0.27018061431E+02  0.11774170722E+01 -0.11225856677E+02  0.95718917155E+02  0.91130287439E+02 0.  0.
         11    1    3    3    0    0 -0.60447103546E+02  0.77847124737E+01 -0.84671587199E+01  0.61531673571E+02  0.51100000000E-03 0. -1.
         22    1    1    0    0    0  0.27018061431E+02 -0.11774170722E+01  0.11225856677E+02  0.29281082845E+02  0.00000000000E+00 0. -1.
</event>
<event>
 5    1  0.8952932E-005  0.9118800E+02  0.7818608E-02  0.1130116E+00
         25   -1    0    0    0    0  0.00000000000E+00  0.00000000000E+00  0.99999998245E-14  0.12500000000E+03  0.12500000000E+03 0.  0.
        -11    1    3    3    0    0  0.17956182695E+02 -0.29261806883E+02  0.12821672638E+02  0.36647962133E+02  0.51100000000E-03 0. -1.
         23    2    1    0    0    0 -0.29405938714E+02  0.36637918940E+01  0.63667619764E+01  0.94690459246E+02  0.89708499103E+02 0.  0.
         11    1    3    3    0    0 -0.47362121408E+02  0.32925598777E+02 -0.64549106615E+01  0.58042497112E+02  0.51100000000E-03 0.  1.
         22    1    1    0    0    0  0.29405938714E+02 -0.36637918940E+01 -0.63667619764E+01  0.30309540754E+02  0.00000000000E+00 0.  1.
</event>
<event>
 5    1  0.8952932E-005  0.9118800E+02  0.7818608E-02  0.1130116E+00
         25   -1    0    0    0    0  0.00000000000E+00  0.00000000000E+00  0.99999998245E-14  0.12500000000E+03  0.12500000000E+03 0.  0.
        -11    1    3    3    0    0 -0.27288480930E+02 -0.10733675719E+02 -0.35804737547E+02  0.46280149276E+02  0.51100000000E-03 0.  1.
         23    2    1    0    0    0  0.16303293026E+02 -0.95436278884E+01  0.44105927366E+01  0.10560073390E+03  0.10380358123E+03 0.  0.
         11    1    3    3    0    0  0.43591773957E+02  0.11900478308E+01  0.40215330284E+02  0.59320584628E+02  0.51100000000E-03 0. -1.
         22    1    1    0    0    0 -0.16303293026E+02  0.95436278884E+01 -0.44105927366E+01  0.19399266096E+02  0.00000000000E+00 0. -1.
</event>
<event>
 5    1  0.8952932E-005  0.9118800E+02  0.7818608E-02  0.1130116E+00
         25   -1    0    0    0    0  0.00000000000E+00  0.00000000000E+00  0.99999998245E-14  0.12500000000E+03  0.12500000000E+03 0.  0.
        -11    1    3    3    0    0 -0.17412572413E+02  0.52035642863E+02 -0.29202364628E+02  0.62158538483E+02  0.51100000000E-03 0.  1.
         23    2    1    0    0    0 -0.82681030998E+01  0.21740722232E+02 -0.17476847140E+02  0.95906002028E+02  0.91386544452E+02 0.  0.
         11    1    3    3    0    0  0.91444693132E+01 -0.30294920631E+02  0.11725517488E+02  0.33747463544E+02  0.51100000000E-03 0. -1.
         22    1    1    0    0    0  0.82681030998E+01 -0.21740722232E+02  0.17476847140E+02  0.29093997972E+02  0.00000000000E+00 0.  1.
</event>
<event>
 5    1  0.8952932E-005  0.9118800E+02  0.7818608E-02  0.1130116E+00
         25   -1    0    0    0    0  0.00000000000E+00  0.00000000000E+00  0.99999998245E-14  0.12500000000E+03  0.12500000000E+03 0.  0.
        -11    1    3    3    0    0 -0.13459124978E+00 -0.36334662998E+02  0.25832479651E+02  0.44581866888E+02  0.51100000000E-03 0. -1.
         23    2    1    0    0    0  0.27924887508E+02  0.27050222088E+01  0.85639179964E+01  0.95666449602E+02  0.91058291224E+02 0.  0.
         11    1    3    3    0    0  0.28059478758E+02  0.39039685207E+02 -0.17268561655E+02  0.51084582715E+02  0.51100000000E-03 0.  1.
         22    1    1    0    0    0 -0.27924887508E+02 -0.27050222088E+01 -0.85639179964E+01  0.29333550398E+02  0.00000000000E+00 0.  1.
</event>
<event>
 5    1  0.8952932E-005  0.9118800E+02  0.7818608E-02  0.1130116E+00
         25   -1    0    0    0    0  0.00000000000E+00  0.00000000000E+00  0.99999998245E-14  0.12500000000E+03  0.12500000000E+03 0.  0.
        -11    1    3    3    0    0  0.48596538325E+02 -0.71989795919E+01  0.33096326254E+02  0.59235256867E+02  0.51100000000E-03 0. -1.
         23    2    1    0    0    0  0.24640055968E+02 -0.13457817223E+02  0.53573718421E+01  0.96417721652E+02  0.92083822754E+02 0.  0.
         11    1    3    3    0    0 -0.23956482357E+02 -0.62588376308E+01 -0.27738954412E+02  0.37182464785E+02  0.51100000000E-03 0.  1.
         22    1    1    0    0    0 -0.24640055968E+02  0.13457817223E+02 -0.53573718421E+01  0.28582278348E+02  0.00000000000E+00 0. -1.
</event>
<event>
 5    1  0.8952932E-005  0.9118800E+02  0.7818608E-02  0.1130116E+00
         25   -1    0    0    0    0  0.00000000000E+00  0.00000000000E+00  0.99999998245E-14  0.12500000000E+03  0.12500000000E+03 0.  0.
        -11    1    3    3    0    0  0.86734656400E+01 -0.52864971119E+02 -0.23606528363E+02  0.58542312555E+02  0.51100000000E-03 0.  1.
         23    2    1    0    0    0  0.96296662914E+01 -0.15898336873E+02 -0.22870813023E+02  0.95528629545E+02  0.90868902195E+02 0.  0.
         11    1    3    3    0    0  0.95620065139E+00  0.36966634246E+02  0.73571534056E+00  0.36986316990E+02  0.51100000000E-03 0. -1.
         22    1    1    0    0    0 -0.96296662914E+01  0.15898336873E+02  0.22870813023E+02  0.29471370455E+02  0.00000000000E+00 0.  1.
</event>
<event>
 5    1  0.8952932E-005  0.9118800E+02  0.7818608E-02  0.1130116E+00
         25   -1    0    0    0    0  0.00000000000E+00  0.00000000000E+00  0.99999998245E-14  0.12500000000E+03  0.12500000000E+03 0.  0.
        -11    1    3    3    0    0  0.10375778486E+02  0.31494715527E+02 -0.50762095867E+02  0.60633029467E+02  0.51100000000E-03 0.  1.
         23    2    1    0    0    0 -0.60694320522E+01  0.14841843479E+02 -0.23304586468E+02  0.96711803279E+02  0.92482164874E+02 0.  0.
         11    1    3    3    0    0 -0.16445210539E+02 -0.16652872049E+02  0.27457509398E+02  0.36078773812E+02  0.51100000000E-03 0. -1.
         22    1    1    0    0    0  0.60694320522E+01 -0.14841843479E+02  0.23304586468E+02  0.28288196721E+02  0.00000000000E+00 0. -1.
</event>
<event>
 5    1  0.8952932E-005  0.9118800E+02  0.7818608E-02  0.1130116E+00
         25   -1    0    0    0    0  0.00000000000E+00  0.00000000000E+00  0.99999998245E-14  0.12500000000E+03  0.12500000000E+03 0.  0.
        -11    1    3    3    0    0 -0.24502782044E+02  0.32172673991E+02 -0.12227627253E+02  0.42249049080E+02  0.51100000000E-03 0.  1.
         23    2    1    0    0    0 -0.14969302619E+02 -0.20936056140E+02 -0.12900240760E+02  0.96210858309E+02  0.91802584807E+02 0.  0.
         11    1    3    3    0    0  0.95334794241E+01 -0.53108730132E+02 -0.67261350731E+00  0.53961809230E+02  0.51100000000E-03 0. -1.
         22    1    1    0    0    0  0.14969302619E+02  0.20936056140E+02  0.12900240760E+02  0.28789141691E+02  0.00000000000E+00 0. -1.
</event>
<event>
 5    1  0.8952932E-005  0.9118800E+02  0.7818608E-02  0.1130116E+00
         25   -1    0    0    0    0  0.00000000000E+00  0.00000000000E+00  0.99999998245E-14  0.12500000000E+03  0.12500000000E+03 0.  0.
        -11    1    3    3    0    0 -0.18563583488E+02 -0.15050572412E+00 -0.37307060532E+02  0.41670685736E+02  0.51100000000E-03 0.  1.
         23    2    1    0    0    0 -0.14902775616E+02  0.69148572356E+01  0.19767134182E+02  0.99296934708E+02  0.95912635648E+02 0.  0.
         11    1    3    3    0    0  0.36608078727E+01  0.70653629598E+01  0.57074194714E+02  0.57626248972E+02  0.51100000000E-03 0. -1.
         22    1    1    0    0    0  0.14902775616E+02 -0.69148572356E+01 -0.19767134182E+02  0.25703065292E+02  0.00000000000E+00 0. -1.
</event>
<event>
 5    1  0.8952932E-005  0.9118800E+02  0.7818608E-02  0.1130116E+00
         25   -1    0    0    0    0  0.00000000000E+00  0.00000000000E+00  0.99999998245E-14  0.12500000000E+03  0.12500000000E+03 0.  0.
        -11    1    3    3    0    0  0.39322147014E+02 -0.36247483170E+02 -0.15460025661E+01  0.53502349539E+02  0.51100000000E-03 0. -1.
         23    2    1    0    0    0 -0.78165355235E+00 -0.25189906699E+02 -0.12988820553E+02  0.96647718943E+02  0.92395507118E+02 0.  0.
         11    1    3    3    0    0 -0.40103800566E+02  0.11057576471E+02 -0.11442817987E+02  0.43145369404E+02  0.51100000000E-03 0.  1.
         22    1    1    0    0    0  0.78165355235E+00  0.25189906699E+02  0.12988820553E+02  0.28352281057E+02  0.00000000000E+00 0. -1.
</event>
<event>
 5    1  0.8952932E-005  0.9118800E+02  0.7818608E-02  0.1130116E+00
         25   -1    0    0    0    0  0.00000000000E+00  0.00000000000E+00  0.99999998245E-14  0.12500000000E+03  0.12500000000E+03 0.  0.
        -11    1    3    3    0    0 -0.83299931856E+01  0.31352309413E+02 -0.52896925050E+02  0.62051919970E+02  0.51100000000E-03 0. -1.
         23    2    1    0    0    0  0.83565734469E+00  0.16332273446E+02 -0.22322275769E+02  0.97328254941E+02  0.93311648444E+02 0.  0.
         11    1    3    3    0    0  0.91656505303E+01 -0.15020035967E+02  0.30574649281E+02  0.35276334971E+02  0.51100000000E-03 0.  1.
         22    1    1    0    0    0 -0.83565734469E+00 -0.16332273446E+02  0.22322275769E+02  0.27671745059E+02  0.00000000000E+00 0. -1.
</event>
<event>
 5    1  0.8952932E-005  0.9118800E+02  0.7818608E-02  0.1130116E+00
         25   -1    0    0    0    0  0.00000000000E+00  0.00000000000E+00  0.99999998245E-14  0.12500000000E+03  0.12500000000E+03 0.  0.
        -11    1    3    3    0    0  0.41028966203E+02 -0.31611574938E+02 -0.15927254406E+01  0.51818959005E+02  0.51100000000E-03 0. -1.
         23    2    1    0    0    0  0.67473754675E+01 -0.87336404302E+01 -0.23894082996E+02  0.98680221257E+02  0.95105495710E+02 0.  0.
         11    1    3    3    0    0 -0.34281590736E+02  0.22877934508E+02 -0.22301357556E+02  0.46861262252E+02  0.51100000000E-03 0.  1.
         22    1    1    0    0    0 -0.67473754675E+01  0.87336404302E+01  0.23894082996E+02  0.26319778743E+02  0.00000000000E+00 0. -1.
</event>
<event>
 5    1  0.8952932E-005  0.9118800E+02  0.7818608E-02  0.1130116E+00
         25   -1    0    0    0    0  0.00000000000E+00  0.00000000000E+00  0.99999998245E-14  0.12500000000E+03  0.12500000000E+03 0.  0.
        -11    1    3    3    0    0 -0.37369952756E+02 -0.33463757472E+02 -0.19205642775E+02  0.53713993965E+02  0.51100000000E-03 0.  1.
         23    2    1    0    0    0 -0.37477064629E+00 -0.31028452317E+02 -0.43025787178E+01  0.93672416470E+02  0.88278559784E+02 0.  0.
         11    1    3    3    0    0  0.36995182109E+02  0.24353051548E+01  0.14903064057E+02  0.39958422505E+02  0.51100000000E-03 0. -1.
         22    1    1    0    0    0  0.37477064629E+00  0.31028452317E+02  0.43025787178E+01  0.31327583530E+02  0.00000000000E+00 0.  1.
</event>
<event>
 5    1  0.8952932E-005  0.9118800E+02  0.7818608E-02  0.1130116E+00
         25   -1    0    0    0    0  0.00000000000E+00  0.00000000000E+00  0.99999998245E-14  0.12500000000E+03  0.12500000000E+03 0.  0.
        -11    1    3    3    0    0 -0.21235962434E+02  0.30700610904E+02 -0.34060759207E+01  0.37484596354E+02  0.51100000000E-03 0.  1.
         23    2    1    0    0    0 -0.13619651912E+02 -0.13957645946E+02  0.26742217606E+02  0.91902311243E+02  0.85735510792E+02 0.  0.
         11    1    3    3    0    0  0.76163105222E+01 -0.44658256850E+02  0.30148293527E+02  0.54417714889E+02  0.51100000000E-03 0. -1.
         22    1    1    0    0    0  0.13619651912E+02  0.13957645946E+02 -0.26742217606E+02  0.33097688757E+02  0.00000000000E+00 0. -1.
</event>
<event>
 5    1  0.8952932E-005  0.9118800E+02  0.7818608E-02  0.1130116E+00
         25   -1    0    0    0    0  0.00000000000E+00  0.00000000000E+00  0.99999998245E-14  0.12500000000E+03  0.12500000000E+03 0.  0.
        -11    1    3    3    0    0 -0.15363258777E+02  0.56129994358E+01  0.28645451472E+02  0.32986321001E+02  0.51100000000E-03 0. -1.
         23    2    1    0    0    0  0.53389706734E+01 -0.10473955433E+02 -0.27577221133E+02  0.95021483097E+02  0.90168568661E+02 0.  0.
         11    1    3    3    0    0  0.20702229450E+02 -0.16086954869E+02 -0.56222672605E+02  0.62035162096E+02  0.51100000000E-03 0.  1.
         22    1    1    0    0    0 -0.53389706734E+01  0.10473955433E+02  0.27577221133E+02  0.29978516903E+02  0.00000000000E+00 0.  1.
</event>
<event>
 5    1  0.8952932E-005  0.9118800E+02  0.7818608E-02  0.1130116E+00
         25   -1    0    0    0    0  0.00000000000E+00  0.00000000000E+00  0.99999998245E-14  0.12500000000E+03  0.12500000000E+03 0.  0.
        -11    1    3    3    0    0 -0.17739173180E+02  0.91625665776E+01  0.27550711615E+02  0.34024588199E+02  0.51100000000E-03 0.  1.
         23    2    1    0    0    0  0.95125563458E+01 -0.14417394916E+01 -0.27229277219E+02  0.96120926628E+02  0.91680050485E+02 0.  0.
         11    1    3    3    0    0  0.27251729526E+02 -0.10604306069E+02 -0.54779988833E+02  0.62096338428E+02  0.51100000000E-03 0. -1.
         22    1    1    0    0    0 -0.95125563458E+01  0.14417394916E+01  0.27229277219E+02  0.28879073372E+02  0.00000000000E+00 0. -1.
</event>
<event>
 5    1  0.8952932E-005  0.9118800E+02  0.7818608E-02  0.1130116E+00
         25   -1    0    0    0    0  0.00000000000E+00  0.00000000000E+00  0.99999998245E-14  0.12500000000E+03  0.12500000000E+03 0.  0.
        -11    1    3    3    0    0  0.24873201111E+02  0.10406344275E+02  0.48129258885E+02  0.55166961995E+02  0.51100000000E-03 0.  1.
         23    2    1    0    0    0  0.12713676867E+02 -0.16510812760E+02  0.16713678995E+02  0.98286864973E+02  0.94587082856E+02 0.  0.
         11    1    3    3    0    0 -0.12159524244E+02 -0.26917157035E+02 -0.31415579891E+02  0.43119902978E+02  0.51100000000E-03 0. -1.
         22    1    1    0    0    0 -0.12713676867E+02  0.16510812760E+02 -0.16713678995E+02  0.26713135027E+02  0.00000000000E+00 0.  1.
</event>
<event>
 5    1  0.8952932E-005  0.9118800E+02  0.7818608E-02  0.1130116E+00
         25   -1    0    0    0    0  0.00000000000E+00  0.00000000000E+00  0.99999998245E-14  0.12500000000E+03  0.12500000000E+03 0.  0.
        -11    1    3    3    0    0  0.81683442978E+01 -0.38498716609E+02 -0.20275127702E+00  0.39356246485E+02  0.51100000000E-03 0.  1.
         23    2    1    0    0    0 -0.38904486884E+00  0.12604407907E+01 -0.33227891892E+02  0.91745934587E+02  0.85507214004E+02 0.  0.
         11    1    3    3    0    0 -0.85573891666E+01  0.39759157399E+02 -0.33025140615E+02  0.52389688101E+02  0.51100000000E-03 0. -1.
         22    1    1    0    0    0  0.38904486884E+00 -0.12604407907E+01  0.33227891892E+02  0.33254065413E+02  0.00000000000E+00 0. -1.
</event>
<event>
 5    1  0.8952932E-005  0.9118800E+02  0.7818608E-02  0.1130116E+00
         25   -1    0    0    0    0  0.00000000000E+00  0.00000000000E+00  0.99999998245E-14  0.12500000000E+03  0.12500000000E+03 0.  0.
        -11    1    3    3    0    0  0.13428446855E+02 -0.24930325967E+02 -0.16746484469E+02  0.32898162260E+02  0.51100000000E-03 0.  1.
         23    2    1    0    0    0 -0.10790549914E+02  0.22775367900E+02  0.15544960825E+02  0.95389205389E+02  0.90676906361E+02 0.  0.
         11    1    3    3    0    0 -0.24218996770E+02  0.47705693868E+02  0.32291445293E+02  0.62491043129E+02  0.51100000000E-03 0. -1.
         22    1    1    0    0    0  0.10790549914E+02 -0.22775367900E+02 -0.15544960825E+02  0.29610794611E+02  0.00000000000E+00 0. -1.
</event>
<event>
 5    1  0.8952932E-005  0.9118800E+02  0.7818608E-02  0.1130116E+00
         25   -1    0    0    0    0  0.00000000000E+00  0.00000000000E+00  0.99999998245E-14  0.12500000000E+03  0.12500000000E+03 0.  0.
        -11    1    3    3    0    0  0.48826040292E+01  0.49807439058E+02 -0.31353389054E+02  0.59056378259E+02  0.51100000000E-03 0. -1.
         23    2    1    0    0    0  0.56620550353E+01  0.24171651884E+02  0.76952624327E+00  0.10016212987E+03  0.97033666669E+02 0.  0.
         11    1    3    3    0    0  0.77945100610E+00 -0.25635787174E+02  0.32122915298E+02  0.41105751610E+02  0.51100000000E-03 0.  1.
         22    1    1    0    0    0 -0.56620550353E+01 -0.24171651884E+02 -0.76952624327E+00  0.24837870131E+02  0.00000000000E+00 0. -1.
</event>
<event>
 5    1  0.8952932E-005  0.9118800E+02  0.7818608E-02  0.1130116E+00
         25   -1    0    0    0    0  0.00000000000E+00  0.00000000000E+00  0.99999998245E-14  0.12500000000E+03  0.12500000000E+03 0.  0.
        -11    1    3    3    0    0  0.98988620547E+01 -0.36213214937E+02  0.39707934662E+02  0.54645260375E+02  0.51100000000E-03 0. -1.
         23    2    1    0    0    0  0.18657045495E+02 -0.21829252343E+02  0.16802776119E+01  0.96235005001E+02  0.91835457478E+02 0.  0.
         11    1    3    3    0    0  0.87581834398E+01  0.14383962594E+02 -0.38027657050E+02  0.41589744626E+02  0.51100000000E-03 0.  1.
         22    1    1    0    0    0 -0.18657045495E+02  0.21829252343E+02 -0.16802776119E+01  0.28764994999E+02  0.00000000000E+00 0. -1.
</event>
<event>
 5    1  0.8952932E-005  0.9118800E+02  0.7818608E-02  0.1130116E+00
         25   -1    0    0    0    0  0.00000000000E+00  0.00000000000E+00  0.99999998245E-14  0.12500000000E+03  0.12500000000E+03 0.  0.
        -11    1    3    3    0    0 -0.18404576015E+02 -0.10296111610E+02  0.50600291568E+02  0.54819046322E+02  0.51100000000E-03 0.  1.
         23    2    1    0    0    0 -0.25809920876E+02 -0.88804512684E+01  0.10287640848E+02  0.95830667053E+02  0.91283441890E+02 0.  0.
         11    1    3    3    0    0 -0.74053448608E+01  0.14156603418E+01 -0.40312650720E+02  0.41011620731E+02  0.51100000000E-03 0. -1.
         22    1    1    0    0    0  0.25809920876E+02  0.88804512684E+01 -0.10287640848E+02  0.29169332947E+02  0.00000000000E+00 0.  1.
</event>
<event>
 5    1  0.8952932E-005  0.9118800E+02  0.7818608E-02  0.1130116E+00
         25   -1    0    0    0    0  0.00000000000E+00  0.00000000000E+00  0.99999998245E-14  0.12500000000E+03  0.12500000000E+03 0.  0.
        -11    1    3    3    0    0  0.13989927578E+02  0.21374685796E+02 -0.27314584546E+02  0.37398954474E+02  0.51100000000E-03 0. -1.
         23    2    1    0    0    0 -0.31488310144E+02 -0.19296730489E+01 -0.54330739273E+01  0.92988195831E+02  0.87304346729E+02 0.  0.
         11    1    3    3    0    0 -0.45478237722E+02 -0.23304358845E+02  0.21881510619E+02  0.55589241358E+02  0.51100000000E-03 0.  1.
         22    1    1    0    0    0  0.31488310144E+02  0.19296730489E+01  0.54330739273E+01  0.32011804169E+02  0.00000000000E+00 0.  1.
</event>
<event>
 5    1  0.8952932E-005  0.9118800E+02  0.7818608E-02  0.1130116E+00
         25   -1    0    0    0    0  0.00000000000E+00  0.00000000000E+00  0.99999998245E-14  0.12500000000E+03  0.12500000000E+03 0.  0.
        -11    1    3    3    0    0  0.31035135147E+02  0.18982001397E+02  0.37860531829E+02  0.52506341153E+02  0.51100000000E-03 0.  1.
         23    2    1    0    0    0 -0.55760464696E+01  0.24195073382E+02  0.15905867923E+02  0.95512875614E+02  0.90847228375E+02 0.  0.
         11    1    3    3    0    0 -0.36611181616E+02  0.52130719847E+01 -0.21954663906E+02  0.43006534461E+02  0.51100000000E-03 0. -1.
         22    1    1    0    0    0  0.55760464696E+01 -0.24195073382E+02 -0.15905867923E+02  0.29487124386E+02  0.00000000000E+00 0.  1.
</event>
<event>
 5    1  0.8952932E-005  0.9118800E+02  0.7818608E-02  0.1130116E+00
         25   -1    0    0    0    0  0.00000000000E+00  0.00000000000E+00  0.99999998245E-14  0.12500000000E+03  0.12500000000E+03 0.  0.
        -11    1    3    3    0    0 -0.29136237610E+02 -0.19318503001E+02  0.51802667233E+02  0.62495129673E+02  0.51100000000E-03 0. -1.
         23    2    1    0    0    0 -0.12199782696E+02 -0.82282375457E+01  0.20857494508E+02  0.99474058919E+02  0.96143199082E+02 0.  0.
         11    1    3    3    0    0  0.16936454914E+02  0.11090265455E+02 -0.30945172725E+02  0.36978929245E+02  0.51100000000E-03 0.  1.
         22    1    1    0    0    0  0.12199782696E+02  0.82282375457E+01 -0.20857494508E+02  0.25525941081E+02  0.00000000000E+00 0. -1.
</event>
<event>
 5    1  0.8952932E-005  0.9118800E+02  0.7818608E-02  0.1130116E+00
         25   -1    0    0    0    0  0.00000000000E+00  0.00000000000E+00  0.99999998245E-14  0.12500000000E+03  0.12500000000E+03 0.  0.
        -11    1    3    3    0    0 -0.44662827062E+02  0.20369437431E+02  0.11437175387E+02  0.50403284452E+02  0.51100000000E-03 0. -1.
         23    2    1    0    0    0 -0.96234741789E+00  0.28908658736E+02  0.75896330493E+01  0.95096167598E+02  0.90272043843E+02 0.  0.
         11    1    3    3    0    0  0.43700479644E+02  0.85392213053E+01 -0.38475423372E+01  0.44692883146E+02  0.51100000000E-03 0.  1.
         22    1    1    0    0    0  0.96234741789E+00 -0.28908658736E+02 -0.75896330493E+01  0.29903832402E+02  0.00000000000E+00 0. -1.
</event>
<event>
 5    1  0.8952932E-005  0.9118800E+02  0.7818608E-02  0.1130116E+00
         25   -1    0    0    0    0  0.00000000000E+00  0.00000000000E+00  0.99999998245E-14  0.12500000000E+03  0.12500000000E+03 0.  0.
        -11    1    3    3    0    0  0.35299164536E+02 -0.66172787125E+01  0.41923165426E+02  0.55202999865E+02  0.51100000000E-03 0.  1.
         23    2    1    0    0    0  0.13016413976E+02  0.18131470126E+02  0.19610921996E+02  0.95288630067E+02  0.90538155033E+02 0.  0.
         11    1    3    3    0    0 -0.22282750560E+02  0.24748748838E+02 -0.22312243430E+02  0.40085630202E+02  0.51100000000E-03 0. -1.
         22    1    1    0    0    0 -0.13016413976E+02 -0.18131470126E+02 -0.19610921996E+02  0.29711369933E+02  0.00000000000E+00 0.  1.
</event>
<event>
 5    1  0.8952932E-005  0.9118800E+02  0.7818608E-02  0.1130116E+00
         25   -1    0    0    0    0  0.00000000000E+00  0.00000000000E+00  0.99999998245E-14  0.12500000000E+03  0.12500000000E+03 0.  0.
        -11    1    3    3    0    0  0.76463623264E+01 -0.37451832676E+02  0.83231888280E+01  0.39120098417E+02  0.51100000000E-03 0.  1.
         23    2    1    0    0    0  0.22069883483E+02  0.12393131119E+02 -0.14524463609E+02  0.95817308229E+02  0.91265147001E+02 0.  0.
         11    1    3    3    0    0  0.14423521156E+02  0.49844963795E+02 -0.22847652437E+02  0.56697209812E+02  0.51100000000E-03 0. -1.
         22    1    1    0    0    0 -0.22069883483E+02 -0.12393131119E+02  0.14524463609E+02  0.29182691771E+02  0.00000000000E+00 0.  1.
</event>
<event>
 5    1  0.8952932E-005  0.9118800E+02  0.7818608E-02  0.1130116E+00
         25   -1    0    0    0    0  0.00000000000E+00  0.00000000000E+00  0.99999998245E-14  0.12500000000E+03  0.12500000000E+03 0.  0.
        -11    1    3    3    0    0 -0.34671327341E+01 -0.17692132317E+02  0.49123774500E+02  0.52327600525E+02  0.51100000000E-03 0. -1.
         23    2    1    0    0    0  0.40552368525E+01  0.16760547242E+02  0.23189984183E+02  0.96101275873E+02  0.91653253997E+02 0.  0.
         11    1    3    3    0    0  0.75223695867E+01  0.34452679559E+02 -0.25933790317E+02  0.43773675348E+02  0.51100000000E-03 0.  1.
         22    1    1    0    0    0 -0.40552368525E+01 -0.16760547242E+02 -0.23189984183E+02  0.28898724127E+02  0.00000000000E+00 0. -1.
</event>
<event>
 5    1  0.8952932E-005  0.9118800E+02  0.7818608E-02  0.1130116E+00
         25   -1    0    0    0    0  0.00000000000E+00  0.00000000000E+00  0.99999998245E-14  0.12500000000E+03  0.12500000000E+03 0.  0.
        -11    1    3    3    0    0 -0.24205549145E+01  0.47306165701E+02  0.78151679371E+00  0.47374499134E+02  0.51100000000E-03 0.  1.
         23    2    1    0    0    0  0.27331385680E+02  0.10988610787E+02  0.69701770503E+01  0.94728931662E+02  0.89762090637E+02 0.  0.
         11    1    3    3    0    0  0.29751940594E+02 -0.36317554914E+02  0.61886602566E+01  0.47354432529E+02  0.51100000000E-03 0. -1.
         22    1    1    0    0    0 -0.27331385680E+02 -0.10988610787E+02 -0.69701770503E+01  0.30271068338E+02  0.00000000000E+00 0. -1.
</event>
<event>
 5    1  0.8952932E-005  0.9118800E+02  0.7818608E-02  0.1130116E+00
         25   -1    0    0    0    0  0.00000000000E+00  0.00000000000E+00  0.99999998245E-14  0.12500000000E+03  0.12500000000E+03 0.  0.
        -11    1    3    3    0    0 -0.13995379345E+02 -0.38524196184E+02 -0.33656789400E+02  0.53035495733E+02  0.51100000000E-03 0.  1.
         23    2    1    0    0    0  0.80067563435E+01 -0.30207558692E+02 -0.42854637022E+00  0.93746385789E+02  0.88383236234E+02 0.  0.
         11    1    3    3    0    0  0.22002135689E+02  0.83166374919E+01  0.33228243030E+02  0.40710890056E+02  0.51100000000E-03 0. -1.
         22    1    1    0    0    0 -0.80067563435E+01  0.30207558692E+02  0.42854637022E+00  0.31253614211E+02  0.00000000000E+00 0.  1.
</event>
<event>
 4    1  0.8952932E-005  0.9118800E+02  0.7818608E-02  0.1130116E+00
         25   -1    0    0    0    0  0.00000000000E+00  0.00000000000E+00  0.99999998245E-14  0.12500000000E+03  0.12500000000E+03 0.  0.
        -11    1    1    0    0    0  0.34386679246E+02  0.91051634994E+01 -0.17225436403E+02  0.39522947404E+02  0.51100000000E-03 0. -1.
         11    1    1    0    0    0 -0.14129728129E+01  0.31150534247E+02  0.11017304731E+02  0.33071638602E+02  0.51100000000E-03 0.  1.
         22    1    1    0    0    0 -0.32973706433E+02 -0.40255697747E+02  0.62081316720E+01  0.52405413994E+02  0.00000000000E+00 0. -1.
</event>
<event>
 5    1  0.8952932E-005  0.9118800E+02  0.7818608E-02  0.1130116E+00
         25   -1    0    0    0    0  0.00000000000E+00  0.00000000000E+00  0.99999998245E-14  0.12500000000E+03  0.12500000000E+03 0.  0.
        -11    1    3    3    0    0  0.42047182380E+01  0.52916605361E+01  0.40949603494E+02  0.41503630604E+02  0.51100000000E-03 0.  1.
         23    2    1    0    0    0 -0.92876119154E+01  0.28190429715E+02 -0.53032709352E+01  0.94848967758E+02  0.89929093955E+02 0.  0.
         11    1    3    3    0    0 -0.13492330153E+02  0.22898769179E+02 -0.46252874429E+02  0.53345337155E+02  0.51100000000E-03 0. -1.
         22    1    1    0    0    0  0.92876119154E+01 -0.28190429715E+02  0.53032709352E+01  0.30151032242E+02  0.00000000000E+00 0. -1.
</event>
<event>
 5    1  0.8952932E-005  0.9118800E+02  0.7818608E-02  0.1130116E+00
         25   -1    0    0    0    0  0.00000000000E+00  0.00000000000E+00  0.99999998245E-14  0.12500000000E+03  0.12500000000E+03 0.  0.
        -11    1    3    3    0    0 -0.44948020431E+01  0.61185130760E+01  0.40929096178E+02  0.41627279059E+02  0.51100000000E-03 0. -1.
         23    2    1    0    0    0  0.21987597493E+02 -0.20793863383E+02  0.39431542201E+01  0.94481355483E+02  0.89416658799E+02 0.  0.
         11    1    3    3    0    0  0.26482399536E+02 -0.26912376459E+02 -0.36985941958E+02  0.52854076424E+02  0.51100000000E-03 0.  1.
         22    1    1    0    0    0 -0.21987597493E+02  0.20793863383E+02 -0.39431542201E+01  0.30518644517E+02  0.00000000000E+00 0.  1.
</event>
<event>
 5    1  0.8952932E-005  0.9118800E+02  0.7818608E-02  0.1130116E+00
         25   -1    0    0    0    0  0.00000000000E+00  0.00000000000E+00  0.99999998245E-14  0.12500000000E+03  0.12500000000E+03 0.  0.
        -11    1    3    3    0    0 -0.16874645330E+02 -0.51149803948E+02  0.30868234075E+02  0.62079819379E+02  0.51100000000E-03 0.  1.
         23    2    1    0    0    0 -0.81288885026E+01 -0.25674656554E+02  0.95639118865E+01  0.96421420119E+02  0.92088843134E+02 0.  0.
         11    1    3    3    0    0  0.87457568275E+01  0.25475147394E+02 -0.21304322188E+02  0.34341600740E+02  0.51100000000E-03 0. -1.
         22    1    1    0    0    0  0.81288885026E+01  0.25674656554E+02 -0.95639118865E+01  0.28578579881E+02  0.00000000000E+00 0.  1.
</event>
<event>
 5    1  0.8952932E-005  0.9118800E+02  0.7818608E-02  0.1130116E+00
         25   -1    0    0    0    0  0.00000000000E+00  0.00000000000E+00  0.99999998245E-14  0.12500000000E+03  0.12500000000E+03 0.  0.
        -11    1    3    3    0    0  0.23735515154E+02  0.20456860896E+02  0.14865960141E+02  0.34682194402E+02  0.51100000000E-03 0.  1.
         23    2    1    0    0    0 -0.24613295240E+02  0.32244897089E+01 -0.16830965553E+02  0.95008450559E+02  0.90150499942E+02 0.  0.
         11    1    3    3    0    0 -0.48348810394E+02 -0.17232371187E+02 -0.31696925693E+02  0.60326256157E+02  0.51100000000E-03 0. -1.
         22    1    1    0    0    0  0.24613295240E+02 -0.32244897089E+01  0.16830965553E+02  0.29991549441E+02  0.00000000000E+00 0. -1.
</event>
<event>
 5    1  0.8952932E-005  0.9118800E+02  0.7818608E-02  0.1130116E+00
         25   -1    0    0    0    0  0.00000000000E+00  0.00000000000E+00  0.99999998245E-14  0.12500000000E+03  0.12500000000E+03 0.  0.
        -11    1    3    3    0    0 -0.92938988046E+01  0.37520294207E+02  0.18419493686E+02  0.42818533140E+02  0.51100000000E-03 0.  1.
         23    2    1    0    0    0 -0.19082696486E+02  0.52345203136E+01 -0.21962063238E+02  0.95438509345E+02  0.90744847436E+02 0.  0.
         11    1    3    3    0    0 -0.97887976811E+01 -0.32285773893E+02 -0.40381556924E+02  0.52619976205E+02  0.51100000000E-03 0. -1.
         22    1    1    0    0    0  0.19082696486E+02 -0.52345203136E+01  0.21962063238E+02  0.29561490655E+02  0.00000000000E+00 0. -1.
</event>
<event>
 5    1  0.8952932E-005  0.9118800E+02  0.7818608E-02  0.1130116E+00
         25   -1    0    0    0    0  0.00000000000E+00  0.00000000000E+00  0.99999998245E-14  0.12500000000E+03  0.12500000000E+03 0.  0.
        -11    1    3    3    0    0 -0.30033182362E+02  0.52448689794E+01  0.31426350878E+02  0.43784885785E+02  0.51100000000E-03 0. -1.
         23    2    1    0    0    0 -0.18418020454E+02  0.15475492975E+02 -0.17597505375E+02  0.95194185874E+02  0.90407668196E+02 0.  0.
         11    1    3    3    0    0  0.11615161908E+02  0.10230623995E+02 -0.49023856253E+02  0.51409300089E+02  0.51100000000E-03 0.  1.
         22    1    1    0    0    0  0.18418020454E+02 -0.15475492975E+02  0.17597505375E+02  0.29805814126E+02  0.00000000000E+00 0.  1.
</event>
<event>
 5    1  0.8952932E-005  0.9118800E+02  0.7818608E-02  0.1130116E+00
         25   -1    0    0    0    0  0.00000000000E+00  0.00000000000E+00  0.99999998245E-14  0.12500000000E+03  0.12500000000E+03 0.  0.
        -11    1    3    3    0    0 -0.21551857621E+02 -0.17860673376E+02 -0.19676540245E+02  0.34214798796E+02  0.51100000000E-03 0. -1.
         23    2    1    0    0    0 -0.12780029929E+01  0.18075558321E+02  0.24411154821E+02  0.94598296430E+02  0.89579987204E+02 0.  0.
         11    1    3    3    0    0  0.20273854629E+02  0.35936231697E+02  0.44087695066E+02  0.60383497634E+02  0.51100000000E-03 0.  1.
         22    1    1    0    0    0  0.12780029929E+01 -0.18075558321E+02 -0.24411154821E+02  0.30401703570E+02  0.00000000000E+00 0.  1.
</event>
<event>
 5    1  0.8952932E-005  0.9118800E+02  0.7818608E-02  0.1130116E+00
         25   -1    0    0    0    0  0.00000000000E+00  0.00000000000E+00  0.99999998245E-14  0.12500000000E+03  0.12500000000E+03 0.  0.
        -11    1    3    3    0    0  0.21819047459E+02 -0.39935417220E+02  0.42062455984E+02  0.61969013097E+02  0.51100000000E-03 0.  1.
         23    2    1    0    0    0  0.11696212111E+02 -0.21743824009E+02  0.15007066652E+02  0.96106967799E+02  0.91661016521E+02 0.  0.
         11    1    3    3    0    0 -0.10122835348E+02  0.18191593210E+02 -0.27055389332E+02  0.34137954701E+02  0.51100000000E-03 0. -1.
         22    1    1    0    0    0 -0.11696212111E+02  0.21743824009E+02 -0.15007066652E+02  0.28893032201E+02  0.00000000000E+00 0.  1.
</event>
<event>
 5    1  0.8952932E-005  0.9118800E+02  0.7818608E-02  0.1130116E+00
         25   -1    0    0    0    0  0.00000000000E+00  0.00000000000E+00  0.99999998245E-14  0.12500000000E+03  0.12500000000E+03 0.  0.
        -11    1    3    3    0    0  0.37661111016E+02  0.19798626324E+02  0.70555479463E+01  0.43129173936E+02  0.51100000000E-03 0.  1.
         23    2    1    0    0    0 -0.13880170048E+02  0.25741586871E+02 -0.15168554802E+01  0.95715374926E+02  0.91125428566E+02 0.  0.
         11    1    3    3    0    0 -0.51541281064E+02  0.59429605470E+01 -0.85724034265E+01  0.52586200990E+02  0.51100000000E-03 0. -1.
         22    1    1    0    0    0  0.13880170048E+02 -0.25741586871E+02  0.15168554802E+01  0.29284625074E+02  0.00000000000E+00 0. -1.
</event>
<event>
 5    1  0.8952932E-005  0.9118800E+02  0.7818608E-02  0.1130116E+00
         25   -1    0    0    0    0  0.00000000000E+00  0.00000000000E+00  0.99999998245E-14  0.12500000000E+03  0.12500000000E+03 0.  0.
        -11    1    3    3    0    0  0.26190327857E+02 -0.19235327767E+02  0.17198794438E+02  0.36765875998E+02  0.51100000000E-03 0.  1.
         23    2    1    0    0    0  0.15156118286E+01  0.79125186548E+01 -0.28508634646E+02  0.95374887678E+02  0.90657166951E+02 0.  0.
         11    1    3    3    0    0 -0.24674716028E+02  0.27147846421E+02 -0.45707429084E+02  0.58609011680E+02  0.51100000000E-03 0. -1.
         22    1    1    0    0    0 -0.15156118286E+01 -0.79125186548E+01  0.28508634646E+02  0.29625112322E+02  0.00000000000E+00 0. -1.
</event>
<event>
 5    1  0.8952932E-005  0.9118800E+02  0.7818608E-02  0.1130116E+00
         25   -1    0    0    0    0  0.00000000000E+00  0.00000000000E+00  0.99999998245E-14  0.12500000000E+03  0.12500000000E+03 0.  0.
        -11    1    3    3    0    0  0.63445371603E+01  0.35894201035E+02  0.58737474529E+00  0.36455340199E+02  0.51100000000E-03 0. -1.
         23    2    1    0    0    0  0.14455570576E+02 -0.23084429902E+02 -0.80168993619E+01  0.96607657723E+02  0.92341293205E+02 0.  0.
         11    1    3    3    0    0  0.81110334154E+01 -0.58978630937E+02 -0.86042741072E+01  0.60152317524E+02  0.51100000000E-03 0.  1.
         22    1    1    0    0    0 -0.14455570576E+02  0.23084429902E+02  0.80168993619E+01  0.28392342277E+02  0.00000000000E+00 0.  1.
</event>
<event>
 5    1  0.8952932E-005  0.9118800E+02  0.7818608E-02  0.1130116E+00
         25   -1    0    0    0    0  0.00000000000E+00  0.00000000000E+00  0.99999998245E-14  0.12500000000E+03  0.12500000000E+03 0.  0.
        -11    1    3    3    0    0 -0.16442221647E+02  0.27815295111E+02  0.21355979669E+02  0.38731320177E+02  0.51100000000E-03 0. -1.
         23    2    1    0    0    0  0.28084833052E+02 -0.44049685319E+01  0.45143877366E+01  0.96215606799E+02  0.91809050206E+02 0.  0.
         11    1    3    3    0    0  0.44527054698E+02 -0.32220263643E+02 -0.16841591932E+02  0.57484286622E+02  0.51100000000E-03 0.  1.
         22    1    1    0    0    0 -0.28084833052E+02  0.44049685319E+01 -0.45143877366E+01  0.28784393201E+02  0.00000000000E+00 0.  1.
</event>
<event>
 5    1  0.8952932E-005  0.9118800E+02  0.7818608E-02  0.1130116E+00
         25   -1    0    0    0    0  0.00000000000E+00  0.00000000000E+00  0.99999998245E-14  0.12500000000E+03  0.12500000000E+03 0.  0.
        -11    1    3    3    0    0 -0.23258100671E+02 -0.48735624771E+02  0.11993983231E+02  0.55316869060E+02  0.51100000000E-03 0. -1.
         23    2    1    0    0    0 -0.13642396831E+02 -0.10357157642E+02  0.22942782945E+02  0.96368601240E+02  0.92017119657E+02 0.  0.
         11    1    3    3    0    0  0.96157038405E+01  0.38378467129E+02  0.10948799714E+02  0.41051732180E+02  0.51100000000E-03 0.  1.
         22    1    1    0    0    0  0.13642396831E+02  0.10357157642E+02 -0.22942782945E+02  0.28631398760E+02  0.00000000000E+00 0. -1.
</event>
<event>
 5    1  0.8952932E-005  0.9118800E+02  0.7818608E-02  0.1130116E+00
         25   -1    0    0    0    0  0.00000000000E+00  0.00000000000E+00  0.99999998245E-14  0.12500000000E+03  0.12500000000E+03 0.  0.
        -11    1    3    3    0    0 -0.25492908442E+02 -0.22250617820E+02 -0.16514360478E+02  0.37652390049E+02  0.51100000000E-03 0. -1.
         23    2    1    0    0    0  0.27097479133E+01  0.10830755120E+02  0.24911378671E+02  0.97701194578E+02  0.93809906963E+02 0.  0.
         11    1    3    3    0    0  0.28202656355E+02  0.33081372939E+02  0.41425739149E+02  0.60048804528E+02  0.51100000000E-03 0.  1.
         22    1    1    0    0    0 -0.27097479133E+01 -0.10830755120E+02 -0.24911378671E+02  0.27298805422E+02  0.00000000000E+00 0.  1.
</event>
<event>
 5    1  0.8952932E-005  0.9118800E+02  0.7818608E-02  0.1130116E+00
         25   -1    0    0    0    0  0.00000000000E+00  0.00000000000E+00  0.99999998245E-14  0.12500000000E+03  0.12500000000E+03 0.  0.
        -11    1    3    3    0    0 -0.23266764995E+02  0.48757094971E+02 -0.10611280782E+02  0.55056297945E+02  0.51100000000E-03 0. -1.
         23    2    1    0    0    0 -0.26477573281E+02  0.14276823139E+02 -0.17260587286E+02  0.90318341458E+02  0.83394156656E+02 0.  0.
         11    1    3    3    0    0 -0.32108082863E+01 -0.34480271832E+02 -0.66493065043E+01  0.35262043513E+02  0.51100000000E-03 0.  1.
         22    1    1    0    0    0  0.26477573281E+02 -0.14276823139E+02  0.17260587286E+02  0.34681658542E+02  0.00000000000E+00 0. -1.
</event>
<event>
 5    1  0.8952932E-005  0.9118800E+02  0.7818608E-02  0.1130116E+00
         25   -1    0    0    0    0  0.00000000000E+00  0.00000000000E+00  0.99999998245E-14  0.12500000000E+03  0.12500000000E+03 0.  0.
        -11    1    3    3    0    0  0.45565218231E+01 -0.56267385997E+02  0.14218747480E+02  0.58214718055E+02  0.51100000000E-03 0.  1.
         23    2    1    0    0    0 -0.10558196482E+02 -0.22360426708E+02  0.16278434111E+02  0.95395074521E+02  0.90684996721E+02 0.  0.
         11    1    3    3    0    0 -0.15114718305E+02  0.33906959289E+02  0.20596866308E+01  0.37180356466E+02  0.51100000000E-03 0. -1.
         22    1    1    0    0    0  0.10558196482E+02  0.22360426708E+02 -0.16278434111E+02  0.29604925479E+02  0.00000000000E+00 0.  1.
</event>
<event>
 5    1  0.8952932E-005  0.9118800E+02  0.7818608E-02  0.1130116E+00
         25   -1    0    0    0    0  0.00000000000E+00  0.00000000000E+00  0.99999998245E-14  0.12500000000E+03  0.12500000000E+03 0.  0.
        -11    1    3    3    0    0  0.22447179055E+02  0.30465969809E+02 -0.15028395466E+02  0.40717365269E+02  0.51100000000E-03 0.  1.
         23    2    1    0    0    0 -0.25618306486E+02  0.12579741825E+02  0.54566547216E+01  0.95942770050E+02  0.91436822520E+02 0.  0.
         11    1    3    3    0    0 -0.48065485541E+02 -0.17886227984E+02  0.20485050187E+02  0.55225404781E+02  0.51100000000E-03 0. -1.
         22    1    1    0    0    0  0.25618306486E+02 -0.12579741825E+02 -0.54566547216E+01  0.29057229950E+02  0.00000000000E+00 0. -1.
</event>
<event>
 5    1  0.8952932E-005  0.9118800E+02  0.7818608E-02  0.1130116E+00
         25   -1    0    0    0    0  0.00000000000E+00  0.00000000000E+00  0.99999998245E-14  0.12500000000E+03  0.12500000000E+03 0.  0.
        -11    1    3    3    0    0 -0.42545829455E+02 -0.28689538805E+02  0.35518340258E+02  0.62408250543E+02  0.51100000000E-03 0.  1.
         23    2    1    0    0    0 -0.21950237387E+02 -0.12932579856E+02  0.15385601310E+02  0.95237922270E+02  0.90468119067E+02 0.  0.
         11    1    3    3    0    0  0.20595592068E+02  0.15756958948E+02 -0.20132738948E+02  0.32829671727E+02  0.51100000000E-03 0. -1.
         22    1    1    0    0    0  0.21950237387E+02  0.12932579856E+02 -0.15385601310E+02  0.29762077730E+02  0.00000000000E+00 0.  1.
</event>
<event>
 5    1  0.8952932E-005  0.9118800E+02  0.7818608E-02  0.1130116E+00
         25   -1    0    0    0    0  0.00000000000E+00  0.00000000000E+00  0.99999998245E-14  0.12500000000E+03  0.12500000000E+03 0.  0.
        -11    1    3    3    0    0 -0.18499555646E+02 -0.83025329533E+01  0.47651497153E+02  0.51786395836E+02  0.51100000000E-03 0.  1.
         23    2    1    0    0    0 -0.21925176023E+02 -0.13851206944E+02  0.83733008441E+00  0.99052545421E+02  0.95593599971E+02 0.  0.
         11    1    3    3    0    0 -0.34256203765E+01 -0.55486739910E+01 -0.46814167068E+02  0.47266149585E+02  0.51100000000E-03 0. -1.
         22    1    1    0    0    0  0.21925176023E+02  0.13851206944E+02 -0.83733008441E+00  0.25947454579E+02  0.00000000000E+00 0. -1.
</event>
<event>
 5    1  0.8952932E-005  0.9118800E+02  0.7818608E-02  0.1130116E+00
         25   -1    0    0    0    0  0.00000000000E+00  0.00000000000E+00  0.99999998245E-14  0.12500000000E+03  0.12500000000E+03 0.  0.
        -11    1    3    3    0    0  0.36454708646E+02  0.23417805734E+02  0.28687180251E+01  0.43423138431E+02  0.51100000000E-03 0.  1.
         23    2    1    0    0    0 -0.15994752315E+02  0.17650405180E+02  0.14029134163E+02  0.97356094523E+02  0.93348934814E+02 0.  0.
         11    1    3    3    0    0 -0.52449460961E+02 -0.57674005537E+01  0.11160416138E+02  0.53932956092E+02  0.51100000000E-03 0. -1.
         22    1    1    0    0    0  0.15994752315E+02 -0.17650405180E+02 -0.14029134163E+02  0.27643905477E+02  0.00000000000E+00 0. -1.
</event>
<event>
 5    1  0.8952932E-005  0.9118800E+02  0.7818608E-02  0.1130116E+00
         25   -1    0    0    0    0  0.00000000000E+00  0.00000000000E+00  0.99999998245E-14  0.12500000000E+03  0.12500000000E+03 0.  0.
        -11    1    3    3    0    0 -0.20501975118E+02  0.19587055990E+02 -0.27865995518E+02  0.39755470725E+02  0.51100000000E-03 0.  1.
         23    2    1    0    0    0 -0.15722061529E+02 -0.71687817576E+01  0.22286694788E+02  0.96799442999E+02  0.92600544003E+02 0.  0.
         11    1    3    3    0    0  0.47799135896E+01 -0.26755837747E+02  0.50152690307E+02  0.57043972274E+02  0.51100000000E-03 0. -1.
         22    1    1    0    0    0  0.15722061529E+02  0.71687817576E+01 -0.22286694788E+02  0.28200557001E+02  0.00000000000E+00 0. -1.
</event>
<event>
 5    1  0.8952932E-005  0.9118800E+02  0.7818608E-02  0.1130116E+00
         25   -1    0    0    0    0  0.00000000000E+00  0.00000000000E+00  0.99999998245E-14  0.12500000000E+03  0.12500000000E+03 0.  0.
        -11    1    3    3    0    0 -0.18677722370E+02 -0.53127740223E+01 -0.30755417076E+02  0.36372772242E+02  0.51100000000E-03 0.  1.
         23    2    1    0    0    0  0.21547693789E+02  0.22102969554E+02  0.32832640589E+00  0.94130076629E+02  0.88924232677E+02 0.  0.
         11    1    3    3    0    0  0.40225416159E+02  0.27415743576E+02  0.31083743482E+02  0.57757304387E+02  0.51100000000E-03 0. -1.
         22    1    1    0    0    0 -0.21547693789E+02 -0.22102969554E+02 -0.32832640589E+00  0.30869923371E+02  0.00000000000E+00 0. -1.
</event>
<event>
 5    1  0.8952932E-005  0.9118800E+02  0.7818608E-02  0.1130116E+00
         25   -1    0    0    0    0  0.00000000000E+00  0.00000000000E+00  0.99999998245E-14  0.12500000000E+03  0.12500000000E+03 0.  0.
        -11    1    3    3    0    0  0.98319505329E+01 -0.37780743800E+02  0.18802714788E+01  0.39084360996E+02  0.51100000000E-03 0.  1.
         23    2    1    0    0    0  0.33630707318E+02  0.45538000373E+01 -0.10992017583E+02  0.89326676353E+02  0.81894255527E+02 0.  0.
         11    1    3    3    0    0  0.23798756785E+02  0.42334543838E+02 -0.12872289062E+02  0.50242315357E+02  0.51100000000E-03 0. -1.
         22    1    1    0    0    0 -0.33630707318E+02 -0.45538000373E+01  0.10992017583E+02  0.35673323647E+02  0.00000000000E+00 0.  1.
</event>
<event>
 5    1  0.8952932E-005  0.9118800E+02  0.7818608E-02  0.1130116E+00
         25   -1    0    0    0    0  0.00000000000E+00  0.00000000000E+00  0.99999998245E-14  0.12500000000E+03  0.12500000000E+03 0.  0.
        -11    1    3    3    0    0  0.36981091551E+01  0.35205220462E+02 -0.41638866897E+02  0.54652344834E+02  0.51100000000E-03 0.  1.
         23    2    1    0    0    0 -0.11158793575E+02  0.21996409551E+02 -0.51445268334E+00  0.10032966622E+03  0.97249249639E+02 0.  0.
         11    1    3    3    0    0 -0.14856902730E+02 -0.13208810911E+02  0.41124414214E+02  0.45677321387E+02  0.51100000000E-03 0. -1.
         22    1    1    0    0    0  0.11158793575E+02 -0.21996409551E+02  0.51445268334E+00  0.24670333779E+02  0.00000000000E+00 0.  1.
</event>
<event>
 5    1  0.8952932E-005  0.9118800E+02  0.7818608E-02  0.1130116E+00
         25   -1    0    0    0    0  0.00000000000E+00  0.00000000000E+00  0.99999998245E-14  0.12500000000E+03  0.12500000000E+03 0.  0.
        -11    1    3    3    0    0  0.17119367358E+02  0.29978966811E+02  0.13574034809E+02  0.37095358349E+02  0.51100000000E-03 0. -1.
         23    2    1    0    0    0 -0.14418429368E+02 -0.21296139726E+02  0.10023401104E+02  0.97397731210E+02  0.93404672273E+02 0.  0.
         11    1    3    3    0    0 -0.31537796726E+02 -0.51275106537E+02 -0.35506337046E+01  0.60302372861E+02  0.51100000000E-03 0.  1.
         22    1    1    0    0    0  0.14418429368E+02  0.21296139726E+02 -0.10023401104E+02  0.27602268790E+02  0.00000000000E+00 0.  1.
</event>
<event>
 5    1  0.8952932E-005  0.9118800E+02  0.7818608E-02  0.1130116E+00
         25   -1    0    0    0    0  0.00000000000E+00  0.00000000000E+00  0.99999998245E-14  0.12500000000E+03  0.12500000000E+03 0.  0.
        -11    1    3    3    0    0  0.17265071393E+02 -0.50126380301E+01  0.36944211598E+02  0.41086299432E+02  0.51100000000E-03 0. -1.
         23    2    1    0    0    0  0.42139109249E+01  0.29094712813E+02 -0.32847959553E+01  0.95418768731E+02  0.90717650888E+02 0.  0.
         11    1    3    3    0    0 -0.13051160468E+02  0.34107350843E+02 -0.40229007553E+02  0.54332469298E+02  0.51100000000E-03 0.  1.
         22    1    1    0    0    0 -0.42139109249E+01 -0.29094712813E+02  0.32847959553E+01  0.29581231269E+02  0.00000000000E+00 0.  1.
</event>
<event>
 5    1  0.8952932E-005  0.9118800E+02  0.7818608E-02  0.1130116E+00
         25   -1    0    0    0    0  0.00000000000E+00  0.00000000000E+00  0.99999998245E-14  0.12500000000E+03  0.12500000000E+03 0.  0.
        -11    1    3    3    0    0 -0.41933808048E+02  0.15836966712E+02 -0.30500494544E+02  0.54217468954E+02  0.51100000000E-03 0. -1.
         23    2    1    0    0    0 -0.13021642911E+01 -0.55520589024E+01 -0.23685089493E+02  0.10063805315E+03  0.97644832368E+02 0.  0.
         11    1    3    3    0    0  0.40631643757E+02 -0.21389025614E+02  0.68154050516E+01  0.46420584199E+02  0.51100000000E-03 0.  1.
         22    1    1    0    0    0  0.13021642911E+01  0.55520589024E+01  0.23685089493E+02  0.24361946847E+02  0.00000000000E+00 0.  1.
</event>
<event>
 5    1  0.8952932E-005  0.9118800E+02  0.7818608E-02  0.1130116E+00
         25   -1    0    0    0    0  0.00000000000E+00  0.00000000000E+00  0.99999998245E-14  0.12500000000E+03  0.12500000000E+03 0.  0.
        -11    1    3    3    0    0 -0.20646798911E+02  0.16441535976E+02  0.38238399457E+02  0.46462776540E+02  0.51100000000E-03 0.  1.
         23    2    1    0    0    0 -0.23844589474E+02 -0.16778491334E+02  0.19285668080E+01  0.95780116555E+02  0.91214193735E+02 0.  0.
         11    1    3    3    0    0 -0.31977905624E+01 -0.33220027309E+02 -0.36309832649E+02  0.49317340015E+02  0.51100000000E-03 0. -1.
         22    1    1    0    0    0  0.23844589474E+02  0.16778491334E+02 -0.19285668080E+01  0.29219883445E+02  0.00000000000E+00 0.  1.
</event>
<event>
 5    1  0.8952932E-005  0.9118800E+02  0.7818608E-02  0.1130116E+00
         25   -1    0    0    0    0  0.00000000000E+00  0.00000000000E+00  0.99999998245E-14  0.12500000000E+03  0.12500000000E+03 0.  0.
        -11    1    3    3    0    0 -0.98206214304E+01  0.43101118029E+02  0.41457741345E+02  0.60604416492E+02  0.51100000000E-03 0.  1.
         23    2    1    0    0    0 -0.14352714135E+01  0.26163180444E+02  0.10716807693E+02  0.96690602584E+02  0.92453505320E+02 0.  0.
         11    1    3    3    0    0  0.83853500169E+01 -0.16937937586E+02 -0.30740933652E+02  0.36086186092E+02  0.51100000000E-03 0. -1.
         22    1    1    0    0    0  0.14352714135E+01 -0.26163180444E+02 -0.10716807693E+02  0.28309397416E+02  0.00000000000E+00 0.  1.
</event>
<event>
 5    1  0.8952932E-005  0.9118800E+02  0.7818608E-02  0.1130116E+00
         25   -1    0    0    0    0  0.00000000000E+00  0.00000000000E+00  0.99999998245E-14  0.12500000000E+03  0.12500000000E+03 0.  0.
        -11    1    3    3    0    0  0.14820227116E+02 -0.55544382503E+02  0.10595479746E+02  0.58455810239E+02  0.51100000000E-03 0.  1.
         23    2    1    0    0    0  0.13260208900E+02 -0.24244310656E+02 -0.96091560088E+01  0.95743280799E+02  0.91163700011E+02 0.  0.
         11    1    3    3    0    0 -0.15600182162E+01  0.31300071847E+02 -0.20204635755E+02  0.37287470560E+02  0.51100000000E-03 0. -1.
         22    1    1    0    0    0 -0.13260208900E+02  0.24244310656E+02  0.96091560088E+01  0.29256719201E+02  0.00000000000E+00 0.  1.
</event>
<event>
 5    1  0.8952932E-005  0.9118800E+02  0.7818608E-02  0.1130116E+00
         25   -1    0    0    0    0  0.00000000000E+00  0.00000000000E+00  0.99999998245E-14  0.12500000000E+03  0.12500000000E+03 0.  0.
        -11    1    3    3    0    0  0.35315686665E+02 -0.21949158387E+02 -0.17495075421E+01  0.41617593100E+02  0.51100000000E-03 0.  1.
         23    2    1    0    0    0 -0.45129203975E+00  0.14155084681E+01  0.30073748710E+02  0.94889575057E+02  0.89985519748E+02 0.  0.
         11    1    3    3    0    0 -0.35766978705E+02  0.23364666855E+02  0.31823256252E+02  0.53271981958E+02  0.51100000000E-03 0. -1.
         22    1    1    0    0    0  0.45129203975E+00 -0.14155084681E+01 -0.30073748710E+02  0.30110424943E+02  0.00000000000E+00 0. -1.
</event>
<event>
 5    1  0.8952932E-005  0.9118800E+02  0.7818608E-02  0.1130116E+00
         25   -1    0    0    0    0  0.00000000000E+00  0.00000000000E+00  0.99999998245E-14  0.12500000000E+03  0.12500000000E+03 0.  0.
        -11    1    3    3    0    0 -0.17339403276E+02 -0.27236314875E+01 -0.37437622390E+02  0.41347897708E+02  0.51100000000E-03 0. -1.
         23    2    1    0    0    0 -0.10103455350E+02  0.26889519497E+02  0.71856584491E+01  0.95389870717E+02  0.90677823525E+02 0.  0.
         11    1    3    3    0    0  0.72359479259E+01  0.29613150985E+02  0.44623280839E+02  0.54041973009E+02  0.51100000000E-03 0.  1.
         22    1    1    0    0    0  0.10103455350E+02 -0.26889519497E+02 -0.71856584491E+01  0.29610129283E+02  0.00000000000E+00 0.  1.
</event>
<event>
 5    1  0.8952932E-005  0.9118800E+02  0.7818608E-02  0.1130116E+00
         25   -1    0    0    0    0  0.00000000000E+00  0.00000000000E+00  0.99999998245E-14  0.12500000000E+03  0.12500000000E+03 0.  0.
        -11    1    3    3    0    0 -0.36167773427E+02  0.13556347027E+02 -0.86977617338E+01  0.39592088084E+02  0.51100000000E-03 0.  1.
         23    2    1    0    0    0  0.75932891678E+01  0.23168700658E+02 -0.27558495777E+02  0.88204383141E+02  0.80162932738E+02 0.  0.
         11    1    3    3    0    0  0.43761062595E+02  0.96123536305E+01 -0.18860734044E+02  0.48612295057E+02  0.51100000000E-03 0. -1.
         22    1    1    0    0    0 -0.75932891678E+01 -0.23168700658E+02  0.27558495777E+02  0.36795616859E+02  0.00000000000E+00 0. -1.
</event>
<event>
 5    1  0.8952932E-005  0.9118800E+02  0.7818608E-02  0.1130116E+00
         25   -1    0    0    0    0  0.00000000000E+00  0.00000000000E+00  0.99999998245E-14  0.12500000000E+03  0.12500000000E+03 0.  0.
        -11    1    3    3    0    0 -0.47530612072E+02  0.16812380035E+02  0.30340883389E+02  0.58842029294E+02  0.51100000000E-03 0.  1.
         23    2    1    0    0    0 -0.11963055955E+02  0.11981588376E+02  0.24515813355E+02  0.95205734239E+02  0.90423633857E+02 0.  0.
         11    1    3    3    0    0  0.35567556117E+02 -0.48307916592E+01 -0.58250700344E+01  0.36363704945E+02  0.51100000000E-03 0. -1.
         22    1    1    0    0    0  0.11963055955E+02 -0.11981588376E+02 -0.24515813355E+02  0.29794265761E+02  0.00000000000E+00 0.  1.
</event>
<event>
 5    1  0.8952932E-005  0.9118800E+02  0.7818608E-02  0.1130116E+00
         25   -1    0    0    0    0  0.00000000000E+00  0.00000000000E+00  0.99999998245E-14  0.12500000000E+03  0.12500000000E+03 0.  0.
        -11    1    3    3    0    0 -0.30969403741E+01  0.25601050741E+02 -0.29788664479E+02  0.39400118914E+02  0.51100000000E-03 0.  1.
         23    2    1    0    0    0  0.12283480548E+02 -0.24228051681E+02 -0.41151493726E+01  0.97526069866E+02  0.93576265509E+02 0.  0.
         11    1    3    3    0    0  0.15380420922E+02 -0.49829102422E+02  0.25673515106E+02  0.58125950952E+02  0.51100000000E-03 0. -1.
         22    1    1    0    0    0 -0.12283480548E+02  0.24228051681E+02  0.41151493726E+01  0.27473930134E+02  0.00000000000E+00 0. -1.
</event>
<event>
 5    1  0.8952932E-005  0.9118800E+02  0.7818608E-02  0.1130116E+00
         25   -1    0    0    0    0  0.00000000000E+00  0.00000000000E+00  0.99999998245E-14  0.12500000000E+03  0.12500000000E+03 0.  0.
        -11    1    3    3    0    0  0.67121397139E+01  0.47771503863E+02 -0.69439573564E+01  0.48737951792E+02  0.51100000000E-03 0.  1.
         23    2    1    0    0    0 -0.20717996178E+02  0.10950414811E+02 -0.17380319342E+02  0.95824283204E+02  0.91274699676E+02 0.  0.
         11    1    3    3    0    0 -0.27430135891E+02 -0.36821089053E+02 -0.10436361985E+02  0.47086331412E+02  0.51100000000E-03 0. -1.
         22    1    1    0    0    0  0.20717996178E+02 -0.10950414811E+02  0.17380319342E+02  0.29175716796E+02  0.00000000000E+00 0.  1.
</event>
<event>
 5    1  0.8952932E-005  0.9118800E+02  0.7818608E-02  0.1130116E+00
         25   -1    0    0    0    0  0.00000000000E+00  0.00000000000E+00  0.99999998245E-14  0.12500000000E+03  0.12500000000E+03 0.  0.
        -11    1    3    3    0    0 -0.29630706923E+02 -0.29946183328E+01  0.35286280688E+02  0.46174323349E+02  0.51100000000E-03 0. -1.
         23    2    1    0    0    0  0.68285696241E+01  0.24095472579E+02  0.13449894851E+02  0.96572533820E+02  0.92293734646E+02 0.  0.
         11    1    3    3    0    0  0.36459276547E+02  0.27090090912E+02 -0.21836385838E+02  0.50398210471E+02  0.51100000000E-03 0.  1.
         22    1    1    0    0    0 -0.68285696241E+01 -0.24095472579E+02 -0.13449894851E+02  0.28427466180E+02  0.00000000000E+00 0.  1.
</event>
<event>
 5    1  0.8952932E-005  0.9118800E+02  0.7818608E-02  0.1130116E+00
         25   -1    0    0    0    0  0.00000000000E+00  0.00000000000E+00  0.99999998245E-14  0.12500000000E+03  0.12500000000E+03 0.  0.
        -11    1    3    3    0    0 -0.33365000351E+02  0.10190374507E+02  0.62343251119E+01  0.35439156182E+02  0.51100000000E-03 0.  1.
         23    2    1    0    0    0  0.23529627283E+02 -0.12792040445E+02 -0.48187865405E+01  0.97787863691E+02  0.93925320988E+02 0.  0.
         11    1    3    3    0    0  0.56894627634E+02 -0.22982414952E+02 -0.11053111652E+02  0.62348707509E+02  0.51100000000E-03 0. -1.
         22    1    1    0    0    0 -0.23529627283E+02  0.12792040445E+02  0.48187865405E+01  0.27212136309E+02  0.00000000000E+00 0. -1.
</event>
<event>
 5    1  0.8952932E-005  0.9118800E+02  0.7818608E-02  0.1130116E+00
         25   -1    0    0    0    0  0.00000000000E+00  0.00000000000E+00  0.99999998245E-14  0.12500000000E+03  0.12500000000E+03 0.  0.
        -11    1    3    3    0    0 -0.77288789239E+01  0.31434948858E+02  0.92056444153E+01  0.33654650028E+02  0.51100000000E-03 0. -1.
         23    2    1    0    0    0  0.14472039269E+01 -0.29320528113E+02  0.47667252066E+01  0.95259296626E+02  0.90497647242E+02 0.  0.
         11    1    3    3    0    0  0.91760828508E+01 -0.60755476971E+02 -0.44389192087E+01  0.61604646598E+02  0.51100000000E-03 0.  1.
         22    1    1    0    0    0 -0.14472039269E+01  0.29320528113E+02 -0.47667252066E+01  0.29740703374E+02  0.00000000000E+00 0.  1.
</event>
<event>
 5    1  0.8952932E-005  0.9118800E+02  0.7818608E-02  0.1130116E+00
         25   -1    0    0    0    0  0.00000000000E+00  0.00000000000E+00  0.99999998245E-14  0.12500000000E+03  0.12500000000E+03 0.  0.
        -11    1    3    3    0    0  0.23277908482E+02  0.29478165971E+02 -0.88328315970E+01  0.38585518094E+02  0.51100000000E-03 0. -1.
         23    2    1    0    0    0 -0.72249267487E+01 -0.56103920544E+01 -0.32839036376E+02  0.90910729318E+02  0.84277412926E+02 0.  0.
         11    1    3    3    0    0 -0.30502835231E+02 -0.35088558026E+02 -0.24006204779E+02  0.52325211224E+02  0.51100000000E-03 0.  1.
         22    1    1    0    0    0  0.72249267487E+01  0.56103920544E+01  0.32839036376E+02  0.34089270682E+02  0.00000000000E+00 0.  1.
</event>
<event>
 5    1  0.8952932E-005  0.9118800E+02  0.7818608E-02  0.1130116E+00
         25   -1    0    0    0    0  0.00000000000E+00  0.00000000000E+00  0.99999998245E-14  0.12500000000E+03  0.12500000000E+03 0.  0.
        -11    1    3    3    0    0  0.10143970622E+01 -0.54675427643E+02  0.25834894264E+02  0.60480353431E+02  0.51100000000E-03 0. -1.
         23    2    1    0    0    0  0.10697432573E+01 -0.14855808583E+02  0.18960437782E+02  0.10088905642E+03  0.97965627164E+02 0.  0.
         11    1    3    3    0    0  0.55346195081E-01  0.39819619060E+02 -0.68744564815E+01  0.40408702991E+02  0.51100000000E-03 0.  1.
         22    1    1    0    0    0 -0.10697432573E+01  0.14855808583E+02 -0.18960437782E+02  0.24110943577E+02  0.00000000000E+00 0. -1.
</event>
<event>
 5    1  0.8952932E-005  0.9118800E+02  0.7818608E-02  0.1130116E+00
         25   -1    0    0    0    0  0.00000000000E+00  0.00000000000E+00  0.99999998245E-14  0.12500000000E+03  0.12500000000E+03 0.  0.
        -11    1    3    3    0    0 -0.52025132496E+02  0.20657476501E+02  0.15821798668E+02  0.58169365305E+02  0.51100000000E-03 0. -1.
         23    2    1    0    0    0 -0.16178032866E+02  0.23928211477E+02  0.83576190997E+01  0.94931114938E+02  0.90043204821E+02 0.  0.
         11    1    3    3    0    0  0.35847099630E+02  0.32707349757E+01 -0.74641795688E+01  0.36761749633E+02  0.51100000000E-03 0.  1.
         22    1    1    0    0    0  0.16178032866E+02 -0.23928211477E+02 -0.83576190997E+01  0.30068885062E+02  0.00000000000E+00 0. -1.
</event>
<event>
 5    1  0.8952932E-005  0.9118800E+02  0.7818608E-02  0.1130116E+00
         25   -1    0    0    0    0  0.00000000000E+00  0.00000000000E+00  0.99999998245E-14  0.12500000000E+03  0.12500000000E+03 0.  0.
        -11    1    3    3    0    0 -0.37721666105E+02  0.29025215677E+01  0.70828142673E+01  0.38490453146E+02  0.51100000000E-03 0. -1.
         23    2    1    0    0    0 -0.17384464812E+02  0.26425754987E+02 -0.26118043911E+02  0.83979366641E+02  0.73279203463E+02 0.  0.
         11    1    3    3    0    0  0.20337201293E+02  0.23523233419E+02 -0.33200858179E+02  0.45488913495E+02  0.51100000000E-03 0.  1.
         22    1    1    0    0    0  0.17384464812E+02 -0.26425754987E+02  0.26118043911E+02  0.41020633359E+02  0.00000000000E+00 0.  1.
</event>
<event>
 5    1  0.8952932E-005  0.9118800E+02  0.7818608E-02  0.1130116E+00
         25   -1    0    0    0    0  0.00000000000E+00  0.00000000000E+00  0.99999998245E-14  0.12500000000E+03  0.12500000000E+03 0.  0.
        -11    1    3    3    0    0  0.36973506482E+02 -0.29957212059E+00 -0.41982802597E+02  0.55943593371E+02  0.51100000000E-03 0. -1.
         23    2    1    0    0    0  0.10086499610E-01 -0.44885512103E+01 -0.29467694275E+02  0.95192413724E+02  0.90405217942E+02 0.  0.
         11    1    3    3    0    0 -0.36963419982E+02 -0.41889790897E+01  0.12515108323E+02  0.39248820354E+02  0.51100000000E-03 0.  1.
         22    1    1    0    0    0 -0.10086499610E-01  0.44885512103E+01  0.29467694275E+02  0.29807586276E+02  0.00000000000E+00 0. -1.
</event>
<event>
 5    1  0.8952932E-005  0.9118800E+02  0.7818608E-02  0.1130116E+00
         25   -1    0    0    0    0  0.00000000000E+00  0.00000000000E+00  0.99999998245E-14  0.12500000000E+03  0.12500000000E+03 0.  0.
        -11    1    3    3    0    0 -0.25167892664E+02  0.24810354460E+02  0.18691153631E+02  0.39979191261E+02  0.51100000000E-03 0. -1.
         23    2    1    0    0    0  0.78679674881E+01 -0.17092294139E+02  0.25000203131E+02  0.93710040142E+02  0.88331817798E+02 0.  0.
         11    1    3    3    0    0  0.33035860152E+02 -0.41902648599E+02  0.63090494996E+01  0.53730848881E+02  0.51100000000E-03 0.  1.
         22    1    1    0    0    0 -0.78679674881E+01  0.17092294139E+02 -0.25000203131E+02  0.31289959858E+02  0.00000000000E+00 0.  1.
</event>
<event>
 5    1  0.8952932E-005  0.9118800E+02  0.7818608E-02  0.1130116E+00
         25   -1    0    0    0    0  0.00000000000E+00  0.00000000000E+00  0.99999998245E-14  0.12500000000E+03  0.12500000000E+03 0.  0.
        -11    1    3    3    0    0  0.28602617086E+02 -0.33686515281E+01  0.72165943971E+01  0.29690684604E+02  0.51100000000E-03 0.  1.
         23    2    1    0    0    0 -0.30962291300E+02 -0.13633875643E+02  0.83861136144E+01  0.90144972398E+02  0.83133886589E+02 0.  0.
         11    1    3    3    0    0 -0.59564908386E+02 -0.10265224115E+02  0.11695192173E+01  0.60454287794E+02  0.51100000000E-03 0. -1.
         22    1    1    0    0    0  0.30962291300E+02  0.13633875643E+02 -0.83861136144E+01  0.34855027602E+02  0.00000000000E+00 0. -1.
</event>
<event>
 5    1  0.8952932E-005  0.9118800E+02  0.7818608E-02  0.1130116E+00
         25   -1    0    0    0    0  0.00000000000E+00  0.00000000000E+00  0.99999998245E-14  0.12500000000E+03  0.12500000000E+03 0.  0.
        -11    1    3    3    0    0 -0.26059636697E+02 -0.16989983814E+02  0.31849763780E+02  0.44521586539E+02  0.51100000000E-03 0. -1.
         23    2    1    0    0    0 -0.25565439367E+02  0.10814286637E+02 -0.10614510130E+02  0.95281179182E+02  0.90527867508E+02 0.  0.
         11    1    3    3    0    0  0.49419733060E+00  0.27804270451E+02 -0.42464273911E+02  0.50759592644E+02  0.51100000000E-03 0.  1.
         22    1    1    0    0    0  0.25565439367E+02 -0.10814286637E+02  0.10614510130E+02  0.29718820818E+02  0.00000000000E+00 0.  1.
</event>
<event>
 5    1  0.8952932E-005  0.9118800E+02  0.7818608E-02  0.1130116E+00
         25   -1    0    0    0    0  0.00000000000E+00  0.00000000000E+00  0.99999998245E-14  0.12500000000E+03  0.12500000000E+03 0.  0.
        -11    1    3    3    0    0  0.51925004245E+01  0.10223749806E+02  0.40541394148E+02  0.42131837848E+02  0.51100000000E-03 0. -1.
         23    2    1    0    0    0 -0.26454954998E+02 -0.14686713728E+02  0.85778713340E+01  0.93549338946E+02  0.88104113052E+02 0.  0.
         11    1    3    3    0    0 -0.31647455422E+02 -0.24910463535E+02 -0.31963522814E+02  0.51417501098E+02  0.51100000000E-03 0.  1.
         22    1    1    0    0    0  0.26454954998E+02  0.14686713728E+02 -0.85778713340E+01  0.31450661054E+02  0.00000000000E+00 0.  1.
</event>
<event>
 5    1  0.8952932E-005  0.9118800E+02  0.7818608E-02  0.1130116E+00
         25   -1    0    0    0    0  0.00000000000E+00  0.00000000000E+00  0.99999998245E-14  0.12500000000E+03  0.12500000000E+03 0.  0.
        -11    1    3    3    0    0  0.18156596533E+02  0.38230533292E+02  0.61362434181E+01  0.42765513641E+02  0.51100000000E-03 0.  1.
         23    2    1    0    0    0 -0.17091057618E+02  0.49265699999E+01  0.24590354205E+02  0.94651015463E+02  0.89653521212E+02 0.  0.
         11    1    3    3    0    0 -0.35247654152E+02 -0.33303963292E+02  0.18454110787E+02  0.51885501822E+02  0.51100000000E-03 0. -1.
         22    1    1    0    0    0  0.17091057618E+02 -0.49265699999E+01 -0.24590354205E+02  0.30348984537E+02  0.00000000000E+00 0. -1.
</event>
<event>
 5    1  0.8952932E-005  0.9118800E+02  0.7818608E-02  0.1130116E+00
         25   -1    0    0    0    0  0.00000000000E+00  0.00000000000E+00  0.99999998245E-14  0.12500000000E+03  0.12500000000E+03 0.  0.
        -11    1    3    3    0    0 -0.38751109870E+02 -0.46611190211E+02 -0.13365899165E+02  0.62071723271E+02  0.51100000000E-03 0. -1.
         23    2    1    0    0    0 -0.17800050956E+02 -0.22328717874E+02 -0.11557805884E+02  0.94194215920E+02  0.89014347046E+02 0.  0.
         11    1    3    3    0    0  0.20951058914E+02  0.24282472337E+02  0.18080932811E+01  0.32122492649E+02  0.51100000000E-03 0.  1.
         22    1    1    0    0    0  0.17800050956E+02  0.22328717874E+02  0.11557805884E+02  0.30805784080E+02  0.00000000000E+00 0. -1.
</event>
<event>
 5    1  0.8952932E-005  0.9118800E+02  0.7818608E-02  0.1130116E+00
         25   -1    0    0    0    0  0.00000000000E+00  0.00000000000E+00  0.99999998245E-14  0.12500000000E+03  0.12500000000E+03 0.  0.
        -11    1    3    3    0    0  0.37352572706E+02 -0.23077198712E+02 -0.36218494989E+02  0.56917055156E+02  0.51100000000E-03 0.  1.
         23    2    1    0    0    0  0.26095325353E+02  0.56774229329E+01 -0.15195000301E+02  0.94273998461E+02  0.89126312698E+02 0.  0.
         11    1    3    3    0    0 -0.11257247353E+02  0.28754621644E+02  0.21023494688E+02  0.37356943304E+02  0.51100000000E-03 0. -1.
         22    1    1    0    0    0 -0.26095325353E+02 -0.56774229329E+01  0.15195000301E+02  0.30726001539E+02  0.00000000000E+00 0.  1.
</event>
<event>
 5    1  0.8952932E-005  0.9118800E+02  0.7818608E-02  0.1130116E+00
         25   -1    0    0    0    0  0.00000000000E+00  0.00000000000E+00  0.99999998245E-14  0.12500000000E+03  0.12500000000E+03 0.  0.
        -11    1    3    3    0    0 -0.40309890143E+02  0.34819735711E+02 -0.28779214550E+02  0.60543739797E+02  0.51100000000E-03 0. -1.
         23    2    1    0    0    0 -0.10782450083E+02  0.15047846484E+02 -0.21156165890E+02  0.96888040467E+02  0.92720063184E+02 0.  0.
         11    1    3    3    0    0  0.29527440060E+02 -0.19771889226E+02  0.76230486597E+01  0.36344300670E+02  0.51100000000E-03 0.  1.
         22    1    1    0    0    0  0.10782450083E+02 -0.15047846484E+02  0.21156165890E+02  0.28111959533E+02  0.00000000000E+00 0. -1.
</event>
<event>
 5    1  0.8952932E-005  0.9118800E+02  0.7818608E-02  0.1130116E+00
         25   -1    0    0    0    0  0.00000000000E+00  0.00000000000E+00  0.99999998245E-14  0.12500000000E+03  0.12500000000E+03 0.  0.
        -11    1    3    3    0    0  0.42335512882E+02  0.26854995631E+02  0.19102779888E+02  0.53650746882E+02  0.51100000000E-03 0.  1.
         23    2    1    0    0    0  0.38435767981E+02  0.28581077643E+02 -0.38043630942E+01  0.76951488701E+02  0.60107172411E+02 0.  0.
         11    1    3    3    0    0 -0.38997449011E+01  0.17260820122E+01 -0.22907142982E+02  0.23300741818E+02  0.51100000000E-03 0. -1.
         22    1    1    0    0    0 -0.38435767981E+02 -0.28581077643E+02  0.38043630942E+01  0.48048511299E+02  0.00000000000E+00 0.  1.
</event>
<event>
 5    1  0.8952932E-005  0.9118800E+02  0.7818608E-02  0.1130116E+00
         25   -1    0    0    0    0  0.00000000000E+00  0.00000000000E+00  0.99999998245E-14  0.12500000000E+03  0.12500000000E+03 0.  0.
        -11    1    3    3    0    0  0.40051177591E+02 -0.16233507511E+02 -0.19496996204E+02  0.47410509951E+02  0.51100000000E-03 0. -1.
         23    2    1    0    0    0  0.15094188149E+02 -0.14153827413E+02  0.21314704698E+02  0.95293401698E+02  0.90544742666E+02 0.  0.
         11    1    3    3    0    0 -0.24956989442E+02  0.20796800972E+01  0.40811700902E+02  0.47882891747E+02  0.51100000000E-03 0.  1.
         22    1    1    0    0    0 -0.15094188149E+02  0.14153827413E+02 -0.21314704698E+02  0.29706598302E+02  0.00000000000E+00 0. -1.
</event>
<event>
 5    1  0.8952932E-005  0.9118800E+02  0.7818608E-02  0.1130116E+00
         25   -1    0    0    0    0  0.00000000000E+00  0.00000000000E+00  0.99999998245E-14  0.12500000000E+03  0.12500000000E+03 0.  0.
        -11    1    3    3    0    0 -0.15625061344E+02 -0.21762497733E+02 -0.33451423096E+02  0.42857281260E+02  0.51100000000E-03 0.  1.
         23    2    1    0    0    0  0.26971264712E+02 -0.97768455984E+01 -0.39490062196E+01  0.96040882608E+02  0.91570850449E+02 0.  0.
         11    1    3    3    0    0  0.42596326056E+02  0.11985652135E+02  0.29502416876E+02  0.53183601348E+02  0.51100000000E-03 0. -1.
         22    1    1    0    0    0 -0.26971264712E+02  0.97768455984E+01  0.39490062196E+01  0.28959117392E+02  0.00000000000E+00 0.  1.
</event>
<event>
 5    1  0.8952932E-005  0.9118800E+02  0.7818608E-02  0.1130116E+00
         25   -1    0    0    0    0  0.00000000000E+00  0.00000000000E+00  0.99999998245E-14  0.12500000000E+03  0.12500000000E+03 0.  0.
        -11    1    3    3    0    0 -0.35809112509E+02 -0.25323747592E+02  0.31510035293E+02  0.54004324412E+02  0.51100000000E-03 0.  1.
         23    2    1    0    0    0 -0.37876078727E+00 -0.28027544699E+02  0.12412996211E+02  0.94344344787E+02  0.89224919147E+02 0.  0.
         11    1    3    3    0    0  0.35430351721E+02 -0.27037971072E+01 -0.19097039083E+02  0.40340020375E+02  0.51100000000E-03 0. -1.
         22    1    1    0    0    0  0.37876078727E+00  0.28027544699E+02 -0.12412996211E+02  0.30655655213E+02  0.00000000000E+00 0.  1.
</event>
<event>
 5    1  0.8952932E-005  0.9118800E+02  0.7818608E-02  0.1130116E+00
         25   -1    0    0    0    0  0.00000000000E+00  0.00000000000E+00  0.99999998245E-14  0.12500000000E+03  0.12500000000E+03 0.  0.
        -11    1    3    3    0    0 -0.13176883535E+02  0.32813921267E+02 -0.43553420102E+02  0.56100660348E+02  0.51100000000E-03 0.  1.
         23    2    1    0    0    0  0.17023313535E+01  0.28613606197E+02 -0.74376416308E+01  0.95386575600E+02  0.90673281071E+02 0.  0.
         11    1    3    3    0    0  0.14879214888E+02 -0.42003150696E+01  0.36115778471E+02  0.39285915253E+02  0.51100000000E-03 0. -1.
         22    1    1    0    0    0 -0.17023313535E+01 -0.28613606197E+02  0.74376416308E+01  0.29613424400E+02  0.00000000000E+00 0.  1.
</event>
<event>
 5    1  0.8952932E-005  0.9118800E+02  0.7818608E-02  0.1130116E+00
         25   -1    0    0    0    0  0.00000000000E+00  0.00000000000E+00  0.99999998245E-14  0.12500000000E+03  0.12500000000E+03 0.  0.
        -11    1    3    3    0    0  0.12143493930E+02  0.32600797265E+02  0.11508276390E+02  0.36643101027E+02  0.51100000000E-03 0. -1.
         23    2    1    0    0    0 -0.21154422896E+02 -0.10112487542E+02  0.23162181117E+02  0.92041561832E+02  0.85938294480E+02 0.  0.
         11    1    3    3    0    0 -0.33297916826E+02 -0.42713284807E+02  0.11653904728E+02  0.55398460805E+02  0.51100000000E-03 0.  1.
         22    1    1    0    0    0  0.21154422896E+02  0.10112487542E+02 -0.23162181117E+02  0.32958438168E+02  0.00000000000E+00 0.  1.
</event>
<event>
 5    1  0.8952932E-005  0.9118800E+02  0.7818608E-02  0.1130116E+00
         25   -1    0    0    0    0  0.00000000000E+00  0.00000000000E+00  0.99999998245E-14  0.12500000000E+03  0.12500000000E+03 0.  0.
        -11    1    3    3    0    0  0.54134976378E+01 -0.13847323632E+01 -0.54446681247E+02  0.54732664282E+02  0.51100000000E-03 0.  1.
         23    2    1    0    0    0 -0.10257383483E+02 -0.18294232812E+02 -0.21312769999E+02  0.95098042955E+02  0.90274640619E+02 0.  0.
         11    1    3    3    0    0 -0.15670881121E+02 -0.16909500449E+02  0.33133911248E+02  0.40365378673E+02  0.51100000000E-03 0. -1.
         22    1    1    0    0    0  0.10257383483E+02  0.18294232812E+02  0.21312769999E+02  0.29901957045E+02  0.00000000000E+00 0. -1.
</event>
<event>
 5    1  0.8952932E-005  0.9118800E+02  0.7818608E-02  0.1130116E+00
         25   -1    0    0    0    0  0.00000000000E+00  0.00000000000E+00  0.99999998245E-14  0.12500000000E+03  0.12500000000E+03 0.  0.
        -11    1    3    3    0    0 -0.31143086567E+02  0.25731689128E+01  0.19188186637E+02  0.36670145158E+02  0.51100000000E-03 0.  1.
         23    2    1    0    0    0  0.26317946485E+02 -0.76661373778E+01  0.10338457588E+02  0.95703452852E+02  0.91109073165E+02 0.  0.
         11    1    3    3    0    0  0.57461033053E+02 -0.10239306291E+02 -0.88497290496E+01  0.59033307694E+02  0.51100000000E-03 0. -1.
         22    1    1    0    0    0 -0.26317946485E+02  0.76661373778E+01 -0.10338457588E+02  0.29296547148E+02  0.00000000000E+00 0. -1.
</event>
<event>
 5    1  0.8952932E-005  0.9118800E+02  0.7818608E-02  0.1130116E+00
         25   -1    0    0    0    0  0.00000000000E+00  0.00000000000E+00  0.99999998245E-14  0.12500000000E+03  0.12500000000E+03 0.  0.
        -11    1    3    3    0    0  0.28730782594E+00 -0.60750043441E+00  0.22746641170E+02  0.22756565807E+02  0.51100000000E-03 0.  1.
         23    2    1    0    0    0 -0.43362683776E+02 -0.79883881891E+00 -0.13588608963E+02  0.79551009019E+02  0.65289756124E+02 0.  0.
         11    1    3    3    0    0 -0.43649991601E+02 -0.19133838450E+00 -0.36335250133E+02  0.56794443211E+02  0.51100000000E-03 0. -1.
         22    1    1    0    0    0  0.43362683776E+02  0.79883881891E+00  0.13588608963E+02  0.45448990981E+02  0.00000000000E+00 0. -1.
</event>
<event>
 5    1  0.8952932E-005  0.9118800E+02  0.7818608E-02  0.1130116E+00
         25   -1    0    0    0    0  0.00000000000E+00  0.00000000000E+00  0.99999998245E-14  0.12500000000E+03  0.12500000000E+03 0.  0.
        -11    1    3    3    0    0 -0.30750568504E+02  0.31061717951E+02 -0.47038767914E+00  0.43710971737E+02  0.51100000000E-03 0. -1.
         23    2    1    0    0    0 -0.25133797289E+02 -0.15563326364E+02  0.13203318563E+02  0.92623272019E+02  0.86780285807E+02 0.  0.
         11    1    3    3    0    0  0.56167712150E+01 -0.46625044315E+02  0.13673706242E+02  0.48912300282E+02  0.51100000000E-03 0.  1.
         22    1    1    0    0    0  0.25133797289E+02  0.15563326364E+02 -0.13203318563E+02  0.32376727981E+02  0.00000000000E+00 0.  1.
</event>
<event>
 5    1  0.8952932E-005  0.9118800E+02  0.7818608E-02  0.1130116E+00
         25   -1    0    0    0    0  0.00000000000E+00  0.00000000000E+00  0.99999998245E-14  0.12500000000E+03  0.12500000000E+03 0.  0.
        -11    1    3    3    0    0  0.23450289275E+02 -0.32700195403E+02  0.33792072965E+02  0.52546389429E+02  0.51100000000E-03 0. -1.
         23    2    1    0    0    0  0.25229046113E+02  0.54147656746E+01  0.15915261816E+02  0.94683007838E+02  0.89698115696E+02 0.  0.
         11    1    3    3    0    0  0.17787568387E+01  0.38114961077E+02 -0.17876811150E+02  0.42136618409E+02  0.51100000000E-03 0.  1.
         22    1    1    0    0    0 -0.25229046113E+02 -0.54147656746E+01 -0.15915261816E+02  0.30316992162E+02  0.00000000000E+00 0. -1.
</event>
<event>
 5    1  0.8952932E-005  0.9118800E+02  0.7818608E-02  0.1130116E+00
         25   -1    0    0    0    0  0.00000000000E+00  0.00000000000E+00  0.99999998245E-14  0.12500000000E+03  0.12500000000E+03 0.  0.
        -11    1    3    3    0    0 -0.21416613045E+02 -0.31200062761E+01 -0.73578266774E+00  0.21655187136E+02  0.51100000000E-03 0. -1.
         23    2    1    0    0    0  0.23393230248E+02 -0.17777986938E+02  0.33886929898E+02  0.80148867808E+02  0.66424520714E+02 0.  0.
         11    1    3    3    0    0  0.44809843293E+02 -0.14657980662E+02  0.34622712565E+02  0.58493680673E+02  0.51100000000E-03 0.  1.
         22    1    1    0    0    0 -0.23393230248E+02  0.17777986938E+02 -0.33886929898E+02  0.44851132192E+02  0.00000000000E+00 0.  1.
</event>
<event>
 5    1  0.8952932E-005  0.9118800E+02  0.7818608E-02  0.1130116E+00
         25   -1    0    0    0    0  0.00000000000E+00  0.00000000000E+00  0.99999998245E-14  0.12500000000E+03  0.12500000000E+03 0.  0.
        -11    1    3    3    0    0 -0.37200404392E+02 -0.24327917533E+02  0.13159346622E+02  0.46356079021E+02  0.51100000000E-03 0.  1.
         23    2    1    0    0    0 -0.62471366367E+01 -0.13461671178E+02 -0.24534561997E+02  0.96326178499E+02  0.91959472730E+02 0.  0.
         11    1    3    3    0    0  0.30953267755E+02  0.10866246355E+02 -0.37693908619E+02  0.49970099478E+02  0.51100000000E-03 0. -1.
         22    1    1    0    0    0  0.62471366367E+01  0.13461671178E+02  0.24534561997E+02  0.28673821501E+02  0.00000000000E+00 0. -1.
</event>
<event>
 5    1  0.8952932E-005  0.9118800E+02  0.7818608E-02  0.1130116E+00
         25   -1    0    0    0    0  0.00000000000E+00  0.00000000000E+00  0.99999998245E-14  0.12500000000E+03  0.12500000000E+03 0.  0.
        -11    1    3    3    0    0  0.50944574765E+01 -0.37129640566E+02 -0.84834422859E+01  0.38425674995E+02  0.51100000000E-03 0.  1.
         23    2    1    0    0    0 -0.20313485181E+02  0.13926063813E+02 -0.15523793749E+02  0.95887097260E+02  0.91360682545E+02 0.  0.
         11    1    3    3    0    0 -0.25407942658E+02  0.51055704379E+02 -0.70403514635E+01  0.57461422265E+02  0.51100000000E-03 0. -1.
         22    1    1    0    0    0  0.20313485181E+02 -0.13926063813E+02  0.15523793749E+02  0.29112902740E+02  0.00000000000E+00 0.  1.
</event>
<event>
 5    1  0.8952932E-005  0.9118800E+02  0.7818608E-02  0.1130116E+00
         25   -1    0    0    0    0  0.00000000000E+00  0.00000000000E+00  0.99999998245E-14  0.12500000000E+03  0.12500000000E+03 0.  0.
        -11    1    3    3    0    0 -0.46369108621E+01  0.35343552875E+01 -0.40525071390E+02  0.40942325546E+02  0.51100000000E-03 0. -1.
         23    2    1    0    0    0 -0.28826607000E+02 -0.87264134242E+00  0.77661953796E+01  0.95132817932E+02  0.90322779424E+02 0.  0.
         11    1    3    3    0    0 -0.24189696138E+02 -0.44069966299E+01  0.48291266770E+02  0.54190492386E+02  0.51100000000E-03 0.  1.
         22    1    1    0    0    0  0.28826607000E+02  0.87264134242E+00 -0.77661953796E+01  0.29867182068E+02  0.00000000000E+00 0.  1.
</event>
<event>
 5    1  0.8952932E-005  0.9118800E+02  0.7818608E-02  0.1130116E+00
         25   -1    0    0    0    0  0.00000000000E+00  0.00000000000E+00  0.99999998245E-14  0.12500000000E+03  0.12500000000E+03 0.  0.
        -11    1    3    3    0    0  0.49084414379E+01  0.15814267126E+02 -0.49652149552E+02  0.52340422214E+02  0.51100000000E-03 0.  1.
         23    2    1    0    0    0  0.16217722622E+02  0.18673271467E+02 -0.34074194271E+01  0.10003370069E+03  0.96868081282E+02 0.  0.
         11    1    3    3    0    0  0.11309281184E+02  0.28590043407E+01  0.46244730125E+02  0.47693278471E+02  0.51100000000E-03 0. -1.
         22    1    1    0    0    0 -0.16217722622E+02 -0.18673271467E+02  0.34074194271E+01  0.24966299315E+02  0.00000000000E+00 0.  1.
</event>
<event>
 5    1  0.8952932E-005  0.9118800E+02  0.7818608E-02  0.1130116E+00
         25   -1    0    0    0    0  0.00000000000E+00  0.00000000000E+00  0.99999998245E-14  0.12500000000E+03  0.12500000000E+03 0.  0.
        -11    1    3    3    0    0 -0.10148703042E+02 -0.57220101508E+02 -0.26030704054E+01  0.58171403334E+02  0.51100000000E-03 0.  1.
         23    2    1    0    0    0 -0.16455049059E+02 -0.33807986655E+02 -0.13890303527E+02  0.84916473044E+02  0.74860658966E+02 0.  0.
         11    1    3    3    0    0 -0.63063460166E+01  0.23412114853E+02 -0.11287233122E+02  0.26745069710E+02  0.51100000000E-03 0. -1.
         22    1    1    0    0    0  0.16455049059E+02  0.33807986655E+02  0.13890303527E+02  0.40083526956E+02  0.00000000000E+00 0.  1.
</event>
<event>
 5    1  0.8952932E-005  0.9118800E+02  0.7818608E-02  0.1130116E+00
         25   -1    0    0    0    0  0.00000000000E+00  0.00000000000E+00  0.99999998245E-14  0.12500000000E+03  0.12500000000E+03 0.  0.
        -11    1    3    3    0    0  0.42750380520E+02  0.24035493937E+01 -0.42038633082E+02  0.60005156078E+02  0.51100000000E-03 0.  1.
         23    2    1    0    0    0  0.93892553018E+01  0.30007864741E+01 -0.26331820330E+02  0.96883677401E+02  0.92714180955E+02 0.  0.
         11    1    3    3    0    0 -0.33361125218E+02  0.59723708043E+00  0.15706812751E+02  0.36878521323E+02  0.51100000000E-03 0. -1.
         22    1    1    0    0    0 -0.93892553018E+01 -0.30007864741E+01  0.26331820330E+02  0.28116322599E+02  0.00000000000E+00 0.  1.
</event>
<event>
 5    1  0.8952932E-005  0.9118800E+02  0.7818608E-02  0.1130116E+00
         25   -1    0    0    0    0  0.00000000000E+00  0.00000000000E+00  0.99999998245E-14  0.12500000000E+03  0.12500000000E+03 0.  0.
        -11    1    3    3    0    0  0.32162119402E+02 -0.34259397054E+01  0.42198784254E+02  0.53168377632E+02  0.51100000000E-03 0. -1.
         23    2    1    0    0    0 -0.81367479244E+01  0.31102778478E+01  0.26830786353E+02  0.96790576195E+02  0.92588574072E+02 0.  0.
         11    1    3    3    0    0 -0.40298867327E+02  0.65362175532E+01 -0.15367997901E+02  0.43622198563E+02  0.51100000000E-03 0.  1.
         22    1    1    0    0    0  0.81367479244E+01 -0.31102778478E+01 -0.26830786353E+02  0.28209423805E+02  0.00000000000E+00 0. -1.
</event>
<event>
 5    1  0.8952932E-005  0.9118800E+02  0.7818608E-02  0.1130116E+00
         25   -1    0    0    0    0  0.00000000000E+00  0.00000000000E+00  0.99999998245E-14  0.12500000000E+03  0.12500000000E+03 0.  0.
        -11    1    3    3    0    0 -0.25731896966E+02 -0.30420306061E+02 -0.19222646810E+02  0.44238396139E+02  0.51100000000E-03 0.  1.
         23    2    1    0    0    0  0.19595697130E+02 -0.20539248818E+02  0.43587139073E+01  0.96279789782E+02  0.91896395172E+02 0.  0.
         11    1    3    3    0    0  0.45327594096E+02  0.98810572429E+01  0.23581360718E+02  0.52041393643E+02  0.51100000000E-03 0. -1.
         22    1    1    0    0    0 -0.19595697130E+02  0.20539248818E+02 -0.43587139073E+01  0.28720210218E+02  0.00000000000E+00 0. -1.
</event>
<event>
 5    1  0.8952932E-005  0.9118800E+02  0.7818608E-02  0.1130116E+00
         25   -1    0    0    0    0  0.00000000000E+00  0.00000000000E+00  0.99999998245E-14  0.12500000000E+03  0.12500000000E+03 0.  0.
        -11    1    3    3    0    0  0.24579436349E+02 -0.16733530487E+02  0.19383621873E+02  0.35494852176E+02  0.51100000000E-03 0.  1.
         23    2    1    0    0    0 -0.97735914326E+01 -0.59389331332E+00 -0.27495567307E+02  0.95812981990E+02  0.91259221438E+02 0.  0.
         11    1    3    3    0    0 -0.34353027782E+02  0.16139637174E+02 -0.46879189180E+02  0.60318129814E+02  0.51100000000E-03 0. -1.
         22    1    1    0    0    0  0.97735914326E+01  0.59389331332E+00  0.27495567307E+02  0.29187018010E+02  0.00000000000E+00 0. -1.
</event>
<event>
 5    1  0.8952932E-005  0.9118800E+02  0.7818608E-02  0.1130116E+00
         25   -1    0    0    0    0  0.00000000000E+00  0.00000000000E+00  0.99999998245E-14  0.12500000000E+03  0.12500000000E+03 0.  0.
        -11    1    3    3    0    0  0.31943346703E+02 -0.50306208968E+02 -0.12620516655E+02  0.60912802433E+02  0.51100000000E-03 0.  1.
         23    2    1    0    0    0  0.91575084806E+01 -0.27666202926E+02  0.10891157311E+01  0.95837268321E+02  0.91292480962E+02 0.  0.
         11    1    3    3    0    0 -0.22785838222E+02  0.22640006042E+02  0.13709632386E+02  0.34924465888E+02  0.51100000000E-03 0. -1.
         22    1    1    0    0    0 -0.91575084806E+01  0.27666202926E+02 -0.10891157311E+01  0.29162731679E+02  0.00000000000E+00 0.  1.
</event>
<event>
 5    1  0.8952932E-005  0.9118800E+02  0.7818608E-02  0.1130116E+00
         25   -1    0    0    0    0  0.00000000000E+00  0.00000000000E+00  0.99999998245E-14  0.12500000000E+03  0.12500000000E+03 0.  0.
        -11    1    3    3    0    0 -0.27654007838E+02  0.29168055013E+02  0.30594554947E+01  0.40309798449E+02  0.51100000000E-03 0.  1.
         23    2    1    0    0    0  0.24323693151E+02  0.14613544069E+02  0.10388627688E+02  0.94782102919E+02  0.89836104823E+02 0.  0.
         11    1    3    3    0    0  0.51977700990E+02 -0.14554510944E+02  0.73291721935E+01  0.54472304470E+02  0.51100000000E-03 0. -1.
         22    1    1    0    0    0 -0.24323693151E+02 -0.14613544069E+02 -0.10388627688E+02  0.30217897081E+02  0.00000000000E+00 0. -1.
</event>
<event>
 5    1  0.8952932E-005  0.9118800E+02  0.7818608E-02  0.1130116E+00
         25   -1    0    0    0    0  0.00000000000E+00  0.00000000000E+00  0.99999998245E-14  0.12500000000E+03  0.12500000000E+03 0.  0.
        -11    1    3    3    0    0  0.35195371690E+02 -0.30099684748E+02 -0.22055352766E+01  0.46363451085E+02  0.51100000000E-03 0. -1.
         23    2    1    0    0    0  0.17041033976E+02  0.14595158783E+02  0.15476573711E+02  0.97743077344E+02  0.93865698400E+02 0.  0.
         11    1    3    3    0    0 -0.18154337715E+02  0.44694843531E+02  0.17682108987E+02  0.51379626260E+02  0.51100000000E-03 0.  1.
         22    1    1    0    0    0 -0.17041033976E+02 -0.14595158783E+02 -0.15476573711E+02  0.27256922656E+02  0.00000000000E+00 0. -1.
</event>
<event>
 5    1  0.8952932E-005  0.9118800E+02  0.7818608E-02  0.1130116E+00
         25   -1    0    0    0    0  0.00000000000E+00  0.00000000000E+00  0.99999998245E-14  0.12500000000E+03  0.12500000000E+03 0.  0.
        -11    1    3    3    0    0  0.39347727341E+01  0.57279962344E+02 -0.15358381011E+02  0.59433630128E+02  0.51100000000E-03 0. -1.
         23    2    1    0    0    0 -0.22986611996E+01  0.22675148767E+02 -0.19715765991E+02  0.94864345974E+02  0.89950466889E+02 0.  0.
         11    1    3    3    0    0 -0.62334339337E+01 -0.34604813577E+02 -0.43573849801E+01  0.35430715847E+02  0.51100000000E-03 0.  1.
         22    1    1    0    0    0  0.22986611996E+01 -0.22675148767E+02  0.19715765991E+02  0.30135654026E+02  0.00000000000E+00 0. -1.
</event>
<event>
 5    1  0.8952932E-005  0.9118800E+02  0.7818608E-02  0.1130116E+00
         25   -1    0    0    0    0  0.00000000000E+00  0.00000000000E+00  0.99999998245E-14  0.12500000000E+03  0.12500000000E+03 0.  0.
        -11    1    3    3    0    0 -0.67566227792E+01  0.39158375229E+02 -0.21721237917E+02  0.45286228357E+02  0.51100000000E-03 0.  1.
         23    2    1    0    0    0 -0.30556850491E+01 -0.11536767813E+02 -0.26096240477E+02  0.96304216516E+02  0.91929615082E+02 0.  0.
         11    1    3    3    0    0  0.37009377301E+01 -0.50695143042E+02 -0.43750025608E+01  0.51017988159E+02  0.51100000000E-03 0. -1.
         22    1    1    0    0    0  0.30556850491E+01  0.11536767813E+02  0.26096240477E+02  0.28695783484E+02  0.00000000000E+00 0.  1.
</event>
<event>
 5    1  0.8952932E-005  0.9118800E+02  0.7818608E-02  0.1130116E+00
         25   -1    0    0    0    0  0.00000000000E+00  0.00000000000E+00  0.99999998245E-14  0.12500000000E+03  0.12500000000E+03 0.  0.
        -11    1    3    3    0    0  0.17560593556E+01 -0.30008286853E+02 -0.31042251815E+02  0.43211137711E+02  0.51100000000E-03 0.  1.
         23    2    1    0    0    0  0.28618418129E+02  0.42745261704E+01 -0.11395936857E+01  0.96041683337E+02  0.91571943488E+02 0.  0.
         11    1    3    3    0    0  0.26862358774E+02  0.34282813023E+02  0.29902658129E+02  0.52830545626E+02  0.51100000000E-03 0. -1.
         22    1    1    0    0    0 -0.28618418129E+02 -0.42745261704E+01  0.11395936857E+01  0.28958316663E+02  0.00000000000E+00 0. -1.
</event>
<event>
 5    1  0.8952932E-005  0.9118800E+02  0.7818608E-02  0.1130116E+00
         25   -1    0    0    0    0  0.00000000000E+00  0.00000000000E+00  0.99999998245E-14  0.12500000000E+03  0.12500000000E+03 0.  0.
        -11    1    3    3    0    0  0.33897531718E+02  0.13676189894E+02 -0.33133747701E+02  0.49334836207E+02  0.51100000000E-03 0.  1.
         23    2    1    0    0    0  0.23742065189E+02 -0.89520915176E+00  0.12392735071E+02  0.98203228900E+02  0.94476490329E+02 0.  0.
         11    1    3    3    0    0 -0.10155466528E+02 -0.14571399046E+02  0.45526482771E+02  0.48868392693E+02  0.51100000000E-03 0. -1.
         22    1    1    0    0    0 -0.23742065189E+02  0.89520915176E+00 -0.12392735071E+02  0.26796771100E+02  0.00000000000E+00 0.  1.
</event>
<event>
 5    1  0.8952932E-005  0.9118800E+02  0.7818608E-02  0.1130116E+00
         25   -1    0    0    0    0  0.00000000000E+00  0.00000000000E+00  0.99999998245E-14  0.12500000000E+03  0.12500000000E+03 0.  0.
        -11    1    3    3    0    0  0.55827696049E+02 -0.47731079626E+01 -0.12103941514E+02  0.57323813605E+02  0.51100000000E-03 0. -1.
         23    2    1    0    0    0  0.19844326405E+02  0.18629259392E+01 -0.22084931744E+02  0.95250848858E+02  0.90485978000E+02 0.  0.
         11    1    3    3    0    0 -0.35983369644E+02  0.66360339018E+01 -0.99809902302E+01  0.37927035254E+02  0.51100000000E-03 0.  1.
         22    1    1    0    0    0 -0.19844326405E+02 -0.18629259392E+01  0.22084931744E+02  0.29749151142E+02  0.00000000000E+00 0. -1.
</event>
<event>
 5    1  0.8952932E-005  0.9118800E+02  0.7818608E-02  0.1130116E+00
         25   -1    0    0    0    0  0.00000000000E+00  0.00000000000E+00  0.99999998245E-14  0.12500000000E+03  0.12500000000E+03 0.  0.
        -11    1    3    3    0    0 -0.15888925719E+02 -0.16685392986E+02 -0.49403268511E+02  0.54511863291E+02  0.51100000000E-03 0.  1.
         23    2    1    0    0    0 -0.25118824447E+02 -0.10227923305E+02 -0.90488895420E+01  0.96408949675E+02  0.92071914387E+02 0.  0.
         11    1    3    3    0    0 -0.92298987274E+01  0.64574696810E+01  0.40354378969E+02  0.41897086384E+02  0.51100000000E-03 0. -1.
         22    1    1    0    0    0  0.25118824447E+02  0.10227923305E+02  0.90488895420E+01  0.28591050325E+02  0.00000000000E+00 0.  1.
</event>
<event>
 5    1  0.8952932E-005  0.9118800E+02  0.7818608E-02  0.1130116E+00
         25   -1    0    0    0    0  0.00000000000E+00  0.00000000000E+00  0.99999998245E-14  0.12500000000E+03  0.12500000000E+03 0.  0.
        -11    1    3    3    0    0  0.35163694215E+02  0.21022860360E+02  0.50016574602E+01  0.41273025406E+02  0.51100000000E-03 0. -1.
         23    2    1    0    0    0 -0.16977078014E+02  0.26129957610E+02  0.28824612651E+01  0.93706159623E+02  0.88326326232E+02 0.  0.
         11    1    3    3    0    0 -0.52140772229E+02  0.51070972498E+01 -0.21191961951E+01  0.52433134217E+02  0.51100000000E-03 0.  1.
         22    1    1    0    0    0  0.16977078014E+02 -0.26129957610E+02 -0.28824612651E+01  0.31293840377E+02  0.00000000000E+00 0.  1.
</event>
<event>
 5    1  0.8952932E-005  0.9118800E+02  0.7818608E-02  0.1130116E+00
         25   -1    0    0    0    0  0.00000000000E+00  0.00000000000E+00  0.99999998245E-14  0.12500000000E+03  0.12500000000E+03 0.  0.
        -11    1    3    3    0    0  0.23766719380E+02 -0.28906950292E+02 -0.97636259772E+01  0.38675536425E+02  0.51100000000E-03 0. -1.
         23    2    1    0    0    0 -0.62834121793E+00  0.70955983318E+01  0.27898861741E+02  0.96206097611E+02  0.91796102328E+02 0.  0.
         11    1    3    3    0    0 -0.24395060598E+02  0.36002548624E+02  0.37662487718E+02  0.57530561186E+02  0.51100000000E-03 0.  1.
         22    1    1    0    0    0  0.62834121793E+00 -0.70955983318E+01 -0.27898861741E+02  0.28793902389E+02  0.00000000000E+00 0.  1.
</event>
<event>
 5    1  0.8952932E-005  0.9118800E+02  0.7818608E-02  0.1130116E+00
         25   -1    0    0    0    0  0.00000000000E+00  0.00000000000E+00  0.99999998245E-14  0.12500000000E+03  0.12500000000E+03 0.  0.
        -11    1    3    3    0    0  0.93236049095E+01 -0.31489596924E+02  0.11378012452E+02  0.34756056890E+02  0.51100000000E-03 0. -1.
         23    2    1    0    0    0 -0.46763892021E+01  0.27966724457E+02  0.17661395212E+01  0.96590045026E+02  0.92317448277E+02 0.  0.
         11    1    3    3    0    0 -0.13999994112E+02  0.59456321381E+02 -0.96118729307E+01  0.61833988136E+02  0.51100000000E-03 0.  1.
         22    1    1    0    0    0  0.46763892021E+01 -0.27966724457E+02 -0.17661395212E+01  0.28409954974E+02  0.00000000000E+00 0.  1.
</event>
<event>
 5    1  0.8952932E-005  0.9118800E+02  0.7818608E-02  0.1130116E+00
         25   -1    0    0    0    0  0.00000000000E+00  0.00000000000E+00  0.99999998245E-14  0.12500000000E+03  0.12500000000E+03 0.  0.
        -11    1    3    3    0    0  0.28114512433E+01 -0.51072974199E+02  0.13823212584E+02  0.52985225846E+02  0.51100000000E-03 0.  1.
         23    2    1    0    0    0 -0.20509294753E+02 -0.20324103486E+02 -0.46216016655E+01  0.95758598602E+02  0.91184700748E+02 0.  0.
         11    1    3    3    0    0 -0.23320745996E+02  0.30748870713E+02 -0.18444814249E+02  0.42773372756E+02  0.51100000000E-03 0. -1.
         22    1    1    0    0    0  0.20509294753E+02  0.20324103486E+02  0.46216016655E+01  0.29241401398E+02  0.00000000000E+00 0.  1.
</event>
<event>
 5    1  0.8952932E-005  0.9118800E+02  0.7818608E-02  0.1130116E+00
         25   -1    0    0    0    0  0.00000000000E+00  0.00000000000E+00  0.99999998245E-14  0.12500000000E+03  0.12500000000E+03 0.  0.
        -11    1    3    3    0    0 -0.17619927584E+02 -0.74824274200E+01 -0.49006111726E+02  0.52612237692E+02  0.51100000000E-03 0.  1.
         23    2    1    0    0    0  0.97500622270E+01 -0.20438663721E+02 -0.16916479563E+02  0.96733943166E+02  0.92512084570E+02 0.  0.
         11    1    3    3    0    0  0.27369989811E+02 -0.12956236301E+02  0.32089632163E+02  0.44121705474E+02  0.51100000000E-03 0. -1.
         22    1    1    0    0    0 -0.97500622270E+01  0.20438663721E+02  0.16916479563E+02  0.28266056834E+02  0.00000000000E+00 0.  1.
</event>
<event>
 5    1  0.8952932E-005  0.9118800E+02  0.7818608E-02  0.1130116E+00
         25   -1    0    0    0    0  0.00000000000E+00  0.00000000000E+00  0.99999998245E-14  0.12500000000E+03  0.12500000000E+03 0.  0.
        -11    1    3    3    0    0  0.11639054419E+01 -0.29325393539E+02 -0.14483176722E+02  0.32727599826E+02  0.51100000000E-03 0.  1.
         23    2    1    0    0    0 -0.77453868801E+01  0.17049872430E+02  0.24639652799E+02  0.94051629157E+02  0.88813891307E+02 0.  0.
         11    1    3    3    0    0 -0.89092923220E+01  0.46375265969E+02  0.39122829521E+02  0.61324029331E+02  0.51100000000E-03 0. -1.
         22    1    1    0    0    0  0.77453868801E+01 -0.17049872430E+02 -0.24639652799E+02  0.30948370843E+02  0.00000000000E+00 0. -1.
</event>
<event>
 5    1  0.8952932E-005  0.9118800E+02  0.7818608E-02  0.1130116E+00
         25   -1    0    0    0    0  0.00000000000E+00  0.00000000000E+00  0.99999998245E-14  0.12500000000E+03  0.12500000000E+03 0.  0.
        -11    1    3    3    0    0  0.50480749088E+02  0.19237221506E+02  0.31191411586E+02  0.62380132067E+02  0.51100000000E-03 0.  1.
         23    2    1    0    0    0  0.22940605585E+02  0.11421566999E+02  0.15997800793E+02  0.94789849263E+02  0.89846882616E+02 0.  0.
         11    1    3    3    0    0 -0.27540143503E+02 -0.78156545071E+01 -0.15193610793E+02  0.32409717196E+02  0.51100000000E-03 0. -1.
         22    1    1    0    0    0 -0.22940605585E+02 -0.11421566999E+02 -0.15997800793E+02  0.30210150737E+02  0.00000000000E+00 0.  1.
</event>
<event>
 5    1  0.8952932E-005  0.9118800E+02  0.7818608E-02  0.1130116E+00
         25   -1    0    0    0    0  0.00000000000E+00  0.00000000000E+00  0.99999998245E-14  0.12500000000E+03  0.12500000000E+03 0.  0.
        -11    1    3    3    0    0 -0.60789088343E+01  0.79523412646E+01  0.36124820560E+02  0.37485937696E+02  0.51100000000E-03 0.  1.
         23    2    1    0    0    0  0.27465840610E+01 -0.15392258687E+02 -0.20412963831E+02  0.99287076326E+02  0.95899786660E+02 0.  0.
         11    1    3    3    0    0  0.88254928953E+01 -0.23344599952E+02 -0.56537784391E+02  0.61801138630E+02  0.51100000000E-03 0. -1.
         22    1    1    0    0    0 -0.27465840610E+01  0.15392258687E+02  0.20412963831E+02  0.25712923674E+02  0.00000000000E+00 0. -1.
</event>
<event>
 5    1  0.8952932E-005  0.9118800E+02  0.7818608E-02  0.1130116E+00
         25   -1    0    0    0    0  0.00000000000E+00  0.00000000000E+00  0.99999998245E-14  0.12500000000E+03  0.12500000000E+03 0.  0.
        -11    1    3    3    0    0 -0.17979639468E+02  0.41320545309E+02 -0.30027662556E+02  0.54150857970E+02  0.51100000000E-03 0.  1.
         23    2    1    0    0    0  0.77007789408E+01  0.48821144634E+01 -0.24237942782E+02  0.99103766524E+02  0.95660554206E+02 0.  0.
         11    1    3    3    0    0  0.25680418409E+02 -0.36438430846E+02  0.57897197736E+01  0.44952908554E+02  0.51100000000E-03 0. -1.
         22    1    1    0    0    0 -0.77007789408E+01 -0.48821144634E+01  0.24237942782E+02  0.25896233476E+02  0.00000000000E+00 0.  1.
</event>
<event>
 5    1  0.8952932E-005  0.9118800E+02  0.7818608E-02  0.1130116E+00
         25   -1    0    0    0    0  0.00000000000E+00  0.00000000000E+00  0.99999998245E-14  0.12500000000E+03  0.12500000000E+03 0.  0.
        -11    1    3    3    0    0 -0.39156904353E+02 -0.24424800750E+02 -0.22447916486E+02  0.51320005895E+02  0.51100000000E-03 0.  1.
         23    2    1    0    0    0 -0.49219551949E+01 -0.27657813658E+02  0.63798471346E+01  0.96192314415E+02  0.91777331645E+02 0.  0.
         11    1    3    3    0    0  0.34234949158E+02 -0.32330129083E+01  0.28827763621E+02  0.44872308521E+02  0.51100000000E-03 0. -1.
         22    1    1    0    0    0  0.49219551949E+01  0.27657813658E+02 -0.63798471346E+01  0.28807685585E+02  0.00000000000E+00 0.  1.
</event>
<event>
 5    1  0.8952932E-005  0.9118800E+02  0.7818608E-02  0.1130116E+00
         25   -1    0    0    0    0  0.00000000000E+00  0.00000000000E+00  0.99999998245E-14  0.12500000000E+03  0.12500000000E+03 0.  0.
        -11    1    3    3    0    0 -0.12719509880E+02  0.51406572187E+02  0.31919352795E+02  0.61832569725E+02  0.51100000000E-03 0.  1.
         23    2    1    0    0    0 -0.14840102544E+00  0.22125493671E+02  0.17408594328E+02  0.96846516210E+02  0.92664065594E+02 0.  0.
         11    1    3    3    0    0  0.12571108855E+02 -0.29281078517E+02 -0.14510758466E+02  0.35013946485E+02  0.51100000000E-03 0. -1.
         22    1    1    0    0    0  0.14840102544E+00 -0.22125493671E+02 -0.17408594328E+02  0.28153483790E+02  0.00000000000E+00 0.  1.
</event>
<event>
 5    1  0.8952932E-005  0.9118800E+02  0.7818608E-02  0.1130116E+00
         25   -1    0    0    0    0  0.00000000000E+00  0.00000000000E+00  0.99999998245E-14  0.12500000000E+03  0.12500000000E+03 0.  0.
        -11    1    3    3    0    0 -0.13002490075E+02  0.27236874748E+02 -0.21622964895E+02  0.37127681120E+02  0.51100000000E-03 0. -1.
         23    2    1    0    0    0 -0.38093022869E+01 -0.50674805802E+01  0.27579696195E+02  0.96701063880E+02  0.92467648234E+02 0.  0.
         11    1    3    3    0    0  0.91931877877E+01 -0.32304355328E+02  0.49202661090E+02  0.59573382760E+02  0.51100000000E-03 0.  1.
         22    1    1    0    0    0  0.38093022869E+01  0.50674805802E+01 -0.27579696195E+02  0.28298936120E+02  0.00000000000E+00 0.  1.
</event>
<event>
 5    1  0.8952932E-005  0.9118800E+02  0.7818608E-02  0.1130116E+00
         25   -1    0    0    0    0  0.00000000000E+00  0.00000000000E+00  0.99999998245E-14  0.12500000000E+03  0.12500000000E+03 0.  0.
        -11    1    3    3    0    0 -0.45160290648E+02 -0.27874472212E+02 -0.21815126007E+02  0.57378896604E+02  0.51100000000E-03 0. -1.
         23    2    1    0    0    0 -0.11965115984E+02 -0.28210628541E+02 -0.80453382090E+01  0.93318285557E+02  0.87775687916E+02 0.  0.
         11    1    3    3    0    0  0.33195174664E+02 -0.33615632910E+00  0.13769787798E+02  0.35939388953E+02  0.51100000000E-03 0.  1.
         22    1    1    0    0    0  0.11965115984E+02  0.28210628541E+02  0.80453382090E+01  0.31681714443E+02  0.00000000000E+00 0. -1.
</event>
<event>
 5    1  0.8952932E-005  0.9118800E+02  0.7818608E-02  0.1130116E+00
         25   -1    0    0    0    0  0.00000000000E+00  0.00000000000E+00  0.99999998245E-14  0.12500000000E+03  0.12500000000E+03 0.  0.
        -11    1    3    3    0    0 -0.27191731125E+02  0.91386235602E+01  0.47426646317E+02  0.55427353024E+02  0.51100000000E-03 0. -1.
         23    2    1    0    0    0 -0.26908614438E+02  0.87721336064E+01  0.70155617055E+01  0.95841091155E+02  0.91297715135E+02 0.  0.
         11    1    3    3    0    0  0.28311668703E+00 -0.36648995383E+00 -0.40411084612E+02  0.40413738131E+02  0.51100000000E-03 0.  1.
         22    1    1    0    0    0  0.26908614438E+02 -0.87721336064E+01 -0.70155617055E+01  0.29158908845E+02  0.00000000000E+00 0. -1.
</event>
<event>
 5    1  0.8952932E-005  0.9118800E+02  0.7818608E-02  0.1130116E+00
         25   -1    0    0    0    0  0.00000000000E+00  0.00000000000E+00  0.99999998245E-14  0.12500000000E+03  0.12500000000E+03 0.  0.
        -11    1    3    3    0    0  0.16717205430E+02 -0.12541930010E+02  0.27998191387E+02  0.34937997753E+02  0.51100000000E-03 0.  1.
         23    2    1    0    0    0 -0.96961561847E+01  0.28634195353E+02 -0.55600505957E+01  0.94261640400E+02  0.89108978785E+02 0.  0.
         11    1    3    3    0    0 -0.26413361615E+02  0.41176125363E+02 -0.33558241983E+02  0.59323642647E+02  0.51100000000E-03 0. -1.
         22    1    1    0    0    0  0.96961561847E+01 -0.28634195353E+02  0.55600505957E+01  0.30738359600E+02  0.00000000000E+00 0. -1.
</event>
<event>
 5    1  0.8952932E-005  0.9118800E+02  0.7818608E-02  0.1130116E+00
         25   -1    0    0    0    0  0.00000000000E+00  0.00000000000E+00  0.99999998245E-14  0.12500000000E+03  0.12500000000E+03 0.  0.
        -11    1    3    3    0    0  0.46676627701E+01  0.62025330614E+02 -0.48890701484E+01  0.62392561422E+02  0.51100000000E-03 0. -1.
         23    2    1    0    0    0  0.21218247330E+01  0.29658170373E+02 -0.49322836152E+01  0.94859717457E+02  0.89944034623E+02 0.  0.
         11    1    3    3    0    0 -0.25458380371E+01 -0.32367160241E+02 -0.43213466849E-01  0.32467156036E+02  0.51100000000E-03 0.  1.
         22    1    1    0    0    0 -0.21218247330E+01 -0.29658170373E+02  0.49322836152E+01  0.30140282543E+02  0.00000000000E+00 0. -1.
</event>
<event>
 5    1  0.8952932E-005  0.9118800E+02  0.7818608E-02  0.1130116E+00
         25   -1    0    0    0    0  0.00000000000E+00  0.00000000000E+00  0.99999998245E-14  0.12500000000E+03  0.12500000000E+03 0.  0.
        -11    1    3    3    0    0 -0.45063757688E+02  0.20781926334E+02  0.14695974910E+02  0.51755216143E+02  0.51100000000E-03 0.  1.
         23    2    1    0    0    0 -0.19924564410E+02  0.83522440728E+01 -0.19442224084E+02  0.95935445551E+02  0.91426808912E+02 0.  0.
         11    1    3    3    0    0  0.25139193278E+02 -0.12429682261E+02 -0.34138198994E+02  0.44180229408E+02  0.51100000000E-03 0. -1.
         22    1    1    0    0    0  0.19924564410E+02 -0.83522440728E+01  0.19442224084E+02  0.29064554449E+02  0.00000000000E+00 0.  1.
</event>
<event>
 5    1  0.8952932E-005  0.9118800E+02  0.7818608E-02  0.1130116E+00
         25   -1    0    0    0    0  0.00000000000E+00  0.00000000000E+00  0.99999998245E-14  0.12500000000E+03  0.12500000000E+03 0.  0.
        -11    1    3    3    0    0  0.31793656174E+02 -0.44523965368E+01 -0.27351170610E+02  0.42175193442E+02  0.51100000000E-03 0.  1.
         23    2    1    0    0    0 -0.12458394929E+02  0.22461391286E+02 -0.14359344354E+02  0.95573541277E+02  0.90930662151E+02 0.  0.
         11    1    3    3    0    0 -0.44252051103E+02  0.26913787823E+02  0.12991826256E+02  0.53398347835E+02  0.51100000000E-03 0. -1.
         22    1    1    0    0    0  0.12458394929E+02 -0.22461391286E+02  0.14359344354E+02  0.29426458723E+02  0.00000000000E+00 0. -1.
</event>
<event>
 5    1  0.8952932E-005  0.9118800E+02  0.7818608E-02  0.1130116E+00
         25   -1    0    0    0    0  0.00000000000E+00  0.00000000000E+00  0.99999998245E-14  0.12500000000E+03  0.12500000000E+03 0.  0.
        -11    1    3    3    0    0  0.20267043769E+02  0.53404210063E+02  0.16621060709E+02  0.59489682928E+02  0.51100000000E-03 0.  1.
         23    2    1    0    0    0  0.10847661098E+02  0.27246023098E+02 -0.56773203466E+01  0.95129454436E+02  0.90318124477E+02 0.  0.
         11    1    3    3    0    0 -0.94193826715E+01 -0.26158186965E+02 -0.22298381055E+02  0.35639771508E+02  0.51100000000E-03 0. -1.
         22    1    1    0    0    0 -0.10847661098E+02 -0.27246023098E+02  0.56773203466E+01  0.29870545564E+02  0.00000000000E+00 0.  1.
</event>
<event>
 5    1  0.8952932E-005  0.9118800E+02  0.7818608E-02  0.1130116E+00
         25   -1    0    0    0    0  0.00000000000E+00  0.00000000000E+00  0.99999998245E-14  0.12500000000E+03  0.12500000000E+03 0.  0.
        -11    1    3    3    0    0 -0.23077610850E+02 -0.33838978548E+02  0.10359456179E+02  0.42248916250E+02  0.51100000000E-03 0.  1.
         23    2    1    0    0    0 -0.18575651342E+01  0.11039165598E+02  0.27931084625E+02  0.94909150666E+02  0.90012708361E+02 0.  0.
         11    1    3    3    0    0  0.21220045716E+02  0.44878144146E+02  0.17571628446E+02  0.52660234415E+02  0.51100000000E-03 0. -1.
         22    1    1    0    0    0  0.18575651342E+01 -0.11039165598E+02 -0.27931084625E+02  0.30090849334E+02  0.00000000000E+00 0.  1.
</event>
<event>
 5    1  0.8952932E-005  0.9118800E+02  0.7818608E-02  0.1130116E+00
         25   -1    0    0    0    0  0.00000000000E+00  0.00000000000E+00  0.99999998245E-14  0.12500000000E+03  0.12500000000E+03 0.  0.
        -11    1    3    3    0    0  0.52282455954E+02  0.29706480446E+02 -0.11520574921E+02  0.61226251133E+02  0.51100000000E-03 0. -1.
         23    2    1    0    0    0  0.24488437093E+02  0.19215983544E+02  0.18776188320E+01  0.93815660544E+02  0.88481156955E+02 0.  0.
         11    1    3    3    0    0 -0.27794018861E+02 -0.10490496902E+02  0.13398193753E+02  0.32589409412E+02  0.51100000000E-03 0.  1.
         22    1    1    0    0    0 -0.24488437093E+02 -0.19215983544E+02 -0.18776188320E+01  0.31184339456E+02  0.00000000000E+00 0. -1.
</event>
<event>
 5    1  0.8952932E-005  0.9118800E+02  0.7818608E-02  0.1130116E+00
         25   -1    0    0    0    0  0.00000000000E+00  0.00000000000E+00  0.99999998245E-14  0.12500000000E+03  0.12500000000E+03 0.  0.
        -11    1    3    3    0    0 -0.16647689842E+02 -0.11945412849E+01  0.30478462005E+02  0.34749232400E+02  0.51100000000E-03 0.  1.
         23    2    1    0    0    0  0.27788598332E+02  0.18154892127E+01 -0.10468386158E+02  0.95249549464E+02  0.90484182961E+02 0.  0.
         11    1    3    3    0    0  0.44436288173E+02  0.30100304976E+01 -0.40946848162E+02  0.60500317065E+02  0.51100000000E-03 0. -1.
         22    1    1    0    0    0 -0.27788598332E+02 -0.18154892127E+01  0.10468386158E+02  0.29750450536E+02  0.00000000000E+00 0. -1.
</event>
<event>
 5    1  0.8952932E-005  0.9118800E+02  0.7818608E-02  0.1130116E+00
         25   -1    0    0    0    0  0.00000000000E+00  0.00000000000E+00  0.99999998245E-14  0.12500000000E+03  0.12500000000E+03 0.  0.
        -11    1    3    3    0    0 -0.63187379770E+01  0.53488885021E+02  0.16645470377E+02  0.56374275648E+02  0.51100000000E-03 0.  1.
         23    2    1    0    0    0  0.75352332515E+01  0.24780884133E+02 -0.93051960418E+01  0.97478033647E+02  0.93512076288E+02 0.  0.
         11    1    3    3    0    0  0.13853971229E+02 -0.28708000889E+02 -0.25950666419E+02  0.41103757999E+02  0.51100000000E-03 0. -1.
         22    1    1    0    0    0 -0.75352332515E+01 -0.24780884133E+02  0.93051960418E+01  0.27521966353E+02  0.00000000000E+00 0.  1.
</event>
<event>
 5    1  0.8952932E-005  0.9118800E+02  0.7818608E-02  0.1130116E+00
         25   -1    0    0    0    0  0.00000000000E+00  0.00000000000E+00  0.99999998245E-14  0.12500000000E+03  0.12500000000E+03 0.  0.
        -11    1    3    3    0    0  0.57000791394E+02 -0.14167199035E+02  0.78995807932E+01  0.59263843320E+02  0.51100000000E-03 0. -1.
         23    2    1    0    0    0  0.24603420287E+02 -0.87750417324E+01  0.17591770888E+02  0.93507142871E+02  0.88044225919E+02 0.  0.
         11    1    3    3    0    0 -0.32397371107E+02  0.53921573026E+01  0.96921900946E+01  0.34243299551E+02  0.51100000000E-03 0.  1.
         22    1    1    0    0    0 -0.24603420287E+02  0.87750417324E+01 -0.17591770888E+02  0.31492857129E+02  0.00000000000E+00 0. -1.
</event>
<event>
 5    1  0.8952932E-005  0.9118800E+02  0.7818608E-02  0.1130116E+00
         25   -1    0    0    0    0  0.00000000000E+00  0.00000000000E+00  0.99999998245E-14  0.12500000000E+03  0.12500000000E+03 0.  0.
        -11    1    3    3    0    0 -0.53451603720E+01  0.23167451123E+02 -0.36153577807E+02  0.43271037883E+02  0.51100000000E-03 0.  1.
         23    2    1    0    0    0 -0.18749311311E+02 -0.20141531718E+02 -0.93518144614E+01  0.95936717180E+02  0.91428547483E+02 0.  0.
         11    1    3    3    0    0 -0.13404150939E+02 -0.43308982841E+02  0.26801763346E+02  0.52665679297E+02  0.51100000000E-03 0. -1.
         22    1    1    0    0    0  0.18749311311E+02  0.20141531718E+02  0.93518144614E+01  0.29063282820E+02  0.00000000000E+00 0.  1.
</event>
<event>
 5    1  0.8952932E-005  0.9118800E+02  0.7818608E-02  0.1130116E+00
         25   -1    0    0    0    0  0.00000000000E+00  0.00000000000E+00  0.99999998245E-14  0.12500000000E+03  0.12500000000E+03 0.  0.
        -11    1    3    3    0    0 -0.40471359490E+02 -0.26831570718E+02  0.30970078041E+02  0.57593488002E+02  0.51100000000E-03 0.  1.
         23    2    1    0    0    0 -0.37224804211E+01 -0.18064095601E+02  0.21750482439E+02  0.96482428282E+02  0.92171617489E+02 0.  0.
         11    1    3    3    0    0  0.36748879069E+02  0.87674751168E+01 -0.92195956019E+01  0.38888940280E+02  0.51100000000E-03 0. -1.
         22    1    1    0    0    0  0.37224804211E+01  0.18064095601E+02 -0.21750482439E+02  0.28517571718E+02  0.00000000000E+00 0.  1.
</event>
<event>
 5    1  0.8952932E-005  0.9118800E+02  0.7818608E-02  0.1130116E+00
         25   -1    0    0    0    0  0.00000000000E+00  0.00000000000E+00  0.99999998245E-14  0.12500000000E+03  0.12500000000E+03 0.  0.
        -11    1    3    3    0    0 -0.86069745700E+01 -0.76864037094E+00 -0.33726671500E+02  0.34816076603E+02  0.51100000000E-03 0. -1.
         23    2    1    0    0    0 -0.12255501225E+01  0.18043122187E+02  0.23408322180E+02  0.95419503408E+02  0.90718663195E+02 0.  0.
         11    1    3    3    0    0  0.73814244475E+01  0.18811762558E+02  0.57134993680E+02  0.60603426805E+02  0.51100000000E-03 0.  1.
         22    1    1    0    0    0  0.12255501225E+01 -0.18043122187E+02 -0.23408322180E+02  0.29580496592E+02  0.00000000000E+00 0.  1.
</event>
<event>
 5    1  0.8952932E-005  0.9118800E+02  0.7818608E-02  0.1130116E+00
         25   -1    0    0    0    0  0.00000000000E+00  0.00000000000E+00  0.99999998245E-14  0.12500000000E+03  0.12500000000E+03 0.  0.
        -11    1    3    3    0    0 -0.12679805398E+02  0.28039294080E+02  0.22664346426E+02  0.38218478209E+02  0.51100000000E-03 0. -1.
         23    2    1    0    0    0  0.24344991205E+01 -0.13385824404E+02 -0.20806934971E+02  0.10013967772E+03  0.97004739215E+02 0.  0.
         11    1    3    3    0    0  0.15114304519E+02 -0.41425118484E+02 -0.43471281396E+02  0.61921199512E+02  0.51100000000E-03 0.  1.
         22    1    1    0    0    0 -0.24344991205E+01  0.13385824404E+02  0.20806934971E+02  0.24860322279E+02  0.00000000000E+00 0.  1.
</event>
<event>
 5    1  0.8952932E-005  0.9118800E+02  0.7818608E-02  0.1130116E+00
         25   -1    0    0    0    0  0.00000000000E+00  0.00000000000E+00  0.99999998245E-14  0.12500000000E+03  0.12500000000E+03 0.  0.
        -11    1    3    3    0    0  0.11310802667E+02  0.21666133071E+02 -0.50140970182E+02  0.55780574310E+02  0.51100000000E-03 0. -1.
         23    2    1    0    0    0 -0.67341615924E+01 -0.66952076753E+01 -0.26427139695E+02  0.96918539023E+02  0.92761170517E+02 0.  0.
         11    1    3    3    0    0 -0.18044964260E+02 -0.28361340747E+02  0.23713830487E+02  0.41137964713E+02  0.51100000000E-03 0.  1.
         22    1    1    0    0    0  0.67341615924E+01  0.66952076753E+01  0.26427139695E+02  0.28081460977E+02  0.00000000000E+00 0. -1.
</event>
<event>
 5    1  0.8952932E-005  0.9118800E+02  0.7818608E-02  0.1130116E+00
         25   -1    0    0    0    0  0.00000000000E+00  0.00000000000E+00  0.99999998245E-14  0.12500000000E+03  0.12500000000E+03 0.  0.
        -11    1    3    3    0    0 -0.90118157850E+01  0.49780820024E+02  0.27330452890E+02  0.57500404532E+02  0.51100000000E-03 0. -1.
         23    2    1    0    0    0  0.28964600289E+01  0.12504169290E+02 -0.77089074747E+01  0.11002765934E+03  0.10900419641E+03 0.  0.
         11    1    3    3    0    0  0.11908275814E+02 -0.37276650733E+02 -0.35039360365E+02  0.52527254809E+02  0.51100000000E-03 0.  1.
         22    1    1    0    0    0 -0.28964600289E+01 -0.12504169290E+02  0.77089074747E+01  0.14972340658E+02  0.00000000000E+00 0.  1.
</event>
<event>
 5    1  0.8952932E-005  0.9118800E+02  0.7818608E-02  0.1130116E+00
         25   -1    0    0    0    0  0.00000000000E+00  0.00000000000E+00  0.99999998245E-14  0.12500000000E+03  0.12500000000E+03 0.  0.
        -11    1    3    3    0    0  0.27816382037E+02  0.54820327779E+01 -0.37242293059E+02  0.46805899047E+02  0.51100000000E-03 0. -1.
         23    2    1    0    0    0  0.32728832593E+01 -0.26846506838E+02 -0.81202526584E+01  0.96761990200E+02  0.92549973258E+02 0.  0.
         11    1    3    3    0    0 -0.24543498778E+02 -0.32328539616E+02  0.29122040401E+02  0.49956091153E+02  0.51100000000E-03 0.  1.
         22    1    1    0    0    0 -0.32728832593E+01  0.26846506838E+02  0.81202526584E+01  0.28238009800E+02  0.00000000000E+00 0.  1.
</event>
<event>
 5    1  0.8952932E-005  0.9118800E+02  0.7818608E-02  0.1130116E+00
         25   -1    0    0    0    0  0.00000000000E+00  0.00000000000E+00  0.99999998245E-14  0.12500000000E+03  0.12500000000E+03 0.  0.
        -11    1    3    3    0    0 -0.38655973962E+02 -0.17070457519E+02  0.36099906598E+01  0.42411282410E+02  0.51100000000E-03 0.  1.
         23    2    1    0    0    0  0.60452527877E+01 -0.13259716308E+02 -0.25314526126E+02  0.95790577020E+02  0.91228527638E+02 0.  0.
         11    1    3    3    0    0  0.44701226750E+02  0.38107412113E+01 -0.28924516786E+02  0.53379294610E+02  0.51100000000E-03 0. -1.
         22    1    1    0    0    0 -0.60452527877E+01  0.13259716308E+02  0.25314526126E+02  0.29209422980E+02  0.00000000000E+00 0. -1.
</event>
<event>
 5    1  0.8952932E-005  0.9118800E+02  0.7818608E-02  0.1130116E+00
         25   -1    0    0    0    0  0.00000000000E+00  0.00000000000E+00  0.99999998245E-14  0.12500000000E+03  0.12500000000E+03 0.  0.
        -11    1    3    3    0    0  0.10530138164E+02 -0.39901238708E+02 -0.35103931654E+02  0.54178212208E+02  0.51100000000E-03 0.  1.
         23    2    1    0    0    0  0.24612373256E+02 -0.68800445417E+01 -0.13124989391E+02  0.96270759204E+02  0.91884110710E+02 0.  0.
         11    1    3    3    0    0  0.14082235092E+02  0.33021194167E+02  0.21978942262E+02  0.42092546996E+02  0.51100000000E-03 0. -1.
         22    1    1    0    0    0 -0.24612373256E+02  0.68800445417E+01  0.13124989391E+02  0.28729240796E+02  0.00000000000E+00 0.  1.
</event>
<event>
 5    1  0.8952932E-005  0.9118800E+02  0.7818608E-02  0.1130116E+00
         25   -1    0    0    0    0  0.00000000000E+00  0.00000000000E+00  0.99999998245E-14  0.12500000000E+03  0.12500000000E+03 0.  0.
        -11    1    3    3    0    0 -0.82517077171E+01 -0.25505499576E+02 -0.27498457042E+02  0.38402946877E+02  0.51100000000E-03 0. -1.
         23    2    1    0    0    0  0.11104711592E+02  0.25361554456E+02 -0.88953949518E+01  0.95919918926E+02  0.91405578229E+02 0.  0.
         11    1    3    3    0    0  0.19356419309E+02  0.50867054031E+02  0.18603062090E+02  0.57516972049E+02  0.51100000000E-03 0.  1.
         22    1    1    0    0    0 -0.11104711592E+02 -0.25361554456E+02  0.88953949518E+01  0.29080081074E+02  0.00000000000E+00 0.  1.
</event>
<event>
 5    1  0.8952932E-005  0.9118800E+02  0.7818608E-02  0.1130116E+00
         25   -1    0    0    0    0  0.00000000000E+00  0.00000000000E+00  0.99999998245E-14  0.12500000000E+03  0.12500000000E+03 0.  0.
        -11    1    3    3    0    0 -0.37545850261E+02  0.13991745622E+02 -0.42683630347E+02  0.58543591598E+02  0.51100000000E-03 0.  1.
         23    2    1    0    0    0 -0.18396186041E+02 -0.93008453217E+01 -0.20016752948E+02  0.96266817386E+02  0.91878748068E+02 0.  0.
         11    1    3    3    0    0  0.19149664220E+02 -0.23292590943E+02  0.22666877399E+02  0.37723225788E+02  0.51100000000E-03 0. -1.
         22    1    1    0    0    0  0.18396186041E+02  0.93008453217E+01  0.20016752948E+02  0.28733182614E+02  0.00000000000E+00 0.  1.
</event>
<event>
 5    1  0.8952932E-005  0.9118800E+02  0.7818608E-02  0.1130116E+00
         25   -1    0    0    0    0  0.00000000000E+00  0.00000000000E+00  0.99999998245E-14  0.12500000000E+03  0.12500000000E+03 0.  0.
        -11    1    3    3    0    0 -0.29187986716E+02 -0.16950789980E+02  0.14640690020E+02  0.36791543241E+02  0.51100000000E-03 0.  1.
         23    2    1    0    0    0  0.26173149178E+02 -0.10118965544E+02 -0.60638087765E+01  0.96291168982E+02  0.91911872168E+02 0.  0.
         11    1    3    3    0    0  0.55361135894E+02  0.68318244358E+01 -0.20704498797E+02  0.59499625741E+02  0.51100000000E-03 0. -1.
         22    1    1    0    0    0 -0.26173149178E+02  0.10118965544E+02  0.60638087765E+01  0.28708831018E+02  0.00000000000E+00 0. -1.
</event>
<event>
 5    1  0.8952932E-005  0.9118800E+02  0.7818608E-02  0.1130116E+00
         25   -1    0    0    0    0  0.00000000000E+00  0.00000000000E+00  0.99999998245E-14  0.12500000000E+03  0.12500000000E+03 0.  0.
        -11    1    3    3    0    0  0.25105982226E+02 -0.15518492117E+02  0.52297757692E+02  0.60051556191E+02  0.51100000000E-03 0. -1.
         23    2    1    0    0    0  0.15708437549E+02  0.45102941938E+01  0.20661404951E+02  0.98656283130E+02  0.95074027907E+02 0.  0.
         11    1    3    3    0    0 -0.93975446768E+01  0.20028786311E+02 -0.31636352741E+02  0.38604726939E+02  0.51100000000E-03 0.  1.
         22    1    1    0    0    0 -0.15708437549E+02 -0.45102941938E+01 -0.20661404951E+02  0.26343716870E+02  0.00000000000E+00 0. -1.
</event>
<event>
 5    1  0.8952932E-005  0.9118800E+02  0.7818608E-02  0.1130116E+00
         25   -1    0    0    0    0  0.00000000000E+00  0.00000000000E+00  0.99999998245E-14  0.12500000000E+03  0.12500000000E+03 0.  0.
        -11    1    3    3    0    0  0.22421962585E+02 -0.34788842262E+02 -0.42622517401E+02  0.59411168495E+02  0.51100000000E-03 0.  1.
         23    2    1    0    0    0  0.29035603842E+01 -0.69319145327E+01 -0.27240299115E+02  0.96741974629E+02  0.92522935845E+02 0.  0.
         11    1    3    3    0    0 -0.19518402201E+02  0.27856927729E+02  0.15382218286E+02  0.37330806134E+02  0.51100000000E-03 0. -1.
         22    1    1    0    0    0 -0.29035603842E+01  0.69319145327E+01  0.27240299115E+02  0.28258025371E+02  0.00000000000E+00 0.  1.
</event>
<event>
 5    1  0.8952932E-005  0.9118800E+02  0.7818608E-02  0.1130116E+00
         25   -1    0    0    0    0  0.00000000000E+00  0.00000000000E+00  0.99999998245E-14  0.12500000000E+03  0.12500000000E+03 0.  0.
        -11    1    3    3    0    0  0.17467476511E+02 -0.14687265784E+02  0.27824227791E+02  0.35986333021E+02  0.51100000000E-03 0.  1.
         23    2    1    0    0    0 -0.24936342325E+02 -0.12124868633E+02 -0.12523967641E+02  0.94574954833E+02  0.89547410394E+02 0.  0.
         11    1    3    3    0    0 -0.42403818836E+02  0.25623971501E+01 -0.40348195432E+02  0.58588621813E+02  0.51100000000E-03 0. -1.
         22    1    1    0    0    0  0.24936342325E+02  0.12124868633E+02  0.12523967641E+02  0.30425045167E+02  0.00000000000E+00 0. -1.
</event>
<event>
 5    1  0.8952932E-005  0.9118800E+02  0.7818608E-02  0.1130116E+00
         25   -1    0    0    0    0  0.00000000000E+00  0.00000000000E+00  0.99999998245E-14  0.12500000000E+03  0.12500000000E+03 0.  0.
        -11    1    3    3    0    0  0.41106614579E+02 -0.30830538092E+02  0.33217454632E+02  0.61185579459E+02  0.51100000000E-03 0. -1.
         23    2    1    0    0    0  0.15844176471E+02 -0.22123202773E+02  0.12215096530E+02  0.95172452125E+02  0.90377613552E+02 0.  0.
         11    1    3    3    0    0 -0.25262438108E+02  0.87073353190E+01 -0.21002358102E+02  0.33986872667E+02  0.51100000000E-03 0.  1.
         22    1    1    0    0    0 -0.15844176471E+02  0.22123202773E+02 -0.12215096530E+02  0.29827547875E+02  0.00000000000E+00 0. -1.
</event>
<event>
 5    1  0.8952932E-005  0.9118800E+02  0.7818608E-02  0.1130116E+00
         25   -1    0    0    0    0  0.00000000000E+00  0.00000000000E+00  0.99999998245E-14  0.12500000000E+03  0.12500000000E+03 0.  0.
        -11    1    3    3    0    0 -0.87920493547E+01 -0.38661763375E+02  0.31679967928E+02  0.50750886173E+02  0.51100000000E-03 0. -1.
         23    2    1    0    0    0  0.11464299440E+02 -0.12120246218E+02  0.36861635154E+02  0.84538775645E+02  0.74227312435E+02 0.  0.
         11    1    3    3    0    0  0.20256348795E+02  0.26541517157E+02  0.51816672266E+01  0.33787889472E+02  0.51100000000E-03 0.  1.
         22    1    1    0    0    0 -0.11464299440E+02  0.12120246218E+02 -0.36861635154E+02  0.40461224355E+02  0.00000000000E+00 0. -1.
</event>
<event>
 5    1  0.8952932E-005  0.9118800E+02  0.7818608E-02  0.1130116E+00
         25   -1    0    0    0    0  0.00000000000E+00  0.00000000000E+00  0.99999998245E-14  0.12500000000E+03  0.12500000000E+03 0.  0.
        -11    1    3    3    0    0 -0.20963745489E+02  0.10417938200E+02 -0.43445109705E+02  0.49350680024E+02  0.51100000000E-03 0.  1.
         23    2    1    0    0    0 -0.17151741650E+02 -0.21862449003E+02 -0.11495333142E+02  0.94928558364E+02  0.90039655658E+02 0.  0.
         11    1    3    3    0    0  0.38120038394E+01 -0.32280387203E+02  0.31949776563E+02  0.45577878340E+02  0.51100000000E-03 0. -1.
         22    1    1    0    0    0  0.17151741650E+02  0.21862449003E+02  0.11495333142E+02  0.30071441636E+02  0.00000000000E+00 0.  1.
</event>
<event>
 5    1  0.8952932E-005  0.9118800E+02  0.7818608E-02  0.1130116E+00
         25   -1    0    0    0    0  0.00000000000E+00  0.00000000000E+00  0.99999998245E-14  0.12500000000E+03  0.12500000000E+03 0.  0.
        -11    1    3    3    0    0 -0.43310343268E+01 -0.24168522926E+02  0.36242307289E+02  0.43776479948E+02  0.51100000000E-03 0. -1.
         23    2    1    0    0    0 -0.48505537406E+01 -0.21566694084E+02 -0.17017883393E+02  0.97102714819E+02  0.93009024857E+02 0.  0.
         11    1    3    3    0    0 -0.51951941377E+00  0.26018288426E+01 -0.53260190682E+02  0.53326234871E+02  0.51100000000E-03 0.  1.
         22    1    1    0    0    0  0.48505537406E+01  0.21566694084E+02  0.17017883393E+02  0.27897285181E+02  0.00000000000E+00 0. -1.
</event>
<event>
 5    1  0.8952932E-005  0.9118800E+02  0.7818608E-02  0.1130116E+00
         25   -1    0    0    0    0  0.00000000000E+00  0.00000000000E+00  0.99999998245E-14  0.12500000000E+03  0.12500000000E+03 0.  0.
        -11    1    3    3    0    0 -0.20488814157E+02  0.25400890670E+02  0.71760451886E+01  0.33413954827E+02  0.51100000000E-03 0. -1.
         23    2    1    0    0    0  0.21040088800E+02 -0.18363847537E+02 -0.86072218726E+01  0.95776713028E+02  0.91209529420E+02 0.  0.
         11    1    3    3    0    0  0.41528902957E+02 -0.43764738207E+02 -0.15783267061E+02  0.62362758201E+02  0.51100000000E-03 0.  1.
         22    1    1    0    0    0 -0.21040088800E+02  0.18363847537E+02  0.86072218726E+01  0.29223286972E+02  0.00000000000E+00 0.  1.
</event>
<event>
 5    1  0.8952932E-005  0.9118800E+02  0.7818608E-02  0.1130116E+00
         25   -1    0    0    0    0  0.00000000000E+00  0.00000000000E+00  0.99999998245E-14  0.12500000000E+03  0.12500000000E+03 0.  0.
        -11    1    3    3    0    0 -0.79415182436E+01  0.55697330456E+02 -0.16200189545E+02  0.58546617951E+02  0.51100000000E-03 0.  1.
         23    2    1    0    0    0  0.45984990378E+01  0.28709931643E+02  0.55407233735E+01  0.95400912449E+02  0.90693043351E+02 0.  0.
         11    1    3    3    0    0  0.12540017281E+02 -0.26987398813E+02  0.21740912919E+02  0.36854294498E+02  0.51100000000E-03 0. -1.
         22    1    1    0    0    0 -0.45984990378E+01 -0.28709931643E+02 -0.55407233735E+01  0.29599087551E+02  0.00000000000E+00 0.  1.
</event>
<event>
 5    1  0.8952932E-005  0.9118800E+02  0.7818608E-02  0.1130116E+00
         25   -1    0    0    0    0  0.00000000000E+00  0.00000000000E+00  0.99999998245E-14  0.12500000000E+03  0.12500000000E+03 0.  0.
        -11    1    3    3    0    0 -0.58436936827E+01 -0.21044198453E+02 -0.35908911751E+02  0.42029239677E+02  0.51100000000E-03 0.  1.
         23    2    1    0    0    0 -0.40422300873E+01 -0.22884423803E+02  0.17754990141E+02  0.95754895252E+02  0.91179623891E+02 0.  0.
         11    1    3    3    0    0  0.18014635954E+01 -0.18402253498E+01  0.53663901892E+02  0.53725655575E+02  0.51100000000E-03 0. -1.
         22    1    1    0    0    0  0.40422300873E+01  0.22884423803E+02 -0.17754990141E+02  0.29245104748E+02  0.00000000000E+00 0. -1.
</event>
<event>
 5    1  0.8952932E-005  0.9118800E+02  0.7818608E-02  0.1130116E+00
         25   -1    0    0    0    0  0.00000000000E+00  0.00000000000E+00  0.99999998245E-14  0.12500000000E+03  0.12500000000E+03 0.  0.
        -11    1    3    3    0    0 -0.51940185968E+02  0.14754296802E+02 -0.26468562910E+02  0.60133659586E+02  0.51100000000E-03 0.  1.
         23    2    1    0    0    0 -0.30403336283E+02 -0.24787961061E+01 -0.75675756501E+01  0.93571104243E+02  0.88134987722E+02 0.  0.
         11    1    3    3    0    0  0.21536849685E+02 -0.17233092908E+02  0.18900987260E+02  0.33437444657E+02  0.51100000000E-03 0. -1.
         22    1    1    0    0    0  0.30403336283E+02  0.24787961061E+01  0.75675756501E+01  0.31428895757E+02  0.00000000000E+00 0.  1.
</event>
<event>
 5    1  0.8952932E-005  0.9118800E+02  0.7818608E-02  0.1130116E+00
         25   -1    0    0    0    0  0.00000000000E+00  0.00000000000E+00  0.99999998245E-14  0.12500000000E+03  0.12500000000E+03 0.  0.
        -11    1    3    3    0    0 -0.48088917367E+02  0.25264948956E+02 -0.13395788638E+02  0.55949162395E+02  0.51100000000E-03 0.  1.
         23    2    1    0    0    0 -0.24149050037E+02 -0.73235200696E+01 -0.13488994408E+02  0.96385955650E+02  0.92040691612E+02 0.  0.
         11    1    3    3    0    0  0.23939867329E+02 -0.32588469025E+02 -0.93205770381E-01  0.40436793255E+02  0.51100000000E-03 0. -1.
         22    1    1    0    0    0  0.24149050037E+02  0.73235200696E+01  0.13488994408E+02  0.28614044350E+02  0.00000000000E+00 0.  1.
</event>
<event>
 5    1  0.8952932E-005  0.9118800E+02  0.7818608E-02  0.1130116E+00
         25   -1    0    0    0    0  0.00000000000E+00  0.00000000000E+00  0.99999998245E-14  0.12500000000E+03  0.12500000000E+03 0.  0.
        -11    1    3    3    0    0 -0.15460659515E+02  0.20254229069E+02 -0.35202631257E+02  0.43456772033E+02  0.51100000000E-03 0.  1.
         23    2    1    0    0    0  0.81329726077E+01  0.26288427047E+02  0.10744664962E+02  0.95458935951E+02  0.90772980493E+02 0.  0.
         11    1    3    3    0    0  0.23593632123E+02  0.60341979779E+01  0.45947296219E+02  0.52002163918E+02  0.51100000000E-03 0. -1.
         22    1    1    0    0    0 -0.81329726077E+01 -0.26288427047E+02 -0.10744664962E+02  0.29541064049E+02  0.00000000000E+00 0. -1.
</event>
<event>
 5    1  0.8952932E-005  0.9118800E+02  0.7818608E-02  0.1130116E+00
         25   -1    0    0    0    0  0.00000000000E+00  0.00000000000E+00  0.99999998245E-14  0.12500000000E+03  0.12500000000E+03 0.  0.
        -11    1    3    3    0    0 -0.25034779441E+02  0.16515520630E+02  0.21295832006E+02  0.36783353088E+02  0.51100000000E-03 0. -1.
         23    2    1    0    0    0  0.27256342015E+02  0.59465878709E+01 -0.56274496584E+01  0.96540585442E+02  0.92250454527E+02 0.  0.
         11    1    3    3    0    0  0.52291121455E+02 -0.10568932759E+02 -0.26923281664E+02  0.59757232354E+02  0.51100000000E-03 0.  1.
         22    1    1    0    0    0 -0.27256342015E+02 -0.59465878709E+01  0.56274496584E+01  0.28459414558E+02  0.00000000000E+00 0.  1.
</event>
<event>
 5    1  0.8952932E-005  0.9118800E+02  0.7818608E-02  0.1130116E+00
         25   -1    0    0    0    0  0.00000000000E+00  0.00000000000E+00  0.99999998245E-14  0.12500000000E+03  0.12500000000E+03 0.  0.
        -11    1    3    3    0    0  0.74328205594E+01 -0.30682870441E+02  0.17329814889E+02  0.36013995117E+02  0.51100000000E-03 0.  1.
         23    2    1    0    0    0 -0.25846077967E+02  0.12145251283E+02 -0.72122861437E+01  0.95545901025E+02  0.90892657878E+02 0.  0.
         11    1    3    3    0    0 -0.33278898527E+02  0.42828121724E+02 -0.24542101033E+02  0.59531905907E+02  0.51100000000E-03 0. -1.
         22    1    1    0    0    0  0.25846077967E+02 -0.12145251283E+02  0.72122861437E+01  0.29454098975E+02  0.00000000000E+00 0. -1.
</event>
<event>
 5    1  0.8952932E-005  0.9118800E+02  0.7818608E-02  0.1130116E+00
         25   -1    0    0    0    0  0.00000000000E+00  0.00000000000E+00  0.99999998245E-14  0.12500000000E+03  0.12500000000E+03 0.  0.
        -11    1    3    3    0    0  0.21167510372E+02 -0.53479354503E+02 -0.12990158868E+02  0.58964812228E+02  0.51100000000E-03 0.  1.
         23    2    1    0    0    0  0.17856958948E+02 -0.23686127254E+02  0.63844367653E+01  0.94657543936E+02  0.89662623116E+02 0.  0.
         11    1    3    3    0    0 -0.33105514240E+01  0.29793227249E+02  0.19374595633E+02  0.35692731709E+02  0.51100000000E-03 0. -1.
         22    1    1    0    0    0 -0.17856958948E+02  0.23686127254E+02 -0.63844367653E+01  0.30342456064E+02  0.00000000000E+00 0.  1.
</event>
<event>
 5    1  0.8952932E-005  0.9118800E+02  0.7818608E-02  0.1130116E+00
         25   -1    0    0    0    0  0.00000000000E+00  0.00000000000E+00  0.99999998245E-14  0.12500000000E+03  0.12500000000E+03 0.  0.
        -11    1    3    3    0    0 -0.47037688105E+02 -0.89645058143E+01 -0.28553445259E+02  0.55751284318E+02  0.51100000000E-03 0.  1.
         23    2    1    0    0    0 -0.61417697232E+01 -0.50628226412E+01 -0.26988020188E+02  0.96862716156E+02  0.92685916077E+02 0.  0.
         11    1    3    3    0    0  0.40895918382E+02  0.39016831731E+01  0.15654250707E+01  0.41111431838E+02  0.51100000000E-03 0. -1.
         22    1    1    0    0    0  0.61417697232E+01  0.50628226412E+01  0.26988020188E+02  0.28137283844E+02  0.00000000000E+00 0.  1.
</event>
<event>
 5    1  0.8952932E-005  0.9118800E+02  0.7818608E-02  0.1130116E+00
         25   -1    0    0    0    0  0.00000000000E+00  0.00000000000E+00  0.99999998245E-14  0.12500000000E+03  0.12500000000E+03 0.  0.
        -11    1    3    3    0    0 -0.35729040059E+02 -0.69148021060E+01 -0.38517943612E+02  0.52990666839E+02  0.51100000000E-03 0.  1.
         23    2    1    0    0    0 -0.22067682350E+02 -0.21011658769E+02 -0.19839004930E+01  0.94464639028E+02  0.89393286980E+02 0.  0.
         11    1    3    3    0    0  0.13661357709E+02 -0.14096856663E+02  0.36534043119E+02  0.41473972189E+02  0.51100000000E-03 0. -1.
         22    1    1    0    0    0  0.22067682350E+02  0.21011658769E+02  0.19839004930E+01  0.30535360972E+02  0.00000000000E+00 0.  1.
</event>
<event>
 5    1  0.8952932E-005  0.9118800E+02  0.7818608E-02  0.1130116E+00
         25   -1    0    0    0    0  0.00000000000E+00  0.00000000000E+00  0.99999998245E-14  0.12500000000E+03  0.12500000000E+03 0.  0.
        -11    1    3    3    0    0 -0.16708380169E+01  0.11719865837E+02 -0.31589110771E+02  0.33734535338E+02  0.51100000000E-03 0. -1.
         23    2    1    0    0    0  0.25296222009E+02  0.18814620973E+01  0.19950039125E+02  0.92728606962E+02  0.86931879886E+02 0.  0.
         11    1    3    3    0    0  0.26967060026E+02 -0.98384037400E+01  0.51539149895E+02  0.58994071624E+02  0.51100000000E-03 0.  1.
         22    1    1    0    0    0 -0.25296222009E+02 -0.18814620973E+01 -0.19950039125E+02  0.32271393038E+02  0.00000000000E+00 0.  1.
</event>
<event>
 5    1  0.8952932E-005  0.9118800E+02  0.7818608E-02  0.1130116E+00
         25   -1    0    0    0    0  0.00000000000E+00  0.00000000000E+00  0.99999998245E-14  0.12500000000E+03  0.12500000000E+03 0.  0.
        -11    1    3    3    0    0  0.17443296820E+01  0.56750390243E+02  0.24978125921E+02  0.62028672834E+02  0.51100000000E-03 0.  1.
         23    2    1    0    0    0  0.15455973749E+01  0.30687479679E+02  0.76220972702E+01  0.93342352471E+02  0.87809954548E+02 0.  0.
         11    1    3    3    0    0 -0.19873230712E+00 -0.26062910564E+02 -0.17356028651E+02  0.31313679637E+02  0.51100000000E-03 0. -1.
         22    1    1    0    0    0 -0.15455973749E+01 -0.30687479679E+02 -0.76220972702E+01  0.31657647529E+02  0.00000000000E+00 0.  1.
</event>
<event>
 5    1  0.8952932E-005  0.9118800E+02  0.7818608E-02  0.1130116E+00
         25   -1    0    0    0    0  0.00000000000E+00  0.00000000000E+00  0.99999998245E-14  0.12500000000E+03  0.12500000000E+03 0.  0.
        -11    1    3    3    0    0  0.43441738752E+01  0.31471018059E+02 -0.43906822558E+02  0.54195072578E+02  0.51100000000E-03 0. -1.
         23    2    1    0    0    0  0.22798871544E+02  0.51192861782E+01 -0.19128497967E+02  0.94802399613E+02  0.89864341667E+02 0.  0.
         11    1    3    3    0    0  0.18454697669E+02 -0.26351731881E+02  0.24778324590E+02  0.40607327035E+02  0.51100000000E-03 0.  1.
         22    1    1    0    0    0 -0.22798871544E+02 -0.51192861782E+01  0.19128497967E+02  0.30197600387E+02  0.00000000000E+00 0. -1.
</event>
<event>
 5    1  0.8952932E-005  0.9118800E+02  0.7818608E-02  0.1130116E+00
         25   -1    0    0    0    0  0.00000000000E+00  0.00000000000E+00  0.99999998245E-14  0.12500000000E+03  0.12500000000E+03 0.  0.
        -11    1    3    3    0    0 -0.42197451655E+02  0.30667394861E+02 -0.11210061845E+02  0.53355220180E+02  0.51100000000E-03 0. -1.
         23    2    1    0    0    0 -0.12709444254E+02  0.32119131194E+01 -0.25681639825E+02  0.96166113976E+02  0.91741639913E+02 0.  0.
         11    1    3    3    0    0  0.29488007400E+02 -0.27455481741E+02 -0.14471577980E+02  0.42810893796E+02  0.51100000000E-03 0.  1.
         22    1    1    0    0    0  0.12709444254E+02 -0.32119131194E+01  0.25681639825E+02  0.28833886024E+02  0.00000000000E+00 0.  1.
</event>
<event>
 5    1  0.8952932E-005  0.9118800E+02  0.7818608E-02  0.1130116E+00
         25   -1    0    0    0    0  0.00000000000E+00  0.00000000000E+00  0.99999998245E-14  0.12500000000E+03  0.12500000000E+03 0.  0.
        -11    1    3    3    0    0  0.43475762364E+01  0.34088078615E+02  0.20619024916E+02  0.40075462712E+02  0.51100000000E-03 0. -1.
         23    2    1    0    0    0  0.25516210848E+02  0.22549216802E+01 -0.17433398052E+02  0.94014760684E+02  0.88761986070E+02 0.  0.
         11    1    3    3    0    0  0.21168634611E+02 -0.31833156935E+02 -0.38052422968E+02  0.53939297972E+02  0.51100000000E-03 0.  1.
         22    1    1    0    0    0 -0.25516210848E+02 -0.22549216802E+01  0.17433398052E+02  0.30985239316E+02  0.00000000000E+00 0.  1.
</event>
<event>
 5    1  0.8952932E-005  0.9118800E+02  0.7818608E-02  0.1130116E+00
         25   -1    0    0    0    0  0.00000000000E+00  0.00000000000E+00  0.99999998245E-14  0.12500000000E+03  0.12500000000E+03 0.  0.
        -11    1    3    3    0    0  0.26686414734E+02 -0.26119752629E+02  0.13874137190E+02  0.39835886984E+02  0.51100000000E-03 0.  1.
         23    2    1    0    0    0 -0.21150587105E+02 -0.15117613672E+02 -0.13146188260E+02  0.95867340599E+02  0.91333647413E+02 0.  0.
         11    1    3    3    0    0 -0.47837001839E+02  0.11002138958E+02 -0.27020325450E+02  0.56031453615E+02  0.51100000000E-03 0. -1.
         22    1    1    0    0    0  0.21150587105E+02  0.15117613672E+02  0.13146188260E+02  0.29132659401E+02  0.00000000000E+00 0. -1.
</event>
<event>
 5    1  0.8952932E-005  0.9118800E+02  0.7818608E-02  0.1130116E+00
         25   -1    0    0    0    0  0.00000000000E+00  0.00000000000E+00  0.99999998245E-14  0.12500000000E+03  0.12500000000E+03 0.  0.
        -11    1    3    3    0    0  0.35232866095E+02 -0.15298168700E+02 -0.16693877684E+02  0.41881671065E+02  0.51100000000E-03 0.  1.
         23    2    1    0    0    0 -0.12173831255E+02  0.59002038386E+01 -0.26977539274E+02  0.94820500368E+02  0.89889516029E+02 0.  0.
         11    1    3    3    0    0 -0.47406697350E+02  0.21198372539E+02 -0.10283661590E+02  0.52938829302E+02  0.51100000000E-03 0. -1.
         22    1    1    0    0    0  0.12173831255E+02 -0.59002038386E+01  0.26977539274E+02  0.30179499632E+02  0.00000000000E+00 0.  1.
</event>
<event>
 5    1  0.8952932E-005  0.9118800E+02  0.7818608E-02  0.1130116E+00
         25   -1    0    0    0    0  0.00000000000E+00  0.00000000000E+00  0.99999998245E-14  0.12500000000E+03  0.12500000000E+03 0.  0.
        -11    1    3    3    0    0 -0.12057483712E+02  0.49418388968E+02 -0.26318143116E+02  0.57273071674E+02  0.51100000000E-03 0.  1.
         23    2    1    0    0    0 -0.37917922271E+01  0.28743904377E+02  0.48775478172E+01  0.95599656467E+02  0.90966554936E+02 0.  0.
         11    1    3    3    0    0  0.82656914848E+01 -0.20674484591E+02  0.31195690933E+02  0.38326584793E+02  0.51100000000E-03 0. -1.
         22    1    1    0    0    0  0.37917922271E+01 -0.28743904377E+02 -0.48775478172E+01  0.29400343533E+02  0.00000000000E+00 0.  1.
</event>
<event>
 5    1  0.8952932E-005  0.9118800E+02  0.7818608E-02  0.1130116E+00
         25   -1    0    0    0    0  0.00000000000E+00  0.00000000000E+00  0.99999998245E-14  0.12500000000E+03  0.12500000000E+03 0.  0.
        -11    1    3    3    0    0 -0.49878458844E+02  0.25477389071E+02 -0.97717191615E+01  0.56854590898E+02  0.51100000000E-03 0.  1.
         23    2    1    0    0    0 -0.11917769656E+02  0.26851539135E+02 -0.58887924366E+01  0.95038086445E+02  0.90191582819E+02 0.  0.
         11    1    3    3    0    0  0.37960689188E+02  0.13741500645E+01  0.38829267249E+01  0.38183495548E+02  0.51100000000E-03 0. -1.
         22    1    1    0    0    0  0.11917769656E+02 -0.26851539135E+02  0.58887924366E+01  0.29961913555E+02  0.00000000000E+00 0.  1.
</event>
<event>
 5    1  0.8952932E-005  0.9118800E+02  0.7818608E-02  0.1130116E+00
         25   -1    0    0    0    0  0.00000000000E+00  0.00000000000E+00  0.99999998245E-14  0.12500000000E+03  0.12500000000E+03 0.  0.
        -11    1    3    3    0    0 -0.49511036298E+02  0.61090903677E+00 -0.17059073254E+02  0.52371059811E+02  0.51100000000E-03 0.  1.
         23    2    1    0    0    0 -0.18095399165E+02  0.23492167120E+02  0.12230164740E+01  0.95321368693E+02  0.90583343796E+02 0.  0.
         11    1    3    3    0    0  0.31415637133E+02  0.22881258083E+02  0.18282089728E+02  0.42950308882E+02  0.51100000000E-03 0. -1.
         22    1    1    0    0    0  0.18095399165E+02 -0.23492167120E+02 -0.12230164740E+01  0.29678631307E+02  0.00000000000E+00 0.  1.
</event>
<event>
 5    1  0.8952932E-005  0.9118800E+02  0.7818608E-02  0.1130116E+00
         25   -1    0    0    0    0  0.00000000000E+00  0.00000000000E+00  0.99999998245E-14  0.12500000000E+03  0.12500000000E+03 0.  0.
        -11    1    3    3    0    0  0.31347897856E+02 -0.69304207839E+01  0.24421111544E+02  0.40337477878E+02  0.51100000000E-03 0.  1.
         23    2    1    0    0    0 -0.22555510738E+02 -0.13158071912E+02  0.13171107950E+02  0.95753393262E+02  0.91177564759E+02 0.  0.
         11    1    3    3    0    0 -0.53903408594E+02 -0.62276511284E+01 -0.11250003594E+02  0.55415915383E+02  0.51100000000E-03 0. -1.
         22    1    1    0    0    0  0.22555510738E+02  0.13158071912E+02 -0.13171107950E+02  0.29246606738E+02  0.00000000000E+00 0.  1.
</event>
<event>
 5    1  0.8952932E-005  0.9118800E+02  0.7818608E-02  0.1130116E+00
         25   -1    0    0    0    0  0.00000000000E+00  0.00000000000E+00  0.99999998245E-14  0.12500000000E+03  0.12500000000E+03 0.  0.
        -11    1    3    3    0    0 -0.32673611469E+01 -0.43102309596E+02 -0.40062056350E+02  0.58936008523E+02  0.51100000000E-03 0. -1.
         23    2    1    0    0    0 -0.13634350830E+02 -0.25718725379E+02 -0.12049977823E+02  0.93495233326E+02  0.88027315826E+02 0.  0.
         11    1    3    3    0    0 -0.10366989683E+02  0.17383584217E+02  0.28012078527E+02  0.34559224803E+02  0.51100000000E-03 0.  1.
         22    1    1    0    0    0  0.13634350830E+02  0.25718725379E+02  0.12049977823E+02  0.31504766674E+02  0.00000000000E+00 0. -1.
</event>
<event>
 5    1  0.8952932E-005  0.9118800E+02  0.7818608E-02  0.1130116E+00
         25   -1    0    0    0    0  0.00000000000E+00  0.00000000000E+00  0.99999998245E-14  0.12500000000E+03  0.12500000000E+03 0.  0.
        -11    1    3    3    0    0  0.22012447263E+02  0.27790187996E+02  0.30243784826E+02  0.46599666353E+02  0.51100000000E-03 0.  1.
         23    2    1    0    0    0  0.24948374855E+02 -0.14255027845E+02  0.46976758964E+01  0.95884791163E+02  0.91357527281E+02 0.  0.
         11    1    3    3    0    0  0.29359275924E+01 -0.42045215841E+02 -0.25546108929E+02  0.49285124811E+02  0.51100000000E-03 0. -1.
         22    1    1    0    0    0 -0.24948374855E+02  0.14255027845E+02 -0.46976758964E+01  0.29115208837E+02  0.00000000000E+00 0. -1.
</event>
<event>
 5    1  0.8952932E-005  0.9118800E+02  0.7818608E-02  0.1130116E+00
         25   -1    0    0    0    0  0.00000000000E+00  0.00000000000E+00  0.99999998245E-14  0.12500000000E+03  0.12500000000E+03 0.  0.
        -11    1    3    3    0    0  0.21691127766E+02  0.26803515778E+02 -0.21006872248E+02  0.40376009755E+02  0.51100000000E-03 0. -1.
         23    2    1    0    0    0 -0.25039891386E+02  0.95509663334E+01  0.66981295048E+01  0.97376060068E+02  0.93375666086E+02 0.  0.
         11    1    3    3    0    0 -0.46731019152E+02 -0.17252549445E+02  0.27705001753E+02  0.57000050313E+02  0.51100000000E-03 0.  1.
         22    1    1    0    0    0  0.25039891386E+02 -0.95509663334E+01 -0.66981295048E+01  0.27623939932E+02  0.00000000000E+00 0.  1.
</event>
<event>
 5    1  0.8952932E-005  0.9118800E+02  0.7818608E-02  0.1130116E+00
         25   -1    0    0    0    0  0.00000000000E+00  0.00000000000E+00  0.99999998245E-14  0.12500000000E+03  0.12500000000E+03 0.  0.
        -11    1    3    3    0    0  0.22481636809E+02 -0.29259945914E+02  0.73154205377E+01  0.37617599690E+02  0.51100000000E-03 0. -1.
         23    2    1    0    0    0 -0.20933864971E+02  0.31250700889E+01  0.22739267102E+02  0.93934471934E+02  0.88648846487E+02 0.  0.
         11    1    3    3    0    0 -0.43415501780E+02  0.32385016003E+02  0.15423846564E+02  0.56316872245E+02  0.51100000000E-03 0.  1.
         22    1    1    0    0    0  0.20933864971E+02 -0.31250700889E+01 -0.22739267102E+02  0.31065528066E+02  0.00000000000E+00 0.  1.
</event>
<event>
 5    1  0.8952932E-005  0.9118800E+02  0.7818608E-02  0.1130116E+00
         25   -1    0    0    0    0  0.00000000000E+00  0.00000000000E+00  0.99999998245E-14  0.12500000000E+03  0.12500000000E+03 0.  0.
        -11    1    3    3    0    0 -0.86907464786E+01 -0.12474195515E+02  0.57433344472E+02  0.59411477726E+02  0.51100000000E-03 0. -1.
         23    2    1    0    0    0  0.64721458480E+01  0.33320599361E+01  0.27810628172E+02  0.96252437763E+02  0.91859182669E+02 0.  0.
         11    1    3    3    0    0  0.15162892327E+02  0.15806255451E+02 -0.29622716301E+02  0.36840960036E+02  0.51100000000E-03 0.  1.
         22    1    1    0    0    0 -0.64721458480E+01 -0.33320599361E+01 -0.27810628172E+02  0.28747562237E+02  0.00000000000E+00 0. -1.
</event>
<event>
 5    1  0.8952932E-005  0.9118800E+02  0.7818608E-02  0.1130116E+00
         25   -1    0    0    0    0  0.00000000000E+00  0.00000000000E+00  0.99999998245E-14  0.12500000000E+03  0.12500000000E+03 0.  0.
        -11    1    3    3    0    0 -0.44357035581E+02 -0.38981281387E+02 -0.27020554402E+01  0.59113348814E+02  0.51100000000E-03 0.  1.
         23    2    1    0    0    0 -0.23619423643E+02 -0.11571619478E+02  0.11489181619E+02  0.96298417381E+02  0.91921729451E+02 0.  0.
         11    1    3    3    0    0  0.20737611938E+02  0.27409661909E+02  0.14191237059E+02  0.37185068567E+02  0.51100000000E-03 0. -1.
         22    1    1    0    0    0  0.23619423643E+02  0.11571619478E+02 -0.11489181619E+02  0.28701582619E+02  0.00000000000E+00 0.  1.
</event>
<event>
 5    1  0.8952932E-005  0.9118800E+02  0.7818608E-02  0.1130116E+00
         25   -1    0    0    0    0  0.00000000000E+00  0.00000000000E+00  0.99999998245E-14  0.12500000000E+03  0.12500000000E+03 0.  0.
        -11    1    3    3    0    0  0.51966172198E+02 -0.14104682576E+02 -0.23112111408E+02  0.58596884025E+02  0.51100000000E-03 0.  1.
         23    2    1    0    0    0  0.14477357083E+02  0.60911495689E+01 -0.17397654866E+02  0.10156126356E+03  0.98819612878E+02 0.  0.
         11    1    3    3    0    0 -0.37488815115E+02  0.20195832145E+02  0.57144565416E+01  0.42964379532E+02  0.51100000000E-03 0. -1.
         22    1    1    0    0    0 -0.14477357083E+02 -0.60911495689E+01  0.17397654866E+02  0.23438736443E+02  0.00000000000E+00 0.  1.
</event>
<event>
 5    1  0.8952932E-005  0.9118800E+02  0.7818608E-02  0.1130116E+00
         25   -1    0    0    0    0  0.00000000000E+00  0.00000000000E+00  0.99999998245E-14  0.12500000000E+03  0.12500000000E+03 0.  0.
        -11    1    3    3    0    0  0.60560516959E+02  0.11931545497E+02  0.25658689995E+01  0.61778003175E+02  0.51100000000E-03 0.  1.
         23    2    1    0    0    0  0.30159851939E+02 -0.37028780960E+00 -0.13583200643E+01  0.94807305264E+02  0.89871165097E+02 0.  0.
         11    1    3    3    0    0 -0.30400665020E+02 -0.12301833307E+02 -0.39241890638E+01  0.33029302089E+02  0.51100000000E-03 0. -1.
         22    1    1    0    0    0 -0.30159851939E+02  0.37028780960E+00  0.13583200643E+01  0.30192694736E+02  0.00000000000E+00 0.  1.
</event>
<event>
 5    1  0.8952932E-005  0.9118800E+02  0.7818608E-02  0.1130116E+00
         25   -1    0    0    0    0  0.00000000000E+00  0.00000000000E+00  0.99999998245E-14  0.12500000000E+03  0.12500000000E+03 0.  0.
        -11    1    3    3    0    0 -0.22127577858E+02  0.47618646318E+02  0.69043932908E+01  0.52960700769E+02  0.51100000000E-03 0. -1.
         23    2    1    0    0    0 -0.24884404155E+02  0.10564083356E+02 -0.12877785777E+02  0.95055538177E+02  0.90215766606E+02 0.  0.
         11    1    3    3    0    0 -0.27568262976E+01 -0.37054562961E+02 -0.19782179068E+02  0.42094837408E+02  0.51100000000E-03 0.  1.
         22    1    1    0    0    0  0.24884404155E+02 -0.10564083356E+02  0.12877785777E+02  0.29944461823E+02  0.00000000000E+00 0. -1.
</event>
<event>
 5    1  0.8952932E-005  0.9118800E+02  0.7818608E-02  0.1130116E+00
         25   -1    0    0    0    0  0.00000000000E+00  0.00000000000E+00  0.99999998245E-14  0.12500000000E+03  0.12500000000E+03 0.  0.
        -11    1    3    3    0    0 -0.28265359941E+02 -0.64897177176E+01  0.17526099062E+02  0.33885264603E+02  0.51100000000E-03 0.  1.
         23    2    1    0    0    0  0.20098110072E+02 -0.24437265861E+02 -0.92884603601E+01  0.92024410739E+02  0.85913344043E+02 0.  0.
         11    1    3    3    0    0  0.48363470013E+02 -0.17947548144E+02 -0.26814559423E+02  0.58139146135E+02  0.51100000000E-03 0. -1.
         22    1    1    0    0    0 -0.20098110072E+02  0.24437265861E+02  0.92884603601E+01  0.32975589261E+02  0.00000000000E+00 0. -1.
</event>
<event>
 5    1  0.8952932E-005  0.9118800E+02  0.7818608E-02  0.1130116E+00
         25   -1    0    0    0    0  0.00000000000E+00  0.00000000000E+00  0.99999998245E-14  0.12500000000E+03  0.12500000000E+03 0.  0.
        -11    1    3    3    0    0  0.35186371162E+02 -0.41120662522E+02  0.14313441688E+02  0.55980927243E+02  0.51100000000E-03 0.  1.
         23    2    1    0    0    0  0.18126212279E+01 -0.20483910709E+02  0.20798331180E+02  0.95751978297E+02  0.91175624891E+02 0.  0.
         11    1    3    3    0    0 -0.33373749934E+02  0.20636751813E+02  0.64848894917E+01  0.39771051055E+02  0.51100000000E-03 0. -1.
         22    1    1    0    0    0 -0.18126212279E+01  0.20483910709E+02 -0.20798331180E+02  0.29248021703E+02  0.00000000000E+00 0.  1.
</event>
<event>
 5    1  0.8952932E-005  0.9118800E+02  0.7818608E-02  0.1130116E+00
         25   -1    0    0    0    0  0.00000000000E+00  0.00000000000E+00  0.99999998245E-14  0.12500000000E+03  0.12500000000E+03 0.  0.
        -11    1    3    3    0    0 -0.19484565684E+02  0.68616761492E-01  0.37552545962E+02  0.42306580063E+02  0.51100000000E-03 0.  1.
         23    2    1    0    0    0  0.72556841985E+01  0.30610135931E+02  0.79345305015E+01  0.92556477546E+02  0.86684020365E+02 0.  0.
         11    1    3    3    0    0  0.26740249882E+02  0.30541519170E+02 -0.29618015461E+02  0.50249897483E+02  0.51100000000E-03 0. -1.
         22    1    1    0    0    0 -0.72556841985E+01 -0.30610135931E+02 -0.79345305015E+01  0.32443522454E+02  0.00000000000E+00 0.  1.
</event>
<event>
 5    1  0.8952932E-005  0.9118800E+02  0.7818608E-02  0.1130116E+00
         25   -1    0    0    0    0  0.00000000000E+00  0.00000000000E+00  0.99999998245E-14  0.12500000000E+03  0.12500000000E+03 0.  0.
        -11    1    3    3    0    0 -0.25133970524E+02  0.24060729407E+02  0.16738747244E+02  0.38611149082E+02  0.51100000000E-03 0. -1.
         23    2    1    0    0    0  0.12284933935E+01 -0.24430677093E+02  0.19264980770E+02  0.93863098046E+02  0.88548147984E+02 0.  0.
         11    1    3    3    0    0  0.26362463917E+02 -0.48491406500E+02  0.25262335263E+01  0.55251948963E+02  0.51100000000E-03 0.  1.
         22    1    1    0    0    0 -0.12284933935E+01  0.24430677093E+02 -0.19264980770E+02  0.31136901954E+02  0.00000000000E+00 0.  1.
</event>
<event>
 5    1  0.8952932E-005  0.9118800E+02  0.7818608E-02  0.1130116E+00
         25   -1    0    0    0    0  0.00000000000E+00  0.00000000000E+00  0.99999998245E-14  0.12500000000E+03  0.12500000000E+03 0.  0.
        -11    1    3    3    0    0 -0.38402064167E+02  0.35660739502E+02  0.14568918404E+02  0.54393568167E+02  0.51100000000E-03 0.  1.
         23    2    1    0    0    0 -0.69295591136E+00  0.30984323986E+02  0.46866555665E+01  0.93655570492E+02  0.88254703121E+02 0.  0.
         11    1    3    3    0    0  0.37709108256E+02 -0.46764155159E+01 -0.98822628378E+01  0.39262002325E+02  0.51100000000E-03 0. -1.
         22    1    1    0    0    0  0.69295591136E+00 -0.30984323986E+02 -0.46866555665E+01  0.31344429508E+02  0.00000000000E+00 0.  1.
</event>
<event>
 5    1  0.8952932E-005  0.9118800E+02  0.7818608E-02  0.1130116E+00
         25   -1    0    0    0    0  0.00000000000E+00  0.00000000000E+00  0.99999998245E-14  0.12500000000E+03  0.12500000000E+03 0.  0.
        -11    1    3    3    0    0 -0.23641942348E+01  0.45867499569E+02  0.35556920851E+02  0.58083659937E+02  0.51100000000E-03 0. -1.
         23    2    1    0    0    0 -0.74361760297E+01  0.82828368602E+01  0.25281755801E+02  0.97376291401E+02  0.93375975765E+02 0.  0.
         11    1    3    3    0    0 -0.50719817949E+01 -0.37584662709E+02 -0.10275165049E+02  0.39292631463E+02  0.51100000000E-03 0.  1.
         22    1    1    0    0    0  0.74361760297E+01 -0.82828368602E+01 -0.25281755801E+02  0.27623708599E+02  0.00000000000E+00 0. -1.
</event>
<event>
 5    1  0.8952932E-005  0.9118800E+02  0.7818608E-02  0.1130116E+00
         25   -1    0    0    0    0  0.00000000000E+00  0.00000000000E+00  0.99999998245E-14  0.12500000000E+03  0.12500000000E+03 0.  0.
        -11    1    3    3    0    0  0.96589737215E+01 -0.11953222446E+02 -0.58260995976E+02  0.60253787869E+02  0.51100000000E-03 0.  1.
         23    2    1    0    0    0 -0.55027694204E+01 -0.58991046170E+00 -0.31346333480E+02  0.93168866054E+02  0.87562643367E+02 0.  0.
         11    1    3    3    0    0 -0.15161743142E+02  0.11363311984E+02  0.26914662496E+02  0.32915078184E+02  0.51100000000E-03 0. -1.
         22    1    1    0    0    0  0.55027694204E+01  0.58991046170E+00  0.31346333480E+02  0.31831133946E+02  0.00000000000E+00 0.  1.
</event>
<event>
 5    1  0.8952932E-005  0.9118800E+02  0.7818608E-02  0.1130116E+00
         25   -1    0    0    0    0  0.00000000000E+00  0.00000000000E+00  0.99999998245E-14  0.12500000000E+03  0.12500000000E+03 0.  0.
        -11    1    3    3    0    0 -0.41913416847E+01 -0.55273998750E+02 -0.10435919109E+02  0.56406477384E+02  0.51100000000E-03 0.  1.
         23    2    1    0    0    0 -0.68345023853E+01 -0.18541761656E+02 -0.22400768639E+02  0.95128579147E+02  0.90316913072E+02 0.  0.
         11    1    3    3    0    0 -0.26431607006E+01  0.36732237094E+02 -0.11964849529E+02  0.38722101763E+02  0.51100000000E-03 0. -1.
         22    1    1    0    0    0  0.68345023853E+01  0.18541761656E+02  0.22400768639E+02  0.29871420853E+02  0.00000000000E+00 0.  1.
</event>
<event>
 5    1  0.8952932E-005  0.9118800E+02  0.7818608E-02  0.1130116E+00
         25   -1    0    0    0    0  0.00000000000E+00  0.00000000000E+00  0.99999998245E-14  0.12500000000E+03  0.12500000000E+03 0.  0.
        -11    1    3    3    0    0  0.24465401942E+02  0.12234383729E+02  0.21732052258E+02  0.34935914658E+02  0.51100000000E-03 0.  1.
         23    2    1    0    0    0 -0.15780404512E+02 -0.24795284566E+02 -0.39314032650E+01  0.95347289586E+02  0.90619106134E+02 0.  0.
         11    1    3    3    0    0 -0.40245806454E+02 -0.37029668294E+02 -0.25663455523E+02  0.60411374928E+02  0.51100000000E-03 0. -1.
         22    1    1    0    0    0  0.15780404512E+02  0.24795284566E+02  0.39314032650E+01  0.29652710414E+02  0.00000000000E+00 0. -1.
</event>
<event>
 5    1  0.8952932E-005  0.9118800E+02  0.7818608E-02  0.1130116E+00
         25   -1    0    0    0    0  0.00000000000E+00  0.00000000000E+00  0.99999998245E-14  0.12500000000E+03  0.12500000000E+03 0.  0.
        -11    1    3    3    0    0 -0.16191775970E+02  0.17358809118E+02 -0.56540487706E+02  0.61321518355E+02  0.51100000000E-03 0.  1.
         23    2    1    0    0    0 -0.37963545798E+01  0.15154693047E+02 -0.22566247324E+02  0.97553460186E+02  0.93612846590E+02 0.  0.
         11    1    3    3    0    0  0.12395421390E+02 -0.22041160702E+01  0.33974240382E+02  0.36231941832E+02  0.51100000000E-03 0. -1.
         22    1    1    0    0    0  0.37963545798E+01 -0.15154693047E+02  0.22566247324E+02  0.27446539814E+02  0.00000000000E+00 0.  1.
</event>
<event>
 5    1  0.8952932E-005  0.9118800E+02  0.7818608E-02  0.1130116E+00
         25   -1    0    0    0    0  0.00000000000E+00  0.00000000000E+00  0.99999998245E-14  0.12500000000E+03  0.12500000000E+03 0.  0.
        -11    1    3    3    0    0  0.34165747090E+02 -0.15111604903E+02  0.21549925561E+02  0.43128391680E+02  0.51100000000E-03 0. -1.
         23    2    1    0    0    0 -0.48921548930E+01  0.19450037325E+02  0.21927725215E+02  0.95283636418E+02  0.90531260372E+02 0.  0.
         11    1    3    3    0    0 -0.39057901983E+02  0.34561642228E+02  0.37779965373E+00  0.52155244738E+02  0.51100000000E-03 0.  1.
         22    1    1    0    0    0  0.48921548930E+01 -0.19450037325E+02 -0.21927725215E+02  0.29716363582E+02  0.00000000000E+00 0.  1.
</event>
<event>
 5    1  0.8952932E-005  0.9118800E+02  0.7818608E-02  0.1130116E+00
         25   -1    0    0    0    0  0.00000000000E+00  0.00000000000E+00  0.99999998245E-14  0.12500000000E+03  0.12500000000E+03 0.  0.
        -11    1    3    3    0    0  0.13423588839E+01  0.30976290883E+02 -0.15808200879E+02  0.34802754769E+02  0.51100000000E-03 0.  1.
         23    2    1    0    0    0  0.40000773130E+02  0.30292117755E+01 -0.13905280100E+02  0.82543024253E+02  0.70786694111E+02 0.  0.
         11    1    3    3    0    0  0.38658414246E+02 -0.27947079107E+02  0.19029207789E+01  0.47740269484E+02  0.51100000000E-03 0. -1.
         22    1    1    0    0    0 -0.40000773130E+02 -0.30292117755E+01  0.13905280100E+02  0.42456975747E+02  0.00000000000E+00 0. -1.
</event>
<event>
 5    1  0.8952932E-005  0.9118800E+02  0.7818608E-02  0.1130116E+00
         25   -1    0    0    0    0  0.00000000000E+00  0.00000000000E+00  0.99999998245E-14  0.12500000000E+03  0.12500000000E+03 0.  0.
        -11    1    3    3    0    0  0.16497836061E+02 -0.37424506859E+02  0.10368033548E+02  0.42193227280E+02  0.51100000000E-03 0. -1.
         23    2    1    0    0    0 -0.15395343505E+02 -0.83674397744E+01 -0.22536099568E+02  0.96453433941E+02  0.92132287962E+02 0.  0.
         11    1    3    3    0    0 -0.31893179566E+02  0.29057067085E+02 -0.32904133117E+02  0.54260206661E+02  0.51100000000E-03 0.  1.
         22    1    1    0    0    0  0.15395343505E+02  0.83674397744E+01  0.22536099568E+02  0.28546566059E+02  0.00000000000E+00 0.  1.
</event>
<event>
 5    1  0.8952932E-005  0.9118800E+02  0.7818608E-02  0.1130116E+00
         25   -1    0    0    0    0  0.00000000000E+00  0.00000000000E+00  0.99999998245E-14  0.12500000000E+03  0.12500000000E+03 0.  0.
        -11    1    3    3    0    0 -0.54374507664E+02  0.13901455936E+02 -0.65938943594E+01  0.56509441724E+02  0.51100000000E-03 0. -1.
         23    2    1    0    0    0 -0.12659042198E+02  0.18476161033E+02 -0.13216454089E+02  0.98994336491E+02  0.95517454545E+02 0.  0.
         11    1    3    3    0    0  0.41715465466E+02  0.45747050963E+01 -0.66225597292E+01  0.42484894767E+02  0.51100000000E-03 0.  1.
         22    1    1    0    0    0  0.12659042198E+02 -0.18476161033E+02  0.13216454089E+02  0.26005663509E+02  0.00000000000E+00 0. -1.
</event>
<event>
 5    1  0.8952932E-005  0.9118800E+02  0.7818608E-02  0.1130116E+00
         25   -1    0    0    0    0  0.00000000000E+00  0.00000000000E+00  0.99999998245E-14  0.12500000000E+03  0.12500000000E+03 0.  0.
        -11    1    3    3    0    0 -0.31256020066E+00 -0.40531357009E+02  0.37018779583E+02  0.54893338730E+02  0.51100000000E-03 0. -1.
         23    2    1    0    0    0 -0.11653453548E+01 -0.84168591105E+00  0.29704967999E+02  0.95260269188E+02  0.90498990585E+02 0.  0.
         11    1    3    3    0    0 -0.85278515412E+00  0.39689671098E+02 -0.73138115843E+01  0.40366930457E+02  0.51100000000E-03 0.  1.
         22    1    1    0    0    0  0.11653453548E+01  0.84168591105E+00 -0.29704967999E+02  0.29739730812E+02  0.00000000000E+00 0. -1.
</event>
<event>
 5    1  0.8952932E-005  0.9118800E+02  0.7818608E-02  0.1130116E+00
         25   -1    0    0    0    0  0.00000000000E+00  0.00000000000E+00  0.99999998245E-14  0.12500000000E+03  0.12500000000E+03 0.  0.
        -11    1    3    3    0    0 -0.15944055354E+02 -0.59947660994E+01 -0.31123268932E+02  0.35479684201E+02  0.51100000000E-03 0.  1.
         23    2    1    0    0    0  0.21279040525E+01  0.25944348912E+02  0.15415464116E+02  0.94746508465E+02  0.89786564231E+02 0.  0.
         11    1    3    3    0    0  0.18071959407E+02  0.31939115012E+02  0.46538733047E+02  0.59266824265E+02  0.51100000000E-03 0. -1.
         22    1    1    0    0    0 -0.21279040525E+01 -0.25944348912E+02 -0.15415464116E+02  0.30253491535E+02  0.00000000000E+00 0. -1.
</event>
<event>
 5    1  0.8952932E-005  0.9118800E+02  0.7818608E-02  0.1130116E+00
         25   -1    0    0    0    0  0.00000000000E+00  0.00000000000E+00  0.99999998245E-14  0.12500000000E+03  0.12500000000E+03 0.  0.
        -11    1    3    3    0    0 -0.34646790361E+02  0.19591410889E+02 -0.72712143631E+00  0.39808945839E+02  0.51100000000E-03 0.  1.
         23    2    1    0    0    0  0.50938297760E+01 -0.83865507467E+01  0.27353920938E+02  0.95939402520E+02  0.91432218774E+02 0.  0.
         11    1    3    3    0    0  0.39740620137E+02 -0.27977961635E+02  0.28081042374E+02  0.56130456681E+02  0.51100000000E-03 0. -1.
         22    1    1    0    0    0 -0.50938297760E+01  0.83865507467E+01 -0.27353920938E+02  0.29060597480E+02  0.00000000000E+00 0. -1.
</event>
<event>
 5    1  0.8952932E-005  0.9118800E+02  0.7818608E-02  0.1130116E+00
         25   -1    0    0    0    0  0.00000000000E+00  0.00000000000E+00  0.99999998245E-14  0.12500000000E+03  0.12500000000E+03 0.  0.
        -11    1    3    3    0    0  0.25524535070E+02  0.37373415703E+01 -0.11024530034E+02  0.28053696286E+02  0.51100000000E-03 0.  1.
         23    2    1    0    0    0  0.63811912376E+01  0.31662427118E+02  0.29774528888E+02  0.81071063488E+02  0.68137844639E+02 0.  0.
         11    1    3    3    0    0 -0.19143343833E+02  0.27925085547E+02  0.40799058921E+02  0.53017367202E+02  0.51100000000E-03 0. -1.
         22    1    1    0    0    0 -0.63811912376E+01 -0.31662427118E+02 -0.29774528888E+02  0.43928936512E+02  0.00000000000E+00 0. -1.
</event>
<event>
 5    1  0.8952932E-005  0.9118800E+02  0.7818608E-02  0.1130116E+00
         25   -1    0    0    0    0  0.00000000000E+00  0.00000000000E+00  0.99999998245E-14  0.12500000000E+03  0.12500000000E+03 0.  0.
        -11    1    3    3    0    0 -0.46929991806E+02  0.30428691168E+02  0.11143774007E+02  0.57030808134E+02  0.51100000000E-03 0.  1.
         23    2    1    0    0    0 -0.19643488085E+02  0.29317201800E+02 -0.58976564246E+01  0.89220853883E+02  0.81732572887E+02 0.  0.
         11    1    3    3    0    0  0.27286503720E+02 -0.11114893680E+01 -0.17041430431E+02  0.32190045749E+02  0.51100000000E-03 0. -1.
         22    1    1    0    0    0  0.19643488085E+02 -0.29317201800E+02  0.58976564246E+01  0.35779146117E+02  0.00000000000E+00 0.  1.
</event>
<event>
 5    1  0.8952932E-005  0.9118800E+02  0.7818608E-02  0.1130116E+00
         25   -1    0    0    0    0  0.00000000000E+00  0.00000000000E+00  0.99999998245E-14  0.12500000000E+03  0.12500000000E+03 0.  0.
        -11    1    3    3    0    0 -0.53382600412E+00  0.13965566572E+02  0.58992304943E+02  0.60625193300E+02  0.51100000000E-03 0.  1.
         23    2    1    0    0    0 -0.47877847740E+01 -0.29352385879E+01  0.30208036237E+02  0.94274376135E+02  0.89126842386E+02 0.  0.
         11    1    3    3    0    0 -0.42539587698E+01 -0.16900805160E+02 -0.28784268706E+02  0.33649182835E+02  0.51100000000E-03 0. -1.
         22    1    1    0    0    0  0.47877847740E+01  0.29352385879E+01 -0.30208036237E+02  0.30725623865E+02  0.00000000000E+00 0.  1.
</event>
<event>
 5    1  0.8952932E-005  0.9118800E+02  0.7818608E-02  0.1130116E+00
         25   -1    0    0    0    0  0.00000000000E+00  0.00000000000E+00  0.99999998245E-14  0.12500000000E+03  0.12500000000E+03 0.  0.
        -11    1    3    3    0    0 -0.51033620276E+02  0.23166301033E+02 -0.16934254229E+02  0.58548073141E+02  0.51100000000E-03 0.  1.
         23    2    1    0    0    0 -0.21221676665E+02  0.15966244980E+02 -0.23066361310E+02  0.89824190652E+02  0.82650152226E+02 0.  0.
         11    1    3    3    0    0  0.29811943611E+02 -0.72000560531E+01 -0.61321070810E+01  0.31276117511E+02  0.51100000000E-03 0. -1.
         22    1    1    0    0    0  0.21221676665E+02 -0.15966244980E+02  0.23066361310E+02  0.35175809348E+02  0.00000000000E+00 0.  1.
</event>
<event>
 5    1  0.8952932E-005  0.9118800E+02  0.7818608E-02  0.1130116E+00
         25   -1    0    0    0    0  0.00000000000E+00  0.00000000000E+00  0.99999998245E-14  0.12500000000E+03  0.12500000000E+03 0.  0.
        -11    1    3    3    0    0 -0.41084413673E+01 -0.30762921193E+02 -0.21711090470E+00  0.31036812791E+02  0.51100000000E-03 0.  1.
         23    2    1    0    0    0  0.21011780018E+02  0.23816467433E+02 -0.95383258781E+01  0.91838294961E+02  0.85642125968E+02 0.  0.
         11    1    3    3    0    0  0.25120221385E+02  0.54579388626E+02 -0.93212149734E+01  0.60801482170E+02  0.51100000000E-03 0. -1.
         22    1    1    0    0    0 -0.21011780018E+02 -0.23816467433E+02  0.95383258781E+01  0.33161705039E+02  0.00000000000E+00 0. -1.
</event>
<event>
 5    1  0.8952932E-005  0.9118800E+02  0.7818608E-02  0.1130116E+00
         25   -1    0    0    0    0  0.00000000000E+00  0.00000000000E+00  0.99999998245E-14  0.12500000000E+03  0.12500000000E+03 0.  0.
        -11    1    3    3    0    0 -0.89197389244E+01  0.16813832839E+02  0.33271954498E+02  0.38331314530E+02  0.51100000000E-03 0. -1.
         23    2    1    0    0    0  0.19034538516E+02 -0.23388789539E+02  0.64496320680E+01  0.94162573285E+02  0.88969901209E+02 0.  0.
         11    1    3    3    0    0  0.27954277440E+02 -0.40202622378E+02 -0.26822322430E+02  0.55831258754E+02  0.51100000000E-03 0.  1.
         22    1    1    0    0    0 -0.19034538516E+02  0.23388789539E+02 -0.64496320680E+01  0.30837426715E+02  0.00000000000E+00 0. -1.
</event>
<event>
 5    1  0.8952932E-005  0.9118800E+02  0.7818608E-02  0.1130116E+00
         25   -1    0    0    0    0  0.00000000000E+00  0.00000000000E+00  0.99999998245E-14  0.12500000000E+03  0.12500000000E+03 0.  0.
        -11    1    3    3    0    0 -0.14977481274E+02 -0.77606088871E+01  0.39363681831E+02  0.42825826825E+02  0.51100000000E-03 0. -1.
         23    2    1    0    0    0 -0.51040873553E+01 -0.77453038731E+01 -0.19972891278E+02  0.10297824199E+03  0.10059602625E+03 0.  0.
         11    1    3    3    0    0  0.98733939187E+01  0.15305014042E-01 -0.59336573109E+02  0.60152415166E+02  0.51100000000E-03 0.  1.
         22    1    1    0    0    0  0.51040873553E+01  0.77453038731E+01  0.19972891278E+02  0.22021758009E+02  0.00000000000E+00 0.  1.
</event>
<event>
 5    1  0.8952932E-005  0.9118800E+02  0.7818608E-02  0.1130116E+00
         25   -1    0    0    0    0  0.00000000000E+00  0.00000000000E+00  0.99999998245E-14  0.12500000000E+03  0.12500000000E+03 0.  0.
        -11    1    3    3    0    0 -0.95816363206E+01 -0.31143898589E+02 -0.13505930594E+02  0.35272657050E+02  0.51100000000E-03 0.  1.
         23    2    1    0    0    0 -0.17667825575E+01 -0.10596551581E+01  0.33396713088E+02  0.91539802231E+02  0.85205343481E+02 0.  0.
         11    1    3    3    0    0  0.78148537631E+01  0.30084243431E+02  0.46902643682E+02  0.56267145181E+02  0.51100000000E-03 0. -1.
         22    1    1    0    0    0  0.17667825575E+01  0.10596551581E+01 -0.33396713088E+02  0.33460197769E+02  0.00000000000E+00 0. -1.
</event>
<event>
 5    1  0.8952932E-005  0.9118800E+02  0.7818608E-02  0.1130116E+00
         25   -1    0    0    0    0  0.00000000000E+00  0.00000000000E+00  0.99999998245E-14  0.12500000000E+03  0.12500000000E+03 0.  0.
        -11    1    3    3    0    0 -0.46158071903E+02 -0.36657927607E+01  0.22146542002E+02  0.51327136695E+02  0.51100000000E-03 0.  1.
         23    2    1    0    0    0 -0.24949288867E+02  0.95487711888E+01 -0.13663785332E+02  0.94994249288E+02  0.90130806732E+02 0.  0.
         11    1    3    3    0    0  0.21208783036E+02  0.13214563950E+02 -0.35810327334E+02  0.43667112594E+02  0.51100000000E-03 0. -1.
         22    1    1    0    0    0  0.24949288867E+02 -0.95487711888E+01  0.13663785332E+02  0.30005750712E+02  0.00000000000E+00 0.  1.
</event>
<event>
 5    1  0.8952932E-005  0.9118800E+02  0.7818608E-02  0.1130116E+00
         25   -1    0    0    0    0  0.00000000000E+00  0.00000000000E+00  0.99999998245E-14  0.12500000000E+03  0.12500000000E+03 0.  0.
        -11    1    3    3    0    0  0.37407370126E+01  0.12878292112E+02  0.18541211502E+02  0.22882745581E+02  0.51100000000E-03 0.  1.
         23    2    1    0    0    0 -0.20525707396E+02 -0.38425950184E+02  0.10332338460E+02  0.80227066997E+02  0.66571516051E+02 0.  0.
         11    1    3    3    0    0 -0.24266444408E+02 -0.51304242296E+02 -0.82088730425E+01  0.57344321416E+02  0.51100000000E-03 0. -1.
         22    1    1    0    0    0  0.20525707396E+02  0.38425950184E+02 -0.10332338460E+02  0.44772933003E+02  0.00000000000E+00 0. -1.
</event>
<event>
 5    1  0.8952932E-005  0.9118800E+02  0.7818608E-02  0.1130116E+00
         25   -1    0    0    0    0  0.00000000000E+00  0.00000000000E+00  0.99999998245E-14  0.12500000000E+03  0.12500000000E+03 0.  0.
        -11    1    3    3    0    0  0.40145032987E+02 -0.19844212474E+02 -0.80516075532E+01  0.45499943151E+02  0.51100000000E-03 0.  1.
         23    2    1    0    0    0 -0.66646861983E+01 -0.29071992411E+02 -0.10772540372E+02  0.93288071472E+02  0.87732649954E+02 0.  0.
         11    1    3    3    0    0 -0.46809719186E+02 -0.92277799377E+01 -0.27209328192E+01  0.47788128322E+02  0.51100000000E-03 0. -1.
         22    1    1    0    0    0  0.66646861983E+01  0.29071992411E+02  0.10772540372E+02  0.31711928528E+02  0.00000000000E+00 0. -1.
</event>
<event>
 5    1  0.8952932E-005  0.9118800E+02  0.7818608E-02  0.1130116E+00
         25   -1    0    0    0    0  0.00000000000E+00  0.00000000000E+00  0.99999998245E-14  0.12500000000E+03  0.12500000000E+03 0.  0.
        -11    1    3    3    0    0 -0.90784328152E+01  0.40345141875E+02 -0.12423988854E+02  0.43179901744E+02  0.51100000000E-03 0. -1.
         23    2    1    0    0    0  0.28513908052E+02  0.63119605617E+01  0.14718630612E+01  0.95758758929E+02  0.91184920531E+02 0.  0.
         11    1    3    3    0    0  0.37592340867E+02 -0.34033181313E+02  0.13895851915E+02  0.52578857185E+02  0.51100000000E-03 0.  1.
         22    1    1    0    0    0 -0.28513908052E+02 -0.63119605617E+01 -0.14718630612E+01  0.29241241071E+02  0.00000000000E+00 0.  1.
</event>
<event>
 5    1  0.8952932E-005  0.9118800E+02  0.7818608E-02  0.1130116E+00
         25   -1    0    0    0    0  0.00000000000E+00  0.00000000000E+00  0.99999998245E-14  0.12500000000E+03  0.12500000000E+03 0.  0.
        -11    1    3    3    0    0 -0.94257733519E+01  0.36526432776E+02  0.23581566034E+02  0.44487253809E+02  0.51100000000E-03 0. -1.
         23    2    1    0    0    0 -0.21050280430E+02 -0.13768245770E+02  0.10526307383E+02  0.97733132837E+02  0.93852454466E+02 0.  0.
         11    1    3    3    0    0 -0.11624507078E+02 -0.50294678545E+02 -0.13055258652E+02  0.53245879028E+02  0.51100000000E-03 0.  1.
         22    1    1    0    0    0  0.21050280430E+02  0.13768245770E+02 -0.10526307383E+02  0.27266867163E+02  0.00000000000E+00 0. -1.
</event>
<event>
 5    1  0.8952932E-005  0.9118800E+02  0.7818608E-02  0.1130116E+00
         25   -1    0    0    0    0  0.00000000000E+00  0.00000000000E+00  0.99999998245E-14  0.12500000000E+03  0.12500000000E+03 0.  0.
        -11    1    3    3    0    0  0.36810536835E+02 -0.48803461043E+02 -0.80040019229E+01  0.61651094709E+02  0.51100000000E-03 0.  1.
         23    2    1    0    0    0  0.22081149871E+02 -0.23522790922E+02  0.22603970611E+01  0.92657948932E+02  0.86830220736E+02 0.  0.
         11    1    3    3    0    0 -0.14729386964E+02  0.25280670120E+02  0.10264398984E+02  0.31006854223E+02  0.51100000000E-03 0. -1.
         22    1    1    0    0    0 -0.22081149871E+02  0.23522790922E+02 -0.22603970611E+01  0.32342051068E+02  0.00000000000E+00 0.  1.
</event>
<event>
 5    1  0.8952932E-005  0.9118800E+02  0.7818608E-02  0.1130116E+00
         25   -1    0    0    0    0  0.00000000000E+00  0.00000000000E+00  0.99999998245E-14  0.12500000000E+03  0.12500000000E+03 0.  0.
        -11    1    3    3    0    0 -0.51703667809E+02  0.93677514093E+01 -0.17710676384E+02  0.55449906128E+02  0.51100000000E-03 0.  1.
         23    2    1    0    0    0 -0.26208129734E+02 -0.16355330560E+02 -0.58638060577E+01  0.93555650375E+02  0.88113067100E+02 0.  0.
         11    1    3    3    0    0  0.25495538076E+02 -0.25723081970E+02  0.11846870326E+02  0.38105744246E+02  0.51100000000E-03 0. -1.
         22    1    1    0    0    0  0.26208129734E+02  0.16355330560E+02  0.58638060577E+01  0.31444349625E+02  0.00000000000E+00 0.  1.
</event>
<event>
 5    1  0.8952932E-005  0.9118800E+02  0.7818608E-02  0.1130116E+00
         25   -1    0    0    0    0  0.00000000000E+00  0.00000000000E+00  0.99999998245E-14  0.12500000000E+03  0.12500000000E+03 0.  0.
        -11    1    3    3    0    0 -0.16709004067E+02  0.31292884130E+02 -0.26769374493E+02  0.44441363898E+02  0.51100000000E-03 0.  1.
         23    2    1    0    0    0 -0.21258569869E+02  0.97423674246E+01  0.18761222873E+02  0.95019606413E+02  0.90165966990E+02 0.  0.
         11    1    3    3    0    0 -0.45495658023E+01 -0.21550516705E+02  0.45530597366E+02  0.50578242516E+02  0.51100000000E-03 0. -1.
         22    1    1    0    0    0  0.21258569869E+02 -0.97423674246E+01 -0.18761222873E+02  0.29980393587E+02  0.00000000000E+00 0. -1.
</event>
<event>
 5    1  0.8952932E-005  0.9118800E+02  0.7818608E-02  0.1130116E+00
         25   -1    0    0    0    0  0.00000000000E+00  0.00000000000E+00  0.99999998245E-14  0.12500000000E+03  0.12500000000E+03 0.  0.
        -11    1    3    3    0    0  0.19435854179E+02 -0.50552016532E+02  0.10136720334E+02  0.55100017264E+02  0.51100000000E-03 0.  1.
         23    2    1    0    0    0 -0.10024970984E+02 -0.22438315256E+02  0.15149482020E+02  0.96129862484E+02  0.91692233155E+02 0.  0.
         11    1    3    3    0    0 -0.29460825163E+02  0.28113701277E+02  0.50127616858E+01  0.41029845219E+02  0.51100000000E-03 0. -1.
         22    1    1    0    0    0  0.10024970984E+02  0.22438315256E+02 -0.15149482020E+02  0.28870137516E+02  0.00000000000E+00 0.  1.
</event>
<event>
 5    1  0.8952932E-005  0.9118800E+02  0.7818608E-02  0.1130116E+00
         25   -1    0    0    0    0  0.00000000000E+00  0.00000000000E+00  0.99999998245E-14  0.12500000000E+03  0.12500000000E+03 0.  0.
        -11    1    3    3    0    0  0.14095385291E+02 -0.35062766351E+02 -0.12516529814E+02  0.39808805428E+02  0.51100000000E-03 0.  1.
         23    2    1    0    0    0 -0.29120974983E+02 -0.42507399159E+01 -0.12854301150E+02  0.92885625775E+02  0.87157365975E+02 0.  0.
         11    1    3    3    0    0 -0.43216360275E+02  0.30812026436E+02 -0.33777133591E+00  0.53076820347E+02  0.51100000000E-03 0. -1.
         22    1    1    0    0    0  0.29120974983E+02  0.42507399159E+01  0.12854301150E+02  0.32114374225E+02  0.00000000000E+00 0. -1.
</event>
<event>
 5    1  0.8952932E-005  0.9118800E+02  0.7818608E-02  0.1130116E+00
         25   -1    0    0    0    0  0.00000000000E+00  0.00000000000E+00  0.99999998245E-14  0.12500000000E+03  0.12500000000E+03 0.  0.
        -11    1    3    3    0    0 -0.27742934985E+01 -0.50531568918E+02 -0.29554869165E+02  0.58605686186E+02  0.51100000000E-03 0. -1.
         23    2    1    0    0    0 -0.15115109231E+02 -0.15209602037E+02 -0.15358975455E+02  0.98623937970E+02  0.95031492109E+02 0.  0.
         11    1    3    3    0    0 -0.12340815733E+02  0.35321966881E+02  0.14195893709E+02  0.40018251783E+02  0.51100000000E-03 0.  1.
         22    1    1    0    0    0  0.15115109231E+02  0.15209602037E+02  0.15358975455E+02  0.26376062030E+02  0.00000000000E+00 0. -1.
</event>
<event>
 5    1  0.8952932E-005  0.9118800E+02  0.7818608E-02  0.1130116E+00
         25   -1    0    0    0    0  0.00000000000E+00  0.00000000000E+00  0.99999998245E-14  0.12500000000E+03  0.12500000000E+03 0.  0.
        -11    1    3    3    0    0  0.44697266444E+01  0.29397583324E+02  0.23151484604E+02  0.37685376490E+02  0.51100000000E-03 0. -1.
         23    2    1    0    0    0  0.28792651303E+02 -0.11885466544E+02 -0.52876992390E+01  0.93405050289E+02  0.87899161385E+02 0.  0.
         11    1    3    3    0    0  0.24322924659E+02 -0.41283049868E+02 -0.28439183843E+02  0.55719673799E+02  0.51100000000E-03 0.  1.
         22    1    1    0    0    0 -0.28792651303E+02  0.11885466544E+02  0.52876992390E+01  0.31594949711E+02  0.00000000000E+00 0.  1.
</event>
<event>
 5    1  0.8952932E-005  0.9118800E+02  0.7818608E-02  0.1130116E+00
         25   -1    0    0    0    0  0.00000000000E+00  0.00000000000E+00  0.99999998245E-14  0.12500000000E+03  0.12500000000E+03 0.  0.
        -11    1    3    3    0    0 -0.18278582121E+02  0.32412948200E+02  0.25478850113E+02  0.45098531891E+02  0.51100000000E-03 0.  1.
         23    2    1    0    0    0  0.61899697749E+01 -0.12834719380E+02  0.24629599328E+02  0.96545423735E+02  0.92257010214E+02 0.  0.
         11    1    3    3    0    0  0.24468551896E+02 -0.45247667579E+02 -0.84925078511E+00  0.51446891844E+02  0.51100000000E-03 0. -1.
         22    1    1    0    0    0 -0.61899697749E+01  0.12834719380E+02 -0.24629599328E+02  0.28454576265E+02  0.00000000000E+00 0.  1.
</event>
<event>
 5    1  0.8952932E-005  0.9118800E+02  0.7818608E-02  0.1130116E+00
         25   -1    0    0    0    0  0.00000000000E+00  0.00000000000E+00  0.99999998245E-14  0.12500000000E+03  0.12500000000E+03 0.  0.
        -11    1    3    3    0    0 -0.23983159685E+02 -0.22785857556E+02  0.37562769678E+02  0.50053460611E+02  0.51100000000E-03 0.  1.
         23    2    1    0    0    0  0.17011293280E+02 -0.98438036590E+01  0.21305431594E+02  0.96013693148E+02  0.91533727592E+02 0.  0.
         11    1    3    3    0    0  0.40994452965E+02  0.12942053897E+02 -0.16257338084E+02  0.45960232536E+02  0.51100000000E-03 0. -1.
         22    1    1    0    0    0 -0.17011293280E+02  0.98438036590E+01 -0.21305431594E+02  0.28986306852E+02  0.00000000000E+00 0. -1.
</event>
<event>
 5    1  0.8952932E-005  0.9118800E+02  0.7818608E-02  0.1130116E+00
         25   -1    0    0    0    0  0.00000000000E+00  0.00000000000E+00  0.99999998245E-14  0.12500000000E+03  0.12500000000E+03 0.  0.
        -11    1    3    3    0    0 -0.50484569169E+01 -0.41260992897E+02 -0.91471664684E+01  0.42563213069E+02  0.51100000000E-03 0. -1.
         23    2    1    0    0    0 -0.25785385377E+02  0.74790110429E+00  0.14886404397E+02  0.95216607128E+02  0.90438663093E+02 0.  0.
         11    1    3    3    0    0 -0.20736928460E+02  0.42008894001E+02  0.24033570865E+02  0.52653394059E+02  0.51100000000E-03 0.  1.
         22    1    1    0    0    0  0.25785385377E+02 -0.74790110429E+00 -0.14886404397E+02  0.29783392872E+02  0.00000000000E+00 0.  1.
</event>
<event>
 5    1  0.8952932E-005  0.9118800E+02  0.7818608E-02  0.1130116E+00
         25   -1    0    0    0    0  0.00000000000E+00  0.00000000000E+00  0.99999998245E-14  0.12500000000E+03  0.12500000000E+03 0.  0.
        -11    1    3    3    0    0  0.37287390777E+02 -0.96339362040E+00 -0.37170187130E+02  0.52658336945E+02  0.51100000000E-03 0. -1.
         23    2    1    0    0    0  0.25566019796E+02  0.11777195478E+02  0.32836191107E+01  0.96660877643E+02  0.92413307541E+02 0.  0.
         11    1    3    3    0    0 -0.11721370982E+02  0.12740589098E+02  0.40453806241E+02  0.44002540698E+02  0.51100000000E-03 0.  1.
         22    1    1    0    0    0 -0.25566019796E+02 -0.11777195478E+02 -0.32836191107E+01  0.28339122357E+02  0.00000000000E+00 0. -1.
</event>
<event>
 5    1  0.8952932E-005  0.9118800E+02  0.7818608E-02  0.1130116E+00
         25   -1    0    0    0    0  0.00000000000E+00  0.00000000000E+00  0.99999998245E-14  0.12500000000E+03  0.12500000000E+03 0.  0.
        -11    1    3    3    0    0 -0.42691982055E+02  0.10067160435E+02 -0.12390213052E+02  0.45579276329E+02  0.51100000000E-03 0. -1.
         23    2    1    0    0    0 -0.18674746105E+02  0.48093152891E+01  0.26884337168E+02  0.91914606839E+02  0.85753435557E+02 0.  0.
         11    1    3    3    0    0  0.24017235949E+02 -0.52578451460E+01  0.39274550220E+02  0.46335330510E+02  0.51100000000E-03 0.  1.
         22    1    1    0    0    0  0.18674746105E+02 -0.48093152891E+01 -0.26884337168E+02  0.33085393161E+02  0.00000000000E+00 0. -1.
</event>
<event>
 5    1  0.8952932E-005  0.9118800E+02  0.7818608E-02  0.1130116E+00
         25   -1    0    0    0    0  0.00000000000E+00  0.00000000000E+00  0.99999998245E-14  0.12500000000E+03  0.12500000000E+03 0.  0.
        -11    1    3    3    0    0 -0.53150131954E+01 -0.24349020702E+01  0.43496336893E+02  0.43887463321E+02  0.51100000000E-03 0.  1.
         23    2    1    0    0    0  0.97946889058E+01 -0.28061906011E+02  0.16486228010E+01  0.95232157336E+02  0.90460153294E+02 0.  0.
         11    1    3    3    0    0  0.15109702101E+02 -0.25627003941E+02 -0.41847714092E+02  0.51344694015E+02  0.51100000000E-03 0. -1.
         22    1    1    0    0    0 -0.97946889058E+01  0.28061906011E+02 -0.16486228010E+01  0.29767842664E+02  0.00000000000E+00 0.  1.
</event>
<event>
 5    1  0.8952932E-005  0.9118800E+02  0.7818608E-02  0.1130116E+00
         25   -1    0    0    0    0  0.00000000000E+00  0.00000000000E+00  0.99999998245E-14  0.12500000000E+03  0.12500000000E+03 0.  0.
        -11    1    3    3    0    0 -0.27009364203E+02  0.24399612682E+02  0.34619977630E+02  0.50233352516E+02  0.51100000000E-03 0. -1.
         23    2    1    0    0    0  0.12625897390E+02  0.23353342692E+02  0.12190001650E+02  0.95787193904E+02  0.91223892024E+02 0.  0.
         11    1    3    3    0    0  0.39635261593E+02 -0.10462699904E+01 -0.22429975980E+02  0.45553841388E+02  0.51100000000E-03 0.  1.
         22    1    1    0    0    0 -0.12625897390E+02 -0.23353342692E+02 -0.12190001650E+02  0.29212806096E+02  0.00000000000E+00 0.  1.
</event>
<event>
 5    1  0.8952932E-005  0.9118800E+02  0.7818608E-02  0.1130116E+00
         25   -1    0    0    0    0  0.00000000000E+00  0.00000000000E+00  0.99999998245E-14  0.12500000000E+03  0.12500000000E+03 0.  0.
        -11    1    3    3    0    0 -0.20770728364E+02  0.26951057546E+02  0.44565894508E+02  0.56070505733E+02  0.51100000000E-03 0.  1.
         23    2    1    0    0    0 -0.16797156977E+01 -0.34371946747E+01  0.29927990939E+02  0.94828483735E+02  0.89900616982E+02 0.  0.
         11    1    3    3    0    0  0.19091012667E+02 -0.30388252221E+02 -0.14637903569E+02  0.38757978002E+02  0.51100000000E-03 0. -1.
         22    1    1    0    0    0  0.16797156977E+01  0.34371946747E+01 -0.29927990939E+02  0.30171516265E+02  0.00000000000E+00 0. -1.
</event>
<event>
 5    1  0.8952932E-005  0.9118800E+02  0.7818608E-02  0.1130116E+00
         25   -1    0    0    0    0  0.00000000000E+00  0.00000000000E+00  0.99999998245E-14  0.12500000000E+03  0.12500000000E+03 0.  0.
        -11    1    3    3    0    0  0.49480647375E+02 -0.81651216541E+01  0.19544839183E+02  0.53823827578E+02  0.51100000000E-03 0. -1.
         23    2    1    0    0    0  0.48318034686E+02  0.90199909832E+01  0.65236253062E+01  0.75416228457E+02  0.56824793131E+02 0.  0.
         11    1    3    3    0    0 -0.11626126886E+01  0.17185112637E+02 -0.13021213877E+02  0.21592400879E+02  0.51100000000E-03 0.  1.
         22    1    1    0    0    0 -0.48318034686E+02 -0.90199909832E+01 -0.65236253062E+01  0.49583771543E+02  0.00000000000E+00 0. -1.
</event>
<event>
 5    1  0.8952932E-005  0.9118800E+02  0.7818608E-02  0.1130116E+00
         25   -1    0    0    0    0  0.00000000000E+00  0.00000000000E+00  0.99999998245E-14  0.12500000000E+03  0.12500000000E+03 0.  0.
        -11    1    3    3    0    0  0.26471706381E+02  0.13155015685E+02 -0.21023410605E+02  0.36273812456E+02  0.51100000000E-03 0.  1.
         23    2    1    0    0    0 -0.25760170578E+02 -0.23736059210E+01  0.78813020318E+01  0.97956788005E+02  0.94149864584E+02 0.  0.
         11    1    3    3    0    0 -0.52231876959E+02 -0.15528621606E+02  0.28904712637E+02  0.61682975549E+02  0.51100000000E-03 0. -1.
         22    1    1    0    0    0  0.25760170578E+02  0.23736059210E+01 -0.78813020318E+01  0.27043211995E+02  0.00000000000E+00 0. -1.
</event>
<event>
 5    1  0.8952932E-005  0.9118800E+02  0.7818608E-02  0.1130116E+00
         25   -1    0    0    0    0  0.00000000000E+00  0.00000000000E+00  0.99999998245E-14  0.12500000000E+03  0.12500000000E+03 0.  0.
        -11    1    3    3    0    0  0.37405182073E+02  0.12665268886E+01 -0.47498393205E+00  0.37429631928E+02  0.51100000000E-03 0.  1.
         23    2    1    0    0    0 -0.16921138059E+02  0.33596574792E+01 -0.22975759621E+02  0.96268523502E+02  0.91881069190E+02 0.  0.
         11    1    3    3    0    0 -0.54326320132E+02  0.20931305906E+01 -0.22500775689E+02  0.58838891574E+02  0.51100000000E-03 0. -1.
         22    1    1    0    0    0  0.16921138059E+02 -0.33596574792E+01  0.22975759621E+02  0.28731476498E+02  0.00000000000E+00 0. -1.
</event>
<event>
 5    1  0.8952932E-005  0.9118800E+02  0.7818608E-02  0.1130116E+00
         25   -1    0    0    0    0  0.00000000000E+00  0.00000000000E+00  0.99999998245E-14  0.12500000000E+03  0.12500000000E+03 0.  0.
        -11    1    3    3    0    0 -0.27396713112E+02 -0.21367333298E+02 -0.11713453255E+02  0.36665348887E+02  0.51100000000E-03 0. -1.
         23    2    1    0    0    0 -0.33174369936E+01  0.24912176027E+02  0.15466468205E+02  0.95490111126E+02  0.90815900489E+02 0.  0.
         11    1    3    3    0    0  0.24079276118E+02  0.46279509325E+02  0.27179921460E+02  0.58824762239E+02  0.51100000000E-03 0.  1.
         22    1    1    0    0    0  0.33174369936E+01 -0.24912176027E+02 -0.15466468205E+02  0.29509888874E+02  0.00000000000E+00 0.  1.
</event>
<event>
 5    1  0.8952932E-005  0.9118800E+02  0.7818608E-02  0.1130116E+00
         25   -1    0    0    0    0  0.00000000000E+00  0.00000000000E+00  0.99999998245E-14  0.12500000000E+03  0.12500000000E+03 0.  0.
        -11    1    3    3    0    0  0.49394950854E+01  0.35289062984E+02 -0.29290755585E+02  0.46126618573E+02  0.51100000000E-03 0. -1.
         23    2    1    0    0    0 -0.28668137242E+02  0.83368333947E+01 -0.85211346950E+01  0.93952059320E+02  0.88673642251E+02 0.  0.
         11    1    3    3    0    0 -0.33607632327E+02 -0.26952229589E+02  0.20769620890E+02  0.47825440747E+02  0.51100000000E-03 0.  1.
         22    1    1    0    0    0  0.28668137242E+02 -0.83368333947E+01  0.85211346950E+01  0.31047940680E+02  0.00000000000E+00 0. -1.
</event>
<event>
 5    1  0.8952932E-005  0.9118800E+02  0.7818608E-02  0.1130116E+00
         25   -1    0    0    0    0  0.00000000000E+00  0.00000000000E+00  0.99999998245E-14  0.12500000000E+03  0.12500000000E+03 0.  0.
        -11    1    3    3    0    0  0.34483425162E+01  0.23704615311E+02 -0.47166836270E+02  0.52900947980E+02  0.51100000000E-03 0. -1.
         23    2    1    0    0    0  0.23384993901E+02  0.15188458362E+00 -0.16709042790E+02  0.96258512223E+02  0.91867448292E+02 0.  0.
         11    1    3    3    0    0  0.19936651385E+02 -0.23552730728E+02  0.30457793480E+02  0.43357564243E+02  0.51100000000E-03 0.  1.
         22    1    1    0    0    0 -0.23384993901E+02 -0.15188458362E+00  0.16709042790E+02  0.28741487777E+02  0.00000000000E+00 0. -1.
</event>
<event>
 5    1  0.8952932E-005  0.9118800E+02  0.7818608E-02  0.1130116E+00
         25   -1    0    0    0    0  0.00000000000E+00  0.00000000000E+00  0.99999998245E-14  0.12500000000E+03  0.12500000000E+03 0.  0.
        -11    1    3    3    0    0 -0.50423584871E+02 -0.17772665200E+02 -0.14636986137E+02  0.55431461310E+02  0.51100000000E-03 0.  1.
         23    2    1    0    0    0 -0.28506169424E+02  0.12090133945E+02 -0.70668211683E+01  0.93239757630E+02  0.87663786180E+02 0.  0.
         11    1    3    3    0    0  0.21917415447E+02  0.29862799145E+02  0.75701649684E+01  0.37808296319E+02  0.51100000000E-03 0. -1.
         22    1    1    0    0    0  0.28506169424E+02 -0.12090133945E+02  0.70668211683E+01  0.31760242370E+02  0.00000000000E+00 0.  1.
</event>
<event>
 5    1  0.8952932E-005  0.9118800E+02  0.7818608E-02  0.1130116E+00
         25   -1    0    0    0    0  0.00000000000E+00  0.00000000000E+00  0.99999998245E-14  0.12500000000E+03  0.12500000000E+03 0.  0.
        -11    1    3    3    0    0 -0.31271124478E+02  0.18432852189E+02  0.28676016129E+02  0.46259779152E+02  0.51100000000E-03 0. -1.
         23    2    1    0    0    0 -0.16122613093E+02 -0.19497151836E+02 -0.50180211430E+01  0.99207401859E+02  0.95795879164E+02 0.  0.
         11    1    3    3    0    0  0.15148511384E+02 -0.37930004024E+02 -0.33694037272E+02  0.52947622707E+02  0.51100000000E-03 0.  1.
         22    1    1    0    0    0  0.16122613093E+02  0.19497151836E+02  0.50180211430E+01  0.25792598141E+02  0.00000000000E+00 0.  1.
</event>
<event>
 5    1  0.8952932E-005  0.9118800E+02  0.7818608E-02  0.1130116E+00
         25   -1    0    0    0    0  0.00000000000E+00  0.00000000000E+00  0.99999998245E-14  0.12500000000E+03  0.12500000000E+03 0.  0.
        -11    1    3    3    0    0 -0.12053613572E+02  0.34627660727E+02  0.14659352903E+02  0.39487480489E+02  0.51100000000E-03 0. -1.
         23    2    1    0    0    0  0.28692335038E+02  0.22539971362E+01 -0.62094837369E+01  0.95557033415E+02  0.90907966394E+02 0.  0.
         11    1    3    3    0    0  0.40745948610E+02 -0.32373663590E+02 -0.20868836640E+02  0.56069552927E+02  0.51100000000E-03 0.  1.
         22    1    1    0    0    0 -0.28692335038E+02 -0.22539971362E+01  0.62094837369E+01  0.29442966585E+02  0.00000000000E+00 0.  1.
</event>
<event>
 5    1  0.8952932E-005  0.9118800E+02  0.7818608E-02  0.1130116E+00
         25   -1    0    0    0    0  0.00000000000E+00  0.00000000000E+00  0.99999998245E-14  0.12500000000E+03  0.12500000000E+03 0.  0.
        -11    1    3    3    0    0 -0.66301720261E+01  0.38498392211E+02  0.18430207572E+02  0.43194420188E+02  0.51100000000E-03 0. -1.
         23    2    1    0    0    0 -0.26156065408E+02  0.39101652476E+01 -0.14544716444E+02  0.94817589123E+02  0.89885467573E+02 0.  0.
         11    1    3    3    0    0 -0.19525893382E+02 -0.34588226964E+02 -0.32974924015E+02  0.51623168936E+02  0.51100000000E-03 0.  1.
         22    1    1    0    0    0  0.26156065408E+02 -0.39101652476E+01  0.14544716444E+02  0.30182410877E+02  0.00000000000E+00 0. -1.
</event>
<event>
 5    1  0.8952932E-005  0.9118800E+02  0.7818608E-02  0.1130116E+00
         25   -1    0    0    0    0  0.00000000000E+00  0.00000000000E+00  0.99999998245E-14  0.12500000000E+03  0.12500000000E+03 0.  0.
        -11    1    3    3    0    0 -0.48831271269E+02 -0.33717281163E+02  0.75434998566E+01  0.59818496246E+02  0.51100000000E-03 0. -1.
         23    2    1    0    0    0 -0.14843913074E+02 -0.25579332024E+02  0.61415299831E+01  0.94794663176E+02  0.89853579750E+02 0.  0.
         11    1    3    3    0    0  0.33987358195E+02  0.81379491398E+01 -0.14019698735E+01  0.34976166930E+02  0.51100000000E-03 0.  1.
         22    1    1    0    0    0  0.14843913074E+02  0.25579332024E+02 -0.61415299831E+01  0.30205336824E+02  0.00000000000E+00 0. -1.
</event>
<event>
 5    1  0.8952932E-005  0.9118800E+02  0.7818608E-02  0.1130116E+00
         25   -1    0    0    0    0  0.00000000000E+00  0.00000000000E+00  0.99999998245E-14  0.12500000000E+03  0.12500000000E+03 0.  0.
        -11    1    3    3    0    0  0.19329824387E+02  0.27199194118E+02  0.14911250792E+02  0.36548374409E+02  0.51100000000E-03 0. -1.
         23    2    1    0    0    0  0.23800193688E+01 -0.83037438743E+01 -0.28550380881E+02  0.95171475012E+02  0.90376262110E+02 0.  0.
         11    1    3    3    0    0 -0.16949805019E+02 -0.35502937992E+02 -0.43461631673E+02  0.58623100602E+02  0.51100000000E-03 0.  1.
         22    1    1    0    0    0 -0.23800193688E+01  0.83037438743E+01  0.28550380881E+02  0.29828524988E+02  0.00000000000E+00 0.  1.
</event>
<event>
 5    1  0.8952932E-005  0.9118800E+02  0.7818608E-02  0.1130116E+00
         25   -1    0    0    0    0  0.00000000000E+00  0.00000000000E+00  0.99999998245E-14  0.12500000000E+03  0.12500000000E+03 0.  0.
        -11    1    3    3    0    0 -0.19141722962E+02  0.64425325754E+01 -0.41791752083E+02  0.46416186039E+02  0.51100000000E-03 0. -1.
         23    2    1    0    0    0 -0.91832918374E+01  0.28332611770E+02  0.66274261002E+00  0.95208911291E+02  0.90428025649E+02 0.  0.
         11    1    3    3    0    0  0.99584311244E+01  0.21890079195E+02  0.42454494693E+02  0.48792725252E+02  0.51100000000E-03 0.  1.
         22    1    1    0    0    0  0.91832918374E+01 -0.28332611770E+02 -0.66274261002E+00  0.29791088709E+02  0.00000000000E+00 0. -1.
</event>
<event>
 5    1  0.8952932E-005  0.9118800E+02  0.7818608E-02  0.1130116E+00
         25   -1    0    0    0    0  0.00000000000E+00  0.00000000000E+00  0.99999998245E-14  0.12500000000E+03  0.12500000000E+03 0.  0.
        -11    1    3    3    0    0 -0.47510521885E+02  0.83716731912E+01  0.16996665919E+02  0.51149010298E+02  0.51100000000E-03 0.  1.
         23    2    1    0    0    0 -0.19420262185E+02  0.96204458856E+01 -0.18550437300E+02  0.96472499472E+02  0.92158151392E+02 0.  0.
         11    1    3    3    0    0  0.28090259701E+02  0.12487726944E+01 -0.35547103220E+02  0.45323489174E+02  0.51100000000E-03 0. -1.
         22    1    1    0    0    0  0.19420262185E+02 -0.96204458856E+01  0.18550437300E+02  0.28527500528E+02  0.00000000000E+00 0.  1.
</event>
<event>
 5    1  0.8952932E-005  0.9118800E+02  0.7818608E-02  0.1130116E+00
         25   -1    0    0    0    0  0.00000000000E+00  0.00000000000E+00  0.99999998245E-14  0.12500000000E+03  0.12500000000E+03 0.  0.
        -11    1    3    3    0    0 -0.43530703457E+02 -0.24544818754E+02 -0.36766029210E+02  0.62041205463E+02  0.51100000000E-03 0.  1.
         23    2    1    0    0    0 -0.19937534487E+02 -0.10842184097E+02 -0.23324811032E+02  0.92456105840E+02  0.86539161424E+02 0.  0.
         11    1    3    3    0    0  0.23593168970E+02  0.13702634657E+02  0.13441218178E+02  0.30414900377E+02  0.51100000000E-03 0. -1.
         22    1    1    0    0    0  0.19937534487E+02  0.10842184097E+02  0.23324811032E+02  0.32543894160E+02  0.00000000000E+00 0.  1.
</event>
<event>
 5    1  0.8952932E-005  0.9118800E+02  0.7818608E-02  0.1130116E+00
         25   -1    0    0    0    0  0.00000000000E+00  0.00000000000E+00  0.99999998245E-14  0.12500000000E+03  0.12500000000E+03 0.  0.
        -11    1    3    3    0    0 -0.46512910546E+02 -0.83221741374E+01 -0.63935340824E+01  0.47682142445E+02  0.51100000000E-03 0.  1.
         23    2    1    0    0    0 -0.77023250307E+01 -0.30836202630E+02 -0.65403674725E+01  0.92550445147E+02  0.86675321094E+02 0.  0.
         11    1    3    3    0    0  0.38810585515E+02 -0.22514028492E+02 -0.14683339008E+00  0.44868302701E+02  0.51100000000E-03 0. -1.
         22    1    1    0    0    0  0.77023250307E+01  0.30836202630E+02  0.65403674725E+01  0.32449554853E+02  0.00000000000E+00 0.  1.
</event>
<event>
 5    1  0.8952932E-005  0.9118800E+02  0.7818608E-02  0.1130116E+00
         25   -1    0    0    0    0  0.00000000000E+00  0.00000000000E+00  0.99999998245E-14  0.12500000000E+03  0.12500000000E+03 0.  0.
        -11    1    3    3    0    0  0.21963462912E+02 -0.24978059977E+02 -0.18505635969E+02  0.38062524170E+02  0.51100000000E-03 0.  1.
         23    2    1    0    0    0 -0.11842569227E+02 -0.14971800290E+02  0.24671866010E+02  0.93805413575E+02  0.88466679568E+02 0.  0.
         11    1    3    3    0    0 -0.33806032139E+02  0.10006259687E+02  0.43177501979E+02  0.55742889405E+02  0.51100000000E-03 0. -1.
         22    1    1    0    0    0  0.11842569227E+02  0.14971800290E+02 -0.24671866010E+02  0.31194586425E+02  0.00000000000E+00 0. -1.
</event>
<event>
 5    1  0.8952932E-005  0.9118800E+02  0.7818608E-02  0.1130116E+00
         25   -1    0    0    0    0  0.00000000000E+00  0.00000000000E+00  0.99999998245E-14  0.12500000000E+03  0.12500000000E+03 0.  0.
        -11    1    3    3    0    0  0.35511243060E+02  0.37050197298E+02 -0.41540339075E+01  0.51488071448E+02  0.51100000000E-03 0.  1.
         23    2    1    0    0    0  0.10374303382E+02  0.14854466710E+02  0.23760232077E+02  0.95119739287E+02  0.90304677740E+02 0.  0.
         11    1    3    3    0    0 -0.25136939678E+02 -0.22195730587E+02  0.27914265985E+02  0.43631667839E+02  0.51100000000E-03 0. -1.
         22    1    1    0    0    0 -0.10374303382E+02 -0.14854466710E+02 -0.23760232077E+02  0.29880260713E+02  0.00000000000E+00 0. -1.
</event>
<event>
 5    1  0.8952932E-005  0.9118800E+02  0.7818608E-02  0.1130116E+00
         25   -1    0    0    0    0  0.00000000000E+00  0.00000000000E+00  0.99999998245E-14  0.12500000000E+03  0.12500000000E+03 0.  0.
        -11    1    3    3    0    0  0.23776821241E+02 -0.89114926475E+00  0.28108192240E+02  0.36826645878E+02  0.51100000000E-03 0.  1.
         23    2    1    0    0    0 -0.26128776394E+02 -0.10849060890E+02 -0.31250661024E+01  0.96536319350E+02  0.92244673762E+02 0.  0.
         11    1    3    3    0    0 -0.49905597634E+02 -0.99579116250E+01 -0.31233258343E+02  0.59709673472E+02  0.51100000000E-03 0. -1.
         22    1    1    0    0    0  0.26128776394E+02  0.10849060890E+02  0.31250661024E+01  0.28463680650E+02  0.00000000000E+00 0. -1.
</event>
<event>
 5    1  0.8952932E-005  0.9118800E+02  0.7818608E-02  0.1130116E+00
         25   -1    0    0    0    0  0.00000000000E+00  0.00000000000E+00  0.99999998245E-14  0.12500000000E+03  0.12500000000E+03 0.  0.
        -11    1    3    3    0    0  0.43767390274E+02  0.40272806647E+02 -0.57476269900E+01  0.59753816806E+02  0.51100000000E-03 0.  1.
         23    2    1    0    0    0  0.16306459099E+02  0.14919794339E+02 -0.15039487310E+02  0.98266368559E+02  0.94559992279E+02 0.  0.
         11    1    3    3    0    0 -0.27460931175E+02 -0.25353012307E+02 -0.92918603196E+01  0.38512551753E+02  0.51100000000E-03 0. -1.
         22    1    1    0    0    0 -0.16306459099E+02 -0.14919794339E+02  0.15039487310E+02  0.26733631441E+02  0.00000000000E+00 0.  1.
</event>
<event>
 5    1  0.8952932E-005  0.9118800E+02  0.7818608E-02  0.1130116E+00
         25   -1    0    0    0    0  0.00000000000E+00  0.00000000000E+00  0.99999998245E-14  0.12500000000E+03  0.12500000000E+03 0.  0.
        -11    1    3    3    0    0 -0.34797977882E+02  0.13033474999E+02  0.40098740317E+02  0.54668818448E+02  0.51100000000E-03 0.  1.
         23    2    1    0    0    0  0.36004282752E+01  0.15494911185E+02  0.23611708357E+02  0.96529521817E+02  0.92235462022E+02 0.  0.
         11    1    3    3    0    0  0.38398406157E+02  0.24614361859E+01 -0.16487031959E+02  0.41860703370E+02  0.51100000000E-03 0. -1.
         22    1    1    0    0    0 -0.36004282752E+01 -0.15494911185E+02 -0.23611708357E+02  0.28470478183E+02  0.00000000000E+00 0.  1.
</event>
<event>
 5    1  0.8952932E-005  0.9118800E+02  0.7818608E-02  0.1130116E+00
         25   -1    0    0    0    0  0.00000000000E+00  0.00000000000E+00  0.99999998245E-14  0.12500000000E+03  0.12500000000E+03 0.  0.
        -11    1    3    3    0    0  0.65974622018E+01 -0.14538755091E+02 -0.40386665694E+02  0.43427925039E+02  0.51100000000E-03 0.  1.
         23    2    1    0    0    0 -0.25579308181E+02  0.11780299754E+02 -0.92761884851E+01  0.95349972308E+02  0.90622806606E+02 0.  0.
         11    1    3    3    0    0 -0.32176770383E+02  0.26319054845E+02  0.31110477209E+02  0.51922047269E+02  0.51100000000E-03 0. -1.
         22    1    1    0    0    0  0.25579308181E+02 -0.11780299754E+02  0.92761884851E+01  0.29650027692E+02  0.00000000000E+00 0. -1.
</event>
<event>
 5    1  0.8952932E-005  0.9118800E+02  0.7818608E-02  0.1130116E+00
         25   -1    0    0    0    0  0.00000000000E+00  0.00000000000E+00  0.99999998245E-14  0.12500000000E+03  0.12500000000E+03 0.  0.
        -11    1    3    3    0    0  0.35433397202E+02  0.31486192371E+02 -0.56908736062E+01  0.47741931150E+02  0.51100000000E-03 0.  1.
         23    2    1    0    0    0  0.66727597318E+01 -0.38158594110E+01 -0.26209807393E+02  0.97686257872E+02  0.93790001961E+02 0.  0.
         11    1    3    3    0    0 -0.28760637470E+02 -0.35302051782E+02 -0.20518933787E+02  0.49944326722E+02  0.51100000000E-03 0. -1.
         22    1    1    0    0    0 -0.66727597318E+01  0.38158594110E+01  0.26209807393E+02  0.27313742128E+02  0.00000000000E+00 0.  1.
</event>
<event>
 5    1  0.8952932E-005  0.9118800E+02  0.7818608E-02  0.1130116E+00
         25   -1    0    0    0    0  0.00000000000E+00  0.00000000000E+00  0.99999998245E-14  0.12500000000E+03  0.12500000000E+03 0.  0.
        -11    1    3    3    0    0  0.26121022774E+02 -0.65317865402E+01 -0.35528111245E+02  0.44578231852E+02  0.51100000000E-03 0.  1.
         23    2    1    0    0    0 -0.13298751953E+01 -0.27472932898E+02  0.41593284552E+01  0.97182188741E+02  0.93115773021E+02 0.  0.
         11    1    3    3    0    0 -0.27450897969E+02 -0.20941146358E+02  0.39687439701E+02  0.52603956889E+02  0.51100000000E-03 0. -1.
         22    1    1    0    0    0  0.13298751953E+01  0.27472932898E+02 -0.41593284552E+01  0.27817811259E+02  0.00000000000E+00 0. -1.
</event>
<event>
 5    1  0.8952932E-005  0.9118800E+02  0.7818608E-02  0.1130116E+00
         25   -1    0    0    0    0  0.00000000000E+00  0.00000000000E+00  0.99999998245E-14  0.12500000000E+03  0.12500000000E+03 0.  0.
        -11    1    3    3    0    0 -0.44992223917E+02  0.92646752968E+01 -0.21009284445E+02  0.50512616786E+02  0.51100000000E-03 0.  1.
         23    2    1    0    0    0 -0.83935232326E+01  0.27507005442E+02 -0.55602847206E+00  0.96235512375E+02  0.91836148078E+02 0.  0.
         11    1    3    3    0    0  0.36598700685E+02  0.18242330145E+02  0.20453255973E+02  0.45722895590E+02  0.51100000000E-03 0. -1.
         22    1    1    0    0    0  0.83935232326E+01 -0.27507005442E+02  0.55602847206E+00  0.28764487625E+02  0.00000000000E+00 0.  1.
</event>
<event>
 5    1  0.8952932E-005  0.9118800E+02  0.7818608E-02  0.1130116E+00
         25   -1    0    0    0    0  0.00000000000E+00  0.00000000000E+00  0.99999998245E-14  0.12500000000E+03  0.12500000000E+03 0.  0.
        -11    1    3    3    0    0  0.47506089870E+00 -0.14011970935E+02 -0.27850340368E+02  0.31180161500E+02  0.51100000000E-03 0.  1.
         23    2    1    0    0    0 -0.70172971898E+01 -0.19700158304E+01  0.31739444273E+02  0.92434439280E+02  0.86507859874E+02 0.  0.
         11    1    3    3    0    0 -0.74923580885E+01  0.12041955104E+02  0.59589784641E+02  0.61254277780E+02  0.51100000000E-03 0. -1.
         22    1    1    0    0    0  0.70172971898E+01  0.19700158304E+01 -0.31739444273E+02  0.32565560720E+02  0.00000000000E+00 0. -1.
</event>
<event>
 5    1  0.8952932E-005  0.9118800E+02  0.7818608E-02  0.1130116E+00
         25   -1    0    0    0    0  0.00000000000E+00  0.00000000000E+00  0.99999998245E-14  0.12500000000E+03  0.12500000000E+03 0.  0.
        -11    1    3    3    0    0 -0.38542410068E-01 -0.51762651282E+02 -0.21850909320E+02  0.56185725871E+02  0.51100000000E-03 0. -1.
         23    2    1    0    0    0  0.19191963721E+02 -0.18837021577E+02 -0.11899908779E+02  0.95592982431E+02  0.90957383470E+02 0.  0.
         11    1    3    3    0    0  0.19230506131E+02  0.32925629705E+02  0.99510005409E+01  0.39407256560E+02  0.51100000000E-03 0.  1.
         22    1    1    0    0    0 -0.19191963721E+02  0.18837021577E+02  0.11899908779E+02  0.29407017569E+02  0.00000000000E+00 0.  1.
</event>
<event>
 5    1  0.8952932E-005  0.9118800E+02  0.7818608E-02  0.1130116E+00
         25   -1    0    0    0    0  0.00000000000E+00  0.00000000000E+00  0.99999998245E-14  0.12500000000E+03  0.12500000000E+03 0.  0.
        -11    1    3    3    0    0  0.46510679833E+02  0.27743613766E+01  0.41342878852E+02  0.62291043109E+02  0.51100000000E-03 0.  1.
         23    2    1    0    0    0  0.23924266744E+02  0.22734984804E+01  0.16624958639E+02  0.95777943530E+02  0.91211215771E+02 0.  0.
         11    1    3    3    0    0 -0.22586413089E+02 -0.50086289617E+00 -0.24717920213E+02  0.33486900421E+02  0.51100000000E-03 0. -1.
         22    1    1    0    0    0 -0.23924266744E+02 -0.22734984804E+01 -0.16624958639E+02  0.29222056470E+02  0.00000000000E+00 0.  1.
</event>
<event>
 5    1  0.8952932E-005  0.9118800E+02  0.7818608E-02  0.1130116E+00
         25   -1    0    0    0    0  0.00000000000E+00  0.00000000000E+00  0.99999998245E-14  0.12500000000E+03  0.12500000000E+03 0.  0.
        -11    1    3    3    0    0  0.32491722470E+02 -0.37882186443E+02 -0.23109848501E+02  0.54998519769E+02  0.51100000000E-03 0. -1.
         23    2    1    0    0    0  0.24678119557E+02 -0.49998701771E+01 -0.25857817643E+02  0.88907964592E+02  0.81252637791E+02 0.  0.
         11    1    3    3    0    0 -0.78136029137E+01  0.32882316266E+02 -0.27479691419E+01  0.33909444823E+02  0.51100000000E-03 0.  1.
         22    1    1    0    0    0 -0.24678119557E+02  0.49998701771E+01  0.25857817643E+02  0.36092035408E+02  0.00000000000E+00 0. -1.
</event>
<event>
 5    1  0.8952932E-005  0.9118800E+02  0.7818608E-02  0.1130116E+00
         25   -1    0    0    0    0  0.00000000000E+00  0.00000000000E+00  0.99999998245E-14  0.12500000000E+03  0.12500000000E+03 0.  0.
        -11    1    3    3    0    0  0.91302882483E+00 -0.43754707771E+02 -0.28632759634E+02  0.52298594611E+02  0.51100000000E-03 0.  1.
         23    2    1    0    0    0 -0.13644899638E+02 -0.23998602120E+02  0.78790443262E+01  0.96291194220E+02  0.91911906492E+02 0.  0.
         11    1    3    3    0    0 -0.14557928463E+02  0.19756105651E+02  0.36511803961E+02  0.43992599609E+02  0.51100000000E-03 0. -1.
         22    1    1    0    0    0  0.13644899638E+02  0.23998602120E+02 -0.78790443262E+01  0.28708805780E+02  0.00000000000E+00 0. -1.
</event>
<event>
 5    1  0.8952932E-005  0.9118800E+02  0.7818608E-02  0.1130116E+00
         25   -1    0    0    0    0  0.00000000000E+00  0.00000000000E+00  0.99999998245E-14  0.12500000000E+03  0.12500000000E+03 0.  0.
        -11    1    3    3    0    0 -0.18439208442E+02 -0.15519271336E+02  0.25074575767E+02  0.34779110698E+02  0.51100000000E-03 0.  1.
         23    2    1    0    0    0  0.27718701881E+02  0.73058565345E+01 -0.70620474288E+01  0.95477559594E+02  0.90798622778E+02 0.  0.
         11    1    3    3    0    0  0.46157910323E+02  0.22825127870E+02 -0.32136623196E+02  0.60698448896E+02  0.51100000000E-03 0. -1.
         22    1    1    0    0    0 -0.27718701881E+02 -0.73058565345E+01  0.70620474288E+01  0.29522440406E+02  0.00000000000E+00 0. -1.
</event>
<event>
 5    1  0.8952932E-005  0.9118800E+02  0.7818608E-02  0.1130116E+00
         25   -1    0    0    0    0  0.00000000000E+00  0.00000000000E+00  0.99999998245E-14  0.12500000000E+03  0.12500000000E+03 0.  0.
        -11    1    3    3    0    0  0.51699702934E+02 -0.26437038332E+02 -0.15292439912E+02  0.60046939955E+02  0.51100000000E-03 0.  1.
         23    2    1    0    0    0  0.26449273771E+02 -0.10114424530E+02  0.48958320135E+01  0.96262657784E+02  0.91873088801E+02 0.  0.
         11    1    3    3    0    0 -0.25250429163E+02  0.16322613802E+02  0.20188271925E+02  0.36215717829E+02  0.51100000000E-03 0. -1.
         22    1    1    0    0    0 -0.26449273771E+02  0.10114424530E+02 -0.48958320135E+01  0.28737342216E+02  0.00000000000E+00 0.  1.
</event>
<event>
 5    1  0.8952932E-005  0.9118800E+02  0.7818608E-02  0.1130116E+00
         25   -1    0    0    0    0  0.00000000000E+00  0.00000000000E+00  0.99999998245E-14  0.12500000000E+03  0.12500000000E+03 0.  0.
        -11    1    3    3    0    0  0.46264297141E+02 -0.24966200391E+02  0.12602177118E+02  0.54060255459E+02  0.51100000000E-03 0.  1.
         23    2    1    0    0    0  0.20606371460E+02 -0.13253437906E+02 -0.17178301746E+02  0.95077262626E+02  0.90245862267E+02 0.  0.
         11    1    3    3    0    0 -0.25657925681E+02  0.11712762484E+02 -0.29780478864E+02  0.41017007167E+02  0.51100000000E-03 0. -1.
         22    1    1    0    0    0 -0.20606371460E+02  0.13253437906E+02  0.17178301746E+02  0.29922737374E+02  0.00000000000E+00 0.  1.
</event>
<event>
 5    1  0.8952932E-005  0.9118800E+02  0.7818608E-02  0.1130116E+00
         25   -1    0    0    0    0  0.00000000000E+00  0.00000000000E+00  0.99999998245E-14  0.12500000000E+03  0.12500000000E+03 0.  0.
        -11    1    3    3    0    0  0.19271521721E+02  0.12580656372E+02 -0.41650900540E+02  0.47586363385E+02  0.51100000000E-03 0.  1.
         23    2    1    0    0    0 -0.94937673001E+01 -0.19150883306E+02 -0.20619513687E+02  0.95300634794E+02  0.90554727643E+02 0.  0.
         11    1    3    3    0    0 -0.28765289022E+02 -0.31731539678E+02  0.21031386852E+02  0.47714271408E+02  0.51100000000E-03 0. -1.
         22    1    1    0    0    0  0.94937673001E+01  0.19150883306E+02  0.20619513687E+02  0.29699365206E+02  0.00000000000E+00 0.  1.
</event>
<event>
 5    1  0.8952932E-005  0.9118800E+02  0.7818608E-02  0.1130116E+00
         25   -1    0    0    0    0  0.00000000000E+00  0.00000000000E+00  0.99999998245E-14  0.12500000000E+03  0.12500000000E+03 0.  0.
        -11    1    3    3    0    0 -0.35202793814E+02  0.24077258996E+02 -0.44756199304E+02  0.61822879822E+02  0.51100000000E-03 0.  1.
         23    2    1    0    0    0 -0.20899994551E+02  0.15272012284E+02 -0.17793782838E+02  0.93588810288E+02  0.88160096257E+02 0.  0.
         11    1    3    3    0    0  0.14302799263E+02 -0.88052467115E+01  0.26962416466E+02  0.31765930466E+02  0.51100000000E-03 0. -1.
         22    1    1    0    0    0  0.20899994551E+02 -0.15272012284E+02  0.17793782838E+02  0.31411189712E+02  0.00000000000E+00 0.  1.
</event>
<event>
 5    1  0.8952932E-005  0.9118800E+02  0.7818608E-02  0.1130116E+00
         25   -1    0    0    0    0  0.00000000000E+00  0.00000000000E+00  0.99999998245E-14  0.12500000000E+03  0.12500000000E+03 0.  0.
        -11    1    3    3    0    0  0.36776693050E+02  0.38357458036E+02 -0.78614546762E+01  0.53717987756E+02  0.51100000000E-03 0. -1.
         23    2    1    0    0    0  0.24138918483E+02 -0.18252760181E+01 -0.15114567563E+02  0.96461093737E+02  0.92142679765E+02 0.  0.
         11    1    3    3    0    0 -0.12637774567E+02 -0.40182734054E+02 -0.72531128864E+01  0.42743105981E+02  0.51100000000E-03 0.  1.
         22    1    1    0    0    0 -0.24138918483E+02  0.18252760181E+01  0.15114567563E+02  0.28538906263E+02  0.00000000000E+00 0. -1.
</event>
<event>
 5    1  0.8952932E-005  0.9118800E+02  0.7818608E-02  0.1130116E+00
         25   -1    0    0    0    0  0.00000000000E+00  0.00000000000E+00  0.99999998245E-14  0.12500000000E+03  0.12500000000E+03 0.  0.
        -11    1    3    3    0    0  0.28234293541E+00 -0.33843677923E+02 -0.36821537404E+01  0.34044566516E+02  0.51100000000E-03 0.  1.
         23    2    1    0    0    0  0.58782526550E+01  0.26900379450E+02 -0.10722536353E+02  0.95450768966E+02  0.90761733355E+02 0.  0.
         11    1    3    3    0    0  0.55959097196E+01  0.60744057373E+02 -0.70403826124E+01  0.61406202450E+02  0.51100000000E-03 0. -1.
         22    1    1    0    0    0 -0.58782526550E+01 -0.26900379450E+02  0.10722536353E+02  0.29549231034E+02  0.00000000000E+00 0. -1.
</event>
