<event>
 5    1  0.8875601E-005  0.9118800E+02  0.7818608E-02  0.1130116E+00
         25   -1    0    0    0    0  0.00000000000E+00  0.00000000000E+00  0.99999998245E-14  0.12500000000E+03  0.12500000000E+03 0.  0.
        -11    1    3    3    0    0 -0.31575090084E+02 -0.49974460024E+02 -0.19598177123E+02  0.62277777059E+02  0.51100000000E-03 0.  1.
         23    2    1    0    0    0 -0.11624909386E+02 -0.25202832237E+02 -0.99592388418E+01  0.95512583883E+02  0.90846826971E+02 0.  0.
         11    1    3    3    0    0  0.19950180699E+02  0.24771627788E+02  0.96389382814E+01  0.33234806824E+02  0.51100000000E-03 0. -1.
         22    1    1    0    0    0  0.11624909386E+02  0.25202832237E+02  0.99592388418E+01  0.29487416117E+02  0.00000000000E+00 0.  1.
</event>
<event>
 5    1  0.8875601E-005  0.9118800E+02  0.7818608E-02  0.1130116E+00
         25   -1    0    0    0    0  0.00000000000E+00  0.00000000000E+00  0.99999998245E-14  0.12500000000E+03  0.12500000000E+03 0.  0.
        -11    1    3    3    0    0  0.25576685103E+02 -0.11382580311E+02 -0.23182128706E+02  0.36347504000E+02  0.51100000000E-03 0. -1.
         23    2    1    0    0    0 -0.15355564318E+02 -0.16048595167E+02  0.19336405091E+02  0.95550936786E+02  0.90899583038E+02 0.  0.
         11    1    3    3    0    0 -0.40932249421E+02 -0.46660148552E+01  0.42518533796E+02  0.59203432787E+02  0.51100000000E-03 0.  1.
         22    1    1    0    0    0  0.15355564318E+02  0.16048595167E+02 -0.19336405091E+02  0.29449063214E+02  0.00000000000E+00 0.  1.
</event>
<event>
 5    1  0.8875601E-005  0.9118800E+02  0.7818608E-02  0.1130116E+00
         25   -1    0    0    0    0  0.00000000000E+00  0.00000000000E+00  0.99999998245E-14  0.12500000000E+03  0.12500000000E+03 0.  0.
        -11    1    3    3    0    0 -0.13354745459E+01 -0.34445519333E+02 -0.30166839909E+02  0.45807374131E+02  0.51100000000E-03 0.  1.
         23    2    1    0    0    0 -0.23000084693E+02  0.37222062549E+01 -0.26298117586E+02  0.89865263572E+02  0.82712247539E+02 0.  0.
         11    1    3    3    0    0 -0.21664610147E+02  0.38167725588E+02  0.38687223232E+01  0.44057889441E+02  0.51100000000E-03 0. -1.
         22    1    1    0    0    0  0.23000084693E+02 -0.37222062549E+01  0.26298117586E+02  0.35134736428E+02  0.00000000000E+00 0.  1.
</event>
<event>
 5    1  0.8875601E-005  0.9118800E+02  0.7818608E-02  0.1130116E+00
         25   -1    0    0    0    0  0.00000000000E+00  0.00000000000E+00  0.99999998245E-14  0.12500000000E+03  0.12500000000E+03 0.  0.
        -11    1    3    3    0    0  0.62867361492E+01  0.35963956278E+02 -0.12054083107E+02  0.38447758353E+02  0.51100000000E-03 0.  1.
         23    2    1    0    0    0 -0.81309358436E+01  0.24677224839E+01  0.29830325247E+02  0.93983067910E+02  0.88717343160E+02 0.  0.
         11    1    3    3    0    0 -0.14417671993E+02 -0.33496233794E+02  0.41884408354E+02  0.55535309556E+02  0.51100000000E-03 0. -1.
         22    1    1    0    0    0  0.81309358436E+01 -0.24677224839E+01 -0.29830325247E+02  0.31016932090E+02  0.00000000000E+00 0. -1.
</event>
<event>
 5    1  0.8875601E-005  0.9118800E+02  0.7818608E-02  0.1130116E+00
         25   -1    0    0    0    0  0.00000000000E+00  0.00000000000E+00  0.99999998245E-14  0.12500000000E+03  0.12500000000E+03 0.  0.
        -11    1    3    3    0    0  0.44499134203E+02  0.23178925445E+02  0.36547662977E+02  0.62073884999E+02  0.51100000000E-03 0.  1.
         23    2    1    0    0    0  0.21985817667E+02  0.58414482889E+01  0.17775248353E+02  0.96130324723E+02  0.91692863304E+02 0.  0.
         11    1    3    3    0    0 -0.22513316536E+02 -0.17337477156E+02 -0.18772414624E+02  0.34056439724E+02  0.51100000000E-03 0. -1.
         22    1    1    0    0    0 -0.21985817667E+02 -0.58414482889E+01 -0.17775248353E+02  0.28869675277E+02  0.00000000000E+00 0.  1.
</event>
<event>
 5    1  0.8875601E-005  0.9118800E+02  0.7818608E-02  0.1130116E+00
         25   -1    0    0    0    0  0.00000000000E+00  0.00000000000E+00  0.99999998245E-14  0.12500000000E+03  0.12500000000E+03 0.  0.
        -11    1    3    3    0    0  0.15507103460E+01 -0.48965127792E+02  0.10435807276E+02  0.50088866188E+02  0.51100000000E-03 0. -1.
         23    2    1    0    0    0  0.22793004111E+02 -0.12617912286E+02 -0.10259766873E+02  0.97000079230E+02  0.92870984744E+02 0.  0.
         11    1    3    3    0    0  0.21242293765E+02  0.36347215506E+02 -0.20695574149E+02  0.46911213042E+02  0.51100000000E-03 0.  1.
         22    1    1    0    0    0 -0.22793004111E+02  0.12617912286E+02  0.10259766873E+02  0.27999920770E+02  0.00000000000E+00 0.  1.
</event>
<event>
 5    1  0.8875601E-005  0.9118800E+02  0.7818608E-02  0.1130116E+00
         25   -1    0    0    0    0  0.00000000000E+00  0.00000000000E+00  0.99999998245E-14  0.12500000000E+03  0.12500000000E+03 0.  0.
        -11    1    3    3    0    0  0.96795509072E+01  0.17729915071E+02  0.28905531647E+02  0.35264335443E+02  0.51100000000E-03 0. -1.
         23    2    1    0    0    0  0.14668557936E+02 -0.72830187209E+01 -0.25122889436E+02  0.95010526393E+02  0.90153378186E+02 0.  0.
         11    1    3    3    0    0  0.49890070287E+01 -0.25012933792E+02 -0.54028421083E+02  0.59746190950E+02  0.51100000000E-03 0.  1.
         22    1    1    0    0    0 -0.14668557936E+02  0.72830187209E+01  0.25122889436E+02  0.29989473607E+02  0.00000000000E+00 0.  1.
</event>
<event>
 5    1  0.8875601E-005  0.9118800E+02  0.7818608E-02  0.1130116E+00
         25   -1    0    0    0    0  0.00000000000E+00  0.00000000000E+00  0.99999998245E-14  0.12500000000E+03  0.12500000000E+03 0.  0.
        -11    1    3    3    0    0  0.69131624509E+01 -0.44442081890E+02  0.12319326420E+02  0.46633209856E+02  0.51100000000E-03 0.  1.
         23    2    1    0    0    0 -0.27066044634E+02 -0.12651628367E+02 -0.12301090223E+01  0.95097698405E+02  0.90274163532E+02 0.  0.
         11    1    3    3    0    0 -0.33979207085E+02  0.31790453523E+02 -0.13549435442E+02  0.48464488549E+02  0.51100000000E-03 0. -1.
         22    1    1    0    0    0  0.27066044634E+02  0.12651628367E+02  0.12301090223E+01  0.29902301595E+02  0.00000000000E+00 0. -1.
</event>
<event>
 5    1  0.8875601E-005  0.9118800E+02  0.7818608E-02  0.1130116E+00
         25   -1    0    0    0    0  0.00000000000E+00  0.00000000000E+00  0.99999998245E-14  0.12500000000E+03  0.12500000000E+03 0.  0.
        -11    1    3    3    0    0  0.12401417931E+02  0.16983310017E+01  0.47124006890E+02  0.48758091846E+02  0.51100000000E-03 0.  1.
         23    2    1    0    0    0  0.28188109717E+02  0.74434901088E+01  0.33393288430E+01  0.95655048279E+02  0.91042638745E+02 0.  0.
         11    1    3    3    0    0  0.15786691786E+02  0.57451591070E+01 -0.43784678047E+02  0.46896956432E+02  0.51100000000E-03 0. -1.
         22    1    1    0    0    0 -0.28188109717E+02 -0.74434901088E+01 -0.33393288430E+01  0.29344951721E+02  0.00000000000E+00 0.  1.
</event>
<event>
 5    1  0.8875601E-005  0.9118800E+02  0.7818608E-02  0.1130116E+00
         25   -1    0    0    0    0  0.00000000000E+00  0.00000000000E+00  0.99999998245E-14  0.12500000000E+03  0.12500000000E+03 0.  0.
        -11    1    3    3    0    0 -0.35729455425E+01  0.11818845555E+02 -0.30636133135E+02  0.33030647948E+02  0.51100000000E-03 0.  1.
         23    2    1    0    0    0 -0.21013466232E+02 -0.39731387423E+01  0.24202123823E+02  0.92703028129E+02  0.86895092106E+02 0.  0.
         11    1    3    3    0    0 -0.17440520689E+02 -0.15791984298E+02  0.54838256958E+02  0.59672380181E+02  0.51100000000E-03 0. -1.
         22    1    1    0    0    0  0.21013466232E+02  0.39731387423E+01 -0.24202123823E+02  0.32296971871E+02  0.00000000000E+00 0. -1.
</event>
<event>
 5    1  0.8875601E-005  0.9118800E+02  0.7818608E-02  0.1130116E+00
         25   -1    0    0    0    0  0.00000000000E+00  0.00000000000E+00  0.99999998245E-14  0.12500000000E+03  0.12500000000E+03 0.  0.
        -11    1    3    3    0    0  0.17168094391E+02  0.26296965429E+02 -0.19237593308E+02  0.36828777503E+02  0.51100000000E-03 0.  1.
         23    2    1    0    0    0 -0.26215781219E+01 -0.23664461764E+01  0.28699482472E+02  0.96084034972E+02  0.91629737220E+02 0.  0.
         11    1    3    3    0    0 -0.19789672513E+02 -0.28663411606E+02  0.47937075780E+02  0.59255257469E+02  0.51100000000E-03 0. -1.
         22    1    1    0    0    0  0.26215781219E+01  0.23664461764E+01 -0.28699482472E+02  0.28915965028E+02  0.00000000000E+00 0. -1.
</event>
<event>
 5    1  0.8875601E-005  0.9118800E+02  0.7818608E-02  0.1130116E+00
         25   -1    0    0    0    0  0.00000000000E+00  0.00000000000E+00  0.99999998245E-14  0.12500000000E+03  0.12500000000E+03 0.  0.
        -11    1    3    3    0    0 -0.23074587731E+02 -0.76750455819E+01 -0.56371367435E+02  0.61392784514E+02  0.51100000000E-03 0.  1.
         23    2    1    0    0    0 -0.26654593381E+01 -0.33804915563E+01 -0.28356739457E+02  0.96318349607E+02  0.91948830344E+02 0.  0.
         11    1    3    3    0    0  0.20409128392E+02  0.42945540256E+01  0.28014627978E+02  0.34925565093E+02  0.51100000000E-03 0. -1.
         22    1    1    0    0    0  0.26654593381E+01  0.33804915563E+01  0.28356739457E+02  0.28681650393E+02  0.00000000000E+00 0.  1.
</event>
<event>
 5    1  0.8875601E-005  0.9118800E+02  0.7818608E-02  0.1130116E+00
         25   -1    0    0    0    0  0.00000000000E+00  0.00000000000E+00  0.99999998245E-14  0.12500000000E+03  0.12500000000E+03 0.  0.
        -11    1    3    3    0    0 -0.55805382604E+01  0.43785806206E+02 -0.44333972921E+01  0.44362081153E+02  0.51100000000E-03 0. -1.
         23    2    1    0    0    0 -0.83712977121E+01  0.14717232096E+02 -0.34681420847E+02  0.86406263489E+02  0.77308252291E+02 0.  0.
         11    1    3    3    0    0 -0.27907594516E+01 -0.29068574110E+02 -0.30248023555E+02  0.42044182336E+02  0.51100000000E-03 0.  1.
         22    1    1    0    0    0  0.83712977121E+01 -0.14717232096E+02  0.34681420847E+02  0.38593736511E+02  0.00000000000E+00 0.  1.
</event>
<event>
 5    1  0.8875601E-005  0.9118800E+02  0.7818608E-02  0.1130116E+00
         25   -1    0    0    0    0  0.00000000000E+00  0.00000000000E+00  0.99999998245E-14  0.12500000000E+03  0.12500000000E+03 0.  0.
        -11    1    3    3    0    0  0.11248820641E+02 -0.28911068058E+02 -0.23842489036E+02  0.39126079611E+02  0.51100000000E-03 0.  1.
         23    2    1    0    0    0 -0.16040237032E+02 -0.14203720250E+02  0.21886557171E+02  0.94372295911E+02  0.89264068795E+02 0.  0.
         11    1    3    3    0    0 -0.27289057673E+02  0.14707347808E+02  0.45729046207E+02  0.55246216300E+02  0.51100000000E-03 0. -1.
         22    1    1    0    0    0  0.16040237032E+02  0.14203720250E+02 -0.21886557171E+02  0.30627704089E+02  0.00000000000E+00 0. -1.
</event>
<event>
 5    1  0.8875601E-005  0.9118800E+02  0.7818608E-02  0.1130116E+00
         25   -1    0    0    0    0  0.00000000000E+00  0.00000000000E+00  0.99999998245E-14  0.12500000000E+03  0.12500000000E+03 0.  0.
        -11    1    3    3    0    0  0.24421169336E+02 -0.11088049606E+02  0.33032429457E+02  0.42549732689E+02  0.51100000000E-03 0.  1.
         23    2    1    0    0    0 -0.10071658702E+02  0.21862060149E+02 -0.61027578029E+00  0.10092178538E+03  0.98007379028E+02 0.  0.
         11    1    3    3    0    0 -0.34492828038E+02  0.32950109755E+02 -0.33642705237E+02  0.58372052687E+02  0.51100000000E-03 0. -1.
         22    1    1    0    0    0  0.10071658702E+02 -0.21862060149E+02  0.61027578029E+00  0.24078214625E+02  0.00000000000E+00 0. -1.
</event>
<event>
 5    1  0.8875601E-005  0.9118800E+02  0.7818608E-02  0.1130116E+00
         25   -1    0    0    0    0  0.00000000000E+00  0.00000000000E+00  0.99999998245E-14  0.12500000000E+03  0.12500000000E+03 0.  0.
        -11    1    3    3    0    0 -0.84276890072E+01  0.29550649933E+02 -0.27782534636E+02  0.41426272878E+02  0.51100000000E-03 0. -1.
         23    2    1    0    0    0  0.25655883860E+02 -0.90386857579E+01 -0.11926875237E+02  0.95298609969E+02  0.90551932571E+02 0.  0.
         11    1    3    3    0    0  0.34083572867E+02 -0.38589335691E+02  0.15855659399E+02  0.53872337091E+02  0.51100000000E-03 0.  1.
         22    1    1    0    0    0 -0.25655883860E+02  0.90386857579E+01  0.11926875237E+02  0.29701390031E+02  0.00000000000E+00 0.  1.
</event>
<event>
 5    1  0.8875601E-005  0.9118800E+02  0.7818608E-02  0.1130116E+00
         25   -1    0    0    0    0  0.00000000000E+00  0.00000000000E+00  0.99999998245E-14  0.12500000000E+03  0.12500000000E+03 0.  0.
        -11    1    3    3    0    0  0.52863440042E+01  0.34937472772E+02  0.23353294582E+02  0.42355032815E+02  0.51100000000E-03 0.  1.
         23    2    1    0    0    0 -0.23872582526E+02 -0.90984149792E+01  0.18305535594E+01  0.99386872938E+02  0.96029777853E+02 0.  0.
         11    1    3    3    0    0 -0.29158926530E+02 -0.44035887751E+02 -0.21522741023E+02  0.57031840123E+02  0.51100000000E-03 0. -1.
         22    1    1    0    0    0  0.23872582526E+02  0.90984149792E+01 -0.18305535594E+01  0.25613127062E+02  0.00000000000E+00 0. -1.
</event>
<event>
 5    1  0.8875601E-005  0.9118800E+02  0.7818608E-02  0.1130116E+00
         25   -1    0    0    0    0  0.00000000000E+00  0.00000000000E+00  0.99999998245E-14  0.12500000000E+03  0.12500000000E+03 0.  0.
        -11    1    3    3    0    0 -0.39671398587E+02  0.24939534689E+02  0.14016336971E+02  0.48910714151E+02  0.51100000000E-03 0.  1.
         23    2    1    0    0    0  0.14415156895E+01  0.51916031740E+01  0.27898196809E+02  0.96586269232E+02  0.92312335622E+02 0.  0.
         11    1    3    3    0    0  0.41112914277E+02 -0.19747931515E+02  0.13881859837E+02  0.47675555081E+02  0.51100000000E-03 0. -1.
         22    1    1    0    0    0 -0.14415156895E+01 -0.51916031740E+01 -0.27898196809E+02  0.28413730768E+02  0.00000000000E+00 0.  1.
</event>
<event>
 5    1  0.8875601E-005  0.9118800E+02  0.7818608E-02  0.1130116E+00
         25   -1    0    0    0    0  0.00000000000E+00  0.00000000000E+00  0.99999998245E-14  0.12500000000E+03  0.12500000000E+03 0.  0.
        -11    1    3    3    0    0 -0.11351251102E+02 -0.19286102497E+02 -0.24039158948E+02  0.32843352666E+02  0.51100000000E-03 0. -1.
         23    2    1    0    0    0 -0.10699806260E+02  0.24712102025E+02  0.17115085111E+02  0.93092321005E+02  0.87453303260E+02 0.  0.
         11    1    3    3    0    0  0.65144484211E+00  0.43998204522E+02  0.41154244059E+02  0.60248968339E+02  0.51100000000E-03 0.  1.
         22    1    1    0    0    0  0.10699806260E+02 -0.24712102025E+02 -0.17115085111E+02  0.31907678995E+02  0.00000000000E+00 0.  1.
</event>
<event>
 5    1  0.8875601E-005  0.9118800E+02  0.7818608E-02  0.1130116E+00
         25   -1    0    0    0    0  0.00000000000E+00  0.00000000000E+00  0.99999998245E-14  0.12500000000E+03  0.12500000000E+03 0.  0.
        -11    1    3    3    0    0  0.54299357306E+02  0.13737144295E+02  0.21881397485E+02  0.60132561008E+02  0.51100000000E-03 0.  1.
         23    2    1    0    0    0  0.32602747446E+02  0.79687908768E+01  0.64451222832E-01  0.91437447609E+02  0.85055052185E+02 0.  0.
         11    1    3    3    0    0 -0.21696609860E+02 -0.57683534186E+01 -0.21816946262E+02  0.31304886600E+02  0.51100000000E-03 0. -1.
         22    1    1    0    0    0 -0.32602747446E+02 -0.79687908768E+01 -0.64451222832E-01  0.33562552391E+02  0.00000000000E+00 0.  1.
</event>
<event>
 5    1  0.8875601E-005  0.9118800E+02  0.7818608E-02  0.1130116E+00
         25   -1    0    0    0    0  0.00000000000E+00  0.00000000000E+00  0.99999998245E-14  0.12500000000E+03  0.12500000000E+03 0.  0.
        -11    1    3    3    0    0  0.38070560250E+02 -0.26137392415E+02 -0.23721118737E+02  0.51915530570E+02  0.51100000000E-03 0. -1.
         23    2    1    0    0    0 -0.34761253624E+01 -0.14928338506E+02 -0.25791675199E+02  0.94997512642E+02  0.90135332476E+02 0.  0.
         11    1    3    3    0    0 -0.41546685612E+02  0.11209053909E+02 -0.20705564626E+01  0.43081982072E+02  0.51100000000E-03 0.  1.
         22    1    1    0    0    0  0.34761253624E+01  0.14928338506E+02  0.25791675199E+02  0.30002487358E+02  0.00000000000E+00 0. -1.
</event>
<event>
 5    1  0.8875601E-005  0.9118800E+02  0.7818608E-02  0.1130116E+00
         25   -1    0    0    0    0  0.00000000000E+00  0.00000000000E+00  0.99999998245E-14  0.12500000000E+03  0.12500000000E+03 0.  0.
        -11    1    3    3    0    0 -0.37478694778E+02 -0.11214793643E+02  0.52941080686E+01  0.39477230643E+02  0.51100000000E-03 0. -1.
         23    2    1    0    0    0 -0.10560689638E+02  0.23530777211E+02  0.26275674813E+02  0.88181027599E+02  0.80126505601E+02 0.  0.
         11    1    3    3    0    0  0.26918005140E+02  0.34745570854E+02  0.20981566744E+02  0.48703796957E+02  0.51100000000E-03 0.  1.
         22    1    1    0    0    0  0.10560689638E+02 -0.23530777211E+02 -0.26275674813E+02  0.36818972401E+02  0.00000000000E+00 0. -1.
</event>
<event>
 5    1  0.8875601E-005  0.9118800E+02  0.7818608E-02  0.1130116E+00
         25   -1    0    0    0    0  0.00000000000E+00  0.00000000000E+00  0.99999998245E-14  0.12500000000E+03  0.12500000000E+03 0.  0.
        -11    1    3    3    0    0  0.17135306976E+01  0.47913324063E+02  0.95333488978E+01  0.48882589454E+02  0.51100000000E-03 0. -1.
         23    2    1    0    0    0  0.75104309275E+01  0.70754809564E+01  0.28799745083E+02  0.94407610092E+02  0.89313506946E+02 0.  0.
         11    1    3    3    0    0  0.57969002299E+01 -0.40837843107E+02  0.19266396185E+02  0.45525020638E+02  0.51100000000E-03 0.  1.
         22    1    1    0    0    0 -0.75104309275E+01 -0.70754809564E+01 -0.28799745083E+02  0.30592389908E+02  0.00000000000E+00 0. -1.
</event>
<event>
 5    1  0.8875601E-005  0.9118800E+02  0.7818608E-02  0.1130116E+00
         25   -1    0    0    0    0  0.00000000000E+00  0.00000000000E+00  0.99999998245E-14  0.12500000000E+03  0.12500000000E+03 0.  0.
        -11    1    3    3    0    0 -0.20611787167E+02 -0.26974181691E+02  0.40915904348E+02  0.53165434984E+02  0.51100000000E-03 0. -1.
         23    2    1    0    0    0 -0.30768823003E+02 -0.16810673829E+01  0.15191606225E+02  0.90644049187E+02  0.83880941201E+02 0.  0.
         11    1    3    3    0    0 -0.10157035836E+02  0.25293114308E+02 -0.25724298124E+02  0.37478614203E+02  0.51100000000E-03 0.  1.
         22    1    1    0    0    0  0.30768823003E+02  0.16810673829E+01 -0.15191606225E+02  0.34355950813E+02  0.00000000000E+00 0. -1.
</event>
<event>
 5    1  0.8875601E-005  0.9118800E+02  0.7818608E-02  0.1130116E+00
         25   -1    0    0    0    0  0.00000000000E+00  0.00000000000E+00  0.99999998245E-14  0.12500000000E+03  0.12500000000E+03 0.  0.
        -11    1    3    3    0    0 -0.28259979312E+02 -0.70177180265E+01  0.10806489202E+02  0.31058895765E+02  0.51100000000E-03 0. -1.
         23    2    1    0    0    0  0.31009869097E+02 -0.24098600020E+00 -0.67871330497E+01  0.93255154266E+02  0.87685737532E+02 0.  0.
         11    1    3    3    0    0  0.59269848408E+02  0.67767320263E+01 -0.17593622252E+02  0.62196258501E+02  0.51100000000E-03 0.  1.
         22    1    1    0    0    0 -0.31009869097E+02  0.24098600020E+00  0.67871330497E+01  0.31744845734E+02  0.00000000000E+00 0.  1.
</event>
<event>
 5    1  0.8875601E-005  0.9118800E+02  0.7818608E-02  0.1130116E+00
         25   -1    0    0    0    0  0.00000000000E+00  0.00000000000E+00  0.99999998245E-14  0.12500000000E+03  0.12500000000E+03 0.  0.
        -11    1    3    3    0    0  0.42758643216E+02 -0.37542502375E+02 -0.24294668703E+02  0.61870606769E+02  0.51100000000E-03 0.  1.
         23    2    1    0    0    0  0.19919986981E+02 -0.16843728130E+02 -0.17935310889E+02  0.93342576932E+02  0.87810274074E+02 0.  0.
         11    1    3    3    0    0 -0.22838656235E+02  0.20698774245E+02  0.63593578137E+01  0.31471970163E+02  0.51100000000E-03 0. -1.
         22    1    1    0    0    0 -0.19919986981E+02  0.16843728130E+02  0.17935310889E+02  0.31657423068E+02  0.00000000000E+00 0.  1.
</event>
<event>
 5    1  0.8875601E-005  0.9118800E+02  0.7818608E-02  0.1130116E+00
         25   -1    0    0    0    0  0.00000000000E+00  0.00000000000E+00  0.99999998245E-14  0.12500000000E+03  0.12500000000E+03 0.  0.
        -11    1    3    3    0    0 -0.25457882902E+02 -0.66623363476E+01  0.28802511034E+02  0.39013781790E+02  0.51100000000E-03 0. -1.
         23    2    1    0    0    0  0.11200638516E+02  0.26435566410E+02 -0.19936683211E+00  0.96288796234E+02  0.91908645178E+02 0.  0.
         11    1    3    3    0    0  0.36658521418E+02  0.33097902757E+02 -0.29001877866E+02  0.57275014444E+02  0.51100000000E-03 0.  1.
         22    1    1    0    0    0 -0.11200638516E+02 -0.26435566410E+02  0.19936683211E+00  0.28711203766E+02  0.00000000000E+00 0.  1.
</event>
<event>
 5    1  0.8875601E-005  0.9118800E+02  0.7818608E-02  0.1130116E+00
         25   -1    0    0    0    0  0.00000000000E+00  0.00000000000E+00  0.99999998245E-14  0.12500000000E+03  0.12500000000E+03 0.  0.
        -11    1    3    3    0    0 -0.71674209816E+01  0.48737259812E+01 -0.32392435380E+02  0.33531999621E+02  0.51100000000E-03 0.  1.
         23    2    1    0    0    0 -0.23810880983E+02  0.12487648879E+02  0.21580477844E+02  0.90523682742E+02  0.83701378038E+02 0.  0.
         11    1    3    3    0    0 -0.16643460001E+02  0.76139228976E+01  0.53972913225E+02  0.56991683121E+02  0.51100000000E-03 0. -1.
         22    1    1    0    0    0  0.23810880983E+02 -0.12487648879E+02 -0.21580477844E+02  0.34476317258E+02  0.00000000000E+00 0. -1.
</event>
<event>
 5    1  0.8875601E-005  0.9118800E+02  0.7818608E-02  0.1130116E+00
         25   -1    0    0    0    0  0.00000000000E+00  0.00000000000E+00  0.99999998245E-14  0.12500000000E+03  0.12500000000E+03 0.  0.
        -11    1    3    3    0    0  0.66419591035E+01 -0.52113707124E+02 -0.24898723246E+02  0.58136911773E+02  0.51100000000E-03 0.  1.
         23    2    1    0    0    0 -0.81502356634E+01 -0.29030119952E+02 -0.49153182426E+00  0.94843478162E+02  0.89921463181E+02 0.  0.
         11    1    3    3    0    0 -0.14792194767E+02  0.23083587172E+02  0.24407191422E+02  0.36706566390E+02  0.51100000000E-03 0. -1.
         22    1    1    0    0    0  0.81502356634E+01  0.29030119952E+02  0.49153182426E+00  0.30156521838E+02  0.00000000000E+00 0.  1.
</event>
<event>
 5    1  0.8875601E-005  0.9118800E+02  0.7818608E-02  0.1130116E+00
         25   -1    0    0    0    0  0.00000000000E+00  0.00000000000E+00  0.99999998245E-14  0.12500000000E+03  0.12500000000E+03 0.  0.
        -11    1    3    3    0    0  0.30885450426E+01 -0.28405905915E+02  0.23769841214E+02  0.37167727304E+02  0.51100000000E-03 0. -1.
         23    2    1    0    0    0 -0.25778077678E+02  0.10429221430E+02 -0.91874423493E+01  0.95713705504E+02  0.91123138532E+02 0.  0.
         11    1    3    3    0    0 -0.28866622720E+02  0.38835127345E+02 -0.32957283564E+02  0.58545978200E+02  0.51100000000E-03 0.  1.
         22    1    1    0    0    0  0.25778077678E+02 -0.10429221430E+02  0.91874423493E+01  0.29286294496E+02  0.00000000000E+00 0.  1.
</event>
<event>
 5    1  0.8875601E-005  0.9118800E+02  0.7818608E-02  0.1130116E+00
         25   -1    0    0    0    0  0.00000000000E+00  0.00000000000E+00  0.99999998245E-14  0.12500000000E+03  0.12500000000E+03 0.  0.
        -11    1    3    3    0    0  0.20822525346E+02 -0.27562167920E+02  0.70144666837E+01  0.35248452524E+02  0.51100000000E-03 0. -1.
         23    2    1    0    0    0  0.47167116307E+01  0.28811182022E+02  0.10483890634E+02  0.93979949372E+02  0.88712949128E+02 0.  0.
         11    1    3    3    0    0 -0.16105813715E+02  0.56373349943E+02  0.34694239503E+01  0.58731496848E+02  0.51100000000E-03 0.  1.
         22    1    1    0    0    0 -0.47167116307E+01 -0.28811182022E+02 -0.10483890634E+02  0.31020050628E+02  0.00000000000E+00 0.  1.
</event>
<event>
 5    1  0.8875601E-005  0.9118800E+02  0.7818608E-02  0.1130116E+00
         25   -1    0    0    0    0  0.00000000000E+00  0.00000000000E+00  0.99999998245E-14  0.12500000000E+03  0.12500000000E+03 0.  0.
        -11    1    3    3    0    0 -0.31820578063E+02  0.40575814447E+02  0.33649800195E+02  0.61573167531E+02  0.51100000000E-03 0. -1.
         23    2    1    0    0    0 -0.87202729022E+01  0.19449804654E+02  0.20164460031E+02  0.95658161119E+02  0.91046912522E+02 0.  0.
         11    1    3    3    0    0  0.23100305161E+02 -0.21126009793E+02 -0.13485340164E+02  0.34084993588E+02  0.51100000000E-03 0.  1.
         22    1    1    0    0    0  0.87202729022E+01 -0.19449804654E+02 -0.20164460031E+02  0.29341838881E+02  0.00000000000E+00 0. -1.
</event>
<event>
 5    1  0.8875601E-005  0.9118800E+02  0.7818608E-02  0.1130116E+00
         25   -1    0    0    0    0  0.00000000000E+00  0.00000000000E+00  0.99999998245E-14  0.12500000000E+03  0.12500000000E+03 0.  0.
        -11    1    3    3    0    0 -0.23522525722E+02  0.30721217737E+02  0.33045631068E+02  0.50883358464E+02  0.51100000000E-03 0.  1.
         23    2    1    0    0    0 -0.32868947443E+02  0.18934424136E+02  0.13689653024E+00  0.87067179593E+02  0.78369604428E+02 0.  0.
         11    1    3    3    0    0 -0.93464217206E+01 -0.11786793601E+02 -0.32908734538E+02  0.36183821129E+02  0.51100000000E-03 0. -1.
         22    1    1    0    0    0  0.32868947443E+02 -0.18934424136E+02 -0.13689653024E+00  0.37932820407E+02  0.00000000000E+00 0.  1.
</event>
<event>
 5    1  0.8875601E-005  0.9118800E+02  0.7818608E-02  0.1130116E+00
         25   -1    0    0    0    0  0.00000000000E+00  0.00000000000E+00  0.99999998245E-14  0.12500000000E+03  0.12500000000E+03 0.  0.
        -11    1    3    3    0    0  0.62514756968E+01 -0.11481239729E+02  0.34741846809E+02  0.37120017970E+02  0.51100000000E-03 0.  1.
         23    2    1    0    0    0 -0.10308738337E+02  0.31098289688E+02  0.44494563657E+01  0.91936857839E+02  0.85785863986E+02 0.  0.
         11    1    3    3    0    0 -0.16560214034E+02  0.42579529416E+02 -0.30292390444E+02  0.54816839869E+02  0.51100000000E-03 0. -1.
         22    1    1    0    0    0  0.10308738337E+02 -0.31098289688E+02 -0.44494563657E+01  0.33063142161E+02  0.00000000000E+00 0. -1.
</event>
<event>
 5    1  0.8875601E-005  0.9118800E+02  0.7818608E-02  0.1130116E+00
         25   -1    0    0    0    0  0.00000000000E+00  0.00000000000E+00  0.99999998245E-14  0.12500000000E+03  0.12500000000E+03 0.  0.
        -11    1    3    3    0    0 -0.18692130031E+02  0.35405979298E+02 -0.93333403498E+01  0.41110708307E+02  0.51100000000E-03 0.  1.
         23    2    1    0    0    0  0.24140035239E+02  0.84616322351E+01  0.12863927421E+02  0.96367480898E+02  0.92015597724E+02 0.  0.
         11    1    3    3    0    0  0.42832165270E+02 -0.26944347063E+02  0.22197267771E+02  0.55256772591E+02  0.51100000000E-03 0. -1.
         22    1    1    0    0    0 -0.24140035239E+02 -0.84616322351E+01 -0.12863927421E+02  0.28632519102E+02  0.00000000000E+00 0. -1.
</event>
<event>
 5    1  0.8875601E-005  0.9118800E+02  0.7818608E-02  0.1130116E+00
         25   -1    0    0    0    0  0.00000000000E+00  0.00000000000E+00  0.99999998245E-14  0.12500000000E+03  0.12500000000E+03 0.  0.
        -11    1    3    3    0    0  0.10908455462E+02  0.12056018394E+02 -0.29345876517E+02  0.33548806967E+02  0.51100000000E-03 0. -1.
         23    2    1    0    0    0 -0.23592755277E+02 -0.15923412733E+01  0.19123196256E+02  0.94588648709E+02  0.89566523753E+02 0.  0.
         11    1    3    3    0    0 -0.34501210739E+02 -0.13648359667E+02  0.48469072774E+02  0.61039841742E+02  0.51100000000E-03 0.  1.
         22    1    1    0    0    0  0.23592755277E+02  0.15923412733E+01 -0.19123196256E+02  0.30411351291E+02  0.00000000000E+00 0.  1.
</event>
<event>
 5    1  0.8875601E-005  0.9118800E+02  0.7818608E-02  0.1130116E+00
         25   -1    0    0    0    0  0.00000000000E+00  0.00000000000E+00  0.99999998245E-14  0.12500000000E+03  0.12500000000E+03 0.  0.
        -11    1    3    3    0    0  0.28512981907E+02  0.11460738636E+02  0.17455254072E+02  0.35341541595E+02  0.51100000000E-03 0.  1.
         23    2    1    0    0    0 -0.69858309609E+01 -0.30594031566E+02 -0.15905953906E+01  0.93578246462E+02  0.88145116799E+02 0.  0.
         11    1    3    3    0    0 -0.35498812867E+02 -0.42054770203E+02 -0.19045849463E+02  0.58236704868E+02  0.51100000000E-03 0. -1.
         22    1    1    0    0    0  0.69858309609E+01  0.30594031566E+02  0.15905953906E+01  0.31421753538E+02  0.00000000000E+00 0. -1.
</event>
<event>
 5    1  0.8875601E-005  0.9118800E+02  0.7818608E-02  0.1130116E+00
         25   -1    0    0    0    0  0.00000000000E+00  0.00000000000E+00  0.99999998245E-14  0.12500000000E+03  0.12500000000E+03 0.  0.
        -11    1    3    3    0    0  0.28846452862E+02 -0.14970866936E+01 -0.17718080223E+02  0.33886420265E+02  0.51100000000E-03 0.  1.
         23    2    1    0    0    0 -0.27582202932E+02  0.92402994329E+01  0.46744941756E+01  0.95537957505E+02  0.90881732907E+02 0.  0.
         11    1    3    3    0    0 -0.56428655795E+02  0.10737386126E+02  0.22392574398E+02  0.61651537240E+02  0.51100000000E-03 0. -1.
         22    1    1    0    0    0  0.27582202932E+02 -0.92402994329E+01 -0.46744941756E+01  0.29462042495E+02  0.00000000000E+00 0. -1.
</event>
<event>
 5    1  0.8875601E-005  0.9118800E+02  0.7818608E-02  0.1130116E+00
         25   -1    0    0    0    0  0.00000000000E+00  0.00000000000E+00  0.99999998245E-14  0.12500000000E+03  0.12500000000E+03 0.  0.
        -11    1    3    3    0    0  0.31223508116E+02  0.19373684759E+02 -0.42933147291E+02  0.56511080832E+02  0.51100000000E-03 0. -1.
         23    2    1    0    0    0  0.56928423707E+01 -0.57502036723E+01 -0.28912307800E+02  0.94976761686E+02  0.90106550381E+02 0.  0.
         11    1    3    3    0    0 -0.25530665745E+02 -0.25123888431E+02  0.14020839491E+02  0.38465680854E+02  0.51100000000E-03 0.  1.
         22    1    1    0    0    0 -0.56928423707E+01  0.57502036723E+01  0.28912307800E+02  0.30023238314E+02  0.00000000000E+00 0. -1.
</event>
<event>
 5    1  0.8875601E-005  0.9118800E+02  0.7818608E-02  0.1130116E+00
         25   -1    0    0    0    0  0.00000000000E+00  0.00000000000E+00  0.99999998245E-14  0.12500000000E+03  0.12500000000E+03 0.  0.
        -11    1    3    3    0    0 -0.91893566434E+01 -0.18322194377E+02 -0.35821289756E+02  0.41271199188E+02  0.51100000000E-03 0.  1.
         23    2    1    0    0    0  0.63667434146E+01 -0.72419048304E+01  0.21363557049E+02  0.10156109693E+03  0.98819402107E+02 0.  0.
         11    1    3    3    0    0  0.15556100058E+02  0.11080289547E+02  0.57184846806E+02  0.60289897743E+02  0.51100000000E-03 0. -1.
         22    1    1    0    0    0 -0.63667434146E+01  0.72419048304E+01 -0.21363557049E+02  0.23438903069E+02  0.00000000000E+00 0. -1.
</event>
<event>
 5    1  0.8875601E-005  0.9118800E+02  0.7818608E-02  0.1130116E+00
         25   -1    0    0    0    0  0.00000000000E+00  0.00000000000E+00  0.99999998245E-14  0.12500000000E+03  0.12500000000E+03 0.  0.
        -11    1    3    3    0    0  0.14869204903E+02 -0.55878812149E+02  0.16106342137E+02  0.60024571293E+02  0.51100000000E-03 0.  1.
         23    2    1    0    0    0  0.13026483545E+02 -0.25633848258E+02 -0.33763996543E+01  0.96048600644E+02  0.91581385451E+02 0.  0.
         11    1    3    3    0    0 -0.18427213584E+01  0.30244963891E+02 -0.19482741791E+02  0.36024029352E+02  0.51100000000E-03 0. -1.
         22    1    1    0    0    0 -0.13026483545E+02  0.25633848258E+02  0.33763996543E+01  0.28951399356E+02  0.00000000000E+00 0.  1.
</event>
<event>
 5    1  0.8875601E-005  0.9118800E+02  0.7818608E-02  0.1130116E+00
         25   -1    0    0    0    0  0.00000000000E+00  0.00000000000E+00  0.99999998245E-14  0.12500000000E+03  0.12500000000E+03 0.  0.
        -11    1    3    3    0    0 -0.14435854983E+02  0.55517244630E+02  0.19365797444E+02  0.60544136556E+02  0.51100000000E-03 0.  1.
         23    2    1    0    0    0  0.20666674781E+01  0.29053037749E+02  0.31276874017E+01  0.95706100543E+02  0.91112705677E+02 0.  0.
         11    1    3    3    0    0  0.16502522461E+02 -0.26464206881E+02 -0.16238110042E+02  0.35161963987E+02  0.51100000000E-03 0. -1.
         22    1    1    0    0    0 -0.20666674781E+01 -0.29053037749E+02 -0.31276874017E+01  0.29293899457E+02  0.00000000000E+00 0.  1.
</event>
<event>
 5    1  0.8875601E-005  0.9118800E+02  0.7818608E-02  0.1130116E+00
         25   -1    0    0    0    0  0.00000000000E+00  0.00000000000E+00  0.99999998245E-14  0.12500000000E+03  0.12500000000E+03 0.  0.
        -11    1    3    3    0    0 -0.32325438023E+01 -0.15594453965E+02  0.29097870424E+02  0.33171107871E+02  0.51100000000E-03 0.  1.
         23    2    1    0    0    0 -0.73554486852E+01  0.19792459933E+02 -0.21377326755E+02  0.94952800551E+02  0.90073304246E+02 0.  0.
         11    1    3    3    0    0 -0.41229048829E+01  0.35386913898E+02 -0.50475197179E+02  0.61781692680E+02  0.51100000000E-03 0. -1.
         22    1    1    0    0    0  0.73554486852E+01 -0.19792459933E+02  0.21377326755E+02  0.30047199449E+02  0.00000000000E+00 0. -1.
</event>
<event>
 5    1  0.8875601E-005  0.9118800E+02  0.7818608E-02  0.1130116E+00
         25   -1    0    0    0    0  0.00000000000E+00  0.00000000000E+00  0.99999998245E-14  0.12500000000E+03  0.12500000000E+03 0.  0.
        -11    1    3    3    0    0 -0.11210841881E+02 -0.34154435438E+02  0.45202397490E+02  0.57753486257E+02  0.51100000000E-03 0.  1.
         23    2    1    0    0    0 -0.21130183723E+02 -0.12867709691E+02  0.14795645344E+02  0.96173384903E+02  0.91751546176E+02 0.  0.
         11    1    3    3    0    0 -0.99193418413E+01  0.21286725747E+02 -0.30406752146E+02  0.38419898645E+02  0.51100000000E-03 0. -1.
         22    1    1    0    0    0  0.21130183723E+02  0.12867709691E+02 -0.14795645344E+02  0.28826615097E+02  0.00000000000E+00 0.  1.
</event>
<event>
 5    1  0.8875601E-005  0.9118800E+02  0.7818608E-02  0.1130116E+00
         25   -1    0    0    0    0  0.00000000000E+00  0.00000000000E+00  0.99999998245E-14  0.12500000000E+03  0.12500000000E+03 0.  0.
        -11    1    3    3    0    0  0.19365591126E+02 -0.34645941695E+02  0.18768550447E+02  0.43904736438E+02  0.51100000000E-03 0. -1.
         23    2    1    0    0    0  0.88571528186E+01  0.17444023609E+02  0.19951282636E+02  0.97057258643E+02  0.92947913698E+02 0.  0.
         11    1    3    3    0    0 -0.10508438308E+02  0.52089965304E+02  0.11827321889E+01  0.53152522205E+02  0.51100000000E-03 0.  1.
         22    1    1    0    0    0 -0.88571528186E+01 -0.17444023609E+02 -0.19951282636E+02  0.27942741357E+02  0.00000000000E+00 0.  1.
</event>
<event>
 5    1  0.8875601E-005  0.9118800E+02  0.7818608E-02  0.1130116E+00
         25   -1    0    0    0    0  0.00000000000E+00  0.00000000000E+00  0.99999998245E-14  0.12500000000E+03  0.12500000000E+03 0.  0.
        -11    1    3    3    0    0 -0.29585266454E+02  0.39807551713E+01 -0.45680905703E+02  0.54569950971E+02  0.51100000000E-03 0. -1.
         23    2    1    0    0    0  0.40327723018E+01  0.14316882166E+02 -0.26448381668E+02  0.94656083637E+02  0.89660587268E+02 0.  0.
         11    1    3    3    0    0  0.33618038756E+02  0.10336126994E+02  0.19232524035E+02  0.40086132665E+02  0.51100000000E-03 0.  1.
         22    1    1    0    0    0 -0.40327723018E+01 -0.14316882166E+02  0.26448381668E+02  0.30343916363E+02  0.00000000000E+00 0. -1.
</event>
<event>
 5    1  0.8875601E-005  0.9118800E+02  0.7818608E-02  0.1130116E+00
         25   -1    0    0    0    0  0.00000000000E+00  0.00000000000E+00  0.99999998245E-14  0.12500000000E+03  0.12500000000E+03 0.  0.
        -11    1    3    3    0    0 -0.85187443025E+01 -0.21953373276E+02 -0.25090996004E+02  0.34410429864E+02  0.51100000000E-03 0. -1.
         23    2    1    0    0    0  0.10197202375E+02  0.63047305709E+01  0.26371173081E+02  0.96031545890E+02  0.91558104351E+02 0.  0.
         11    1    3    3    0    0  0.18715946678E+02  0.28258103847E+02  0.51462169085E+02  0.61621116026E+02  0.51100000000E-03 0.  1.
         22    1    1    0    0    0 -0.10197202375E+02 -0.63047305709E+01 -0.26371173081E+02  0.28968454110E+02  0.00000000000E+00 0.  1.
</event>
<event>
 5    1  0.8875601E-005  0.9118800E+02  0.7818608E-02  0.1130116E+00
         25   -1    0    0    0    0  0.00000000000E+00  0.00000000000E+00  0.99999998245E-14  0.12500000000E+03  0.12500000000E+03 0.  0.
        -11    1    3    3    0    0 -0.40387119477E+02  0.26013633359E+02 -0.12955515342E+02  0.49756144527E+02  0.51100000000E-03 0.  1.
         23    2    1    0    0    0 -0.21977760639E+02 -0.15906865616E+02 -0.11413430532E+02  0.95566741041E+02  0.90921313564E+02 0.  0.
         11    1    3    3    0    0  0.18409358838E+02 -0.41920498975E+02  0.15420848095E+01  0.45810596514E+02  0.51100000000E-03 0. -1.
         22    1    1    0    0    0  0.21977760639E+02  0.15906865616E+02  0.11413430532E+02  0.29433258959E+02  0.00000000000E+00 0.  1.
</event>
<event>
 5    1  0.8875601E-005  0.9118800E+02  0.7818608E-02  0.1130116E+00
         25   -1    0    0    0    0  0.00000000000E+00  0.00000000000E+00  0.99999998245E-14  0.12500000000E+03  0.12500000000E+03 0.  0.
        -11    1    3    3    0    0 -0.30668344178E+02  0.39698000847E+02  0.36152150953E+02  0.61834105675E+02  0.51100000000E-03 0. -1.
         23    2    1    0    0    0 -0.10928571005E+02  0.23044379445E+02  0.13736090362E+02  0.96031788687E+02  0.91558435831E+02 0.  0.
         11    1    3    3    0    0  0.19739773173E+02 -0.16653621401E+02 -0.22416060591E+02  0.34197683012E+02  0.51100000000E-03 0.  1.
         22    1    1    0    0    0  0.10928571005E+02 -0.23044379445E+02 -0.13736090362E+02  0.28968211313E+02  0.00000000000E+00 0. -1.
</event>
<event>
 5    1  0.8875601E-005  0.9118800E+02  0.7818608E-02  0.1130116E+00
         25   -1    0    0    0    0  0.00000000000E+00  0.00000000000E+00  0.99999998245E-14  0.12500000000E+03  0.12500000000E+03 0.  0.
        -11    1    3    3    0    0  0.37290374453E+01 -0.10609357639E+02  0.56374087588E+02  0.57484797481E+02  0.51100000000E-03 0. -1.
         23    2    1    0    0    0  0.12878860393E+02  0.88648637533E+01  0.23573915261E+02  0.96712541027E+02  0.92483162018E+02 0.  0.
         11    1    3    3    0    0  0.91498229479E+01  0.19474221393E+02 -0.32800172327E+02  0.39227743546E+02  0.51100000000E-03 0.  1.
         22    1    1    0    0    0 -0.12878860393E+02 -0.88648637533E+01 -0.23573915261E+02  0.28287458973E+02  0.00000000000E+00 0.  1.
</event>
<event>
 5    1  0.8875601E-005  0.9118800E+02  0.7818608E-02  0.1130116E+00
         25   -1    0    0    0    0  0.00000000000E+00  0.00000000000E+00  0.99999998245E-14  0.12500000000E+03  0.12500000000E+03 0.  0.
        -11    1    3    3    0    0 -0.15555715454E+00  0.41992117790E+02  0.11190383250E+02  0.43457874224E+02  0.51100000000E-03 0. -1.
         23    2    1    0    0    0  0.19798435071E+02 -0.77014224197E+01  0.17629960517E+02  0.97393742623E+02  0.93399334343E+02 0.  0.
         11    1    3    3    0    0  0.19953992225E+02 -0.49693540210E+02  0.64395772671E+01  0.53935868399E+02  0.51100000000E-03 0.  1.
         22    1    1    0    0    0 -0.19798435071E+02  0.77014224197E+01 -0.17629960517E+02  0.27606257377E+02  0.00000000000E+00 0. -1.
</event>
<event>
 5    1  0.8875601E-005  0.9118800E+02  0.7818608E-02  0.1130116E+00
         25   -1    0    0    0    0  0.00000000000E+00  0.00000000000E+00  0.99999998245E-14  0.12500000000E+03  0.12500000000E+03 0.  0.
        -11    1    3    3    0    0 -0.79217788372E+01 -0.29987399641E+02 -0.31649753481E+02  0.44313718111E+02  0.51100000000E-03 0. -1.
         23    2    1    0    0    0  0.35215057533E+01  0.44486782259E+01  0.18179432229E+02  0.10595574898E+03  0.10423021273E+03 0.  0.
         11    1    3    3    0    0  0.11443284590E+02  0.34436077866E+02  0.49829185709E+02  0.61642030870E+02  0.51100000000E-03 0.  1.
         22    1    1    0    0    0 -0.35215057533E+01 -0.44486782259E+01 -0.18179432229E+02  0.19044251019E+02  0.00000000000E+00 0.  1.
</event>
<event>
 5    1  0.8875601E-005  0.9118800E+02  0.7818608E-02  0.1130116E+00
         25   -1    0    0    0    0  0.00000000000E+00  0.00000000000E+00  0.99999998245E-14  0.12500000000E+03  0.12500000000E+03 0.  0.
        -11    1    3    3    0    0  0.44591082747E+02  0.62615880121E+01  0.10913060155E+02  0.46332138168E+02  0.51100000000E-03 0.  1.
         23    2    1    0    0    0  0.66740728128E+01 -0.97839353413E+01 -0.22642894060E+02  0.99446736214E+02  0.96107669068E+02 0.  0.
         11    1    3    3    0    0 -0.37917009935E+02 -0.16045523353E+02 -0.33555954215E+02  0.53114598046E+02  0.51100000000E-03 0. -1.
         22    1    1    0    0    0 -0.66740728128E+01  0.97839353413E+01  0.22642894060E+02  0.25553263786E+02  0.00000000000E+00 0. -1.
</event>
<event>
 5    1  0.8875601E-005  0.9118800E+02  0.7818608E-02  0.1130116E+00
         25   -1    0    0    0    0  0.00000000000E+00  0.00000000000E+00  0.99999998245E-14  0.12500000000E+03  0.12500000000E+03 0.  0.
        -11    1    3    3    0    0  0.16245098845E+02  0.55397028046E+01 -0.57692649236E+02  0.60191638288E+02  0.51100000000E-03 0.  1.
         23    2    1    0    0    0  0.12436163947E+02  0.13179924457E+02 -0.24127574527E+02  0.94825367691E+02  0.89896284255E+02 0.  0.
         11    1    3    3    0    0 -0.38089348982E+01  0.76402216526E+01  0.33565074709E+02  0.34633729404E+02  0.51100000000E-03 0. -1.
         22    1    1    0    0    0 -0.12436163947E+02 -0.13179924457E+02  0.24127574527E+02  0.30174632309E+02  0.00000000000E+00 0.  1.
</event>
<event>
 5    1  0.8875601E-005  0.9118800E+02  0.7818608E-02  0.1130116E+00
         25   -1    0    0    0    0  0.00000000000E+00  0.00000000000E+00  0.99999998245E-14  0.12500000000E+03  0.12500000000E+03 0.  0.
        -11    1    3    3    0    0 -0.76339969566E+00  0.17620864876E+02  0.51355052748E+02  0.54299347152E+02  0.51100000000E-03 0.  1.
         23    2    1    0    0    0  0.23925875878E+01 -0.14297405601E+02  0.26184642322E+02  0.95070486543E+02  0.90236476193E+02 0.  0.
         11    1    3    3    0    0  0.31559872834E+01 -0.31918270476E+02 -0.25170410427E+02  0.40771139391E+02  0.51100000000E-03 0. -1.
         22    1    1    0    0    0 -0.23925875878E+01  0.14297405601E+02 -0.26184642322E+02  0.29929513457E+02  0.00000000000E+00 0.  1.
</event>
<event>
 5    1  0.8875601E-005  0.9118800E+02  0.7818608E-02  0.1130116E+00
         25   -1    0    0    0    0  0.00000000000E+00  0.00000000000E+00  0.99999998245E-14  0.12500000000E+03  0.12500000000E+03 0.  0.
        -11    1    3    3    0    0 -0.37166151367E+02 -0.15644254606E+02 -0.29583750000E+01  0.40432876382E+02  0.51100000000E-03 0.  1.
         23    2    1    0    0    0  0.31386493811E+01  0.25828070114E+02 -0.58358219939E+01  0.98335470300E+02  0.94651294630E+02 0.  0.
         11    1    3    3    0    0  0.40304800748E+02  0.41472324720E+02 -0.28774469939E+01  0.57902593919E+02  0.51100000000E-03 0. -1.
         22    1    1    0    0    0 -0.31386493811E+01 -0.25828070114E+02  0.58358219939E+01  0.26664529700E+02  0.00000000000E+00 0. -1.
</event>
<event>
 5    1  0.8875601E-005  0.9118800E+02  0.7818608E-02  0.1130116E+00
         25   -1    0    0    0    0  0.00000000000E+00  0.00000000000E+00  0.99999998245E-14  0.12500000000E+03  0.12500000000E+03 0.  0.
        -11    1    3    3    0    0  0.36770740789E+02 -0.39348098423E+02 -0.14969409993E+02  0.55896721401E+02  0.51100000000E-03 0.  1.
         23    2    1    0    0    0  0.14487454618E+02 -0.75254941387E+01 -0.24182295081E+02  0.95822906267E+02  0.91272813952E+02 0.  0.
         11    1    3    3    0    0 -0.22283286171E+02  0.31822604284E+02 -0.92128850882E+01  0.39926184865E+02  0.51100000000E-03 0. -1.
         22    1    1    0    0    0 -0.14487454618E+02  0.75254941387E+01  0.24182295081E+02  0.29177093733E+02  0.00000000000E+00 0.  1.
</event>
<event>
 5    1  0.8875601E-005  0.9118800E+02  0.7818608E-02  0.1130116E+00
         25   -1    0    0    0    0  0.00000000000E+00  0.00000000000E+00  0.99999998245E-14  0.12500000000E+03  0.12500000000E+03 0.  0.
        -11    1    3    3    0    0 -0.18538868905E+01  0.40179720614E+02  0.17866305362E+02  0.44011949659E+02  0.51100000000E-03 0. -1.
         23    2    1    0    0    0  0.13025255404E+02  0.10563906393E+02 -0.22940774208E+02  0.96582883365E+02  0.92307750710E+02 0.  0.
         11    1    3    3    0    0  0.14879142294E+02 -0.29615814221E+02 -0.40807079570E+02  0.52570933705E+02  0.51100000000E-03 0.  1.
         22    1    1    0    0    0 -0.13025255404E+02 -0.10563906393E+02  0.22940774208E+02  0.28417116635E+02  0.00000000000E+00 0.  1.
</event>
<event>
 5    1  0.8875601E-005  0.9118800E+02  0.7818608E-02  0.1130116E+00
         25   -1    0    0    0    0  0.00000000000E+00  0.00000000000E+00  0.99999998245E-14  0.12500000000E+03  0.12500000000E+03 0.  0.
        -11    1    3    3    0    0 -0.48179823992E+02 -0.11329869652E+02 -0.25446158826E+02  0.55652209170E+02  0.51100000000E-03 0. -1.
         23    2    1    0    0    0 -0.53676957924E+01  0.10922770522E+02 -0.16130560816E+02  0.10479321732E+03  0.10282657405E+03 0.  0.
         11    1    3    3    0    0  0.42812128199E+02  0.22252640173E+02  0.93155980105E+01  0.49141008152E+02  0.51100000000E-03 0.  1.
         22    1    1    0    0    0  0.53676957924E+01 -0.10922770522E+02  0.16130560816E+02  0.20206782679E+02  0.00000000000E+00 0. -1.
</event>
<event>
 5    1  0.8875601E-005  0.9118800E+02  0.7818608E-02  0.1130116E+00
         25   -1    0    0    0    0  0.00000000000E+00  0.00000000000E+00  0.99999998245E-14  0.12500000000E+03  0.12500000000E+03 0.  0.
        -11    1    3    3    0    0  0.27096214182E+02  0.31377515128E+02 -0.39384292130E+02  0.57182827365E+02  0.51100000000E-03 0. -1.
         23    2    1    0    0    0  0.14656321764E+02 -0.32347690360E+01 -0.23205092024E+02  0.97364012697E+02  0.93359537136E+02 0.  0.
         11    1    3    3    0    0 -0.12439892418E+02 -0.34612284164E+02  0.16179200106E+02  0.40181185333E+02  0.51100000000E-03 0.  1.
         22    1    1    0    0    0 -0.14656321764E+02  0.32347690360E+01  0.23205092024E+02  0.27635987303E+02  0.00000000000E+00 0. -1.
</event>
<event>
 5    1  0.8875601E-005  0.9118800E+02  0.7818608E-02  0.1130116E+00
         25   -1    0    0    0    0  0.00000000000E+00  0.00000000000E+00  0.99999998245E-14  0.12500000000E+03  0.12500000000E+03 0.  0.
        -11    1    3    3    0    0 -0.11356759564E+02  0.43636201651E+01  0.60457232223E+02  0.61669231365E+02  0.51100000000E-03 0. -1.
         23    2    1    0    0    0 -0.45499370965E+01  0.91144225201E+01  0.26961193910E+02  0.96178469809E+02  0.91758473463E+02 0.  0.
         11    1    3    3    0    0  0.68068224677E+01  0.47508023549E+01 -0.33496038313E+02  0.34509238445E+02  0.51100000000E-03 0.  1.
         22    1    1    0    0    0  0.45499370965E+01 -0.91144225201E+01 -0.26961193910E+02  0.28821530191E+02  0.00000000000E+00 0. -1.
</event>
<event>
 5    1  0.8875601E-005  0.9118800E+02  0.7818608E-02  0.1130116E+00
         25   -1    0    0    0    0  0.00000000000E+00  0.00000000000E+00  0.99999998245E-14  0.12500000000E+03  0.12500000000E+03 0.  0.
        -11    1    3    3    0    0  0.90640103311E+01  0.48110872359E+02 -0.20911941843E+02  0.53236469026E+02  0.51100000000E-03 0.  1.
         23    2    1    0    0    0  0.21481990984E+02  0.18956504181E+02  0.70467802437E+01  0.95496066377E+02  0.90824096992E+02 0.  0.
         11    1    3    3    0    0  0.12417980653E+02 -0.29154368178E+02  0.27958722086E+02  0.42259597352E+02  0.51100000000E-03 0. -1.
         22    1    1    0    0    0 -0.21481990984E+02 -0.18956504181E+02 -0.70467802437E+01  0.29503933623E+02  0.00000000000E+00 0.  1.
</event>
<event>
 5    1  0.8875601E-005  0.9118800E+02  0.7818608E-02  0.1130116E+00
         25   -1    0    0    0    0  0.00000000000E+00  0.00000000000E+00  0.99999998245E-14  0.12500000000E+03  0.12500000000E+03 0.  0.
        -11    1    3    3    0    0  0.72767579230E+01 -0.13375849340E+02 -0.39009989052E+02  0.41876530390E+02  0.51100000000E-03 0.  1.
         23    2    1    0    0    0 -0.21953475448E+02  0.13571626182E+02  0.21489505049E+01  0.99100924539E+02  0.95656840501E+02 0.  0.
         11    1    3    3    0    0 -0.29230233371E+02  0.26947475522E+02  0.41158939557E+02  0.57224394148E+02  0.51100000000E-03 0. -1.
         22    1    1    0    0    0  0.21953475448E+02 -0.13571626182E+02 -0.21489505049E+01  0.25899075461E+02  0.00000000000E+00 0. -1.
</event>
<event>
 5    1  0.8875601E-005  0.9118800E+02  0.7818608E-02  0.1130116E+00
         25   -1    0    0    0    0  0.00000000000E+00  0.00000000000E+00  0.99999998245E-14  0.12500000000E+03  0.12500000000E+03 0.  0.
        -11    1    3    3    0    0  0.97009891204E+01 -0.53786495308E+02  0.30211493408E+02  0.62448623696E+02  0.51100000000E-03 0. -1.
         23    2    1    0    0    0  0.50911379040E+01 -0.23978858610E+02  0.15394990249E+02  0.96053306404E+02  0.91587808146E+02 0.  0.
         11    1    3    3    0    0 -0.46098512165E+01  0.29807636698E+02 -0.14816503158E+02  0.33604682707E+02  0.51100000000E-03 0.  1.
         22    1    1    0    0    0 -0.50911379040E+01  0.23978858610E+02 -0.15394990249E+02  0.28946693596E+02  0.00000000000E+00 0. -1.
</event>
<event>
 5    1  0.8875601E-005  0.9118800E+02  0.7818608E-02  0.1130116E+00
         25   -1    0    0    0    0  0.00000000000E+00  0.00000000000E+00  0.99999998245E-14  0.12500000000E+03  0.12500000000E+03 0.  0.
        -11    1    3    3    0    0 -0.37178506885E+02  0.78949687342E+01 -0.47892310935E+01  0.38308075392E+02  0.51100000000E-03 0.  1.
         23    2    1    0    0    0  0.14785238186E+02 -0.43875783498E+00 -0.26030126293E+02  0.95060673830E+02  0.90222882117E+02 0.  0.
         11    1    3    3    0    0  0.51963745071E+02 -0.83337265692E+01 -0.21240895200E+02  0.56752598438E+02  0.51100000000E-03 0. -1.
         22    1    1    0    0    0 -0.14785238186E+02  0.43875783498E+00  0.26030126293E+02  0.29939326170E+02  0.00000000000E+00 0. -1.
</event>
<event>
 5    1  0.8875601E-005  0.9118800E+02  0.7818608E-02  0.1130116E+00
         25   -1    0    0    0    0  0.00000000000E+00  0.00000000000E+00  0.99999998245E-14  0.12500000000E+03  0.12500000000E+03 0.  0.
        -11    1    3    3    0    0 -0.27264547068E+02  0.27294282856E+02 -0.31084221069E+02  0.49543538460E+02  0.51100000000E-03 0.  1.
         23    2    1    0    0    0 -0.60553828493E+01 -0.13564635807E+02 -0.24917730566E+02  0.95990341219E+02  0.91501832248E+02 0.  0.
         11    1    3    3    0    0  0.21209164219E+02 -0.40858918662E+02  0.61664905031E+01  0.46446802759E+02  0.51100000000E-03 0. -1.
         22    1    1    0    0    0  0.60553828493E+01  0.13564635807E+02  0.24917730566E+02  0.29009658781E+02  0.00000000000E+00 0. -1.
</event>
<event>
 5    1  0.8875601E-005  0.9118800E+02  0.7818608E-02  0.1130116E+00
         25   -1    0    0    0    0  0.00000000000E+00  0.00000000000E+00  0.99999998245E-14  0.12500000000E+03  0.12500000000E+03 0.  0.
        -11    1    3    3    0    0 -0.24747320195E+02 -0.25214478688E+02  0.59962021477E+01  0.35835097779E+02  0.51100000000E-03 0.  1.
         23    2    1    0    0    0  0.55600887509E+01  0.25519494820E+02 -0.99579091134E+01  0.97047913196E+02  0.92935344724E+02 0.  0.
         11    1    3    3    0    0  0.30307408946E+02  0.50733973508E+02 -0.15954111261E+02  0.61212815417E+02  0.51100000000E-03 0. -1.
         22    1    1    0    0    0 -0.55600887509E+01 -0.25519494820E+02  0.99579091134E+01  0.27952086804E+02  0.00000000000E+00 0. -1.
</event>
<event>
 5    1  0.8875601E-005  0.9118800E+02  0.7818608E-02  0.1130116E+00
         25   -1    0    0    0    0  0.00000000000E+00  0.00000000000E+00  0.99999998245E-14  0.12500000000E+03  0.12500000000E+03 0.  0.
        -11    1    3    3    0    0  0.24685714310E+02 -0.13899375468E+02 -0.55507878040E+02  0.62319352164E+02  0.51100000000E-03 0.  1.
         23    2    1    0    0    0  0.14091889102E+02 -0.52086527220E+01 -0.23890707594E+02  0.96778070389E+02  0.92571688962E+02 0.  0.
         11    1    3    3    0    0 -0.10593825208E+02  0.86907227457E+01  0.31617170446E+02  0.34458718225E+02  0.51100000000E-03 0. -1.
         22    1    1    0    0    0 -0.14091889102E+02  0.52086527220E+01  0.23890707594E+02  0.28221929611E+02  0.00000000000E+00 0.  1.
</event>
<event>
 5    1  0.8875601E-005  0.9118800E+02  0.7818608E-02  0.1130116E+00
         25   -1    0    0    0    0  0.00000000000E+00  0.00000000000E+00  0.99999998245E-14  0.12500000000E+03  0.12500000000E+03 0.  0.
        -11    1    3    3    0    0  0.21049290481E+02  0.35657587331E+02  0.42989704507E+02  0.59687945666E+02  0.51100000000E-03 0.  1.
         23    2    1    0    0    0 -0.41094653477E+01  0.11510474809E+02  0.20341717024E+02  0.10126891938E+03  0.98449123133E+02 0.  0.
         11    1    3    3    0    0 -0.25158755828E+02 -0.24147112522E+02 -0.22647987483E+02  0.41580973717E+02  0.51100000000E-03 0. -1.
         22    1    1    0    0    0  0.41094653477E+01 -0.11510474809E+02 -0.20341717024E+02  0.23731080617E+02  0.00000000000E+00 0.  1.
</event>
<event>
 5    1  0.8875601E-005  0.9118800E+02  0.7818608E-02  0.1130116E+00
         25   -1    0    0    0    0  0.00000000000E+00  0.00000000000E+00  0.99999998245E-14  0.12500000000E+03  0.12500000000E+03 0.  0.
        -11    1    3    3    0    0  0.90000276815E+01  0.17784315727E+02  0.32593167783E+02  0.38204672104E+02  0.51100000000E-03 0.  1.
         23    2    1    0    0    0 -0.12294902356E+02 -0.26104067227E+02  0.13908495739E+01  0.96111915739E+02  0.91667763880E+02 0.  0.
         11    1    3    3    0    0 -0.21294930038E+02 -0.43888382953E+02 -0.31202318209E+02  0.57907243636E+02  0.51100000000E-03 0. -1.
         22    1    1    0    0    0  0.12294902356E+02  0.26104067227E+02 -0.13908495739E+01  0.28888084261E+02  0.00000000000E+00 0. -1.
</event>
<event>
 5    1  0.8875601E-005  0.9118800E+02  0.7818608E-02  0.1130116E+00
         25   -1    0    0    0    0  0.00000000000E+00  0.00000000000E+00  0.99999998245E-14  0.12500000000E+03  0.12500000000E+03 0.  0.
        -11    1    3    3    0    0  0.37595924582E+02 -0.31133546475E+01  0.38413558839E+02  0.53840022523E+02  0.51100000000E-03 0. -1.
         23    2    1    0    0    0  0.17825455396E+02  0.21165997777E+02  0.11863282208E+02  0.94892130818E+02  0.89989069916E+02 0.  0.
         11    1    3    3    0    0 -0.19770469186E+02  0.24279352425E+02 -0.26550276631E+02  0.41052108295E+02  0.51100000000E-03 0.  1.
         22    1    1    0    0    0 -0.17825455396E+02 -0.21165997777E+02 -0.11863282208E+02  0.30107869182E+02  0.00000000000E+00 0. -1.
</event>
<event>
 5    1  0.8875601E-005  0.9118800E+02  0.7818608E-02  0.1130116E+00
         25   -1    0    0    0    0  0.00000000000E+00  0.00000000000E+00  0.99999998245E-14  0.12500000000E+03  0.12500000000E+03 0.  0.
        -11    1    3    3    0    0 -0.14192460579E+02  0.38611861815E+02  0.95778533239E+01  0.42237863164E+02  0.51100000000E-03 0.  1.
         23    2    1    0    0    0 -0.15777518619E+02 -0.13572385893E+02  0.20731439200E+02  0.95624290240E+02  0.91000398680E+02 0.  0.
         11    1    3    3    0    0 -0.15850580404E+01 -0.52184247707E+02  0.11153585876E+02  0.53386427076E+02  0.51100000000E-03 0. -1.
         22    1    1    0    0    0  0.15777518619E+02  0.13572385893E+02 -0.20731439200E+02  0.29375709760E+02  0.00000000000E+00 0. -1.
</event>
<event>
 5    1  0.8875601E-005  0.9118800E+02  0.7818608E-02  0.1130116E+00
         25   -1    0    0    0    0  0.00000000000E+00  0.00000000000E+00  0.99999998245E-14  0.12500000000E+03  0.12500000000E+03 0.  0.
        -11    1    3    3    0    0  0.38452373419E+02  0.30180814500E+02 -0.98099089763E+01  0.49856803947E+02  0.51100000000E-03 0.  1.
         23    2    1    0    0    0  0.15190387916E+02  0.73844257546E+01  0.23248171729E+02  0.96264044865E+02  0.91874976007E+02 0.  0.
         11    1    3    3    0    0 -0.23261985503E+02 -0.22796388746E+02  0.33058080706E+02  0.46407240918E+02  0.51100000000E-03 0. -1.
         22    1    1    0    0    0 -0.15190387916E+02 -0.73844257546E+01 -0.23248171729E+02  0.28735955135E+02  0.00000000000E+00 0.  1.
</event>
<event>
 5    1  0.8875601E-005  0.9118800E+02  0.7818608E-02  0.1130116E+00
         25   -1    0    0    0    0  0.00000000000E+00  0.00000000000E+00  0.99999998245E-14  0.12500000000E+03  0.12500000000E+03 0.  0.
        -11    1    3    3    0    0 -0.24293080218E+02  0.41491521918E+02 -0.32085653901E+02  0.57803021756E+02  0.51100000000E-03 0. -1.
         23    2    1    0    0    0  0.29666043217E+01  0.27469118666E+02 -0.98709591032E+01  0.95660793209E+02  0.91050526095E+02 0.  0.
         11    1    3    3    0    0  0.27259684540E+02 -0.14022403252E+02  0.22214694798E+02  0.37857771453E+02  0.51100000000E-03 0.  1.
         22    1    1    0    0    0 -0.29666043217E+01 -0.27469118666E+02  0.98709591032E+01  0.29339206791E+02  0.00000000000E+00 0. -1.
</event>
<event>
 5    1  0.8875601E-005  0.9118800E+02  0.7818608E-02  0.1130116E+00
         25   -1    0    0    0    0  0.00000000000E+00  0.00000000000E+00  0.99999998245E-14  0.12500000000E+03  0.12500000000E+03 0.  0.
        -11    1    3    3    0    0  0.22984977245E+02 -0.54253997663E+01  0.50778733080E+02  0.56001998849E+02  0.51100000000E-03 0. -1.
         23    2    1    0    0    0  0.71653682254E+01  0.17366812758E+02  0.23536590779E+02  0.94884890957E+02  0.89979012771E+02 0.  0.
         11    1    3    3    0    0 -0.15819609019E+02  0.22792212525E+02 -0.27242142301E+02  0.38882892109E+02  0.51100000000E-03 0.  1.
         22    1    1    0    0    0 -0.71653682254E+01 -0.17366812758E+02 -0.23536590779E+02  0.30115109043E+02  0.00000000000E+00 0. -1.
</event>
<event>
 5    1  0.8875601E-005  0.9118800E+02  0.7818608E-02  0.1130116E+00
         25   -1    0    0    0    0  0.00000000000E+00  0.00000000000E+00  0.99999998245E-14  0.12500000000E+03  0.12500000000E+03 0.  0.
        -11    1    3    3    0    0 -0.20484734587E+02  0.31873462289E+02 -0.35260724210E+02  0.51757710744E+02  0.51100000000E-03 0.  1.
         23    2    1    0    0    0 -0.17508255162E+02  0.22017497719E+02  0.76190978118E+01  0.95856220970E+02  0.91318427727E+02 0.  0.
         11    1    3    3    0    0  0.29764794246E+01 -0.98559645695E+01  0.42879822021E+02  0.44098510227E+02  0.51100000000E-03 0. -1.
         22    1    1    0    0    0  0.17508255162E+02 -0.22017497719E+02 -0.76190978118E+01  0.29143779030E+02  0.00000000000E+00 0.  1.
</event>
<event>
 5    1  0.8875601E-005  0.9118800E+02  0.7818608E-02  0.1130116E+00
         25   -1    0    0    0    0  0.00000000000E+00  0.00000000000E+00  0.99999998245E-14  0.12500000000E+03  0.12500000000E+03 0.  0.
        -11    1    3    3    0    0  0.17544599097E+02 -0.28524882942E+02 -0.42321934065E+02  0.53968768817E+02  0.51100000000E-03 0. -1.
         23    2    1    0    0    0  0.27461559675E+02 -0.38663411686E+01 -0.10703943141E+02  0.95273576526E+02  0.90517369225E+02 0.  0.
         11    1    3    3    0    0  0.99169605782E+01  0.24658541774E+02  0.31617990925E+02  0.41304807709E+02  0.51100000000E-03 0.  1.
         22    1    1    0    0    0 -0.27461559675E+02  0.38663411686E+01  0.10703943141E+02  0.29726423474E+02  0.00000000000E+00 0. -1.
</event>
<event>
 5    1  0.8875601E-005  0.9118800E+02  0.7818608E-02  0.1130116E+00
         25   -1    0    0    0    0  0.00000000000E+00  0.00000000000E+00  0.99999998245E-14  0.12500000000E+03  0.12500000000E+03 0.  0.
        -11    1    3    3    0    0  0.26726934854E+02  0.10717186997E+02 -0.45767253385E+02  0.54072438696E+02  0.51100000000E-03 0.  1.
         23    2    1    0    0    0 -0.44471990097E+01  0.20916040614E+02 -0.18355357426E+02  0.96818845300E+02  0.92626731158E+02 0.  0.
         11    1    3    3    0    0 -0.31174133864E+02  0.10198853616E+02  0.27411895959E+02  0.42746406604E+02  0.51100000000E-03 0. -1.
         22    1    1    0    0    0  0.44471990097E+01 -0.20916040614E+02  0.18355357426E+02  0.28181154700E+02  0.00000000000E+00 0.  1.
</event>
<event>
 5    1  0.8875601E-005  0.9118800E+02  0.7818608E-02  0.1130116E+00
         25   -1    0    0    0    0  0.00000000000E+00  0.00000000000E+00  0.99999998245E-14  0.12500000000E+03  0.12500000000E+03 0.  0.
        -11    1    3    3    0    0 -0.36694897831E+02  0.78294596673E+00 -0.25536382286E+02  0.44712809705E+02  0.51100000000E-03 0.  1.
         23    2    1    0    0    0  0.11041031422E+02  0.12414579699E+02 -0.26347007576E+02  0.93852111272E+02  0.88532637022E+02 0.  0.
         11    1    3    3    0    0  0.47735929253E+02  0.11631633733E+02 -0.81062528994E+00  0.49139301568E+02  0.51100000000E-03 0. -1.
         22    1    1    0    0    0 -0.11041031422E+02 -0.12414579699E+02  0.26347007576E+02  0.31147888728E+02  0.00000000000E+00 0. -1.
</event>
<event>
 5    1  0.8875601E-005  0.9118800E+02  0.7818608E-02  0.1130116E+00
         25   -1    0    0    0    0  0.00000000000E+00  0.00000000000E+00  0.99999998245E-14  0.12500000000E+03  0.12500000000E+03 0.  0.
        -11    1    3    3    0    0 -0.92734808619E+01  0.48067746533E+02  0.41914947948E+01  0.49133230435E+02  0.51100000000E-03 0.  1.
         23    2    1    0    0    0  0.21491257486E+02  0.20668102813E+02  0.14854238619E+02  0.91687944717E+02  0.85422398581E+02 0.  0.
         11    1    3    3    0    0  0.30764738347E+02 -0.27399643720E+02  0.10662743824E+02  0.42554714283E+02  0.51100000000E-03 0. -1.
         22    1    1    0    0    0 -0.21491257486E+02 -0.20668102813E+02 -0.14854238619E+02  0.33312055283E+02  0.00000000000E+00 0.  1.
</event>
<event>
 5    1  0.8875601E-005  0.9118800E+02  0.7818608E-02  0.1130116E+00
         25   -1    0    0    0    0  0.00000000000E+00  0.00000000000E+00  0.99999998245E-14  0.12500000000E+03  0.12500000000E+03 0.  0.
        -11    1    3    3    0    0 -0.20746903738E+02 -0.43334011444E+02  0.21013641355E+02  0.52438951990E+02  0.51100000000E-03 0.  1.
         23    2    1    0    0    0 -0.25925816894E+01 -0.29797381812E+02 -0.12249441957E+02  0.92678888154E+02  0.86860359420E+02 0.  0.
         11    1    3    3    0    0  0.18154322049E+02  0.13536629632E+02 -0.33263083312E+02  0.40239936164E+02  0.51100000000E-03 0. -1.
         22    1    1    0    0    0  0.25925816894E+01  0.29797381812E+02  0.12249441957E+02  0.32321111846E+02  0.00000000000E+00 0.  1.
</event>
<event>
 5    1  0.8875601E-005  0.9118800E+02  0.7818608E-02  0.1130116E+00
         25   -1    0    0    0    0  0.00000000000E+00  0.00000000000E+00  0.99999998245E-14  0.12500000000E+03  0.12500000000E+03 0.  0.
        -11    1    3    3    0    0 -0.61030472247E+01 -0.19315612208E+01  0.59182233009E+02  0.59527429126E+02  0.51100000000E-03 0.  1.
         23    2    1    0    0    0  0.86906108580E+01  0.62783341430E+01  0.28242115932E+02  0.94791370289E+02  0.89848998728E+02 0.  0.
         11    1    3    3    0    0  0.14793658083E+02  0.82098953639E+01 -0.30940117077E+02  0.35263941163E+02  0.51100000000E-03 0. -1.
         22    1    1    0    0    0 -0.86906108580E+01 -0.62783341430E+01 -0.28242115932E+02  0.30208629711E+02  0.00000000000E+00 0.  1.
</event>
<event>
 5    1  0.8875601E-005  0.9118800E+02  0.7818608E-02  0.1130116E+00
         25   -1    0    0    0    0  0.00000000000E+00  0.00000000000E+00  0.99999998245E-14  0.12500000000E+03  0.12500000000E+03 0.  0.
        -11    1    3    3    0    0  0.11847378271E+02 -0.22696009079E+02 -0.29641106066E+02  0.39167133787E+02  0.51100000000E-03 0.  1.
         23    2    1    0    0    0 -0.69897463418E+01 -0.10927165447E+02  0.24273621401E+02  0.97477859921E+02  0.93511844063E+02 0.  0.
         11    1    3    3    0    0 -0.18837124613E+02  0.11768843632E+02  0.53914727467E+02  0.58310726134E+02  0.51100000000E-03 0. -1.
         22    1    1    0    0    0  0.69897463418E+01  0.10927165447E+02 -0.24273621401E+02  0.27522140079E+02  0.00000000000E+00 0. -1.
</event>
<event>
 5    1  0.8875601E-005  0.9118800E+02  0.7818608E-02  0.1130116E+00
         25   -1    0    0    0    0  0.00000000000E+00  0.00000000000E+00  0.99999998245E-14  0.12500000000E+03  0.12500000000E+03 0.  0.
        -11    1    3    3    0    0  0.46211942953E+02  0.10138304250E+02  0.33045136399E+02  0.57708837491E+02  0.51100000000E-03 0.  1.
         23    2    1    0    0    0  0.23674047026E+02  0.17053942812E+02  0.33395598990E+01  0.95632498773E+02  0.91011673390E+02 0.  0.
         11    1    3    3    0    0 -0.22537895928E+02  0.69156385615E+01 -0.29705576500E+02  0.37923661282E+02  0.51100000000E-03 0. -1.
         22    1    1    0    0    0 -0.23674047026E+02 -0.17053942812E+02 -0.33395598990E+01  0.29367501227E+02  0.00000000000E+00 0.  1.
</event>
<event>
 5    1  0.8875601E-005  0.9118800E+02  0.7818608E-02  0.1130116E+00
         25   -1    0    0    0    0  0.00000000000E+00  0.00000000000E+00  0.99999998245E-14  0.12500000000E+03  0.12500000000E+03 0.  0.
        -11    1    3    3    0    0  0.50959387210E+02  0.19729032725E+02  0.24395315478E+02  0.59843339601E+02  0.51100000000E-03 0.  1.
         23    2    1    0    0    0  0.18632932817E+02  0.20804274796E+02  0.13554017885E+02  0.93956233541E+02  0.88679526302E+02 0.  0.
         11    1    3    3    0    0 -0.32326454393E+02  0.10752420706E+01 -0.10841297593E+02  0.34112893939E+02  0.51100000000E-03 0. -1.
         22    1    1    0    0    0 -0.18632932817E+02 -0.20804274796E+02 -0.13554017885E+02  0.31043766459E+02  0.00000000000E+00 0.  1.
</event>
<event>
 5    1  0.8875601E-005  0.9118800E+02  0.7818608E-02  0.1130116E+00
         25   -1    0    0    0    0  0.00000000000E+00  0.00000000000E+00  0.99999998245E-14  0.12500000000E+03  0.12500000000E+03 0.  0.
        -11    1    3    3    0    0  0.14258057593E+02 -0.86280917744E+01  0.51616461688E+02  0.54240163084E+02  0.51100000000E-03 0. -1.
         23    2    1    0    0    0 -0.15275170022E+02 -0.10429672845E+01  0.29008531713E+02  0.92198879408E+02  0.86166814099E+02 0.  0.
         11    1    3    3    0    0 -0.29533227615E+02  0.75851244899E+01 -0.22607929975E+02  0.37958716323E+02  0.51100000000E-03 0.  1.
         22    1    1    0    0    0  0.15275170022E+02  0.10429672845E+01 -0.29008531713E+02  0.32801120592E+02  0.00000000000E+00 0.  1.
</event>
<event>
 5    1  0.8875601E-005  0.9118800E+02  0.7818608E-02  0.1130116E+00
         25   -1    0    0    0    0  0.00000000000E+00  0.00000000000E+00  0.99999998245E-14  0.12500000000E+03  0.12500000000E+03 0.  0.
        -11    1    3    3    0    0  0.27024823477E+02  0.17894145875E+02 -0.33132997295E+01  0.32580968308E+02  0.51100000000E-03 0. -1.
         23    2    1    0    0    0 -0.25203060415E+02 -0.15364628130E+02  0.50241577966E+01  0.95058253000E+02  0.90219528096E+02 0.  0.
         11    1    3    3    0    0 -0.52227883892E+02 -0.33258774006E+02  0.83374575260E+01  0.62477284691E+02  0.51100000000E-03 0.  1.
         22    1    1    0    0    0  0.25203060415E+02  0.15364628130E+02 -0.50241577966E+01  0.29941747000E+02  0.00000000000E+00 0.  1.
</event>
<event>
 5    1  0.8875601E-005  0.9118800E+02  0.7818608E-02  0.1130116E+00
         25   -1    0    0    0    0  0.00000000000E+00  0.00000000000E+00  0.99999998245E-14  0.12500000000E+03  0.12500000000E+03 0.  0.
        -11    1    3    3    0    0  0.12110218919E+02  0.27095443145E+02  0.17156630889E+02  0.34280758819E+02  0.51100000000E-03 0.  1.
         23    2    1    0    0    0 -0.33242321149E+01 -0.11448399528E+02 -0.27360848977E+02  0.95154859228E+02  0.90353277788E+02 0.  0.
         11    1    3    3    0    0 -0.15434451034E+02 -0.38543842673E+02 -0.44517479867E+02  0.60874100409E+02  0.51100000000E-03 0. -1.
         22    1    1    0    0    0  0.33242321149E+01  0.11448399528E+02  0.27360848977E+02  0.29845140772E+02  0.00000000000E+00 0. -1.
</event>
<event>
 5    1  0.8875601E-005  0.9118800E+02  0.7818608E-02  0.1130116E+00
         25   -1    0    0    0    0  0.00000000000E+00  0.00000000000E+00  0.99999998245E-14  0.12500000000E+03  0.12500000000E+03 0.  0.
        -11    1    3    3    0    0  0.79332749343E+01  0.44541409137E+02 -0.14689915154E+02  0.47567505574E+02  0.51100000000E-03 0.  1.
         23    2    1    0    0    0 -0.36575073719E+01  0.19408217793E+02  0.23227141199E+02  0.94511373164E+02  0.89458612168E+02 0.  0.
         11    1    3    3    0    0 -0.11590782306E+02 -0.25133191344E+02  0.37917056353E+02  0.46943867590E+02  0.51100000000E-03 0. -1.
         22    1    1    0    0    0  0.36575073719E+01 -0.19408217793E+02 -0.23227141199E+02  0.30488626836E+02  0.00000000000E+00 0.  1.
</event>
<event>
 5    1  0.8875601E-005  0.9118800E+02  0.7818608E-02  0.1130116E+00
         25   -1    0    0    0    0  0.00000000000E+00  0.00000000000E+00  0.99999998245E-14  0.12500000000E+03  0.12500000000E+03 0.  0.
        -11    1    3    3    0    0 -0.18052419853E+02 -0.47289173681E+02  0.33666794994E+02  0.60791519930E+02  0.51100000000E-03 0. -1.
         23    2    1    0    0    0 -0.70969563857E+00 -0.17931919803E+02  0.21500231054E+02  0.96994333590E+02  0.92863251060E+02 0.  0.
         11    1    3    3    0    0  0.17342724214E+02  0.29357253879E+02 -0.12166563940E+02  0.36202813659E+02  0.51100000000E-03 0.  1.
         22    1    1    0    0    0  0.70969563857E+00  0.17931919803E+02 -0.21500231054E+02  0.28005666410E+02  0.00000000000E+00 0. -1.
</event>
<event>
 5    1  0.8875601E-005  0.9118800E+02  0.7818608E-02  0.1130116E+00
         25   -1    0    0    0    0  0.00000000000E+00  0.00000000000E+00  0.99999998245E-14  0.12500000000E+03  0.12500000000E+03 0.  0.
        -11    1    3    3    0    0  0.35317758601E+02 -0.44232478236E+02  0.41855867945E+01  0.56757161139E+02  0.51100000000E-03 0.  1.
         23    2    1    0    0    0  0.43614195475E+01 -0.25933663900E+02  0.15523200328E+02  0.94462373174E+02  0.89390118545E+02 0.  0.
         11    1    3    3    0    0 -0.30956339053E+02  0.18298814336E+02  0.11337613533E+02  0.37705212035E+02  0.51100000000E-03 0. -1.
         22    1    1    0    0    0 -0.43614195475E+01  0.25933663900E+02 -0.15523200328E+02  0.30537626826E+02  0.00000000000E+00 0.  1.
</event>
<event>
 5    1  0.8875601E-005  0.9118800E+02  0.7818608E-02  0.1130116E+00
         25   -1    0    0    0    0  0.00000000000E+00  0.00000000000E+00  0.99999998245E-14  0.12500000000E+03  0.12500000000E+03 0.  0.
        -11    1    3    3    0    0 -0.43415101917E+01  0.64913652952E+01 -0.39486235884E+02  0.40251078976E+02  0.51100000000E-03 0.  1.
         23    2    1    0    0    0 -0.12012989707E+02 -0.25901749308E+02  0.52046687643E+01  0.95977575638E+02  0.91484391617E+02 0.  0.
         11    1    3    3    0    0 -0.76714795149E+01 -0.32393114603E+02  0.44690904649E+02  0.55726496662E+02  0.51100000000E-03 0. -1.
         22    1    1    0    0    0  0.12012989707E+02  0.25901749308E+02 -0.52046687643E+01  0.29022424362E+02  0.00000000000E+00 0. -1.
</event>
<event>
 5    1  0.8875601E-005  0.9118800E+02  0.7818608E-02  0.1130116E+00
         25   -1    0    0    0    0  0.00000000000E+00  0.00000000000E+00  0.99999998245E-14  0.12500000000E+03  0.12500000000E+03 0.  0.
        -11    1    3    3    0    0  0.29463016557E+02  0.25688006511E+01 -0.24748240334E+02  0.38563499340E+02  0.51100000000E-03 0.  1.
         23    2    1    0    0    0 -0.50973010587E+01 -0.30385413920E+02  0.34119092675E+01  0.94001661625E+02  0.88743537265E+02 0.  0.
         11    1    3    3    0    0 -0.34560317616E+02 -0.32954214571E+02  0.28160149602E+02  0.55438162285E+02  0.51100000000E-03 0. -1.
         22    1    1    0    0    0  0.50973010587E+01  0.30385413920E+02 -0.34119092675E+01  0.30998338375E+02  0.00000000000E+00 0. -1.
</event>
<event>
 5    1  0.8875601E-005  0.9118800E+02  0.7818608E-02  0.1130116E+00
         25   -1    0    0    0    0  0.00000000000E+00  0.00000000000E+00  0.99999998245E-14  0.12500000000E+03  0.12500000000E+03 0.  0.
        -11    1    3    3    0    0 -0.13331403573E+00  0.48183035937E+02  0.22691315879E+02  0.53258976157E+02  0.51100000000E-03 0. -1.
         23    2    1    0    0    0 -0.23376049305E+02  0.15891116033E+02  0.98561126710E+01  0.95064900086E+02  0.90228737227E+02 0.  0.
         11    1    3    3    0    0 -0.23242735269E+02 -0.32291919904E+02 -0.12835203208E+02  0.41805923929E+02  0.51100000000E-03 0.  1.
         22    1    1    0    0    0  0.23376049305E+02 -0.15891116033E+02 -0.98561126710E+01  0.29935099914E+02  0.00000000000E+00 0. -1.
</event>
<event>
 5    1  0.8875601E-005  0.9118800E+02  0.7818608E-02  0.1130116E+00
         25   -1    0    0    0    0  0.00000000000E+00  0.00000000000E+00  0.99999998245E-14  0.12500000000E+03  0.12500000000E+03 0.  0.
        -11    1    3    3    0    0 -0.47789251147E+02 -0.30290887918E+02  0.23048725920E+02  0.61094960372E+02  0.51100000000E-03 0.  1.
         23    2    1    0    0    0 -0.17363524524E+02 -0.16368936252E+02  0.18381157046E+02  0.94878562579E+02  0.89970220878E+02 0.  0.
         11    1    3    3    0    0  0.30425726622E+02  0.13921951666E+02 -0.46675688736E+01  0.33783602208E+02  0.51100000000E-03 0. -1.
         22    1    1    0    0    0  0.17363524524E+02  0.16368936252E+02 -0.18381157046E+02  0.30121437421E+02  0.00000000000E+00 0.  1.
</event>
<event>
 5    1  0.8875601E-005  0.9118800E+02  0.7818608E-02  0.1130116E+00
         25   -1    0    0    0    0  0.00000000000E+00  0.00000000000E+00  0.99999998245E-14  0.12500000000E+03  0.12500000000E+03 0.  0.
        -11    1    3    3    0    0 -0.52952014735E+00  0.24778634738E+01 -0.27815633721E+02  0.27930801610E+02  0.51100000000E-03 0.  1.
         23    2    1    0    0    0  0.38748520942E+02 -0.64347262342E+01  0.11353569027E+02  0.84112873584E+02  0.73506587433E+02 0.  0.
         11    1    3    3    0    0  0.39278041090E+02 -0.89125897080E+01  0.39169202748E+02  0.56182071974E+02  0.51100000000E-03 0. -1.
         22    1    1    0    0    0 -0.38748520942E+02  0.64347262342E+01 -0.11353569027E+02  0.40887126416E+02  0.00000000000E+00 0. -1.
</event>
<event>
 5    1  0.8875601E-005  0.9118800E+02  0.7818608E-02  0.1130116E+00
         25   -1    0    0    0    0  0.00000000000E+00  0.00000000000E+00  0.99999998245E-14  0.12500000000E+03  0.12500000000E+03 0.  0.
        -11    1    3    3    0    0  0.42741069582E+01 -0.52938614532E+02 -0.94614176978E+01  0.53947041847E+02  0.51100000000E-03 0.  1.
         23    2    1    0    0    0  0.22596273561E+02 -0.18016801653E+02  0.44384064397E+01  0.95761392434E+02  0.91188530576E+02 0.  0.
         11    1    3    3    0    0  0.18322166603E+02  0.34921812879E+02  0.13899824137E+02  0.41814350588E+02  0.51100000000E-03 0. -1.
         22    1    1    0    0    0 -0.22596273561E+02  0.18016801653E+02 -0.44384064397E+01  0.29238607566E+02  0.00000000000E+00 0. -1.
</event>
<event>
 5    1  0.8875601E-005  0.9118800E+02  0.7818608E-02  0.1130116E+00
         25   -1    0    0    0    0  0.00000000000E+00  0.00000000000E+00  0.99999998245E-14  0.12500000000E+03  0.12500000000E+03 0.  0.
        -11    1    3    3    0    0  0.41925144454E+02 -0.83064621683E+01 -0.16314373865E+02  0.45747938162E+02  0.51100000000E-03 0.  1.
         23    2    1    0    0    0  0.15444378024E+02  0.18255734030E+02  0.16795689282E+02  0.95778504213E+02  0.91211984154E+02 0.  0.
         11    1    3    3    0    0 -0.26480766429E+02  0.26562196199E+02  0.33110063146E+02  0.50030566051E+02  0.51100000000E-03 0. -1.
         22    1    1    0    0    0 -0.15444378024E+02 -0.18255734030E+02 -0.16795689282E+02  0.29221495787E+02  0.00000000000E+00 0.  1.
</event>
<event>
 5    1  0.8875601E-005  0.9118800E+02  0.7818608E-02  0.1130116E+00
         25   -1    0    0    0    0  0.00000000000E+00  0.00000000000E+00  0.99999998245E-14  0.12500000000E+03  0.12500000000E+03 0.  0.
        -11    1    3    3    0    0 -0.44762980941E+02 -0.25890271595E+02 -0.13995828877E+02  0.53571576906E+02  0.51100000000E-03 0.  1.
         23    2    1    0    0    0 -0.25712662790E+02  0.11335334210E+02 -0.35264011301E+01  0.96679224334E+02  0.92438120294E+02 0.  0.
         11    1    3    3    0    0  0.19050318151E+02  0.37225605805E+02  0.10469427747E+02  0.43107647428E+02  0.51100000000E-03 0. -1.
         22    1    1    0    0    0  0.25712662790E+02 -0.11335334210E+02  0.35264011301E+01  0.28320775666E+02  0.00000000000E+00 0.  1.
</event>
<event>
 5    1  0.8875601E-005  0.9118800E+02  0.7818608E-02  0.1130116E+00
         25   -1    0    0    0    0  0.00000000000E+00  0.00000000000E+00  0.99999998245E-14  0.12500000000E+03  0.12500000000E+03 0.  0.
        -11    1    3    3    0    0 -0.43027658860E+02 -0.31309621471E+02  0.22181267825E+02  0.57651370029E+02  0.51100000000E-03 0.  1.
         23    2    1    0    0    0 -0.19453138195E+02  0.67230317644E-02  0.20284517458E+02  0.96895084428E+02  0.92729558971E+02 0.  0.
         11    1    3    3    0    0  0.23574520665E+02  0.31316344503E+02 -0.18967503663E+01  0.39243714399E+02  0.51100000000E-03 0. -1.
         22    1    1    0    0    0  0.19453138195E+02 -0.67230317644E-02 -0.20284517458E+02  0.28104915572E+02  0.00000000000E+00 0.  1.
</event>
<event>
 5    1  0.8875601E-005  0.9118800E+02  0.7818608E-02  0.1130116E+00
         25   -1    0    0    0    0  0.00000000000E+00  0.00000000000E+00  0.99999998245E-14  0.12500000000E+03  0.12500000000E+03 0.  0.
        -11    1    3    3    0    0  0.25607193818E+02 -0.37031054231E+02  0.38779150074E+02  0.59420954498E+02  0.51100000000E-03 0. -1.
         23    2    1    0    0    0  0.21478883629E+02 -0.19133180643E+02  0.82058565487E+01  0.95087508877E+02  0.90260053286E+02 0.  0.
         11    1    3    3    0    0 -0.41283101889E+01  0.17897873588E+02 -0.30573293526E+02  0.35666554379E+02  0.51100000000E-03 0.  1.
         22    1    1    0    0    0 -0.21478883629E+02  0.19133180643E+02 -0.82058565487E+01  0.29912491123E+02  0.00000000000E+00 0. -1.
</event>
<event>
 5    1  0.8875601E-005  0.9118800E+02  0.7818608E-02  0.1130116E+00
         25   -1    0    0    0    0  0.00000000000E+00  0.00000000000E+00  0.99999998245E-14  0.12500000000E+03  0.12500000000E+03 0.  0.
        -11    1    3    3    0    0 -0.82301740503E-01  0.19353822129E+02  0.32420022598E+02  0.37757582948E+02  0.51100000000E-03 0. -1.
         23    2    1    0    0    0 -0.25539107818E+02  0.17898100473E+02 -0.14074335522E+02  0.90784872511E+02  0.84090535305E+02 0.  0.
         11    1    3    3    0    0 -0.25456806077E+02 -0.14557216553E+01 -0.46494358120E+02  0.53027289563E+02  0.51100000000E-03 0.  1.
         22    1    1    0    0    0  0.25539107818E+02 -0.17898100473E+02  0.14074335522E+02  0.34215127489E+02  0.00000000000E+00 0. -1.
</event>
<event>
 5    1  0.8875601E-005  0.9118800E+02  0.7818608E-02  0.1130116E+00
         25   -1    0    0    0    0  0.00000000000E+00  0.00000000000E+00  0.99999998245E-14  0.12500000000E+03  0.12500000000E+03 0.  0.
        -11    1    3    3    0    0 -0.62789342056E+01  0.40255395845E+02  0.43860277882E+02  0.59863560581E+02  0.51100000000E-03 0.  1.
         23    2    1    0    0    0  0.73721392106E+01  0.12832334189E+02  0.25325692224E+02  0.95667289183E+02  0.91059443748E+02 0.  0.
         11    1    3    3    0    0  0.13651073416E+02 -0.27423061656E+02 -0.18534585658E+02  0.35803728602E+02  0.51100000000E-03 0. -1.
         22    1    1    0    0    0 -0.73721392106E+01 -0.12832334189E+02 -0.25325692224E+02  0.29332710817E+02  0.00000000000E+00 0.  1.
</event>
<event>
 5    1  0.8875601E-005  0.9118800E+02  0.7818608E-02  0.1130116E+00
         25   -1    0    0    0    0  0.00000000000E+00  0.00000000000E+00  0.99999998245E-14  0.12500000000E+03  0.12500000000E+03 0.  0.
        -11    1    3    3    0    0  0.17012976096E+02 -0.31730205234E+02 -0.78040929524E+01  0.36839532393E+02  0.51100000000E-03 0.  1.
         23    2    1    0    0    0 -0.23826497760E+02  0.12911715493E+02  0.39667466336E+00  0.97897015971E+02  0.94070473543E+02 0.  0.
         11    1    3    3    0    0 -0.40839473857E+02  0.44641920727E+02  0.82007676158E+01  0.61057483578E+02  0.51100000000E-03 0. -1.
         22    1    1    0    0    0  0.23826497760E+02 -0.12911715493E+02 -0.39667466336E+00  0.27102984029E+02  0.00000000000E+00 0. -1.
</event>
<event>
 5    1  0.8875601E-005  0.9118800E+02  0.7818608E-02  0.1130116E+00
         25   -1    0    0    0    0  0.00000000000E+00  0.00000000000E+00  0.99999998245E-14  0.12500000000E+03  0.12500000000E+03 0.  0.
        -11    1    3    3    0    0  0.21949602341E+02 -0.35486571249E+02  0.10298887813E+02  0.42978469870E+02  0.51100000000E-03 0.  1.
         23    2    1    0    0    0  0.20187826054E+02  0.18092254097E+02  0.83995683181E+01  0.96619888531E+02  0.92357848246E+02 0.  0.
         11    1    3    3    0    0 -0.17617762875E+01  0.53578825346E+02 -0.18993194945E+01  0.53641418661E+02  0.51100000000E-03 0. -1.
         22    1    1    0    0    0 -0.20187826054E+02 -0.18092254097E+02 -0.83995683181E+01  0.28380111469E+02  0.00000000000E+00 0. -1.
</event>
<event>
 5    1  0.8875601E-005  0.9118800E+02  0.7818608E-02  0.1130116E+00
         25   -1    0    0    0    0  0.00000000000E+00  0.00000000000E+00  0.99999998245E-14  0.12500000000E+03  0.12500000000E+03 0.  0.
        -11    1    3    3    0    0 -0.25842504962E+02 -0.26336106667E+02 -0.27778562620E+02  0.46185215368E+02  0.51100000000E-03 0. -1.
         23    2    1    0    0    0  0.20262868644E+02 -0.12163229730E+02 -0.17730146329E+02  0.95455354259E+02  0.90768048148E+02 0.  0.
         11    1    3    3    0    0  0.46105373607E+02  0.14172876937E+02  0.10048416291E+02  0.49270138891E+02  0.51100000000E-03 0.  1.
         22    1    1    0    0    0 -0.20262868644E+02  0.12163229730E+02  0.17730146329E+02  0.29544645741E+02  0.00000000000E+00 0. -1.
</event>
<event>
 5    1  0.8875601E-005  0.9118800E+02  0.7818608E-02  0.1130116E+00
         25   -1    0    0    0    0  0.00000000000E+00  0.00000000000E+00  0.99999998245E-14  0.12500000000E+03  0.12500000000E+03 0.  0.
        -11    1    3    3    0    0  0.16561290862E+02 -0.59637425390E+01 -0.23692367413E+02  0.29515603568E+02  0.51100000000E-03 0. -1.
         23    2    1    0    0    0  0.24767501512E+02 -0.14894043368E+02  0.29280236047E+02  0.83858854149E+02  0.73073343547E+02 0.  0.
         11    1    3    3    0    0  0.82062106500E+01 -0.89303008289E+01  0.52972603460E+02  0.54343250581E+02  0.51100000000E-03 0.  1.
         22    1    1    0    0    0 -0.24767501512E+02  0.14894043368E+02 -0.29280236047E+02  0.41141145851E+02  0.00000000000E+00 0.  1.
</event>
<event>
 5    1  0.8875601E-005  0.9118800E+02  0.7818608E-02  0.1130116E+00
         25   -1    0    0    0    0  0.00000000000E+00  0.00000000000E+00  0.99999998245E-14  0.12500000000E+03  0.12500000000E+03 0.  0.
        -11    1    3    3    0    0 -0.47415496820E+01  0.15159073348E+02 -0.40068979148E+02  0.43102237626E+02  0.51100000000E-03 0.  1.
         23    2    1    0    0    0 -0.31351810021E+00  0.29375126451E+02  0.89158177040E+01  0.94300030082E+02  0.89162814674E+02 0.  0.
         11    1    3    3    0    0  0.44280315818E+01  0.14216053103E+02  0.48984796852E+02  0.51197792456E+02  0.51100000000E-03 0. -1.
         22    1    1    0    0    0  0.31351810021E+00 -0.29375126451E+02 -0.89158177040E+01  0.30699969918E+02  0.00000000000E+00 0.  1.
</event>
<event>
 5    1  0.8875601E-005  0.9118800E+02  0.7818608E-02  0.1130116E+00
         25   -1    0    0    0    0  0.00000000000E+00  0.00000000000E+00  0.99999998245E-14  0.12500000000E+03  0.12500000000E+03 0.  0.
        -11    1    3    3    0    0  0.34597367550E+01 -0.18158613299E+02  0.35644795077E+02  0.40152913116E+02  0.51100000000E-03 0.  1.
         23    2    1    0    0    0 -0.18219545460E+02  0.22716905761E+02  0.55297801482E+01  0.95359012961E+02  0.90635275916E+02 0.  0.
         11    1    3    3    0    0 -0.21679282215E+02  0.40875519060E+02 -0.30115014928E+02  0.55206099846E+02  0.51100000000E-03 0. -1.
         22    1    1    0    0    0  0.18219545460E+02 -0.22716905761E+02 -0.55297801482E+01  0.29640987039E+02  0.00000000000E+00 0. -1.
</event>
<event>
 5    1  0.8875601E-005  0.9118800E+02  0.7818608E-02  0.1130116E+00
         25   -1    0    0    0    0  0.00000000000E+00  0.00000000000E+00  0.99999998245E-14  0.12500000000E+03  0.12500000000E+03 0.  0.
        -11    1    3    3    0    0 -0.35496080373E+02  0.75604412894E+01  0.11663393401E+02  0.38120424188E+02  0.51100000000E-03 0. -1.
         23    2    1    0    0    0  0.80941755860E+01  0.12356238873E+02 -0.25452240006E+02  0.95571971883E+02  0.90928504721E+02 0.  0.
         11    1    3    3    0    0  0.43590255959E+02  0.47957975839E+01 -0.37115633408E+02  0.57451547695E+02  0.51100000000E-03 0.  1.
         22    1    1    0    0    0 -0.80941755860E+01 -0.12356238873E+02  0.25452240006E+02  0.29428028117E+02  0.00000000000E+00 0.  1.
</event>
<event>
 5    1  0.8875601E-005  0.9118800E+02  0.7818608E-02  0.1130116E+00
         25   -1    0    0    0    0  0.00000000000E+00  0.00000000000E+00  0.99999998245E-14  0.12500000000E+03  0.12500000000E+03 0.  0.
        -11    1    3    3    0    0  0.21750180460E+01  0.36037554431E+02 -0.10883967671E+02  0.37708046692E+02  0.51100000000E-03 0. -1.
         23    2    1    0    0    0  0.22484361318E+02 -0.55914331149E+01  0.20830156895E+02  0.93843843876E+02  0.88520963443E+02 0.  0.
         11    1    3    3    0    0  0.20309343273E+02 -0.41628987545E+02  0.31714124565E+02  0.56135797184E+02  0.51100000000E-03 0.  1.
         22    1    1    0    0    0 -0.22484361318E+02  0.55914331149E+01 -0.20830156895E+02  0.31156156124E+02  0.00000000000E+00 0. -1.
</event>
<event>
 5    1  0.8875601E-005  0.9118800E+02  0.7818608E-02  0.1130116E+00
         25   -1    0    0    0    0  0.00000000000E+00  0.00000000000E+00  0.99999998245E-14  0.12500000000E+03  0.12500000000E+03 0.  0.
        -11    1    3    3    0    0  0.13785103971E+02  0.20404130435E+02  0.27602711771E+02  0.36990097698E+02  0.51100000000E-03 0. -1.
         23    2    1    0    0    0  0.15134777091E+02 -0.23583516774E+02 -0.10374210056E+02  0.95119103506E+02  0.90303797686E+02 0.  0.
         11    1    3    3    0    0  0.13496731197E+01 -0.43987647209E+02 -0.37976921827E+02  0.58129005808E+02  0.51100000000E-03 0.  1.
         22    1    1    0    0    0 -0.15134777091E+02  0.23583516774E+02  0.10374210056E+02  0.29880896494E+02  0.00000000000E+00 0.  1.
</event>
<event>
 5    1  0.8875601E-005  0.9118800E+02  0.7818608E-02  0.1130116E+00
         25   -1    0    0    0    0  0.00000000000E+00  0.00000000000E+00  0.99999998245E-14  0.12500000000E+03  0.12500000000E+03 0.  0.
        -11    1    3    3    0    0  0.50928647598E+02  0.94360498165E+00 -0.27889286292E+02  0.58072625450E+02  0.51100000000E-03 0.  1.
         23    2    1    0    0    0  0.16218793050E+02  0.12428801663E+02 -0.21771491777E+02  0.95141630772E+02  0.90334974915E+02 0.  0.
         11    1    3    3    0    0 -0.34709854548E+02  0.11485196681E+02  0.61177945152E+01  0.37069005322E+02  0.51100000000E-03 0. -1.
         22    1    1    0    0    0 -0.16218793050E+02 -0.12428801663E+02  0.21771491777E+02  0.29858369228E+02  0.00000000000E+00 0.  1.
</event>
<event>
 5    1  0.8875601E-005  0.9118800E+02  0.7818608E-02  0.1130116E+00
         25   -1    0    0    0    0  0.00000000000E+00  0.00000000000E+00  0.99999998245E-14  0.12500000000E+03  0.12500000000E+03 0.  0.
        -11    1    3    3    0    0 -0.33651970163E+02  0.18689557923E+02  0.68847246150E+01  0.39104400066E+02  0.51100000000E-03 0.  1.
         23    2    1    0    0    0  0.22908713533E+02  0.17809600341E+02  0.34915975208E+01  0.95773603142E+02  0.91205267313E+02 0.  0.
         11    1    3    3    0    0  0.56560683696E+02 -0.87995758234E+00 -0.33931270941E+01  0.56669203076E+02  0.51100000000E-03 0. -1.
         22    1    1    0    0    0 -0.22908713533E+02 -0.17809600341E+02 -0.34915975208E+01  0.29226396858E+02  0.00000000000E+00 0. -1.
</event>
<event>
 5    1  0.8875601E-005  0.9118800E+02  0.7818608E-02  0.1130116E+00
         25   -1    0    0    0    0  0.00000000000E+00  0.00000000000E+00  0.99999998245E-14  0.12500000000E+03  0.12500000000E+03 0.  0.
        -11    1    3    3    0    0 -0.21359830657E+02  0.24448659103E+02 -0.37849632509E+02  0.49865559046E+02  0.51100000000E-03 0.  1.
         23    2    1    0    0    0 -0.16958011426E+02 -0.16423835205E+02 -0.16588541160E+02  0.96146989547E+02  0.91715578757E+02 0.  0.
         11    1    3    3    0    0  0.44018192307E+01 -0.40872494309E+02  0.21261091349E+02  0.46281430500E+02  0.51100000000E-03 0. -1.
         22    1    1    0    0    0  0.16958011426E+02  0.16423835205E+02  0.16588541160E+02  0.28853010453E+02  0.00000000000E+00 0. -1.
</event>
<event>
 5    1  0.8875601E-005  0.9118800E+02  0.7818608E-02  0.1130116E+00
         25   -1    0    0    0    0  0.00000000000E+00  0.00000000000E+00  0.99999998245E-14  0.12500000000E+03  0.12500000000E+03 0.  0.
        -11    1    3    3    0    0  0.29154305830E+02  0.46419512336E+02  0.19718202159E+02  0.58254203029E+02  0.51100000000E-03 0.  1.
         23    2    1    0    0    0  0.76469470130E+01  0.19434662848E+02  0.24180565501E+02  0.93048761110E+02  0.87391019433E+02 0.  0.
         11    1    3    3    0    0 -0.21507358817E+02 -0.26984849488E+02  0.44623633428E+01  0.34794558081E+02  0.51100000000E-03 0. -1.
         22    1    1    0    0    0 -0.76469470130E+01 -0.19434662848E+02 -0.24180565501E+02  0.31951238890E+02  0.00000000000E+00 0.  1.
</event>
<event>
 5    1  0.8875601E-005  0.9118800E+02  0.7818608E-02  0.1130116E+00
         25   -1    0    0    0    0  0.00000000000E+00  0.00000000000E+00  0.99999998245E-14  0.12500000000E+03  0.12500000000E+03 0.  0.
        -11    1    3    3    0    0 -0.15065661276E+02 -0.86222970347E+01  0.47638522746E+02  0.50702534508E+02  0.51100000000E-03 0. -1.
         23    2    1    0    0    0  0.63882322192E+01  0.20065659029E+02  0.20124240771E+02  0.95872259790E+02  0.91340379611E+02 0.  0.
         11    1    3    3    0    0  0.21453893495E+02  0.28687956063E+02 -0.27514281975E+02  0.45169725282E+02  0.51100000000E-03 0.  1.
         22    1    1    0    0    0 -0.63882322192E+01 -0.20065659029E+02 -0.20124240771E+02  0.29127740210E+02  0.00000000000E+00 0.  1.
</event>
<event>
 5    1  0.8875601E-005  0.9118800E+02  0.7818608E-02  0.1130116E+00
         25   -1    0    0    0    0  0.00000000000E+00  0.00000000000E+00  0.99999998245E-14  0.12500000000E+03  0.12500000000E+03 0.  0.
        -11    1    3    3    0    0 -0.10174544113E+02  0.17507081872E+02 -0.31500126487E+02  0.37446992303E+02  0.51100000000E-03 0.  1.
         23    2    1    0    0    0 -0.16323805749E+02 -0.18581197672E+02  0.14572511860E+02  0.96293108093E+02  0.91914509319E+02 0.  0.
         11    1    3    3    0    0 -0.61492616358E+01 -0.36088279544E+02  0.46072638347E+02  0.58846115790E+02  0.51100000000E-03 0. -1.
         22    1    1    0    0    0  0.16323805749E+02  0.18581197672E+02 -0.14572511860E+02  0.28706891907E+02  0.00000000000E+00 0. -1.
</event>
<event>
 5    1  0.8875601E-005  0.9118800E+02  0.7818608E-02  0.1130116E+00
         25   -1    0    0    0    0  0.00000000000E+00  0.00000000000E+00  0.99999998245E-14  0.12500000000E+03  0.12500000000E+03 0.  0.
        -11    1    3    3    0    0  0.44938487069E+02 -0.20767118255E+02  0.14368085987E+02  0.51547868199E+02  0.51100000000E-03 0. -1.
         23    2    1    0    0    0  0.78277858204E+00 -0.26093522355E+02  0.12483225665E+02  0.96063594311E+02  0.91601848113E+02 0.  0.
         11    1    3    3    0    0 -0.44155708487E+02 -0.53264040996E+01 -0.18848603221E+01  0.44515726112E+02  0.51100000000E-03 0.  1.
         22    1    1    0    0    0 -0.78277858204E+00  0.26093522355E+02 -0.12483225665E+02  0.28936405689E+02  0.00000000000E+00 0. -1.
</event>
<event>
 5    1  0.8875601E-005  0.9118800E+02  0.7818608E-02  0.1130116E+00
         25   -1    0    0    0    0  0.00000000000E+00  0.00000000000E+00  0.99999998245E-14  0.12500000000E+03  0.12500000000E+03 0.  0.
        -11    1    3    3    0    0  0.12896886548E+02  0.33931542708E+02  0.34503436912E+02  0.50081597740E+02  0.51100000000E-03 0. -1.
         23    2    1    0    0    0 -0.34636665340E+01  0.17293162063E+02 -0.13055716795E+02  0.10305684205E+03  0.10069364683E+03 0.  0.
         11    1    3    3    0    0 -0.16360553082E+02 -0.16638380645E+02 -0.47559153707E+02  0.52975244305E+02  0.51100000000E-03 0.  1.
         22    1    1    0    0    0  0.34636665340E+01 -0.17293162063E+02  0.13055716795E+02  0.21943157955E+02  0.00000000000E+00 0. -1.
</event>
<event>
 5    1  0.8875601E-005  0.9118800E+02  0.7818608E-02  0.1130116E+00
         25   -1    0    0    0    0  0.00000000000E+00  0.00000000000E+00  0.99999998245E-14  0.12500000000E+03  0.12500000000E+03 0.  0.
        -11    1    3    3    0    0  0.48269666875E+02 -0.31640208288E+02 -0.10102065172E+00  0.57715454829E+02  0.51100000000E-03 0. -1.
         23    2    1    0    0    0  0.10554553837E+02 -0.26643781744E+02 -0.44145002047E+01  0.96003836040E+02  0.91520265571E+02 0.  0.
         11    1    3    3    0    0 -0.37715113038E+02  0.49964265438E+01 -0.43134795530E+01  0.38288381211E+02  0.51100000000E-03 0.  1.
         22    1    1    0    0    0 -0.10554553837E+02  0.26643781744E+02  0.44145002047E+01  0.28996163960E+02  0.00000000000E+00 0. -1.
</event>
<event>
 5    1  0.8875601E-005  0.9118800E+02  0.7818608E-02  0.1130116E+00
         25   -1    0    0    0    0  0.00000000000E+00  0.00000000000E+00  0.99999998245E-14  0.12500000000E+03  0.12500000000E+03 0.  0.
        -11    1    3    3    0    0 -0.22198097871E+02  0.18721753630E+02  0.14202441013E+02  0.32325979321E+02  0.51100000000E-03 0.  1.
         23    2    1    0    0    0  0.35522638575E+01 -0.14434713126E+02 -0.28903994765E+02  0.92497378030E+02  0.86598755808E+02 0.  0.
         11    1    3    3    0    0  0.25750361729E+02 -0.33156466756E+02 -0.43106435778E+02  0.60171398709E+02  0.51100000000E-03 0. -1.
         22    1    1    0    0    0 -0.35522638575E+01  0.14434713126E+02  0.28903994765E+02  0.32502621970E+02  0.00000000000E+00 0. -1.
</event>
<event>
 5    1  0.8875601E-005  0.9118800E+02  0.7818608E-02  0.1130116E+00
         25   -1    0    0    0    0  0.00000000000E+00  0.00000000000E+00  0.99999998245E-14  0.12500000000E+03  0.12500000000E+03 0.  0.
        -11    1    3    3    0    0  0.35892993370E+02  0.17613346943E+02 -0.13826354755E+02  0.42304905741E+02  0.51100000000E-03 0. -1.
         23    2    1    0    0    0  0.11932374886E+02 -0.75685475576E+01  0.26147925962E+02  0.95278315750E+02  0.90523913622E+02 0.  0.
         11    1    3    3    0    0 -0.23960618485E+02 -0.25181894501E+02  0.39974280718E+02  0.52973410009E+02  0.51100000000E-03 0.  1.
         22    1    1    0    0    0 -0.11932374886E+02  0.75685475576E+01 -0.26147925962E+02  0.29721684250E+02  0.00000000000E+00 0.  1.
</event>
<event>
 5    1  0.8875601E-005  0.9118800E+02  0.7818608E-02  0.1130116E+00
         25   -1    0    0    0    0  0.00000000000E+00  0.00000000000E+00  0.99999998245E-14  0.12500000000E+03  0.12500000000E+03 0.  0.
        -11    1    3    3    0    0 -0.58873940744E+02  0.10783530929E+01 -0.60369415808E+01  0.59192469183E+02  0.51100000000E-03 0. -1.
         23    2    1    0    0    0 -0.25075287448E+02  0.12868281236E+02  0.43890095035E+01  0.96475867989E+02  0.92162720214E+02 0.  0.
         11    1    3    3    0    0  0.33798653296E+02  0.11789928143E+02  0.10425951084E+02  0.37283398806E+02  0.51100000000E-03 0.  1.
         22    1    1    0    0    0  0.25075287448E+02 -0.12868281236E+02 -0.43890095035E+01  0.28524132011E+02  0.00000000000E+00 0. -1.
</event>
<event>
 5    1  0.8875601E-005  0.9118800E+02  0.7818608E-02  0.1130116E+00
         25   -1    0    0    0    0  0.00000000000E+00  0.00000000000E+00  0.99999998245E-14  0.12500000000E+03  0.12500000000E+03 0.  0.
        -11    1    3    3    0    0  0.22027647801E+02 -0.32979765660E+02 -0.69345686370E+01  0.40261277340E+02  0.51100000000E-03 0. -1.
         23    2    1    0    0    0  0.18310511097E+02  0.15367901720E+02  0.18271743932E+02  0.94911732416E+02  0.90016293547E+02 0.  0.
         11    1    3    3    0    0 -0.37171367043E+01  0.48347667380E+02  0.25206312569E+02  0.54650455076E+02  0.51100000000E-03 0.  1.
         22    1    1    0    0    0 -0.18310511097E+02 -0.15367901720E+02 -0.18271743932E+02  0.30088267584E+02  0.00000000000E+00 0.  1.
</event>
<event>
 5    1  0.8875601E-005  0.9118800E+02  0.7818608E-02  0.1130116E+00
         25   -1    0    0    0    0  0.00000000000E+00  0.00000000000E+00  0.99999998245E-14  0.12500000000E+03  0.12500000000E+03 0.  0.
        -11    1    3    3    0    0  0.30747494094E+02 -0.13944858017E+02  0.13454843326E+02  0.36344191659E+02  0.51100000000E-03 0. -1.
         23    2    1    0    0    0 -0.93603014809E+01 -0.58101699591E+01 -0.28191209646E+02  0.94732565023E+02  0.89767150204E+02 0.  0.
         11    1    3    3    0    0 -0.40107795575E+02  0.81346880581E+01 -0.41646052972E+02  0.58388373364E+02  0.51100000000E-03 0.  1.
         22    1    1    0    0    0  0.93603014809E+01  0.58101699591E+01  0.28191209646E+02  0.30267434977E+02  0.00000000000E+00 0.  1.
</event>
<event>
 5    1  0.8875601E-005  0.9118800E+02  0.7818608E-02  0.1130116E+00
         25   -1    0    0    0    0  0.00000000000E+00  0.00000000000E+00  0.99999998245E-14  0.12500000000E+03  0.12500000000E+03 0.  0.
        -11    1    3    3    0    0 -0.26479134796E+01  0.27230430687E+02 -0.34166229362E+02  0.43770298494E+02  0.51100000000E-03 0.  1.
         23    2    1    0    0    0  0.43969360971E+01 -0.22520215421E+02 -0.15195362121E+02  0.97479240933E+02  0.93513690084E+02 0.  0.
         11    1    3    3    0    0  0.70448495768E+01 -0.49750646108E+02  0.18970867241E+02  0.53708942439E+02  0.51100000000E-03 0. -1.
         22    1    1    0    0    0 -0.43969360971E+01  0.22520215421E+02  0.15195362121E+02  0.27520759067E+02  0.00000000000E+00 0. -1.
</event>
<event>
 5    1  0.8875601E-005  0.9118800E+02  0.7818608E-02  0.1130116E+00
         25   -1    0    0    0    0  0.00000000000E+00  0.00000000000E+00  0.99999998245E-14  0.12500000000E+03  0.12500000000E+03 0.  0.
        -11    1    3    3    0    0  0.20016592269E+02 -0.47384351900E+02  0.27837582590E+02  0.58488219120E+02  0.51100000000E-03 0. -1.
         23    2    1    0    0    0  0.23160895635E+02 -0.16217487915E+02  0.78153826488E+01  0.95665477559E+02  0.91056956845E+02 0.  0.
         11    1    3    3    0    0  0.31443033663E+01  0.31166863986E+02 -0.20022199941E+02  0.37177258440E+02  0.51100000000E-03 0.  1.
         22    1    1    0    0    0 -0.23160895635E+02  0.16217487915E+02 -0.78153826488E+01  0.29334522441E+02  0.00000000000E+00 0. -1.
</event>
<event>
 5    1  0.8875601E-005  0.9118800E+02  0.7818608E-02  0.1130116E+00
         25   -1    0    0    0    0  0.00000000000E+00  0.00000000000E+00  0.99999998245E-14  0.12500000000E+03  0.12500000000E+03 0.  0.
        -11    1    3    3    0    0  0.22724056326E+02  0.34777905128E+02  0.24778769716E+02  0.48372232220E+02  0.51100000000E-03 0.  1.
         23    2    1    0    0    0 -0.37035153311E+01 -0.48607411698E+01  0.28209382898E+02  0.96136318426E+02  0.91701033835E+02 0.  0.
         11    1    3    3    0    0 -0.26427571657E+02 -0.39638646298E+02  0.34306131823E+01  0.47764086206E+02  0.51100000000E-03 0. -1.
         22    1    1    0    0    0  0.37035153311E+01  0.48607411698E+01 -0.28209382898E+02  0.28863681574E+02  0.00000000000E+00 0.  1.
</event>
<event>
 5    1  0.8875601E-005  0.9118800E+02  0.7818608E-02  0.1130116E+00
         25   -1    0    0    0    0  0.00000000000E+00  0.00000000000E+00  0.99999998245E-14  0.12500000000E+03  0.12500000000E+03 0.  0.
        -11    1    3    3    0    0  0.27927769497E+02 -0.44074261469E+02 -0.15859664423E+02  0.54534665938E+02  0.51100000000E-03 0.  1.
         23    2    1    0    0    0  0.13220500813E+02 -0.90306826601E+01 -0.26533935845E+02  0.94009927034E+02  0.88755178770E+02 0.  0.
         11    1    3    3    0    0 -0.14707268685E+02  0.35043578809E+02 -0.10674271422E+02  0.39475261095E+02  0.51100000000E-03 0. -1.
         22    1    1    0    0    0 -0.13220500813E+02  0.90306826601E+01  0.26533935845E+02  0.30990072966E+02  0.00000000000E+00 0.  1.
</event>
<event>
 5    1  0.8875601E-005  0.9118800E+02  0.7818608E-02  0.1130116E+00
         25   -1    0    0    0    0  0.00000000000E+00  0.00000000000E+00  0.99999998245E-14  0.12500000000E+03  0.12500000000E+03 0.  0.
        -11    1    3    3    0    0 -0.32519359554E+02 -0.29077131046E+02 -0.28396298523E+01  0.43715578386E+02  0.51100000000E-03 0. -1.
         23    2    1    0    0    0 -0.88072888662E+01  0.17133451423E+02 -0.18830811783E+02  0.98060754145E+02  0.94287796327E+02 0.  0.
         11    1    3    3    0    0  0.23712070688E+02  0.46210582469E+02 -0.15991181930E+02  0.54345175759E+02  0.51100000000E-03 0.  1.
         22    1    1    0    0    0  0.88072888662E+01 -0.17133451423E+02  0.18830811783E+02  0.26939245855E+02  0.00000000000E+00 0.  1.
</event>
<event>
 5    1  0.8875601E-005  0.9118800E+02  0.7818608E-02  0.1130116E+00
         25   -1    0    0    0    0  0.00000000000E+00  0.00000000000E+00  0.99999998245E-14  0.12500000000E+03  0.12500000000E+03 0.  0.
        -11    1    3    3    0    0  0.41323733972E+02  0.35768937702E+01  0.12009508279E+02  0.43181864802E+02  0.51100000000E-03 0.  1.
         23    2    1    0    0    0 -0.62702842985E+01 -0.17202445099E+02  0.22323182170E+02  0.96128473460E+02  0.91690339540E+02 0.  0.
         11    1    3    3    0    0 -0.47594018270E+02 -0.20779338869E+02  0.10313673890E+02  0.52946608658E+02  0.51100000000E-03 0. -1.
         22    1    1    0    0    0  0.62702842985E+01  0.17202445099E+02 -0.22323182170E+02  0.28871526540E+02  0.00000000000E+00 0. -1.
</event>
<event>
 5    1  0.8875601E-005  0.9118800E+02  0.7818608E-02  0.1130116E+00
         25   -1    0    0    0    0  0.00000000000E+00  0.00000000000E+00  0.99999998245E-14  0.12500000000E+03  0.12500000000E+03 0.  0.
        -11    1    3    3    0    0 -0.19776614734E+02 -0.35734209933E+02 -0.41366489434E+02  0.58131185247E+02  0.51100000000E-03 0. -1.
         23    2    1    0    0    0 -0.23023886049E+02 -0.15656942438E+02 -0.10198584018E+02  0.95347845082E+02  0.90619872382E+02 0.  0.
         11    1    3    3    0    0 -0.32472713151E+01  0.20077267494E+02  0.31167905415E+02  0.37216659835E+02  0.51100000000E-03 0.  1.
         22    1    1    0    0    0  0.23023886049E+02  0.15656942438E+02  0.10198584018E+02  0.29652154918E+02  0.00000000000E+00 0. -1.
</event>
<event>
 5    1  0.8875601E-005  0.9118800E+02  0.7818608E-02  0.1130116E+00
         25   -1    0    0    0    0  0.00000000000E+00  0.00000000000E+00  0.99999998245E-14  0.12500000000E+03  0.12500000000E+03 0.  0.
        -11    1    3    3    0    0 -0.17700047839E+02  0.24204344651E+02 -0.18167338262E+02  0.35059865563E+02  0.51100000000E-03 0. -1.
         23    2    1    0    0    0  0.19835380493E+02 -0.16919501691E+02  0.95232447628E+01  0.97243846672E+02  0.93198506790E+02 0.  0.
         11    1    3    3    0    0  0.37535428332E+02 -0.41123846342E+02  0.27690583025E+02  0.62183981109E+02  0.51100000000E-03 0.  1.
         22    1    1    0    0    0 -0.19835380493E+02  0.16919501691E+02 -0.95232447628E+01  0.27756153328E+02  0.00000000000E+00 0.  1.
</event>
<event>
 5    1  0.8875601E-005  0.9118800E+02  0.7818608E-02  0.1130116E+00
         25   -1    0    0    0    0  0.00000000000E+00  0.00000000000E+00  0.99999998245E-14  0.12500000000E+03  0.12500000000E+03 0.  0.
        -11    1    3    3    0    0  0.31900113133E+02  0.51958624812E+01  0.22033283770E+02  0.39116234465E+02  0.51100000000E-03 0.  1.
         23    2    1    0    0    0  0.22499140880E+01 -0.12134583455E+02 -0.24862607179E+02  0.97242848403E+02  0.93197167879E+02 0.  0.
         11    1    3    3    0    0 -0.29650199045E+02 -0.17330445936E+02 -0.46895890949E+02  0.58126613938E+02  0.51100000000E-03 0. -1.
         22    1    1    0    0    0 -0.22499140880E+01  0.12134583455E+02  0.24862607179E+02  0.27757151597E+02  0.00000000000E+00 0. -1.
</event>
<event>
 5    1  0.8875601E-005  0.9118800E+02  0.7818608E-02  0.1130116E+00
         25   -1    0    0    0    0  0.00000000000E+00  0.00000000000E+00  0.99999998245E-14  0.12500000000E+03  0.12500000000E+03 0.  0.
        -11    1    3    3    0    0  0.54383066845E+02  0.16047456958E+02 -0.26114719523E+02  0.62426095588E+02  0.51100000000E-03 0.  1.
         23    2    1    0    0    0  0.27875096018E+02  0.60232447478E+01 -0.12661208103E+02  0.93797329507E+02  0.88455256354E+02 0.  0.
         11    1    3    3    0    0 -0.26507970827E+02 -0.10024212210E+02  0.13453511421E+02  0.31371233919E+02  0.51100000000E-03 0. -1.
         22    1    1    0    0    0 -0.27875096018E+02 -0.60232447478E+01  0.12661208103E+02  0.31202670493E+02  0.00000000000E+00 0.  1.
</event>
<event>
 5    1  0.8875601E-005  0.9118800E+02  0.7818608E-02  0.1130116E+00
         25   -1    0    0    0    0  0.00000000000E+00  0.00000000000E+00  0.99999998245E-14  0.12500000000E+03  0.12500000000E+03 0.  0.
        -11    1    3    3    0    0 -0.22740762795E+02  0.30439099615E+02  0.22703669676E+02  0.44262147428E+02  0.51100000000E-03 0. -1.
         23    2    1    0    0    0  0.14573080393E+02 -0.40833217430E+01  0.25689407344E+02  0.95184000297E+02  0.90393584254E+02 0.  0.
         11    1    3    3    0    0  0.37313843189E+02 -0.34522421358E+02  0.29857376675E+01  0.50921852869E+02  0.51100000000E-03 0.  1.
         22    1    1    0    0    0 -0.14573080393E+02  0.40833217430E+01 -0.25689407344E+02  0.29815999703E+02  0.00000000000E+00 0.  1.
</event>
<event>
 5    1  0.8875601E-005  0.9118800E+02  0.7818608E-02  0.1130116E+00
         25   -1    0    0    0    0  0.00000000000E+00  0.00000000000E+00  0.99999998245E-14  0.12500000000E+03  0.12500000000E+03 0.  0.
        -11    1    3    3    0    0  0.26755290731E+02 -0.14484711620E+02  0.23122144735E+02  0.38213689042E+02  0.51100000000E-03 0.  1.
         23    2    1    0    0    0  0.13975546566E+01  0.29944992833E+02 -0.14946790115E+01  0.94985173329E+02  0.90118218647E+02 0.  0.
         11    1    3    3    0    0 -0.25357736074E+02  0.44429704452E+02 -0.24616823746E+02  0.56771484287E+02  0.51100000000E-03 0. -1.
         22    1    1    0    0    0 -0.13975546566E+01 -0.29944992833E+02  0.14946790115E+01  0.30014826671E+02  0.00000000000E+00 0. -1.
</event>
<event>
 5    1  0.8875601E-005  0.9118800E+02  0.7818608E-02  0.1130116E+00
         25   -1    0    0    0    0  0.00000000000E+00  0.00000000000E+00  0.99999998245E-14  0.12500000000E+03  0.12500000000E+03 0.  0.
        -11    1    3    3    0    0 -0.23586151549E+01 -0.38513114813E+02 -0.28512566856E+02  0.47976968923E+02  0.51100000000E-03 0.  1.
         23    2    1    0    0    0 -0.26145137473E+02 -0.12344454941E+02  0.37483610387E+01  0.95845172068E+02  0.91303302334E+02 0.  0.
         11    1    3    3    0    0 -0.23786522318E+02  0.26168659872E+02  0.32260927895E+02  0.47868203145E+02  0.51100000000E-03 0. -1.
         22    1    1    0    0    0  0.26145137473E+02  0.12344454941E+02 -0.37483610387E+01  0.29154827932E+02  0.00000000000E+00 0. -1.
</event>
<event>
 5    1  0.8875601E-005  0.9118800E+02  0.7818608E-02  0.1130116E+00
         25   -1    0    0    0    0  0.00000000000E+00  0.00000000000E+00  0.99999998245E-14  0.12500000000E+03  0.12500000000E+03 0.  0.
        -11    1    3    3    0    0 -0.21535279620E+02  0.29294158892E+02 -0.28935346406E+01  0.36473121014E+02  0.51100000000E-03 0. -1.
         23    2    1    0    0    0  0.12479360642E+01 -0.26256903622E+02 -0.98761327423E+01  0.96919395837E+02  0.92762325107E+02 0.  0.
         11    1    3    3    0    0  0.22783215685E+02 -0.55551062514E+02 -0.69825981018E+01  0.60446274822E+02  0.51100000000E-03 0.  1.
         22    1    1    0    0    0 -0.12479360642E+01  0.26256903622E+02  0.98761327423E+01  0.28080604163E+02  0.00000000000E+00 0.  1.
</event>
<event>
 5    1  0.8875601E-005  0.9118800E+02  0.7818608E-02  0.1130116E+00
         25   -1    0    0    0    0  0.00000000000E+00  0.00000000000E+00  0.99999998245E-14  0.12500000000E+03  0.12500000000E+03 0.  0.
        -11    1    3    3    0    0  0.23220638301E+00 -0.54507733217E+01 -0.40777871084E+02  0.41141215587E+02  0.51100000000E-03 0.  1.
         23    2    1    0    0    0 -0.24451833985E+02 -0.14821222100E+02  0.68500790625E+01  0.95597884551E+02  0.90964120056E+02 0.  0.
         11    1    3    3    0    0 -0.24684040368E+02 -0.93704487783E+01  0.47627950146E+02  0.54456668963E+02  0.51100000000E-03 0. -1.
         22    1    1    0    0    0  0.24451833985E+02  0.14821222100E+02 -0.68500790625E+01  0.29402115449E+02  0.00000000000E+00 0. -1.
</event>
<event>
 5    1  0.8875601E-005  0.9118800E+02  0.7818608E-02  0.1130116E+00
         25   -1    0    0    0    0  0.00000000000E+00  0.00000000000E+00  0.99999998245E-14  0.12500000000E+03  0.12500000000E+03 0.  0.
        -11    1    3    3    0    0 -0.28396476354E+02 -0.64105606495E+01 -0.33932096889E+02  0.44708414831E+02  0.51100000000E-03 0. -1.
         23    2    1    0    0    0 -0.47218009383E+01  0.28794096108E+02 -0.68896794472E+01  0.95018955027E+02  0.90165063948E+02 0.  0.
         11    1    3    3    0    0  0.23674675415E+02  0.35204656758E+02  0.27042417442E+02  0.50310540196E+02  0.51100000000E-03 0.  1.
         22    1    1    0    0    0  0.47218009383E+01 -0.28794096108E+02  0.68896794472E+01  0.29981044973E+02  0.00000000000E+00 0.  1.
</event>
<event>
 5    1  0.8875601E-005  0.9118800E+02  0.7818608E-02  0.1130116E+00
         25   -1    0    0    0    0  0.00000000000E+00  0.00000000000E+00  0.99999998245E-14  0.12500000000E+03  0.12500000000E+03 0.  0.
        -11    1    3    3    0    0  0.37901483218E+00  0.31860375807E+02  0.11528983039E+02  0.33884283214E+02  0.51100000000E-03 0.  1.
         23    2    1    0    0    0 -0.10334290160E+02 -0.27306402808E+02 -0.27157323136E+01  0.95677442311E+02  0.91073380182E+02 0.  0.
         11    1    3    3    0    0 -0.10713304992E+02 -0.59166778614E+02 -0.14244715353E+02  0.61793159097E+02  0.51100000000E-03 0. -1.
         22    1    1    0    0    0  0.10334290160E+02  0.27306402808E+02  0.27157323136E+01  0.29322557689E+02  0.00000000000E+00 0. -1.
</event>
<event>
 5    1  0.8875601E-005  0.9118800E+02  0.7818608E-02  0.1130116E+00
         25   -1    0    0    0    0  0.00000000000E+00  0.00000000000E+00  0.99999998245E-14  0.12500000000E+03  0.12500000000E+03 0.  0.
        -11    1    3    3    0    0 -0.41172327354E+02  0.17652798827E+02  0.11511437779E+02  0.46252513945E+02  0.51100000000E-03 0. -1.
         23    2    1    0    0    0  0.66738803224E+01  0.28098369154E+02  0.56118852868E+01  0.95579730047E+02  0.90939169293E+02 0.  0.
         11    1    3    3    0    0  0.47846207677E+02  0.10445570327E+02 -0.58995524922E+01  0.49327216102E+02  0.51100000000E-03 0.  1.
         22    1    1    0    0    0 -0.66738803224E+01 -0.28098369154E+02 -0.56118852868E+01  0.29420269953E+02  0.00000000000E+00 0.  1.
</event>
<event>
 5    1  0.8875601E-005  0.9118800E+02  0.7818608E-02  0.1130116E+00
         25   -1    0    0    0    0  0.00000000000E+00  0.00000000000E+00  0.99999998245E-14  0.12500000000E+03  0.12500000000E+03 0.  0.
        -11    1    3    3    0    0  0.35954457811E+02 -0.33944920222E+02  0.15817163487E+02  0.51914962259E+02  0.51100000000E-03 0. -1.
         23    2    1    0    0    0 -0.22537500770E+01 -0.14966953169E+02  0.25207020839E+02  0.95597908643E+02  0.90964153164E+02 0.  0.
         11    1    3    3    0    0 -0.38208207888E+02  0.18977967053E+02  0.93898573515E+01  0.43682946384E+02  0.51100000000E-03 0.  1.
         22    1    1    0    0    0  0.22537500770E+01  0.14966953169E+02 -0.25207020839E+02  0.29402091357E+02  0.00000000000E+00 0. -1.
</event>
<event>
 5    1  0.8875601E-005  0.9118800E+02  0.7818608E-02  0.1130116E+00
         25   -1    0    0    0    0  0.00000000000E+00  0.00000000000E+00  0.99999998245E-14  0.12500000000E+03  0.12500000000E+03 0.  0.
        -11    1    3    3    0    0 -0.49960146752E+02  0.28592024730E+02  0.38091381528E+01  0.57689077609E+02  0.51100000000E-03 0.  1.
         23    2    1    0    0    0 -0.17481957500E+02  0.20812125960E+02  0.16255272875E+02  0.93329867047E+02  0.87792179388E+02 0.  0.
         11    1    3    3    0    0  0.32478189252E+02 -0.77798987701E+01  0.12446134723E+02  0.35640789438E+02  0.51100000000E-03 0. -1.
         22    1    1    0    0    0  0.17481957500E+02 -0.20812125960E+02 -0.16255272875E+02  0.31670132953E+02  0.00000000000E+00 0.  1.
</event>
<event>
 5    1  0.8875601E-005  0.9118800E+02  0.7818608E-02  0.1130116E+00
         25   -1    0    0    0    0  0.00000000000E+00  0.00000000000E+00  0.99999998245E-14  0.12500000000E+03  0.12500000000E+03 0.  0.
        -11    1    3    3    0    0 -0.20178311456E+02  0.51039305071E+00 -0.49734357542E+02  0.53674305535E+02  0.51100000000E-03 0. -1.
         23    2    1    0    0    0 -0.17129658733E+02 -0.21271332459E+02 -0.17979865962E+02  0.92301829212E+02  0.86316031552E+02 0.  0.
         11    1    3    3    0    0  0.30486527229E+01 -0.21781725510E+02  0.31754491580E+02  0.38627523676E+02  0.51100000000E-03 0.  1.
         22    1    1    0    0    0  0.17129658733E+02  0.21271332459E+02  0.17979865962E+02  0.32698170788E+02  0.00000000000E+00 0. -1.
</event>
<event>
 5    1  0.8875601E-005  0.9118800E+02  0.7818608E-02  0.1130116E+00
         25   -1    0    0    0    0  0.00000000000E+00  0.00000000000E+00  0.99999998245E-14  0.12500000000E+03  0.12500000000E+03 0.  0.
        -11    1    3    3    0    0  0.18090292767E+01 -0.42186858961E+02 -0.37483796044E+02  0.56462718869E+02  0.51100000000E-03 0.  1.
         23    2    1    0    0    0 -0.18135245872E+02 -0.16091090064E+02 -0.19345986380E+02  0.93982625655E+02  0.88716720035E+02 0.  0.
         11    1    3    3    0    0 -0.19944275149E+02  0.26095768897E+02  0.18137809665E+02  0.37519906786E+02  0.51100000000E-03 0. -1.
         22    1    1    0    0    0  0.18135245872E+02  0.16091090064E+02  0.19345986380E+02  0.31017374345E+02  0.00000000000E+00 0.  1.
</event>
<event>
 5    1  0.8875601E-005  0.9118800E+02  0.7818608E-02  0.1130116E+00
         25   -1    0    0    0    0  0.00000000000E+00  0.00000000000E+00  0.99999998245E-14  0.12500000000E+03  0.12500000000E+03 0.  0.
        -11    1    3    3    0    0 -0.15765110079E+01  0.60979232096E+02 -0.75090051439E+00  0.61004229245E+02  0.51100000000E-03 0.  1.
         23    2    1    0    0    0 -0.79515098699E+01  0.26800046755E+02  0.59659372974E+01  0.96415713703E+02  0.92081097006E+02 0.  0.
         11    1    3    3    0    0 -0.63749988621E+01 -0.34179185341E+02  0.67168378118E+01  0.35411484458E+02  0.51100000000E-03 0. -1.
         22    1    1    0    0    0  0.79515098699E+01 -0.26800046755E+02 -0.59659372974E+01  0.28584286297E+02  0.00000000000E+00 0.  1.
</event>
<event>
 5    1  0.8875601E-005  0.9118800E+02  0.7818608E-02  0.1130116E+00
         25   -1    0    0    0    0  0.00000000000E+00  0.00000000000E+00  0.99999998245E-14  0.12500000000E+03  0.12500000000E+03 0.  0.
        -11    1    3    3    0    0 -0.18128728573E+02  0.36441290892E+02  0.20824475759E+02  0.45719550222E+02  0.51100000000E-03 0. -1.
         23    2    1    0    0    0  0.24487033836E+02  0.13570377900E+02  0.99188804781E+01  0.95298919676E+02  0.90552360097E+02 0.  0.
         11    1    3    3    0    0  0.42615762410E+02 -0.22870912992E+02 -0.10905595281E+02  0.49579369455E+02  0.51100000000E-03 0.  1.
         22    1    1    0    0    0 -0.24487033836E+02 -0.13570377900E+02 -0.99188804781E+01  0.29701080324E+02  0.00000000000E+00 0. -1.
</event>
<event>
 5    1  0.8875601E-005  0.9118800E+02  0.7818608E-02  0.1130116E+00
         25   -1    0    0    0    0  0.00000000000E+00  0.00000000000E+00  0.99999998245E-14  0.12500000000E+03  0.12500000000E+03 0.  0.
        -11    1    3    3    0    0 -0.53063118332E+02  0.25597875780E+02  0.54659734303E+01  0.59167749978E+02  0.51100000000E-03 0. -1.
         23    2    1    0    0    0 -0.23639282643E+02  0.63994353791E+01  0.15880040841E+02  0.95811917600E+02  0.91257763506E+02 0.  0.
         11    1    3    3    0    0  0.29423835689E+02 -0.19198440401E+02  0.10414067410E+02  0.36644167623E+02  0.51100000000E-03 0.  1.
         22    1    1    0    0    0  0.23639282643E+02 -0.63994353791E+01 -0.15880040841E+02  0.29188082400E+02  0.00000000000E+00 0. -1.
</event>
<event>
 5    1  0.8875601E-005  0.9118800E+02  0.7818608E-02  0.1130116E+00
         25   -1    0    0    0    0  0.00000000000E+00  0.00000000000E+00  0.99999998245E-14  0.12500000000E+03  0.12500000000E+03 0.  0.
        -11    1    3    3    0    0  0.12858731940E+02  0.44961042266E+02  0.39085782581E+02  0.60947031995E+02  0.51100000000E-03 0.  1.
         23    2    1    0    0    0  0.31201012347E+01  0.27521290642E+02  0.11489084612E+02  0.95014077711E+02  0.90158302045E+02 0.  0.
         11    1    3    3    0    0 -0.97386307055E+01 -0.17439751624E+02 -0.27596697969E+02  0.34067045716E+02  0.51100000000E-03 0. -1.
         22    1    1    0    0    0 -0.31201012347E+01 -0.27521290642E+02 -0.11489084612E+02  0.29985922289E+02  0.00000000000E+00 0.  1.
</event>
<event>
 5    1  0.8875601E-005  0.9118800E+02  0.7818608E-02  0.1130116E+00
         25   -1    0    0    0    0  0.00000000000E+00  0.00000000000E+00  0.99999998245E-14  0.12500000000E+03  0.12500000000E+03 0.  0.
        -11    1    3    3    0    0  0.81459596339E+01  0.20973110021E+02 -0.44646100850E+02  0.49995022989E+02  0.51100000000E-03 0.  1.
         23    2    1    0    0    0  0.24891182669E+02  0.14839010451E+02 -0.23153475778E+01  0.95928914017E+02  0.91417878472E+02 0.  0.
         11    1    3    3    0    0  0.16745223035E+02 -0.61340995700E+01  0.42330753273E+02  0.45933891027E+02  0.51100000000E-03 0. -1.
         22    1    1    0    0    0 -0.24891182669E+02 -0.14839010451E+02  0.23153475778E+01  0.29071085983E+02  0.00000000000E+00 0.  1.
</event>
<event>
 5    1  0.8875601E-005  0.9118800E+02  0.7818608E-02  0.1130116E+00
         25   -1    0    0    0    0  0.00000000000E+00  0.00000000000E+00  0.99999998245E-14  0.12500000000E+03  0.12500000000E+03 0.  0.
        -11    1    3    3    0    0  0.41535831238E+02 -0.32999627284E+02 -0.50663369691E+01  0.53290416100E+02  0.51100000000E-03 0.  1.
         23    2    1    0    0    0  0.23572311876E+01 -0.32089953373E+02 -0.47062483776E+01  0.92481229726E+02  0.86575443582E+02 0.  0.
         11    1    3    3    0    0 -0.39178600051E+02  0.90967391114E+00  0.36008859153E+00  0.39190813625E+02  0.51100000000E-03 0. -1.
         22    1    1    0    0    0 -0.23572311876E+01  0.32089953373E+02  0.47062483776E+01  0.32518770274E+02  0.00000000000E+00 0.  1.
</event>
<event>
 5    1  0.8875601E-005  0.9118800E+02  0.7818608E-02  0.1130116E+00
         25   -1    0    0    0    0  0.00000000000E+00  0.00000000000E+00  0.99999998245E-14  0.12500000000E+03  0.12500000000E+03 0.  0.
        -11    1    3    3    0    0 -0.89097177172E+01  0.24506593486E+02 -0.34478919692E+02  0.43229065424E+02  0.51100000000E-03 0. -1.
         23    2    1    0    0    0  0.26215830472E+02  0.12004571777E+02  0.28963330195E+01  0.96021244750E+02  0.91544039606E+02 0.  0.
         11    1    3    3    0    0  0.35125548190E+02 -0.12502021710E+02  0.37375252711E+02  0.52792179325E+02  0.51100000000E-03 0.  1.
         22    1    1    0    0    0 -0.26215830472E+02 -0.12004571777E+02 -0.28963330195E+01  0.28978755250E+02  0.00000000000E+00 0.  1.
</event>
<event>
 5    1  0.8875601E-005  0.9118800E+02  0.7818608E-02  0.1130116E+00
         25   -1    0    0    0    0  0.00000000000E+00  0.00000000000E+00  0.99999998245E-14  0.12500000000E+03  0.12500000000E+03 0.  0.
        -11    1    3    3    0    0 -0.25611327411E+02 -0.10206259481E+02  0.52654067515E+02  0.59435331668E+02  0.51100000000E-03 0. -1.
         23    2    1    0    0    0 -0.11269253922E+02 -0.17692256034E+02  0.19346591915E+02  0.96464011735E+02  0.92146638212E+02 0.  0.
         11    1    3    3    0    0  0.14342073490E+02 -0.74859965535E+01 -0.33307475601E+02  0.37028680067E+02  0.51100000000E-03 0.  1.
         22    1    1    0    0    0  0.11269253922E+02  0.17692256034E+02 -0.19346591915E+02  0.28535988265E+02  0.00000000000E+00 0. -1.
</event>
<event>
 5    1  0.8875601E-005  0.9118800E+02  0.7818608E-02  0.1130116E+00
         25   -1    0    0    0    0  0.00000000000E+00  0.00000000000E+00  0.99999998245E-14  0.12500000000E+03  0.12500000000E+03 0.  0.
        -11    1    3    3    0    0  0.31518837748E+02  0.31442052294E+02 -0.95252293607E+01  0.45527681470E+02  0.51100000000E-03 0.  1.
         23    2    1    0    0    0  0.44493431094E+01 -0.12352420973E+02 -0.22794046176E+02  0.98695105036E+02  0.95125055895E+02 0.  0.
         11    1    3    3    0    0 -0.27069494639E+02 -0.43794473267E+02 -0.13268816815E+02  0.53167423566E+02  0.51100000000E-03 0. -1.
         22    1    1    0    0    0 -0.44493431094E+01  0.12352420973E+02  0.22794046176E+02  0.26304894964E+02  0.00000000000E+00 0.  1.
</event>
<event>
 5    1  0.8875601E-005  0.9118800E+02  0.7818608E-02  0.1130116E+00
         25   -1    0    0    0    0  0.00000000000E+00  0.00000000000E+00  0.99999998245E-14  0.12500000000E+03  0.12500000000E+03 0.  0.
        -11    1    3    3    0    0  0.81321699645E+01  0.53332838676E+02 -0.71011027521E+01  0.54414607690E+02  0.51100000000E-03 0. -1.
         23    2    1    0    0    0  0.13273981808E+02  0.15484463781E+02 -0.21621000600E+02  0.95277367570E+02  0.90522604318E+02 0.  0.
         11    1    3    3    0    0  0.51418118439E+01 -0.37848374895E+02 -0.14519897848E+02  0.40862759880E+02  0.51100000000E-03 0.  1.
         22    1    1    0    0    0 -0.13273981808E+02 -0.15484463781E+02  0.21621000600E+02  0.29722632430E+02  0.00000000000E+00 0. -1.
</event>
<event>
 5    1  0.8875601E-005  0.9118800E+02  0.7818608E-02  0.1130116E+00
         25   -1    0    0    0    0  0.00000000000E+00  0.00000000000E+00  0.99999998245E-14  0.12500000000E+03  0.12500000000E+03 0.  0.
        -11    1    3    3    0    0  0.20043905948E+02 -0.24715189766E+02 -0.67378556186E+01  0.32526873035E+02  0.51100000000E-03 0. -1.
         23    2    1    0    0    0 -0.14691268966E+02  0.25985396434E+02  0.38891188909E+01  0.94896853032E+02  0.89995629105E+02 0.  0.
         11    1    3    3    0    0 -0.34735174915E+02  0.50700586200E+02  0.10626974509E+02  0.62369979997E+02  0.51100000000E-03 0.  1.
         22    1    1    0    0    0  0.14691268966E+02 -0.25985396434E+02 -0.38891188909E+01  0.30103146968E+02  0.00000000000E+00 0.  1.
</event>
<event>
 5    1  0.8875601E-005  0.9118800E+02  0.7818608E-02  0.1130116E+00
         25   -1    0    0    0    0  0.00000000000E+00  0.00000000000E+00  0.99999998245E-14  0.12500000000E+03  0.12500000000E+03 0.  0.
        -11    1    3    3    0    0 -0.13990306305E+02  0.83514951066E+01  0.40715769735E+02  0.43854874830E+02  0.51100000000E-03 0. -1.
         23    2    1    0    0    0  0.16865003044E+02 -0.21196943312E+02  0.19965504828E+02  0.91349441067E+02  0.84925616081E+02 0.  0.
         11    1    3    3    0    0  0.30855309349E+02 -0.29548438419E+02 -0.20750264907E+02  0.47494566237E+02  0.51100000000E-03 0.  1.
         22    1    1    0    0    0 -0.16865003044E+02  0.21196943312E+02 -0.19965504828E+02  0.33650558933E+02  0.00000000000E+00 0. -1.
</event>
<event>
 5    1  0.8875601E-005  0.9118800E+02  0.7818608E-02  0.1130116E+00
         25   -1    0    0    0    0  0.00000000000E+00  0.00000000000E+00  0.99999998245E-14  0.12500000000E+03  0.12500000000E+03 0.  0.
        -11    1    3    3    0    0  0.31034702023E+02 -0.16376303014E+02 -0.73569348564E+01  0.35853319523E+02  0.51100000000E-03 0. -1.
         23    2    1    0    0    0 -0.14778917728E+02 -0.28496141031E+01  0.26583020743E+02  0.94451780714E+02  0.89375305194E+02 0.  0.
         11    1    3    3    0    0 -0.45813619751E+02  0.13526688911E+02  0.33939955599E+02  0.58598461191E+02  0.51100000000E-03 0.  1.
         22    1    1    0    0    0  0.14778917728E+02  0.28496141031E+01 -0.26583020743E+02  0.30548219286E+02  0.00000000000E+00 0.  1.
</event>
<event>
 5    1  0.8875601E-005  0.9118800E+02  0.7818608E-02  0.1130116E+00
         25   -1    0    0    0    0  0.00000000000E+00  0.00000000000E+00  0.99999998245E-14  0.12500000000E+03  0.12500000000E+03 0.  0.
        -11    1    3    3    0    0 -0.16875791083E+02  0.13651267730E+02  0.34774806167E+02  0.40993128443E+02  0.51100000000E-03 0.  1.
         23    2    1    0    0    0  0.29012912446E+02  0.75579677475E+01  0.10732385643E+02  0.93155753005E+02  0.87543921841E+02 0.  0.
         11    1    3    3    0    0  0.45888703529E+02 -0.60932999824E+01 -0.24042420524E+02  0.52162624562E+02  0.51100000000E-03 0. -1.
         22    1    1    0    0    0 -0.29012912446E+02 -0.75579677475E+01 -0.10732385643E+02  0.31844246995E+02  0.00000000000E+00 0. -1.
</event>
<event>
 5    1  0.8875601E-005  0.9118800E+02  0.7818608E-02  0.1130116E+00
         25   -1    0    0    0    0  0.00000000000E+00  0.00000000000E+00  0.99999998245E-14  0.12500000000E+03  0.12500000000E+03 0.  0.
        -11    1    3    3    0    0  0.53724133602E+01 -0.10115250510E+01 -0.56945815434E+02  0.57207621030E+02  0.51100000000E-03 0. -1.
         23    2    1    0    0    0  0.18193115206E+02 -0.70396249040E+01 -0.18764976086E+02  0.97932120748E+02  0.94117108896E+02 0.  0.
         11    1    3    3    0    0  0.12820701846E+02 -0.60280998530E+01  0.38180839348E+02  0.40724499718E+02  0.51100000000E-03 0.  1.
         22    1    1    0    0    0 -0.18193115206E+02  0.70396249040E+01  0.18764976086E+02  0.27067879252E+02  0.00000000000E+00 0. -1.
</event>
<event>
 5    1  0.8875601E-005  0.9118800E+02  0.7818608E-02  0.1130116E+00
         25   -1    0    0    0    0  0.00000000000E+00  0.00000000000E+00  0.99999998245E-14  0.12500000000E+03  0.12500000000E+03 0.  0.
        -11    1    3    3    0    0 -0.34135628013E+02 -0.25167643536E+02 -0.31190359576E+02  0.52644941939E+02  0.51100000000E-03 0.  1.
         23    2    1    0    0    0 -0.82021635324E+01 -0.28936397945E+02  0.19097569763E+01  0.94863016336E+02  0.89948619133E+02 0.  0.
         11    1    3    3    0    0  0.25933464480E+02 -0.37687544097E+01  0.33100116553E+02  0.42218074397E+02  0.51100000000E-03 0. -1.
         22    1    1    0    0    0  0.82021635324E+01  0.28936397945E+02 -0.19097569763E+01  0.30136983664E+02  0.00000000000E+00 0.  1.
</event>
<event>
 5    1  0.8875601E-005  0.9118800E+02  0.7818608E-02  0.1130116E+00
         25   -1    0    0    0    0  0.00000000000E+00  0.00000000000E+00  0.99999998245E-14  0.12500000000E+03  0.12500000000E+03 0.  0.
        -11    1    3    3    0    0 -0.15380049405E+02  0.43538345313E+02  0.33067384596E+02  0.56794237001E+02  0.51100000000E-03 0. -1.
         23    2    1    0    0    0 -0.37547741966E+01  0.56770061186E+01  0.27356172235E+02  0.96809808673E+02  0.92614535404E+02 0.  0.
         11    1    3    3    0    0  0.11625275208E+02 -0.37861339195E+02 -0.57112123612E+01  0.40015571671E+02  0.51100000000E-03 0.  1.
         22    1    1    0    0    0  0.37547741966E+01 -0.56770061186E+01 -0.27356172235E+02  0.28190191327E+02  0.00000000000E+00 0. -1.
</event>
<event>
 5    1  0.8875601E-005  0.9118800E+02  0.7818608E-02  0.1130116E+00
         25   -1    0    0    0    0  0.00000000000E+00  0.00000000000E+00  0.99999998245E-14  0.12500000000E+03  0.12500000000E+03 0.  0.
        -11    1    3    3    0    0 -0.25902318525E+02  0.15959367720E+02  0.11279130519E+02  0.32447654901E+02  0.51100000000E-03 0. -1.
         23    2    1    0    0    0  0.16612689276E+02 -0.25691813868E+02  0.12430099858E+02  0.91976400450E+02  0.85843462840E+02 0.  0.
         11    1    3    3    0    0  0.42515007801E+02 -0.41651181588E+02  0.11509693390E+01  0.59528745549E+02  0.51100000000E-03 0.  1.
         22    1    1    0    0    0 -0.16612689276E+02  0.25691813868E+02 -0.12430099858E+02  0.33023599550E+02  0.00000000000E+00 0.  1.
</event>
<event>
 5    1  0.8875601E-005  0.9118800E+02  0.7818608E-02  0.1130116E+00
         25   -1    0    0    0    0  0.00000000000E+00  0.00000000000E+00  0.99999998245E-14  0.12500000000E+03  0.12500000000E+03 0.  0.
        -11    1    3    3    0    0 -0.18773458318E+02 -0.36195693362E+02 -0.31547855625E+02  0.51554225335E+02  0.51100000000E-03 0. -1.
         23    2    1    0    0    0 -0.29058666391E+02 -0.77233464896E+01 -0.48546079410E+00  0.94928554314E+02  0.90039650036E+02 0.  0.
         11    1    3    3    0    0 -0.10285208073E+02  0.28472346872E+02  0.31062394830E+02  0.43374328979E+02  0.51100000000E-03 0.  1.
         22    1    1    0    0    0  0.29058666391E+02  0.77233464896E+01  0.48546079410E+00  0.30071445686E+02  0.00000000000E+00 0. -1.
</event>
<event>
 5    1  0.8875601E-005  0.9118800E+02  0.7818608E-02  0.1130116E+00
         25   -1    0    0    0    0  0.00000000000E+00  0.00000000000E+00  0.99999998245E-14  0.12500000000E+03  0.12500000000E+03 0.  0.
        -11    1    3    3    0    0 -0.38604157819E+01 -0.26620491737E+02 -0.34650524222E+02  0.43865843426E+02  0.51100000000E-03 0.  1.
         23    2    1    0    0    0  0.63154230375E+01  0.21587046330E+02 -0.18986757241E+02  0.95565630838E+02  0.90919787228E+02 0.  0.
         11    1    3    3    0    0  0.10175838819E+02  0.48207538067E+02  0.15663766981E+02  0.51699787412E+02  0.51100000000E-03 0. -1.
         22    1    1    0    0    0 -0.63154230375E+01 -0.21587046330E+02  0.18986757241E+02  0.29434369162E+02  0.00000000000E+00 0.  1.
</event>
<event>
 5    1  0.8875601E-005  0.9118800E+02  0.7818608E-02  0.1130116E+00
         25   -1    0    0    0    0  0.00000000000E+00  0.00000000000E+00  0.99999998245E-14  0.12500000000E+03  0.12500000000E+03 0.  0.
        -11    1    3    3    0    0 -0.27711323587E+01 -0.47303726991E+02 -0.32379872895E+01  0.47495329494E+02  0.51100000000E-03 0. -1.
         23    2    1    0    0    0 -0.26774066206E+02 -0.28611283596E+01 -0.12191721762E+01  0.98045908335E+02  0.94268112762E+02 0.  0.
         11    1    3    3    0    0 -0.24002933847E+02  0.44442598632E+02  0.20188151133E+01  0.50550578841E+02  0.51100000000E-03 0.  1.
         22    1    1    0    0    0  0.26774066206E+02  0.28611283596E+01  0.12191721762E+01  0.26954091665E+02  0.00000000000E+00 0. -1.
</event>
<event>
 5    1  0.8875601E-005  0.9118800E+02  0.7818608E-02  0.1130116E+00
         25   -1    0    0    0    0  0.00000000000E+00  0.00000000000E+00  0.99999998245E-14  0.12500000000E+03  0.12500000000E+03 0.  0.
        -11    1    3    3    0    0  0.34617604264E+02 -0.38482970208E+02 -0.30013220634E+02  0.59834028229E+02  0.51100000000E-03 0.  1.
         23    2    1    0    0    0  0.39270244375E+01 -0.22772152699E+02 -0.15075651425E+02  0.97408919460E+02  0.93419643892E+02 0.  0.
         11    1    3    3    0    0 -0.30690579826E+02  0.15710817509E+02  0.14937569209E+02  0.37574891231E+02  0.51100000000E-03 0. -1.
         22    1    1    0    0    0 -0.39270244375E+01  0.22772152699E+02  0.15075651425E+02  0.27591080540E+02  0.00000000000E+00 0.  1.
</event>
<event>
 5    1  0.8875601E-005  0.9118800E+02  0.7818608E-02  0.1130116E+00
         25   -1    0    0    0    0  0.00000000000E+00  0.00000000000E+00  0.99999998245E-14  0.12500000000E+03  0.12500000000E+03 0.  0.
        -11    1    3    3    0    0 -0.22554789410E+01  0.34503106249E+02  0.35010514953E+02  0.49206581710E+02  0.51100000000E-03 0.  1.
         23    2    1    0    0    0 -0.23141033520E+02  0.18711903763E+02 -0.27024926038E+01  0.95117793906E+02  0.90301984897E+02 0.  0.
         11    1    3    3    0    0 -0.20885554579E+02 -0.15791202486E+02 -0.37713007557E+02  0.45911212195E+02  0.51100000000E-03 0. -1.
         22    1    1    0    0    0  0.23141033520E+02 -0.18711903763E+02  0.27024926038E+01  0.29882206094E+02  0.00000000000E+00 0.  1.
</event>
<event>
 5    1  0.8875601E-005  0.9118800E+02  0.7818608E-02  0.1130116E+00
         25   -1    0    0    0    0  0.00000000000E+00  0.00000000000E+00  0.99999998245E-14  0.12500000000E+03  0.12500000000E+03 0.  0.
        -11    1    3    3    0    0  0.51987635372E+01 -0.66665231750E+01  0.45609207822E+02  0.46386091794E+02  0.51100000000E-03 0.  1.
         23    2    1    0    0    0  0.27038031983E+02  0.93123583530E+01  0.38519619999E+01  0.96144969193E+02  0.91712825157E+02 0.  0.
         11    1    3    3    0    0  0.21839268446E+02  0.15978881528E+02 -0.41757245822E+02  0.49758877399E+02  0.51100000000E-03 0. -1.
         22    1    1    0    0    0 -0.27038031983E+02 -0.93123583530E+01 -0.38519619999E+01  0.28855030807E+02  0.00000000000E+00 0.  1.
</event>
<event>
 5    1  0.8875601E-005  0.9118800E+02  0.7818608E-02  0.1130116E+00
         25   -1    0    0    0    0  0.00000000000E+00  0.00000000000E+00  0.99999998245E-14  0.12500000000E+03  0.12500000000E+03 0.  0.
        -11    1    3    3    0    0  0.24844618416E+02  0.28294253744E+02 -0.48112824955E+02  0.61095529988E+02  0.51100000000E-03 0.  1.
         23    2    1    0    0    0  0.47021117889E+01  0.19394486725E+02 -0.20893907887E+02  0.96106897754E+02  0.91660920999E+02 0.  0.
         11    1    3    3    0    0 -0.20142506627E+02 -0.88997670192E+01  0.27218917068E+02  0.35011367765E+02  0.51100000000E-03 0. -1.
         22    1    1    0    0    0 -0.47021117889E+01 -0.19394486725E+02  0.20893907887E+02  0.28893102246E+02  0.00000000000E+00 0.  1.
</event>
<event>
 5    1  0.8875601E-005  0.9118800E+02  0.7818608E-02  0.1130116E+00
         25   -1    0    0    0    0  0.00000000000E+00  0.00000000000E+00  0.99999998245E-14  0.12500000000E+03  0.12500000000E+03 0.  0.
        -11    1    3    3    0    0  0.48618259952E+02  0.68405774909E+01  0.16211681484E+02  0.51704422615E+02  0.51100000000E-03 0.  1.
         23    2    1    0    0    0  0.18139055165E+02  0.18259756543E+02 -0.13641896615E+02  0.95870197829E+02  0.91337557758E+02 0.  0.
         11    1    3    3    0    0 -0.30479204787E+02  0.11419179052E+02 -0.29853578099E+02  0.44165775214E+02  0.51100000000E-03 0. -1.
         22    1    1    0    0    0 -0.18139055165E+02 -0.18259756543E+02  0.13641896615E+02  0.29129802171E+02  0.00000000000E+00 0.  1.
</event>
<event>
 5    1  0.8875601E-005  0.9118800E+02  0.7818608E-02  0.1130116E+00
         25   -1    0    0    0    0  0.00000000000E+00  0.00000000000E+00  0.99999998245E-14  0.12500000000E+03  0.12500000000E+03 0.  0.
        -11    1    3    3    0    0  0.20376278627E+02 -0.31356539235E+02 -0.41909301897E+02  0.56167738687E+02  0.51100000000E-03 0.  1.
         23    2    1    0    0    0 -0.69350035791E+01 -0.23656056837E+02 -0.11378534925E+02  0.97849045012E+02  0.94006708553E+02 0.  0.
         11    1    3    3    0    0 -0.27311282206E+02  0.77004823980E+01  0.30530766971E+02  0.41681306325E+02  0.51100000000E-03 0. -1.
         22    1    1    0    0    0  0.69350035791E+01  0.23656056837E+02  0.11378534925E+02  0.27150954988E+02  0.00000000000E+00 0.  1.
</event>
<event>
 5    1  0.8875601E-005  0.9118800E+02  0.7818608E-02  0.1130116E+00
         25   -1    0    0    0    0  0.00000000000E+00  0.00000000000E+00  0.99999998245E-14  0.12500000000E+03  0.12500000000E+03 0.  0.
        -11    1    3    3    0    0 -0.40564970217E+02 -0.22975957417E+02 -0.16128959799E+02  0.49331073092E+02  0.51100000000E-03 0. -1.
         23    2    1    0    0    0 -0.10222467879E+02  0.11008250386E+02 -0.25084018252E+02  0.95761525386E+02  0.91188712824E+02 0.  0.
         11    1    3    3    0    0  0.30342502338E+02  0.33984207803E+02 -0.89550584530E+01  0.46430452294E+02  0.51100000000E-03 0.  1.
         22    1    1    0    0    0  0.10222467879E+02 -0.11008250386E+02  0.25084018252E+02  0.29238474614E+02  0.00000000000E+00 0. -1.
</event>
<event>
 5    1  0.8875601E-005  0.9118800E+02  0.7818608E-02  0.1130116E+00
         25   -1    0    0    0    0  0.00000000000E+00  0.00000000000E+00  0.99999998245E-14  0.12500000000E+03  0.12500000000E+03 0.  0.
        -11    1    3    3    0    0 -0.82825462104E+01 -0.16374278814E+02  0.27545677871E+02  0.33098065624E+02  0.51100000000E-03 0.  1.
         23    2    1    0    0    0  0.16911127063E+02 -0.97699131958E+01 -0.25905632651E+02  0.92557139069E+02  0.86684974287E+02 0.  0.
         11    1    3    3    0    0  0.25193673273E+02  0.66043656180E+01 -0.53451310522E+02  0.59459073445E+02  0.51100000000E-03 0. -1.
         22    1    1    0    0    0 -0.16911127063E+02  0.97699131958E+01  0.25905632651E+02  0.32442860931E+02  0.00000000000E+00 0. -1.
</event>
<event>
 5    1  0.8875601E-005  0.9118800E+02  0.7818608E-02  0.1130116E+00
         25   -1    0    0    0    0  0.00000000000E+00  0.00000000000E+00  0.99999998245E-14  0.12500000000E+03  0.12500000000E+03 0.  0.
        -11    1    3    3    0    0 -0.17706684041E+02  0.49420903424E+02  0.21917161216E+02  0.56888613192E+02  0.51100000000E-03 0. -1.
         23    2    1    0    0    0  0.23997179870E+01  0.28019237353E+02 -0.46599728607E+01  0.96494708293E+02  0.92188269716E+02 0.  0.
         11    1    3    3    0    0  0.20106402028E+02 -0.21401666071E+02 -0.26577134077E+02  0.39606095100E+02  0.51100000000E-03 0.  1.
         22    1    1    0    0    0 -0.23997179870E+01 -0.28019237353E+02  0.46599728607E+01  0.28505291707E+02  0.00000000000E+00 0. -1.
</event>
<event>
 5    1  0.8875601E-005  0.9118800E+02  0.7818608E-02  0.1130116E+00
         25   -1    0    0    0    0  0.00000000000E+00  0.00000000000E+00  0.99999998245E-14  0.12500000000E+03  0.12500000000E+03 0.  0.
        -11    1    3    3    0    0  0.15367327141E+02  0.40312312428E+01 -0.33446239764E+02  0.37027780428E+02  0.51100000000E-03 0.  1.
         23    2    1    0    0    0 -0.26384638786E+02 -0.29762380126E+01  0.89866830668E+01  0.96968452966E+02  0.92828407514E+02 0.  0.
         11    1    3    3    0    0 -0.41751965926E+02 -0.70074692554E+01  0.42432922831E+02  0.59940672538E+02  0.51100000000E-03 0. -1.
         22    1    1    0    0    0  0.26384638786E+02  0.29762380126E+01 -0.89866830668E+01  0.28031547034E+02  0.00000000000E+00 0. -1.
</event>
<event>
 5    1  0.8875601E-005  0.9118800E+02  0.7818608E-02  0.1130116E+00
         25   -1    0    0    0    0  0.00000000000E+00  0.00000000000E+00  0.99999998245E-14  0.12500000000E+03  0.12500000000E+03 0.  0.
        -11    1    3    3    0    0 -0.34497654740E+02  0.20501535625E+02 -0.45528362491E+02  0.60689644396E+02  0.51100000000E-03 0.  1.
         23    2    1    0    0    0 -0.20065746474E+02 -0.33308752116E+00 -0.19567991360E+02  0.96970525964E+02  0.92831198909E+02 0.  0.
         11    1    3    3    0    0  0.14431908266E+02 -0.20834623146E+02  0.25960371131E+02  0.36280881568E+02  0.51100000000E-03 0. -1.
         22    1    1    0    0    0  0.20065746474E+02  0.33308752116E+00  0.19567991360E+02  0.28029474036E+02  0.00000000000E+00 0.  1.
</event>
<event>
 5    1  0.8875601E-005  0.9118800E+02  0.7818608E-02  0.1130116E+00
         25   -1    0    0    0    0  0.00000000000E+00  0.00000000000E+00  0.99999998245E-14  0.12500000000E+03  0.12500000000E+03 0.  0.
        -11    1    3    3    0    0  0.78040788442E+00 -0.27037062109E+02 -0.20887058998E+02  0.34174273917E+02  0.51100000000E-03 0.  1.
         23    2    1    0    0    0  0.18289784058E+01  0.24274453733E+02  0.14640210637E+02  0.96593486072E+02  0.92322107418E+02 0.  0.
         11    1    3    3    0    0  0.10485705214E+01  0.51311515842E+02  0.35527269635E+02  0.62419212155E+02  0.51100000000E-03 0. -1.
         22    1    1    0    0    0 -0.18289784058E+01 -0.24274453733E+02 -0.14640210637E+02  0.28406513928E+02  0.00000000000E+00 0. -1.
</event>
<event>
 5    1  0.8875601E-005  0.9118800E+02  0.7818608E-02  0.1130116E+00
         25   -1    0    0    0    0  0.00000000000E+00  0.00000000000E+00  0.99999998245E-14  0.12500000000E+03  0.12500000000E+03 0.  0.
        -11    1    3    3    0    0  0.97880699598E+01  0.36704464471E+02 -0.14485523670E+02  0.40655312345E+02  0.51100000000E-03 0. -1.
         23    2    1    0    0    0  0.97538413487E+01 -0.16216141496E+02 -0.24013008208E+02  0.94426723609E+02  0.89340253538E+02 0.  0.
         11    1    3    3    0    0 -0.34228611162E-01 -0.52920605967E+02 -0.95274845384E+01  0.53771411264E+02  0.51100000000E-03 0.  1.
         22    1    1    0    0    0 -0.97538413487E+01  0.16216141496E+02  0.24013008208E+02  0.30573276391E+02  0.00000000000E+00 0.  1.
</event>
<event>
 5    1  0.8875601E-005  0.9118800E+02  0.7818608E-02  0.1130116E+00
         25   -1    0    0    0    0  0.00000000000E+00  0.00000000000E+00  0.99999998245E-14  0.12500000000E+03  0.12500000000E+03 0.  0.
        -11    1    3    3    0    0  0.67829403004E+00  0.75330247613E+01  0.33690987052E+02  0.34529540305E+02  0.51100000000E-03 0.  1.
         23    2    1    0    0    0 -0.47490490327E+01 -0.17925326251E+02 -0.22133742831E+02  0.96124866067E+02  0.91685421506E+02 0.  0.
         11    1    3    3    0    0 -0.54273430627E+01 -0.25458351012E+02 -0.55824729883E+02  0.61595325763E+02  0.51100000000E-03 0. -1.
         22    1    1    0    0    0  0.47490490327E+01  0.17925326251E+02  0.22133742831E+02  0.28875133933E+02  0.00000000000E+00 0. -1.
</event>
<event>
 5    1  0.8875601E-005  0.9118800E+02  0.7818608E-02  0.1130116E+00
         25   -1    0    0    0    0  0.00000000000E+00  0.00000000000E+00  0.99999998245E-14  0.12500000000E+03  0.12500000000E+03 0.  0.
        -11    1    3    3    0    0 -0.30607071711E+02  0.15912361063E+02 -0.46231072714E+02  0.57682823768E+02  0.51100000000E-03 0. -1.
         23    2    1    0    0    0 -0.21328400328E+02  0.17153505856E+02 -0.88257894843E+01  0.96241731906E+02  0.91844613215E+02 0.  0.
         11    1    3    3    0    0  0.92786713831E+01  0.12411447933E+01  0.37405283230E+02  0.38558908138E+02  0.51100000000E-03 0.  1.
         22    1    1    0    0    0  0.21328400328E+02 -0.17153505856E+02  0.88257894843E+01  0.28758268094E+02  0.00000000000E+00 0. -1.
</event>
<event>
 5    1  0.8875601E-005  0.9118800E+02  0.7818608E-02  0.1130116E+00
         25   -1    0    0    0    0  0.00000000000E+00  0.00000000000E+00  0.99999998245E-14  0.12500000000E+03  0.12500000000E+03 0.  0.
        -11    1    3    3    0    0  0.34076661567E+02  0.12548679104E+01  0.12599144163E+02  0.36352881467E+02  0.51100000000E-03 0.  1.
         23    2    1    0    0    0 -0.24839744383E+02  0.10359920136E+02 -0.28443482608E+01  0.97936534530E+02  0.94122970802E+02 0.  0.
         11    1    3    3    0    0 -0.58916405950E+02  0.91050522252E+01 -0.15443492423E+02  0.61583653063E+02  0.51100000000E-03 0. -1.
         22    1    1    0    0    0  0.24839744383E+02 -0.10359920136E+02  0.28443482608E+01  0.27063465470E+02  0.00000000000E+00 0. -1.
</event>
<event>
 5    1  0.8875601E-005  0.9118800E+02  0.7818608E-02  0.1130116E+00
         25   -1    0    0    0    0  0.00000000000E+00  0.00000000000E+00  0.99999998245E-14  0.12500000000E+03  0.12500000000E+03 0.  0.
        -11    1    3    3    0    0  0.24625998515E+02  0.40771147242E+02 -0.35124799209E+02  0.59181735105E+02  0.51100000000E-03 0.  1.
         23    2    1    0    0    0 -0.15981207048E+01  0.17776075077E+02 -0.22514494895E+02  0.96269435868E+02  0.91882310414E+02 0.  0.
         11    1    3    3    0    0 -0.26224119220E+02 -0.22995072165E+02  0.12610304314E+02  0.37087700763E+02  0.51100000000E-03 0. -1.
         22    1    1    0    0    0  0.15981207048E+01 -0.17776075077E+02  0.22514494895E+02  0.28730564132E+02  0.00000000000E+00 0.  1.
</event>
<event>
 5    1  0.8875601E-005  0.9118800E+02  0.7818608E-02  0.1130116E+00
         25   -1    0    0    0    0  0.00000000000E+00  0.00000000000E+00  0.99999998245E-14  0.12500000000E+03  0.12500000000E+03 0.  0.
        -11    1    3    3    0    0 -0.44286001200E+02 -0.98098699626E+00 -0.17927542342E+02  0.47787121826E+02  0.51100000000E-03 0.  1.
         23    2    1    0    0    0 -0.45727624905E+01 -0.26736780529E+02 -0.11430810173E+02  0.95564833768E+02  0.90918691379E+02 0.  0.
         11    1    3    3    0    0  0.39713238709E+02 -0.25755793533E+02  0.64967321688E+01  0.47777711942E+02  0.51100000000E-03 0. -1.
         22    1    1    0    0    0  0.45727624905E+01  0.26736780529E+02  0.11430810173E+02  0.29435166232E+02  0.00000000000E+00 0.  1.
</event>
<event>
 5    1  0.8875601E-005  0.9118800E+02  0.7818608E-02  0.1130116E+00
         25   -1    0    0    0    0  0.00000000000E+00  0.00000000000E+00  0.99999998245E-14  0.12500000000E+03  0.12500000000E+03 0.  0.
        -11    1    3    3    0    0 -0.52357923752E+02 -0.14832175473E+02 -0.25879780682E+02  0.60258681178E+02  0.51100000000E-03 0. -1.
         23    2    1    0    0    0 -0.19269975622E+02 -0.16582407971E+02 -0.16490193955E+02  0.94697612120E+02  0.89718465379E+02 0.  0.
         11    1    3    3    0    0  0.33087948130E+02 -0.17502324982E+01  0.93895867269E+01  0.34438930942E+02  0.51100000000E-03 0.  1.
         22    1    1    0    0    0  0.19269975622E+02  0.16582407971E+02  0.16490193955E+02  0.30302387880E+02  0.00000000000E+00 0. -1.
</event>
<event>
 5    1  0.8875601E-005  0.9118800E+02  0.7818608E-02  0.1130116E+00
         25   -1    0    0    0    0  0.00000000000E+00  0.00000000000E+00  0.99999998245E-14  0.12500000000E+03  0.12500000000E+03 0.  0.
        -11    1    3    3    0    0 -0.22845301003E+02 -0.19855601799E+02  0.37018198066E+02  0.47817357613E+02  0.51100000000E-03 0. -1.
         23    2    1    0    0    0 -0.27161316490E+02  0.93224847781E+01 -0.13963354073E+01  0.96249424554E+02  0.91855082268E+02 0.  0.
         11    1    3    3    0    0 -0.43160154865E+01  0.29178086577E+02 -0.38414533473E+02  0.48432066941E+02  0.51100000000E-03 0.  1.
         22    1    1    0    0    0  0.27161316490E+02 -0.93224847781E+01  0.13963354073E+01  0.28750575446E+02  0.00000000000E+00 0.  1.
</event>
<event>
 5    1  0.8875601E-005  0.9118800E+02  0.7818608E-02  0.1130116E+00
         25   -1    0    0    0    0  0.00000000000E+00  0.00000000000E+00  0.99999998245E-14  0.12500000000E+03  0.12500000000E+03 0.  0.
        -11    1    3    3    0    0  0.11208580744E+02  0.32794460651E+02 -0.22091030148E+02  0.41098936057E+02  0.51100000000E-03 0.  1.
         23    2    1    0    0    0  0.24881766586E+02 -0.37058364702E+01  0.15665528239E+02  0.95364813019E+02  0.90643274736E+02 0.  0.
         11    1    3    3    0    0  0.13673185841E+02 -0.36500297122E+02  0.37756558387E+02  0.54265876963E+02  0.51100000000E-03 0. -1.
         22    1    1    0    0    0 -0.24881766586E+02  0.37058364702E+01 -0.15665528239E+02  0.29635186981E+02  0.00000000000E+00 0. -1.
</event>
<event>
 5    1  0.8875601E-005  0.9118800E+02  0.7818608E-02  0.1130116E+00
         25   -1    0    0    0    0  0.00000000000E+00  0.00000000000E+00  0.99999998245E-14  0.12500000000E+03  0.12500000000E+03 0.  0.
        -11    1    3    3    0    0  0.42636227732E+02  0.11770041992E+02 -0.64653869499E+01  0.44701040619E+02  0.51100000000E-03 0.  1.
         23    2    1    0    0    0  0.94940341137E+01 -0.27048967651E+02  0.11597202810E+01  0.96309787630E+02  0.91937190012E+02 0.  0.
         11    1    3    3    0    0 -0.33142193619E+02 -0.38819009643E+02  0.76251072310E+01  0.51608747011E+02  0.51100000000E-03 0. -1.
         22    1    1    0    0    0 -0.94940341137E+01  0.27048967651E+02 -0.11597202810E+01  0.28690212370E+02  0.00000000000E+00 0. -1.
</event>
<event>
 5    1  0.8875601E-005  0.9118800E+02  0.7818608E-02  0.1130116E+00
         25   -1    0    0    0    0  0.00000000000E+00  0.00000000000E+00  0.99999998245E-14  0.12500000000E+03  0.12500000000E+03 0.  0.
        -11    1    3    3    0    0  0.45229798179E+02 -0.83640560429E+00  0.37995298595E+02  0.59076873082E+02  0.51100000000E-03 0. -1.
         23    2    1    0    0    0  0.14372947179E+02 -0.10052506223E+02  0.26400259424E+02  0.93304445270E+02  0.87755975964E+02 0.  0.
         11    1    3    3    0    0 -0.30856850999E+02 -0.92161006187E+01 -0.11595039170E+02  0.34227572187E+02  0.51100000000E-03 0.  1.
         22    1    1    0    0    0 -0.14372947179E+02  0.10052506223E+02 -0.26400259424E+02  0.31695554730E+02  0.00000000000E+00 0. -1.
</event>
<event>
 5    1  0.8875601E-005  0.9118800E+02  0.7818608E-02  0.1130116E+00
         25   -1    0    0    0    0  0.00000000000E+00  0.00000000000E+00  0.99999998245E-14  0.12500000000E+03  0.12500000000E+03 0.  0.
        -11    1    3    3    0    0  0.40198392346E+02 -0.18996917846E+02 -0.14364963001E+01  0.44484347323E+02  0.51100000000E-03 0.  1.
         23    2    1    0    0    0  0.54284654164E+01  0.39125831830E+01  0.28472537811E+02  0.95751718797E+02  0.91175269120E+02 0.  0.
         11    1    3    3    0    0 -0.34769926930E+02  0.22909501029E+02  0.29909034111E+02  0.51267371474E+02  0.51100000000E-03 0. -1.
         22    1    1    0    0    0 -0.54284654164E+01 -0.39125831830E+01 -0.28472537811E+02  0.29248281203E+02  0.00000000000E+00 0.  1.
</event>
<event>
 5    1  0.8875601E-005  0.9118800E+02  0.7818608E-02  0.1130116E+00
         25   -1    0    0    0    0  0.00000000000E+00  0.00000000000E+00  0.99999998245E-14  0.12500000000E+03  0.12500000000E+03 0.  0.
        -11    1    3    3    0    0 -0.32310423108E+02  0.34285907956E+01  0.23910366140E+02  0.40341347096E+02  0.51100000000E-03 0. -1.
         23    2    1    0    0    0  0.11169341818E+02  0.28757984226E+02  0.77781215951E+01  0.93183730122E+02  0.87583859989E+02 0.  0.
         11    1    3    3    0    0  0.43479764926E+02  0.25329393430E+02 -0.16132244545E+02  0.52842383026E+02  0.51100000000E-03 0.  1.
         22    1    1    0    0    0 -0.11169341818E+02 -0.28757984226E+02 -0.77781215951E+01  0.31816269878E+02  0.00000000000E+00 0.  1.
</event>
<event>
 5    1  0.8875601E-005  0.9118800E+02  0.7818608E-02  0.1130116E+00
         25   -1    0    0    0    0  0.00000000000E+00  0.00000000000E+00  0.99999998245E-14  0.12500000000E+03  0.12500000000E+03 0.  0.
        -11    1    3    3    0    0  0.21818422628E+02  0.81729848207E+01 -0.25154684259E+02  0.34287014849E+02  0.51100000000E-03 0. -1.
         23    2    1    0    0    0 -0.22939350534E+02 -0.18957552061E+02  0.51985662825E+01  0.94790271857E+02  0.89847470551E+02 0.  0.
         11    1    3    3    0    0 -0.44757773162E+02 -0.27130536881E+02  0.30353250542E+02  0.60503257008E+02  0.51100000000E-03 0.  1.
         22    1    1    0    0    0  0.22939350534E+02  0.18957552061E+02 -0.51985662825E+01  0.30209728143E+02  0.00000000000E+00 0.  1.
</event>
<event>
 5    1  0.8875601E-005  0.9118800E+02  0.7818608E-02  0.1130116E+00
         25   -1    0    0    0    0  0.00000000000E+00  0.00000000000E+00  0.99999998245E-14  0.12500000000E+03  0.12500000000E+03 0.  0.
        -11    1    3    3    0    0  0.32497472937E+02  0.44221277979E+02  0.29295974497E+02  0.62208209228E+02  0.51100000000E-03 0. -1.
         23    2    1    0    0    0  0.12171658633E+02  0.19068445129E+02  0.16559483505E+02  0.96964819111E+02  0.92823514143E+02 0.  0.
         11    1    3    3    0    0 -0.20325814305E+02 -0.25152832850E+02 -0.12736490991E+02  0.34756609883E+02  0.51100000000E-03 0.  1.
         22    1    1    0    0    0 -0.12171658633E+02 -0.19068445129E+02 -0.16559483505E+02  0.28035180889E+02  0.00000000000E+00 0. -1.
</event>
<event>
 5    1  0.8875601E-005  0.9118800E+02  0.7818608E-02  0.1130116E+00
         25   -1    0    0    0    0  0.00000000000E+00  0.00000000000E+00  0.99999998245E-14  0.12500000000E+03  0.12500000000E+03 0.  0.
        -11    1    3    3    0    0 -0.23318660445E+02  0.19539524455E+02  0.53461579159E+02  0.61511733737E+02  0.51100000000E-03 0. -1.
         23    2    1    0    0    0 -0.29333818831E+01  0.89937426186E+01  0.26177847315E+02  0.97165276621E+02  0.93093067170E+02 0.  0.
         11    1    3    3    0    0  0.20385278562E+02 -0.10545781836E+02 -0.27283731844E+02  0.35653542884E+02  0.51100000000E-03 0.  1.
         22    1    1    0    0    0  0.29333818831E+01 -0.89937426186E+01 -0.26177847315E+02  0.27834723379E+02  0.00000000000E+00 0. -1.
</event>
<event>
 5    1  0.8875601E-005  0.9118800E+02  0.7818608E-02  0.1130116E+00
         25   -1    0    0    0    0  0.00000000000E+00  0.00000000000E+00  0.99999998245E-14  0.12500000000E+03  0.12500000000E+03 0.  0.
        -11    1    3    3    0    0 -0.32227827114E+02  0.26457613378E+02 -0.45457582627E+02  0.61684924938E+02  0.51100000000E-03 0. -1.
         23    2    1    0    0    0 -0.18541595698E+02  0.61615993886E+01 -0.21751668198E+02  0.95761478364E+02  0.91188648368E+02 0.  0.
         11    1    3    3    0    0  0.13686231416E+02 -0.20296013989E+02  0.23705914429E+02  0.34076553426E+02  0.51100000000E-03 0.  1.
         22    1    1    0    0    0  0.18541595698E+02 -0.61615993886E+01  0.21751668198E+02  0.29238521636E+02  0.00000000000E+00 0. -1.
</event>
<event>
 5    1  0.8875601E-005  0.9118800E+02  0.7818608E-02  0.1130116E+00
         25   -1    0    0    0    0  0.00000000000E+00  0.00000000000E+00  0.99999998245E-14  0.12500000000E+03  0.12500000000E+03 0.  0.
        -11    1    3    3    0    0  0.29523405383E+02 -0.49004525520E+02  0.85099192326E+01  0.57840243018E+02  0.51100000000E-03 0.  1.
         23    2    1    0    0    0  0.56726846272E+01 -0.20557393682E+02  0.19022824645E+02  0.96422847529E+02  0.92090780659E+02 0.  0.
         11    1    3    3    0    0 -0.23850720756E+02  0.28447131838E+02  0.10512905413E+02  0.38582604511E+02  0.51100000000E-03 0. -1.
         22    1    1    0    0    0 -0.56726846272E+01  0.20557393682E+02 -0.19022824645E+02  0.28577152471E+02  0.00000000000E+00 0.  1.
</event>
<event>
 5    1  0.8875601E-005  0.9118800E+02  0.7818608E-02  0.1130116E+00
         25   -1    0    0    0    0  0.00000000000E+00  0.00000000000E+00  0.99999998245E-14  0.12500000000E+03  0.12500000000E+03 0.  0.
        -11    1    3    3    0    0  0.14579923313E+02  0.76715009554E+01 -0.33981971271E+02  0.37765069343E+02  0.51100000000E-03 0. -1.
         23    2    1    0    0    0  0.56782821814E+01  0.25855084629E+02  0.17622846409E+02  0.93199166595E+02  0.87605888208E+02 0.  0.
         11    1    3    3    0    0 -0.89016411318E+01  0.18183583674E+02  0.51604817680E+02  0.55434097252E+02  0.51100000000E-03 0.  1.
         22    1    1    0    0    0 -0.56782821814E+01 -0.25855084629E+02 -0.17622846409E+02  0.31800833405E+02  0.00000000000E+00 0.  1.
</event>
<event>
 5    1  0.8875601E-005  0.9118800E+02  0.7818608E-02  0.1130116E+00
         25   -1    0    0    0    0  0.00000000000E+00  0.00000000000E+00  0.99999998245E-14  0.12500000000E+03  0.12500000000E+03 0.  0.
        -11    1    3    3    0    0  0.20477686350E+02  0.72043029351E+01  0.30224907674E+02  0.37212668047E+02  0.51100000000E-03 0. -1.
         23    2    1    0    0    0 -0.45515297296E+01 -0.29295464566E+02 -0.64131444889E+01  0.94667359342E+02  0.89676305876E+02 0.  0.
         11    1    3    3    0    0 -0.25029216079E+02 -0.36499767502E+02 -0.36638052163E+02  0.57454691295E+02  0.51100000000E-03 0.  1.
         22    1    1    0    0    0  0.45515297296E+01  0.29295464566E+02  0.64131444889E+01  0.30332640658E+02  0.00000000000E+00 0.  1.
</event>
<event>
 5    1  0.8875601E-005  0.9118800E+02  0.7818608E-02  0.1130116E+00
         25   -1    0    0    0    0  0.00000000000E+00  0.00000000000E+00  0.99999998245E-14  0.12500000000E+03  0.12500000000E+03 0.  0.
        -11    1    3    3    0    0 -0.25130552983E+02 -0.41811886884E+02  0.37580309396E+02  0.61579690098E+02  0.51100000000E-03 0.  1.
         23    2    1    0    0    0 -0.88125481145E+01 -0.17024640508E+02  0.24184031030E+02  0.94139560186E+02  0.88937562629E+02 0.  0.
         11    1    3    3    0    0  0.16318004868E+02  0.24787246376E+02 -0.13396278366E+02  0.32559870088E+02  0.51100000000E-03 0. -1.
         22    1    1    0    0    0  0.88125481145E+01  0.17024640508E+02 -0.24184031030E+02  0.30860439814E+02  0.00000000000E+00 0.  1.
</event>
<event>
 5    1  0.8875601E-005  0.9118800E+02  0.7818608E-02  0.1130116E+00
         25   -1    0    0    0    0  0.00000000000E+00  0.00000000000E+00  0.99999998245E-14  0.12500000000E+03  0.12500000000E+03 0.  0.
        -11    1    3    3    0    0  0.10398319605E+02  0.30835899825E+01  0.34113675788E+02  0.35796318998E+02  0.51100000000E-03 0. -1.
         23    2    1    0    0    0 -0.13156242442E+02 -0.22860479424E+02 -0.13859433523E+02  0.95204494764E+02  0.90421920411E+02 0.  0.
         11    1    3    3    0    0 -0.23554562047E+02 -0.25944069407E+02 -0.47973109311E+02  0.59408175766E+02  0.51100000000E-03 0.  1.
         22    1    1    0    0    0  0.13156242442E+02  0.22860479424E+02  0.13859433523E+02  0.29795505236E+02  0.00000000000E+00 0.  1.
</event>
<event>
 5    1  0.8875601E-005  0.9118800E+02  0.7818608E-02  0.1130116E+00
         25   -1    0    0    0    0  0.00000000000E+00  0.00000000000E+00  0.99999998245E-14  0.12500000000E+03  0.12500000000E+03 0.  0.
        -11    1    3    3    0    0 -0.90670576867E+01  0.49197717967E+02 -0.41961099998E+01  0.50201935497E+02  0.51100000000E-03 0. -1.
         23    2    1    0    0    0 -0.17284610061E+02  0.12377353983E+02  0.20640085256E+02  0.95369445568E+02  0.90649662945E+02 0.  0.
         11    1    3    3    0    0 -0.82175523738E+01 -0.36820363985E+02  0.24836195256E+02  0.45167510071E+02  0.51100000000E-03 0.  1.
         22    1    1    0    0    0  0.17284610061E+02 -0.12377353983E+02 -0.20640085256E+02  0.29630554432E+02  0.00000000000E+00 0. -1.
</event>
<event>
 5    1  0.8875601E-005  0.9118800E+02  0.7818608E-02  0.1130116E+00
         25   -1    0    0    0    0  0.00000000000E+00  0.00000000000E+00  0.99999998245E-14  0.12500000000E+03  0.12500000000E+03 0.  0.
        -11    1    3    3    0    0 -0.33229006929E+02  0.80760729193E+01 -0.65048569397E+01  0.34809524837E+02  0.51100000000E-03 0.  1.
         23    2    1    0    0    0  0.25438445980E+02 -0.19013609335E+01 -0.15730735807E+02  0.95030252649E+02  0.90180725004E+02 0.  0.
         11    1    3    3    0    0  0.58667452909E+02 -0.99774338528E+01 -0.92258788674E+01  0.60220727812E+02  0.51100000000E-03 0. -1.
         22    1    1    0    0    0 -0.25438445980E+02  0.19013609335E+01  0.15730735807E+02  0.29969747351E+02  0.00000000000E+00 0. -1.
</event>
<event>
 5    1  0.8875601E-005  0.9118800E+02  0.7818608E-02  0.1130116E+00
         25   -1    0    0    0    0  0.00000000000E+00  0.00000000000E+00  0.99999998245E-14  0.12500000000E+03  0.12500000000E+03 0.  0.
        -11    1    3    3    0    0  0.57904694214E+02  0.21693938524E+02  0.16891386696E+01  0.61858174645E+02  0.51100000000E-03 0.  1.
         23    2    1    0    0    0  0.25039101647E+02  0.10825529999E+02  0.68938613258E+01  0.96863297368E+02  0.92686699919E+02 0.  0.
         11    1    3    3    0    0 -0.32865592567E+02 -0.10868408525E+02  0.52047226561E+01  0.35005122723E+02  0.51100000000E-03 0. -1.
         22    1    1    0    0    0 -0.25039101647E+02 -0.10825529999E+02 -0.68938613258E+01  0.28136702632E+02  0.00000000000E+00 0.  1.
</event>
<event>
 5    1  0.8875601E-005  0.9118800E+02  0.7818608E-02  0.1130116E+00
         25   -1    0    0    0    0  0.00000000000E+00  0.00000000000E+00  0.99999998245E-14  0.12500000000E+03  0.12500000000E+03 0.  0.
        -11    1    3    3    0    0 -0.45396474963E+01 -0.22453266756E+02 -0.33353252846E+02  0.40462291867E+02  0.51100000000E-03 0.  1.
         23    2    1    0    0    0  0.28627186314E+02 -0.39331502799E+01  0.63534161197E+01  0.95413662549E+02  0.90710614800E+02 0.  0.
         11    1    3    3    0    0  0.33166833810E+02  0.18520116476E+02  0.39706668966E+02  0.54951370683E+02  0.51100000000E-03 0. -1.
         22    1    1    0    0    0 -0.28627186314E+02  0.39331502799E+01 -0.63534161197E+01  0.29586337451E+02  0.00000000000E+00 0. -1.
</event>
<event>
 5    1  0.8875601E-005  0.9118800E+02  0.7818608E-02  0.1130116E+00
         25   -1    0    0    0    0  0.00000000000E+00  0.00000000000E+00  0.99999998245E-14  0.12500000000E+03  0.12500000000E+03 0.  0.
        -11    1    3    3    0    0  0.36848781488E+02  0.23817075836E+02 -0.37232273250E+01  0.44033489761E+02  0.51100000000E-03 0. -1.
         23    2    1    0    0    0  0.13255994730E+00 -0.54729887536E+01  0.25212957928E+02  0.99199526642E+02  0.95785602574E+02 0.  0.
         11    1    3    3    0    0 -0.36716221541E+02 -0.29290064590E+02  0.28936185253E+02  0.55166036881E+02  0.51100000000E-03 0.  1.
         22    1    1    0    0    0 -0.13255994730E+00  0.54729887536E+01 -0.25212957928E+02  0.25800473358E+02  0.00000000000E+00 0. -1.
</event>
<event>
 5    1  0.8875601E-005  0.9118800E+02  0.7818608E-02  0.1130116E+00
         25   -1    0    0    0    0  0.00000000000E+00  0.00000000000E+00  0.99999998245E-14  0.12500000000E+03  0.12500000000E+03 0.  0.
        -11    1    3    3    0    0 -0.21364568942E+02 -0.54096269257E+02 -0.15370645560E+02  0.60159021758E+02  0.51100000000E-03 0.  1.
         23    2    1    0    0    0 -0.16599664954E+01 -0.30054622767E+02  0.14098500623E+00  0.94899240620E+02  0.89998945300E+02 0.  0.
         11    1    3    3    0    0  0.19704602447E+02  0.24041646490E+02  0.15511630566E+02  0.34740218863E+02  0.51100000000E-03 0. -1.
         22    1    1    0    0    0  0.16599664954E+01  0.30054622767E+02 -0.14098500623E+00  0.30100759380E+02  0.00000000000E+00 0.  1.
</event>
<event>
 5    1  0.8875601E-005  0.9118800E+02  0.7818608E-02  0.1130116E+00
         25   -1    0    0    0    0  0.00000000000E+00  0.00000000000E+00  0.99999998245E-14  0.12500000000E+03  0.12500000000E+03 0.  0.
        -11    1    3    3    0    0 -0.13040602880E+01 -0.39800907884E+02  0.35319967717E+02  0.53228873381E+02  0.51100000000E-03 0. -1.
         23    2    1    0    0    0 -0.23955409061E+02 -0.12572987693E+02  0.14794692887E+02  0.94164556426E+02  0.88972687418E+02 0.  0.
         11    1    3    3    0    0 -0.22651348773E+02  0.27227920192E+02 -0.20525274830E+02  0.40935683044E+02  0.51100000000E-03 0.  1.
         22    1    1    0    0    0  0.23955409061E+02  0.12572987693E+02 -0.14794692887E+02  0.30835443574E+02  0.00000000000E+00 0. -1.
</event>
<event>
 5    1  0.8875601E-005  0.9118800E+02  0.7818608E-02  0.1130116E+00
         25   -1    0    0    0    0  0.00000000000E+00  0.00000000000E+00  0.99999998245E-14  0.12500000000E+03  0.12500000000E+03 0.  0.
        -11    1    3    3    0    0 -0.13324213796E+02 -0.95269779197E+01 -0.31019199067E+02  0.35078322260E+02  0.51100000000E-03 0.  1.
         23    2    1    0    0    0  0.19954992045E+01 -0.16620505568E+01  0.28164271631E+02  0.96716248028E+02  0.92488172255E+02 0.  0.
         11    1    3    3    0    0  0.15319713001E+02  0.78649273629E+01  0.59183470698E+02  0.61637925768E+02  0.51100000000E-03 0. -1.
         22    1    1    0    0    0 -0.19954992045E+01  0.16620505568E+01 -0.28164271631E+02  0.28283751972E+02  0.00000000000E+00 0. -1.
</event>
<event>
 5    1  0.8875601E-005  0.9118800E+02  0.7818608E-02  0.1130116E+00
         25   -1    0    0    0    0  0.00000000000E+00  0.00000000000E+00  0.99999998245E-14  0.12500000000E+03  0.12500000000E+03 0.  0.
        -11    1    3    3    0    0  0.16798577830E+02 -0.75234817032E+01 -0.31305820094E+02  0.36315965719E+02  0.51100000000E-03 0. -1.
         23    2    1    0    0    0 -0.21504077357E+02  0.15581686816E+02  0.94327167216E+01  0.96818615155E+02  0.92626420577E+02 0.  0.
         11    1    3    3    0    0 -0.38302655187E+02  0.23105168519E+02  0.40738536816E+02  0.60502649437E+02  0.51100000000E-03 0.  1.
         22    1    1    0    0    0  0.21504077357E+02 -0.15581686816E+02 -0.94327167216E+01  0.28181384845E+02  0.00000000000E+00 0.  1.
</event>
<event>
 5    1  0.8875601E-005  0.9118800E+02  0.7818608E-02  0.1130116E+00
         25   -1    0    0    0    0  0.00000000000E+00  0.00000000000E+00  0.99999998245E-14  0.12500000000E+03  0.12500000000E+03 0.  0.
        -11    1    3    3    0    0  0.11600169687E+02 -0.30771119588E+02 -0.23171166492E+02  0.40228456276E+02  0.51100000000E-03 0.  1.
         23    2    1    0    0    0  0.20739166964E+02  0.20274905414E+02 -0.31126805776E+01  0.95830261978E+02  0.91282887194E+02 0.  0.
         11    1    3    3    0    0  0.91389972765E+01  0.51046025003E+02  0.20058485915E+02  0.55601805701E+02  0.51100000000E-03 0. -1.
         22    1    1    0    0    0 -0.20739166964E+02 -0.20274905414E+02  0.31126805776E+01  0.29169738022E+02  0.00000000000E+00 0. -1.
</event>
<event>
 5    1  0.8875601E-005  0.9118800E+02  0.7818608E-02  0.1130116E+00
         25   -1    0    0    0    0  0.00000000000E+00  0.00000000000E+00  0.99999998245E-14  0.12500000000E+03  0.12500000000E+03 0.  0.
        -11    1    3    3    0    0  0.37978526752E+01 -0.42339708084E+02 -0.10320878513E+02  0.43744657950E+02  0.51100000000E-03 0. -1.
         23    2    1    0    0    0 -0.30256999502E+02 -0.92434967034E+01  0.34140868399E+01  0.93178871184E+02  0.87576925020E+02 0.  0.
         11    1    3    3    0    0 -0.34054852177E+02  0.33096211381E+02  0.13734965353E+02  0.49434213234E+02  0.51100000000E-03 0.  1.
         22    1    1    0    0    0  0.30256999502E+02  0.92434967034E+01 -0.34140868399E+01  0.31821128816E+02  0.00000000000E+00 0. -1.
</event>
<event>
 5    1  0.8875601E-005  0.9118800E+02  0.7818608E-02  0.1130116E+00
         25   -1    0    0    0    0  0.00000000000E+00  0.00000000000E+00  0.99999998245E-14  0.12500000000E+03  0.12500000000E+03 0.  0.
        -11    1    3    3    0    0  0.17488507054E+02  0.21022109035E+02  0.31061406274E+02  0.41383425514E+02  0.51100000000E-03 0. -1.
         23    2    1    0    0    0 -0.57000503488E+01  0.24509530329E+02 -0.16843378542E+02  0.94719526892E+02  0.89748992880E+02 0.  0.
         11    1    3    3    0    0 -0.23188557403E+02  0.34874212934E+01 -0.47904784816E+02  0.53336101379E+02  0.51100000000E-03 0.  1.
         22    1    1    0    0    0  0.57000503488E+01 -0.24509530329E+02  0.16843378542E+02  0.30280473108E+02  0.00000000000E+00 0.  1.
</event>
<event>
 5    1  0.8875601E-005  0.9118800E+02  0.7818608E-02  0.1130116E+00
         25   -1    0    0    0    0  0.00000000000E+00  0.00000000000E+00  0.99999998245E-14  0.12500000000E+03  0.12500000000E+03 0.  0.
        -11    1    3    3    0    0 -0.33144653565E+02  0.30743734074E+02  0.34598996523E+02  0.56928339212E+02  0.51100000000E-03 0.  1.
         23    2    1    0    0    0 -0.27598794805E+02  0.81243151462E+01  0.31551159925E+01  0.96057769122E+02  0.91593898707E+02 0.  0.
         11    1    3    3    0    0  0.55458587600E+01 -0.22619418928E+02 -0.31443880530E+02  0.39129429910E+02  0.51100000000E-03 0. -1.
         22    1    1    0    0    0  0.27598794805E+02 -0.81243151462E+01 -0.31551159925E+01  0.28942230878E+02  0.00000000000E+00 0.  1.
</event>
<event>
 5    1  0.8875601E-005  0.9118800E+02  0.7818608E-02  0.1130116E+00
         25   -1    0    0    0    0  0.00000000000E+00  0.00000000000E+00  0.99999998245E-14  0.12500000000E+03  0.12500000000E+03 0.  0.
        -11    1    3    3    0    0 -0.19642135781E+01 -0.46672478477E-01  0.37347807347E+02  0.37399452231E+02  0.51100000000E-03 0. -1.
         23    2    1    0    0    0  0.19498873278E+02  0.17701826208E+02 -0.13523115133E+02  0.95395349131E+02  0.90685375241E+02 0.  0.
         11    1    3    3    0    0  0.21463086856E+02  0.17748498687E+02 -0.50870922480E+02  0.57995896900E+02  0.51100000000E-03 0.  1.
         22    1    1    0    0    0 -0.19498873278E+02 -0.17701826208E+02  0.13523115133E+02  0.29604650869E+02  0.00000000000E+00 0.  1.
</event>
<event>
 5    1  0.8875601E-005  0.9118800E+02  0.7818608E-02  0.1130116E+00
         25   -1    0    0    0    0  0.00000000000E+00  0.00000000000E+00  0.99999998245E-14  0.12500000000E+03  0.12500000000E+03 0.  0.
        -11    1    3    3    0    0 -0.11213374050E+02  0.92923752768E+01  0.34922275340E+02  0.37837194809E+02  0.51100000000E-03 0.  1.
         23    2    1    0    0    0 -0.10705886137E+02  0.12191259077E+02 -0.23560163507E+02  0.96393635318E+02  0.92051120740E+02 0.  0.
         11    1    3    3    0    0  0.50748791345E+00  0.28988838003E+01 -0.58482438847E+02  0.58556440508E+02  0.51100000000E-03 0. -1.
         22    1    1    0    0    0  0.10705886137E+02 -0.12191259077E+02  0.23560163507E+02  0.28606364682E+02  0.00000000000E+00 0. -1.
</event>
<event>
 5    1  0.8875601E-005  0.9118800E+02  0.7818608E-02  0.1130116E+00
         25   -1    0    0    0    0  0.00000000000E+00  0.00000000000E+00  0.99999998245E-14  0.12500000000E+03  0.12500000000E+03 0.  0.
        -11    1    3    3    0    0  0.70439803662E+01  0.45502488840E+02  0.14347434479E+02  0.48228031542E+02  0.51100000000E-03 0.  1.
         23    2    1    0    0    0  0.21736881069E+02  0.54958371050E+01 -0.13206480254E+02  0.98978713621E+02  0.95497007311E+02 0.  0.
         11    1    3    3    0    0  0.14692900703E+02 -0.40006651735E+02 -0.27553914733E+02  0.50750682079E+02  0.51100000000E-03 0. -1.
         22    1    1    0    0    0 -0.21736881069E+02 -0.54958371050E+01  0.13206480254E+02  0.26021286379E+02  0.00000000000E+00 0. -1.
</event>
<event>
 5    1  0.8875601E-005  0.9118800E+02  0.7818608E-02  0.1130116E+00
         25   -1    0    0    0    0  0.00000000000E+00  0.00000000000E+00  0.99999998245E-14  0.12500000000E+03  0.12500000000E+03 0.  0.
        -11    1    3    3    0    0  0.14109347551E+02 -0.45399471128E+02  0.15851833659E+02  0.50114531801E+02  0.51100000000E-03 0.  1.
         23    2    1    0    0    0 -0.15959958996E+02 -0.29145887295E+02 -0.67492202470E+01  0.91091962438E+02  0.84545790016E+02 0.  0.
         11    1    3    3    0    0 -0.30069306548E+02  0.16253583833E+02 -0.22601053906E+02  0.40977430637E+02  0.51100000000E-03 0. -1.
         22    1    1    0    0    0  0.15959958996E+02  0.29145887295E+02  0.67492202470E+01  0.33908037562E+02  0.00000000000E+00 0.  1.
</event>
<event>
 5    1  0.8875601E-005  0.9118800E+02  0.7818608E-02  0.1130116E+00
         25   -1    0    0    0    0  0.00000000000E+00  0.00000000000E+00  0.99999998245E-14  0.12500000000E+03  0.12500000000E+03 0.  0.
        -11    1    3    3    0    0 -0.15941147068E+02  0.46710103470E+01  0.31785409384E+02  0.35864338241E+02  0.51100000000E-03 0.  1.
         23    2    1    0    0    0  0.10278112822E+02 -0.22140405852E+02 -0.15401179197E+02  0.96137680358E+02  0.91702890300E+02 0.  0.
         11    1    3    3    0    0  0.26219259890E+02 -0.26811416199E+02 -0.47186588580E+02  0.60273342117E+02  0.51100000000E-03 0. -1.
         22    1    1    0    0    0 -0.10278112822E+02  0.22140405852E+02  0.15401179197E+02  0.28862319642E+02  0.00000000000E+00 0. -1.
</event>
<event>
 5    1  0.8875601E-005  0.9118800E+02  0.7818608E-02  0.1130116E+00
         25   -1    0    0    0    0  0.00000000000E+00  0.00000000000E+00  0.99999998245E-14  0.12500000000E+03  0.12500000000E+03 0.  0.
        -11    1    3    3    0    0  0.33448615223E+02 -0.16790555490E+02 -0.60222965549E+01  0.37907791680E+02  0.51100000000E-03 0.  1.
         23    2    1    0    0    0 -0.41585951553E+01  0.27792633071E+02 -0.61435374567E+01  0.96234266580E+02  0.91834452386E+02 0.  0.
         11    1    3    3    0    0 -0.37607210378E+02  0.44583188561E+02 -0.12124090176E+00  0.58326474900E+02  0.51100000000E-03 0. -1.
         22    1    1    0    0    0  0.41585951553E+01 -0.27792633071E+02  0.61435374567E+01  0.28765733420E+02  0.00000000000E+00 0. -1.
</event>
<event>
 5    1  0.8875601E-005  0.9118800E+02  0.7818608E-02  0.1130116E+00
         25   -1    0    0    0    0  0.00000000000E+00  0.00000000000E+00  0.99999998245E-14  0.12500000000E+03  0.12500000000E+03 0.  0.
        -11    1    3    3    0    0  0.37887238417E+02  0.34547753446E+01  0.72135744436E+01  0.38722267032E+02  0.51100000000E-03 0.  1.
         23    2    1    0    0    0 -0.51094916444E+01  0.13583318417E+02 -0.26832984629E+02  0.94493893919E+02  0.89434185186E+02 0.  0.
         11    1    3    3    0    0 -0.42996730061E+02  0.10128543072E+02 -0.34046559073E+02  0.55771626888E+02  0.51100000000E-03 0. -1.
         22    1    1    0    0    0  0.51094916444E+01 -0.13583318417E+02  0.26832984629E+02  0.30506106081E+02  0.00000000000E+00 0. -1.
</event>
<event>
 5    1  0.8875601E-005  0.9118800E+02  0.7818608E-02  0.1130116E+00
         25   -1    0    0    0    0  0.00000000000E+00  0.00000000000E+00  0.99999998245E-14  0.12500000000E+03  0.12500000000E+03 0.  0.
        -11    1    3    3    0    0 -0.28844505722E+02  0.32636408676E+02 -0.33057303048E+00  0.43557432895E+02  0.51100000000E-03 0. -1.
         23    2    1    0    0    0 -0.12695369480E+02 -0.95123814083E+01 -0.25298196985E+02  0.95139380834E+02  0.90331861535E+02 0.  0.
         11    1    3    3    0    0  0.16149136242E+02 -0.42148790084E+02 -0.24967623955E+02  0.51581947939E+02  0.51100000000E-03 0.  1.
         22    1    1    0    0    0  0.12695369480E+02  0.95123814083E+01  0.25298196985E+02  0.29860619166E+02  0.00000000000E+00 0.  1.
</event>
<event>
 5    1  0.8875601E-005  0.9118800E+02  0.7818608E-02  0.1130116E+00
         25   -1    0    0    0    0  0.00000000000E+00  0.00000000000E+00  0.99999998245E-14  0.12500000000E+03  0.12500000000E+03 0.  0.
        -11    1    3    3    0    0 -0.46532978282E+02 -0.43160331086E+01  0.26376619501E+01  0.46807087822E+02  0.51100000000E-03 0. -1.
         23    2    1    0    0    0 -0.66184061105E-01 -0.44644896820E+01 -0.24148754999E+02  0.10044193785E+03  0.97393451849E+02 0.  0.
         11    1    3    3    0    0  0.46466794220E+02 -0.14845657336E+00 -0.26786416949E+02  0.53634850030E+02  0.51100000000E-03 0.  1.
         22    1    1    0    0    0  0.66184061105E-01  0.44644896820E+01  0.24148754999E+02  0.24558062148E+02  0.00000000000E+00 0.  1.
</event>
<event>
 5    1  0.8875601E-005  0.9118800E+02  0.7818608E-02  0.1130116E+00
         25   -1    0    0    0    0  0.00000000000E+00  0.00000000000E+00  0.99999998245E-14  0.12500000000E+03  0.12500000000E+03 0.  0.
        -11    1    3    3    0    0 -0.52205728499E+01 -0.50038824226E+01 -0.35817324951E+02  0.36540032664E+02  0.51100000000E-03 0.  1.
         23    2    1    0    0    0 -0.17614086855E+02 -0.15497931635E+02  0.19687997843E+02  0.94372247882E+02  0.89264001538E+02 0.  0.
         11    1    3    3    0    0 -0.12393514005E+02 -0.10494049213E+02  0.55505322794E+02  0.57832215218E+02  0.51100000000E-03 0. -1.
         22    1    1    0    0    0  0.17614086855E+02  0.15497931635E+02 -0.19687997843E+02  0.30627752118E+02  0.00000000000E+00 0. -1.
</event>
<event>
 5    1  0.8875601E-005  0.9118800E+02  0.7818608E-02  0.1130116E+00
         25   -1    0    0    0    0  0.00000000000E+00  0.00000000000E+00  0.99999998245E-14  0.12500000000E+03  0.12500000000E+03 0.  0.
        -11    1    3    3    0    0 -0.31028435373E+02 -0.12964806357E+02  0.12702335114E+02  0.35947174064E+02  0.51100000000E-03 0.  1.
         23    2    1    0    0    0  0.18232525709E+02  0.20811683683E+02 -0.13212358867E+01  0.97299876612E+02  0.93273625173E+02 0.  0.
         11    1    3    3    0    0  0.49260961081E+02  0.33776490041E+02 -0.14023571001E+02  0.61352702548E+02  0.51100000000E-03 0. -1.
         22    1    1    0    0    0 -0.18232525709E+02 -0.20811683683E+02  0.13212358867E+01  0.27700123388E+02  0.00000000000E+00 0. -1.
</event>
<event>
 5    1  0.8875601E-005  0.9118800E+02  0.7818608E-02  0.1130116E+00
         25   -1    0    0    0    0  0.00000000000E+00  0.00000000000E+00  0.99999998245E-14  0.12500000000E+03  0.12500000000E+03 0.  0.
        -11    1    3    3    0    0  0.28867017301E+02 -0.82620533888E+01  0.21194088728E+02  0.36752627271E+02  0.51100000000E-03 0.  1.
         23    2    1    0    0    0 -0.73038922505E+01  0.28518159106E+02 -0.58317038365E+01  0.94989318394E+02  0.90123967947E+02 0.  0.
         11    1    3    3    0    0 -0.36170909552E+02  0.36780212495E+02 -0.27025792564E+02  0.58236691123E+02  0.51100000000E-03 0. -1.
         22    1    1    0    0    0  0.73038922505E+01 -0.28518159106E+02  0.58317038365E+01  0.30010681606E+02  0.00000000000E+00 0. -1.
</event>
<event>
 5    1  0.8875601E-005  0.9118800E+02  0.7818608E-02  0.1130116E+00
         25   -1    0    0    0    0  0.00000000000E+00  0.00000000000E+00  0.99999998245E-14  0.12500000000E+03  0.12500000000E+03 0.  0.
        -11    1    3    3    0    0  0.20491870821E+02  0.31198299604E+02  0.66496098226E+01  0.37913954937E+02  0.51100000000E-03 0. -1.
         23    2    1    0    0    0  0.12123174737E+02 -0.22771821365E+02 -0.13196147720E+02  0.96023017262E+02  0.91546459874E+02 0.  0.
         11    1    3    3    0    0 -0.83686960846E+01 -0.53970120969E+02 -0.19845757543E+02  0.58109062324E+02  0.51100000000E-03 0.  1.
         22    1    1    0    0    0 -0.12123174737E+02  0.22771821365E+02  0.13196147720E+02  0.28976982738E+02  0.00000000000E+00 0.  1.
</event>
<event>
 5    1  0.8875601E-005  0.9118800E+02  0.7818608E-02  0.1130116E+00
         25   -1    0    0    0    0  0.00000000000E+00  0.00000000000E+00  0.99999998245E-14  0.12500000000E+03  0.12500000000E+03 0.  0.
        -11    1    3    3    0    0  0.10194860048E+02 -0.38114198009E+02 -0.35872589331E+02  0.53324196448E+02  0.51100000000E-03 0. -1.
         23    2    1    0    0    0 -0.16464470336E+02 -0.23702287916E+02 -0.67349746503E+01  0.95364934293E+02  0.90643441976E+02 0.  0.
         11    1    3    3    0    0 -0.26659330384E+02  0.14411910092E+02  0.29137614681E+02  0.42040737845E+02  0.51100000000E-03 0.  1.
         22    1    1    0    0    0  0.16464470336E+02  0.23702287916E+02  0.67349746503E+01  0.29635065707E+02  0.00000000000E+00 0. -1.
</event>
<event>
 5    1  0.8875601E-005  0.9118800E+02  0.7818608E-02  0.1130116E+00
         25   -1    0    0    0    0  0.00000000000E+00  0.00000000000E+00  0.99999998245E-14  0.12500000000E+03  0.12500000000E+03 0.  0.
        -11    1    3    3    0    0 -0.31186521653E+01 -0.25286962982E+02  0.26609467322E+02  0.36840470133E+02  0.51100000000E-03 0.  1.
         23    2    1    0    0    0  0.19955757748E+02  0.89697922747E+01 -0.17288595249E+02  0.97114789468E+02  0.93025251233E+02 0.  0.
         11    1    3    3    0    0  0.23074409913E+02  0.34256755257E+02 -0.43898062571E+02  0.60274319335E+02  0.51100000000E-03 0. -1.
         22    1    1    0    0    0 -0.19955757748E+02 -0.89697922747E+01  0.17288595249E+02  0.27885210532E+02  0.00000000000E+00 0. -1.
</event>
<event>
 5    1  0.8875601E-005  0.9118800E+02  0.7818608E-02  0.1130116E+00
         25   -1    0    0    0    0  0.00000000000E+00  0.00000000000E+00  0.99999998245E-14  0.12500000000E+03  0.12500000000E+03 0.  0.
        -11    1    3    3    0    0  0.44624048905E+02  0.30897025347E+02 -0.29296862131E+02  0.61678505551E+02  0.51100000000E-03 0. -1.
         23    2    1    0    0    0  0.22000613422E+02  0.84886405991E+01 -0.17493266637E+02  0.95638487985E+02  0.91019898903E+02 0.  0.
         11    1    3    3    0    0 -0.22623435483E+02 -0.22408384748E+02  0.11803595494E+02  0.33959982434E+02  0.51100000000E-03 0.  1.
         22    1    1    0    0    0 -0.22000613422E+02 -0.84886405991E+01  0.17493266637E+02  0.29361512015E+02  0.00000000000E+00 0. -1.
</event>
<event>
 5    1  0.8875601E-005  0.9118800E+02  0.7818608E-02  0.1130116E+00
         25   -1    0    0    0    0  0.00000000000E+00  0.00000000000E+00  0.99999998245E-14  0.12500000000E+03  0.12500000000E+03 0.  0.
        -11    1    3    3    0    0 -0.45052896397E+02 -0.10837504008E+02  0.38990739381E+02  0.60559827647E+02  0.51100000000E-03 0. -1.
         23    2    1    0    0    0 -0.15019919893E+02 -0.13788476446E+02  0.21177306847E+02  0.95602748400E+02  0.90970803559E+02 0.  0.
         11    1    3    3    0    0  0.30032976504E+02 -0.29509724382E+01 -0.17813432534E+02  0.35042920753E+02  0.51100000000E-03 0.  1.
         22    1    1    0    0    0  0.15019919893E+02  0.13788476446E+02 -0.21177306847E+02  0.29397251600E+02  0.00000000000E+00 0. -1.
</event>
<event>
 5    1  0.8875601E-005  0.9118800E+02  0.7818608E-02  0.1130116E+00
         25   -1    0    0    0    0  0.00000000000E+00  0.00000000000E+00  0.99999998245E-14  0.12500000000E+03  0.12500000000E+03 0.  0.
        -11    1    3    3    0    0 -0.36447238566E+02 -0.34376937779E+02  0.73880901840E+00  0.50107094200E+02  0.51100000000E-03 0.  1.
         23    2    1    0    0    0 -0.14136706290E+02 -0.98141647072E+01 -0.26746976798E+02  0.93194889382E+02  0.87599785077E+02 0.  0.
         11    1    3    3    0    0  0.22310532276E+02  0.24562773072E+02 -0.27485785816E+02  0.43087795182E+02  0.51100000000E-03 0. -1.
         22    1    1    0    0    0  0.14136706290E+02  0.98141647072E+01  0.26746976798E+02  0.31805110618E+02  0.00000000000E+00 0. -1.
</event>
<event>
 4    1  0.8875601E-005  0.9118800E+02  0.7818608E-02  0.1130116E+00
         25   -1    0    0    0    0  0.00000000000E+00  0.00000000000E+00  0.99999998245E-14  0.12500000000E+03  0.12500000000E+03 0.  0.
        -11    1    1    0    0    0  0.41241259712E+02  0.82438873428E+01 -0.30748858629E+02  0.52098901029E+02  0.51100000000E-03 0.  1.
         11    1    1    0    0    0 -0.28608561245E+01 -0.21642907882E+02 -0.16209583393E+00  0.21831771222E+02  0.51100000000E-03 0. -1.
         22    1    1    0    0    0 -0.38380403587E+02  0.13399020540E+02  0.30910954463E+02  0.51069327749E+02  0.00000000000E+00 0.  1.
</event>
<event>
 5    1  0.8875601E-005  0.9118800E+02  0.7818608E-02  0.1130116E+00
         25   -1    0    0    0    0  0.00000000000E+00  0.00000000000E+00  0.99999998245E-14  0.12500000000E+03  0.12500000000E+03 0.  0.
        -11    1    3    3    0    0  0.19018496871E+02  0.32683368781E+02 -0.17904344710E+02  0.41838634990E+02  0.51100000000E-03 0.  1.
         23    2    1    0    0    0 -0.52249521974E+01 -0.95954962772E+01 -0.30856008203E+02  0.92266730739E+02  0.86265188140E+02 0.  0.
         11    1    3    3    0    0 -0.24243449068E+02 -0.42278865058E+02 -0.12951663493E+02  0.50428095749E+02  0.51100000000E-03 0. -1.
         22    1    1    0    0    0  0.52249521974E+01  0.95954962772E+01  0.30856008203E+02  0.32733269261E+02  0.00000000000E+00 0. -1.
</event>
<event>
 5    1  0.8875601E-005  0.9118800E+02  0.7818608E-02  0.1130116E+00
         25   -1    0    0    0    0  0.00000000000E+00  0.00000000000E+00  0.99999998245E-14  0.12500000000E+03  0.12500000000E+03 0.  0.
        -11    1    3    3    0    0  0.23740728439E+02  0.20802114466E+02  0.34916524933E+02  0.47069245444E+02  0.51100000000E-03 0. -1.
         23    2    1    0    0    0 -0.12152002371E+02  0.26563586099E+02  0.28886294523E+02  0.83918212315E+02  0.73174811779E+02 0.  0.
         11    1    3    3    0    0 -0.35892730810E+02  0.57614716334E+01 -0.60302304097E+01  0.36848966871E+02  0.51100000000E-03 0.  1.
         22    1    1    0    0    0  0.12152002371E+02 -0.26563586099E+02 -0.28886294523E+02  0.41081787685E+02  0.00000000000E+00 0. -1.
</event>
<event>
 5    1  0.8875601E-005  0.9118800E+02  0.7818608E-02  0.1130116E+00
         25   -1    0    0    0    0  0.00000000000E+00  0.00000000000E+00  0.99999998245E-14  0.12500000000E+03  0.12500000000E+03 0.  0.
        -11    1    3    3    0    0 -0.22830270291E+02 -0.26467129823E+02  0.38962596064E+01  0.35169746115E+02  0.51100000000E-03 0. -1.
         23    2    1    0    0    0  0.25012985991E+02  0.66983347353E+01 -0.13325364816E+02  0.95878143879E+02  0.91348431677E+02 0.  0.
         11    1    3    3    0    0  0.47843256283E+02  0.33165464558E+02 -0.17221624422E+02  0.60708397764E+02  0.51100000000E-03 0.  1.
         22    1    1    0    0    0 -0.25012985991E+02 -0.66983347353E+01  0.13325364816E+02  0.29121856121E+02  0.00000000000E+00 0.  1.
</event>
<event>
 5    1  0.8875601E-005  0.9118800E+02  0.7818608E-02  0.1130116E+00
         25   -1    0    0    0    0  0.00000000000E+00  0.00000000000E+00  0.99999998245E-14  0.12500000000E+03  0.12500000000E+03 0.  0.
        -11    1    3    3    0    0  0.20895411622E+02  0.45083031123E+02  0.23904487081E+02  0.55140932391E+02  0.51100000000E-03 0.  1.
         23    2    1    0    0    0  0.15630926182E+02  0.10749477175E+02  0.29100437515E+02  0.90262231269E+02  0.83310010306E+02 0.  0.
         11    1    3    3    0    0 -0.52644854405E+01 -0.34333553948E+02  0.51959504346E+01  0.35121298878E+02  0.51100000000E-03 0. -1.
         22    1    1    0    0    0 -0.15630926182E+02 -0.10749477175E+02 -0.29100437515E+02  0.34737768731E+02  0.00000000000E+00 0.  1.
</event>
<event>
 5    1  0.8875601E-005  0.9118800E+02  0.7818608E-02  0.1130116E+00
         25   -1    0    0    0    0  0.00000000000E+00  0.00000000000E+00  0.99999998245E-14  0.12500000000E+03  0.12500000000E+03 0.  0.
        -11    1    3    3    0    0 -0.22984459773E+02 -0.42615730308E+02  0.31336250463E+02  0.57674487029E+02  0.51100000000E-03 0.  1.
         23    2    1    0    0    0  0.49186740748E+01 -0.25303285550E+02  0.19860160755E+02  0.92459631233E+02  0.86544253468E+02 0.  0.
         11    1    3    3    0    0  0.27903133848E+02  0.17312444759E+02 -0.11476089707E+02  0.34785144204E+02  0.51100000000E-03 0. -1.
         22    1    1    0    0    0 -0.49186740748E+01  0.25303285550E+02 -0.19860160755E+02  0.32540368767E+02  0.00000000000E+00 0. -1.
</event>
<event>
 5    1  0.8875601E-005  0.9118800E+02  0.7818608E-02  0.1130116E+00
         25   -1    0    0    0    0  0.00000000000E+00  0.00000000000E+00  0.99999998245E-14  0.12500000000E+03  0.12500000000E+03 0.  0.
        -11    1    3    3    0    0  0.40955832851E+02  0.12135480028E+02 -0.14610709953E+02  0.45145575261E+02  0.51100000000E-03 0.  1.
         23    2    1    0    0    0 -0.33571475890E+01 -0.82925196493E+01 -0.27885972165E+02  0.95714102956E+02  0.91123683744E+02 0.  0.
         11    1    3    3    0    0 -0.44312980440E+02 -0.20427999677E+02 -0.13275262212E+02  0.50568527696E+02  0.51100000000E-03 0. -1.
         22    1    1    0    0    0  0.33571475890E+01  0.82925196493E+01  0.27885972165E+02  0.29285897044E+02  0.00000000000E+00 0.  1.
</event>
<event>
 5    1  0.8875601E-005  0.9118800E+02  0.7818608E-02  0.1130116E+00
         25   -1    0    0    0    0  0.00000000000E+00  0.00000000000E+00  0.99999998245E-14  0.12500000000E+03  0.12500000000E+03 0.  0.
        -11    1    3    3    0    0 -0.35331317883E+02 -0.13160314674E+02  0.53323784817E+01  0.38077948556E+02  0.51100000000E-03 0.  1.
         23    2    1    0    0    0  0.21771150898E+02 -0.24241026702E+01  0.16914435540E+02  0.97324064337E+02  0.93306034554E+02 0.  0.
         11    1    3    3    0    0  0.57102468782E+02  0.10736212004E+02  0.11582057058E+02  0.59246115781E+02  0.51100000000E-03 0. -1.
         22    1    1    0    0    0 -0.21771150898E+02  0.24241026702E+01 -0.16914435540E+02  0.27675935663E+02  0.00000000000E+00 0. -1.
</event>
<event>
 5    1  0.8875601E-005  0.9118800E+02  0.7818608E-02  0.1130116E+00
         25   -1    0    0    0    0  0.00000000000E+00  0.00000000000E+00  0.99999998245E-14  0.12500000000E+03  0.12500000000E+03 0.  0.
        -11    1    3    3    0    0  0.25886589586E+02  0.14144485916E+02  0.37716591341E+02  0.47882389924E+02  0.51100000000E-03 0.  1.
         23    2    1    0    0    0  0.34854733751E+02  0.64968002887E+01 -0.21745944666E+01  0.89478320142E+02  0.82125392148E+02 0.  0.
         11    1    3    3    0    0  0.89681441655E+01 -0.76476856273E+01 -0.39891185808E+02  0.41595930217E+02  0.51100000000E-03 0. -1.
         22    1    1    0    0    0 -0.34854733751E+02 -0.64968002887E+01  0.21745944666E+01  0.35521679858E+02  0.00000000000E+00 0.  1.
</event>
<event>
 5    1  0.8875601E-005  0.9118800E+02  0.7818608E-02  0.1130116E+00
         25   -1    0    0    0    0  0.00000000000E+00  0.00000000000E+00  0.99999998245E-14  0.12500000000E+03  0.12500000000E+03 0.  0.
        -11    1    3    3    0    0 -0.22473334982E+02 -0.43667543568E+02 -0.32702153249E+01  0.49219909132E+02  0.51100000000E-03 0.  1.
         23    2    1    0    0    0 -0.82240645883E+01 -0.91857094600E+01  0.25725671419E+02  0.96472422700E+02  0.92158047262E+02 0.  0.
         11    1    3    3    0    0  0.14249270393E+02  0.34481834108E+02  0.28995886744E+02  0.47252513568E+02  0.51100000000E-03 0. -1.
         22    1    1    0    0    0  0.82240645883E+01  0.91857094600E+01 -0.25725671419E+02  0.28527577300E+02  0.00000000000E+00 0.  1.
</event>
<event>
 5    1  0.8875601E-005  0.9118800E+02  0.7818608E-02  0.1130116E+00
         25   -1    0    0    0    0  0.00000000000E+00  0.00000000000E+00  0.99999998245E-14  0.12500000000E+03  0.12500000000E+03 0.  0.
        -11    1    3    3    0    0 -0.13229842736E+01 -0.24788895583E+02  0.30387485367E+02  0.39238232616E+02  0.51100000000E-03 0. -1.
         23    2    1    0    0    0  0.25577170216E+02 -0.60312985394E+01 -0.14621623112E+02  0.94927420119E+02  0.90038075444E+02 0.  0.
         11    1    3    3    0    0  0.26900154489E+02  0.18757597043E+02 -0.45009108479E+02  0.55689187503E+02  0.51100000000E-03 0.  1.
         22    1    1    0    0    0 -0.25577170216E+02  0.60312985394E+01  0.14621623112E+02  0.30072579881E+02  0.00000000000E+00 0.  1.
</event>
<event>
 5    1  0.8875601E-005  0.9118800E+02  0.7818608E-02  0.1130116E+00
         25   -1    0    0    0    0  0.00000000000E+00  0.00000000000E+00  0.99999998245E-14  0.12500000000E+03  0.12500000000E+03 0.  0.
        -11    1    3    3    0    0  0.52241073695E+01  0.37940908699E+02  0.21579464992E+02  0.43959949503E+02  0.51100000000E-03 0.  1.
         23    2    1    0    0    0 -0.23975884185E+02 -0.40858288114E+01  0.16972394045E+02  0.95341962655E+02  0.90611757867E+02 0.  0.
         11    1    3    3    0    0 -0.29199991554E+02 -0.42026737511E+02 -0.46070709470E+01  0.51382013152E+02  0.51100000000E-03 0. -1.
         22    1    1    0    0    0  0.23975884185E+02  0.40858288114E+01 -0.16972394045E+02  0.29658037345E+02  0.00000000000E+00 0.  1.
</event>
<event>
 5    1  0.8875601E-005  0.9118800E+02  0.7818608E-02  0.1130116E+00
         25   -1    0    0    0    0  0.00000000000E+00  0.00000000000E+00  0.99999998245E-14  0.12500000000E+03  0.12500000000E+03 0.  0.
        -11    1    3    3    0    0 -0.33955200597E+02 -0.30710058627E+02 -0.15937711845E+02  0.48477561897E+02  0.51100000000E-03 0.  1.
         23    2    1    0    0    0 -0.20648512023E+01 -0.22588532920E+02  0.18217907181E+02  0.95907087255E+02  0.91388028831E+02 0.  0.
         11    1    3    3    0    0  0.31890349394E+02  0.81215257067E+01  0.34155619026E+02  0.47429525357E+02  0.51100000000E-03 0. -1.
         22    1    1    0    0    0  0.20648512023E+01  0.22588532920E+02 -0.18217907181E+02  0.29092912745E+02  0.00000000000E+00 0. -1.
</event>
<event>
 5    1  0.8875601E-005  0.9118800E+02  0.7818608E-02  0.1130116E+00
         25   -1    0    0    0    0  0.00000000000E+00  0.00000000000E+00  0.99999998245E-14  0.12500000000E+03  0.12500000000E+03 0.  0.
        -11    1    3    3    0    0  0.13561712674E+02 -0.25882726347E+00  0.17695358044E+02  0.22296025179E+02  0.51100000000E-03 0.  1.
         23    2    1    0    0    0  0.75882518266E+01  0.37790670605E+01 -0.41862027103E+02  0.82288265935E+02  0.70335385716E+02 0.  0.
         11    1    3    3    0    0 -0.59734608473E+01  0.40378943240E+01 -0.59557385148E+02  0.59992240756E+02  0.51100000000E-03 0. -1.
         22    1    1    0    0    0 -0.75882518266E+01 -0.37790670605E+01  0.41862027103E+02  0.42711734065E+02  0.00000000000E+00 0. -1.
</event>
<event>
 5    1  0.8875601E-005  0.9118800E+02  0.7818608E-02  0.1130116E+00
         25   -1    0    0    0    0  0.00000000000E+00  0.00000000000E+00  0.99999998245E-14  0.12500000000E+03  0.12500000000E+03 0.  0.
        -11    1    3    3    0    0 -0.45141827354E+01  0.22162585123E+02 -0.46334015581E+02  0.51559664713E+02  0.51100000000E-03 0.  1.
         23    2    1    0    0    0  0.21720557185E+02  0.14214842019E+02 -0.97575042491E+01  0.97268191058E+02  0.93231152328E+02 0.  0.
         11    1    3    3    0    0  0.26234739920E+02 -0.79477431045E+01  0.36576511332E+02  0.45708526345E+02  0.51100000000E-03 0. -1.
         22    1    1    0    0    0 -0.21720557185E+02 -0.14214842019E+02  0.97575042491E+01  0.27731808942E+02  0.00000000000E+00 0. -1.
</event>
<event>
 5    1  0.8875601E-005  0.9118800E+02  0.7818608E-02  0.1130116E+00
         25   -1    0    0    0    0  0.00000000000E+00  0.00000000000E+00  0.99999998245E-14  0.12500000000E+03  0.12500000000E+03 0.  0.
        -11    1    3    3    0    0 -0.28209348866E+02 -0.16418440557E+02  0.29324386512E+02  0.43877695910E+02  0.51100000000E-03 0.  1.
         23    2    1    0    0    0 -0.12481229356E+02 -0.21923790466E+02 -0.17973050046E+02  0.94024780831E+02  0.88776095925E+02 0.  0.
         11    1    3    3    0    0  0.15728119510E+02 -0.55053499084E+01 -0.47297436557E+02  0.50147084921E+02  0.51100000000E-03 0. -1.
         22    1    1    0    0    0  0.12481229356E+02  0.21923790466E+02  0.17973050046E+02  0.30975219169E+02  0.00000000000E+00 0. -1.
</event>
<event>
 5    1  0.8875601E-005  0.9118800E+02  0.7818608E-02  0.1130116E+00
         25   -1    0    0    0    0  0.00000000000E+00  0.00000000000E+00  0.99999998245E-14  0.12500000000E+03  0.12500000000E+03 0.  0.
        -11    1    3    3    0    0 -0.19264047270E+02  0.54562128190E+02  0.19840958954E+02  0.61170197011E+02  0.51100000000E-03 0.  1.
         23    2    1    0    0    0 -0.13106238993E+02  0.19863392935E+02  0.15314250225E+02  0.96700633587E+02  0.92467066552E+02 0.  0.
         11    1    3    3    0    0  0.61578082768E+01 -0.34698735255E+02 -0.45267087298E+01  0.35530436576E+02  0.51100000000E-03 0. -1.
         22    1    1    0    0    0  0.13106238993E+02 -0.19863392935E+02 -0.15314250225E+02  0.28299366413E+02  0.00000000000E+00 0.  1.
</event>
<event>
 5    1  0.8875601E-005  0.9118800E+02  0.7818608E-02  0.1130116E+00
         25   -1    0    0    0    0  0.00000000000E+00  0.00000000000E+00  0.99999998245E-14  0.12500000000E+03  0.12500000000E+03 0.  0.
        -11    1    3    3    0    0 -0.25173570190E+02  0.67207943028E+01 -0.22048996597E+02  0.34132623154E+02  0.51100000000E-03 0. -1.
         23    2    1    0    0    0  0.11505268334E+02  0.22126283361E+01  0.27013233964E+02  0.95555446467E+02  0.90905784286E+02 0.  0.
         11    1    3    3    0    0  0.36678838524E+02 -0.45081659667E+01  0.49062230561E+02  0.61422823313E+02  0.51100000000E-03 0.  1.
         22    1    1    0    0    0 -0.11505268334E+02 -0.22126283361E+01 -0.27013233964E+02  0.29444553533E+02  0.00000000000E+00 0.  1.
</event>
<event>
 5    1  0.8875601E-005  0.9118800E+02  0.7818608E-02  0.1130116E+00
         25   -1    0    0    0    0  0.00000000000E+00  0.00000000000E+00  0.99999998245E-14  0.12500000000E+03  0.12500000000E+03 0.  0.
        -11    1    3    3    0    0 -0.26630566341E+02  0.41618174107E+01 -0.47940027407E+02  0.54997763735E+02  0.51100000000E-03 0.  1.
         23    2    1    0    0    0 -0.33497627091E+01  0.21602009323E+02 -0.18876373353E+02  0.96117735755E+02  0.91675699826E+02 0.  0.
         11    1    3    3    0    0  0.23280803631E+02  0.17440191912E+02  0.29063654054E+02  0.41119972020E+02  0.51100000000E-03 0. -1.
         22    1    1    0    0    0  0.33497627091E+01 -0.21602009323E+02  0.18876373353E+02  0.28882264245E+02  0.00000000000E+00 0.  1.
</event>
<event>
 5    1  0.8875601E-005  0.9118800E+02  0.7818608E-02  0.1130116E+00
         25   -1    0    0    0    0  0.00000000000E+00  0.00000000000E+00  0.99999998245E-14  0.12500000000E+03  0.12500000000E+03 0.  0.
        -11    1    3    3    0    0 -0.37952068993E+02  0.37117382290E+02  0.90923033518E+01  0.53858421713E+02  0.51100000000E-03 0.  1.
         23    2    1    0    0    0 -0.52100156688E+01  0.18487532457E+02  0.23902534249E+02  0.94336271213E+02  0.89213607724E+02 0.  0.
         11    1    3    3    0    0  0.32742053324E+02 -0.18629849833E+02  0.14810230897E+02  0.40477849500E+02  0.51100000000E-03 0. -1.
         22    1    1    0    0    0  0.52100156688E+01 -0.18487532457E+02 -0.23902534249E+02  0.30663728787E+02  0.00000000000E+00 0.  1.
</event>
<event>
 5    1  0.8875601E-005  0.9118800E+02  0.7818608E-02  0.1130116E+00
         25   -1    0    0    0    0  0.00000000000E+00  0.00000000000E+00  0.99999998245E-14  0.12500000000E+03  0.12500000000E+03 0.  0.
        -11    1    3    3    0    0  0.30904052798E+02 -0.34755970232E+02 -0.22511240844E+02  0.51670048487E+02  0.51100000000E-03 0. -1.
         23    2    1    0    0    0 -0.33186261217E+01 -0.35388837332E+02 -0.10670118859E+02  0.87888889486E+02  0.79669456956E+02 0.  0.
         11    1    3    3    0    0 -0.34222678920E+02 -0.63286710091E+00  0.11841121985E+02  0.36218840999E+02  0.51100000000E-03 0.  1.
         22    1    1    0    0    0  0.33186261217E+01  0.35388837332E+02  0.10670118859E+02  0.37111110514E+02  0.00000000000E+00 0. -1.
</event>
<event>
 5    1  0.8875601E-005  0.9118800E+02  0.7818608E-02  0.1130116E+00
         25   -1    0    0    0    0  0.00000000000E+00  0.00000000000E+00  0.99999998245E-14  0.12500000000E+03  0.12500000000E+03 0.  0.
        -11    1    3    3    0    0  0.24546878677E+02 -0.28284435328E+02 -0.31016977327E+02  0.48627270306E+02  0.51100000000E-03 0. -1.
         23    2    1    0    0    0  0.26391962407E+02  0.11378752145E+02 -0.57527855443E+01  0.95689486160E+02  0.91089909101E+02 0.  0.
         11    1    3    3    0    0  0.18450837293E+01  0.39663187472E+02  0.25264191783E+02  0.47062215854E+02  0.51100000000E-03 0.  1.
         22    1    1    0    0    0 -0.26391962407E+02 -0.11378752145E+02  0.57527855443E+01  0.29310513840E+02  0.00000000000E+00 0. -1.
</event>
<event>
 5    1  0.8875601E-005  0.9118800E+02  0.7818608E-02  0.1130116E+00
         25   -1    0    0    0    0  0.00000000000E+00  0.00000000000E+00  0.99999998245E-14  0.12500000000E+03  0.12500000000E+03 0.  0.
        -11    1    3    3    0    0 -0.42830127722E+02  0.22824371249E+02  0.20427031968E+02  0.52655820181E+02  0.51100000000E-03 0.  1.
         23    2    1    0    0    0 -0.13840887221E+02  0.24783250217E+02 -0.10166618114E+02  0.94848055216E+02  0.89927825527E+02 0.  0.
         11    1    3    3    0    0  0.28989240501E+02  0.19588789679E+01 -0.30593650082E+02  0.42192235035E+02  0.51100000000E-03 0. -1.
         22    1    1    0    0    0  0.13840887221E+02 -0.24783250217E+02  0.10166618114E+02  0.30151944784E+02  0.00000000000E+00 0. -1.
</event>
<event>
 5    1  0.8875601E-005  0.9118800E+02  0.7818608E-02  0.1130116E+00
         25   -1    0    0    0    0  0.00000000000E+00  0.00000000000E+00  0.99999998245E-14  0.12500000000E+03  0.12500000000E+03 0.  0.
        -11    1    3    3    0    0 -0.27244711561E+02 -0.15276034138E+02  0.32115924591E+02  0.44800269414E+02  0.51100000000E-03 0.  1.
         23    2    1    0    0    0  0.19924042831E+02 -0.15964653704E+02  0.16960669597E+02  0.94348703718E+02  0.89231025599E+02 0.  0.
         11    1    3    3    0    0  0.47168754392E+02 -0.68861956601E+00 -0.15155254994E+02  0.49548434304E+02  0.51100000000E-03 0. -1.
         22    1    1    0    0    0 -0.19924042831E+02  0.15964653704E+02 -0.16960669597E+02  0.30651296282E+02  0.00000000000E+00 0. -1.
</event>
<event>
 5    1  0.8875601E-005  0.9118800E+02  0.7818608E-02  0.1130116E+00
         25   -1    0    0    0    0  0.00000000000E+00  0.00000000000E+00  0.99999998245E-14  0.12500000000E+03  0.12500000000E+03 0.  0.
        -11    1    3    3    0    0 -0.43389574277E+02  0.12112967023E+02  0.23234644496E+02  0.50687551047E+02  0.51100000000E-03 0.  1.
         23    2    1    0    0    0 -0.13208116097E+02 -0.19834539222E+02  0.18381873647E+02  0.94904210331E+02  0.90005847493E+02 0.  0.
         11    1    3    3    0    0  0.30181458179E+02 -0.31947506245E+02 -0.48527708492E+01  0.44216659285E+02  0.51100000000E-03 0. -1.
         22    1    1    0    0    0  0.13208116097E+02  0.19834539222E+02 -0.18381873647E+02  0.30095789669E+02  0.00000000000E+00 0. -1.
</event>
<event>
 5    1  0.8875601E-005  0.9118800E+02  0.7818608E-02  0.1130116E+00
         25   -1    0    0    0    0  0.00000000000E+00  0.00000000000E+00  0.99999998245E-14  0.12500000000E+03  0.12500000000E+03 0.  0.
        -11    1    3    3    0    0 -0.79020798897E+01 -0.12056937801E+02  0.59358804933E+02  0.61084206953E+02  0.51100000000E-03 0.  1.
         23    2    1    0    0    0  0.41494150557E+01 -0.10776762703E+02  0.27249382337E+02  0.95404643989E+02  0.90698186295E+02 0.  0.
         11    1    3    3    0    0  0.12051494945E+02  0.12801750984E+01 -0.32109422595E+02  0.34320437036E+02  0.51100000000E-03 0. -1.
         22    1    1    0    0    0 -0.41494150557E+01  0.10776762703E+02 -0.27249382337E+02  0.29595356011E+02  0.00000000000E+00 0.  1.
</event>
<event>
 5    1  0.8875601E-005  0.9118800E+02  0.7818608E-02  0.1130116E+00
         25   -1    0    0    0    0  0.00000000000E+00  0.00000000000E+00  0.99999998245E-14  0.12500000000E+03  0.12500000000E+03 0.  0.
        -11    1    3    3    0    0 -0.55546072000E+02  0.27218357389E+02  0.53038293250E+00  0.61858600048E+02  0.51100000000E-03 0. -1.
         23    2    1    0    0    0 -0.24027399274E+02  0.15147267736E+02  0.57768234901E+01  0.96015050019E+02  0.91535580540E+02 0.  0.
         11    1    3    3    0    0  0.31518672726E+02 -0.12071089653E+02  0.52464405576E+01  0.34156449971E+02  0.51100000000E-03 0.  1.
         22    1    1    0    0    0  0.24027399274E+02 -0.15147267736E+02 -0.57768234901E+01  0.28984949981E+02  0.00000000000E+00 0. -1.
</event>
<event>
 5    1  0.8875601E-005  0.9118800E+02  0.7818608E-02  0.1130116E+00
         25   -1    0    0    0    0  0.00000000000E+00  0.00000000000E+00  0.99999998245E-14  0.12500000000E+03  0.12500000000E+03 0.  0.
        -11    1    3    3    0    0  0.13417097779E+02  0.38680573696E+02 -0.74679986829E+00  0.40948296723E+02  0.51100000000E-03 0. -1.
         23    2    1    0    0    0  0.22925044227E+02 -0.13458327132E+02  0.12569915083E+02  0.95594439519E+02  0.90959385881E+02 0.  0.
         11    1    3    3    0    0  0.95079464478E+01 -0.52138900827E+02  0.13316714951E+02  0.54646142796E+02  0.51100000000E-03 0.  1.
         22    1    1    0    0    0 -0.22925044227E+02  0.13458327132E+02 -0.12569915083E+02  0.29405560481E+02  0.00000000000E+00 0.  1.
</event>
<event>
 5    1  0.8875601E-005  0.9118800E+02  0.7818608E-02  0.1130116E+00
         25   -1    0    0    0    0  0.00000000000E+00  0.00000000000E+00  0.99999998245E-14  0.12500000000E+03  0.12500000000E+03 0.  0.
        -11    1    3    3    0    0  0.11909125428E+02 -0.70372916405E+01  0.30337138986E+02  0.33342056688E+02  0.51100000000E-03 0. -1.
         23    2    1    0    0    0  0.37508833113E+02  0.14692059614E+02 -0.76007687375E+01  0.84005599619E+02  0.73323938142E+02 0.  0.
         11    1    3    3    0    0  0.25599707686E+02  0.21729351255E+02 -0.37937907724E+02  0.50663542930E+02  0.51100000000E-03 0.  1.
         22    1    1    0    0    0 -0.37508833113E+02 -0.14692059614E+02  0.76007687375E+01  0.40994400381E+02  0.00000000000E+00 0.  1.
</event>
<event>
 5    1  0.8875601E-005  0.9118800E+02  0.7818608E-02  0.1130116E+00
         25   -1    0    0    0    0  0.00000000000E+00  0.00000000000E+00  0.99999998245E-14  0.12500000000E+03  0.12500000000E+03 0.  0.
        -11    1    3    3    0    0 -0.27613142027E+02 -0.10666262525E+02 -0.16739782166E+02  0.34006985695E+02  0.51100000000E-03 0.  1.
         23    2    1    0    0    0  0.29986746613E+02 -0.59795172411E+01  0.83808546302E+00  0.94411407582E+02  0.89318821619E+02 0.  0.
         11    1    3    3    0    0  0.57599888641E+02  0.46867452838E+01  0.17577867629E+02  0.60404421886E+02  0.51100000000E-03 0. -1.
         22    1    1    0    0    0 -0.29986746613E+02  0.59795172411E+01 -0.83808546302E+00  0.30588592418E+02  0.00000000000E+00 0. -1.
</event>
<event>
 5    1  0.8875601E-005  0.9118800E+02  0.7818608E-02  0.1130116E+00
         25   -1    0    0    0    0  0.00000000000E+00  0.00000000000E+00  0.99999998245E-14  0.12500000000E+03  0.12500000000E+03 0.  0.
        -11    1    3    3    0    0 -0.30808951773E+02  0.22675112546E+02 -0.19045950137E+02  0.42732896639E+02  0.51100000000E-03 0.  1.
         23    2    1    0    0    0 -0.14659207368E+02 -0.30273997287E+01  0.24783129428E+02  0.96047262409E+02  0.91579558866E+02 0.  0.
         11    1    3    3    0    0  0.16149744405E+02 -0.25702512274E+02  0.43829079566E+02  0.53314365769E+02  0.51100000000E-03 0. -1.
         22    1    1    0    0    0  0.14659207368E+02  0.30273997287E+01 -0.24783129428E+02  0.28952737591E+02  0.00000000000E+00 0. -1.
</event>
<event>
 5    1  0.8875601E-005  0.9118800E+02  0.7818608E-02  0.1130116E+00
         25   -1    0    0    0    0  0.00000000000E+00  0.00000000000E+00  0.99999998245E-14  0.12500000000E+03  0.12500000000E+03 0.  0.
        -11    1    3    3    0    0 -0.44306498540E+01 -0.31809466946E+02  0.26967199737E+02  0.41936889577E+02  0.51100000000E-03 0. -1.
         23    2    1    0    0    0 -0.13118672378E+02 -0.11928522695E+02 -0.22734993512E+02  0.96168261436E+02  0.91744565828E+02 0.  0.
         11    1    3    3    0    0 -0.86880225244E+01  0.19880944251E+02 -0.49702193248E+02  0.54231371858E+02  0.51100000000E-03 0.  1.
         22    1    1    0    0    0  0.13118672378E+02  0.11928522695E+02  0.22734993512E+02  0.28831738564E+02  0.00000000000E+00 0.  1.
</event>
<event>
 5    1  0.8875601E-005  0.9118800E+02  0.7818608E-02  0.1130116E+00
         25   -1    0    0    0    0  0.00000000000E+00  0.00000000000E+00  0.99999998245E-14  0.12500000000E+03  0.12500000000E+03 0.  0.
        -11    1    3    3    0    0  0.29202709845E+02  0.13310382568E+02 -0.20208313832E+02  0.37925459715E+02  0.51100000000E-03 0. -1.
         23    2    1    0    0    0 -0.23886567814E+02  0.18585986832E+02 -0.14055667745E+02  0.91629821334E+02  0.85337303294E+02 0.  0.
         11    1    3    3    0    0 -0.53089277659E+02  0.52756042638E+01  0.61526460873E+01  0.53704361619E+02  0.51100000000E-03 0.  1.
         22    1    1    0    0    0  0.23886567814E+02 -0.18585986832E+02  0.14055667745E+02  0.33370178666E+02  0.00000000000E+00 0. -1.
</event>
<event>
 5    1  0.8875601E-005  0.9118800E+02  0.7818608E-02  0.1130116E+00
         25   -1    0    0    0    0  0.00000000000E+00  0.00000000000E+00  0.99999998245E-14  0.12500000000E+03  0.12500000000E+03 0.  0.
        -11    1    3    3    0    0 -0.37054740685E+02 -0.30393627173E+01 -0.54876137292E+00  0.37183231063E+02  0.51100000000E-03 0. -1.
         23    2    1    0    0    0  0.48483600923E+01 -0.34789386176E+02  0.19942819977E+01  0.89817829135E+02  0.82640530515E+02 0.  0.
         11    1    3    3    0    0  0.41903100777E+02 -0.31750023459E+02  0.25430433707E+01  0.52634598072E+02  0.51100000000E-03 0.  1.
         22    1    1    0    0    0 -0.48483600923E+01  0.34789386176E+02 -0.19942819977E+01  0.35182170865E+02  0.00000000000E+00 0.  1.
</event>
<event>
 5    1  0.8875601E-005  0.9118800E+02  0.7818608E-02  0.1130116E+00
         25   -1    0    0    0    0  0.00000000000E+00  0.00000000000E+00  0.99999998245E-14  0.12500000000E+03  0.12500000000E+03 0.  0.
        -11    1    3    3    0    0 -0.72240437922E+01  0.92412657486E+01 -0.37915297840E+02  0.39688255339E+02  0.51100000000E-03 0. -1.
         23    2    1    0    0    0 -0.25605987114E+02 -0.17360148595E+01  0.13942926274E+02  0.95792372285E+02  0.91230987451E+02 0.  0.
         11    1    3    3    0    0 -0.18381943321E+02 -0.10977280608E+02  0.51858224113E+02  0.56104116946E+02  0.51100000000E-03 0.  1.
         22    1    1    0    0    0  0.25605987114E+02  0.17360148595E+01 -0.13942926274E+02  0.29207627715E+02  0.00000000000E+00 0.  1.
</event>
<event>
 5    1  0.8875601E-005  0.9118800E+02  0.7818608E-02  0.1130116E+00
         25   -1    0    0    0    0  0.00000000000E+00  0.00000000000E+00  0.99999998245E-14  0.12500000000E+03  0.12500000000E+03 0.  0.
        -11    1    3    3    0    0  0.31973025936E+02 -0.45691826935E+01  0.46589086509E+02  0.56689459338E+02  0.51100000000E-03 0. -1.
         23    2    1    0    0    0  0.72439062087E+00  0.88962516790E+01  0.28312962327E+02  0.95313439548E+02  0.90572401354E+02 0.  0.
         11    1    3    3    0    0 -0.31248635315E+02  0.13465434373E+02 -0.18276124182E+02  0.38623980210E+02  0.51100000000E-03 0.  1.
         22    1    1    0    0    0 -0.72439062087E+00 -0.88962516790E+01 -0.28312962327E+02  0.29686560452E+02  0.00000000000E+00 0. -1.
</event>
<event>
 5    1  0.8875601E-005  0.9118800E+02  0.7818608E-02  0.1130116E+00
         25   -1    0    0    0    0  0.00000000000E+00  0.00000000000E+00  0.99999998245E-14  0.12500000000E+03  0.12500000000E+03 0.  0.
        -11    1    3    3    0    0 -0.24100239240E+02 -0.31184262160E+02  0.56542886767E+01  0.39815207127E+02  0.51100000000E-03 0.  1.
         23    2    1    0    0    0 -0.17580270805E+02  0.23733797115E+02 -0.49783523651E+00  0.95460079773E+02  0.90774555594E+02 0.  0.
         11    1    3    3    0    0  0.65199684351E+01  0.54918059275E+02 -0.61521239132E+01  0.55644872646E+02  0.51100000000E-03 0. -1.
         22    1    1    0    0    0  0.17580270805E+02 -0.23733797115E+02  0.49783523651E+00  0.29539920227E+02  0.00000000000E+00 0. -1.
</event>
<event>
 5    1  0.8875601E-005  0.9118800E+02  0.7818608E-02  0.1130116E+00
         25   -1    0    0    0    0  0.00000000000E+00  0.00000000000E+00  0.99999998245E-14  0.12500000000E+03  0.12500000000E+03 0.  0.
        -11    1    3    3    0    0  0.31158665093E+02 -0.38934713407E+02  0.85073682557E+01  0.50588038441E+02  0.51100000000E-03 0.  1.
         23    2    1    0    0    0 -0.22753890718E+01 -0.20172273324E+02 -0.18540205958E+02  0.97507505689E+02  0.93551464031E+02 0.  0.
         11    1    3    3    0    0 -0.33434054165E+02  0.18762440083E+02 -0.27047574213E+02  0.46919467248E+02  0.51100000000E-03 0. -1.
         22    1    1    0    0    0  0.22753890718E+01  0.20172273324E+02  0.18540205958E+02  0.27492494311E+02  0.00000000000E+00 0.  1.
</event>
<event>
 5    1  0.8875601E-005  0.9118800E+02  0.7818608E-02  0.1130116E+00
         25   -1    0    0    0    0  0.00000000000E+00  0.00000000000E+00  0.99999998245E-14  0.12500000000E+03  0.12500000000E+03 0.  0.
        -11    1    3    3    0    0 -0.60416960134E+02 -0.34193091153E+01 -0.14451747979E+02  0.62215382073E+02  0.51100000000E-03 0. -1.
         23    2    1    0    0    0 -0.28149051949E+02  0.14243254236E+01 -0.36861008472E+01  0.96574920088E+02  0.92296966483E+02 0.  0.
         11    1    3    3    0    0  0.32267908185E+02  0.48436345389E+01  0.10765647132E+02  0.34359538015E+02  0.51100000000E-03 0.  1.
         22    1    1    0    0    0  0.28149051949E+02 -0.14243254236E+01  0.36861008472E+01  0.28425079912E+02  0.00000000000E+00 0. -1.
</event>
<event>
 5    1  0.8875601E-005  0.9118800E+02  0.7818608E-02  0.1130116E+00
         25   -1    0    0    0    0  0.00000000000E+00  0.00000000000E+00  0.99999998245E-14  0.12500000000E+03  0.12500000000E+03 0.  0.
        -11    1    3    3    0    0  0.22210390406E+01  0.71023817452E+00  0.37610940110E+02  0.37683156303E+02  0.51100000000E-03 0. -1.
         23    2    1    0    0    0  0.15744597240E+02  0.15547532092E+02 -0.17789178519E+02  0.96608575788E+02  0.92342535957E+02 0.  0.
         11    1    3    3    0    0  0.13523558199E+02  0.14837293918E+02 -0.55400118629E+02  0.58925419486E+02  0.51100000000E-03 0.  1.
         22    1    1    0    0    0 -0.15744597240E+02 -0.15547532092E+02  0.17789178519E+02  0.28391424212E+02  0.00000000000E+00 0.  1.
</event>
<event>
 5    1  0.8875601E-005  0.9118800E+02  0.7818608E-02  0.1130116E+00
         25   -1    0    0    0    0  0.00000000000E+00  0.00000000000E+00  0.99999998245E-14  0.12500000000E+03  0.12500000000E+03 0.  0.
        -11    1    3    3    0    0 -0.18475255153E+01 -0.25472778148E+02 -0.42406020755E+02  0.49502993583E+02  0.51100000000E-03 0.  1.
         23    2    1    0    0    0 -0.26423264634E+02 -0.98148558713E+01 -0.59192975485E+01  0.96197944636E+02  0.91784999641E+02 0.  0.
         11    1    3    3    0    0 -0.24575739119E+02  0.15657922276E+02  0.36486723207E+02  0.46694951054E+02  0.51100000000E-03 0. -1.
         22    1    1    0    0    0  0.26423264634E+02  0.98148558713E+01  0.59192975485E+01  0.28802055364E+02  0.00000000000E+00 0. -1.
</event>
<event>
 5    1  0.8875601E-005  0.9118800E+02  0.7818608E-02  0.1130116E+00
         25   -1    0    0    0    0  0.00000000000E+00  0.00000000000E+00  0.99999998245E-14  0.12500000000E+03  0.12500000000E+03 0.  0.
        -11    1    3    3    0    0 -0.13098257603E+02 -0.40783344117E+02 -0.66514117542E+01  0.43348434668E+02  0.51100000000E-03 0.  1.
         23    2    1    0    0    0 -0.21046896464E+02  0.10064827564E+02 -0.17364582074E+02  0.95917336517E+02  0.91402046636E+02 0.  0.
         11    1    3    3    0    0 -0.79486388608E+01  0.50848171681E+02 -0.10713170320E+02  0.52568901849E+02  0.51100000000E-03 0. -1.
         22    1    1    0    0    0  0.21046896464E+02 -0.10064827564E+02  0.17364582074E+02  0.29082663483E+02  0.00000000000E+00 0. -1.
</event>
<event>
 5    1  0.8875601E-005  0.9118800E+02  0.7818608E-02  0.1130116E+00
         25   -1    0    0    0    0  0.00000000000E+00  0.00000000000E+00  0.99999998245E-14  0.12500000000E+03  0.12500000000E+03 0.  0.
        -11    1    3    3    0    0  0.42180644102E+02  0.79416291922E+01  0.31623998469E+01  0.43038087599E+02  0.51100000000E-03 0. -1.
         23    2    1    0    0    0  0.14362425161E+01 -0.24632336213E+02  0.14444168046E+02  0.96408938977E+02  0.92071899862E+02 0.  0.
         11    1    3    3    0    0 -0.40744401586E+02 -0.32573965405E+02  0.11281768199E+02  0.53370851378E+02  0.51100000000E-03 0.  1.
         22    1    1    0    0    0 -0.14362425161E+01  0.24632336213E+02 -0.14444168046E+02  0.28591061023E+02  0.00000000000E+00 0.  1.
</event>
<event>
 5    1  0.8875601E-005  0.9118800E+02  0.7818608E-02  0.1130116E+00
         25   -1    0    0    0    0  0.00000000000E+00  0.00000000000E+00  0.99999998245E-14  0.12500000000E+03  0.12500000000E+03 0.  0.
        -11    1    3    3    0    0  0.30040796035E+02  0.82256920829E+01 -0.22104180431E+02  0.38193012835E+02  0.51100000000E-03 0.  1.
         23    2    1    0    0    0  0.13811888522E+01 -0.12458712979E+02  0.24970795761E+02  0.97059565990E+02  0.92951016656E+02 0.  0.
         11    1    3    3    0    0 -0.28659607182E+02 -0.20684405062E+02  0.47074976192E+02  0.58866553155E+02  0.51100000000E-03 0. -1.
         22    1    1    0    0    0 -0.13811888522E+01  0.12458712979E+02 -0.24970795761E+02  0.27940434010E+02  0.00000000000E+00 0. -1.
</event>
<event>
 5    1  0.8875601E-005  0.9118800E+02  0.7818608E-02  0.1130116E+00
         25   -1    0    0    0    0  0.00000000000E+00  0.00000000000E+00  0.99999998245E-14  0.12500000000E+03  0.12500000000E+03 0.  0.
        -11    1    3    3    0    0  0.33847508579E+02  0.29512512829E+02  0.31423337064E+01  0.45016846978E+02  0.51100000000E-03 0. -1.
         23    2    1    0    0    0 -0.49535355740E+01 -0.28358615827E+01 -0.22583146519E+02  0.10170669340E+03  0.99003400701E+02 0.  0.
         11    1    3    3    0    0 -0.38801044153E+02 -0.32348374412E+02 -0.25725480225E+02  0.56689846423E+02  0.51100000000E-03 0.  1.
         22    1    1    0    0    0  0.49535355740E+01  0.28358615827E+01  0.22583146519E+02  0.23293306598E+02  0.00000000000E+00 0.  1.
</event>
<event>
 5    1  0.8875601E-005  0.9118800E+02  0.7818608E-02  0.1130116E+00
         25   -1    0    0    0    0  0.00000000000E+00  0.00000000000E+00  0.99999998245E-14  0.12500000000E+03  0.12500000000E+03 0.  0.
        -11    1    3    3    0    0  0.21385592308E+02  0.24533158643E+02  0.16840864669E+02  0.36644701587E+02  0.51100000000E-03 0.  1.
         23    2    1    0    0    0 -0.28846401998E+02 -0.27889270962E+01  0.90714907477E+00  0.96004897965E+02  0.91521715954E+02 0.  0.
         11    1    3    3    0    0 -0.50231994306E+02 -0.27322085739E+02 -0.15933715594E+02  0.59360196378E+02  0.51100000000E-03 0. -1.
         22    1    1    0    0    0  0.28846401998E+02  0.27889270962E+01 -0.90714907477E+00  0.28995102035E+02  0.00000000000E+00 0. -1.
</event>
<event>
 5    1  0.8875601E-005  0.9118800E+02  0.7818608E-02  0.1130116E+00
         25   -1    0    0    0    0  0.00000000000E+00  0.00000000000E+00  0.99999998245E-14  0.12500000000E+03  0.12500000000E+03 0.  0.
        -11    1    3    3    0    0  0.11928843170E+01 -0.49221727015E+02  0.33347808658E+02  0.59466610177E+02  0.51100000000E-03 0.  1.
         23    2    1    0    0    0  0.79991397926E+01 -0.27575056553E+02  0.48721157517E+01  0.95877714835E+02  0.91347844576E+02 0.  0.
         11    1    3    3    0    0  0.68062554756E+01  0.21646670462E+02 -0.28475692906E+02  0.36411104658E+02  0.51100000000E-03 0. -1.
         22    1    1    0    0    0 -0.79991397926E+01  0.27575056553E+02 -0.48721157517E+01  0.29122285165E+02  0.00000000000E+00 0.  1.
</event>
<event>
 5    1  0.8875601E-005  0.9118800E+02  0.7818608E-02  0.1130116E+00
         25   -1    0    0    0    0  0.00000000000E+00  0.00000000000E+00  0.99999998245E-14  0.12500000000E+03  0.12500000000E+03 0.  0.
        -11    1    3    3    0    0 -0.21585641136E+02  0.54334833078E+01  0.28950172271E+02  0.36518147802E+02  0.51100000000E-03 0.  1.
         23    2    1    0    0    0  0.96832428070E+01  0.12704521731E+02 -0.22646370775E+02  0.97286678781E+02  0.93255936515E+02 0.  0.
         11    1    3    3    0    0  0.31268883943E+02  0.72710384234E+01 -0.51596543047E+02  0.60768530979E+02  0.51100000000E-03 0. -1.
         22    1    1    0    0    0 -0.96832428070E+01 -0.12704521731E+02  0.22646370775E+02  0.27713321219E+02  0.00000000000E+00 0. -1.
</event>
<event>
 5    1  0.8875601E-005  0.9118800E+02  0.7818608E-02  0.1130116E+00
         25   -1    0    0    0    0  0.00000000000E+00  0.00000000000E+00  0.99999998245E-14  0.12500000000E+03  0.12500000000E+03 0.  0.
        -11    1    3    3    0    0  0.50454346565E+02  0.78794649134E+00  0.21819543444E+02  0.54975944042E+02  0.51100000000E-03 0.  1.
         23    2    1    0    0    0  0.14384074499E+02  0.25223220292E+01  0.29669493170E+02  0.91931245373E+02  0.85777685579E+02 0.  0.
         11    1    3    3    0    0 -0.36070272066E+02  0.17343755379E+01  0.78499497267E+01  0.36955301331E+02  0.51100000000E-03 0. -1.
         22    1    1    0    0    0 -0.14384074499E+02 -0.25223220292E+01 -0.29669493170E+02  0.33068754627E+02  0.00000000000E+00 0.  1.
</event>
<event>
 5    1  0.8875601E-005  0.9118800E+02  0.7818608E-02  0.1130116E+00
         25   -1    0    0    0    0  0.00000000000E+00  0.00000000000E+00  0.99999998245E-14  0.12500000000E+03  0.12500000000E+03 0.  0.
        -11    1    3    3    0    0 -0.32990478167E+02  0.39523424660E+01 -0.51052334999E+02  0.60912507498E+02  0.51100000000E-03 0.  1.
         23    2    1    0    0    0 -0.22565167056E+02  0.18704576631E+00 -0.16932301930E+02  0.96787864331E+02  0.92584912824E+02 0.  0.
         11    1    3    3    0    0  0.10425311111E+02 -0.37652966997E+01  0.34120033068E+02  0.35875356832E+02  0.51100000000E-03 0. -1.
         22    1    1    0    0    0  0.22565167056E+02 -0.18704576631E+00  0.16932301930E+02  0.28212135669E+02  0.00000000000E+00 0.  1.
</event>
<event>
 5    1  0.8875601E-005  0.9118800E+02  0.7818608E-02  0.1130116E+00
         25   -1    0    0    0    0  0.00000000000E+00  0.00000000000E+00  0.99999998245E-14  0.12500000000E+03  0.12500000000E+03 0.  0.
        -11    1    3    3    0    0 -0.17788885825E+02  0.35816546816E+02  0.44647082251E+02  0.59938563868E+02  0.51100000000E-03 0.  1.
         23    2    1    0    0    0 -0.17292653104E+02  0.18382479478E+02  0.11776412414E+02  0.97149770334E+02  0.93072243894E+02 0.  0.
         11    1    3    3    0    0  0.49623272084E+00 -0.17434067338E+02 -0.32870669837E+02  0.37211206466E+02  0.51100000000E-03 0. -1.
         22    1    1    0    0    0  0.17292653104E+02 -0.18382479478E+02 -0.11776412414E+02  0.27850229666E+02  0.00000000000E+00 0.  1.
</event>
<event>
 5    1  0.8875601E-005  0.9118800E+02  0.7818608E-02  0.1130116E+00
         25   -1    0    0    0    0  0.00000000000E+00  0.00000000000E+00  0.99999998245E-14  0.12500000000E+03  0.12500000000E+03 0.  0.
        -11    1    3    3    0    0 -0.36586272435E+02 -0.44798591641E+02 -0.21028471754E+02  0.61544014886E+02  0.51100000000E-03 0. -1.
         23    2    1    0    0    0 -0.15843322490E+02 -0.17177058110E+02 -0.16525154985E+02  0.96379326701E+02  0.92031688429E+02 0.  0.
         11    1    3    3    0    0  0.20742949944E+02  0.27621533532E+02  0.45033167688E+01  0.34835311815E+02  0.51100000000E-03 0.  1.
         22    1    1    0    0    0  0.15843322490E+02  0.17177058110E+02  0.16525154985E+02  0.28620673299E+02  0.00000000000E+00 0. -1.
</event>
<event>
 5    1  0.8875601E-005  0.9118800E+02  0.7818608E-02  0.1130116E+00
         25   -1    0    0    0    0  0.00000000000E+00  0.00000000000E+00  0.99999998245E-14  0.12500000000E+03  0.12500000000E+03 0.  0.
        -11    1    3    3    0    0  0.74909962726E+01  0.50037878382E+02 -0.19972312485E+02  0.54394830309E+02  0.51100000000E-03 0. -1.
         23    2    1    0    0    0 -0.90969013234E+01  0.13199519819E+02 -0.25200878690E+02  0.95132539046E+02  0.90322393466E+02 0.  0.
         11    1    3    3    0    0 -0.16587897596E+02 -0.36838358563E+02 -0.52285662043E+01  0.40737708736E+02  0.51100000000E-03 0.  1.
         22    1    1    0    0    0  0.90969013234E+01 -0.13199519819E+02  0.25200878690E+02  0.29867460954E+02  0.00000000000E+00 0. -1.
</event>
<event>
 5    1  0.8875601E-005  0.9118800E+02  0.7818608E-02  0.1130116E+00
         25   -1    0    0    0    0  0.00000000000E+00  0.00000000000E+00  0.99999998245E-14  0.12500000000E+03  0.12500000000E+03 0.  0.
        -11    1    3    3    0    0  0.56955828283E+02  0.10268056836E+02  0.63713832198E+01  0.58223654050E+02  0.51100000000E-03 0.  1.
         23    2    1    0    0    0  0.17624193989E+02  0.11743156909E+02  0.15656054227E+02  0.98663219978E+02  0.95083147795E+02 0.  0.
         11    1    3    3    0    0 -0.39331634294E+02  0.14751000729E+01  0.92846710076E+01  0.40439565928E+02  0.51100000000E-03 0. -1.
         22    1    1    0    0    0 -0.17624193989E+02 -0.11743156909E+02 -0.15656054227E+02  0.26336780022E+02  0.00000000000E+00 0.  1.
</event>
<event>
 5    1  0.8875601E-005  0.9118800E+02  0.7818608E-02  0.1130116E+00
         25   -1    0    0    0    0  0.00000000000E+00  0.00000000000E+00  0.99999998245E-14  0.12500000000E+03  0.12500000000E+03 0.  0.
        -11    1    3    3    0    0 -0.37407419698E+02  0.23585042145E+02 -0.16368741303E+02  0.47154055537E+02  0.51100000000E-03 0. -1.
         23    2    1    0    0    0 -0.38539681962E+01 -0.71163657663E+01 -0.29434302524E+02  0.94473390335E+02  0.89405523228E+02 0.  0.
         11    1    3    3    0    0  0.33553451502E+02 -0.30701407912E+02 -0.13065561221E+02  0.47319334798E+02  0.51100000000E-03 0.  1.
         22    1    1    0    0    0  0.38539681962E+01  0.71163657663E+01  0.29434302524E+02  0.30526609665E+02  0.00000000000E+00 0. -1.
</event>
<event>
 5    1  0.8875601E-005  0.9118800E+02  0.7818608E-02  0.1130116E+00
         25   -1    0    0    0    0  0.00000000000E+00  0.00000000000E+00  0.99999998245E-14  0.12500000000E+03  0.12500000000E+03 0.  0.
        -11    1    3    3    0    0  0.44684792264E+02  0.86328476262E+00  0.84809462838E+00  0.44701176551E+02  0.51100000000E-03 0.  1.
         23    2    1    0    0    0  0.29415977663E+02  0.33305351010E+02  0.80715573730E+00  0.80556804253E+02  0.67187804424E+02 0.  0.
         11    1    3    3    0    0 -0.15268814601E+02  0.32442066247E+02 -0.40938891084E-01  0.35855627703E+02  0.51100000000E-03 0. -1.
         22    1    1    0    0    0 -0.29415977663E+02 -0.33305351010E+02 -0.80715573730E+00  0.44443195747E+02  0.00000000000E+00 0.  1.
</event>
<event>
 5    1  0.8875601E-005  0.9118800E+02  0.7818608E-02  0.1130116E+00
         25   -1    0    0    0    0  0.00000000000E+00  0.00000000000E+00  0.99999998245E-14  0.12500000000E+03  0.12500000000E+03 0.  0.
        -11    1    3    3    0    0  0.27014852259E+02  0.30754501030E+02  0.21762224644E+02  0.46359853299E+02  0.51100000000E-03 0. -1.
         23    2    1    0    0    0  0.96259835706E+01 -0.15119474702E+02  0.23494120580E+02  0.95449504628E+02  0.90759992050E+02 0.  0.
         11    1    3    3    0    0 -0.17388868689E+02 -0.45873975732E+02  0.17318959352E+01  0.49089651328E+02  0.51100000000E-03 0.  1.
         22    1    1    0    0    0 -0.96259835706E+01  0.15119474702E+02 -0.23494120580E+02  0.29550495372E+02  0.00000000000E+00 0.  1.
</event>
<event>
 4    1  0.8875601E-005  0.9118800E+02  0.7818608E-02  0.1130116E+00
         25   -1    0    0    0    0  0.00000000000E+00  0.00000000000E+00  0.99999998245E-14  0.12500000000E+03  0.12500000000E+03 0.  0.
        -11    1    1    0    0    0 -0.21587032346E+02  0.56880048545E+02 -0.32174066926E+01  0.60923653814E+02  0.51100000000E-03 0. -1.
         11    1    1    0    0    0 -0.27461811313E+01 -0.82822785811E+01  0.42751924582E+01  0.97167340252E+01  0.51100000000E-03 0.  1.
         22    1    1    0    0    0  0.24333213477E+02 -0.48597769963E+02 -0.10577857657E+01  0.54359612161E+02  0.00000000000E+00 0. -1.
</event>
<event>
 5    1  0.8875601E-005  0.9118800E+02  0.7818608E-02  0.1130116E+00
         25   -1    0    0    0    0  0.00000000000E+00  0.00000000000E+00  0.99999998245E-14  0.12500000000E+03  0.12500000000E+03 0.  0.
        -11    1    3    3    0    0  0.33724812249E+02 -0.73475426424E+01  0.46031252573E+02  0.57534559682E+02  0.51100000000E-03 0.  1.
         23    2    1    0    0    0  0.15329298153E+02  0.14235113649E+02  0.20963179580E+02  0.95384451033E+02  0.90670352146E+02 0.  0.
         11    1    3    3    0    0 -0.18395514096E+02  0.21582656292E+02 -0.25068072993E+02  0.37849891351E+02  0.51100000000E-03 0. -1.
         22    1    1    0    0    0 -0.15329298153E+02 -0.14235113649E+02 -0.20963179580E+02  0.29615548967E+02  0.00000000000E+00 0.  1.
</event>
<event>
 5    1  0.8875601E-005  0.9118800E+02  0.7818608E-02  0.1130116E+00
         25   -1    0    0    0    0  0.00000000000E+00  0.00000000000E+00  0.99999998245E-14  0.12500000000E+03  0.12500000000E+03 0.  0.
        -11    1    3    3    0    0  0.64704075833E+00 -0.50080953194E+02  0.22877544691E+02  0.55062715025E+02  0.51100000000E-03 0.  1.
         23    2    1    0    0    0  0.20434438773E+02 -0.15838372696E+02  0.14013511386E+02  0.95592537699E+02  0.90956772286E+02 0.  0.
         11    1    3    3    0    0  0.19787398015E+02  0.34242580497E+02 -0.88640333055E+01  0.40529822674E+02  0.51100000000E-03 0. -1.
         22    1    1    0    0    0 -0.20434438773E+02  0.15838372696E+02 -0.14013511386E+02  0.29407462301E+02  0.00000000000E+00 0.  1.
</event>
<event>
 5    1  0.8875601E-005  0.9118800E+02  0.7818608E-02  0.1130116E+00
         25   -1    0    0    0    0  0.00000000000E+00  0.00000000000E+00  0.99999998245E-14  0.12500000000E+03  0.12500000000E+03 0.  0.
        -11    1    3    3    0    0  0.69470234895E+01  0.14069567171E+02  0.38485542279E+02  0.41561410232E+02  0.51100000000E-03 0. -1.
         23    2    1    0    0    0  0.15441356895E+02  0.19330582912E+02 -0.15063230792E+02  0.96034367599E+02  0.91561956619E+02 0.  0.
         11    1    3    3    0    0  0.84943334051E+01  0.52610157415E+01 -0.53548773071E+02  0.54472957367E+02  0.51100000000E-03 0.  1.
         22    1    1    0    0    0 -0.15441356895E+02 -0.19330582912E+02  0.15063230792E+02  0.28965632401E+02  0.00000000000E+00 0.  1.
</event>
<event>
 5    1  0.8875601E-005  0.9118800E+02  0.7818608E-02  0.1130116E+00
         25   -1    0    0    0    0  0.00000000000E+00  0.00000000000E+00  0.99999998245E-14  0.12500000000E+03  0.12500000000E+03 0.  0.
        -11    1    3    3    0    0 -0.23228247836E+02 -0.36511314277E+01  0.35704253407E+02  0.42751327112E+02  0.51100000000E-03 0. -1.
         23    2    1    0    0    0  0.20158337024E+02  0.16695426133E+02  0.12611489430E+02  0.95945818357E+02  0.91440989655E+02 0.  0.
         11    1    3    3    0    0  0.43386584860E+02  0.20346557561E+02 -0.23092763978E+02  0.53194491244E+02  0.51100000000E-03 0.  1.
         22    1    1    0    0    0 -0.20158337024E+02 -0.16695426133E+02 -0.12611489430E+02  0.29054181643E+02  0.00000000000E+00 0.  1.
</event>
<event>
 5    1  0.8875601E-005  0.9118800E+02  0.7818608E-02  0.1130116E+00
         25   -1    0    0    0    0  0.00000000000E+00  0.00000000000E+00  0.99999998245E-14  0.12500000000E+03  0.12500000000E+03 0.  0.
        -11    1    3    3    0    0  0.48023383486E+02 -0.28300005797E+02  0.97686504365E+01  0.56591185013E+02  0.51100000000E-03 0.  1.
         23    2    1    0    0    0  0.23852373890E+02 -0.63635585341E+01 -0.13674930891E+02  0.96778831487E+02  0.92572716670E+02 0.  0.
         11    1    3    3    0    0 -0.24171009596E+02  0.21936447263E+02 -0.23443581327E+02  0.40187646474E+02  0.51100000000E-03 0. -1.
         22    1    1    0    0    0 -0.23852373890E+02  0.63635585341E+01  0.13674930891E+02  0.28221168513E+02  0.00000000000E+00 0. -1.
</event>
<event>
 5    1  0.8875601E-005  0.9118800E+02  0.7818608E-02  0.1130116E+00
         25   -1    0    0    0    0  0.00000000000E+00  0.00000000000E+00  0.99999998245E-14  0.12500000000E+03  0.12500000000E+03 0.  0.
        -11    1    3    3    0    0 -0.18153294430E+02  0.57216840696E+02  0.14940351449E+02  0.61858896366E+02  0.51100000000E-03 0. -1.
         23    2    1    0    0    0 -0.12051056791E+02  0.21128871009E+02  0.96152072553E+01  0.98844515481E+02  0.95321187939E+02 0.  0.
         11    1    3    3    0    0  0.61022376387E+01 -0.36087969688E+02 -0.53251441933E+01  0.36985619115E+02  0.51100000000E-03 0.  1.
         22    1    1    0    0    0  0.12051056791E+02 -0.21128871009E+02 -0.96152072553E+01  0.26155484519E+02  0.00000000000E+00 0. -1.
</event>
<event>
 5    1  0.8875601E-005  0.9118800E+02  0.7818608E-02  0.1130116E+00
         25   -1    0    0    0    0  0.00000000000E+00  0.00000000000E+00  0.99999998245E-14  0.12500000000E+03  0.12500000000E+03 0.  0.
        -11    1    3    3    0    0  0.33301931060E+02  0.34937201887E+02 -0.59481780480E+01  0.48631342881E+02  0.51100000000E-03 0.  1.
         23    2    1    0    0    0  0.14216251336E+02 -0.95468970577E+01 -0.19646629015E+02  0.98937861232E+02  0.95443518942E+02 0.  0.
         11    1    3    3    0    0 -0.19085679723E+02 -0.44484098945E+02 -0.13698450967E+02  0.50306518351E+02  0.51100000000E-03 0. -1.
         22    1    1    0    0    0 -0.14216251336E+02  0.95468970577E+01  0.19646629015E+02  0.26062138768E+02  0.00000000000E+00 0. -1.
</event>
<event>
 5    1  0.8875601E-005  0.9118800E+02  0.7818608E-02  0.1130116E+00
         25   -1    0    0    0    0  0.00000000000E+00  0.00000000000E+00  0.99999998245E-14  0.12500000000E+03  0.12500000000E+03 0.  0.
        -11    1    3    3    0    0 -0.86037644818E+01 -0.38401150415E+02 -0.13786297908E+02  0.41698142965E+02  0.51100000000E-03 0.  1.
         23    2    1    0    0    0  0.25347208355E+02  0.47059785498E+01 -0.11909149409E+02  0.96601847857E+02  0.92333428205E+02 0.  0.
         11    1    3    3    0    0  0.33950972837E+02  0.43107128964E+02  0.18771484990E+01  0.54903704892E+02  0.51100000000E-03 0. -1.
         22    1    1    0    0    0 -0.25347208355E+02 -0.47059785498E+01  0.11909149409E+02  0.28398152143E+02  0.00000000000E+00 0. -1.
</event>
<event>
 5    1  0.8875601E-005  0.9118800E+02  0.7818608E-02  0.1130116E+00
         25   -1    0    0    0    0  0.00000000000E+00  0.00000000000E+00  0.99999998245E-14  0.12500000000E+03  0.12500000000E+03 0.  0.
        -11    1    3    3    0    0  0.29334916597E+02  0.18330369703E+02  0.17596730695E+02  0.38809595677E+02  0.51100000000E-03 0.  1.
         23    2    1    0    0    0 -0.17620511632E+02  0.16296678533E+02 -0.15621189514E+02  0.96362861120E+02  0.92009321702E+02 0.  0.
         11    1    3    3    0    0 -0.46955428229E+02 -0.20336911692E+01 -0.33217920209E+02  0.57553265443E+02  0.51100000000E-03 0. -1.
         22    1    1    0    0    0  0.17620511632E+02 -0.16296678533E+02  0.15621189514E+02  0.28637138880E+02  0.00000000000E+00 0. -1.
</event>
<event>
 5    1  0.8875601E-005  0.9118800E+02  0.7818608E-02  0.1130116E+00
         25   -1    0    0    0    0  0.00000000000E+00  0.00000000000E+00  0.99999998245E-14  0.12500000000E+03  0.12500000000E+03 0.  0.
        -11    1    3    3    0    0  0.12028942955E+02 -0.10551156141E+02 -0.38475082396E+02  0.41669585193E+02  0.51100000000E-03 0. -1.
         23    2    1    0    0    0 -0.28226944655E+02  0.72283780847E+01 -0.95276773566E+01  0.94344062726E+02  0.89224523992E+02 0.  0.
         11    1    3    3    0    0 -0.40255887611E+02  0.17779534226E+02  0.28947405039E+02  0.52674477533E+02  0.51100000000E-03 0.  1.
         22    1    1    0    0    0  0.28226944655E+02 -0.72283780847E+01  0.95276773566E+01  0.30655937274E+02  0.00000000000E+00 0.  1.
</event>
<event>
 5    1  0.8875601E-005  0.9118800E+02  0.7818608E-02  0.1130116E+00
         25   -1    0    0    0    0  0.00000000000E+00  0.00000000000E+00  0.99999998245E-14  0.12500000000E+03  0.12500000000E+03 0.  0.
        -11    1    3    3    0    0  0.37480478050E+02  0.13325867401E+02  0.33401868758E+02  0.51942755160E+02  0.51100000000E-03 0. -1.
         23    2    1    0    0    0 -0.30749406773E+01 -0.28857313691E+01  0.28837044138E+02  0.95856255897E+02  0.91318475536E+02 0.  0.
         11    1    3    3    0    0 -0.40555418728E+02 -0.16211598770E+02 -0.45648246196E+01  0.43913500736E+02  0.51100000000E-03 0.  1.
         22    1    1    0    0    0  0.30749406773E+01  0.28857313691E+01 -0.28837044138E+02  0.29143744103E+02  0.00000000000E+00 0. -1.
</event>
<event>
 5    1  0.8875601E-005  0.9118800E+02  0.7818608E-02  0.1130116E+00
         25   -1    0    0    0    0  0.00000000000E+00  0.00000000000E+00  0.99999998245E-14  0.12500000000E+03  0.12500000000E+03 0.  0.
        -11    1    3    3    0    0 -0.25192879404E+02  0.32059797781E+02 -0.16832730687E+02  0.44111819607E+02  0.51100000000E-03 0. -1.
         23    2    1    0    0    0  0.10236443089E+02 -0.44922041196E+01 -0.26781064568E+02  0.95979488558E+02  0.91487005304E+02 0.  0.
         11    1    3    3    0    0  0.35429322492E+02 -0.36552001900E+02 -0.99483338813E+01  0.51867668951E+02  0.51100000000E-03 0.  1.
         22    1    1    0    0    0 -0.10236443089E+02  0.44922041196E+01  0.26781064568E+02  0.29020511442E+02  0.00000000000E+00 0.  1.
</event>
<event>
 5    1  0.8875601E-005  0.9118800E+02  0.7818608E-02  0.1130116E+00
         25   -1    0    0    0    0  0.00000000000E+00  0.00000000000E+00  0.99999998245E-14  0.12500000000E+03  0.12500000000E+03 0.  0.
        -11    1    3    3    0    0 -0.42230859248E+01 -0.11799310795E+02  0.42144742705E+02  0.43968597065E+02  0.51100000000E-03 0. -1.
         23    2    1    0    0    0  0.28645432707E+02 -0.20537972019E+00  0.32889478381E+01  0.96165642478E+02  0.91740997485E+02 0.  0.
         11    1    3    3    0    0  0.32868518632E+02  0.11593931075E+02 -0.38855794867E+02  0.52197045413E+02  0.51100000000E-03 0.  1.
         22    1    1    0    0    0 -0.28645432707E+02  0.20537972019E+00 -0.32889478381E+01  0.28834357522E+02  0.00000000000E+00 0.  1.
</event>
<event>
 5    1  0.8875601E-005  0.9118800E+02  0.7818608E-02  0.1130116E+00
         25   -1    0    0    0    0  0.00000000000E+00  0.00000000000E+00  0.99999998245E-14  0.12500000000E+03  0.12500000000E+03 0.  0.
        -11    1    3    3    0    0  0.34986817338E+02  0.11055591487E+02 -0.58469712529E+01  0.37154953421E+02  0.51100000000E-03 0. -1.
         23    2    1    0    0    0 -0.16946468194E+02 -0.50748723794E+01 -0.24618973018E+02  0.94684476808E+02  0.89700162776E+02 0.  0.
         11    1    3    3    0    0 -0.51933285532E+02 -0.16130463866E+02 -0.18772001765E+02  0.57529523388E+02  0.51100000000E-03 0.  1.
         22    1    1    0    0    0  0.16946468194E+02  0.50748723794E+01  0.24618973018E+02  0.30315523192E+02  0.00000000000E+00 0.  1.
</event>
<event>
 5    1  0.8875601E-005  0.9118800E+02  0.7818608E-02  0.1130116E+00
         25   -1    0    0    0    0  0.00000000000E+00  0.00000000000E+00  0.99999998245E-14  0.12500000000E+03  0.12500000000E+03 0.  0.
        -11    1    3    3    0    0 -0.39180032066E+02  0.32452352440E+01 -0.63438783514E+01  0.39822747987E+02  0.51100000000E-03 0. -1.
         23    2    1    0    0    0  0.66828809842E+01 -0.73228877867E+01  0.26162564282E+02  0.97022055944E+02  0.92900559665E+02 0.  0.
         11    1    3    3    0    0  0.45862913050E+02 -0.10568123031E+02  0.32506442633E+02  0.57199307957E+02  0.51100000000E-03 0.  1.
         22    1    1    0    0    0 -0.66828809842E+01  0.73228877867E+01 -0.26162564282E+02  0.27977944056E+02  0.00000000000E+00 0.  1.
</event>
<event>
 5    1  0.8875601E-005  0.9118800E+02  0.7818608E-02  0.1130116E+00
         25   -1    0    0    0    0  0.00000000000E+00  0.00000000000E+00  0.99999998245E-14  0.12500000000E+03  0.12500000000E+03 0.  0.
        -11    1    3    3    0    0  0.66860302162E+01  0.22737120939E+02 -0.41255049117E+02  0.47577922890E+02  0.51100000000E-03 0.  1.
         23    2    1    0    0    0  0.26684757999E+02  0.12212160618E+02  0.11521471392E+01  0.95630958146E+02  0.91009557391E+02 0.  0.
         11    1    3    3    0    0  0.19998727782E+02 -0.10524960321E+02  0.42407196256E+02  0.48053035255E+02  0.51100000000E-03 0. -1.
         22    1    1    0    0    0 -0.26684757999E+02 -0.12212160618E+02 -0.11521471392E+01  0.29369041854E+02  0.00000000000E+00 0. -1.
</event>
<event>
 5    1  0.8875601E-005  0.9118800E+02  0.7818608E-02  0.1130116E+00
         25   -1    0    0    0    0  0.00000000000E+00  0.00000000000E+00  0.99999998245E-14  0.12500000000E+03  0.12500000000E+03 0.  0.
        -11    1    3    3    0    0 -0.25896948034E+02  0.23324364839E+02 -0.37017463339E+02  0.50842605214E+02  0.51100000000E-03 0.  1.
         23    2    1    0    0    0 -0.10573684046E+01 -0.12738353128E+02 -0.26047392016E+02  0.95985343373E+02  0.91495004471E+02 0.  0.
         11    1    3    3    0    0  0.24839579629E+02 -0.36062717967E+02  0.10970071323E+02  0.45142738158E+02  0.51100000000E-03 0. -1.
         22    1    1    0    0    0  0.10573684046E+01  0.12738353128E+02  0.26047392016E+02  0.29014656627E+02  0.00000000000E+00 0. -1.
</event>
<event>
 5    1  0.8875601E-005  0.9118800E+02  0.7818608E-02  0.1130116E+00
         25   -1    0    0    0    0  0.00000000000E+00  0.00000000000E+00  0.99999998245E-14  0.12500000000E+03  0.12500000000E+03 0.  0.
        -11    1    3    3    0    0 -0.56750095231E+02  0.20169863930E+01 -0.11339538617E+02  0.57907052067E+02  0.51100000000E-03 0.  1.
         23    2    1    0    0    0 -0.20394715783E+02  0.14667200315E+02 -0.13538053855E+02  0.96463179940E+02  0.92145509847E+02 0.  0.
         11    1    3    3    0    0  0.36355379448E+02  0.12650213922E+02 -0.21985152378E+01  0.38556127873E+02  0.51100000000E-03 0. -1.
         22    1    1    0    0    0  0.20394715783E+02 -0.14667200315E+02  0.13538053855E+02  0.28536820060E+02  0.00000000000E+00 0.  1.
</event>
<event>
 5    1  0.8875601E-005  0.9118800E+02  0.7818608E-02  0.1130116E+00
         25   -1    0    0    0    0  0.00000000000E+00  0.00000000000E+00  0.99999998245E-14  0.12500000000E+03  0.12500000000E+03 0.  0.
        -11    1    3    3    0    0 -0.13332316897E+02 -0.25526767760E+02 -0.41296108648E+02  0.50346153138E+02  0.51100000000E-03 0. -1.
         23    2    1    0    0    0 -0.26860243651E+02 -0.89179374858E+01 -0.19164421973E+00  0.96697367163E+02  0.92462650788E+02 0.  0.
         11    1    3    3    0    0 -0.13527926755E+02  0.16608830275E+02  0.41104464428E+02  0.46351214024E+02  0.51100000000E-03 0.  1.
         22    1    1    0    0    0  0.26860243651E+02  0.89179374858E+01  0.19164421973E+00  0.28302632837E+02  0.00000000000E+00 0.  1.
</event>
<event>
 5    1  0.8875601E-005  0.9118800E+02  0.7818608E-02  0.1130116E+00
         25   -1    0    0    0    0  0.00000000000E+00  0.00000000000E+00  0.99999998245E-14  0.12500000000E+03  0.12500000000E+03 0.  0.
        -11    1    3    3    0    0  0.50494908927E+02 -0.28949139790E+02  0.95711926621E+01  0.58986407344E+02  0.51100000000E-03 0. -1.
         23    2    1    0    0    0  0.19866934182E+02  0.18774606543E+01 -0.42703099004E+01  0.10459275915E+03  0.10258259983E+03 0.  0.
         11    1    3    3    0    0 -0.30627974745E+02  0.30826600444E+02 -0.13841502562E+02  0.45606351810E+02  0.51100000000E-03 0.  1.
         22    1    1    0    0    0 -0.19866934182E+02 -0.18774606543E+01  0.42703099004E+01  0.20407240846E+02  0.00000000000E+00 0. -1.
</event>
<event>
 5    1  0.8875601E-005  0.9118800E+02  0.7818608E-02  0.1130116E+00
         25   -1    0    0    0    0  0.00000000000E+00  0.00000000000E+00  0.99999998245E-14  0.12500000000E+03  0.12500000000E+03 0.  0.
        -11    1    3    3    0    0  0.43722689264E+02  0.24876834897E+02  0.16053585479E+02  0.52803864233E+02  0.51100000000E-03 0. -1.
         23    2    1    0    0    0  0.26639319681E+02 -0.12160071578E+02  0.33380820546E+01  0.95526902341E+02  0.90866526209E+02 0.  0.
         11    1    3    3    0    0 -0.17083369583E+02 -0.37036906475E+02 -0.12715503424E+02  0.42723038108E+02  0.51100000000E-03 0.  1.
         22    1    1    0    0    0 -0.26639319681E+02  0.12160071578E+02 -0.33380820546E+01  0.29473097659E+02  0.00000000000E+00 0. -1.
</event>
<event>
 5    1  0.8875601E-005  0.9118800E+02  0.7818608E-02  0.1130116E+00
         25   -1    0    0    0    0  0.00000000000E+00  0.00000000000E+00  0.99999998245E-14  0.12500000000E+03  0.12500000000E+03 0.  0.
        -11    1    3    3    0    0 -0.57474543623E+02  0.71605178856E+01  0.22317782291E+02  0.62069957207E+02  0.51100000000E-03 0.  1.
         23    2    1    0    0    0 -0.24850160777E+02  0.82097194479E+01  0.10884186607E+02  0.96655767745E+02  0.92406395537E+02 0.  0.
         11    1    3    3    0    0  0.32624382847E+02  0.10492015623E+01 -0.11433595683E+02  0.34585810538E+02  0.51100000000E-03 0. -1.
         22    1    1    0    0    0  0.24850160777E+02 -0.82097194479E+01 -0.10884186607E+02  0.28344232255E+02  0.00000000000E+00 0.  1.
</event>
<event>
 5    1  0.8875601E-005  0.9118800E+02  0.7818608E-02  0.1130116E+00
         25   -1    0    0    0    0  0.00000000000E+00  0.00000000000E+00  0.99999998245E-14  0.12500000000E+03  0.12500000000E+03 0.  0.
        -11    1    3    3    0    0  0.38151575223E+02 -0.19835302498E+02 -0.15327415629E+02  0.45649880474E+02  0.51100000000E-03 0.  1.
         23    2    1    0    0    0 -0.90603773200E+01 -0.11505669470E+02 -0.26360892187E+02  0.94844279083E+02  0.89922576535E+02 0.  0.
         11    1    3    3    0    0 -0.47211952543E+02  0.83296330274E+01 -0.11033476558E+02  0.49194398609E+02  0.51100000000E-03 0. -1.
         22    1    1    0    0    0  0.90603773200E+01  0.11505669470E+02  0.26360892187E+02  0.30155720917E+02  0.00000000000E+00 0.  1.
</event>
<event>
 5    1  0.8875601E-005  0.9118800E+02  0.7818608E-02  0.1130116E+00
         25   -1    0    0    0    0  0.00000000000E+00  0.00000000000E+00  0.99999998245E-14  0.12500000000E+03  0.12500000000E+03 0.  0.
        -11    1    3    3    0    0 -0.34807963060E+02  0.33596768453E+02 -0.39157577969E+02  0.62238678131E+02  0.51100000000E-03 0.  1.
         23    2    1    0    0    0 -0.14360168832E+02  0.14656608855E+02 -0.21743021724E+02  0.95103685416E+02  0.90282453190E+02 0.  0.
         11    1    3    3    0    0  0.20447794228E+02 -0.18940159598E+02  0.17414556245E+02  0.32865007285E+02  0.51100000000E-03 0. -1.
         22    1    1    0    0    0  0.14360168832E+02 -0.14656608855E+02  0.21743021724E+02  0.29896314584E+02  0.00000000000E+00 0.  1.
</event>
<event>
 5    1  0.8875601E-005  0.9118800E+02  0.7818608E-02  0.1130116E+00
         25   -1    0    0    0    0  0.00000000000E+00  0.00000000000E+00  0.99999998245E-14  0.12500000000E+03  0.12500000000E+03 0.  0.
        -11    1    3    3    0    0 -0.29657898889E+02  0.20807816995E+01 -0.10129672899E+02  0.31409089326E+02  0.51100000000E-03 0.  1.
         23    2    1    0    0    0  0.21793437377E+02  0.10532484858E+02  0.21695243092E+02  0.92495066178E+02  0.86595418726E+02 0.  0.
         11    1    3    3    0    0  0.51451336266E+02  0.84517031582E+01  0.31824915991E+02  0.61085976852E+02  0.51100000000E-03 0. -1.
         22    1    1    0    0    0 -0.21793437377E+02 -0.10532484858E+02 -0.21695243092E+02  0.32504933822E+02  0.00000000000E+00 0. -1.
</event>
<event>
 5    1  0.8875601E-005  0.9118800E+02  0.7818608E-02  0.1130116E+00
         25   -1    0    0    0    0  0.00000000000E+00  0.00000000000E+00  0.99999998245E-14  0.12500000000E+03  0.12500000000E+03 0.  0.
        -11    1    3    3    0    0 -0.21787327864E+02 -0.25349337943E+02 -0.35915396997E+01  0.33618086609E+02  0.51100000000E-03 0.  1.
         23    2    1    0    0    0  0.93947688762E+01  0.26803664829E+02  0.80318293951E+01  0.95483760166E+02  0.90807158537E+02 0.  0.
         11    1    3    3    0    0  0.31182096740E+02  0.52153002772E+02  0.11623369095E+02  0.61865673557E+02  0.51100000000E-03 0. -1.
         22    1    1    0    0    0 -0.93947688762E+01 -0.26803664829E+02 -0.80318293951E+01  0.29516239834E+02  0.00000000000E+00 0. -1.
</event>
<event>
 5    1  0.8875601E-005  0.9118800E+02  0.7818608E-02  0.1130116E+00
         25   -1    0    0    0    0  0.00000000000E+00  0.00000000000E+00  0.99999998245E-14  0.12500000000E+03  0.12500000000E+03 0.  0.
        -11    1    3    3    0    0  0.38972191573E+01 -0.32908903217E+02  0.40626490417E+01  0.33386963708E+02  0.51100000000E-03 0.  1.
         23    2    1    0    0    0 -0.11095523289E+02  0.25232840588E+02  0.13732111481E+02  0.94204257325E+02  0.89028446753E+02 0.  0.
         11    1    3    3    0    0 -0.14992742446E+02  0.58141743805E+02  0.96694624394E+01  0.60817293617E+02  0.51100000000E-03 0. -1.
         22    1    1    0    0    0  0.11095523289E+02 -0.25232840588E+02 -0.13732111481E+02  0.30795742675E+02  0.00000000000E+00 0. -1.
</event>
<event>
 5    1  0.8875601E-005  0.9118800E+02  0.7818608E-02  0.1130116E+00
         25   -1    0    0    0    0  0.00000000000E+00  0.00000000000E+00  0.99999998245E-14  0.12500000000E+03  0.12500000000E+03 0.  0.
        -11    1    3    3    0    0 -0.16756445179E+02 -0.20116550434E+02  0.30656739179E+02  0.40314882038E+02  0.51100000000E-03 0.  1.
         23    2    1    0    0    0 -0.20782704105E+02  0.23438112459E+02  0.94506904092E-01  0.93674693344E+02  0.88281783715E+02 0.  0.
         11    1    3    3    0    0 -0.40262589259E+01  0.43554662893E+02 -0.30562232275E+02  0.53359811305E+02  0.51100000000E-03 0. -1.
         22    1    1    0    0    0  0.20782704105E+02 -0.23438112459E+02 -0.94506904092E-01  0.31325306656E+02  0.00000000000E+00 0. -1.
</event>
<event>
 5    1  0.8875601E-005  0.9118800E+02  0.7818608E-02  0.1130116E+00
         25   -1    0    0    0    0  0.00000000000E+00  0.00000000000E+00  0.99999998245E-14  0.12500000000E+03  0.12500000000E+03 0.  0.
        -11    1    3    3    0    0  0.13352421277E+02 -0.31905635135E+02 -0.27571586857E+02  0.44231765841E+02  0.51100000000E-03 0. -1.
         23    2    1    0    0    0  0.24462845158E+02  0.13914518548E+02 -0.53553649592E+01  0.96351709414E+02  0.91994170215E+02 0.  0.
         11    1    3    3    0    0  0.11110423882E+02  0.45820153683E+02  0.22216221898E+02  0.52119943573E+02  0.51100000000E-03 0.  1.
         22    1    1    0    0    0 -0.24462845158E+02 -0.13914518548E+02  0.53553649592E+01  0.28648290586E+02  0.00000000000E+00 0.  1.
</event>
<event>
 5    1  0.8875601E-005  0.9118800E+02  0.7818608E-02  0.1130116E+00
         25   -1    0    0    0    0  0.00000000000E+00  0.00000000000E+00  0.99999998245E-14  0.12500000000E+03  0.12500000000E+03 0.  0.
        -11    1    3    3    0    0 -0.15667837108E+02 -0.33146143196E+01  0.57731177463E+02  0.59911239674E+02  0.51100000000E-03 0.  1.
         23    2    1    0    0    0 -0.91270431836E+01  0.10525674357E+02  0.35126905039E+02  0.87211216009E+02  0.78599007641E+02 0.  0.
         11    1    3    3    0    0  0.65407939240E+01  0.13840288677E+02 -0.22604272424E+02  0.27299976335E+02  0.51100000000E-03 0. -1.
         22    1    1    0    0    0  0.91270431836E+01 -0.10525674357E+02 -0.35126905039E+02  0.37788783991E+02  0.00000000000E+00 0.  1.
</event>
<event>
 5    1  0.8875601E-005  0.9118800E+02  0.7818608E-02  0.1130116E+00
         25   -1    0    0    0    0  0.00000000000E+00  0.00000000000E+00  0.99999998245E-14  0.12500000000E+03  0.12500000000E+03 0.  0.
        -11    1    3    3    0    0 -0.41697756530E+02 -0.32534797212E+02  0.25868380127E+02  0.58876047931E+02  0.51100000000E-03 0. -1.
         23    2    1    0    0    0 -0.27797962491E+02 -0.42783996161E+01  0.56072921866E+01  0.96321207355E+02  0.91952715233E+02 0.  0.
         11    1    3    3    0    0  0.13899794040E+02  0.28256397596E+02 -0.20261087941E+02  0.37445159424E+02  0.51100000000E-03 0.  1.
         22    1    1    0    0    0  0.27797962491E+02  0.42783996161E+01 -0.56072921866E+01  0.28678792645E+02  0.00000000000E+00 0. -1.
</event>
<event>
 5    1  0.8875601E-005  0.9118800E+02  0.7818608E-02  0.1130116E+00
         25   -1    0    0    0    0  0.00000000000E+00  0.00000000000E+00  0.99999998245E-14  0.12500000000E+03  0.12500000000E+03 0.  0.
        -11    1    3    3    0    0 -0.86085183883E+01  0.28394703939E+02 -0.20295199049E+02  0.35948030618E+02  0.51100000000E-03 0.  1.
         23    2    1    0    0    0 -0.76055985566E+01 -0.84883330388E+01  0.26859576703E+02  0.95822375219E+02  0.91272086668E+02 0.  0.
         11    1    3    3    0    0  0.10029198317E+01 -0.36883036977E+02  0.47154775753E+02  0.59874344601E+02  0.51100000000E-03 0. -1.
         22    1    1    0    0    0  0.76055985566E+01  0.84883330388E+01 -0.26859576703E+02  0.29177624781E+02  0.00000000000E+00 0. -1.
</event>
<event>
 5    1  0.8875601E-005  0.9118800E+02  0.7818608E-02  0.1130116E+00
         25   -1    0    0    0    0  0.00000000000E+00  0.00000000000E+00  0.99999998245E-14  0.12500000000E+03  0.12500000000E+03 0.  0.
        -11    1    3    3    0    0  0.30241403221E+02 -0.21133856916E+02 -0.33669070069E+01  0.37047515976E+02  0.51100000000E-03 0. -1.
         23    2    1    0    0    0  0.44818330146E+01  0.27902293217E+02  0.11642894478E+02  0.94435612459E+02  0.89352689466E+02 0.  0.
         11    1    3    3    0    0 -0.25759570207E+02  0.49036150133E+02  0.15009801485E+02  0.57388096483E+02  0.51100000000E-03 0.  1.
         22    1    1    0    0    0 -0.44818330146E+01 -0.27902293217E+02 -0.11642894478E+02  0.30564387541E+02  0.00000000000E+00 0. -1.
</event>
<event>
 5    1  0.8875601E-005  0.9118800E+02  0.7818608E-02  0.1130116E+00
         25   -1    0    0    0    0  0.00000000000E+00  0.00000000000E+00  0.99999998245E-14  0.12500000000E+03  0.12500000000E+03 0.  0.
        -11    1    3    3    0    0 -0.34436030943E+02  0.71986343990E+01  0.14143422078E+02  0.37916974466E+02  0.51100000000E-03 0.  1.
         23    2    1    0    0    0  0.34491436262E+01 -0.22782828871E+02 -0.17840900529E+02  0.95858078052E+02  0.91320969734E+02 0.  0.
         11    1    3    3    0    0  0.37885174569E+02 -0.29981463270E+02 -0.31984322607E+02  0.57941103586E+02  0.51100000000E-03 0. -1.
         22    1    1    0    0    0 -0.34491436262E+01  0.22782828871E+02  0.17840900529E+02  0.29141921948E+02  0.00000000000E+00 0. -1.
</event>
<event>
 5    1  0.8875601E-005  0.9118800E+02  0.7818608E-02  0.1130116E+00
         25   -1    0    0    0    0  0.00000000000E+00  0.00000000000E+00  0.99999998245E-14  0.12500000000E+03  0.12500000000E+03 0.  0.
        -11    1    3    3    0    0 -0.33584615088E+01 -0.37603453901E+02 -0.35964063424E+02  0.52141277959E+02  0.51100000000E-03 0.  1.
         23    2    1    0    0    0 -0.21752437430E+02 -0.15938121225E+01 -0.19300615814E+02  0.95875739631E+02  0.91345141676E+02 0.  0.
         11    1    3    3    0    0 -0.18393975922E+02  0.36009641778E+02  0.16663447611E+02  0.43734461672E+02  0.51100000000E-03 0. -1.
         22    1    1    0    0    0  0.21752437430E+02  0.15938121225E+01  0.19300615814E+02  0.29124260369E+02  0.00000000000E+00 0.  1.
</event>
<event>
 5    1  0.8875601E-005  0.9118800E+02  0.7818608E-02  0.1130116E+00
         25   -1    0    0    0    0  0.00000000000E+00  0.00000000000E+00  0.99999998245E-14  0.12500000000E+03  0.12500000000E+03 0.  0.
        -11    1    3    3    0    0  0.32649361865E+02 -0.21774312351E+02  0.14481700529E+02  0.41830863713E+02  0.51100000000E-03 0. -1.
         23    2    1    0    0    0 -0.20120696149E+02 -0.11287069658E+02  0.17986150626E+02  0.95746932309E+02  0.91168706678E+02 0.  0.
         11    1    3    3    0    0 -0.52770058014E+02  0.10487242693E+02  0.35044500969E+01  0.53916068596E+02  0.51100000000E-03 0.  1.
         22    1    1    0    0    0  0.20120696149E+02  0.11287069658E+02 -0.17986150626E+02  0.29253067691E+02  0.00000000000E+00 0.  1.
</event>
<event>
 5    1  0.8875601E-005  0.9118800E+02  0.7818608E-02  0.1130116E+00
         25   -1    0    0    0    0  0.00000000000E+00  0.00000000000E+00  0.99999998245E-14  0.12500000000E+03  0.12500000000E+03 0.  0.
        -11    1    3    3    0    0  0.55402555341E+02 -0.18992998722E+01  0.28789090106E+02  0.62464887639E+02  0.51100000000E-03 0. -1.
         23    2    1    0    0    0  0.25055235358E+02 -0.36822764280E+00  0.14581256681E+02  0.96008389889E+02  0.91526485086E+02 0.  0.
         11    1    3    3    0    0 -0.30347319983E+02  0.15310722294E+01 -0.14207833426E+02  0.33543502250E+02  0.51100000000E-03 0.  1.
         22    1    1    0    0    0 -0.25055235358E+02  0.36822764280E+00 -0.14581256681E+02  0.28991610111E+02  0.00000000000E+00 0. -1.
</event>
<event>
 5    1  0.8875601E-005  0.9118800E+02  0.7818608E-02  0.1130116E+00
         25   -1    0    0    0    0  0.00000000000E+00  0.00000000000E+00  0.99999998245E-14  0.12500000000E+03  0.12500000000E+03 0.  0.
        -11    1    3    3    0    0  0.19214256118E+02 -0.46595895637E+02  0.24536353760E+02  0.56057093971E+02  0.51100000000E-03 0.  1.
         23    2    1    0    0    0  0.19885716307E+02 -0.21571446830E+02 -0.54919877507E+01  0.95151533359E+02  0.90348676469E+02 0.  0.
         11    1    3    3    0    0  0.67146018871E+00  0.25024448807E+02 -0.30028341511E+02  0.39094439388E+02  0.51100000000E-03 0. -1.
         22    1    1    0    0    0 -0.19885716307E+02  0.21571446830E+02  0.54919877507E+01  0.29848466641E+02  0.00000000000E+00 0.  1.
</event>
<event>
 5    1  0.8875601E-005  0.9118800E+02  0.7818608E-02  0.1130116E+00
         25   -1    0    0    0    0  0.00000000000E+00  0.00000000000E+00  0.99999998245E-14  0.12500000000E+03  0.12500000000E+03 0.  0.
        -11    1    3    3    0    0 -0.25739768413E+01 -0.22087570407E+00  0.45800793677E+02  0.45873596377E+02  0.51100000000E-03 0.  1.
         23    2    1    0    0    0 -0.14912788888E+01 -0.30446509539E+02  0.96111042609E+01  0.93037722532E+02  0.87375228944E+02 0.  0.
         11    1    3    3    0    0  0.10826979525E+01 -0.30225633835E+02 -0.36189689416E+02  0.47164126154E+02  0.51100000000E-03 0. -1.
         22    1    1    0    0    0  0.14912788888E+01  0.30446509539E+02 -0.96111042609E+01  0.31962277468E+02  0.00000000000E+00 0. -1.
</event>
<event>
 5    1  0.8875601E-005  0.9118800E+02  0.7818608E-02  0.1130116E+00
         25   -1    0    0    0    0  0.00000000000E+00  0.00000000000E+00  0.99999998245E-14  0.12500000000E+03  0.12500000000E+03 0.  0.
        -11    1    3    3    0    0  0.60935505179E+02  0.32472849844E+01 -0.38045039385E-01  0.61021980457E+02  0.51100000000E-03 0. -1.
         23    2    1    0    0    0  0.27535175969E+02  0.85186818815E+01  0.64788635813E+01  0.95458003961E+02  0.90771697078E+02 0.  0.
         11    1    3    3    0    0 -0.33400329210E+02  0.52713968971E+01  0.65169086207E+01  0.34436023505E+02  0.51100000000E-03 0.  1.
         22    1    1    0    0    0 -0.27535175969E+02 -0.85186818815E+01 -0.64788635813E+01  0.29541996039E+02  0.00000000000E+00 0. -1.
</event>
<event>
 5    1  0.8875601E-005  0.9118800E+02  0.7818608E-02  0.1130116E+00
         25   -1    0    0    0    0  0.00000000000E+00  0.00000000000E+00  0.99999998245E-14  0.12500000000E+03  0.12500000000E+03 0.  0.
        -11    1    3    3    0    0  0.45377598102E+02  0.20064388623E+02  0.11048617540E+02  0.50830876936E+02  0.51100000000E-03 0.  1.
         23    2    1    0    0    0  0.15109887904E+02 -0.80528615756E+01  0.25229401213E+02  0.94509346062E+02  0.89455779665E+02 0.  0.
         11    1    3    3    0    0 -0.30267710198E+02 -0.28117250198E+02  0.14180783673E+02  0.43678469126E+02  0.51100000000E-03 0. -1.
         22    1    1    0    0    0 -0.15109887904E+02  0.80528615756E+01 -0.25229401213E+02  0.30490653938E+02  0.00000000000E+00 0. -1.
</event>
<event>
 5    1  0.8875601E-005  0.9118800E+02  0.7818608E-02  0.1130116E+00
         25   -1    0    0    0    0  0.00000000000E+00  0.00000000000E+00  0.99999998245E-14  0.12500000000E+03  0.12500000000E+03 0.  0.
        -11    1    3    3    0    0 -0.12307068941E+02  0.34803513247E+02 -0.16381993511E+02  0.40387104277E+02  0.51100000000E-03 0. -1.
         23    2    1    0    0    0 -0.22611275579E+02 -0.83755585838E+01  0.16630660500E+02  0.95708386292E+02  0.91115841505E+02 0.  0.
         11    1    3    3    0    0 -0.10304206639E+02 -0.43179071831E+02  0.33012654012E+02  0.55321282015E+02  0.51100000000E-03 0.  1.
         22    1    1    0    0    0  0.22611275579E+02  0.83755585838E+01 -0.16630660500E+02  0.29291613708E+02  0.00000000000E+00 0.  1.
</event>
<event>
 5    1  0.8875601E-005  0.9118800E+02  0.7818608E-02  0.1130116E+00
         25   -1    0    0    0    0  0.00000000000E+00  0.00000000000E+00  0.99999998245E-14  0.12500000000E+03  0.12500000000E+03 0.  0.
        -11    1    3    3    0    0  0.27424846165E+02  0.84967328275E+01 -0.33215237477E+02  0.43904084740E+02  0.51100000000E-03 0. -1.
         23    2    1    0    0    0  0.28079947095E+02  0.85631377597E+01  0.14937674554E+02  0.92061498543E+02  0.85967288172E+02 0.  0.
         11    1    3    3    0    0  0.65510092965E+00  0.66404932227E-01  0.48152912031E+02  0.48157413803E+02  0.51100000000E-03 0.  1.
         22    1    1    0    0    0 -0.28079947095E+02 -0.85631377597E+01 -0.14937674554E+02  0.32938501457E+02  0.00000000000E+00 0.  1.
</event>
<event>
 5    1  0.8875601E-005  0.9118800E+02  0.7818608E-02  0.1130116E+00
         25   -1    0    0    0    0  0.00000000000E+00  0.00000000000E+00  0.99999998245E-14  0.12500000000E+03  0.12500000000E+03 0.  0.
        -11    1    3    3    0    0  0.32747960739E+02  0.38012329916E+02  0.36774776556E+02  0.62207317489E+02  0.51100000000E-03 0.  1.
         23    2    1    0    0    0  0.91886451887E+01  0.16018042198E+02  0.10753460381E+02  0.10363072799E+03  0.10140356008E+03 0.  0.
         11    1    3    3    0    0 -0.23559315550E+02 -0.21994287718E+02 -0.26021316175E+02  0.41423410496E+02  0.51100000000E-03 0. -1.
         22    1    1    0    0    0 -0.91886451887E+01 -0.16018042198E+02 -0.10753460381E+02  0.21369272014E+02  0.00000000000E+00 0.  1.
</event>
<event>
 5    1  0.8875601E-005  0.9118800E+02  0.7818608E-02  0.1130116E+00
         25   -1    0    0    0    0  0.00000000000E+00  0.00000000000E+00  0.99999998245E-14  0.12500000000E+03  0.12500000000E+03 0.  0.
        -11    1    3    3    0    0 -0.34248267553E+02  0.22595090942E+02 -0.23774937847E+02  0.47420772189E+02  0.51100000000E-03 0. -1.
         23    2    1    0    0    0  0.13992974526E+02  0.12815231388E+02 -0.20964891731E+02  0.96723504869E+02  0.92497979530E+02 0.  0.
         11    1    3    3    0    0  0.48241242080E+02 -0.97798595542E+01  0.28100461156E+01  0.49302732680E+02  0.51100000000E-03 0.  1.
         22    1    1    0    0    0 -0.13992974526E+02 -0.12815231388E+02  0.20964891731E+02  0.28276495131E+02  0.00000000000E+00 0.  1.
</event>
<event>
 5    1  0.8875601E-005  0.9118800E+02  0.7818608E-02  0.1130116E+00
         25   -1    0    0    0    0  0.00000000000E+00  0.00000000000E+00  0.99999998245E-14  0.12500000000E+03  0.12500000000E+03 0.  0.
        -11    1    3    3    0    0  0.32721595575E+02 -0.26766221983E+01  0.45999271252E+01  0.33151567884E+02  0.51100000000E-03 0. -1.
         23    2    1    0    0    0 -0.28875991600E+02 -0.38626593983E+00  0.84462520451E+01  0.94911609118E+02  0.90016122331E+02 0.  0.
         11    1    3    3    0    0 -0.61597587175E+02  0.22903562584E+01  0.38463249199E+01  0.61760041234E+02  0.51100000000E-03 0.  1.
         22    1    1    0    0    0  0.28875991600E+02  0.38626593983E+00 -0.84462520451E+01  0.30088390882E+02  0.00000000000E+00 0.  1.
</event>
<event>
 5    1  0.8875601E-005  0.9118800E+02  0.7818608E-02  0.1130116E+00
         25   -1    0    0    0    0  0.00000000000E+00  0.00000000000E+00  0.99999998245E-14  0.12500000000E+03  0.12500000000E+03 0.  0.
        -11    1    3    3    0    0  0.38028991176E+02  0.20546827665E+01  0.86665338256E+01  0.39058093910E+02  0.51100000000E-03 0. -1.
         23    2    1    0    0    0 -0.14312229550E+02  0.73548947550E+01  0.25977964620E+02  0.94442038069E+02  0.89361678125E+02 0.  0.
         11    1    3    3    0    0 -0.52341220726E+02  0.53002119886E+01  0.17311430795E+02  0.55383944159E+02  0.51100000000E-03 0.  1.
         22    1    1    0    0    0  0.14312229550E+02 -0.73548947550E+01 -0.25977964620E+02  0.30557961931E+02  0.00000000000E+00 0.  1.
</event>
<event>
 5    1  0.8875601E-005  0.9118800E+02  0.7818608E-02  0.1130116E+00
         25   -1    0    0    0    0  0.00000000000E+00  0.00000000000E+00  0.99999998245E-14  0.12500000000E+03  0.12500000000E+03 0.  0.
        -11    1    3    3    0    0  0.53622134670E+02 -0.20513453983E+02  0.15370213241E+02  0.59433816773E+02  0.51100000000E-03 0. -1.
         23    2    1    0    0    0  0.17053477122E+02 -0.17819544136E+02  0.15056043349E+02  0.96102912318E+02  0.91655485813E+02 0.  0.
         11    1    3    3    0    0 -0.36568657548E+02  0.26939098469E+01 -0.31416989144E+00  0.36669095545E+02  0.51100000000E-03 0.  1.
         22    1    1    0    0    0 -0.17053477122E+02  0.17819544136E+02 -0.15056043349E+02  0.28897087682E+02  0.00000000000E+00 0. -1.
</event>
<event>
 5    1  0.8875601E-005  0.9118800E+02  0.7818608E-02  0.1130116E+00
         25   -1    0    0    0    0  0.00000000000E+00  0.00000000000E+00  0.99999998245E-14  0.12500000000E+03  0.12500000000E+03 0.  0.
        -11    1    3    3    0    0  0.20792606471E+02 -0.58700206616E+02 -0.19574202289E+01  0.62304720807E+02  0.51100000000E-03 0.  1.
         23    2    1    0    0    0  0.12585736832E+02 -0.25805493170E+02  0.35804700962E+00  0.96286720024E+02  0.91905821393E+02 0.  0.
         11    1    3    3    0    0 -0.82068696392E+01  0.32894713446E+02  0.23154672385E+01  0.33981999217E+02  0.51100000000E-03 0. -1.
         22    1    1    0    0    0 -0.12585736832E+02  0.25805493170E+02 -0.35804700962E+00  0.28713279976E+02  0.00000000000E+00 0.  1.
</event>
<event>
 5    1  0.8875601E-005  0.9118800E+02  0.7818608E-02  0.1130116E+00
         25   -1    0    0    0    0  0.00000000000E+00  0.00000000000E+00  0.99999998245E-14  0.12500000000E+03  0.12500000000E+03 0.  0.
        -11    1    3    3    0    0  0.38075443419E+02 -0.33389972558E+02 -0.25198508589E+02  0.56564958184E+02  0.51100000000E-03 0.  1.
         23    2    1    0    0    0  0.20111196100E+02  0.21641510178E+00  0.39024631221E+01  0.10451253402E+03  0.10248479645E+03 0.  0.
         11    1    3    3    0    0 -0.17964247319E+02  0.33606387660E+02  0.29100971711E+02  0.47947575831E+02  0.51100000000E-03 0. -1.
         22    1    1    0    0    0 -0.20111196100E+02 -0.21641510178E+00 -0.39024631221E+01  0.20487465985E+02  0.00000000000E+00 0. -1.
</event>
<event>
 5    1  0.8875601E-005  0.9118800E+02  0.7818608E-02  0.1130116E+00
         25   -1    0    0    0    0  0.00000000000E+00  0.00000000000E+00  0.99999998245E-14  0.12500000000E+03  0.12500000000E+03 0.  0.
        -11    1    3    3    0    0 -0.53715046344E+02  0.25272444943E+02  0.34962526355E+00  0.59364340435E+02  0.51100000000E-03 0.  1.
         23    2    1    0    0    0 -0.22383553660E+02  0.14351894989E+02 -0.13332987617E+02  0.95254934476E+02  0.90491621817E+02 0.  0.
         11    1    3    3    0    0  0.31331492685E+02 -0.10920549954E+02 -0.13682612881E+02  0.35890594041E+02  0.51100000000E-03 0. -1.
         22    1    1    0    0    0  0.22383553660E+02 -0.14351894989E+02  0.13332987617E+02  0.29745065524E+02  0.00000000000E+00 0.  1.
</event>
<event>
 5    1  0.8875601E-005  0.9118800E+02  0.7818608E-02  0.1130116E+00
         25   -1    0    0    0    0  0.00000000000E+00  0.00000000000E+00  0.99999998245E-14  0.12500000000E+03  0.12500000000E+03 0.  0.
        -11    1    3    3    0    0 -0.77346325138E+01 -0.39130340791E+02 -0.24620262430E+02  0.46873931272E+02  0.51100000000E-03 0. -1.
         23    2    1    0    0    0  0.27572454726E+02 -0.17769053180E+02 -0.12674769121E+02  0.89834259814E+02  0.82665379413E+02 0.  0.
         11    1    3    3    0    0  0.35307087240E+02  0.21361287611E+02  0.11945493309E+02  0.42960328542E+02  0.51100000000E-03 0.  1.
         22    1    1    0    0    0 -0.27572454726E+02  0.17769053180E+02  0.12674769121E+02  0.35165740186E+02  0.00000000000E+00 0.  1.
</event>
<event>
 5    1  0.8875601E-005  0.9118800E+02  0.7818608E-02  0.1130116E+00
         25   -1    0    0    0    0  0.00000000000E+00  0.00000000000E+00  0.99999998245E-14  0.12500000000E+03  0.12500000000E+03 0.  0.
        -11    1    3    3    0    0  0.52957961545E+02  0.62777207117E+01  0.17503331731E+02  0.56127730137E+02  0.51100000000E-03 0. -1.
         23    2    1    0    0    0  0.13779561764E+02  0.10283260464E+02  0.23413676206E+02  0.95951385547E+02  0.91448599698E+02 0.  0.
         11    1    3    3    0    0 -0.39178399781E+02  0.40055397520E+01  0.59103444756E+01  0.39823655410E+02  0.51100000000E-03 0.  1.
         22    1    1    0    0    0 -0.13779561764E+02 -0.10283260464E+02 -0.23413676206E+02  0.29048614453E+02  0.00000000000E+00 0. -1.
</event>
<event>
 5    1  0.8875601E-005  0.9118800E+02  0.7818608E-02  0.1130116E+00
         25   -1    0    0    0    0  0.00000000000E+00  0.00000000000E+00  0.99999998245E-14  0.12500000000E+03  0.12500000000E+03 0.  0.
        -11    1    3    3    0    0  0.57606743563E+01  0.20823008559E+02  0.56769519703E+02  0.60741760117E+02  0.51100000000E-03 0.  1.
         23    2    1    0    0    0  0.13108432857E+02  0.80921545399E+01  0.28739320612E+02  0.92392293452E+02  0.86446939582E+02 0.  0.
         11    1    3    3    0    0  0.73477585008E+01 -0.12730854019E+02 -0.28030199091E+02  0.31650533335E+02  0.51100000000E-03 0. -1.
         22    1    1    0    0    0 -0.13108432857E+02 -0.80921545399E+01 -0.28739320612E+02  0.32607706548E+02  0.00000000000E+00 0.  1.
</event>
<event>
 5    1  0.8875601E-005  0.9118800E+02  0.7818608E-02  0.1130116E+00
         25   -1    0    0    0    0  0.00000000000E+00  0.00000000000E+00  0.99999998245E-14  0.12500000000E+03  0.12500000000E+03 0.  0.
        -11    1    3    3    0    0  0.92579863510E+01 -0.29286571560E+02  0.44544660165E+02  0.54107673527E+02  0.51100000000E-03 0. -1.
         23    2    1    0    0    0  0.12008208290E+02 -0.25865612201E+02  0.25080942127E+01  0.96372783973E+02  0.92022801486E+02 0.  0.
         11    1    3    3    0    0  0.27502219393E+01  0.34209593593E+01 -0.42036565953E+02  0.42265110446E+02  0.51100000000E-03 0.  1.
         22    1    1    0    0    0 -0.12008208290E+02  0.25865612201E+02 -0.25080942127E+01  0.28627216027E+02  0.00000000000E+00 0.  1.
</event>
<event>
 5    1  0.8875601E-005  0.9118800E+02  0.7818608E-02  0.1130116E+00
         25   -1    0    0    0    0  0.00000000000E+00  0.00000000000E+00  0.99999998245E-14  0.12500000000E+03  0.12500000000E+03 0.  0.
        -11    1    3    3    0    0  0.33987158231E+02  0.21517091773E+02  0.43720157576E+02  0.59410136691E+02  0.51100000000E-03 0. -1.
         23    2    1    0    0    0  0.12429849604E+02  0.23081772319E+02  0.30646023025E+02  0.84670753766E+02  0.74449233988E+02 0.  0.
         11    1    3    3    0    0 -0.21557308627E+02  0.15646805464E+01 -0.13074134551E+02  0.25260617074E+02  0.51100000000E-03 0.  1.
         22    1    1    0    0    0 -0.12429849604E+02 -0.23081772319E+02 -0.30646023025E+02  0.40329246234E+02  0.00000000000E+00 0. -1.
</event>
<event>
 5    1  0.8875601E-005  0.9118800E+02  0.7818608E-02  0.1130116E+00
         25   -1    0    0    0    0  0.00000000000E+00  0.00000000000E+00  0.99999998245E-14  0.12500000000E+03  0.12500000000E+03 0.  0.
        -11    1    3    3    0    0 -0.29580256221E+02  0.22420904673E+02  0.46997869442E+02  0.59887296289E+02  0.51100000000E-03 0. -1.
         23    2    1    0    0    0 -0.14470978591E+02 -0.22668099529E+01  0.24117790509E+02  0.96782709773E+02  0.92577953332E+02 0.  0.
         11    1    3    3    0    0  0.15109277630E+02 -0.24687714625E+02 -0.22880078933E+02  0.36895413484E+02  0.51100000000E-03 0.  1.
         22    1    1    0    0    0  0.14470978591E+02  0.22668099529E+01 -0.24117790509E+02  0.28217290227E+02  0.00000000000E+00 0. -1.
</event>
<event>
 5    1  0.8875601E-005  0.9118800E+02  0.7818608E-02  0.1130116E+00
         25   -1    0    0    0    0  0.00000000000E+00  0.00000000000E+00  0.99999998245E-14  0.12500000000E+03  0.12500000000E+03 0.  0.
        -11    1    3    3    0    0 -0.36086152357E+02  0.23970676389E+02  0.44166455049E+02  0.61866626466E+02  0.51100000000E-03 0. -1.
         23    2    1    0    0    0 -0.16751149674E+02  0.16987305690E+02  0.18157509029E+02  0.95018927569E+02  0.90165025882E+02 0.  0.
         11    1    3    3    0    0  0.19335002683E+02 -0.69833706990E+01 -0.26008946020E+02  0.33152301103E+02  0.51100000000E-03 0.  1.
         22    1    1    0    0    0  0.16751149674E+02 -0.16987305690E+02 -0.18157509029E+02  0.29981072431E+02  0.00000000000E+00 0. -1.
</event>
<event>
 5    1  0.8875601E-005  0.9118800E+02  0.7818608E-02  0.1130116E+00
         25   -1    0    0    0    0  0.00000000000E+00  0.00000000000E+00  0.99999998245E-14  0.12500000000E+03  0.12500000000E+03 0.  0.
        -11    1    3    3    0    0 -0.35497266597E+02  0.20972278204E+02 -0.31542762914E+01  0.41350233955E+02  0.51100000000E-03 0. -1.
         23    2    1    0    0    0  0.16440196960E+02  0.21754751638E+02  0.11628104887E+02  0.95356077888E+02  0.90631227907E+02 0.  0.
         11    1    3    3    0    0  0.51937463557E+02  0.78247343432E+00  0.14782381178E+02  0.54005843933E+02  0.51100000000E-03 0.  1.
         22    1    1    0    0    0 -0.16440196960E+02 -0.21754751638E+02 -0.11628104887E+02  0.29643922112E+02  0.00000000000E+00 0.  1.
</event>
<event>
 5    1  0.8875601E-005  0.9118800E+02  0.7818608E-02  0.1130116E+00
         25   -1    0    0    0    0  0.00000000000E+00  0.00000000000E+00  0.99999998245E-14  0.12500000000E+03  0.12500000000E+03 0.  0.
        -11    1    3    3    0    0  0.18077902480E+02 -0.23613325721E+02  0.58038811645E+01  0.30299913309E+02  0.51100000000E-03 0.  1.
         23    2    1    0    0    0 -0.80136957632E+01 -0.61706476549E+01  0.44066464725E+02  0.79787728153E+02  0.65741402770E+02 0.  0.
         11    1    3    3    0    0 -0.26091598244E+02  0.17442678066E+02  0.38262583560E+02  0.49487814844E+02  0.51100000000E-03 0. -1.
         22    1    1    0    0    0  0.80136957632E+01  0.61706476549E+01 -0.44066464725E+02  0.45212271847E+02  0.00000000000E+00 0. -1.
</event>
<event>
 5    1  0.8875601E-005  0.9118800E+02  0.7818608E-02  0.1130116E+00
         25   -1    0    0    0    0  0.00000000000E+00  0.00000000000E+00  0.99999998245E-14  0.12500000000E+03  0.12500000000E+03 0.  0.
        -11    1    3    3    0    0  0.28572841393E+02 -0.33967361970E+02 -0.22852412367E+02  0.49924159439E+02  0.51100000000E-03 0.  1.
         23    2    1    0    0    0 -0.71471362636E+01 -0.27643039049E+02  0.54476121493E+01  0.95932911347E+02  0.91423344047E+02 0.  0.
         11    1    3    3    0    0 -0.35719977656E+02  0.63243229210E+01  0.28300024516E+02  0.46008751907E+02  0.51100000000E-03 0. -1.
         22    1    1    0    0    0  0.71471362636E+01  0.27643039049E+02 -0.54476121493E+01  0.29067088653E+02  0.00000000000E+00 0.  1.
</event>
<event>
 5    1  0.8875601E-005  0.9118800E+02  0.7818608E-02  0.1130116E+00
         25   -1    0    0    0    0  0.00000000000E+00  0.00000000000E+00  0.99999998245E-14  0.12500000000E+03  0.12500000000E+03 0.  0.
        -11    1    3    3    0    0  0.44806381896E+02 -0.41513582468E+01  0.19979781402E+02  0.49234513291E+02  0.51100000000E-03 0.  1.
         23    2    1    0    0    0  0.15028826221E+01 -0.20511788408E+02  0.21094142137E+02  0.95538924793E+02  0.90883063319E+02 0.  0.
         11    1    3    3    0    0 -0.43303499274E+02 -0.16360430161E+02  0.11143607346E+01  0.46304411502E+02  0.51100000000E-03 0. -1.
         22    1    1    0    0    0 -0.15028826221E+01  0.20511788408E+02 -0.21094142137E+02  0.29461075207E+02  0.00000000000E+00 0. -1.
</event>
<event>
 5    1  0.8875601E-005  0.9118800E+02  0.7818608E-02  0.1130116E+00
         25   -1    0    0    0    0  0.00000000000E+00  0.00000000000E+00  0.99999998245E-14  0.12500000000E+03  0.12500000000E+03 0.  0.
        -11    1    3    3    0    0  0.60078411027E+01  0.46198598393E+02  0.60710807044E-01  0.46587641432E+02  0.51100000000E-03 0. -1.
         23    2    1    0    0    0  0.13270715108E+02  0.67508189776E+00  0.23272721108E+02  0.98200985786E+02  0.94473522463E+02 0.  0.
         11    1    3    3    0    0  0.72628740054E+01 -0.45523516495E+02  0.23212010301E+02  0.51613344354E+02  0.51100000000E-03 0.  1.
         22    1    1    0    0    0 -0.13270715108E+02 -0.67508189776E+00 -0.23272721108E+02  0.26799014214E+02  0.00000000000E+00 0. -1.
</event>
<event>
 5    1  0.8875601E-005  0.9118800E+02  0.7818608E-02  0.1130116E+00
         25   -1    0    0    0    0  0.00000000000E+00  0.00000000000E+00  0.99999998245E-14  0.12500000000E+03  0.12500000000E+03 0.  0.
        -11    1    3    3    0    0  0.35773697112E+02 -0.26311661882E+02  0.32255260116E+01  0.44524880397E+02  0.51100000000E-03 0. -1.
         23    2    1    0    0    0 -0.93115196601E+01 -0.97382117921E+01  0.24483878161E+02  0.97053668272E+02  0.92943085100E+02 0.  0.
         11    1    3    3    0    0 -0.45085216772E+02  0.16573450090E+02  0.21258352149E+02  0.52528787875E+02  0.51100000000E-03 0.  1.
         22    1    1    0    0    0  0.93115196601E+01  0.97382117921E+01 -0.24483878161E+02  0.27946331728E+02  0.00000000000E+00 0.  1.
</event>
<event>
 5    1  0.8875601E-005  0.9118800E+02  0.7818608E-02  0.1130116E+00
         25   -1    0    0    0    0  0.00000000000E+00  0.00000000000E+00  0.99999998245E-14  0.12500000000E+03  0.12500000000E+03 0.  0.
        -11    1    3    3    0    0 -0.70707516579E+01 -0.38989208183E+02  0.10240464458E+02  0.40927020370E+02  0.51100000000E-03 0.  1.
         23    2    1    0    0    0  0.27682639203E+02  0.40686503092E+01  0.11980353512E+01  0.96994327052E+02  0.92863242260E+02 0.  0.
         11    1    3    3    0    0  0.34753390860E+02  0.43057858492E+02 -0.90424291069E+01  0.56067306683E+02  0.51100000000E-03 0. -1.
         22    1    1    0    0    0 -0.27682639203E+02 -0.40686503092E+01 -0.11980353512E+01  0.28005672948E+02  0.00000000000E+00 0. -1.
</event>
<event>
 5    1  0.8875601E-005  0.9118800E+02  0.7818608E-02  0.1130116E+00
         25   -1    0    0    0    0  0.00000000000E+00  0.00000000000E+00  0.99999998245E-14  0.12500000000E+03  0.12500000000E+03 0.  0.
        -11    1    3    3    0    0 -0.48369287185E+02 -0.16438842290E+02 -0.35229935433E+02  0.62056198961E+02  0.51100000000E-03 0. -1.
         23    2    1    0    0    0 -0.25039599579E+02 -0.93404504089E+01 -0.12111385690E+02  0.95658711272E+02  0.91047667833E+02 0.  0.
         11    1    3    3    0    0  0.23329687606E+02  0.70983918811E+01  0.23118549743E+02  0.33602512310E+02  0.51100000000E-03 0.  1.
         22    1    1    0    0    0  0.25039599579E+02  0.93404504089E+01  0.12111385690E+02  0.29341288728E+02  0.00000000000E+00 0. -1.
</event>
<event>
 5    1  0.8875601E-005  0.9118800E+02  0.7818608E-02  0.1130116E+00
         25   -1    0    0    0    0  0.00000000000E+00  0.00000000000E+00  0.99999998245E-14  0.12500000000E+03  0.12500000000E+03 0.  0.
        -11    1    3    3    0    0 -0.34799357506E+02 -0.26626937090E+02  0.80873278300E+01  0.44557759518E+02  0.51100000000E-03 0.  1.
         23    2    1    0    0    0  0.96766723123E+01 -0.13016262435E+02 -0.20275520551E+02  0.99035450930E+02  0.95571244276E+02 0.  0.
         11    1    3    3    0    0  0.44476029818E+02  0.13610674655E+02 -0.28362848381E+02  0.54477691411E+02  0.51100000000E-03 0. -1.
         22    1    1    0    0    0 -0.96766723123E+01  0.13016262435E+02  0.20275520551E+02  0.25964549070E+02  0.00000000000E+00 0. -1.
</event>
<event>
 5    1  0.8875601E-005  0.9118800E+02  0.7818608E-02  0.1130116E+00
         25   -1    0    0    0    0  0.00000000000E+00  0.00000000000E+00  0.99999998245E-14  0.12500000000E+03  0.12500000000E+03 0.  0.
        -11    1    3    3    0    0 -0.54712965812E+02  0.13056530040E+01  0.11553198038E+02  0.55934691765E+02  0.51100000000E-03 0.  1.
         23    2    1    0    0    0 -0.16031812739E+02 -0.16018241509E+02  0.13953621528E+02  0.98385969218E+02  0.94717961889E+02 0.  0.
         11    1    3    3    0    0  0.38681153073E+02 -0.17323894513E+02  0.24004234896E+01  0.42451277453E+02  0.51100000000E-03 0. -1.
         22    1    1    0    0    0  0.16031812739E+02  0.16018241509E+02 -0.13953621528E+02  0.26614030782E+02  0.00000000000E+00 0. -1.
</event>
<event>
 5    1  0.8875601E-005  0.9118800E+02  0.7818608E-02  0.1130116E+00
         25   -1    0    0    0    0  0.00000000000E+00  0.00000000000E+00  0.99999998245E-14  0.12500000000E+03  0.12500000000E+03 0.  0.
        -11    1    3    3    0    0 -0.38229852094E+02  0.98716569552E+01  0.40544677506E+02  0.56593657564E+02  0.51100000000E-03 0. -1.
         23    2    1    0    0    0 -0.12729902800E+01  0.44794003059E+01  0.28917622220E+02  0.95709824066E+02  0.91117813937E+02 0.  0.
         11    1    3    3    0    0  0.36956861814E+02 -0.53922566493E+01 -0.11627055286E+02  0.39116166502E+02  0.51100000000E-03 0.  1.
         22    1    1    0    0    0  0.12729902800E+01 -0.44794003059E+01 -0.28917622220E+02  0.29290175934E+02  0.00000000000E+00 0. -1.
</event>
<event>
 5    1  0.8875601E-005  0.9118800E+02  0.7818608E-02  0.1130116E+00
         25   -1    0    0    0    0  0.00000000000E+00  0.00000000000E+00  0.99999998245E-14  0.12500000000E+03  0.12500000000E+03 0.  0.
        -11    1    3    3    0    0 -0.23506586283E+01 -0.11953936197E+02 -0.59218479478E+02  0.60458667688E+02  0.51100000000E-03 0. -1.
         23    2    1    0    0    0 -0.10075563726E+02  0.11560024950E+01 -0.28710677392E+02  0.94550758261E+02  0.89513627818E+02 0.  0.
         11    1    3    3    0    0 -0.77249050980E+01  0.13109938692E+02  0.30507802086E+02  0.34092090573E+02  0.51100000000E-03 0.  1.
         22    1    1    0    0    0  0.10075563726E+02 -0.11560024950E+01  0.28710677392E+02  0.30449241739E+02  0.00000000000E+00 0. -1.
</event>
<event>
 5    1  0.8875601E-005  0.9118800E+02  0.7818608E-02  0.1130116E+00
         25   -1    0    0    0    0  0.00000000000E+00  0.00000000000E+00  0.99999998245E-14  0.12500000000E+03  0.12500000000E+03 0.  0.
        -11    1    3    3    0    0  0.53356805420E+02  0.32523030702E+02  0.11655801932E+01  0.62498438285E+02  0.51100000000E-03 0.  1.
         23    2    1    0    0    0  0.26539907379E+02  0.16164602177E+02  0.26735476066E+00  0.93923762683E+02  0.88633744537E+02 0.  0.
         11    1    3    3    0    0 -0.26816898041E+02 -0.16358428524E+02 -0.89822543258E+00  0.31425324398E+02  0.51100000000E-03 0. -1.
         22    1    1    0    0    0 -0.26539907379E+02 -0.16164602177E+02 -0.26735476066E+00  0.31076237317E+02  0.00000000000E+00 0.  1.
</event>
<event>
 5    1  0.8875601E-005  0.9118800E+02  0.7818608E-02  0.1130116E+00
         25   -1    0    0    0    0  0.00000000000E+00  0.00000000000E+00  0.99999998245E-14  0.12500000000E+03  0.12500000000E+03 0.  0.
        -11    1    3    3    0    0 -0.32011448970E+02 -0.17484867618E+02  0.18941553869E+02  0.41100315376E+02  0.51100000000E-03 0. -1.
         23    2    1    0    0    0  0.21789945564E+02 -0.16330080133E+02  0.11559193893E+02  0.95418110130E+02  0.90716743397E+02 0.  0.
         11    1    3    3    0    0  0.53801394534E+02  0.11547874854E+01 -0.73823599766E+01  0.54317794754E+02  0.51100000000E-03 0.  1.
         22    1    1    0    0    0 -0.21789945564E+02  0.16330080133E+02 -0.11559193893E+02  0.29581889870E+02  0.00000000000E+00 0.  1.
</event>
<event>
 5    1  0.8875601E-005  0.9118800E+02  0.7818608E-02  0.1130116E+00
         25   -1    0    0    0    0  0.00000000000E+00  0.00000000000E+00  0.99999998245E-14  0.12500000000E+03  0.12500000000E+03 0.  0.
        -11    1    3    3    0    0 -0.26413127177E+01  0.19756180280E+02  0.58842159523E+02  0.62126346502E+02  0.51100000000E-03 0.  1.
         23    2    1    0    0    0  0.33884988693E+01  0.78437535280E+01  0.27759470737E+02  0.95955299802E+02  0.91453949890E+02 0.  0.
         11    1    3    3    0    0  0.60298115870E+01 -0.11912426752E+02 -0.31082688786E+02  0.33828953299E+02  0.51100000000E-03 0. -1.
         22    1    1    0    0    0 -0.33884988693E+01 -0.78437535280E+01 -0.27759470737E+02  0.29044700198E+02  0.00000000000E+00 0.  1.
</event>
<event>
 5    1  0.8875601E-005  0.9118800E+02  0.7818608E-02  0.1130116E+00
         25   -1    0    0    0    0  0.00000000000E+00  0.00000000000E+00  0.99999998245E-14  0.12500000000E+03  0.12500000000E+03 0.  0.
        -11    1    3    3    0    0  0.48030940536E+02 -0.23705990396E+02  0.14878361153E+02  0.55590564489E+02  0.51100000000E-03 0.  1.
         23    2    1    0    0    0  0.13907001422E+02 -0.10526435730E+02  0.25881333499E+02  0.93790162426E+02  0.88445127658E+02 0.  0.
         11    1    3    3    0    0 -0.34123939113E+02  0.13179554666E+02  0.11002972346E+02  0.38199597936E+02  0.51100000000E-03 0. -1.
         22    1    1    0    0    0 -0.13907001422E+02  0.10526435730E+02 -0.25881333499E+02  0.31209837574E+02  0.00000000000E+00 0.  1.
</event>
<event>
 5    1  0.8875601E-005  0.9118800E+02  0.7818608E-02  0.1130116E+00
         25   -1    0    0    0    0  0.00000000000E+00  0.00000000000E+00  0.99999998245E-14  0.12500000000E+03  0.12500000000E+03 0.  0.
        -11    1    3    3    0    0 -0.11777255986E+02 -0.35456253637E+02 -0.13465649940E+02  0.39713642607E+02  0.51100000000E-03 0.  1.
         23    2    1    0    0    0  0.18063963833E+02  0.13415485324E+02 -0.16564678803E+02  0.97059516473E+02  0.92950950067E+02 0.  0.
         11    1    3    3    0    0  0.29841219819E+02  0.48871738961E+02 -0.30990288629E+01  0.57345873867E+02  0.51100000000E-03 0. -1.
         22    1    1    0    0    0 -0.18063963833E+02 -0.13415485324E+02  0.16564678803E+02  0.27940483527E+02  0.00000000000E+00 0. -1.
</event>
<event>
 5    1  0.8875601E-005  0.9118800E+02  0.7818608E-02  0.1130116E+00
         25   -1    0    0    0    0  0.00000000000E+00  0.00000000000E+00  0.99999998245E-14  0.12500000000E+03  0.12500000000E+03 0.  0.
        -11    1    3    3    0    0 -0.20743126992E+02 -0.91832943068E+01  0.33801538130E+02  0.40708158789E+02  0.51100000000E-03 0. -1.
         23    2    1    0    0    0 -0.17779976908E+02  0.11097660040E+02 -0.18601393010E+02  0.96976840665E+02  0.92839701454E+02 0.  0.
         11    1    3    3    0    0  0.29631500844E+01  0.20280954347E+02 -0.52402931141E+02  0.56268681876E+02  0.51100000000E-03 0.  1.
         22    1    1    0    0    0  0.17779976908E+02 -0.11097660040E+02  0.18601393010E+02  0.28023159335E+02  0.00000000000E+00 0.  1.
</event>
<event>
 5    1  0.8875601E-005  0.9118800E+02  0.7818608E-02  0.1130116E+00
         25   -1    0    0    0    0  0.00000000000E+00  0.00000000000E+00  0.99999998245E-14  0.12500000000E+03  0.12500000000E+03 0.  0.
        -11    1    3    3    0    0  0.16259374069E+02  0.26635665449E+02  0.27342300334E+02  0.41490086850E+02  0.51100000000E-03 0. -1.
         23    2    1    0    0    0  0.15742732060E+02 -0.23763537317E+02  0.98595826011E+01  0.94837926338E+02  0.89913745247E+02 0.  0.
         11    1    3    3    0    0 -0.51664200913E+00 -0.50399202766E+02 -0.17482717733E+02  0.53347839487E+02  0.51100000000E-03 0.  1.
         22    1    1    0    0    0 -0.15742732060E+02  0.23763537317E+02 -0.98595826011E+01  0.30162073662E+02  0.00000000000E+00 0.  1.
</event>
<event>
 5    1  0.8875601E-005  0.9118800E+02  0.7818608E-02  0.1130116E+00
         25   -1    0    0    0    0  0.00000000000E+00  0.00000000000E+00  0.99999998245E-14  0.12500000000E+03  0.12500000000E+03 0.  0.
        -11    1    3    3    0    0 -0.16873791063E+02  0.93568004413E-01 -0.47453543321E+02  0.50364395696E+02  0.51100000000E-03 0.  1.
         23    2    1    0    0    0  0.17146891917E+02  0.66463985232E+01 -0.35856759050E+01  0.10626373603E+03  0.10459891973E+03 0.  0.
         11    1    3    3    0    0  0.34020682980E+02  0.65528305188E+01  0.43867867416E+02  0.55899340337E+02  0.51100000000E-03 0. -1.
         22    1    1    0    0    0 -0.17146891917E+02 -0.66463985232E+01  0.35856759050E+01  0.18736263967E+02  0.00000000000E+00 0. -1.
</event>
<event>
 5    1  0.8875601E-005  0.9118800E+02  0.7818608E-02  0.1130116E+00
         25   -1    0    0    0    0  0.00000000000E+00  0.00000000000E+00  0.99999998245E-14  0.12500000000E+03  0.12500000000E+03 0.  0.
        -11    1    3    3    0    0 -0.11030457657E+02  0.27327992251E+02 -0.14734050769E+02  0.32948177627E+02  0.51100000000E-03 0.  1.
         23    2    1    0    0    0  0.71936326025E-01 -0.30204633384E+02  0.41531410434E+01  0.94511089996E+02  0.89458216498E+02 0.  0.
         11    1    3    3    0    0  0.11102393983E+02 -0.57532625635E+02  0.18887191813E+02  0.61562912370E+02  0.51100000000E-03 0. -1.
         22    1    1    0    0    0 -0.71936326025E-01  0.30204633384E+02 -0.41531410434E+01  0.30488910004E+02  0.00000000000E+00 0. -1.
</event>
<event>
 5    1  0.8875601E-005  0.9118800E+02  0.7818608E-02  0.1130116E+00
         25   -1    0    0    0    0  0.00000000000E+00  0.00000000000E+00  0.99999998245E-14  0.12500000000E+03  0.12500000000E+03 0.  0.
        -11    1    3    3    0    0  0.17033108340E+01 -0.60538306764E+02  0.14679395737E+02  0.62315908988E+02  0.51100000000E-03 0.  1.
         23    2    1    0    0    0  0.32238184441E+01 -0.22188697233E+02  0.74685891007E+01  0.10136716028E+03  0.98573779825E+02 0.  0.
         11    1    3    3    0    0  0.15205076101E+01  0.38349609530E+02 -0.72108066359E+01  0.39051251287E+02  0.51100000000E-03 0. -1.
         22    1    1    0    0    0 -0.32238184441E+01  0.22188697233E+02 -0.74685891007E+01  0.23632839724E+02  0.00000000000E+00 0.  1.
</event>
<event>
 5    1  0.8875601E-005  0.9118800E+02  0.7818608E-02  0.1130116E+00
         25   -1    0    0    0    0  0.00000000000E+00  0.00000000000E+00  0.99999998245E-14  0.12500000000E+03  0.12500000000E+03 0.  0.
        -11    1    3    3    0    0 -0.13568568461E+02  0.50433497500E+02 -0.28735934680E+02  0.59610382169E+02  0.51100000000E-03 0. -1.
         23    2    1    0    0    0 -0.15325932400E+02  0.28166118766E+02 -0.44156243194E+01  0.92631617458E+02  0.86792305906E+02 0.  0.
         11    1    3    3    0    0 -0.17573639393E+01 -0.22267378734E+02  0.24320310361E+02  0.33021235289E+02  0.51100000000E-03 0.  1.
         22    1    1    0    0    0  0.15325932400E+02 -0.28166118766E+02  0.44156243194E+01  0.32368382542E+02  0.00000000000E+00 0. -1.
</event>
<event>
 5    1  0.8875601E-005  0.9118800E+02  0.7818608E-02  0.1130116E+00
         25   -1    0    0    0    0  0.00000000000E+00  0.00000000000E+00  0.99999998245E-14  0.12500000000E+03  0.12500000000E+03 0.  0.
        -11    1    3    3    0    0  0.19306634048E+02 -0.15744922390E+02 -0.32339802087E+02  0.40822928589E+02  0.51100000000E-03 0. -1.
         23    2    1    0    0    0 -0.26733736715E+02  0.50351796891E+01 -0.11458863684E+02  0.95481340305E+02  0.90803827431E+02 0.  0.
         11    1    3    3    0    0 -0.46040370763E+02  0.20780102079E+02  0.20880938403E+02  0.54658411716E+02  0.51100000000E-03 0.  1.
         22    1    1    0    0    0  0.26733736715E+02 -0.50351796891E+01  0.11458863684E+02  0.29518659695E+02  0.00000000000E+00 0.  1.
</event>
<event>
 5    1  0.8875601E-005  0.9118800E+02  0.7818608E-02  0.1130116E+00
         25   -1    0    0    0    0  0.00000000000E+00  0.00000000000E+00  0.99999998245E-14  0.12500000000E+03  0.12500000000E+03 0.  0.
        -11    1    3    3    0    0  0.43572958751E+02  0.10736044396E+02 -0.28988431772E+01  0.44969641711E+02  0.51100000000E-03 0.  1.
         23    2    1    0    0    0  0.51690118242E+01  0.51895551528E+01  0.28930528740E+02  0.95156647991E+02  0.90355752433E+02 0.  0.
         11    1    3    3    0    0 -0.38403946927E+02 -0.55464892428E+01  0.31829371918E+02  0.50187006280E+02  0.51100000000E-03 0. -1.
         22    1    1    0    0    0 -0.51690118242E+01 -0.51895551528E+01 -0.28930528740E+02  0.29843352009E+02  0.00000000000E+00 0. -1.
</event>
<event>
 5    1  0.8875601E-005  0.9118800E+02  0.7818608E-02  0.1130116E+00
         25   -1    0    0    0    0  0.00000000000E+00  0.00000000000E+00  0.99999998245E-14  0.12500000000E+03  0.12500000000E+03 0.  0.
        -11    1    3    3    0    0  0.88484638904E+01 -0.24944184107E+01 -0.33017462286E+02  0.34273462803E+02  0.51100000000E-03 0. -1.
         23    2    1    0    0    0 -0.15254552240E+02  0.30610179403E+01  0.23984679328E+02  0.96410910519E+02  0.92074576457E+02 0.  0.
         11    1    3    3    0    0 -0.24103016131E+02  0.55554363510E+01  0.57002141615E+02  0.62137447715E+02  0.51100000000E-03 0.  1.
         22    1    1    0    0    0  0.15254552240E+02 -0.30610179403E+01 -0.23984679328E+02  0.28589089481E+02  0.00000000000E+00 0.  1.
</event>
<event>
 5    1  0.8875601E-005  0.9118800E+02  0.7818608E-02  0.1130116E+00
         25   -1    0    0    0    0  0.00000000000E+00  0.00000000000E+00  0.99999998245E-14  0.12500000000E+03  0.12500000000E+03 0.  0.
        -11    1    3    3    0    0 -0.20860688041E+02 -0.66596496026E+01 -0.50953835470E+02  0.55460008905E+02  0.51100000000E-03 0.  1.
         23    2    1    0    0    0 -0.26055776314E+02 -0.30506705324E+01 -0.99598023678E+01  0.96939213603E+02  0.92789026295E+02 0.  0.
         11    1    3    3    0    0 -0.51950882722E+01  0.36089790702E+01  0.40994033103E+02  0.41479204698E+02  0.51100000000E-03 0. -1.
         22    1    1    0    0    0  0.26055776314E+02  0.30506705324E+01  0.99598023678E+01  0.28060786397E+02  0.00000000000E+00 0.  1.
</event>
<event>
 5    1  0.8875601E-005  0.9118800E+02  0.7818608E-02  0.1130116E+00
         25   -1    0    0    0    0  0.00000000000E+00  0.00000000000E+00  0.99999998245E-14  0.12500000000E+03  0.12500000000E+03 0.  0.
        -11    1    3    3    0    0  0.26017647598E+02  0.15687509549E+02  0.53738726459E+02  0.61732217392E+02  0.51100000000E-03 0. -1.
         23    2    1    0    0    0  0.15253239533E+02  0.80348883366E+01  0.42720059042E+02  0.78932395424E+02  0.64094452615E+02 0.  0.
         11    1    3    3    0    0 -0.10764408065E+02 -0.76526212129E+01 -0.11018667418E+02  0.17200178032E+02  0.51100000000E-03 0.  1.
         22    1    1    0    0    0 -0.15253239533E+02 -0.80348883366E+01 -0.42720059042E+02  0.46067604576E+02  0.00000000000E+00 0. -1.
</event>
<event>
 5    1  0.8875601E-005  0.9118800E+02  0.7818608E-02  0.1130116E+00
         25   -1    0    0    0    0  0.00000000000E+00  0.00000000000E+00  0.99999998245E-14  0.12500000000E+03  0.12500000000E+03 0.  0.
        -11    1    3    3    0    0  0.23230262772E+01 -0.59411049945E+02  0.14429292103E+01  0.59473955238E+02  0.51100000000E-03 0. -1.
         23    2    1    0    0    0 -0.54702678197E+01 -0.27114028974E+02  0.12713836987E+02  0.94557660271E+02  0.89523265512E+02 0.  0.
         11    1    3    3    0    0 -0.77932940969E+01  0.32297020971E+02  0.11270907776E+02  0.35083705033E+02  0.51100000000E-03 0.  1.
         22    1    1    0    0    0  0.54702678197E+01  0.27114028974E+02 -0.12713836987E+02  0.30442339729E+02  0.00000000000E+00 0. -1.
</event>
<event>
 5    1  0.8875601E-005  0.9118800E+02  0.7818608E-02  0.1130116E+00
         25   -1    0    0    0    0  0.00000000000E+00  0.00000000000E+00  0.99999998245E-14  0.12500000000E+03  0.12500000000E+03 0.  0.
        -11    1    3    3    0    0 -0.36304564635E+02  0.38481645634E+02 -0.32908627879E+02  0.62304383901E+02  0.51100000000E-03 0.  1.
         23    2    1    0    0    0 -0.17515966425E+02  0.16221186625E+02 -0.18468945531E+02  0.94816595215E+02  0.89884085376E+02 0.  0.
         11    1    3    3    0    0  0.18788598210E+02 -0.22260459009E+02  0.14439682348E+02  0.32512211315E+02  0.51100000000E-03 0. -1.
         22    1    1    0    0    0  0.17515966425E+02 -0.16221186625E+02  0.18468945531E+02  0.30183404785E+02  0.00000000000E+00 0.  1.
</event>
<event>
 5    1  0.8875601E-005  0.9118800E+02  0.7818608E-02  0.1130116E+00
         25   -1    0    0    0    0  0.00000000000E+00  0.00000000000E+00  0.99999998245E-14  0.12500000000E+03  0.12500000000E+03 0.  0.
        -11    1    3    3    0    0 -0.67664804994E+01  0.32151027412E+02 -0.46142891080E+02  0.56644860486E+02  0.51100000000E-03 0. -1.
         23    2    1    0    0    0  0.13234734331E+02  0.55893838101E+01 -0.25352691597E+02  0.95859677844E+02  0.91323159499E+02 0.  0.
         11    1    3    3    0    0  0.20001214830E+02 -0.26561643602E+02  0.20790199484E+02  0.39214817357E+02  0.51100000000E-03 0.  1.
         22    1    1    0    0    0 -0.13234734331E+02 -0.55893838101E+01  0.25352691597E+02  0.29140322156E+02  0.00000000000E+00 0. -1.
</event>
<event>
 5    1  0.8875601E-005  0.9118800E+02  0.7818608E-02  0.1130116E+00
         25   -1    0    0    0    0  0.00000000000E+00  0.00000000000E+00  0.99999998245E-14  0.12500000000E+03  0.12500000000E+03 0.  0.
        -11    1    3    3    0    0 -0.47121234198E+01 -0.95920486328E+01 -0.40301907567E+02  0.41694786939E+02  0.51100000000E-03 0.  1.
         23    2    1    0    0    0  0.22905346504E+02  0.16584951983E+02 -0.56170571826E+00  0.96715179972E+02  0.92486728739E+02 0.  0.
         11    1    3    3    0    0  0.27617469924E+02  0.26177000615E+02  0.39740201849E+02  0.55020393032E+02  0.51100000000E-03 0. -1.
         22    1    1    0    0    0 -0.22905346504E+02 -0.16584951983E+02  0.56170571826E+00  0.28284820028E+02  0.00000000000E+00 0. -1.
</event>
<event>
 5    1  0.8875601E-005  0.9118800E+02  0.7818608E-02  0.1130116E+00
         25   -1    0    0    0    0  0.00000000000E+00  0.00000000000E+00  0.99999998245E-14  0.12500000000E+03  0.12500000000E+03 0.  0.
        -11    1    3    3    0    0  0.52482354147E+01 -0.92768429253E+00  0.36248347847E+02  0.36638058014E+02  0.51100000000E-03 0.  1.
         23    2    1    0    0    0  0.11935753018E+02 -0.59163999753E+01 -0.24047884309E+02  0.97508788159E+02  0.93553177603E+02 0.  0.
         11    1    3    3    0    0  0.66875176034E+01 -0.49887156828E+01 -0.60296232156E+02  0.60870730145E+02  0.51100000000E-03 0. -1.
         22    1    1    0    0    0 -0.11935753018E+02  0.59163999753E+01  0.24047884309E+02  0.27491211841E+02  0.00000000000E+00 0. -1.
</event>
<event>
 5    1  0.8875601E-005  0.9118800E+02  0.7818608E-02  0.1130116E+00
         25   -1    0    0    0    0  0.00000000000E+00  0.00000000000E+00  0.99999998245E-14  0.12500000000E+03  0.12500000000E+03 0.  0.
        -11    1    3    3    0    0  0.44161036047E+02 -0.56489622024E+01  0.17673528110E+02  0.47900537312E+02  0.51100000000E-03 0.  1.
         23    2    1    0    0    0 -0.75918829386E+00 -0.20983648049E+02  0.20768149336E+02  0.95466868111E+02  0.90783902911E+02 0.  0.
         11    1    3    3    0    0 -0.44920224341E+02 -0.15334685847E+02  0.30946212266E+01  0.47566330799E+02  0.51100000000E-03 0. -1.
         22    1    1    0    0    0  0.75918829386E+00  0.20983648049E+02 -0.20768149336E+02  0.29533131889E+02  0.00000000000E+00 0.  1.
</event>
<event>
 5    1  0.8875601E-005  0.9118800E+02  0.7818608E-02  0.1130116E+00
         25   -1    0    0    0    0  0.00000000000E+00  0.00000000000E+00  0.99999998245E-14  0.12500000000E+03  0.12500000000E+03 0.  0.
        -11    1    3    3    0    0  0.38565542161E+02  0.51585900203E+01 -0.24834504699E+01  0.38988198467E+02  0.51100000000E-03 0. -1.
         23    2    1    0    0    0 -0.16099511628E+02  0.15447125424E+02  0.15934078247E+02  0.97582800870E+02  0.93652016623E+02 0.  0.
         11    1    3    3    0    0 -0.54665053789E+02  0.10288535404E+02  0.18417528717E+02  0.58594602404E+02  0.51100000000E-03 0.  1.
         22    1    1    0    0    0  0.16099511628E+02 -0.15447125424E+02 -0.15934078247E+02  0.27417199130E+02  0.00000000000E+00 0.  1.
</event>
<event>
 5    1  0.8875601E-005  0.9118800E+02  0.7818608E-02  0.1130116E+00
         25   -1    0    0    0    0  0.00000000000E+00  0.00000000000E+00  0.99999998245E-14  0.12500000000E+03  0.12500000000E+03 0.  0.
        -11    1    3    3    0    0  0.29655360128E+02 -0.18268927147E+02 -0.11920441167E+02  0.36814277140E+02  0.51100000000E-03 0. -1.
         23    2    1    0    0    0 -0.19306489104E+01  0.29181208704E+02 -0.10792519391E+02  0.93827114002E+02  0.88497336121E+02 0.  0.
         11    1    3    3    0    0 -0.31586009039E+02  0.47450135851E+02  0.11279217763E+01  0.57012836862E+02  0.51100000000E-03 0.  1.
         22    1    1    0    0    0  0.19306489104E+01 -0.29181208704E+02  0.10792519391E+02  0.31172885998E+02  0.00000000000E+00 0.  1.
</event>
<event>
 5    1  0.8875601E-005  0.9118800E+02  0.7818608E-02  0.1130116E+00
         25   -1    0    0    0    0  0.00000000000E+00  0.00000000000E+00  0.99999998245E-14  0.12500000000E+03  0.12500000000E+03 0.  0.
        -11    1    3    3    0    0 -0.31762115738E+02  0.25517862190E+01 -0.84973597755E+01  0.32978003767E+02  0.51100000000E-03 0.  1.
         23    2    1    0    0    0  0.27003137643E+02 -0.13269967576E+02 -0.81157502592E+01  0.93837091209E+02  0.88511427523E+02 0.  0.
         11    1    3    3    0    0  0.58765253381E+02 -0.15821753795E+02  0.38160951632E+00  0.60859087441E+02  0.51100000000E-03 0. -1.
         22    1    1    0    0    0 -0.27003137643E+02  0.13269967576E+02  0.81157502592E+01  0.31162908791E+02  0.00000000000E+00 0. -1.
</event>
<event>
 5    1  0.8875601E-005  0.9118800E+02  0.7818608E-02  0.1130116E+00
         25   -1    0    0    0    0  0.00000000000E+00  0.00000000000E+00  0.99999998245E-14  0.12500000000E+03  0.12500000000E+03 0.  0.
        -11    1    3    3    0    0  0.13871009654E+02  0.23674787706E+02  0.23135632928E+02  0.35890917973E+02  0.51100000000E-03 0.  1.
         23    2    1    0    0    0  0.13707103321E+00 -0.29843890606E+02  0.18616214341E+01  0.95097788889E+02  0.90274288821E+02 0.  0.
         11    1    3    3    0    0 -0.13733938620E+02 -0.53518678312E+02 -0.21274011494E+02  0.59206870915E+02  0.51100000000E-03 0. -1.
         22    1    1    0    0    0 -0.13707103321E+00  0.29843890606E+02 -0.18616214341E+01  0.29902211111E+02  0.00000000000E+00 0. -1.
</event>
<event>
 5    1  0.8875601E-005  0.9118800E+02  0.7818608E-02  0.1130116E+00
         25   -1    0    0    0    0  0.00000000000E+00  0.00000000000E+00  0.99999998245E-14  0.12500000000E+03  0.12500000000E+03 0.  0.
        -11    1    3    3    0    0  0.32805729346E+02 -0.42101337524E+01 -0.11167034761E+02  0.34909078615E+02  0.51100000000E-03 0. -1.
         23    2    1    0    0    0 -0.17164031888E+02 -0.99079554922E+01  0.22181573604E+02  0.95254516641E+02  0.90491044642E+02 0.  0.
         11    1    3    3    0    0 -0.49969761235E+02 -0.56978217398E+01  0.33348608365E+02  0.60345438026E+02  0.51100000000E-03 0.  1.
         22    1    1    0    0    0  0.17164031888E+02  0.99079554922E+01 -0.22181573604E+02  0.29745483359E+02  0.00000000000E+00 0. -1.
</event>
<event>
 5    1  0.8875601E-005  0.9118800E+02  0.7818608E-02  0.1130116E+00
         25   -1    0    0    0    0  0.00000000000E+00  0.00000000000E+00  0.99999998245E-14  0.12500000000E+03  0.12500000000E+03 0.  0.
        -11    1    3    3    0    0  0.31820883141E+02 -0.30744476645E+02  0.30673816043E+02  0.53839339139E+02  0.51100000000E-03 0. -1.
         23    2    1    0    0    0 -0.49864610769E+01 -0.84449283693E+01  0.26101314293E+02  0.97117026395E+02  0.93028256991E+02 0.  0.
         11    1    3    3    0    0 -0.36807344218E+02  0.22299548275E+02 -0.45725017501E+01  0.43277687256E+02  0.51100000000E-03 0.  1.
         22    1    1    0    0    0  0.49864610769E+01  0.84449283693E+01 -0.26101314293E+02  0.27882973605E+02  0.00000000000E+00 0. -1.
</event>
<event>
 5    1  0.8875601E-005  0.9118800E+02  0.7818608E-02  0.1130116E+00
         25   -1    0    0    0    0  0.00000000000E+00  0.00000000000E+00  0.99999998245E-14  0.12500000000E+03  0.12500000000E+03 0.  0.
        -11    1    3    3    0    0  0.45923004689E+01 -0.27746392738E+02  0.52937129802E+02  0.59944067642E+02  0.51100000000E-03 0.  1.
         23    2    1    0    0    0  0.45056960068E+01 -0.23173167761E+02  0.17655495561E+02  0.95520964668E+02  0.90858357717E+02 0.  0.
         11    1    3    3    0    0 -0.86604462138E-01  0.45732249768E+01 -0.35281634241E+02  0.35576897026E+02  0.51100000000E-03 0. -1.
         22    1    1    0    0    0 -0.45056960068E+01  0.23173167761E+02 -0.17655495561E+02  0.29479035332E+02  0.00000000000E+00 0.  1.
</event>
<event>
 5    1  0.8875601E-005  0.9118800E+02  0.7818608E-02  0.1130116E+00
         25   -1    0    0    0    0  0.00000000000E+00  0.00000000000E+00  0.99999998245E-14  0.12500000000E+03  0.12500000000E+03 0.  0.
        -11    1    3    3    0    0  0.22241667837E+02  0.24154739794E+02 -0.16856840655E+02  0.36909298555E+02  0.51100000000E-03 0. -1.
         23    2    1    0    0    0  0.58774848560E+01 -0.16454122255E+02  0.23000026943E+02  0.96116021624E+02  0.91673362576E+02 0.  0.
         11    1    3    3    0    0 -0.16364182981E+02 -0.40608862049E+02  0.39856867599E+02  0.59206723069E+02  0.51100000000E-03 0.  1.
         22    1    1    0    0    0 -0.58774848560E+01  0.16454122255E+02 -0.23000026943E+02  0.28883978376E+02  0.00000000000E+00 0.  1.
</event>
<event>
 5    1  0.8875601E-005  0.9118800E+02  0.7818608E-02  0.1130116E+00
         25   -1    0    0    0    0  0.00000000000E+00  0.00000000000E+00  0.99999998245E-14  0.12500000000E+03  0.12500000000E+03 0.  0.
        -11    1    3    3    0    0 -0.11167507592E+02  0.46460725580E+02 -0.24024526270E+01  0.47844372983E+02  0.51100000000E-03 0.  1.
         23    2    1    0    0    0  0.24890731299E+02  0.13990970988E+02 -0.21174542900E+01  0.96368210212E+02  0.92016588467E+02 0.  0.
         11    1    3    3    0    0  0.36058238890E+02 -0.32469754592E+02  0.28499833697E+00  0.48523837229E+02  0.51100000000E-03 0. -1.
         22    1    1    0    0    0 -0.24890731299E+02 -0.13990970988E+02  0.21174542900E+01  0.28631789788E+02  0.00000000000E+00 0.  1.
</event>
<event>
 5    1  0.8875601E-005  0.9118800E+02  0.7818608E-02  0.1130116E+00
         25   -1    0    0    0    0  0.00000000000E+00  0.00000000000E+00  0.99999998245E-14  0.12500000000E+03  0.12500000000E+03 0.  0.
        -11    1    3    3    0    0  0.27393033572E+02 -0.17876946775E+02  0.50202069640E+02  0.59918372063E+02  0.51100000000E-03 0.  1.
         23    2    1    0    0    0  0.81327603700E+01 -0.19757504121E+02  0.20353627700E+02  0.95491172154E+02  0.90817360887E+02 0.  0.
         11    1    3    3    0    0 -0.19260273202E+02 -0.18805573454E+01 -0.29848441940E+02  0.35572800090E+02  0.51100000000E-03 0. -1.
         22    1    1    0    0    0 -0.81327603700E+01  0.19757504121E+02 -0.20353627700E+02  0.29508827846E+02  0.00000000000E+00 0.  1.
</event>
<event>
 5    1  0.8875601E-005  0.9118800E+02  0.7818608E-02  0.1130116E+00
         25   -1    0    0    0    0  0.00000000000E+00  0.00000000000E+00  0.99999998245E-14  0.12500000000E+03  0.12500000000E+03 0.  0.
        -11    1    3    3    0    0  0.92326079307E+01 -0.44126767830E+02 -0.14559393198E+02  0.47374978827E+02  0.51100000000E-03 0. -1.
         23    2    1    0    0    0  0.17760087150E+02  0.27503997011E+01 -0.23049729898E+02  0.95772009264E+02  0.91203082821E+02 0.  0.
         11    1    3    3    0    0  0.85274792196E+01  0.46877167531E+02 -0.84903366998E+01  0.48397030437E+02  0.51100000000E-03 0.  1.
         22    1    1    0    0    0 -0.17760087150E+02 -0.27503997011E+01  0.23049729898E+02  0.29227990736E+02  0.00000000000E+00 0.  1.
</event>
<event>
 5    1  0.8875601E-005  0.9118800E+02  0.7818608E-02  0.1130116E+00
         25   -1    0    0    0    0  0.00000000000E+00  0.00000000000E+00  0.99999998245E-14  0.12500000000E+03  0.12500000000E+03 0.  0.
        -11    1    3    3    0    0 -0.30073616122E+02 -0.37104420250E+02 -0.31447948737E+02  0.57185084321E+02  0.51100000000E-03 0.  1.
         23    2    1    0    0    0  0.64076760638E+00 -0.27618717705E+02 -0.11114745759E+02  0.95221791121E+02  0.90445827876E+02 0.  0.
         11    1    3    3    0    0  0.30714383729E+02  0.94857025453E+01  0.20333202977E+02  0.38036706800E+02  0.51100000000E-03 0. -1.
         22    1    1    0    0    0 -0.64076760638E+00  0.27618717705E+02  0.11114745759E+02  0.29778208879E+02  0.00000000000E+00 0.  1.
</event>
<event>
 5    1  0.8875601E-005  0.9118800E+02  0.7818608E-02  0.1130116E+00
         25   -1    0    0    0    0  0.00000000000E+00  0.00000000000E+00  0.99999998245E-14  0.12500000000E+03  0.12500000000E+03 0.  0.
        -11    1    3    3    0    0 -0.18461522587E+01  0.36093536733E+02  0.19065654403E+02  0.40861361335E+02  0.51100000000E-03 0.  1.
         23    2    1    0    0    0 -0.16925501817E+02 -0.17053253758E+02  0.15883824805E+02  0.96197535419E+02  0.91784442336E+02 0.  0.
         11    1    3    3    0    0 -0.15079349558E+02 -0.53146790490E+02 -0.31818295981E+01  0.55336174085E+02  0.51100000000E-03 0. -1.
         22    1    1    0    0    0  0.16925501817E+02  0.17053253758E+02 -0.15883824805E+02  0.28802464581E+02  0.00000000000E+00 0. -1.
</event>
<event>
 5    1  0.8875601E-005  0.9118800E+02  0.7818608E-02  0.1130116E+00
         25   -1    0    0    0    0  0.00000000000E+00  0.00000000000E+00  0.99999998245E-14  0.12500000000E+03  0.12500000000E+03 0.  0.
        -11    1    3    3    0    0 -0.12717798967E+02 -0.18762069362E+02 -0.52144034766E+02  0.56857347979E+02  0.51100000000E-03 0.  1.
         23    2    1    0    0    0  0.44539746239E+01  0.59287496981E+01 -0.29711779616E+02  0.94376841918E+02  0.89270434521E+02 0.  0.
         11    1    3    3    0    0  0.17171773591E+02  0.24690819060E+02  0.22432255149E+02  0.37519493939E+02  0.51100000000E-03 0. -1.
         22    1    1    0    0    0 -0.44539746239E+01 -0.59287496981E+01  0.29711779616E+02  0.30623158082E+02  0.00000000000E+00 0.  1.
</event>
<event>
 5    1  0.8875601E-005  0.9118800E+02  0.7818608E-02  0.1130116E+00
         25   -1    0    0    0    0  0.00000000000E+00  0.00000000000E+00  0.99999998245E-14  0.12500000000E+03  0.12500000000E+03 0.  0.
        -11    1    3    3    0    0 -0.14553134552E+02 -0.35956248953E+02 -0.31306732843E+02  0.49847337798E+02  0.51100000000E-03 0.  1.
         23    2    1    0    0    0 -0.26136102738E+02  0.62489029015E+00 -0.25175940099E+02  0.88705175106E+02  0.80940062864E+02 0.  0.
         11    1    3    3    0    0 -0.11582968186E+02  0.36581139243E+02  0.61307927432E+01  0.38857837308E+02  0.51100000000E-03 0. -1.
         22    1    1    0    0    0  0.26136102738E+02 -0.62489029015E+00  0.25175940099E+02  0.36294824894E+02  0.00000000000E+00 0.  1.
</event>
<event>
 5    1  0.8875601E-005  0.9118800E+02  0.7818608E-02  0.1130116E+00
         25   -1    0    0    0    0  0.00000000000E+00  0.00000000000E+00  0.99999998245E-14  0.12500000000E+03  0.12500000000E+03 0.  0.
        -11    1    3    3    0    0  0.10914535519E+02 -0.13328213310E+02  0.58473270446E+02  0.60958114411E+02  0.51100000000E-03 0. -1.
         23    2    1    0    0    0 -0.38404254782E+01 -0.72480651081E+01  0.32822775739E+02  0.91167797546E+02  0.84657837123E+02 0.  0.
         11    1    3    3    0    0 -0.14754960998E+02  0.60801482015E+01 -0.25650494706E+02  0.30209683135E+02  0.51100000000E-03 0.  1.
         22    1    1    0    0    0  0.38404254782E+01  0.72480651081E+01 -0.32822775739E+02  0.33832202454E+02  0.00000000000E+00 0. -1.
</event>
<event>
 5    1  0.8875601E-005  0.9118800E+02  0.7818608E-02  0.1130116E+00
         25   -1    0    0    0    0  0.00000000000E+00  0.00000000000E+00  0.99999998245E-14  0.12500000000E+03  0.12500000000E+03 0.  0.
        -11    1    3    3    0    0  0.30043848269E+02  0.31001749466E+02  0.43067870258E+02  0.60980183155E+02  0.51100000000E-03 0.  1.
         23    2    1    0    0    0  0.10548976253E+02  0.84468814460E+01  0.26904310163E+02  0.94892316405E+02  0.89989327707E+02 0.  0.
         11    1    3    3    0    0 -0.19494872016E+02 -0.22554868020E+02 -0.16163560096E+02  0.33912133250E+02  0.51100000000E-03 0. -1.
         22    1    1    0    0    0 -0.10548976253E+02 -0.84468814460E+01 -0.26904310163E+02  0.30107683595E+02  0.00000000000E+00 0.  1.
</event>
<event>
 5    1  0.8875601E-005  0.9118800E+02  0.7818608E-02  0.1130116E+00
         25   -1    0    0    0    0  0.00000000000E+00  0.00000000000E+00  0.99999998245E-14  0.12500000000E+03  0.12500000000E+03 0.  0.
        -11    1    3    3    0    0 -0.35921497520E+02 -0.50108762591E+02  0.16757622313E+01  0.61676983160E+02  0.51100000000E-03 0.  1.
         23    2    1    0    0    0 -0.11428090314E+02 -0.27385703162E+02  0.33959568034E+01  0.95131780962E+02  0.90321344324E+02 0.  0.
         11    1    3    3    0    0  0.24493407205E+02  0.22723059429E+02  0.17201945721E+01  0.33454797802E+02  0.51100000000E-03 0. -1.
         22    1    1    0    0    0  0.11428090314E+02  0.27385703162E+02 -0.33959568034E+01  0.29868219038E+02  0.00000000000E+00 0.  1.
</event>
<event>
 5    1  0.8875601E-005  0.9118800E+02  0.7818608E-02  0.1130116E+00
         25   -1    0    0    0    0  0.00000000000E+00  0.00000000000E+00  0.99999998245E-14  0.12500000000E+03  0.12500000000E+03 0.  0.
        -11    1    3    3    0    0 -0.31564122578E+01  0.13226434838E+02 -0.49494385209E+02  0.51328312697E+02  0.51100000000E-03 0.  1.
         23    2    1    0    0    0 -0.27241442909E+02  0.28801708314E+01 -0.18385100128E+02  0.92009039079E+02  0.85890976067E+02 0.  0.
         11    1    3    3    0    0 -0.24085030652E+02 -0.10346264007E+02  0.31109285082E+02  0.40680726381E+02  0.51100000000E-03 0. -1.
         22    1    1    0    0    0  0.27241442909E+02 -0.28801708314E+01  0.18385100128E+02  0.32990960921E+02  0.00000000000E+00 0. -1.
</event>
<event>
 5    1  0.8875601E-005  0.9118800E+02  0.7818608E-02  0.1130116E+00
         25   -1    0    0    0    0  0.00000000000E+00  0.00000000000E+00  0.99999998245E-14  0.12500000000E+03  0.12500000000E+03 0.  0.
        -11    1    3    3    0    0 -0.57759837855E+01  0.45198663989E+02 -0.25673926693E+02  0.52301354927E+02  0.51100000000E-03 0. -1.
         23    2    1    0    0    0 -0.21192007600E+02  0.20125905140E+02  0.55946633306E+01  0.95243429270E+02  0.90475727781E+02 0.  0.
         11    1    3    3    0    0 -0.15416023815E+02 -0.25072758850E+02  0.31268590023E+02  0.42942074343E+02  0.51100000000E-03 0.  1.
         22    1    1    0    0    0  0.21192007600E+02 -0.20125905140E+02 -0.55946633306E+01  0.29756570730E+02  0.00000000000E+00 0. -1.
</event>
<event>
 5    1  0.8875601E-005  0.9118800E+02  0.7818608E-02  0.1130116E+00
         25   -1    0    0    0    0  0.00000000000E+00  0.00000000000E+00  0.99999998245E-14  0.12500000000E+03  0.12500000000E+03 0.  0.
        -11    1    3    3    0    0  0.30295927830E+02  0.29670360129E+02 -0.37086826537E+01  0.42566745713E+02  0.51100000000E-03 0. -1.
         23    2    1    0    0    0 -0.15615142693E+02  0.58810823480E+01 -0.21976168549E+02  0.97407033596E+02  0.93417120481E+02 0.  0.
         11    1    3    3    0    0 -0.45911070523E+02 -0.23789277781E+02 -0.18267485895E+02  0.54840287883E+02  0.51100000000E-03 0.  1.
         22    1    1    0    0    0  0.15615142693E+02 -0.58810823480E+01  0.21976168549E+02  0.27592966404E+02  0.00000000000E+00 0.  1.
</event>
<event>
 5    1  0.8875601E-005  0.9118800E+02  0.7818608E-02  0.1130116E+00
         25   -1    0    0    0    0  0.00000000000E+00  0.00000000000E+00  0.99999998245E-14  0.12500000000E+03  0.12500000000E+03 0.  0.
        -11    1    3    3    0    0 -0.20678254986E+02  0.50213118139E+02 -0.51889787018E+01  0.54551562422E+02  0.51100000000E-03 0.  1.
         23    2    1    0    0    0 -0.17159009491E+01  0.20968973563E+02 -0.23113978976E+02  0.93744629382E+02  0.88380752121E+02 0.  0.
         11    1    3    3    0    0  0.18962354037E+02 -0.29244144576E+02 -0.17925000275E+02  0.39193066959E+02  0.51100000000E-03 0. -1.
         22    1    1    0    0    0  0.17159009491E+01 -0.20968973563E+02  0.23113978976E+02  0.31255370618E+02  0.00000000000E+00 0. -1.
</event>
<event>
 5    1  0.8875601E-005  0.9118800E+02  0.7818608E-02  0.1130116E+00
         25   -1    0    0    0    0  0.00000000000E+00  0.00000000000E+00  0.99999998245E-14  0.12500000000E+03  0.12500000000E+03 0.  0.
        -11    1    3    3    0    0 -0.43983443739E+02 -0.17087618881E+02 -0.29925251665E+02  0.55875314135E+02  0.51100000000E-03 0. -1.
         23    2    1    0    0    0 -0.28524343909E+02  0.35769227940E+01  0.11003996164E+01  0.96231206987E+02  0.91830287742E+02 0.  0.
         11    1    3    3    0    0  0.15459099830E+02  0.20664541675E+02  0.31025651282E+02  0.40355892853E+02  0.51100000000E-03 0.  1.
         22    1    1    0    0    0  0.28524343909E+02 -0.35769227940E+01 -0.11003996164E+01  0.28768793013E+02  0.00000000000E+00 0. -1.
</event>
<event>
 5    1  0.8875601E-005  0.9118800E+02  0.7818608E-02  0.1130116E+00
         25   -1    0    0    0    0  0.00000000000E+00  0.00000000000E+00  0.99999998245E-14  0.12500000000E+03  0.12500000000E+03 0.  0.
        -11    1    3    3    0    0  0.76782946748E+01 -0.40649882959E+02 -0.12518908857E+02  0.43221433027E+02  0.51100000000E-03 0.  1.
         23    2    1    0    0    0  0.26829386198E+02  0.51233212411E+01 -0.16649981899E+02  0.93011153794E+02  0.87337211134E+02 0.  0.
         11    1    3    3    0    0  0.19151091524E+02  0.45773204200E+02 -0.41310730420E+01  0.49789720767E+02  0.51100000000E-03 0. -1.
         22    1    1    0    0    0 -0.26829386198E+02 -0.51233212411E+01  0.16649981899E+02  0.31988846206E+02  0.00000000000E+00 0. -1.
</event>
<event>
 5    1  0.8875601E-005  0.9118800E+02  0.7818608E-02  0.1130116E+00
         25   -1    0    0    0    0  0.00000000000E+00  0.00000000000E+00  0.99999998245E-14  0.12500000000E+03  0.12500000000E+03 0.  0.
        -11    1    3    3    0    0  0.55594857985E+01  0.32364559643E+02  0.13664772041E+02  0.35568224561E+02  0.51100000000E-03 0.  1.
         23    2    1    0    0    0 -0.16429804619E+02 -0.22626468082E+02  0.11302215221E+02  0.94839834108E+02  0.89916397432E+02 0.  0.
         11    1    3    3    0    0 -0.21989290418E+02 -0.54991027725E+02 -0.23625568202E+01  0.59271609548E+02  0.51100000000E-03 0. -1.
         22    1    1    0    0    0  0.16429804619E+02  0.22626468082E+02 -0.11302215221E+02  0.30160165892E+02  0.00000000000E+00 0. -1.
</event>
<event>
 5    1  0.8875601E-005  0.9118800E+02  0.7818608E-02  0.1130116E+00
         25   -1    0    0    0    0  0.00000000000E+00  0.00000000000E+00  0.99999998245E-14  0.12500000000E+03  0.12500000000E+03 0.  0.
        -11    1    3    3    0    0  0.32439986724E+02  0.35743424669E+02 -0.11388703869E+02  0.49594835636E+02  0.51100000000E-03 0. -1.
         23    2    1    0    0    0  0.12173106659E+02  0.12291234301E+02  0.23213368740E+02  0.96049707175E+02  0.91582895750E+02 0.  0.
         11    1    3    3    0    0 -0.20266880065E+02 -0.23452190368E+02  0.34602072609E+02  0.46454871539E+02  0.51100000000E-03 0.  1.
         22    1    1    0    0    0 -0.12173106659E+02 -0.12291234301E+02 -0.23213368740E+02  0.28950292825E+02  0.00000000000E+00 0. -1.
</event>
<event>
 5    1  0.8875601E-005  0.9118800E+02  0.7818608E-02  0.1130116E+00
         25   -1    0    0    0    0  0.00000000000E+00  0.00000000000E+00  0.99999998245E-14  0.12500000000E+03  0.12500000000E+03 0.  0.
        -11    1    3    3    0    0  0.43850823034E+02 -0.26082115969E+02  0.13475473259E+02  0.52770823700E+02  0.51100000000E-03 0. -1.
         23    2    1    0    0    0  0.19109206638E+02  0.66111608935E+01  0.22496676702E+02  0.94751534100E+02  0.89793560599E+02 0.  0.
         11    1    3    3    0    0 -0.24741616396E+02  0.32693276862E+02  0.90212034425E+01  0.41980710400E+02  0.51100000000E-03 0.  1.
         22    1    1    0    0    0 -0.19109206638E+02 -0.66111608935E+01 -0.22496676702E+02  0.30248465900E+02  0.00000000000E+00 0. -1.
</event>
<event>
 5    1  0.8875601E-005  0.9118800E+02  0.7818608E-02  0.1130116E+00
         25   -1    0    0    0    0  0.00000000000E+00  0.00000000000E+00  0.99999998245E-14  0.12500000000E+03  0.12500000000E+03 0.  0.
        -11    1    3    3    0    0  0.11736635603E+02  0.83110892853E+01  0.26139348613E+02  0.29834348771E+02  0.51100000000E-03 0.  1.
         23    2    1    0    0    0 -0.19311504059E+02 -0.25512704514E+02 -0.13287802112E+02  0.90353240186E+02  0.83446450172E+02 0.  0.
         11    1    3    3    0    0 -0.31048139662E+02 -0.33823793800E+02 -0.39427150725E+02  0.60518891415E+02  0.51100000000E-03 0. -1.
         22    1    1    0    0    0  0.19311504059E+02  0.25512704514E+02  0.13287802112E+02  0.34646759814E+02  0.00000000000E+00 0. -1.
</event>
<event>
 5    1  0.8875601E-005  0.9118800E+02  0.7818608E-02  0.1130116E+00
         25   -1    0    0    0    0  0.00000000000E+00  0.00000000000E+00  0.99999998245E-14  0.12500000000E+03  0.12500000000E+03 0.  0.
        -11    1    3    3    0    0 -0.23307415271E+02 -0.80614746789E+01  0.25837812348E+02  0.35718559991E+02  0.51100000000E-03 0.  1.
         23    2    1    0    0    0 -0.18967500310E+01  0.11381752112E+02 -0.26823989799E+02  0.95799514207E+02  0.91240772420E+02 0.  0.
         11    1    3    3    0    0  0.21410665240E+02  0.19443226790E+02 -0.52661802147E+02  0.60080954217E+02  0.51100000000E-03 0. -1.
         22    1    1    0    0    0  0.18967500310E+01 -0.11381752112E+02  0.26823989799E+02  0.29200485793E+02  0.00000000000E+00 0. -1.
</event>
<event>
 5    1  0.8875601E-005  0.9118800E+02  0.7818608E-02  0.1130116E+00
         25   -1    0    0    0    0  0.00000000000E+00  0.00000000000E+00  0.99999998245E-14  0.12500000000E+03  0.12500000000E+03 0.  0.
        -11    1    3    3    0    0  0.34535848401E+02  0.36162187279E+02  0.11655061796E+02  0.51344611005E+02  0.51100000000E-03 0. -1.
         23    2    1    0    0    0  0.45555021490E+01  0.22619945265E+02 -0.18078125763E+02  0.95687320922E+02  0.91086937760E+02 0.  0.
         11    1    3    3    0    0 -0.29980346252E+02 -0.13542242014E+02 -0.29733187559E+02  0.44342709917E+02  0.51100000000E-03 0.  1.
         22    1    1    0    0    0 -0.45555021490E+01 -0.22619945265E+02  0.18078125763E+02  0.29312679078E+02  0.00000000000E+00 0. -1.
</event>
<event>
 5    1  0.8875601E-005  0.9118800E+02  0.7818608E-02  0.1130116E+00
         25   -1    0    0    0    0  0.00000000000E+00  0.00000000000E+00  0.99999998245E-14  0.12500000000E+03  0.12500000000E+03 0.  0.
        -11    1    3    3    0    0 -0.23345416461E+02 -0.39960098810E+02 -0.37377649146E+02  0.59488710043E+02  0.51100000000E-03 0.  1.
         23    2    1    0    0    0 -0.10052360754E+01 -0.14797199927E+02 -0.26105568506E+02  0.94975537769E+02  0.90104852490E+02 0.  0.
         11    1    3    3    0    0  0.22340180386E+02  0.25162898883E+02  0.11272080640E+02  0.35486827726E+02  0.51100000000E-03 0. -1.
         22    1    1    0    0    0  0.10052360754E+01  0.14797199927E+02  0.26105568506E+02  0.30024462231E+02  0.00000000000E+00 0.  1.
</event>
<event>
 5    1  0.8875601E-005  0.9118800E+02  0.7818608E-02  0.1130116E+00
         25   -1    0    0    0    0  0.00000000000E+00  0.00000000000E+00  0.99999998245E-14  0.12500000000E+03  0.12500000000E+03 0.  0.
        -11    1    3    3    0    0 -0.32410032674E+01  0.50562811819E+02  0.12950233671E+02  0.52295416564E+02  0.51100000000E-03 0.  1.
         23    2    1    0    0    0  0.22862838507E+02  0.16158289993E+02  0.86610456587E+01  0.95694481202E+02  0.91096763392E+02 0.  0.
         11    1    3    3    0    0  0.26103841774E+02 -0.34404521825E+02 -0.42891880125E+01  0.43399064638E+02  0.51100000000E-03 0. -1.
         22    1    1    0    0    0 -0.22862838507E+02 -0.16158289993E+02 -0.86610456587E+01  0.29305518798E+02  0.00000000000E+00 0.  1.
</event>
<event>
 5    1  0.8875601E-005  0.9118800E+02  0.7818608E-02  0.1130116E+00
         25   -1    0    0    0    0  0.00000000000E+00  0.00000000000E+00  0.99999998245E-14  0.12500000000E+03  0.12500000000E+03 0.  0.
        -11    1    3    3    0    0 -0.29447246429E+02 -0.42741051179E+02  0.24859163509E+02  0.57549246639E+02  0.51100000000E-03 0.  1.
         23    2    1    0    0    0  0.27115996761E+00 -0.29007554020E+02  0.58463921049E+01  0.95407906147E+02  0.90702682081E+02 0.  0.
         11    1    3    3    0    0  0.29718406397E+02  0.13733497159E+02 -0.19012771404E+02  0.37858659507E+02  0.51100000000E-03 0. -1.
         22    1    1    0    0    0 -0.27115996761E+00  0.29007554020E+02 -0.58463921049E+01  0.29592093853E+02  0.00000000000E+00 0.  1.
</event>
<event>
 5    1  0.8875601E-005  0.9118800E+02  0.7818608E-02  0.1130116E+00
         25   -1    0    0    0    0  0.00000000000E+00  0.00000000000E+00  0.99999998245E-14  0.12500000000E+03  0.12500000000E+03 0.  0.
        -11    1    3    3    0    0  0.72522538561E+01  0.53112967295E+02  0.25866495010E+02  0.59520232234E+02  0.51100000000E-03 0.  1.
         23    2    1    0    0    0  0.72618032362E+01  0.28653735463E+02 -0.43509888306E+00  0.95437191384E+02  0.90743031942E+02 0.  0.
         11    1    3    3    0    0  0.95493800769E-02 -0.24459231832E+02 -0.26301593893E+02  0.35916959150E+02  0.51100000000E-03 0. -1.
         22    1    1    0    0    0 -0.72618032362E+01 -0.28653735463E+02  0.43509888306E+00  0.29562808616E+02  0.00000000000E+00 0.  1.
</event>
<event>
 5    1  0.8875601E-005  0.9118800E+02  0.7818608E-02  0.1130116E+00
         25   -1    0    0    0    0  0.00000000000E+00  0.00000000000E+00  0.99999998245E-14  0.12500000000E+03  0.12500000000E+03 0.  0.
        -11    1    3    3    0    0 -0.81803161569E+01  0.99481767507E+01 -0.41240268676E+02  0.43204670509E+02  0.51100000000E-03 0.  1.
         23    2    1    0    0    0  0.24021955564E+02  0.17624290791E+02 -0.11668877311E+01  0.95183367024E+02  0.90392708534E+02 0.  0.
         11    1    3    3    0    0  0.32202271721E+02  0.76761140400E+01  0.40073380945E+02  0.51978696515E+02  0.51100000000E-03 0. -1.
         22    1    1    0    0    0 -0.24021955564E+02 -0.17624290791E+02  0.11668877311E+01  0.29816632976E+02  0.00000000000E+00 0. -1.
</event>
<event>
 5    1  0.8875601E-005  0.9118800E+02  0.7818608E-02  0.1130116E+00
         25   -1    0    0    0    0  0.00000000000E+00  0.00000000000E+00  0.99999998245E-14  0.12500000000E+03  0.12500000000E+03 0.  0.
        -11    1    3    3    0    0 -0.56136936700E+02 -0.33932171633E+01 -0.15669879523E+02  0.58381629896E+02  0.51100000000E-03 0. -1.
         23    2    1    0    0    0 -0.18819556848E+02 -0.53367487551E+01 -0.21196983235E+02  0.96156132272E+02  0.91728038614E+02 0.  0.
         11    1    3    3    0    0  0.37317379852E+02 -0.19435315919E+01 -0.55271037124E+01  0.37774502376E+02  0.51100000000E-03 0.  1.
         22    1    1    0    0    0  0.18819556848E+02  0.53367487551E+01  0.21196983235E+02  0.28843867728E+02  0.00000000000E+00 0. -1.
</event>
<event>
 5    1  0.8875601E-005  0.9118800E+02  0.7818608E-02  0.1130116E+00
         25   -1    0    0    0    0  0.00000000000E+00  0.00000000000E+00  0.99999998245E-14  0.12500000000E+03  0.12500000000E+03 0.  0.
        -11    1    3    3    0    0 -0.12178974889E+02  0.57962708124E+02  0.85932939652E+01  0.59848539362E+02  0.51100000000E-03 0.  1.
         23    2    1    0    0    0 -0.16046044673E+02  0.24552382581E+02 -0.32126443465E+01  0.95493795165E+02  0.90820971098E+02 0.  0.
         11    1    3    3    0    0 -0.38670697841E+01 -0.33410325542E+02 -0.11805938312E+02  0.35645255803E+02  0.51100000000E-03 0. -1.
         22    1    1    0    0    0  0.16046044673E+02 -0.24552382581E+02  0.32126443465E+01  0.29506204835E+02  0.00000000000E+00 0.  1.
</event>
<event>
 5    1  0.8875601E-005  0.9118800E+02  0.7818608E-02  0.1130116E+00
         25   -1    0    0    0    0  0.00000000000E+00  0.00000000000E+00  0.99999998245E-14  0.12500000000E+03  0.12500000000E+03 0.  0.
        -11    1    3    3    0    0 -0.47009668856E+02  0.20195554186E+02  0.14084764216E+02  0.53067409567E+02  0.51100000000E-03 0.  1.
         23    2    1    0    0    0 -0.59348337775E+01  0.69181535772E+01  0.25667717732E+02  0.97761886364E+02  0.93890742839E+02 0.  0.
         11    1    3    3    0    0  0.41074835079E+02 -0.13277400609E+02  0.11582953516E+02  0.44694476796E+02  0.51100000000E-03 0. -1.
         22    1    1    0    0    0  0.59348337775E+01 -0.69181535772E+01 -0.25667717732E+02  0.27238113636E+02  0.00000000000E+00 0.  1.
</event>
<event>
 5    1  0.8875601E-005  0.9118800E+02  0.7818608E-02  0.1130116E+00
         25   -1    0    0    0    0  0.00000000000E+00  0.00000000000E+00  0.99999998245E-14  0.12500000000E+03  0.12500000000E+03 0.  0.
        -11    1    3    3    0    0 -0.35435155399E+02 -0.36972971298E+02  0.97597927508E+01  0.52133524718E+02  0.51100000000E-03 0.  1.
         23    2    1    0    0    0 -0.27685698122E+02  0.36443149008E+01 -0.60935490135E+01  0.96418358144E+02  0.92084686762E+02 0.  0.
         11    1    3    3    0    0  0.77494572767E+01  0.40617286198E+02 -0.15853341764E+02  0.44284833426E+02  0.51100000000E-03 0. -1.
         22    1    1    0    0    0  0.27685698122E+02 -0.36443149008E+01  0.60935490135E+01  0.28581641856E+02  0.00000000000E+00 0.  1.
</event>
<event>
 5    1  0.8875601E-005  0.9118800E+02  0.7818608E-02  0.1130116E+00
         25   -1    0    0    0    0  0.00000000000E+00  0.00000000000E+00  0.99999998245E-14  0.12500000000E+03  0.12500000000E+03 0.  0.
        -11    1    3    3    0    0  0.50024886410E+01 -0.22015956238E+02  0.29194057928E+02  0.36905558393E+02  0.51100000000E-03 0.  1.
         23    2    1    0    0    0  0.10217211882E+02  0.15349321719E+02 -0.19274062308E+02  0.98326369319E+02  0.94639274773E+02 0.  0.
         11    1    3    3    0    0  0.52147232413E+01  0.37365277957E+02 -0.48468120236E+02  0.61420810926E+02  0.51100000000E-03 0. -1.
         22    1    1    0    0    0 -0.10217211882E+02 -0.15349321719E+02  0.19274062308E+02  0.26673630681E+02  0.00000000000E+00 0. -1.
</event>
<event>
 5    1  0.8875601E-005  0.9118800E+02  0.7818608E-02  0.1130116E+00
         25   -1    0    0    0    0  0.00000000000E+00  0.00000000000E+00  0.99999998245E-14  0.12500000000E+03  0.12500000000E+03 0.  0.
        -11    1    3    3    0    0 -0.13851379474E+02 -0.57880479265E+02 -0.34219362755E+01  0.59613087836E+02  0.51100000000E-03 0.  1.
         23    2    1    0    0    0  0.35878362399E+01 -0.28003411672E+02  0.73152514635E+01  0.95835354654E+02  0.91289860683E+02 0.  0.
         11    1    3    3    0    0  0.17439215714E+02  0.29877067592E+02  0.10737187739E+02  0.36222266818E+02  0.51100000000E-03 0. -1.
         22    1    1    0    0    0 -0.35878362399E+01  0.28003411672E+02 -0.73152514635E+01  0.29164645346E+02  0.00000000000E+00 0.  1.
</event>
<event>
 5    1  0.8875601E-005  0.9118800E+02  0.7818608E-02  0.1130116E+00
         25   -1    0    0    0    0  0.00000000000E+00  0.00000000000E+00  0.99999998245E-14  0.12500000000E+03  0.12500000000E+03 0.  0.
        -11    1    3    3    0    0  0.19057117884E+02 -0.98323577429E+01  0.36660954090E+02  0.42472044404E+02  0.51100000000E-03 0.  1.
         23    2    1    0    0    0 -0.23518405980E+02  0.93453812209E+01  0.41880758778E+01  0.99348654040E+02  0.95980016201E+02 0.  0.
         11    1    3    3    0    0 -0.42575523863E+02  0.19177738964E+02 -0.32472878212E+02  0.56876609636E+02  0.51100000000E-03 0. -1.
         22    1    1    0    0    0  0.23518405980E+02 -0.93453812209E+01 -0.41880758778E+01  0.25651345960E+02  0.00000000000E+00 0. -1.
</event>
<event>
 5    1  0.8875601E-005  0.9118800E+02  0.7818608E-02  0.1130116E+00
         25   -1    0    0    0    0  0.00000000000E+00  0.00000000000E+00  0.99999998245E-14  0.12500000000E+03  0.12500000000E+03 0.  0.
        -11    1    3    3    0    0  0.34065112476E+02  0.86156165164E+01 -0.91973586846E+01  0.36321510748E+02  0.51100000000E-03 0.  1.
         23    2    1    0    0    0 -0.24213233111E+02  0.16580765189E+02 -0.19048201849E+01  0.95591994766E+02  0.90956026141E+02 0.  0.
         11    1    3    3    0    0 -0.58278345587E+02  0.79651486721E+01  0.72925384997E+01  0.59270484018E+02  0.51100000000E-03 0. -1.
         22    1    1    0    0    0  0.24213233111E+02 -0.16580765189E+02  0.19048201849E+01  0.29408005234E+02  0.00000000000E+00 0. -1.
</event>
<event>
 5    1  0.8875601E-005  0.9118800E+02  0.7818608E-02  0.1130116E+00
         25   -1    0    0    0    0  0.00000000000E+00  0.00000000000E+00  0.99999998245E-14  0.12500000000E+03  0.12500000000E+03 0.  0.
        -11    1    3    3    0    0  0.25998230212E+02 -0.22093462771E+02 -0.12413918972E+02  0.36306121465E+02  0.51100000000E-03 0.  1.
         23    2    1    0    0    0 -0.27691720531E+02 -0.90190595334E+01  0.72987909239E+01  0.94975890192E+02  0.90105341395E+02 0.  0.
         11    1    3    3    0    0 -0.53689950743E+02  0.13074403237E+02  0.19712709895E+02  0.58669768727E+02  0.51100000000E-03 0. -1.
         22    1    1    0    0    0  0.27691720531E+02  0.90190595334E+01 -0.72987909239E+01  0.30024109808E+02  0.00000000000E+00 0. -1.
</event>
<event>
 5    1  0.8875601E-005  0.9118800E+02  0.7818608E-02  0.1130116E+00
         25   -1    0    0    0    0  0.00000000000E+00  0.00000000000E+00  0.99999998245E-14  0.12500000000E+03  0.12500000000E+03 0.  0.
        -11    1    3    3    0    0 -0.14514579943E+02  0.17271802640E+02  0.45975359139E+02  0.51212516493E+02  0.51100000000E-03 0.  1.
         23    2    1    0    0    0 -0.79671371335E+01  0.29007482553E+02  0.47844391978E+01  0.94540187515E+02  0.89498865238E+02 0.  0.
         11    1    3    3    0    0  0.65474428092E+01  0.11735679913E+02 -0.41190919941E+02  0.43327671022E+02  0.51100000000E-03 0. -1.
         22    1    1    0    0    0  0.79671371335E+01 -0.29007482553E+02 -0.47844391978E+01  0.30459812485E+02  0.00000000000E+00 0. -1.
</event>
<event>
 5    1  0.8875601E-005  0.9118800E+02  0.7818608E-02  0.1130116E+00
         25   -1    0    0    0    0  0.00000000000E+00  0.00000000000E+00  0.99999998245E-14  0.12500000000E+03  0.12500000000E+03 0.  0.
        -11    1    3    3    0    0 -0.15220658319E+01 -0.37728045166E+02 -0.11243377143E+01  0.37775471036E+02  0.51100000000E-03 0.  1.
         23    2    1    0    0    0  0.15926237561E+02  0.14638386428E+02 -0.19424669626E+02  0.95926899200E+02  0.91415123475E+02 0.  0.
         11    1    3    3    0    0  0.17448303393E+02  0.52366431594E+02 -0.18300331912E+02  0.58151428164E+02  0.51100000000E-03 0. -1.
         22    1    1    0    0    0 -0.15926237561E+02 -0.14638386428E+02  0.19424669626E+02  0.29073100800E+02  0.00000000000E+00 0. -1.
</event>
<event>
 5    1  0.8875601E-005  0.9118800E+02  0.7818608E-02  0.1130116E+00
         25   -1    0    0    0    0  0.00000000000E+00  0.00000000000E+00  0.99999998245E-14  0.12500000000E+03  0.12500000000E+03 0.  0.
        -11    1    3    3    0    0  0.53238740727E+02  0.29838685372E+02 -0.79342277376E+01  0.61543989382E+02  0.51100000000E-03 0. -1.
         23    2    1    0    0    0  0.20761456879E+02  0.20407782938E+02 -0.45977970814E+01  0.95527038931E+02  0.90866714108E+02 0.  0.
         11    1    3    3    0    0 -0.32477283848E+02 -0.94309024350E+01  0.33364306562E+01  0.33983049550E+02  0.51100000000E-03 0.  1.
         22    1    1    0    0    0 -0.20761456879E+02 -0.20407782938E+02  0.45977970814E+01  0.29472961069E+02  0.00000000000E+00 0. -1.
</event>
<event>
 5    1  0.8875601E-005  0.9118800E+02  0.7818608E-02  0.1130116E+00
         25   -1    0    0    0    0  0.00000000000E+00  0.00000000000E+00  0.99999998245E-14  0.12500000000E+03  0.12500000000E+03 0.  0.
        -11    1    3    3    0    0 -0.12797661855E+02 -0.32813834634E+01  0.44751957590E+02  0.46661390193E+02  0.51100000000E-03 0.  1.
         23    2    1    0    0    0 -0.66466947052E+01 -0.30278549059E+02  0.74483905913E+01  0.93118224547E+02  0.87490320246E+02 0.  0.
         11    1    3    3    0    0  0.61509671496E+01 -0.26997165596E+02 -0.37303566998E+02  0.46456834354E+02  0.51100000000E-03 0. -1.
         22    1    1    0    0    0  0.66466947052E+01  0.30278549059E+02 -0.74483905913E+01  0.31881775453E+02  0.00000000000E+00 0.  1.
</event>
<event>
 5    1  0.8875601E-005  0.9118800E+02  0.7818608E-02  0.1130116E+00
         25   -1    0    0    0    0  0.00000000000E+00  0.00000000000E+00  0.99999998245E-14  0.12500000000E+03  0.12500000000E+03 0.  0.
        -11    1    3    3    0    0  0.32803262865E+02  0.24656367307E+02 -0.14497348646E+02  0.43521990090E+02  0.51100000000E-03 0.  1.
         23    2    1    0    0    0  0.42939588088E-01  0.17373861197E+02  0.24495760326E+02  0.94968430433E+02  0.90094992138E+02 0.  0.
         11    1    3    3    0    0 -0.32760323277E+02 -0.72825061106E+01  0.38993108972E+02  0.51446440343E+02  0.51100000000E-03 0. -1.
         22    1    1    0    0    0 -0.42939588088E-01 -0.17373861197E+02 -0.24495760326E+02  0.30031569567E+02  0.00000000000E+00 0.  1.
</event>
<event>
 5    1  0.8875601E-005  0.9118800E+02  0.7818608E-02  0.1130116E+00
         25   -1    0    0    0    0  0.00000000000E+00  0.00000000000E+00  0.99999998245E-14  0.12500000000E+03  0.12500000000E+03 0.  0.
        -11    1    3    3    0    0 -0.29048908545E+02  0.31494245203E+02  0.19635034547E+02  0.47130257272E+02  0.51100000000E-03 0.  1.
         23    2    1    0    0    0 -0.57138028438E+01 -0.29145673504E+01 -0.19649782406E+02  0.10432982355E+03  0.10226170294E+03 0.  0.
         11    1    3    3    0    0  0.23335105702E+02 -0.34408812553E+02 -0.39284816953E+02  0.57199566281E+02  0.51100000000E-03 0. -1.
         22    1    1    0    0    0  0.57138028438E+01  0.29145673504E+01  0.19649782406E+02  0.20670176447E+02  0.00000000000E+00 0. -1.
</event>
<event>
 5    1  0.8875601E-005  0.9118800E+02  0.7818608E-02  0.1130116E+00
         25   -1    0    0    0    0  0.00000000000E+00  0.00000000000E+00  0.99999998245E-14  0.12500000000E+03  0.12500000000E+03 0.  0.
        -11    1    3    3    0    0 -0.17310409837E+02  0.86013652380E-01 -0.50302829755E+02  0.53198048542E+02  0.51100000000E-03 0.  1.
         23    2    1    0    0    0  0.29618091247E+01  0.21491027418E+02 -0.19604154965E+02  0.95760310113E+02  0.91187046933E+02 0.  0.
         11    1    3    3    0    0  0.20272218962E+02  0.21405013766E+02  0.30698674790E+02  0.42562261571E+02  0.51100000000E-03 0. -1.
         22    1    1    0    0    0 -0.29618091247E+01 -0.21491027418E+02  0.19604154965E+02  0.29239689887E+02  0.00000000000E+00 0.  1.
</event>
<event>
 5    1  0.8875601E-005  0.9118800E+02  0.7818608E-02  0.1130116E+00
         25   -1    0    0    0    0  0.00000000000E+00  0.00000000000E+00  0.99999998245E-14  0.12500000000E+03  0.12500000000E+03 0.  0.
        -11    1    3    3    0    0  0.16390410450E+02 -0.27042904349E+02  0.32875551293E+01  0.31792644579E+02  0.51100000000E-03 0.  1.
         23    2    1    0    0    0  0.45590547659E+01  0.11141120367E+01 -0.39975423391E+02  0.84750022344E+02  0.74582206900E+02 0.  0.
         11    1    3    3    0    0 -0.11831355684E+02  0.28157016385E+02 -0.43262978521E+02  0.52957377765E+02  0.51100000000E-03 0. -1.
         22    1    1    0    0    0 -0.45590547659E+01 -0.11141120367E+01  0.39975423391E+02  0.40249977656E+02  0.00000000000E+00 0. -1.
</event>
<event>
 5    1  0.8875601E-005  0.9118800E+02  0.7818608E-02  0.1130116E+00
         25   -1    0    0    0    0  0.00000000000E+00  0.00000000000E+00  0.99999998245E-14  0.12500000000E+03  0.12500000000E+03 0.  0.
        -11    1    3    3    0    0 -0.23373600040E+02  0.30874544005E+02  0.44937530039E+02  0.59320689920E+02  0.51100000000E-03 0.  1.
         23    2    1    0    0    0 -0.18434376408E+02  0.19590364516E+02  0.10109045928E+02  0.96263239135E+02  0.91873879769E+02 0.  0.
         11    1    3    3    0    0  0.49392236318E+01 -0.11284179488E+02 -0.34828484111E+02  0.36942549215E+02  0.51100000000E-03 0. -1.
         22    1    1    0    0    0  0.18434376408E+02 -0.19590364516E+02 -0.10109045928E+02  0.28736760865E+02  0.00000000000E+00 0.  1.
</event>
<event>
 5    1  0.8875601E-005  0.9118800E+02  0.7818608E-02  0.1130116E+00
         25   -1    0    0    0    0  0.00000000000E+00  0.00000000000E+00  0.99999998245E-14  0.12500000000E+03  0.12500000000E+03 0.  0.
        -11    1    3    3    0    0 -0.21869780668E+02 -0.21634011098E+01  0.49802329411E+02  0.54435646647E+02  0.51100000000E-03 0. -1.
         23    2    1    0    0    0 -0.23939354950E+02 -0.16946200660E+02  0.15542507831E+02  0.91806085167E+02  0.85595100863E+02 0.  0.
         11    1    3    3    0    0 -0.20695742823E+01 -0.14782799551E+02 -0.34259821580E+02  0.37370438520E+02  0.51100000000E-03 0.  1.
         22    1    1    0    0    0  0.23939354950E+02  0.16946200660E+02 -0.15542507831E+02  0.33193914833E+02  0.00000000000E+00 0. -1.
</event>
<event>
 5    1  0.8875601E-005  0.9118800E+02  0.7818608E-02  0.1130116E+00
         25   -1    0    0    0    0  0.00000000000E+00  0.00000000000E+00  0.99999998245E-14  0.12500000000E+03  0.12500000000E+03 0.  0.
        -11    1    3    3    0    0 -0.81722706050E+01 -0.13687850309E+02  0.58779721354E+02  0.60903192819E+02  0.51100000000E-03 0.  1.
         23    2    1    0    0    0 -0.43127385983E+01 -0.15769073310E+02  0.23983349984E+02  0.95974761607E+02  0.91480546576E+02 0.  0.
         11    1    3    3    0    0  0.38595320067E+01 -0.20812230017E+01 -0.34796371369E+02  0.35071568788E+02  0.51100000000E-03 0. -1.
         22    1    1    0    0    0  0.43127385983E+01  0.15769073310E+02 -0.23983349984E+02  0.29025238393E+02  0.00000000000E+00 0.  1.
</event>
<event>
 5    1  0.8875601E-005  0.9118800E+02  0.7818608E-02  0.1130116E+00
         25   -1    0    0    0    0  0.00000000000E+00  0.00000000000E+00  0.99999998245E-14  0.12500000000E+03  0.12500000000E+03 0.  0.
        -11    1    3    3    0    0  0.31924401903E+02 -0.25053762872E+02  0.15405295965E+02  0.43407160871E+02  0.51100000000E-03 0.  1.
         23    2    1    0    0    0 -0.73147536604E+01 -0.30117320494E+02 -0.12244746849E+02  0.91675948022E+02  0.85404841815E+02 0.  0.
         11    1    3    3    0    0 -0.39239155563E+02 -0.50635576227E+01 -0.27650042813E+02  0.48268787150E+02  0.51100000000E-03 0. -1.
         22    1    1    0    0    0  0.73147536604E+01  0.30117320494E+02  0.12244746849E+02  0.33324051978E+02  0.00000000000E+00 0. -1.
</event>
<event>
 5    1  0.8875601E-005  0.9118800E+02  0.7818608E-02  0.1130116E+00
         25   -1    0    0    0    0  0.00000000000E+00  0.00000000000E+00  0.99999998245E-14  0.12500000000E+03  0.12500000000E+03 0.  0.
        -11    1    3    3    0    0  0.37436139798E+02 -0.40444242735E+01 -0.25276092889E-01  0.37653984780E+02  0.51100000000E-03 0.  1.
         23    2    1    0    0    0 -0.15444760282E+00  0.29833468095E+02  0.16524465870E+02  0.90895489376E+02  0.84254806059E+02 0.  0.
         11    1    3    3    0    0 -0.37590587400E+02  0.33877892368E+02  0.16549741963E+02  0.53241504596E+02  0.51100000000E-03 0. -1.
         22    1    1    0    0    0  0.15444760282E+00 -0.29833468095E+02 -0.16524465870E+02  0.34104510624E+02  0.00000000000E+00 0. -1.
</event>
<event>
 5    1  0.8875601E-005  0.9118800E+02  0.7818608E-02  0.1130116E+00
         25   -1    0    0    0    0  0.00000000000E+00  0.00000000000E+00  0.99999998245E-14  0.12500000000E+03  0.12500000000E+03 0.  0.
        -11    1    3    3    0    0  0.50563422075E+01 -0.39036199751E+02  0.15471835037E+02  0.42293843136E+02  0.51100000000E-03 0.  1.
         23    2    1    0    0    0  0.20872329139E+02  0.10290603748E+01 -0.18451408146E+02  0.97122274994E+02  0.93035309149E+02 0.  0.
         11    1    3    3    0    0  0.15815986931E+02  0.40065260126E+02 -0.33923243184E+02  0.54828431858E+02  0.51100000000E-03 0. -1.
         22    1    1    0    0    0 -0.20872329139E+02 -0.10290603748E+01  0.18451408146E+02  0.27877725006E+02  0.00000000000E+00 0. -1.
</event>
<event>
 5    1  0.8875601E-005  0.9118800E+02  0.7818608E-02  0.1130116E+00
         25   -1    0    0    0    0  0.00000000000E+00  0.00000000000E+00  0.99999998245E-14  0.12500000000E+03  0.12500000000E+03 0.  0.
        -11    1    3    3    0    0 -0.30929043435E+02 -0.14748450638E+02  0.21604507208E+02  0.40507743161E+02  0.51100000000E-03 0.  1.
         23    2    1    0    0    0 -0.78025086776E+01 -0.50823844041E+01 -0.27677660039E+02  0.95797900107E+02  0.91238561074E+02 0.  0.
         11    1    3    3    0    0  0.23126534757E+02  0.96660662336E+01 -0.49282167247E+02  0.55290156946E+02  0.51100000000E-03 0. -1.
         22    1    1    0    0    0  0.78025086776E+01  0.50823844041E+01  0.27677660039E+02  0.29202099893E+02  0.00000000000E+00 0. -1.
</event>
<event>
 5    1  0.8875601E-005  0.9118800E+02  0.7818608E-02  0.1130116E+00
         25   -1    0    0    0    0  0.00000000000E+00  0.00000000000E+00  0.99999998245E-14  0.12500000000E+03  0.12500000000E+03 0.  0.
        -11    1    3    3    0    0  0.66098808180E+01 -0.19382486372E+02 -0.29814430970E+02  0.36170037278E+02  0.51100000000E-03 0. -1.
         23    2    1    0    0    0 -0.82079989220E+01  0.25487988417E+02  0.83935471906E+01  0.96938274567E+02  0.92787761271E+02 0.  0.
         11    1    3    3    0    0 -0.14817879740E+02  0.44870474789E+02  0.38207978160E+02  0.60768237289E+02  0.51100000000E-03 0.  1.
         22    1    1    0    0    0  0.82079989220E+01 -0.25487988417E+02 -0.83935471906E+01  0.28061725433E+02  0.00000000000E+00 0.  1.
</event>
<event>
 5    1  0.8875601E-005  0.9118800E+02  0.7818608E-02  0.1130116E+00
         25   -1    0    0    0    0  0.00000000000E+00  0.00000000000E+00  0.99999998245E-14  0.12500000000E+03  0.12500000000E+03 0.  0.
        -11    1    3    3    0    0  0.18178981541E+02  0.37042505145E+02 -0.14583194402E+02  0.43764050504E+02  0.51100000000E-03 0. -1.
         23    2    1    0    0    0  0.63741250553E+01  0.74651408965E+01  0.27074983033E+02  0.96200477346E+02  0.91788448819E+02 0.  0.
         11    1    3    3    0    0 -0.11804856485E+02 -0.29577364248E+02  0.41658177435E+02  0.52436426843E+02  0.51100000000E-03 0.  1.
         22    1    1    0    0    0 -0.63741250553E+01 -0.74651408965E+01 -0.27074983033E+02  0.28799522654E+02  0.00000000000E+00 0. -1.
</event>
<event>
 5    1  0.8875601E-005  0.9118800E+02  0.7818608E-02  0.1130116E+00
         25   -1    0    0    0    0  0.00000000000E+00  0.00000000000E+00  0.99999998245E-14  0.12500000000E+03  0.12500000000E+03 0.  0.
        -11    1    3    3    0    0  0.30648714238E+02  0.20449298509E+02  0.88226284673E+01  0.37886095962E+02  0.51100000000E-03 0. -1.
         23    2    1    0    0    0  0.11147061045E+02 -0.25501884858E+02 -0.15204668241E+02  0.93285885830E+02  0.87729535834E+02 0.  0.
         11    1    3    3    0    0 -0.19501653193E+02 -0.45951183367E+02 -0.24027296708E+02  0.55399789868E+02  0.51100000000E-03 0.  1.
         22    1    1    0    0    0 -0.11147061045E+02  0.25501884858E+02  0.15204668241E+02  0.31714114170E+02  0.00000000000E+00 0.  1.
</event>
<event>
 5    1  0.8875601E-005  0.9118800E+02  0.7818608E-02  0.1130116E+00
         25   -1    0    0    0    0  0.00000000000E+00  0.00000000000E+00  0.99999998245E-14  0.12500000000E+03  0.12500000000E+03 0.  0.
        -11    1    3    3    0    0 -0.37120495533E+02 -0.21659420912E+02  0.10130556276E+02  0.44155292702E+02  0.51100000000E-03 0.  1.
         23    2    1    0    0    0 -0.16650321081E+01  0.11430443020E+01  0.32880658265E+02  0.92057374571E+02  0.85961291537E+02 0.  0.
         11    1    3    3    0    0  0.35455463425E+02  0.22802465215E+02  0.22750101990E+02  0.47902081869E+02  0.51100000000E-03 0. -1.
         22    1    1    0    0    0  0.16650321081E+01 -0.11430443020E+01 -0.32880658265E+02  0.32942625429E+02  0.00000000000E+00 0.  1.
</event>
<event>
 5    1  0.8875601E-005  0.9118800E+02  0.7818608E-02  0.1130116E+00
         25   -1    0    0    0    0  0.00000000000E+00  0.00000000000E+00  0.99999998245E-14  0.12500000000E+03  0.12500000000E+03 0.  0.
        -11    1    3    3    0    0 -0.45424218593E+02 -0.83912723876E+01  0.12998842356E+02  0.47986904359E+02  0.51100000000E-03 0.  1.
         23    2    1    0    0    0 -0.16689046867E+02  0.21232355239E+02 -0.11126243285E+02  0.95791602510E+02  0.91229932738E+02 0.  0.
         11    1    3    3    0    0  0.28735171726E+02  0.29623627627E+02 -0.24125085641E+02  0.47804698151E+02  0.51100000000E-03 0. -1.
         22    1    1    0    0    0  0.16689046867E+02 -0.21232355239E+02  0.11126243285E+02  0.29208397490E+02  0.00000000000E+00 0. -1.
</event>
<event>
 5    1  0.8875601E-005  0.9118800E+02  0.7818608E-02  0.1130116E+00
         25   -1    0    0    0    0  0.00000000000E+00  0.00000000000E+00  0.99999998245E-14  0.12500000000E+03  0.12500000000E+03 0.  0.
        -11    1    3    3    0    0 -0.88467465452E+01  0.28441527424E+02 -0.31144953864E+02  0.43095168617E+02  0.51100000000E-03 0.  1.
         23    2    1    0    0    0  0.77295558326E+01 -0.19979707949E+02 -0.20455850865E+02  0.95379456492E+02  0.90663466309E+02 0.  0.
         11    1    3    3    0    0  0.16576302378E+02 -0.48421235372E+02  0.10689102999E+02  0.52284287876E+02  0.51100000000E-03 0. -1.
         22    1    1    0    0    0 -0.77295558326E+01  0.19979707949E+02  0.20455850865E+02  0.29620543508E+02  0.00000000000E+00 0. -1.
</event>
<event>
 5    1  0.8875601E-005  0.9118800E+02  0.7818608E-02  0.1130116E+00
         25   -1    0    0    0    0  0.00000000000E+00  0.00000000000E+00  0.99999998245E-14  0.12500000000E+03  0.12500000000E+03 0.  0.
        -11    1    3    3    0    0 -0.87935677247E+01 -0.33396056105E+01 -0.55293553653E+02  0.56087938764E+02  0.51100000000E-03 0.  1.
         23    2    1    0    0    0  0.14543099170E+02  0.63377953833E+01 -0.21378937765E+02  0.98378047334E+02  0.94707506743E+02 0.  0.
         11    1    3    3    0    0  0.23336666894E+02  0.96774009937E+01  0.33914615888E+02  0.42290108570E+02  0.51100000000E-03 0. -1.
         22    1    1    0    0    0 -0.14543099170E+02 -0.63377953833E+01  0.21378937765E+02  0.26621952666E+02  0.00000000000E+00 0.  1.
</event>
<event>
 5    1  0.8875601E-005  0.9118800E+02  0.7818608E-02  0.1130116E+00
         25   -1    0    0    0    0  0.00000000000E+00  0.00000000000E+00  0.99999998245E-14  0.12500000000E+03  0.12500000000E+03 0.  0.
        -11    1    3    3    0    0  0.55192565828E+02 -0.13957069991E+02 -0.19282681050E+02  0.60106912366E+02  0.51100000000E-03 0. -1.
         23    2    1    0    0    0  0.24827349110E+02  0.55498037740E+00 -0.18947846580E+02  0.93763384353E+02  0.88407273956E+02 0.  0.
         11    1    3    3    0    0 -0.30365216719E+02  0.14512050368E+02  0.33483447034E+00  0.33656471987E+02  0.51100000000E-03 0.  1.
         22    1    1    0    0    0 -0.24827349110E+02 -0.55498037740E+00  0.18947846580E+02  0.31236615647E+02  0.00000000000E+00 0. -1.
</event>
<event>
 5    1  0.8875601E-005  0.9118800E+02  0.7818608E-02  0.1130116E+00
         25   -1    0    0    0    0  0.00000000000E+00  0.00000000000E+00  0.99999998245E-14  0.12500000000E+03  0.12500000000E+03 0.  0.
        -11    1    3    3    0    0  0.49230398631E+02 -0.19086202555E+02  0.33125207403E+02  0.62331329547E+02  0.51100000000E-03 0.  1.
         23    2    1    0    0    0  0.20940846690E+02 -0.10271470102E+02  0.17579741277E+02  0.95792647133E+02  0.91231364033E+02 0.  0.
         11    1    3    3    0    0 -0.28289551941E+02  0.88147324529E+01 -0.15545466126E+02  0.33461317586E+02  0.51100000000E-03 0. -1.
         22    1    1    0    0    0 -0.20940846690E+02  0.10271470102E+02 -0.17579741277E+02  0.29207352867E+02  0.00000000000E+00 0.  1.
</event>
<event>
 5    1  0.8875601E-005  0.9118800E+02  0.7818608E-02  0.1130116E+00
         25   -1    0    0    0    0  0.00000000000E+00  0.00000000000E+00  0.99999998245E-14  0.12500000000E+03  0.12500000000E+03 0.  0.
        -11    1    3    3    0    0 -0.22510354131E+02  0.48346857585E+02 -0.15714496170E+02  0.55597482602E+02  0.51100000000E-03 0.  1.
         23    2    1    0    0    0 -0.26478320843E+02  0.99912243065E+01 -0.11735750129E+02  0.94362541409E+02  0.89250408136E+02 0.  0.
         11    1    3    3    0    0 -0.39679667113E+01 -0.38355633279E+02  0.39787460410E+01  0.38765058808E+02  0.51100000000E-03 0. -1.
         22    1    1    0    0    0  0.26478320843E+02 -0.99912243065E+01  0.11735750129E+02  0.30637458591E+02  0.00000000000E+00 0.  1.
</event>
<event>
 5    1  0.8875601E-005  0.9118800E+02  0.7818608E-02  0.1130116E+00
         25   -1    0    0    0    0  0.00000000000E+00  0.00000000000E+00  0.99999998245E-14  0.12500000000E+03  0.12500000000E+03 0.  0.
        -11    1    3    3    0    0 -0.27671192650E+02 -0.47178243490E+02 -0.12566010704E+02  0.56119392252E+02  0.51100000000E-03 0. -1.
         23    2    1    0    0    0  0.62327924513E+01 -0.27609235357E+02 -0.83386972170E+01  0.95493196547E+02  0.90820147196E+02 0.  0.
         11    1    3    3    0    0  0.33903985101E+02  0.19569008133E+02  0.42273134874E+01  0.39373804294E+02  0.51100000000E-03 0.  1.
         22    1    1    0    0    0 -0.62327924513E+01  0.27609235357E+02  0.83386972170E+01  0.29506803453E+02  0.00000000000E+00 0. -1.
</event>
<event>
 5    1  0.8875601E-005  0.9118800E+02  0.7818608E-02  0.1130116E+00
         25   -1    0    0    0    0  0.00000000000E+00  0.00000000000E+00  0.99999998245E-14  0.12500000000E+03  0.12500000000E+03 0.  0.
        -11    1    3    3    0    0  0.47966874799E+02 -0.19851427469E+01 -0.37496123230E+02  0.60915688679E+02  0.51100000000E-03 0.  1.
         23    2    1    0    0    0  0.24366075461E+02 -0.94232761715E+01 -0.12680894297E+02  0.95960219571E+02  0.91460674024E+02 0.  0.
         11    1    3    3    0    0 -0.23600799338E+02 -0.74381334245E+01  0.24815228933E+02  0.35044530893E+02  0.51100000000E-03 0. -1.
         22    1    1    0    0    0 -0.24366075461E+02  0.94232761715E+01  0.12680894297E+02  0.29039780429E+02  0.00000000000E+00 0.  1.
</event>
<event>
 5    1  0.8875601E-005  0.9118800E+02  0.7818608E-02  0.1130116E+00
         25   -1    0    0    0    0  0.00000000000E+00  0.00000000000E+00  0.99999998245E-14  0.12500000000E+03  0.12500000000E+03 0.  0.
        -11    1    3    3    0    0  0.26714714020E+02 -0.17016322671E+02  0.14910670202E+02  0.35007988639E+02  0.51100000000E-03 0.  1.
         23    2    1    0    0    0 -0.11525536187E+02  0.17626677468E+02  0.29613981936E+02  0.88660962189E+02  0.80871753704E+02 0.  0.
         11    1    3    3    0    0 -0.38240250206E+02  0.34643000139E+02  0.14703311734E+02  0.53652973550E+02  0.51100000000E-03 0. -1.
         22    1    1    0    0    0  0.11525536187E+02 -0.17626677468E+02 -0.29613981936E+02  0.36339037811E+02  0.00000000000E+00 0.  1.
</event>
<event>
 5    1  0.8875601E-005  0.9118800E+02  0.7818608E-02  0.1130116E+00
         25   -1    0    0    0    0  0.00000000000E+00  0.00000000000E+00  0.99999998245E-14  0.12500000000E+03  0.12500000000E+03 0.  0.
        -11    1    3    3    0    0  0.20694029379E+02  0.26709216402E+02 -0.12360136118E+02  0.35977743924E+02  0.51100000000E-03 0.  1.
         23    2    1    0    0    0 -0.10855073961E+02 -0.22353745608E+02 -0.17607401960E+02  0.94544406471E+02  0.89504757515E+02 0.  0.
         11    1    3    3    0    0 -0.31549103340E+02 -0.49062962011E+02 -0.52472658423E+01  0.58566662547E+02  0.51100000000E-03 0. -1.
         22    1    1    0    0    0  0.10855073961E+02  0.22353745608E+02  0.17607401960E+02  0.30455593529E+02  0.00000000000E+00 0. -1.
</event>
<event>
 5    1  0.8875601E-005  0.9118800E+02  0.7818608E-02  0.1130116E+00
         25   -1    0    0    0    0  0.00000000000E+00  0.00000000000E+00  0.99999998245E-14  0.12500000000E+03  0.12500000000E+03 0.  0.
        -11    1    3    3    0    0 -0.14419895395E+02 -0.37805023856E+02 -0.30770585673E+02  0.50832884581E+02  0.51100000000E-03 0.  1.
         23    2    1    0    0    0  0.14237236799E+01  0.54057729524E+01 -0.27461261127E+02  0.96975542235E+02  0.92837953224E+02 0.  0.
         11    1    3    3    0    0  0.15843619075E+02  0.43210796808E+02  0.33093245460E+01  0.46142657654E+02  0.51100000000E-03 0. -1.
         22    1    1    0    0    0 -0.14237236799E+01 -0.54057729524E+01  0.27461261127E+02  0.28024457765E+02  0.00000000000E+00 0.  1.
</event>
<event>
 5    1  0.8875601E-005  0.9118800E+02  0.7818608E-02  0.1130116E+00
         25   -1    0    0    0    0  0.00000000000E+00  0.00000000000E+00  0.99999998245E-14  0.12500000000E+03  0.12500000000E+03 0.  0.
        -11    1    3    3    0    0  0.54610132660E-01 -0.13568862699E+01 -0.41448996543E+02  0.41471236265E+02  0.51100000000E-03 0.  1.
         23    2    1    0    0    0  0.21579050992E+02 -0.19364939941E+02  0.48415606881E+01  0.95604472270E+02  0.90973172240E+02 0.  0.
         11    1    3    3    0    0  0.21524440859E+02 -0.18008053671E+02  0.46290557231E+02  0.54133236005E+02  0.51100000000E-03 0. -1.
         22    1    1    0    0    0 -0.21579050992E+02  0.19364939941E+02 -0.48415606881E+01  0.29395527730E+02  0.00000000000E+00 0. -1.
</event>
<event>
 5    1  0.8875601E-005  0.9118800E+02  0.7818608E-02  0.1130116E+00
         25   -1    0    0    0    0  0.00000000000E+00  0.00000000000E+00  0.99999998245E-14  0.12500000000E+03  0.12500000000E+03 0.  0.
        -11    1    3    3    0    0 -0.29452463320E+02 -0.23769078517E+02 -0.62930959440E+01  0.38366909518E+02  0.51100000000E-03 0.  1.
         23    2    1    0    0    0  0.21035970158E+02 -0.57869961957E+01 -0.21797470584E+02  0.94159586751E+02  0.88965705122E+02 0.  0.
         11    1    3    3    0    0  0.50488433478E+02  0.17982082321E+02 -0.15504374640E+02  0.55792677234E+02  0.51100000000E-03 0. -1.
         22    1    1    0    0    0 -0.21035970158E+02  0.57869961957E+01  0.21797470584E+02  0.30840413249E+02  0.00000000000E+00 0. -1.
</event>
<event>
 5    1  0.8875601E-005  0.9118800E+02  0.7818608E-02  0.1130116E+00
         25   -1    0    0    0    0  0.00000000000E+00  0.00000000000E+00  0.99999998245E-14  0.12500000000E+03  0.12500000000E+03 0.  0.
        -11    1    3    3    0    0 -0.53112907001E+02 -0.47277133324E+01 -0.35080702080E+01  0.53438176618E+02  0.51100000000E-03 0.  1.
         23    2    1    0    0    0 -0.17032985125E+02 -0.19382387997E+02  0.13437252824E+02  0.95907744841E+02  0.91388928270E+02 0.  0.
         11    1    3    3    0    0  0.36079921876E+02 -0.14654674665E+02  0.16945323032E+02  0.42469568223E+02  0.51100000000E-03 0. -1.
         22    1    1    0    0    0  0.17032985125E+02  0.19382387997E+02 -0.13437252824E+02  0.29092255159E+02  0.00000000000E+00 0.  1.
</event>
<event>
 5    1  0.8875601E-005  0.9118800E+02  0.7818608E-02  0.1130116E+00
         25   -1    0    0    0    0  0.00000000000E+00  0.00000000000E+00  0.99999998245E-14  0.12500000000E+03  0.12500000000E+03 0.  0.
        -11    1    3    3    0    0  0.74012078865E+01  0.97166748951E+01  0.34318305512E+02  0.36427156665E+02  0.51100000000E-03 0.  1.
         23    2    1    0    0    0  0.19191761548E+02 -0.14914544977E+02 -0.17533434701E+02  0.95030203611E+02  0.90180657032E+02 0.  0.
         11    1    3    3    0    0  0.11790553662E+02 -0.24631219872E+02 -0.51851740213E+02  0.58603046946E+02  0.51100000000E-03 0. -1.
         22    1    1    0    0    0 -0.19191761548E+02  0.14914544977E+02  0.17533434701E+02  0.29969796389E+02  0.00000000000E+00 0. -1.
</event>
<event>
 5    1  0.8875601E-005  0.9118800E+02  0.7818608E-02  0.1130116E+00
         25   -1    0    0    0    0  0.00000000000E+00  0.00000000000E+00  0.99999998245E-14  0.12500000000E+03  0.12500000000E+03 0.  0.
        -11    1    3    3    0    0 -0.15834285493E+02 -0.34263557635E+02  0.18738078535E+01  0.37791892450E+02  0.51100000000E-03 0. -1.
         23    2    1    0    0    0 -0.15748341345E+02  0.23443475719E+02 -0.62689860726E+01  0.96070655118E+02  0.91611482793E+02 0.  0.
         11    1    3    3    0    0  0.85944147775E-01  0.57707033354E+02 -0.81427939260E+01  0.58278762668E+02  0.51100000000E-03 0.  1.
         22    1    1    0    0    0  0.15748341345E+02 -0.23443475719E+02  0.62689860726E+01  0.28929344882E+02  0.00000000000E+00 0.  1.
</event>
<event>
 5    1  0.8875601E-005  0.9118800E+02  0.7818608E-02  0.1130116E+00
         25   -1    0    0    0    0  0.00000000000E+00  0.00000000000E+00  0.99999998245E-14  0.12500000000E+03  0.12500000000E+03 0.  0.
        -11    1    3    3    0    0 -0.29904684139E+02  0.30744730923E+02  0.18676963401E+02  0.46779884300E+02  0.51100000000E-03 0. -1.
         23    2    1    0    0    0  0.17885543247E+02  0.18911952563E+02  0.14877926534E+01  0.98927636587E+02  0.95430127039E+02 0.  0.
         11    1    3    3    0    0  0.47790227386E+02 -0.11832778361E+02 -0.17189170748E+02  0.52147752287E+02  0.51100000000E-03 0.  1.
         22    1    1    0    0    0 -0.17885543247E+02 -0.18911952563E+02 -0.14877926534E+01  0.26072363413E+02  0.00000000000E+00 0.  1.
</event>
<event>
 5    1  0.8875601E-005  0.9118800E+02  0.7818608E-02  0.1130116E+00
         25   -1    0    0    0    0  0.00000000000E+00  0.00000000000E+00  0.99999998245E-14  0.12500000000E+03  0.12500000000E+03 0.  0.
        -11    1    3    3    0    0  0.46814442292E+02  0.21553552798E+02 -0.19089772540E+02  0.54959685781E+02  0.51100000000E-03 0.  1.
         23    2    1    0    0    0  0.27177166767E+02 -0.11012294392E+02 -0.71662610410E+01  0.94813507681E+02  0.89879791500E+02 0.  0.
         11    1    3    3    0    0 -0.19637275525E+02 -0.32565847190E+02  0.11923511499E+02  0.39853821899E+02  0.51100000000E-03 0. -1.
         22    1    1    0    0    0 -0.27177166767E+02  0.11012294392E+02  0.71662610410E+01  0.30186492319E+02  0.00000000000E+00 0.  1.
</event>
<event>
 5    1  0.8875601E-005  0.9118800E+02  0.7818608E-02  0.1130116E+00
         25   -1    0    0    0    0  0.00000000000E+00  0.00000000000E+00  0.99999998245E-14  0.12500000000E+03  0.12500000000E+03 0.  0.
        -11    1    3    3    0    0  0.95515176649E+01 -0.24377877080E+02  0.35961901722E+02  0.44483376180E+02  0.51100000000E-03 0. -1.
         23    2    1    0    0    0 -0.22962573702E+02  0.85502720491E+01  0.19790362591E+02  0.93503247872E+02  0.88038695855E+02 0.  0.
         11    1    3    3    0    0 -0.32514091367E+02  0.32928149129E+02 -0.16171539131E+02  0.49019871691E+02  0.51100000000E-03 0.  1.
         22    1    1    0    0    0  0.22962573702E+02 -0.85502720491E+01 -0.19790362591E+02  0.31496752128E+02  0.00000000000E+00 0.  1.
</event>
<event>
 5    1  0.8875601E-005  0.9118800E+02  0.7818608E-02  0.1130116E+00
         25   -1    0    0    0    0  0.00000000000E+00  0.00000000000E+00  0.99999998245E-14  0.12500000000E+03  0.12500000000E+03 0.  0.
        -11    1    3    3    0    0  0.21363696744E+02  0.23659926286E+02 -0.38923185159E+02  0.50311171658E+02  0.51100000000E-03 0. -1.
         23    2    1    0    0    0  0.94172006429E+01 -0.16995485561E+02 -0.21200993190E+02  0.96242178287E+02  0.91845220735E+02 0.  0.
         11    1    3    3    0    0 -0.11946496101E+02 -0.40655411847E+02  0.17722191969E+02  0.45931006629E+02  0.51100000000E-03 0.  1.
         22    1    1    0    0    0 -0.94172006429E+01  0.16995485561E+02  0.21200993190E+02  0.28757821713E+02  0.00000000000E+00 0. -1.
</event>
<event>
 5    1  0.8875601E-005  0.9118800E+02  0.7818608E-02  0.1130116E+00
         25   -1    0    0    0    0  0.00000000000E+00  0.00000000000E+00  0.99999998245E-14  0.12500000000E+03  0.12500000000E+03 0.  0.
        -11    1    3    3    0    0 -0.54416065657E+01 -0.39092004999E+02 -0.25881678640E+02  0.47198063798E+02  0.51100000000E-03 0.  1.
         23    2    1    0    0    0  0.24820556318E+02 -0.12605593305E+02  0.34142826574E+01  0.96953283177E+02  0.92807978074E+02 0.  0.
         11    1    3    3    0    0  0.30262162883E+02  0.26486411694E+02  0.29295961298E+02  0.49755219379E+02  0.51100000000E-03 0. -1.
         22    1    1    0    0    0 -0.24820556318E+02  0.12605593305E+02 -0.34142826574E+01  0.28046716823E+02  0.00000000000E+00 0.  1.
</event>
<event>
 5    1  0.8875601E-005  0.9118800E+02  0.7818608E-02  0.1130116E+00
         25   -1    0    0    0    0  0.00000000000E+00  0.00000000000E+00  0.99999998245E-14  0.12500000000E+03  0.12500000000E+03 0.  0.
        -11    1    3    3    0    0  0.40397442495E+02  0.75058797321E+01 -0.14934888265E+02  0.43718902988E+02  0.51100000000E-03 0.  1.
         23    2    1    0    0    0  0.72723852368E+01  0.29196958333E+02  0.13047543076E+02  0.92203836455E+02  0.86174004861E+02 0.  0.
         11    1    3    3    0    0 -0.33125057259E+02  0.21691078601E+02  0.27982431341E+02  0.48484933467E+02  0.51100000000E-03 0. -1.
         22    1    1    0    0    0 -0.72723852368E+01 -0.29196958333E+02 -0.13047543076E+02  0.32796163545E+02  0.00000000000E+00 0.  1.
</event>
<event>
 5    1  0.8875601E-005  0.9118800E+02  0.7818608E-02  0.1130116E+00
         25   -1    0    0    0    0  0.00000000000E+00  0.00000000000E+00  0.99999998245E-14  0.12500000000E+03  0.12500000000E+03 0.  0.
        -11    1    3    3    0    0  0.14427461894E+02  0.26883238249E+01  0.48601222986E+02  0.50768667677E+02  0.51100000000E-03 0. -1.
         23    2    1    0    0    0  0.11658078530E+02  0.24420442773E+02  0.82052233775E+01  0.96722897763E+02  0.92497159095E+02 0.  0.
         11    1    3    3    0    0 -0.27693833639E+01  0.21732118948E+02 -0.40395999608E+02  0.45954230086E+02  0.51100000000E-03 0.  1.
         22    1    1    0    0    0 -0.11658078530E+02 -0.24420442773E+02 -0.82052233775E+01  0.28277102237E+02  0.00000000000E+00 0. -1.
</event>
<event>
 5    1  0.8875601E-005  0.9118800E+02  0.7818608E-02  0.1130116E+00
         25   -1    0    0    0    0  0.00000000000E+00  0.00000000000E+00  0.99999998245E-14  0.12500000000E+03  0.12500000000E+03 0.  0.
        -11    1    3    3    0    0 -0.12863706811E+02 -0.13177333873E+02 -0.30638743292E+02  0.35747023256E+02  0.51100000000E-03 0. -1.
         23    2    1    0    0    0  0.55897573093E+01  0.28399548825E+02  0.74906190473E+01  0.95102021240E+02  0.90280149036E+02 0.  0.
         11    1    3    3    0    0  0.18453464120E+02  0.41576882698E+02  0.38129362340E+02  0.59354997983E+02  0.51100000000E-03 0.  1.
         22    1    1    0    0    0 -0.55897573093E+01 -0.28399548825E+02 -0.74906190473E+01  0.29897978760E+02  0.00000000000E+00 0.  1.
</event>
<event>
 5    1  0.8875601E-005  0.9118800E+02  0.7818608E-02  0.1130116E+00
         25   -1    0    0    0    0  0.00000000000E+00  0.00000000000E+00  0.99999998245E-14  0.12500000000E+03  0.12500000000E+03 0.  0.
        -11    1    3    3    0    0  0.29039592264E+02  0.23536755873E+02  0.84474571804E+01  0.38322791247E+02  0.51100000000E-03 0.  1.
         23    2    1    0    0    0 -0.83758879198E+01 -0.16640175892E+02  0.23272057100E+02  0.95189941399E+02  0.90401799482E+02 0.  0.
         11    1    3    3    0    0 -0.37415480184E+02 -0.40176931765E+02  0.14824599920E+02  0.56867150152E+02  0.51100000000E-03 0. -1.
         22    1    1    0    0    0  0.83758879198E+01  0.16640175892E+02 -0.23272057100E+02  0.29810058601E+02  0.00000000000E+00 0. -1.
</event>
<event>
 5    1  0.8875601E-005  0.9118800E+02  0.7818608E-02  0.1130116E+00
         25   -1    0    0    0    0  0.00000000000E+00  0.00000000000E+00  0.99999998245E-14  0.12500000000E+03  0.12500000000E+03 0.  0.
        -11    1    3    3    0    0  0.32176055236E+02  0.31179560478E+02 -0.77025853748E+01  0.45461998899E+02  0.51100000000E-03 0. -1.
         23    2    1    0    0    0  0.13468504352E+02 -0.12052972929E+02 -0.23685460629E+02  0.95206111179E+02  0.90424154929E+02 0.  0.
         11    1    3    3    0    0 -0.18707550884E+02 -0.43232533407E+02 -0.15982875254E+02  0.49744112280E+02  0.51100000000E-03 0.  1.
         22    1    1    0    0    0 -0.13468504352E+02  0.12052972929E+02  0.23685460629E+02  0.29793888821E+02  0.00000000000E+00 0.  1.
</event>
<event>
 5    1  0.8875601E-005  0.9118800E+02  0.7818608E-02  0.1130116E+00
         25   -1    0    0    0    0  0.00000000000E+00  0.00000000000E+00  0.99999998245E-14  0.12500000000E+03  0.12500000000E+03 0.  0.
        -11    1    3    3    0    0 -0.28524384807E+02 -0.14708653589E+02 -0.14057405350E+02  0.35037061299E+02  0.51100000000E-03 0.  1.
         23    2    1    0    0    0  0.19069506658E+02 -0.88777374831E+01  0.21644329516E+02  0.94818262025E+02  0.89886403344E+02 0.  0.
         11    1    3    3    0    0  0.47593891465E+02  0.58309161059E+01  0.35701734867E+02  0.59781200726E+02  0.51100000000E-03 0. -1.
         22    1    1    0    0    0 -0.19069506658E+02  0.88777374831E+01 -0.21644329516E+02  0.30181737975E+02  0.00000000000E+00 0. -1.
</event>
<event>
 5    1  0.8875601E-005  0.9118800E+02  0.7818608E-02  0.1130116E+00
         25   -1    0    0    0    0  0.00000000000E+00  0.00000000000E+00  0.99999998245E-14  0.12500000000E+03  0.12500000000E+03 0.  0.
        -11    1    3    3    0    0  0.21747059998E+02 -0.24457406136E+02  0.20973330725E+02  0.38871325362E+02  0.51100000000E-03 0. -1.
         23    2    1    0    0    0  0.19612653734E+02  0.96745948106E+01 -0.22125910930E+02  0.93890356708E+02  0.88586619628E+02 0.  0.
         11    1    3    3    0    0 -0.21344062641E+01  0.34132000946E+02 -0.43099241656E+02  0.55019031346E+02  0.51100000000E-03 0.  1.
         22    1    1    0    0    0 -0.19612653734E+02 -0.96745948106E+01  0.22125910930E+02  0.31109643292E+02  0.00000000000E+00 0.  1.
</event>
<event>
 5    1  0.8875601E-005  0.9118800E+02  0.7818608E-02  0.1130116E+00
         25   -1    0    0    0    0  0.00000000000E+00  0.00000000000E+00  0.99999998245E-14  0.12500000000E+03  0.12500000000E+03 0.  0.
        -11    1    3    3    0    0 -0.46601346875E+02 -0.12685413844E+02 -0.41306272499E+01  0.48473367293E+02  0.51100000000E-03 0.  1.
         23    2    1    0    0    0 -0.23693377765E+01 -0.26792289095E+02 -0.11973856376E+02  0.95558299082E+02  0.90909706690E+02 0.  0.
         11    1    3    3    0    0  0.44232009099E+02 -0.14106875250E+02 -0.78432291257E+01  0.47084931789E+02  0.51100000000E-03 0. -1.
         22    1    1    0    0    0  0.23693377765E+01  0.26792289095E+02  0.11973856376E+02  0.29441700918E+02  0.00000000000E+00 0.  1.
</event>
<event>
 5    1  0.8875601E-005  0.9118800E+02  0.7818608E-02  0.1130116E+00
         25   -1    0    0    0    0  0.00000000000E+00  0.00000000000E+00  0.99999998245E-14  0.12500000000E+03  0.12500000000E+03 0.  0.
        -11    1    3    3    0    0  0.27103239398E+02  0.18810913696E+02  0.59059445806E+01  0.33515910276E+02  0.51100000000E-03 0. -1.
         23    2    1    0    0    0 -0.22800572887E+02 -0.16632655101E+02 -0.66601517023E+01  0.96002259391E+02  0.91518112130E+02 0.  0.
         11    1    3    3    0    0 -0.49903812286E+02 -0.35443568797E+02 -0.12566096283E+02  0.62486349116E+02  0.51100000000E-03 0.  1.
         22    1    1    0    0    0  0.22800572887E+02  0.16632655101E+02  0.66601517023E+01  0.28997740609E+02  0.00000000000E+00 0.  1.
</event>
<event>
 5    1  0.8875601E-005  0.9118800E+02  0.7818608E-02  0.1130116E+00
         25   -1    0    0    0    0  0.00000000000E+00  0.00000000000E+00  0.99999998245E-14  0.12500000000E+03  0.12500000000E+03 0.  0.
        -11    1    3    3    0    0 -0.22791906824E+02  0.11790559400E+02  0.26667471560E+02  0.37008679351E+02  0.51100000000E-03 0.  1.
         23    2    1    0    0    0  0.28999699504E+00 -0.24192044218E+02 -0.14859413827E+02  0.96607372770E+02  0.92340907471E+02 0.  0.
         11    1    3    3    0    0  0.23081903819E+02 -0.35982603618E+02 -0.41526885387E+02  0.59598693419E+02  0.51100000000E-03 0. -1.
         22    1    1    0    0    0 -0.28999699504E+00  0.24192044218E+02  0.14859413827E+02  0.28392627230E+02  0.00000000000E+00 0. -1.
</event>
<event>
 5    1  0.8875601E-005  0.9118800E+02  0.7818608E-02  0.1130116E+00
         25   -1    0    0    0    0  0.00000000000E+00  0.00000000000E+00  0.99999998245E-14  0.12500000000E+03  0.12500000000E+03 0.  0.
        -11    1    3    3    0    0 -0.14787210591E+02 -0.18886638099E+02  0.25162799231E+02  0.34763963541E+02  0.51100000000E-03 0. -1.
         23    2    1    0    0    0  0.13569574123E+02 -0.66374550425E+01 -0.26233368569E+02  0.94728251160E+02  0.89761142985E+02 0.  0.
         11    1    3    3    0    0  0.28356784714E+02  0.12249183056E+02 -0.51396167800E+02  0.59964287619E+02  0.51100000000E-03 0.  1.
         22    1    1    0    0    0 -0.13569574123E+02  0.66374550425E+01  0.26233368569E+02  0.30271748840E+02  0.00000000000E+00 0.  1.
</event>
<event>
 5    1  0.8875601E-005  0.9118800E+02  0.7818608E-02  0.1130116E+00
         25   -1    0    0    0    0  0.00000000000E+00  0.00000000000E+00  0.99999998245E-14  0.12500000000E+03  0.12500000000E+03 0.  0.
        -11    1    3    3    0    0 -0.23129274232E+02  0.11269232903E+02  0.26473327986E+02  0.36916067391E+02  0.51100000000E-03 0.  1.
         23    2    1    0    0    0  0.27261807770E+02 -0.10303820207E+02  0.77085538886E+01  0.94853745227E+02  0.89935734316E+02 0.  0.
         11    1    3    3    0    0  0.50391082002E+02 -0.21573053110E+02 -0.18764774097E+02  0.57937677836E+02  0.51100000000E-03 0. -1.
         22    1    1    0    0    0 -0.27261807770E+02  0.10303820207E+02 -0.77085538886E+01  0.30146254773E+02  0.00000000000E+00 0. -1.
</event>
<event>
 5    1  0.8875601E-005  0.9118800E+02  0.7818608E-02  0.1130116E+00
         25   -1    0    0    0    0  0.00000000000E+00  0.00000000000E+00  0.99999998245E-14  0.12500000000E+03  0.12500000000E+03 0.  0.
        -11    1    3    3    0    0 -0.10889123545E+02  0.61137342043E+00  0.59994208227E+02  0.60977469692E+02  0.51100000000E-03 0.  1.
         23    2    1    0    0    0 -0.75998940036E+01 -0.91522484851E+01  0.28401486191E+02  0.94207688313E+02  0.89033263886E+02 0.  0.
         11    1    3    3    0    0  0.32892295413E+01 -0.97636219055E+01 -0.31592722036E+02  0.33230218621E+02  0.51100000000E-03 0. -1.
         22    1    1    0    0    0  0.75998940036E+01  0.91522484851E+01 -0.28401486191E+02  0.30792311687E+02  0.00000000000E+00 0.  1.
</event>
<event>
 5    1  0.8875601E-005  0.9118800E+02  0.7818608E-02  0.1130116E+00
         25   -1    0    0    0    0  0.00000000000E+00  0.00000000000E+00  0.99999998245E-14  0.12500000000E+03  0.12500000000E+03 0.  0.
        -11    1    3    3    0    0  0.31763206293E+02 -0.33111636545E+02  0.16179752011E+02  0.48652503781E+02  0.51100000000E-03 0.  1.
         23    2    1    0    0    0  0.23793869985E+02 -0.24220600586E+01 -0.17843799402E+02  0.95160164195E+02  0.90360616690E+02 0.  0.
         11    1    3    3    0    0 -0.79693363079E+01  0.30689576487E+02 -0.34023551413E+02  0.46507660414E+02  0.51100000000E-03 0. -1.
         22    1    1    0    0    0 -0.23793869985E+02  0.24220600586E+01  0.17843799402E+02  0.29839835805E+02  0.00000000000E+00 0. -1.
</event>
<event>
 5    1  0.8875601E-005  0.9118800E+02  0.7818608E-02  0.1130116E+00
         25   -1    0    0    0    0  0.00000000000E+00  0.00000000000E+00  0.99999998245E-14  0.12500000000E+03  0.12500000000E+03 0.  0.
        -11    1    3    3    0    0 -0.21490633572E+02  0.10333302120E+02 -0.34330568133E+02  0.41799669528E+02  0.51100000000E-03 0. -1.
         23    2    1    0    0    0 -0.92757800370E+01  0.24983763430E+02  0.14809165907E+02  0.94511642791E+02  0.89458988915E+02 0.  0.
         11    1    3    3    0    0  0.12214853535E+02  0.14650461310E+02  0.49139734040E+02  0.52711973263E+02  0.51100000000E-03 0.  1.
         22    1    1    0    0    0  0.92757800370E+01 -0.24983763430E+02 -0.14809165907E+02  0.30488357209E+02  0.00000000000E+00 0.  1.
</event>
<event>
 5    1  0.8875601E-005  0.9118800E+02  0.7818608E-02  0.1130116E+00
         25   -1    0    0    0    0  0.00000000000E+00  0.00000000000E+00  0.99999998245E-14  0.12500000000E+03  0.12500000000E+03 0.  0.
        -11    1    3    3    0    0 -0.20344709559E+02 -0.38394627090E+02 -0.55312715022E+01  0.43802392185E+02  0.51100000000E-03 0.  1.
         23    2    1    0    0    0 -0.81312703266E+01 -0.27693123399E+01 -0.33310346545E+02  0.90599915191E+02  0.83815146589E+02 0.  0.
         11    1    3    3    0    0  0.12213439233E+02  0.35625314751E+02 -0.27779075042E+02  0.46797523005E+02  0.51100000000E-03 0. -1.
         22    1    1    0    0    0  0.81312703266E+01  0.27693123399E+01  0.33310346545E+02  0.34400084809E+02  0.00000000000E+00 0.  1.
</event>
<event>
 5    1  0.8875601E-005  0.9118800E+02  0.7818608E-02  0.1130116E+00
         25   -1    0    0    0    0  0.00000000000E+00  0.00000000000E+00  0.99999998245E-14  0.12500000000E+03  0.12500000000E+03 0.  0.
        -11    1    3    3    0    0 -0.53961094318E+01 -0.40156952187E+02 -0.31268432680E+02  0.51180207976E+02  0.51100000000E-03 0.  1.
         23    2    1    0    0    0 -0.15655157895E+02 -0.23713631629E+02  0.84330974171E+01  0.95359867986E+02  0.90636455119E+02 0.  0.
         11    1    3    3    0    0 -0.10259048463E+02  0.16443320558E+02  0.39701530097E+02  0.44179660010E+02  0.51100000000E-03 0. -1.
         22    1    1    0    0    0  0.15655157895E+02  0.23713631629E+02 -0.84330974171E+01  0.29640132014E+02  0.00000000000E+00 0. -1.
</event>
<event>
 5    1  0.8875601E-005  0.9118800E+02  0.7818608E-02  0.1130116E+00
         25   -1    0    0    0    0  0.00000000000E+00  0.00000000000E+00  0.99999998245E-14  0.12500000000E+03  0.12500000000E+03 0.  0.
        -11    1    3    3    0    0 -0.10462825143E+02 -0.84955384318E+01 -0.27396538425E+02  0.30532199415E+02  0.51100000000E-03 0. -1.
         23    2    1    0    0    0 -0.53393369209E+01 -0.27353702364E+02  0.25686761233E+02  0.87098242067E+02  0.78419133614E+02 0.  0.
         11    1    3    3    0    0  0.51234882218E+01 -0.18858163932E+02  0.53083299658E+02  0.56566042652E+02  0.51100000000E-03 0.  1.
         22    1    1    0    0    0  0.53393369209E+01  0.27353702364E+02 -0.25686761233E+02  0.37901757933E+02  0.00000000000E+00 0.  1.
</event>
<event>
 5    1  0.8875601E-005  0.9118800E+02  0.7818608E-02  0.1130116E+00
         25   -1    0    0    0    0  0.00000000000E+00  0.00000000000E+00  0.99999998245E-14  0.12500000000E+03  0.12500000000E+03 0.  0.
        -11    1    3    3    0    0 -0.37694741684E+02  0.37623914463E+01  0.65345316711E+01  0.38441504191E+02  0.51100000000E-03 0.  1.
         23    2    1    0    0    0 -0.97530272948E+01 -0.34865358046E+02 -0.72684267718E+01  0.88073793035E+02  0.79959041131E+02 0.  0.
         11    1    3    3    0    0  0.27941714389E+02 -0.38627749493E+02 -0.13802958443E+02  0.49632288844E+02  0.51100000000E-03 0. -1.
         22    1    1    0    0    0  0.97530272948E+01  0.34865358046E+02  0.72684267718E+01  0.36926206965E+02  0.00000000000E+00 0.  1.
</event>
<event>
 5    1  0.8875601E-005  0.9118800E+02  0.7818608E-02  0.1130116E+00
         25   -1    0    0    0    0  0.00000000000E+00  0.00000000000E+00  0.99999998245E-14  0.12500000000E+03  0.12500000000E+03 0.  0.
        -11    1    3    3    0    0  0.11696224653E+02 -0.21824784638E+02 -0.28373491270E+02  0.37658702882E+02  0.51100000000E-03 0. -1.
         23    2    1    0    0    0 -0.27097402116E+01  0.29167443202E+02 -0.64370938411E+01  0.95008024205E+02  0.90149908770E+02 0.  0.
         11    1    3    3    0    0 -0.14405964864E+02  0.50992227840E+02  0.21936397429E+02  0.57349321323E+02  0.51100000000E-03 0.  1.
         22    1    1    0    0    0  0.27097402116E+01 -0.29167443202E+02  0.64370938411E+01  0.29991975795E+02  0.00000000000E+00 0.  1.
</event>
<event>
 5    1  0.8875601E-005  0.9118800E+02  0.7818608E-02  0.1130116E+00
         25   -1    0    0    0    0  0.00000000000E+00  0.00000000000E+00  0.99999998245E-14  0.12500000000E+03  0.12500000000E+03 0.  0.
        -11    1    3    3    0    0 -0.33525756850E+02  0.16677223217E+02  0.20838254585E+02  0.42852526191E+02  0.51100000000E-03 0. -1.
         23    2    1    0    0    0  0.16156384584E+02 -0.17983304389E+01 -0.11629656795E+02  0.10501221192E+03  0.10309244870E+03 0.  0.
         11    1    3    3    0    0  0.49682141433E+02 -0.18475553656E+02 -0.32467911379E+02  0.62159685729E+02  0.51100000000E-03 0.  1.
         22    1    1    0    0    0 -0.16156384584E+02  0.17983304389E+01  0.11629656795E+02  0.19987788080E+02  0.00000000000E+00 0.  1.
</event>
<event>
 4    1  0.8875601E-005  0.9118800E+02  0.7818608E-02  0.1130116E+00
         25   -1    0    0    0    0  0.00000000000E+00  0.00000000000E+00  0.99999998245E-14  0.12500000000E+03  0.12500000000E+03 0.  0.
        -11    1    1    0    0    0  0.32677132260E+02 -0.27329229856E+01  0.29863323051E+02  0.44351797085E+02  0.51100000000E-03 0. -1.
         11    1    1    0    0    0  0.10610863993E+02  0.24314981411E+02 -0.11381785134E+02  0.28867867756E+02  0.51100000000E-03 0.  1.
         22    1    1    0    0    0 -0.43287996253E+02 -0.21582058425E+02 -0.18481537917E+02  0.51780335159E+02  0.00000000000E+00 0. -1.
</event>
<event>
 5    1  0.8875601E-005  0.9118800E+02  0.7818608E-02  0.1130116E+00
         25   -1    0    0    0    0  0.00000000000E+00  0.00000000000E+00  0.99999998245E-14  0.12500000000E+03  0.12500000000E+03 0.  0.
        -11    1    3    3    0    0 -0.40052381791E+02 -0.16937122871E+02 -0.18454692280E+02  0.47240185073E+02  0.51100000000E-03 0.  1.
         23    2    1    0    0    0 -0.15981716049E+02  0.23261098726E+02 -0.11126027028E+02  0.94663842708E+02  0.89671403898E+02 0.  0.
         11    1    3    3    0    0  0.24070665742E+02  0.40198221598E+02  0.73286652525E+01  0.47423657635E+02  0.51100000000E-03 0. -1.
         22    1    1    0    0    0  0.15981716049E+02 -0.23261098726E+02  0.11126027028E+02  0.30336157292E+02  0.00000000000E+00 0.  1.
</event>
<event>
 5    1  0.8875601E-005  0.9118800E+02  0.7818608E-02  0.1130116E+00
         25   -1    0    0    0    0  0.00000000000E+00  0.00000000000E+00  0.99999998245E-14  0.12500000000E+03  0.12500000000E+03 0.  0.
        -11    1    3    3    0    0 -0.13700840406E+02  0.56853794347E+02 -0.66923412417E+01  0.58863013778E+02  0.51100000000E-03 0.  1.
         23    2    1    0    0    0 -0.35249680407E+00  0.26466771002E+02  0.10838159930E+02  0.96397903364E+02  0.92056916313E+02 0.  0.
         11    1    3    3    0    0  0.13348343602E+02 -0.30387023345E+02  0.17530501171E+02  0.37534889586E+02  0.51100000000E-03 0. -1.
         22    1    1    0    0    0  0.35249680407E+00 -0.26466771002E+02 -0.10838159930E+02  0.28602096636E+02  0.00000000000E+00 0.  1.
</event>
<event>
 5    1  0.8875601E-005  0.9118800E+02  0.7818608E-02  0.1130116E+00
         25   -1    0    0    0    0  0.00000000000E+00  0.00000000000E+00  0.99999998245E-14  0.12500000000E+03  0.12500000000E+03 0.  0.
        -11    1    3    3    0    0  0.39413747643E+02  0.10526218471E+02 -0.45401364618E+02  0.61037109106E+02  0.51100000000E-03 0. -1.
         23    2    1    0    0    0  0.16274244804E+02 -0.32884662064E+01 -0.25632569615E+02  0.94459965962E+02  0.89386752321E+02 0.  0.
         11    1    3    3    0    0 -0.23139502838E+02 -0.13814684678E+02  0.19768795002E+02  0.33422856857E+02  0.51100000000E-03 0.  1.
         22    1    1    0    0    0 -0.16274244804E+02  0.32884662064E+01  0.25632569615E+02  0.30540034038E+02  0.00000000000E+00 0. -1.
</event>
<event>
 5    1  0.8875601E-005  0.9118800E+02  0.7818608E-02  0.1130116E+00
         25   -1    0    0    0    0  0.00000000000E+00  0.00000000000E+00  0.99999998245E-14  0.12500000000E+03  0.12500000000E+03 0.  0.
        -11    1    3    3    0    0  0.56004627075E+01  0.13988844958E+02  0.60074236546E+02  0.61935182753E+02  0.51100000000E-03 0. -1.
         23    2    1    0    0    0  0.76568365880E+01  0.94878044761E+01  0.27034223856E+02  0.95343721747E+02  0.90614184523E+02 0.  0.
         11    1    3    3    0    0  0.20563738806E+01 -0.45010404815E+01 -0.33040012690E+02  0.33408538995E+02  0.51100000000E-03 0.  1.
         22    1    1    0    0    0 -0.76568365880E+01 -0.94878044761E+01 -0.27034223856E+02  0.29656278253E+02  0.00000000000E+00 0. -1.
</event>
<event>
 5    1  0.8875601E-005  0.9118800E+02  0.7818608E-02  0.1130116E+00
         25   -1    0    0    0    0  0.00000000000E+00  0.00000000000E+00  0.99999998245E-14  0.12500000000E+03  0.12500000000E+03 0.  0.
        -11    1    3    3    0    0  0.26419377435E+02  0.50505094540E+02  0.35521562310E+01  0.57108369725E+02  0.51100000000E-03 0. -1.
         23    2    1    0    0    0 -0.25942564380E+00  0.25412154255E+02 -0.11996273748E+02  0.96897411696E+02  0.92732696090E+02 0.  0.
         11    1    3    3    0    0 -0.26678803079E+02 -0.25092940285E+02 -0.15548429979E+02  0.39789041971E+02  0.51100000000E-03 0.  1.
         22    1    1    0    0    0  0.25942564380E+00 -0.25412154255E+02  0.11996273748E+02  0.28102588304E+02  0.00000000000E+00 0.  1.
</event>
<event>
 5    1  0.8875601E-005  0.9118800E+02  0.7818608E-02  0.1130116E+00
         25   -1    0    0    0    0  0.00000000000E+00  0.00000000000E+00  0.99999998245E-14  0.12500000000E+03  0.12500000000E+03 0.  0.
        -11    1    3    3    0    0  0.22853491572E+01 -0.45099488697E+02  0.30648273753E+02  0.54575666609E+02  0.51100000000E-03 0. -1.
         23    2    1    0    0    0  0.21108243647E+02 -0.22159520510E+02  0.26459410317E+02  0.84543817611E+02  0.74235802702E+02 0.  0.
         11    1    3    3    0    0  0.18822894490E+02  0.22939968186E+02 -0.41888634355E+01  0.29968151003E+02  0.51100000000E-03 0.  1.
         22    1    1    0    0    0 -0.21108243647E+02  0.22159520510E+02 -0.26459410317E+02  0.40456182389E+02  0.00000000000E+00 0. -1.
</event>
<event>
 5    1  0.8875601E-005  0.9118800E+02  0.7818608E-02  0.1130116E+00
         25   -1    0    0    0    0  0.00000000000E+00  0.00000000000E+00  0.99999998245E-14  0.12500000000E+03  0.12500000000E+03 0.  0.
        -11    1    3    3    0    0 -0.54795259995E+01  0.52926579084E+02  0.47071770865E+01  0.53417277121E+02  0.51100000000E-03 0. -1.
         23    2    1    0    0    0  0.17873815960E+02  0.17412104472E+02  0.13212731311E+02  0.96764721574E+02  0.92553662237E+02 0.  0.
         11    1    3    3    0    0  0.23353341960E+02 -0.35514474612E+02  0.85055542246E+01  0.43347444452E+02  0.51100000000E-03 0.  1.
         22    1    1    0    0    0 -0.17873815960E+02 -0.17412104472E+02 -0.13212731311E+02  0.28235278426E+02  0.00000000000E+00 0.  1.
</event>
<event>
 5    1  0.8875601E-005  0.9118800E+02  0.7818608E-02  0.1130116E+00
         25   -1    0    0    0    0  0.00000000000E+00  0.00000000000E+00  0.99999998245E-14  0.12500000000E+03  0.12500000000E+03 0.  0.
        -11    1    3    3    0    0 -0.86405440203E+01  0.37542534734E+02 -0.10075826908E+02  0.39819884522E+02  0.51100000000E-03 0. -1.
         23    2    1    0    0    0 -0.27108123911E+02 -0.13512128674E+02 -0.38000798798E+01  0.94473476936E+02  0.89405644307E+02 0.  0.
         11    1    3    3    0    0 -0.18467579891E+02 -0.51054663408E+02  0.62757470287E+01  0.54653592414E+02  0.51100000000E-03 0.  1.
         22    1    1    0    0    0  0.27108123911E+02  0.13512128674E+02  0.38000798798E+01  0.30526523064E+02  0.00000000000E+00 0. -1.
</event>
<event>
 5    1  0.8875601E-005  0.9118800E+02  0.7818608E-02  0.1130116E+00
         25   -1    0    0    0    0  0.00000000000E+00  0.00000000000E+00  0.99999998245E-14  0.12500000000E+03  0.12500000000E+03 0.  0.
        -11    1    3    3    0    0 -0.78296441385E+01 -0.34728389579E+02 -0.11929577921E+02  0.37545694823E+02  0.51100000000E-03 0. -1.
         23    2    1    0    0    0 -0.25045729194E+01  0.91244019760E+01  0.26977375167E+02  0.96411429419E+02  0.92075280911E+02 0.  0.
         11    1    3    3    0    0  0.53250712191E+01  0.43852791555E+02  0.38906953088E+02  0.58865734596E+02  0.51100000000E-03 0.  1.
         22    1    1    0    0    0  0.25045729194E+01 -0.91244019760E+01 -0.26977375167E+02  0.28588570581E+02  0.00000000000E+00 0.  1.
</event>
<event>
 5    1  0.8875601E-005  0.9118800E+02  0.7818608E-02  0.1130116E+00
         25   -1    0    0    0    0  0.00000000000E+00  0.00000000000E+00  0.99999998245E-14  0.12500000000E+03  0.12500000000E+03 0.  0.
        -11    1    3    3    0    0 -0.26504091985E+02 -0.36010193760E+02 -0.33607471258E+02  0.55934453346E+02  0.51100000000E-03 0.  1.
         23    2    1    0    0    0 -0.26755592108E+01 -0.29422547715E+02 -0.29632996500E+01  0.95307811196E+02  0.90564633268E+02 0.  0.
         11    1    3    3    0    0  0.23828532774E+02  0.65876460444E+01  0.30644171608E+02  0.39373357850E+02  0.51100000000E-03 0. -1.
         22    1    1    0    0    0  0.26755592108E+01  0.29422547715E+02  0.29632996500E+01  0.29692188804E+02  0.00000000000E+00 0.  1.
</event>
<event>
 5    1  0.8875601E-005  0.9118800E+02  0.7818608E-02  0.1130116E+00
         25   -1    0    0    0    0  0.00000000000E+00  0.00000000000E+00  0.99999998245E-14  0.12500000000E+03  0.12500000000E+03 0.  0.
        -11    1    3    3    0    0 -0.44599940794E+02  0.67358256011E+01 -0.40693171447E+02  0.60749158579E+02  0.51100000000E-03 0.  1.
         23    2    1    0    0    0 -0.25209584995E+02 -0.56175774738E+01 -0.15403041680E+02  0.94927852666E+02  0.90038675948E+02 0.  0.
         11    1    3    3    0    0  0.19390355799E+02 -0.12353403075E+02  0.25290129767E+02  0.34178694087E+02  0.51100000000E-03 0. -1.
         22    1    1    0    0    0  0.25209584995E+02  0.56175774738E+01  0.15403041680E+02  0.30072147334E+02  0.00000000000E+00 0.  1.
</event>
<event>
 5    1  0.8875601E-005  0.9118800E+02  0.7818608E-02  0.1130116E+00
         25   -1    0    0    0    0  0.00000000000E+00  0.00000000000E+00  0.99999998245E-14  0.12500000000E+03  0.12500000000E+03 0.  0.
        -11    1    3    3    0    0  0.11784193505E+02  0.35408643493E+02 -0.44657227831E+02  0.58197141239E+02  0.51100000000E-03 0. -1.
         23    2    1    0    0    0  0.87789913370E+01  0.29838728480E+01 -0.29427476057E+02  0.94146304385E+02  0.88947040963E+02 0.  0.
         11    1    3    3    0    0 -0.30052021679E+01 -0.32424770645E+02  0.15229751775E+02  0.35949163145E+02  0.51100000000E-03 0.  1.
         22    1    1    0    0    0 -0.87789913370E+01 -0.29838728480E+01  0.29427476057E+02  0.30853695615E+02  0.00000000000E+00 0. -1.
</event>
<event>
 5    1  0.8875601E-005  0.9118800E+02  0.7818608E-02  0.1130116E+00
         25   -1    0    0    0    0  0.00000000000E+00  0.00000000000E+00  0.99999998245E-14  0.12500000000E+03  0.12500000000E+03 0.  0.
        -11    1    3    3    0    0 -0.19673534656E+02 -0.23853977631E+02  0.17928074351E+02  0.35741797170E+02  0.51100000000E-03 0.  1.
         23    2    1    0    0    0  0.14498118140E+02 -0.12887648453E+01 -0.25629373115E+02  0.95525924770E+02  0.90865181409E+02 0.  0.
         11    1    3    3    0    0  0.34171652796E+02  0.22565212786E+02 -0.43557447466E+02  0.59784127600E+02  0.51100000000E-03 0. -1.
         22    1    1    0    0    0 -0.14498118140E+02  0.12887648453E+01  0.25629373115E+02  0.29474075230E+02  0.00000000000E+00 0. -1.
</event>
<event>
 5    1  0.8875601E-005  0.9118800E+02  0.7818608E-02  0.1130116E+00
         25   -1    0    0    0    0  0.00000000000E+00  0.00000000000E+00  0.99999998245E-14  0.12500000000E+03  0.12500000000E+03 0.  0.
        -11    1    3    3    0    0  0.16188711457E+01  0.32075121711E+02  0.16175657843E+02  0.35959506163E+02  0.51100000000E-03 0. -1.
         23    2    1    0    0    0  0.20043792050E+02 -0.19969613916E+02 -0.70266607652E+01  0.95846731895E+02  0.91305437811E+02 0.  0.
         11    1    3    3    0    0  0.18424920904E+02 -0.52044735627E+02 -0.23202318608E+02  0.59887225732E+02  0.51100000000E-03 0.  1.
         22    1    1    0    0    0 -0.20043792050E+02  0.19969613916E+02  0.70266607652E+01  0.29153268105E+02  0.00000000000E+00 0.  1.
</event>
<event>
 5    1  0.8875601E-005  0.9118800E+02  0.7818608E-02  0.1130116E+00
         25   -1    0    0    0    0  0.00000000000E+00  0.00000000000E+00  0.99999998245E-14  0.12500000000E+03  0.12500000000E+03 0.  0.
        -11    1    3    3    0    0  0.28735984048E+02  0.10517303258E+02 -0.58042000958E+01  0.31145773165E+02  0.51100000000E-03 0.  1.
         23    2    1    0    0    0 -0.14324225026E+02 -0.69995042085E-02  0.32342431685E+02  0.89627463211E+02  0.82352084386E+02 0.  0.
         11    1    3    3    0    0 -0.43060209074E+02 -0.10524302762E+02  0.38146631781E+02  0.58481690046E+02  0.51100000000E-03 0. -1.
         22    1    1    0    0    0  0.14324225026E+02  0.69995042085E-02 -0.32342431685E+02  0.35372536789E+02  0.00000000000E+00 0. -1.
</event>
<event>
 5    1  0.8875601E-005  0.9118800E+02  0.7818608E-02  0.1130116E+00
         25   -1    0    0    0    0  0.00000000000E+00  0.00000000000E+00  0.99999998245E-14  0.12500000000E+03  0.12500000000E+03 0.  0.
        -11    1    3    3    0    0 -0.45884738410E+00  0.12735763615E+02  0.60247512113E+02  0.61580621399E+02  0.51100000000E-03 0. -1.
         23    2    1    0    0    0 -0.18268061526E+01  0.12917269703E+02  0.25489922013E+02  0.96365594095E+02  0.92013034531E+02 0.  0.
         11    1    3    3    0    0 -0.13679587685E+01  0.18150608791E+00 -0.34757590100E+02  0.34784972696E+02  0.51100000000E-03 0.  1.
         22    1    1    0    0    0  0.18268061526E+01 -0.12917269703E+02 -0.25489922013E+02  0.28634405905E+02  0.00000000000E+00 0. -1.
</event>
<event>
 5    1  0.8875601E-005  0.9118800E+02  0.7818608E-02  0.1130116E+00
         25   -1    0    0    0    0  0.00000000000E+00  0.00000000000E+00  0.99999998245E-14  0.12500000000E+03  0.12500000000E+03 0.  0.
        -11    1    3    3    0    0  0.59863612281E+01  0.61446826044E+02 -0.14302472865E+01  0.61754308021E+02  0.51100000000E-03 0. -1.
         23    2    1    0    0    0  0.96326331821E+01  0.28649152554E+02 -0.10647933116E+01  0.94756069223E+02  0.89799873639E+02 0.  0.
         11    1    3    3    0    0  0.36462719540E+01 -0.32797673490E+02  0.36545397492E+00  0.33001761201E+02  0.51100000000E-03 0.  1.
         22    1    1    0    0    0 -0.96326331821E+01 -0.28649152554E+02  0.10647933116E+01  0.30243930777E+02  0.00000000000E+00 0. -1.
</event>
<event>
 5    1  0.8875601E-005  0.9118800E+02  0.7818608E-02  0.1130116E+00
         25   -1    0    0    0    0  0.00000000000E+00  0.00000000000E+00  0.99999998245E-14  0.12500000000E+03  0.12500000000E+03 0.  0.
        -11    1    3    3    0    0 -0.61651114087E+02 -0.83996087006E+01  0.50460468546E+01  0.62424962024E+02  0.51100000000E-03 0.  1.
         23    2    1    0    0    0 -0.29595382656E+02 -0.20851781458E+01  0.14200700797E+01  0.95297285621E+02  0.90550104391E+02 0.  0.
         11    1    3    3    0    0  0.32055731431E+02  0.63144305548E+01 -0.36259767750E+01  0.32872323597E+02  0.51100000000E-03 0. -1.
         22    1    1    0    0    0  0.29595382656E+02  0.20851781458E+01 -0.14200700797E+01  0.29702714379E+02  0.00000000000E+00 0.  1.
</event>
<event>
 5    1  0.8875601E-005  0.9118800E+02  0.7818608E-02  0.1130116E+00
         25   -1    0    0    0    0  0.00000000000E+00  0.00000000000E+00  0.99999998245E-14  0.12500000000E+03  0.12500000000E+03 0.  0.
        -11    1    3    3    0    0 -0.32832853284E+02  0.14050036367E+02 -0.89007880996E+01  0.36805214382E+02  0.51100000000E-03 0.  1.
         23    2    1    0    0    0  0.23599854798E+02  0.15462757981E+02  0.78960705483E+01  0.95701570674E+02  0.91106490814E+02 0.  0.
         11    1    3    3    0    0  0.56432708082E+02  0.14127216141E+01  0.16796858648E+02  0.58896356292E+02  0.51100000000E-03 0. -1.
         22    1    1    0    0    0 -0.23599854798E+02 -0.15462757981E+02 -0.78960705483E+01  0.29298429326E+02  0.00000000000E+00 0. -1.
</event>
<event>
 5    1  0.8875601E-005  0.9118800E+02  0.7818608E-02  0.1130116E+00
         25   -1    0    0    0    0  0.00000000000E+00  0.00000000000E+00  0.99999998245E-14  0.12500000000E+03  0.12500000000E+03 0.  0.
        -11    1    3    3    0    0  0.41834023764E+01 -0.21907357811E+02  0.27116835273E+02  0.35110624278E+02  0.51100000000E-03 0. -1.
         23    2    1    0    0    0 -0.13223744630E+02  0.23780378324E+02 -0.94844112702E+01  0.96184589671E+02  0.91766810001E+02 0.  0.
         11    1    3    3    0    0 -0.17407147007E+02  0.45687736135E+02 -0.36601246543E+02  0.61073965393E+02  0.51100000000E-03 0.  1.
         22    1    1    0    0    0  0.13223744630E+02 -0.23780378324E+02  0.94844112702E+01  0.28815410329E+02  0.00000000000E+00 0.  1.
</event>
<event>
 5    1  0.8875601E-005  0.9118800E+02  0.7818608E-02  0.1130116E+00
         25   -1    0    0    0    0  0.00000000000E+00  0.00000000000E+00  0.99999998245E-14  0.12500000000E+03  0.12500000000E+03 0.  0.
        -11    1    3    3    0    0 -0.14596659500E+01 -0.43381720886E+02 -0.15240507123E+02  0.46004101875E+02  0.51100000000E-03 0. -1.
         23    2    1    0    0    0  0.28215799911E+02 -0.81099264709E+01  0.28110602076E+01  0.95507554671E+02  0.90839906802E+02 0.  0.
         11    1    3    3    0    0  0.29675465861E+02  0.35271794415E+02  0.18051567331E+02  0.49503452796E+02  0.51100000000E-03 0.  1.
         22    1    1    0    0    0 -0.28215799911E+02  0.81099264709E+01 -0.28110602076E+01  0.29492445329E+02  0.00000000000E+00 0.  1.
</event>
<event>
 5    1  0.8875601E-005  0.9118800E+02  0.7818608E-02  0.1130116E+00
         25   -1    0    0    0    0  0.00000000000E+00  0.00000000000E+00  0.99999998245E-14  0.12500000000E+03  0.12500000000E+03 0.  0.
        -11    1    3    3    0    0 -0.40913417653E+02 -0.74963085207E+01 -0.13870632883E+01  0.41617620431E+02  0.51100000000E-03 0. -1.
         23    2    1    0    0    0  0.75756269127E+01 -0.15249797302E+02 -0.23913915362E+02  0.95643198594E+02  0.91026367874E+02 0.  0.
         11    1    3    3    0    0  0.48489044566E+02 -0.77534887816E+01 -0.22526852074E+02  0.54025578163E+02  0.51100000000E-03 0.  1.
         22    1    1    0    0    0 -0.75756269127E+01  0.15249797302E+02  0.23913915362E+02  0.29356801406E+02  0.00000000000E+00 0.  1.
</event>
<event>
 5    1  0.8875601E-005  0.9118800E+02  0.7818608E-02  0.1130116E+00
         25   -1    0    0    0    0  0.00000000000E+00  0.00000000000E+00  0.99999998245E-14  0.12500000000E+03  0.12500000000E+03 0.  0.
        -11    1    3    3    0    0  0.34489561976E+01 -0.28916381331E+02 -0.29948352677E+02  0.41772673322E+02  0.51100000000E-03 0.  1.
         23    2    1    0    0    0  0.27609232501E+02 -0.18327616187E+01  0.98444836012E+01  0.95630924566E+02  0.91009511269E+02 0.  0.
         11    1    3    3    0    0  0.24160276304E+02  0.27083619712E+02  0.39792836278E+02  0.53858251244E+02  0.51100000000E-03 0. -1.
         22    1    1    0    0    0 -0.27609232501E+02  0.18327616187E+01 -0.98444836012E+01  0.29369075434E+02  0.00000000000E+00 0. -1.
</event>
<event>
 5    1  0.8875601E-005  0.9118800E+02  0.7818608E-02  0.1130116E+00
         25   -1    0    0    0    0  0.00000000000E+00  0.00000000000E+00  0.99999998245E-14  0.12500000000E+03  0.12500000000E+03 0.  0.
        -11    1    3    3    0    0 -0.24162803857E+01 -0.38163656179E+02 -0.41054490193E+02  0.56105028555E+02  0.51100000000E-03 0.  1.
         23    2    1    0    0    0  0.17417551428E+02 -0.91299011723E+01 -0.19264369676E+02  0.97471067362E+02  0.93502763812E+02 0.  0.
         11    1    3    3    0    0  0.19833831814E+02  0.29033755007E+02  0.21790120517E+02  0.41366038807E+02  0.51100000000E-03 0. -1.
         22    1    1    0    0    0 -0.17417551428E+02  0.91299011723E+01  0.19264369676E+02  0.27528932638E+02  0.00000000000E+00 0.  1.
</event>
<event>
 5    1  0.8875601E-005  0.9118800E+02  0.7818608E-02  0.1130116E+00
         25   -1    0    0    0    0  0.00000000000E+00  0.00000000000E+00  0.99999998245E-14  0.12500000000E+03  0.12500000000E+03 0.  0.
        -11    1    3    3    0    0  0.14401884864E+02  0.22363170360E+01 -0.35407465912E+02  0.38289738105E+02  0.51100000000E-03 0.  1.
         23    2    1    0    0    0  0.19304407188E+02 -0.84520620401E+01  0.20607188932E+02  0.95525371499E+02  0.90864420290E+02 0.  0.
         11    1    3    3    0    0  0.49025223239E+01 -0.10688379076E+02  0.56014654845E+02  0.57235633394E+02  0.51100000000E-03 0. -1.
         22    1    1    0    0    0 -0.19304407188E+02  0.84520620401E+01 -0.20607188932E+02  0.29474628501E+02  0.00000000000E+00 0. -1.
</event>
<event>
 5    1  0.8875601E-005  0.9118800E+02  0.7818608E-02  0.1130116E+00
         25   -1    0    0    0    0  0.00000000000E+00  0.00000000000E+00  0.99999998245E-14  0.12500000000E+03  0.12500000000E+03 0.  0.
        -11    1    3    3    0    0  0.33316755924E+02 -0.18232099268E+02 -0.71324015266E+01  0.38643069506E+02  0.51100000000E-03 0.  1.
         23    2    1    0    0    0 -0.42983283491E+01  0.22432112065E+02 -0.18995622983E+02  0.95292947457E+02  0.90544115569E+02 0.  0.
         11    1    3    3    0    0 -0.37615084273E+02  0.40664211333E+02 -0.11863221456E+02  0.56649877951E+02  0.51100000000E-03 0. -1.
         22    1    1    0    0    0  0.42983283491E+01 -0.22432112065E+02  0.18995622983E+02  0.29707052543E+02  0.00000000000E+00 0. -1.
</event>
<event>
 5    1  0.8875601E-005  0.9118800E+02  0.7818608E-02  0.1130116E+00
         25   -1    0    0    0    0  0.00000000000E+00  0.00000000000E+00  0.99999998245E-14  0.12500000000E+03  0.12500000000E+03 0.  0.
        -11    1    3    3    0    0 -0.57219816218E+02  0.17915289058E+01  0.23247075992E+02  0.61787891098E+02  0.51100000000E-03 0. -1.
         23    2    1    0    0    0 -0.26016099530E+02 -0.54725622307E+01  0.12858679156E+02  0.95468118892E+02  0.90785625090E+02 0.  0.
         11    1    3    3    0    0  0.31203716688E+02 -0.72640911365E+01 -0.10388396836E+02  0.33680227794E+02  0.51100000000E-03 0.  1.
         22    1    1    0    0    0  0.26016099530E+02  0.54725622307E+01 -0.12858679156E+02  0.29531881108E+02  0.00000000000E+00 0. -1.
</event>
<event>
 5    1  0.8875601E-005  0.9118800E+02  0.7818608E-02  0.1130116E+00
         25   -1    0    0    0    0  0.00000000000E+00  0.00000000000E+00  0.99999998245E-14  0.12500000000E+03  0.12500000000E+03 0.  0.
        -11    1    3    3    0    0 -0.41734800192E+02 -0.12670344277E+02  0.34332337248E+02  0.55507121636E+02  0.51100000000E-03 0.  1.
         23    2    1    0    0    0 -0.38181122152E+02 -0.10791943712E+02  0.51207973177E+01  0.84993916675E+02  0.74989860439E+02 0.  0.
         11    1    3    3    0    0  0.35536780404E+01  0.18784005656E+01 -0.29211539930E+02  0.29486795038E+02  0.51100000000E-03 0. -1.
         22    1    1    0    0    0  0.38181122152E+02  0.10791943712E+02 -0.51207973177E+01  0.40006083325E+02  0.00000000000E+00 0.  1.
</event>
<event>
 5    1  0.8875601E-005  0.9118800E+02  0.7818608E-02  0.1130116E+00
         25   -1    0    0    0    0  0.00000000000E+00  0.00000000000E+00  0.99999998245E-14  0.12500000000E+03  0.12500000000E+03 0.  0.
        -11    1    3    3    0    0 -0.10856687276E+02  0.28084680245E+02 -0.43699448566E+02  0.53068434387E+02  0.51100000000E-03 0. -1.
         23    2    1    0    0    0  0.16057493939E+02  0.21190818700E+02 -0.10363437323E+02  0.96464149882E+02  0.92146825613E+02 0.  0.
         11    1    3    3    0    0  0.26914181215E+02 -0.68938615448E+01  0.33336011243E+02  0.43395715495E+02  0.51100000000E-03 0.  1.
         22    1    1    0    0    0 -0.16057493939E+02 -0.21190818700E+02  0.10363437323E+02  0.28535850118E+02  0.00000000000E+00 0.  1.
</event>
<event>
 5    1  0.8875601E-005  0.9118800E+02  0.7818608E-02  0.1130116E+00
         25   -1    0    0    0    0  0.00000000000E+00  0.00000000000E+00  0.99999998245E-14  0.12500000000E+03  0.12500000000E+03 0.  0.
        -11    1    3    3    0    0  0.35864564383E+02 -0.32720926693E+02  0.22404311006E+02  0.53468487672E+02  0.51100000000E-03 0. -1.
         23    2    1    0    0    0 -0.14878238929E+01 -0.19105623779E+02  0.25220863568E+02  0.93324608306E+02  0.87784691583E+02 0.  0.
         11    1    3    3    0    0 -0.37352388276E+02  0.13615302915E+02  0.28165525620E+01  0.39856120634E+02  0.51100000000E-03 0.  1.
         22    1    1    0    0    0  0.14878238929E+01  0.19105623779E+02 -0.25220863568E+02  0.31675391694E+02  0.00000000000E+00 0. -1.
</event>
<event>
 5    1  0.8875601E-005  0.9118800E+02  0.7818608E-02  0.1130116E+00
         25   -1    0    0    0    0  0.00000000000E+00  0.00000000000E+00  0.99999998245E-14  0.12500000000E+03  0.12500000000E+03 0.  0.
        -11    1    3    3    0    0  0.25136545522E+02 -0.68603889692E+01 -0.49566666982E+02  0.55997904725E+02  0.51100000000E-03 0.  1.
         23    2    1    0    0    0 -0.82971062636E+01 -0.27711460486E+01 -0.27193516223E+02  0.96434136678E+02  0.92106102780E+02 0.  0.
         11    1    3    3    0    0 -0.33433651785E+02  0.40892429206E+01  0.22373150759E+02  0.40436231953E+02  0.51100000000E-03 0. -1.
         22    1    1    0    0    0  0.82971062636E+01  0.27711460486E+01  0.27193516223E+02  0.28565863322E+02  0.00000000000E+00 0.  1.
</event>
<event>
 5    1  0.8875601E-005  0.9118800E+02  0.7818608E-02  0.1130116E+00
         25   -1    0    0    0    0  0.00000000000E+00  0.00000000000E+00  0.99999998245E-14  0.12500000000E+03  0.12500000000E+03 0.  0.
        -11    1    3    3    0    0 -0.77890245016E+01 -0.15270903455E+02 -0.20252520560E+02  0.26533638731E+02  0.51100000000E-03 0.  1.
         23    2    1    0    0    0  0.28431921098E+01  0.36347728757E+02 -0.26952982259E+02  0.79660123734E+02  0.65498327715E+02 0.  0.
         11    1    3    3    0    0  0.10632216611E+02  0.51618632212E+02 -0.67004616996E+01  0.53126485003E+02  0.51100000000E-03 0. -1.
         22    1    1    0    0    0 -0.28431921098E+01 -0.36347728757E+02  0.26952982259E+02  0.45339876266E+02  0.00000000000E+00 0. -1.
</event>
<event>
 5    1  0.8875601E-005  0.9118800E+02  0.7818608E-02  0.1130116E+00
         25   -1    0    0    0    0  0.00000000000E+00  0.00000000000E+00  0.99999998245E-14  0.12500000000E+03  0.12500000000E+03 0.  0.
        -11    1    3    3    0    0  0.29702399143E+02 -0.12177690216E+01  0.74863132321E+01  0.30655511125E+02  0.51100000000E-03 0.  1.
         23    2    1    0    0    0 -0.31493852788E+02 -0.68526155265E+01  0.65099023360E+01  0.92118395243E+02  0.86049978563E+02 0.  0.
         11    1    3    3    0    0 -0.61196251931E+02 -0.56348465049E+01 -0.97641089605E+00  0.61462884118E+02  0.51100000000E-03 0. -1.
         22    1    1    0    0    0  0.31493852788E+02  0.68526155265E+01 -0.65099023360E+01  0.32881604757E+02  0.00000000000E+00 0. -1.
</event>
<event>
 5    1  0.8875601E-005  0.9118800E+02  0.7818608E-02  0.1130116E+00
         25   -1    0    0    0    0  0.00000000000E+00  0.00000000000E+00  0.99999998245E-14  0.12500000000E+03  0.12500000000E+03 0.  0.
        -11    1    3    3    0    0  0.58898834181E+00  0.36442850266E+02 -0.29441727680E+01  0.36566328724E+02  0.51100000000E-03 0. -1.
         23    2    1    0    0    0  0.22706622893E+02 -0.18388276790E+02  0.31160762837E+00  0.95779860612E+02  0.91213842990E+02 0.  0.
         11    1    3    3    0    0  0.22117634552E+02 -0.54831127056E+02  0.32557803964E+01  0.59213531888E+02  0.51100000000E-03 0.  1.
         22    1    1    0    0    0 -0.22706622893E+02  0.18388276790E+02 -0.31160762837E+00  0.29220139388E+02  0.00000000000E+00 0.  1.
</event>
<event>
 5    1  0.8875601E-005  0.9118800E+02  0.7818608E-02  0.1130116E+00
         25   -1    0    0    0    0  0.00000000000E+00  0.00000000000E+00  0.99999998245E-14  0.12500000000E+03  0.12500000000E+03 0.  0.
        -11    1    3    3    0    0  0.22945041310E+02  0.51677837718E+02  0.22843726239E+02  0.60982863664E+02  0.51100000000E-03 0.  1.
         23    2    1    0    0    0  0.17495319096E+02  0.22048847489E+02  0.38636054767E+01  0.96589345077E+02  0.92316500525E+02 0.  0.
         11    1    3    3    0    0 -0.54497222136E+01 -0.29628990229E+02 -0.18980120762E+02  0.35606481413E+02  0.51100000000E-03 0. -1.
         22    1    1    0    0    0 -0.17495319096E+02 -0.22048847489E+02 -0.38636054767E+01  0.28410654923E+02  0.00000000000E+00 0.  1.
</event>
<event>
 5    1  0.8875601E-005  0.9118800E+02  0.7818608E-02  0.1130116E+00
         25   -1    0    0    0    0  0.00000000000E+00  0.00000000000E+00  0.99999998245E-14  0.12500000000E+03  0.12500000000E+03 0.  0.
        -11    1    3    3    0    0 -0.93004385728E+01 -0.41116639139E+01  0.36150153398E+02  0.37553129414E+02  0.51100000000E-03 0. -1.
         23    2    1    0    0    0 -0.20365141715E+02 -0.14267083522E+01 -0.20932705612E+02  0.95760426508E+02  0.91187206487E+02 0.  0.
         11    1    3    3    0    0 -0.11064703142E+02  0.26849555618E+01 -0.57082859010E+02  0.58207297094E+02  0.51100000000E-03 0.  1.
         22    1    1    0    0    0  0.20365141715E+02  0.14267083522E+01  0.20932705612E+02  0.29239573492E+02  0.00000000000E+00 0.  1.
</event>
<event>
 5    1  0.8875601E-005  0.9118800E+02  0.7818608E-02  0.1130116E+00
         25   -1    0    0    0    0  0.00000000000E+00  0.00000000000E+00  0.99999998245E-14  0.12500000000E+03  0.12500000000E+03 0.  0.
        -11    1    3    3    0    0  0.52742871516E+02  0.10639476836E+02 -0.10357470078E+02  0.54793121373E+02  0.51100000000E-03 0.  1.
         23    2    1    0    0    0  0.22702642364E+02 -0.14798047867E+02 -0.14309314256E+02  0.94354467447E+02  0.89239099401E+02 0.  0.
         11    1    3    3    0    0 -0.30040229153E+02 -0.25437524702E+02 -0.39518441784E+01  0.39561346074E+02  0.51100000000E-03 0. -1.
         22    1    1    0    0    0 -0.22702642364E+02  0.14798047867E+02  0.14309314256E+02  0.30645532553E+02  0.00000000000E+00 0.  1.
</event>
<event>
 5    1  0.8875601E-005  0.9118800E+02  0.7818608E-02  0.1130116E+00
         25   -1    0    0    0    0  0.00000000000E+00  0.00000000000E+00  0.99999998245E-14  0.12500000000E+03  0.12500000000E+03 0.  0.
        -11    1    3    3    0    0 -0.20089603510E+02  0.16692284880E+02  0.27872086639E+02  0.38197876349E+02  0.51100000000E-03 0.  1.
         23    2    1    0    0    0 -0.11810556356E+02 -0.23036968342E+02 -0.13202856963E+02  0.95939604548E+02  0.91432494974E+02 0.  0.
         11    1    3    3    0    0  0.82790471540E+01 -0.39729253222E+02 -0.41074943602E+02  0.57741728200E+02  0.51100000000E-03 0. -1.
         22    1    1    0    0    0  0.11810556356E+02  0.23036968342E+02  0.13202856963E+02  0.29060395452E+02  0.00000000000E+00 0. -1.
</event>
<event>
 5    1  0.8875601E-005  0.9118800E+02  0.7818608E-02  0.1130116E+00
         25   -1    0    0    0    0  0.00000000000E+00  0.00000000000E+00  0.99999998245E-14  0.12500000000E+03  0.12500000000E+03 0.  0.
        -11    1    3    3    0    0 -0.14692799949E+02  0.79214016379E+01 -0.38499973033E+02  0.41962779914E+02  0.51100000000E-03 0. -1.
         23    2    1    0    0    0 -0.26835929280E+02 -0.61963983205E+01  0.11375541987E+02  0.95201251571E+02  0.90417436884E+02 0.  0.
         11    1    3    3    0    0 -0.12143129331E+02 -0.14117799958E+02  0.49875515020E+02  0.53238471657E+02  0.51100000000E-03 0.  1.
         22    1    1    0    0    0  0.26835929280E+02  0.61963983205E+01 -0.11375541987E+02  0.29798748429E+02  0.00000000000E+00 0.  1.
</event>
<event>
 5    1  0.8875601E-005  0.9118800E+02  0.7818608E-02  0.1130116E+00
         25   -1    0    0    0    0  0.00000000000E+00  0.00000000000E+00  0.99999998245E-14  0.12500000000E+03  0.12500000000E+03 0.  0.
        -11    1    3    3    0    0  0.44964698241E+02 -0.29683492219E+02 -0.26663390347E+02  0.60115473742E+02  0.51100000000E-03 0. -1.
         23    2    1    0    0    0  0.24071721900E+02 -0.16078113609E+02 -0.79712370247E+00  0.96041599860E+02  0.91571829539E+02 0.  0.
         11    1    3    3    0    0 -0.20892976341E+02  0.13605378610E+02  0.25866266644E+02  0.35926126118E+02  0.51100000000E-03 0.  1.
         22    1    1    0    0    0 -0.24071721900E+02  0.16078113609E+02  0.79712370247E+00  0.28958400140E+02  0.00000000000E+00 0. -1.
</event>
<event>
 5    1  0.8875601E-005  0.9118800E+02  0.7818608E-02  0.1130116E+00
         25   -1    0    0    0    0  0.00000000000E+00  0.00000000000E+00  0.99999998245E-14  0.12500000000E+03  0.12500000000E+03 0.  0.
        -11    1    3    3    0    0  0.12615217156E+02  0.10667032120E+02  0.31633575327E+02  0.35687706096E+02  0.51100000000E-03 0.  1.
         23    2    1    0    0    0 -0.12087372175E+02  0.15397930082E+02 -0.22377970394E+02  0.95268293425E+02  0.90510073231E+02 0.  0.
         11    1    3    3    0    0 -0.24702589331E+02  0.47308979613E+01 -0.54011545720E+02  0.59580587330E+02  0.51100000000E-03 0. -1.
         22    1    1    0    0    0  0.12087372175E+02 -0.15397930082E+02  0.22377970394E+02  0.29731706575E+02  0.00000000000E+00 0. -1.
</event>
<event>
 5    1  0.8875601E-005  0.9118800E+02  0.7818608E-02  0.1130116E+00
         25   -1    0    0    0    0  0.00000000000E+00  0.00000000000E+00  0.99999998245E-14  0.12500000000E+03  0.12500000000E+03 0.  0.
        -11    1    3    3    0    0  0.33507284567E+02 -0.18420260094E+02 -0.49036855382E+02  0.62182451600E+02  0.51100000000E-03 0.  1.
         23    2    1    0    0    0  0.14053249366E+02 -0.12789655654E+02 -0.23154990894E+02  0.95046323885E+02  0.90202998682E+02 0.  0.
         11    1    3    3    0    0 -0.19454035201E+02  0.56306044396E+01  0.25881864488E+02  0.32863872285E+02  0.51100000000E-03 0. -1.
         22    1    1    0    0    0 -0.14053249366E+02  0.12789655654E+02  0.23154990894E+02  0.29953676115E+02  0.00000000000E+00 0.  1.
</event>
<event>
 5    1  0.8875601E-005  0.9118800E+02  0.7818608E-02  0.1130116E+00
         25   -1    0    0    0    0  0.00000000000E+00  0.00000000000E+00  0.99999998245E-14  0.12500000000E+03  0.12500000000E+03 0.  0.
        -11    1    3    3    0    0 -0.48569070282E+01  0.34412920950E+02  0.12671334036E+01  0.34777065740E+02  0.51100000000E-03 0.  1.
         23    2    1    0    0    0  0.76518150233E+01 -0.25561929852E+02 -0.88829737963E+01  0.96877593375E+02  0.92705977929E+02 0.  0.
         11    1    3    3    0    0  0.12508722051E+02 -0.59974850802E+02 -0.10150107200E+02  0.62100527635E+02  0.51100000000E-03 0. -1.
         22    1    1    0    0    0 -0.76518150233E+01  0.25561929852E+02  0.88829737963E+01  0.28122406625E+02  0.00000000000E+00 0. -1.
</event>
<event>
 5    1  0.8875601E-005  0.9118800E+02  0.7818608E-02  0.1130116E+00
         25   -1    0    0    0    0  0.00000000000E+00  0.00000000000E+00  0.99999998245E-14  0.12500000000E+03  0.12500000000E+03 0.  0.
        -11    1    3    3    0    0  0.45875033893E+02  0.21760364633E+02 -0.20886602712E+02  0.54902480607E+02  0.51100000000E-03 0.  1.
         23    2    1    0    0    0  0.13744274225E+02 -0.88399740501E+00 -0.27006410260E+02  0.94684447547E+02  0.89700122000E+02 0.  0.
         11    1    3    3    0    0 -0.32130759668E+02 -0.22644362038E+02 -0.61198075474E+01  0.39781966940E+02  0.51100000000E-03 0. -1.
         22    1    1    0    0    0 -0.13744274225E+02  0.88399740501E+00  0.27006410260E+02  0.30315552453E+02  0.00000000000E+00 0.  1.
</event>
<event>
 5    1  0.8875601E-005  0.9118800E+02  0.7818608E-02  0.1130116E+00
         25   -1    0    0    0    0  0.00000000000E+00  0.00000000000E+00  0.99999998245E-14  0.12500000000E+03  0.12500000000E+03 0.  0.
        -11    1    3    3    0    0  0.28872026039E+02  0.41431311629E+02  0.35254141975E+02  0.61587352578E+02  0.51100000000E-03 0.  1.
         23    2    1    0    0    0  0.94225982800E+01  0.16883760291E+02  0.22314863919E+02  0.95473742675E+02  0.90793367977E+02 0.  0.
         11    1    3    3    0    0 -0.19449427759E+02 -0.24547551338E+02 -0.12939278056E+02  0.33886390096E+02  0.51100000000E-03 0. -1.
         22    1    1    0    0    0 -0.94225982800E+01 -0.16883760291E+02 -0.22314863919E+02  0.29526257325E+02  0.00000000000E+00 0.  1.
</event>
<event>
 5    1  0.8875601E-005  0.9118800E+02  0.7818608E-02  0.1130116E+00
         25   -1    0    0    0    0  0.00000000000E+00  0.00000000000E+00  0.99999998245E-14  0.12500000000E+03  0.12500000000E+03 0.  0.
        -11    1    3    3    0    0 -0.11284160216E+02 -0.26223039024E+02 -0.52006586054E+02  0.59326764961E+02  0.51100000000E-03 0.  1.
         23    2    1    0    0    0  0.33973140391E+01 -0.22213054744E+02 -0.19389575243E+02  0.95319751149E+02  0.90581111648E+02 0.  0.
         11    1    3    3    0    0  0.14681474255E+02  0.40099842801E+01  0.32617010811E+02  0.35992986189E+02  0.51100000000E-03 0. -1.
         22    1    1    0    0    0 -0.33973140391E+01  0.22213054744E+02  0.19389575243E+02  0.29680248851E+02  0.00000000000E+00 0.  1.
</event>
<event>
 5    1  0.8875601E-005  0.9118800E+02  0.7818608E-02  0.1130116E+00
         25   -1    0    0    0    0  0.00000000000E+00  0.00000000000E+00  0.99999998245E-14  0.12500000000E+03  0.12500000000E+03 0.  0.
        -11    1    3    3    0    0 -0.36480447496E+02  0.10240398408E+02 -0.27123358871E+02  0.46597912033E+02  0.51100000000E-03 0.  1.
         23    2    1    0    0    0 -0.25907217101E+01 -0.24075486645E+02 -0.15633720045E+02  0.96177194817E+02  0.91756736561E+02 0.  0.
         11    1    3    3    0    0  0.33889725786E+02 -0.34315885053E+02  0.11489638826E+02  0.49579282784E+02  0.51100000000E-03 0. -1.
         22    1    1    0    0    0  0.25907217101E+01  0.24075486645E+02  0.15633720045E+02  0.28822805183E+02  0.00000000000E+00 0. -1.
</event>
<event>
 5    1  0.8875601E-005  0.9118800E+02  0.7818608E-02  0.1130116E+00
         25   -1    0    0    0    0  0.00000000000E+00  0.00000000000E+00  0.99999998245E-14  0.12500000000E+03  0.12500000000E+03 0.  0.
        -11    1    3    3    0    0  0.24205548537E+02 -0.26187669674E+02  0.49776825478E+02  0.61232630009E+02  0.51100000000E-03 0. -1.
         23    2    1    0    0    0  0.18551203191E+02 -0.69943876950E+01  0.23720891463E+02  0.94084804854E+02  0.88860571761E+02 0.  0.
         11    1    3    3    0    0 -0.56543453452E+01  0.19193281979E+02 -0.26055934015E+02  0.32852174845E+02  0.51100000000E-03 0.  1.
         22    1    1    0    0    0 -0.18551203191E+02  0.69943876950E+01 -0.23720891463E+02  0.30915195146E+02  0.00000000000E+00 0. -1.
</event>
<event>
 5    1  0.8875601E-005  0.9118800E+02  0.7818608E-02  0.1130116E+00
         25   -1    0    0    0    0  0.00000000000E+00  0.00000000000E+00  0.99999998245E-14  0.12500000000E+03  0.12500000000E+03 0.  0.
        -11    1    3    3    0    0 -0.71689355375E+01  0.33297046557E+02  0.11248014130E+02  0.35869273317E+02  0.51100000000E-03 0.  1.
         23    2    1    0    0    0 -0.12742873401E+02 -0.25370486618E+02 -0.28577503191E+01  0.96465649637E+02  0.92148860054E+02 0.  0.
         11    1    3    3    0    0 -0.55739378636E+01 -0.58667533175E+02 -0.14105764449E+02  0.60596376320E+02  0.51100000000E-03 0. -1.
         22    1    1    0    0    0  0.12742873401E+02  0.25370486618E+02  0.28577503191E+01  0.28534350363E+02  0.00000000000E+00 0. -1.
</event>
<event>
 5    1  0.8875601E-005  0.9118800E+02  0.7818608E-02  0.1130116E+00
         25   -1    0    0    0    0  0.00000000000E+00  0.00000000000E+00  0.99999998245E-14  0.12500000000E+03  0.12500000000E+03 0.  0.
        -11    1    3    3    0    0 -0.43454769779E+02 -0.20698448325E+01 -0.27235696751E+02  0.51326254996E+02  0.51100000000E-03 0.  1.
         23    2    1    0    0    0 -0.36040434766E+01  0.16340821845E+02  0.68649539557E+01  0.10691301073E+03  0.10537197295E+03 0.  0.
         11    1    3    3    0    0  0.39850726303E+02  0.18410666678E+02  0.34100650707E+02  0.55586755736E+02  0.51100000000E-03 0. -1.
         22    1    1    0    0    0  0.36040434766E+01 -0.16340821845E+02 -0.68649539557E+01  0.18086989268E+02  0.00000000000E+00 0. -1.
</event>
<event>
 5    1  0.8875601E-005  0.9118800E+02  0.7818608E-02  0.1130116E+00
         25   -1    0    0    0    0  0.00000000000E+00  0.00000000000E+00  0.99999998245E-14  0.12500000000E+03  0.12500000000E+03 0.  0.
        -11    1    3    3    0    0  0.33206549680E+01  0.58250822326E+02 -0.14968644043E+02  0.60234918078E+02  0.51100000000E-03 0.  1.
         23    2    1    0    0    0  0.34016483764E+01  0.33030740386E+02  0.36661837724E+01  0.91592786325E+02  0.85283038062E+02 0.  0.
         11    1    3    3    0    0  0.80993408390E-01 -0.25220081940E+02  0.18634827815E+02  0.31357868247E+02  0.51100000000E-03 0. -1.
         22    1    1    0    0    0 -0.34016483764E+01 -0.33030740386E+02 -0.36661837724E+01  0.33407213675E+02  0.00000000000E+00 0.  1.
</event>
<event>
 5    1  0.8875601E-005  0.9118800E+02  0.7818608E-02  0.1130116E+00
         25   -1    0    0    0    0  0.00000000000E+00  0.00000000000E+00  0.99999998245E-14  0.12500000000E+03  0.12500000000E+03 0.  0.
        -11    1    3    3    0    0 -0.14894451003E+02  0.26509058778E+02 -0.42193566101E+02  0.52008382868E+02  0.51100000000E-03 0. -1.
         23    2    1    0    0    0  0.18852137563E+02  0.10696189944E+02 -0.20691634648E+02  0.95034097471E+02  0.90186054175E+02 0.  0.
         11    1    3    3    0    0  0.33746588566E+02 -0.15812868834E+02  0.21501931453E+02  0.43025714602E+02  0.51100000000E-03 0.  1.
         22    1    1    0    0    0 -0.18852137563E+02 -0.10696189944E+02  0.20691634648E+02  0.29965902529E+02  0.00000000000E+00 0. -1.
</event>
<event>
 5    1  0.8875601E-005  0.9118800E+02  0.7818608E-02  0.1130116E+00
         25   -1    0    0    0    0  0.00000000000E+00  0.00000000000E+00  0.99999998245E-14  0.12500000000E+03  0.12500000000E+03 0.  0.
        -11    1    3    3    0    0  0.27551149535E+02 -0.16055153401E+02  0.69780509678E+01  0.32642410864E+02  0.51100000000E-03 0. -1.
         23    2    1    0    0    0 -0.28584067083E+02  0.85838059714E+01  0.85076213209E+01  0.93965982592E+02  0.88693267208E+02 0.  0.
         11    1    3    3    0    0 -0.56135216618E+02  0.24638959373E+02  0.15295703531E+01  0.61323571728E+02  0.51100000000E-03 0.  1.
         22    1    1    0    0    0  0.28584067083E+02 -0.85838059714E+01 -0.85076213209E+01  0.31034017408E+02  0.00000000000E+00 0.  1.
</event>
<event>
 5    1  0.8875601E-005  0.9118800E+02  0.7818608E-02  0.1130116E+00
         25   -1    0    0    0    0  0.00000000000E+00  0.00000000000E+00  0.99999998245E-14  0.12500000000E+03  0.12500000000E+03 0.  0.
        -11    1    3    3    0    0 -0.14553805014E+02 -0.26696631657E+02  0.19697307380E+02  0.36228542621E+02  0.51100000000E-03 0.  1.
         23    2    1    0    0    0  0.32674544402E+01  0.28425065123E+02  0.57268481364E+01  0.95820257449E+02  0.91269186270E+02 0.  0.
         11    1    3    3    0    0  0.17821259454E+02  0.55121696780E+02 -0.13970459244E+02  0.59591714828E+02  0.51100000000E-03 0. -1.
         22    1    1    0    0    0 -0.32674544402E+01 -0.28425065123E+02 -0.57268481364E+01  0.29179742551E+02  0.00000000000E+00 0. -1.
</event>
<event>
 5    1  0.8875601E-005  0.9118800E+02  0.7818608E-02  0.1130116E+00
         25   -1    0    0    0    0  0.00000000000E+00  0.00000000000E+00  0.99999998245E-14  0.12500000000E+03  0.12500000000E+03 0.  0.
        -11    1    3    3    0    0  0.16164392131E+02  0.19877339905E+02  0.24189614183E+02  0.35235403350E+02  0.51100000000E-03 0.  1.
         23    2    1    0    0    0 -0.24381339585E+02  0.62586246263E+00 -0.16284968624E+02  0.95673533679E+02  0.91068015350E+02 0.  0.
         11    1    3    3    0    0 -0.40545731716E+02 -0.19251477442E+02 -0.40474582807E+02  0.60438130329E+02  0.51100000000E-03 0. -1.
         22    1    1    0    0    0  0.24381339585E+02 -0.62586246263E+00  0.16284968624E+02  0.29326466321E+02  0.00000000000E+00 0. -1.
</event>
<event>
 5    1  0.8875601E-005  0.9118800E+02  0.7818608E-02  0.1130116E+00
         25   -1    0    0    0    0  0.00000000000E+00  0.00000000000E+00  0.99999998245E-14  0.12500000000E+03  0.12500000000E+03 0.  0.
        -11    1    3    3    0    0  0.33083791042E+02 -0.13671321096E+02 -0.27301021652E+02  0.45019862658E+02  0.51100000000E-03 0. -1.
         23    2    1    0    0    0  0.13198108739E+02  0.25603466534E+02 -0.12601483282E+01  0.96167456812E+02  0.91743469539E+02 0.  0.
         11    1    3    3    0    0 -0.19885682303E+02  0.39274787630E+02  0.26040873324E+02  0.51147594154E+02  0.51100000000E-03 0.  1.
         22    1    1    0    0    0 -0.13198108739E+02 -0.25603466534E+02  0.12601483282E+01  0.28832543188E+02  0.00000000000E+00 0. -1.
</event>
<event>
 5    1  0.8875601E-005  0.9118800E+02  0.7818608E-02  0.1130116E+00
         25   -1    0    0    0    0  0.00000000000E+00  0.00000000000E+00  0.99999998245E-14  0.12500000000E+03  0.12500000000E+03 0.  0.
        -11    1    3    3    0    0 -0.10543672630E+02  0.53071610891E+02  0.18913671480E+02  0.57319210429E+02  0.51100000000E-03 0.  1.
         23    2    1    0    0    0 -0.16171549416E+01  0.26878520763E+02 -0.89841950825E+01  0.96613633030E+02  0.92349381468E+02 0.  0.
         11    1    3    3    0    0  0.89265176887E+01 -0.26193090128E+02 -0.27897866562E+02  0.39294422601E+02  0.51100000000E-03 0. -1.
         22    1    1    0    0    0  0.16171549416E+01 -0.26878520763E+02  0.89841950825E+01  0.28386366970E+02  0.00000000000E+00 0.  1.
</event>
<event>
 5    1  0.8875601E-005  0.9118800E+02  0.7818608E-02  0.1130116E+00
         25   -1    0    0    0    0  0.00000000000E+00  0.00000000000E+00  0.99999998245E-14  0.12500000000E+03  0.12500000000E+03 0.  0.
        -11    1    3    3    0    0 -0.16779615907E+02 -0.51879330726E+02 -0.15014419171E+02  0.56554869374E+02  0.51100000000E-03 0. -1.
         23    2    1    0    0    0 -0.20119045083E+02 -0.20556145966E+02  0.75007527799E+01  0.95274717760E+02  0.90518945199E+02 0.  0.
         11    1    3    3    0    0 -0.33394291763E+01  0.31323184761E+02  0.22515171951E+02  0.38719848386E+02  0.51100000000E-03 0.  1.
         22    1    1    0    0    0  0.20119045083E+02  0.20556145966E+02 -0.75007527799E+01  0.29725282240E+02  0.00000000000E+00 0. -1.
</event>
<event>
 5    1  0.8875601E-005  0.9118800E+02  0.7818608E-02  0.1130116E+00
         25   -1    0    0    0    0  0.00000000000E+00  0.00000000000E+00  0.99999998245E-14  0.12500000000E+03  0.12500000000E+03 0.  0.
        -11    1    3    3    0    0  0.22118709942E+02 -0.18132062003E+02 -0.49125618687E+02  0.56844836297E+02  0.51100000000E-03 0.  1.
         23    2    1    0    0    0  0.84009378132E+01  0.10307571474E+02 -0.25362893548E+02  0.96362644065E+02  0.92009026820E+02 0.  0.
         11    1    3    3    0    0 -0.13717772129E+02  0.28439633477E+02  0.23762725139E+02  0.39517807768E+02  0.51100000000E-03 0. -1.
         22    1    1    0    0    0 -0.84009378132E+01 -0.10307571474E+02  0.25362893548E+02  0.28637355935E+02  0.00000000000E+00 0.  1.
</event>
<event>
 5    1  0.8875601E-005  0.9118800E+02  0.7818608E-02  0.1130116E+00
         25   -1    0    0    0    0  0.00000000000E+00  0.00000000000E+00  0.99999998245E-14  0.12500000000E+03  0.12500000000E+03 0.  0.
        -11    1    3    3    0    0 -0.54947577427E+01 -0.67694045139E+01 -0.33345656120E+02  0.34466650293E+02  0.51100000000E-03 0.  1.
         23    2    1    0    0    0  0.25782246608E+01  0.11942950961E+02  0.25490620511E+02  0.96732473506E+02  0.92510098781E+02 0.  0.
         11    1    3    3    0    0  0.80729824035E+01  0.18712355475E+02  0.58836276631E+02  0.62265823213E+02  0.51100000000E-03 0. -1.
         22    1    1    0    0    0 -0.25782246608E+01 -0.11942950961E+02 -0.25490620511E+02  0.28267526494E+02  0.00000000000E+00 0. -1.
</event>
<event>
 5    1  0.8875601E-005  0.9118800E+02  0.7818608E-02  0.1130116E+00
         25   -1    0    0    0    0  0.00000000000E+00  0.00000000000E+00  0.99999998245E-14  0.12500000000E+03  0.12500000000E+03 0.  0.
        -11    1    3    3    0    0  0.20556288938E+02  0.37735598515E-01  0.45980149345E+02  0.50366025979E+02  0.51100000000E-03 0. -1.
         23    2    1    0    0    0  0.23181871315E+02  0.17244946237E+02  0.39746132105E+01  0.95835211666E+02  0.91289664895E+02 0.  0.
         11    1    3    3    0    0  0.26255823769E+01  0.17207210639E+02 -0.42005536135E+02  0.45469185687E+02  0.51100000000E-03 0.  1.
         22    1    1    0    0    0 -0.23181871315E+02 -0.17244946237E+02 -0.39746132105E+01  0.29164788334E+02  0.00000000000E+00 0. -1.
</event>
<event>
 5    1  0.8875601E-005  0.9118800E+02  0.7818608E-02  0.1130116E+00
         25   -1    0    0    0    0  0.00000000000E+00  0.00000000000E+00  0.99999998245E-14  0.12500000000E+03  0.12500000000E+03 0.  0.
        -11    1    3    3    0    0 -0.37924604213E+01 -0.35579377559E+02 -0.28372726868E+02  0.45664937246E+02  0.51100000000E-03 0. -1.
         23    2    1    0    0    0  0.27638833748E+02 -0.76289923875E+01 -0.13226002725E+00  0.96327292620E+02  0.91960987136E+02 0.  0.
         11    1    3    3    0    0  0.31431294169E+02  0.27950385171E+02  0.28240466841E+02  0.50662355374E+02  0.51100000000E-03 0.  1.
         22    1    1    0    0    0 -0.27638833748E+02  0.76289923875E+01  0.13226002725E+00  0.28672707380E+02  0.00000000000E+00 0. -1.
</event>
<event>
 5    1  0.8875601E-005  0.9118800E+02  0.7818608E-02  0.1130116E+00
         25   -1    0    0    0    0  0.00000000000E+00  0.00000000000E+00  0.99999998245E-14  0.12500000000E+03  0.12500000000E+03 0.  0.
        -11    1    3    3    0    0 -0.73762303633E+01  0.17241354139E+02  0.55924423451E+02  0.58984864207E+02  0.51100000000E-03 0.  1.
         23    2    1    0    0    0 -0.82169189110E+01 -0.60417296012E+01  0.27078538884E+02  0.96064424646E+02  0.91602981183E+02 0.  0.
         11    1    3    3    0    0 -0.84068854773E+00 -0.23283083740E+02 -0.28845884567E+02  0.37079560440E+02  0.51100000000E-03 0. -1.
         22    1    1    0    0    0  0.82169189110E+01  0.60417296012E+01 -0.27078538884E+02  0.28935575354E+02  0.00000000000E+00 0.  1.
</event>
<event>
 5    1  0.8875601E-005  0.9118800E+02  0.7818608E-02  0.1130116E+00
         25   -1    0    0    0    0  0.00000000000E+00  0.00000000000E+00  0.99999998245E-14  0.12500000000E+03  0.12500000000E+03 0.  0.
        -11    1    3    3    0    0 -0.16287192647E+02 -0.46790002706E+02 -0.29709709088E+02  0.57768882730E+02  0.51100000000E-03 0.  1.
         23    2    1    0    0    0 -0.21675310829E+02 -0.20359653509E+02 -0.40687754860E+01  0.94985178253E+02  0.90118225478E+02 0.  0.
         11    1    3    3    0    0 -0.53881181821E+01  0.26430349197E+02  0.25640933601E+02  0.37216295523E+02  0.51100000000E-03 0. -1.
         22    1    1    0    0    0  0.21675310829E+02  0.20359653509E+02  0.40687754860E+01  0.30014821747E+02  0.00000000000E+00 0.  1.
</event>
<event>
 5    1  0.8875601E-005  0.9118800E+02  0.7818608E-02  0.1130116E+00
         25   -1    0    0    0    0  0.00000000000E+00  0.00000000000E+00  0.99999998245E-14  0.12500000000E+03  0.12500000000E+03 0.  0.
        -11    1    3    3    0    0  0.62463511373E+01 -0.96965927157E+01  0.54276548246E+02  0.55488597952E+02  0.51100000000E-03 0. -1.
         23    2    1    0    0    0  0.12633537816E+02  0.13985147621E+02  0.21900156866E+02  0.96106964464E+02  0.91661011973E+02 0.  0.
         11    1    3    3    0    0  0.63871866786E+01  0.23681740337E+02 -0.32376391380E+02  0.40618366512E+02  0.51100000000E-03 0.  1.
         22    1    1    0    0    0 -0.12633537816E+02 -0.13985147621E+02 -0.21900156866E+02  0.28893035536E+02  0.00000000000E+00 0. -1.
</event>
<event>
 5    1  0.8875601E-005  0.9118800E+02  0.7818608E-02  0.1130116E+00
         25   -1    0    0    0    0  0.00000000000E+00  0.00000000000E+00  0.99999998245E-14  0.12500000000E+03  0.12500000000E+03 0.  0.
        -11    1    3    3    0    0 -0.59511365604E+02 -0.39741977099E+01  0.15504557662E+02  0.61626197287E+02  0.51100000000E-03 0. -1.
         23    2    1    0    0    0 -0.27177065011E+02  0.48755098180E+01  0.10192080587E+02  0.95568011190E+02  0.90923059768E+02 0.  0.
         11    1    3    3    0    0  0.32334300592E+02  0.88497075279E+01 -0.53124770755E+01  0.33941813904E+02  0.51100000000E-03 0.  1.
         22    1    1    0    0    0  0.27177065011E+02 -0.48755098180E+01 -0.10192080587E+02  0.29431988810E+02  0.00000000000E+00 0. -1.
</event>
<event>
 5    1  0.8875601E-005  0.9118800E+02  0.7818608E-02  0.1130116E+00
         25   -1    0    0    0    0  0.00000000000E+00  0.00000000000E+00  0.99999998245E-14  0.12500000000E+03  0.12500000000E+03 0.  0.
        -11    1    3    3    0    0 -0.68288107347E+01 -0.10939096359E+02  0.42616802638E+02  0.44525142925E+02  0.51100000000E-03 0.  1.
         23    2    1    0    0    0 -0.23872879459E+02  0.14880627986E+02  0.39788534435E+00  0.96866287560E+02  0.92690732492E+02 0.  0.
         11    1    3    3    0    0 -0.17044068725E+02  0.25819724345E+02 -0.42218917293E+02  0.52341144634E+02  0.51100000000E-03 0. -1.
         22    1    1    0    0    0  0.23872879459E+02 -0.14880627986E+02 -0.39788534435E+00  0.28133712440E+02  0.00000000000E+00 0. -1.
</event>
<event>
 4    1  0.8875601E-005  0.9118800E+02  0.7818608E-02  0.1130116E+00
         25   -1    0    0    0    0  0.00000000000E+00  0.00000000000E+00  0.99999998245E-14  0.12500000000E+03  0.12500000000E+03 0.  0.
        -11    1    1    0    0    0  0.50875496779E+01  0.29763480488E+01  0.68198772624E+01  0.90140188356E+01  0.51100000000E-03 0. -1.
         11    1    1    0    0    0 -0.22529682801E+02  0.26344122537E+02 -0.50070905034E+02  0.60899055251E+02  0.51100000000E-03 0.  1.
         22    1    1    0    0    0  0.17442133123E+02 -0.29320470586E+02  0.43251027771E+02  0.55086925913E+02  0.00000000000E+00 0.  1.
</event>
<event>
 5    1  0.8875601E-005  0.9118800E+02  0.7818608E-02  0.1130116E+00
         25   -1    0    0    0    0  0.00000000000E+00  0.00000000000E+00  0.99999998245E-14  0.12500000000E+03  0.12500000000E+03 0.  0.
        -11    1    3    3    0    0  0.19712380291E+02  0.27218089966E+02 -0.46099311977E+01  0.33921288656E+02  0.51100000000E-03 0. -1.
         23    2    1    0    0    0 -0.19654946132E+02 -0.18029350105E+02  0.11395242723E+02  0.95996104927E+02  0.91509705670E+02 0.  0.
         11    1    3    3    0    0 -0.39367326424E+02 -0.45247440071E+02  0.16005173921E+02  0.62074816272E+02  0.51100000000E-03 0.  1.
         22    1    1    0    0    0  0.19654946132E+02  0.18029350105E+02 -0.11395242723E+02  0.29003895073E+02  0.00000000000E+00 0.  1.
</event>
<event>
 5    1  0.8875601E-005  0.9118800E+02  0.7818608E-02  0.1130116E+00
         25   -1    0    0    0    0  0.00000000000E+00  0.00000000000E+00  0.99999998245E-14  0.12500000000E+03  0.12500000000E+03 0.  0.
        -11    1    3    3    0    0  0.32226137898E+02  0.32790664539E+02  0.20251296012E+02  0.50238099438E+02  0.51100000000E-03 0. -1.
         23    2    1    0    0    0  0.26031703494E+02 -0.15073106382E+01 -0.10665779495E+02  0.96827665620E+02  0.92638633437E+02 0.  0.
         11    1    3    3    0    0 -0.61944344043E+01 -0.34297975177E+02 -0.30917075507E+02  0.46589566182E+02  0.51100000000E-03 0.  1.
         22    1    1    0    0    0 -0.26031703494E+02  0.15073106382E+01  0.10665779495E+02  0.28172334380E+02  0.00000000000E+00 0. -1.
</event>
<event>
 5    1  0.8875601E-005  0.9118800E+02  0.7818608E-02  0.1130116E+00
         25   -1    0    0    0    0  0.00000000000E+00  0.00000000000E+00  0.99999998245E-14  0.12500000000E+03  0.12500000000E+03 0.  0.
        -11    1    3    3    0    0 -0.33024359709E+02  0.15890049086E+02 -0.65180778768E+01  0.37223478258E+02  0.51100000000E-03 0. -1.
         23    2    1    0    0    0  0.16255257641E+02 -0.44293483981E+01  0.21693059298E+02  0.97532904232E+02  0.93585394470E+02 0.  0.
         11    1    3    3    0    0  0.49279617351E+02 -0.20319397485E+02  0.28211137175E+02  0.60309425974E+02  0.51100000000E-03 0.  1.
         22    1    1    0    0    0 -0.16255257641E+02  0.44293483981E+01 -0.21693059298E+02  0.27467095768E+02  0.00000000000E+00 0.  1.
</event>
<event>
 5    1  0.8875601E-005  0.9118800E+02  0.7818608E-02  0.1130116E+00
         25   -1    0    0    0    0  0.00000000000E+00  0.00000000000E+00  0.99999998245E-14  0.12500000000E+03  0.12500000000E+03 0.  0.
        -11    1    3    3    0    0 -0.25686034162E+00  0.36279756620E+01  0.59199128777E+02  0.59310749724E+02  0.51100000000E-03 0.  1.
         23    2    1    0    0    0  0.13924031804E+02  0.25452144674E+01  0.26875889401E+02  0.94624513017E+02  0.89616562388E+02 0.  0.
         11    1    3    3    0    0  0.14180892146E+02 -0.10827611946E+01 -0.32323239376E+02  0.35313763293E+02  0.51100000000E-03 0. -1.
         22    1    1    0    0    0 -0.13924031804E+02 -0.25452144674E+01 -0.26875889401E+02  0.30375486983E+02  0.00000000000E+00 0.  1.
</event>
<event>
 5    1  0.8875601E-005  0.9118800E+02  0.7818608E-02  0.1130116E+00
         25   -1    0    0    0    0  0.00000000000E+00  0.00000000000E+00  0.99999998245E-14  0.12500000000E+03  0.12500000000E+03 0.  0.
        -11    1    3    3    0    0  0.24285825934E+02 -0.38769503401E+02 -0.17489632458E+02  0.48977167936E+02  0.51100000000E-03 0.  1.
         23    2    1    0    0    0 -0.18358551948E+02 -0.19894109042E+02 -0.96168839911E+01  0.96272026492E+02  0.91885834724E+02 0.  0.
         11    1    3    3    0    0 -0.42644377882E+02  0.18875394359E+02  0.78727484670E+01  0.47294858556E+02  0.51100000000E-03 0. -1.
         22    1    1    0    0    0  0.18358551948E+02  0.19894109042E+02  0.96168839911E+01  0.28727973508E+02  0.00000000000E+00 0.  1.
</event>
<event>
 5    1  0.8875601E-005  0.9118800E+02  0.7818608E-02  0.1130116E+00
         25   -1    0    0    0    0  0.00000000000E+00  0.00000000000E+00  0.99999998245E-14  0.12500000000E+03  0.12500000000E+03 0.  0.
        -11    1    3    3    0    0  0.72493933055E+01 -0.20926651245E+02  0.27064639384E+02  0.34971032883E+02  0.51100000000E-03 0. -1.
         23    2    1    0    0    0  0.32744616429E+01 -0.81888548365E+01 -0.30080453184E+02  0.93653339790E+02  0.88251543598E+02 0.  0.
         11    1    3    3    0    0 -0.39749316627E+01  0.12737796409E+02 -0.57145092568E+02  0.58682306907E+02  0.51100000000E-03 0.  1.
         22    1    1    0    0    0 -0.32744616429E+01  0.81888548365E+01  0.30080453184E+02  0.31346660210E+02  0.00000000000E+00 0.  1.
</event>
<event>
 5    1  0.8875601E-005  0.9118800E+02  0.7818608E-02  0.1130116E+00
         25   -1    0    0    0    0  0.00000000000E+00  0.00000000000E+00  0.99999998245E-14  0.12500000000E+03  0.12500000000E+03 0.  0.
        -11    1    3    3    0    0  0.37850258940E+02 -0.15016436439E+02  0.20975294636E+02  0.45805004644E+02  0.51100000000E-03 0. -1.
         23    2    1    0    0    0  0.24306360368E+02  0.16588443614E+02 -0.11787719495E+02  0.93299433021E+02  0.87748836205E+02 0.  0.
         11    1    3    3    0    0 -0.13543898571E+02  0.31604880053E+02 -0.32763014131E+02  0.47494428377E+02  0.51100000000E-03 0.  1.
         22    1    1    0    0    0 -0.24306360368E+02 -0.16588443614E+02  0.11787719495E+02  0.31700566979E+02  0.00000000000E+00 0.  1.
</event>
<event>
 5    1  0.8875601E-005  0.9118800E+02  0.7818608E-02  0.1130116E+00
         25   -1    0    0    0    0  0.00000000000E+00  0.00000000000E+00  0.99999998245E-14  0.12500000000E+03  0.12500000000E+03 0.  0.
        -11    1    3    3    0    0  0.10370620998E+01 -0.47716525964E+02  0.38015240421E+02  0.61017217672E+02  0.51100000000E-03 0.  1.
         23    2    1    0    0    0 -0.79841717984E+01 -0.24298636576E+02  0.13589475556E+02  0.96037186175E+02  0.91565804446E+02 0.  0.
         11    1    3    3    0    0 -0.90212338982E+01  0.23417889388E+02 -0.24425764865E+02  0.35019968503E+02  0.51100000000E-03 0. -1.
         22    1    1    0    0    0  0.79841717984E+01  0.24298636576E+02 -0.13589475556E+02  0.28962813825E+02  0.00000000000E+00 0.  1.
</event>
<event>
 5    1  0.8875601E-005  0.9118800E+02  0.7818608E-02  0.1130116E+00
         25   -1    0    0    0    0  0.00000000000E+00  0.00000000000E+00  0.99999998245E-14  0.12500000000E+03  0.12500000000E+03 0.  0.
        -11    1    3    3    0    0 -0.33444480293E+02 -0.25128746461E+02  0.39204865104E+02  0.57332439411E+02  0.51100000000E-03 0.  1.
         23    2    1    0    0    0 -0.25698669632E+02 -0.13920316089E+02  0.34802932910E+01  0.95566867950E+02  0.90921488041E+02 0.  0.
         11    1    3    3    0    0  0.77458106607E+01  0.11208430372E+02 -0.35724571813E+02  0.38234428539E+02  0.51100000000E-03 0. -1.
         22    1    1    0    0    0  0.25698669632E+02  0.13920316089E+02 -0.34802932910E+01  0.29433132050E+02  0.00000000000E+00 0.  1.
</event>
<event>
 5    1  0.8875601E-005  0.9118800E+02  0.7818608E-02  0.1130116E+00
         25   -1    0    0    0    0  0.00000000000E+00  0.00000000000E+00  0.99999998245E-14  0.12500000000E+03  0.12500000000E+03 0.  0.
        -11    1    3    3    0    0  0.17493262572E+02 -0.64390512191E+01 -0.17603790785E+02  0.25639209549E+02  0.51100000000E-03 0. -1.
         23    2    1    0    0    0 -0.24393468624E+02 -0.32767517390E+02 -0.27048029427E+02  0.76006659603E+02  0.58109077611E+02 0.  0.
         11    1    3    3    0    0 -0.41886731196E+02 -0.26328466171E+02 -0.94442386421E+01  0.50367450054E+02  0.51100000000E-03 0.  1.
         22    1    1    0    0    0  0.24393468624E+02  0.32767517390E+02  0.27048029427E+02  0.48993340397E+02  0.00000000000E+00 0.  1.
</event>
<event>
 5    1  0.8875601E-005  0.9118800E+02  0.7818608E-02  0.1130116E+00
         25   -1    0    0    0    0  0.00000000000E+00  0.00000000000E+00  0.99999998245E-14  0.12500000000E+03  0.12500000000E+03 0.  0.
        -11    1    3    3    0    0  0.41918576214E+02 -0.15725116226E+02  0.42376606889E+02  0.61645949776E+02  0.51100000000E-03 0. -1.
         23    2    1    0    0    0  0.20244372297E+02 -0.12662798943E+02  0.14597194081E+02  0.97013232380E+02  0.92888686582E+02 0.  0.
         11    1    3    3    0    0 -0.21674203917E+02  0.30623172834E+01 -0.27779412807E+02  0.35367282604E+02  0.51100000000E-03 0.  1.
         22    1    1    0    0    0 -0.20244372297E+02  0.12662798943E+02 -0.14597194081E+02  0.27986767620E+02  0.00000000000E+00 0. -1.
</event>
<event>
 5    1  0.8875601E-005  0.9118800E+02  0.7818608E-02  0.1130116E+00
         25   -1    0    0    0    0  0.00000000000E+00  0.00000000000E+00  0.99999998245E-14  0.12500000000E+03  0.12500000000E+03 0.  0.
        -11    1    3    3    0    0  0.32059239992E+02  0.48145662737E+02 -0.12678588359E+02  0.59216098421E+02  0.51100000000E-03 0.  1.
         23    2    1    0    0    0  0.22691716245E+02  0.13643721640E+02 -0.14113195415E+02  0.94995876765E+02  0.90133063806E+02 0.  0.
         11    1    3    3    0    0 -0.93675237476E+01 -0.34501941097E+02 -0.14346070562E+01  0.35779778343E+02  0.51100000000E-03 0. -1.
         22    1    1    0    0    0 -0.22691716245E+02 -0.13643721640E+02  0.14113195415E+02  0.30004123235E+02  0.00000000000E+00 0.  1.
</event>
<event>
 5    1  0.8875601E-005  0.9118800E+02  0.7818608E-02  0.1130116E+00
         25   -1    0    0    0    0  0.00000000000E+00  0.00000000000E+00  0.99999998245E-14  0.12500000000E+03  0.12500000000E+03 0.  0.
        -11    1    3    3    0    0  0.21084902414E+02  0.26759013105E+02  0.12093645673E+02  0.36150714489E+02  0.51100000000E-03 0. -1.
         23    2    1    0    0    0  0.30803086268E+01 -0.22465625128E+02 -0.17513089777E+02  0.96348631321E+02  0.91989987663E+02 0.  0.
         11    1    3    3    0    0 -0.18004593788E+02 -0.49224638233E+02 -0.29606735450E+02  0.60197916832E+02  0.51100000000E-03 0.  1.
         22    1    1    0    0    0 -0.30803086268E+01  0.22465625128E+02  0.17513089777E+02  0.28651368679E+02  0.00000000000E+00 0.  1.
</event>
<event>
 5    1  0.8875601E-005  0.9118800E+02  0.7818608E-02  0.1130116E+00
         25   -1    0    0    0    0  0.00000000000E+00  0.00000000000E+00  0.99999998245E-14  0.12500000000E+03  0.12500000000E+03 0.  0.
        -11    1    3    3    0    0 -0.22000997282E+02  0.40755531988E+02  0.21494516973E+02  0.51059490099E+02  0.51100000000E-03 0.  1.
         23    2    1    0    0    0  0.12809102130E+02  0.21502599330E+02 -0.58067690940E+01  0.99306548643E+02  0.95925164377E+02 0.  0.
         11    1    3    3    0    0  0.34810099412E+02 -0.19252932657E+02 -0.27301286067E+02  0.48247058544E+02  0.51100000000E-03 0. -1.
         22    1    1    0    0    0 -0.12809102130E+02 -0.21502599330E+02  0.58067690940E+01  0.25693451357E+02  0.00000000000E+00 0.  1.
</event>
<event>
 5    1  0.8875601E-005  0.9118800E+02  0.7818608E-02  0.1130116E+00
         25   -1    0    0    0    0  0.00000000000E+00  0.00000000000E+00  0.99999998245E-14  0.12500000000E+03  0.12500000000E+03 0.  0.
        -11    1    3    3    0    0 -0.31529243338E+02  0.37477282568E+01 -0.23492666433E+02  0.39497392685E+02  0.51100000000E-03 0.  1.
         23    2    1    0    0    0  0.20274183700E+02 -0.15914727730E+02 -0.12786401091E+01  0.99193876619E+02  0.95778229023E+02 0.  0.
         11    1    3    3    0    0  0.51803427038E+02 -0.19662455987E+02  0.22214026323E+02  0.59696483934E+02  0.51100000000E-03 0. -1.
         22    1    1    0    0    0 -0.20274183700E+02  0.15914727730E+02  0.12786401091E+01  0.25806123381E+02  0.00000000000E+00 0. -1.
</event>
<event>
 5    1  0.8875601E-005  0.9118800E+02  0.7818608E-02  0.1130116E+00
         25   -1    0    0    0    0  0.00000000000E+00  0.00000000000E+00  0.99999998245E-14  0.12500000000E+03  0.12500000000E+03 0.  0.
        -11    1    3    3    0    0  0.34682602211E+02  0.26899598253E+02  0.40356212522E+02  0.59624618839E+02  0.51100000000E-03 0.  1.
         23    2    1    0    0    0  0.13879975433E+02  0.23248689980E+02  0.11034458928E+02  0.95761077523E+02  0.91188098899E+02 0.  0.
         11    1    3    3    0    0 -0.20802626778E+02 -0.36509082731E+01 -0.29321753594E+02  0.36136458684E+02  0.51100000000E-03 0. -1.
         22    1    1    0    0    0 -0.13879975433E+02 -0.23248689980E+02 -0.11034458928E+02  0.29238922477E+02  0.00000000000E+00 0.  1.
</event>
<event>
 5    1  0.8875601E-005  0.9118800E+02  0.7818608E-02  0.1130116E+00
         25   -1    0    0    0    0  0.00000000000E+00  0.00000000000E+00  0.99999998245E-14  0.12500000000E+03  0.12500000000E+03 0.  0.
        -11    1    3    3    0    0 -0.88873040861E+01  0.39877819943E+01 -0.40520202138E+02  0.41674612904E+02  0.51100000000E-03 0. -1.
         23    2    1    0    0    0  0.17476477387E+02  0.24322873903E+02  0.11678060207E+01  0.95026791502E+02  0.90175927361E+02 0.  0.
         11    1    3    3    0    0  0.26363781474E+02  0.20335091909E+02  0.41688008159E+02  0.53352178597E+02  0.51100000000E-03 0.  1.
         22    1    1    0    0    0 -0.17476477387E+02 -0.24322873903E+02 -0.11678060207E+01  0.29973208498E+02  0.00000000000E+00 0.  1.
</event>
<event>
 5    1  0.8875601E-005  0.9118800E+02  0.7818608E-02  0.1130116E+00
         25   -1    0    0    0    0  0.00000000000E+00  0.00000000000E+00  0.99999998245E-14  0.12500000000E+03  0.12500000000E+03 0.  0.
        -11    1    3    3    0    0 -0.10812331159E+01 -0.26311857723E+02  0.56362937880E+02  0.62211443390E+02  0.51100000000E-03 0. -1.
         23    2    1    0    0    0 -0.38128825629E+01 -0.11193442401E+02  0.30424784677E+02  0.92358021677E+02  0.86397369284E+02 0.  0.
         11    1    3    3    0    0 -0.27316494470E+01  0.15118415322E+02 -0.25938153203E+02  0.30146578287E+02  0.51100000000E-03 0.  1.
         22    1    1    0    0    0  0.38128825629E+01  0.11193442401E+02 -0.30424784677E+02  0.32641978323E+02  0.00000000000E+00 0. -1.
</event>
<event>
 5    1  0.8875601E-005  0.9118800E+02  0.7818608E-02  0.1130116E+00
         25   -1    0    0    0    0  0.00000000000E+00  0.00000000000E+00  0.99999998245E-14  0.12500000000E+03  0.12500000000E+03 0.  0.
        -11    1    3    3    0    0  0.78201964138E+01  0.38295125812E+02 -0.14487007798E+01  0.39112285373E+02  0.51100000000E-03 0.  1.
         23    2    1    0    0    0  0.18002302351E+02 -0.16893512429E+02  0.13050770259E+02  0.97075167745E+02  0.92971995441E+02 0.  0.
         11    1    3    3    0    0  0.10182105937E+02 -0.55188638240E+02  0.14499471039E+02  0.57962882372E+02  0.51100000000E-03 0. -1.
         22    1    1    0    0    0 -0.18002302351E+02  0.16893512429E+02 -0.13050770259E+02  0.27924832255E+02  0.00000000000E+00 0. -1.
</event>
<event>
 5    1  0.8875601E-005  0.9118800E+02  0.7818608E-02  0.1130116E+00
         25   -1    0    0    0    0  0.00000000000E+00  0.00000000000E+00  0.99999998245E-14  0.12500000000E+03  0.12500000000E+03 0.  0.
        -11    1    3    3    0    0 -0.29892836911E+02 -0.51143631466E+02 -0.80232473148E+01  0.59779806254E+02  0.51100000000E-03 0. -1.
         23    2    1    0    0    0 -0.26119527144E+01 -0.26981246688E+02  0.26766511418E+01  0.97760792391E+02  0.93889286384E+02 0.  0.
         11    1    3    3    0    0  0.27280884196E+02  0.24162384777E+02  0.10699898457E+02  0.37980986136E+02  0.51100000000E-03 0.  1.
         22    1    1    0    0    0  0.26119527144E+01  0.26981246688E+02 -0.26766511418E+01  0.27239207609E+02  0.00000000000E+00 0. -1.
</event>
<event>
 5    1  0.8875601E-005  0.9118800E+02  0.7818608E-02  0.1130116E+00
         25   -1    0    0    0    0  0.00000000000E+00  0.00000000000E+00  0.99999998245E-14  0.12500000000E+03  0.12500000000E+03 0.  0.
        -11    1    3    3    0    0  0.15843458615E+02 -0.29436244748E+02 -0.46822031028E+01  0.33755454550E+02  0.51100000000E-03 0.  1.
         23    2    1    0    0    0 -0.22024614716E+01  0.29396534841E+02 -0.35892662428E+01  0.95303368383E+02  0.90558500959E+02 0.  0.
         11    1    3    3    0    0 -0.18045920087E+02  0.58832779589E+02  0.10929368600E+01  0.61547913833E+02  0.51100000000E-03 0. -1.
         22    1    1    0    0    0  0.22024614716E+01 -0.29396534841E+02  0.35892662428E+01  0.29696631617E+02  0.00000000000E+00 0. -1.
</event>
<event>
 4    1  0.8875601E-005  0.9118800E+02  0.7818608E-02  0.1130116E+00
         25   -1    0    0    0    0  0.00000000000E+00  0.00000000000E+00  0.99999998245E-14  0.12500000000E+03  0.12500000000E+03 0.  0.
        -11    1    1    0    0    0 -0.14526950219E+02 -0.25351459574E+02  0.46735649936E+02  0.55117599370E+02  0.51100000000E-03 0. -1.
         11    1    1    0    0    0 -0.13222857805E+02  0.92182630134E+01 -0.43157061463E+01  0.16686691144E+02  0.51100000000E-03 0.  1.
         22    1    1    0    0    0  0.27749808024E+02  0.16133196561E+02 -0.42419943789E+02  0.53195709486E+02  0.00000000000E+00 0. -1.
</event>
<event>
 5    1  0.8875601E-005  0.9118800E+02  0.7818608E-02  0.1130116E+00
         25   -1    0    0    0    0  0.00000000000E+00  0.00000000000E+00  0.99999998245E-14  0.12500000000E+03  0.12500000000E+03 0.  0.
        -11    1    3    3    0    0  0.26908853016E+02 -0.12055469680E+02 -0.33533042387E+02  0.44652946732E+02  0.51100000000E-03 0. -1.
         23    2    1    0    0    0 -0.35667643113E+00  0.18966273939E+02 -0.34123770999E+02  0.85957990416E+02  0.76580007861E+02 0.  0.
         11    1    3    3    0    0 -0.27265529447E+02  0.31021743619E+02 -0.59072861146E+00  0.41305043684E+02  0.51100000000E-03 0.  1.
         22    1    1    0    0    0  0.35667643113E+00 -0.18966273939E+02  0.34123770999E+02  0.39042009584E+02  0.00000000000E+00 0. -1.
</event>
<event>
 5    1  0.8875601E-005  0.9118800E+02  0.7818608E-02  0.1130116E+00
         25   -1    0    0    0    0  0.00000000000E+00  0.00000000000E+00  0.99999998245E-14  0.12500000000E+03  0.12500000000E+03 0.  0.
        -11    1    3    3    0    0  0.20041620373E+02 -0.43262171127E+02 -0.39054485392E+02  0.61632254764E+02  0.51100000000E-03 0.  1.
         23    2    1    0    0    0  0.27222525711E+01 -0.23123056793E+02 -0.16731482260E+02  0.96328953400E+02  0.91963244561E+02 0.  0.
         11    1    3    3    0    0 -0.17319367802E+02  0.20139114333E+02  0.22323003133E+02  0.34696698637E+02  0.51100000000E-03 0. -1.
         22    1    1    0    0    0 -0.27222525711E+01  0.23123056793E+02  0.16731482260E+02  0.28671046600E+02  0.00000000000E+00 0.  1.
</event>
<event>
 5    1  0.8875601E-005  0.9118800E+02  0.7818608E-02  0.1130116E+00
         25   -1    0    0    0    0  0.00000000000E+00  0.00000000000E+00  0.99999998245E-14  0.12500000000E+03  0.12500000000E+03 0.  0.
        -11    1    3    3    0    0  0.33756860598E+02  0.12478396830E+02 -0.19817853142E+02  0.41085074276E+02  0.51100000000E-03 0. -1.
         23    2    1    0    0    0 -0.20626179707E+02  0.85793803714E+01 -0.19093962880E+02  0.95612511585E+02  0.90984217842E+02 0.  0.
         11    1    3    3    0    0 -0.54383040305E+02 -0.38990164585E+01  0.72389026240E+00  0.54527437309E+02  0.51100000000E-03 0.  1.
         22    1    1    0    0    0  0.20626179707E+02 -0.85793803714E+01  0.19093962880E+02  0.29387488415E+02  0.00000000000E+00 0.  1.
</event>
<event>
 5    1  0.8875601E-005  0.9118800E+02  0.7818608E-02  0.1130116E+00
         25   -1    0    0    0    0  0.00000000000E+00  0.00000000000E+00  0.99999998245E-14  0.12500000000E+03  0.12500000000E+03 0.  0.
        -11    1    3    3    0    0  0.19488775042E+02  0.52553272913E+01 -0.45447725308E+02  0.49728528567E+02  0.51100000000E-03 0. -1.
         23    2    1    0    0    0 -0.16545516228E+02 -0.10646603393E+02 -0.21644480746E+02  0.95749567220E+02  0.91172319292E+02 0.  0.
         11    1    3    3    0    0 -0.36034291269E+02 -0.15901930684E+02  0.23803244561E+02  0.46021038653E+02  0.51100000000E-03 0.  1.
         22    1    1    0    0    0  0.16545516228E+02  0.10646603393E+02  0.21644480746E+02  0.29250432780E+02  0.00000000000E+00 0.  1.
</event>
<event>
 5    1  0.8875601E-005  0.9118800E+02  0.7818608E-02  0.1130116E+00
         25   -1    0    0    0    0  0.00000000000E+00  0.00000000000E+00  0.99999998245E-14  0.12500000000E+03  0.12500000000E+03 0.  0.
        -11    1    3    3    0    0 -0.38319849504E+02  0.40184539039E+02  0.18856429240E+02  0.58641051898E+02  0.51100000000E-03 0. -1.
         23    2    1    0    0    0 -0.24073066213E+02  0.17145755041E+02  0.24852593967E+02  0.86384706919E+02  0.77273389533E+02 0.  0.
         11    1    3    3    0    0  0.14246783291E+02 -0.23038783998E+02  0.59961647274E+01  0.27743655022E+02  0.51100000000E-03 0.  1.
         22    1    1    0    0    0  0.24073066213E+02 -0.17145755041E+02 -0.24852593967E+02  0.38615293081E+02  0.00000000000E+00 0. -1.
</event>
<event>
 5    1  0.8875601E-005  0.9118800E+02  0.7818608E-02  0.1130116E+00
         25   -1    0    0    0    0  0.00000000000E+00  0.00000000000E+00  0.99999998245E-14  0.12500000000E+03  0.12500000000E+03 0.  0.
        -11    1    3    3    0    0 -0.48902518411E+02  0.22064554432E+02 -0.15219879437E+02  0.55766886228E+02  0.51100000000E-03 0.  1.
         23    2    1    0    0    0 -0.97515370235E+01  0.19785410023E+02 -0.19937486901E+02  0.95266881966E+02  0.90508123898E+02 0.  0.
         11    1    3    3    0    0  0.39150981388E+02 -0.22791444095E+01 -0.47176074641E+01  0.39499995738E+02  0.51100000000E-03 0. -1.
         22    1    1    0    0    0  0.97515370235E+01 -0.19785410023E+02  0.19937486901E+02  0.29733118034E+02  0.00000000000E+00 0.  1.
</event>
<event>
 5    1  0.8875601E-005  0.9118800E+02  0.7818608E-02  0.1130116E+00
         25   -1    0    0    0    0  0.00000000000E+00  0.00000000000E+00  0.99999998245E-14  0.12500000000E+03  0.12500000000E+03 0.  0.
        -11    1    3    3    0    0  0.21584456986E+02  0.13995497125E+02 -0.55251043499E+02  0.60946210146E+02  0.51100000000E-03 0. -1.
         23    2    1    0    0    0  0.71475134895E+00  0.35905459552E+01 -0.27777222649E+02  0.96982559221E+02  0.92847400638E+02 0.  0.
         11    1    3    3    0    0 -0.20869705637E+02 -0.10404951170E+02  0.27473820851E+02  0.36036349074E+02  0.51100000000E-03 0.  1.
         22    1    1    0    0    0 -0.71475134895E+00 -0.35905459552E+01  0.27777222649E+02  0.28017440779E+02  0.00000000000E+00 0. -1.
</event>
<event>
 5    1  0.8875601E-005  0.9118800E+02  0.7818608E-02  0.1130116E+00
         25   -1    0    0    0    0  0.00000000000E+00  0.00000000000E+00  0.99999998245E-14  0.12500000000E+03  0.12500000000E+03 0.  0.
        -11    1    3    3    0    0 -0.22551214369E+02  0.82451668761E+01  0.27101080306E+02  0.36207852744E+02  0.51100000000E-03 0. -1.
         23    2    1    0    0    0  0.20070730022E+02 -0.21895810153E+02 -0.57171268091E+00  0.95291624729E+02  0.90542289468E+02 0.  0.
         11    1    3    3    0    0  0.42621944391E+02 -0.30140977029E+02 -0.27672792987E+02  0.59083771984E+02  0.51100000000E-03 0.  1.
         22    1    1    0    0    0 -0.20070730022E+02  0.21895810153E+02  0.57171268091E+00  0.29708375271E+02  0.00000000000E+00 0.  1.
</event>
<event>
 5    1  0.8875601E-005  0.9118800E+02  0.7818608E-02  0.1130116E+00
         25   -1    0    0    0    0  0.00000000000E+00  0.00000000000E+00  0.99999998245E-14  0.12500000000E+03  0.12500000000E+03 0.  0.
        -11    1    3    3    0    0 -0.25664334058E+01 -0.50640408832E+02 -0.32555859253E+02  0.60257128699E+02  0.51100000000E-03 0. -1.
         23    2    1    0    0    0 -0.11590916073E+02 -0.25518834450E+02 -0.98802535374E+01  0.95281661267E+02  0.90528533163E+02 0.  0.
         11    1    3    3    0    0 -0.90244826667E+01  0.25121574381E+02  0.22675605715E+02  0.35024532568E+02  0.51100000000E-03 0.  1.
         22    1    1    0    0    0  0.11590916073E+02  0.25518834450E+02  0.98802535374E+01  0.29718338733E+02  0.00000000000E+00 0. -1.
</event>
<event>
 5    1  0.8875601E-005  0.9118800E+02  0.7818608E-02  0.1130116E+00
         25   -1    0    0    0    0  0.00000000000E+00  0.00000000000E+00  0.99999998245E-14  0.12500000000E+03  0.12500000000E+03 0.  0.
        -11    1    3    3    0    0  0.73102643236E+01 -0.26882195242E+02  0.21910250872E+02  0.35442227344E+02  0.51100000000E-03 0. -1.
         23    2    1    0    0    0  0.69735279550E+01  0.28564872296E+02  0.16824535773E+02  0.91123060566E+02  0.84591755754E+02 0.  0.
         11    1    3    3    0    0 -0.33673636863E+00  0.55447067539E+02 -0.50857150994E+01  0.55680833223E+02  0.51100000000E-03 0.  1.
         22    1    1    0    0    0 -0.69735279550E+01 -0.28564872296E+02 -0.16824535773E+02  0.33876939434E+02  0.00000000000E+00 0.  1.
</event>
<event>
 5    1  0.8875601E-005  0.9118800E+02  0.7818608E-02  0.1130116E+00
         25   -1    0    0    0    0  0.00000000000E+00  0.00000000000E+00  0.99999998245E-14  0.12500000000E+03  0.12500000000E+03 0.  0.
        -11    1    3    3    0    0 -0.38282951754E+02 -0.19522356319E+02  0.70797125479E+01  0.43552601774E+02  0.51100000000E-03 0.  1.
         23    2    1    0    0    0  0.65077744473E+01  0.17804142976E+02 -0.89732992549E+01  0.10402719058E+03  0.10189110680E+03 0.  0.
         11    1    3    3    0    0  0.44790726201E+02  0.37326499295E+02 -0.16053011803E+02  0.60474588808E+02  0.51100000000E-03 0. -1.
         22    1    1    0    0    0 -0.65077744473E+01 -0.17804142976E+02  0.89732992549E+01  0.20972809418E+02  0.00000000000E+00 0. -1.
</event>
<event>
 5    1  0.8875601E-005  0.9118800E+02  0.7818608E-02  0.1130116E+00
         25   -1    0    0    0    0  0.00000000000E+00  0.00000000000E+00  0.99999998245E-14  0.12500000000E+03  0.12500000000E+03 0.  0.
        -11    1    3    3    0    0  0.21100009388E+02  0.37704151617E+02 -0.45000126930E+02  0.62384492218E+02  0.51100000000E-03 0.  1.
         23    2    1    0    0    0  0.78183503492E+01  0.19154896035E+02 -0.20122590778E+02  0.96139034945E+02  0.91704736716E+02 0.  0.
         11    1    3    3    0    0 -0.13281659039E+02 -0.18549255582E+02  0.24877536152E+02  0.33754542727E+02  0.51100000000E-03 0. -1.
         22    1    1    0    0    0 -0.78183503492E+01 -0.19154896035E+02  0.20122590778E+02  0.28860965055E+02  0.00000000000E+00 0.  1.
</event>
<event>
 5    1  0.8875601E-005  0.9118800E+02  0.7818608E-02  0.1130116E+00
         25   -1    0    0    0    0  0.00000000000E+00  0.00000000000E+00  0.99999998245E-14  0.12500000000E+03  0.12500000000E+03 0.  0.
        -11    1    3    3    0    0 -0.21401440921E+02 -0.28663253856E+02  0.30064765811E+01  0.35897669796E+02  0.51100000000E-03 0. -1.
         23    2    1    0    0    0  0.50558955490E+01  0.10962236960E+02 -0.29196669472E+02  0.93406041286E+02  0.87900570655E+02 0.  0.
         11    1    3    3    0    0  0.26457336469E+02  0.39625490816E+02 -0.32203146053E+02  0.57508371490E+02  0.51100000000E-03 0.  1.
         22    1    1    0    0    0 -0.50558955490E+01 -0.10962236960E+02  0.29196669472E+02  0.31593958714E+02  0.00000000000E+00 0.  1.
</event>
<event>
 5    1  0.8875601E-005  0.9118800E+02  0.7818608E-02  0.1130116E+00
         25   -1    0    0    0    0  0.00000000000E+00  0.00000000000E+00  0.99999998245E-14  0.12500000000E+03  0.12500000000E+03 0.  0.
        -11    1    3    3    0    0 -0.36883713086E+02  0.14967432691E+02  0.18414589574E+02  0.43858060170E+02  0.51100000000E-03 0. -1.
         23    2    1    0    0    0 -0.16416512864E+02 -0.41641787150E+01 -0.24564805327E+02  0.95162574847E+02  0.90363951395E+02 0.  0.
         11    1    3    3    0    0  0.20467200222E+02 -0.19131611406E+02 -0.42979394901E+02  0.51304514677E+02  0.51100000000E-03 0.  1.
         22    1    1    0    0    0  0.16416512864E+02  0.41641787150E+01  0.24564805327E+02  0.29837425153E+02  0.00000000000E+00 0.  1.
</event>
<event>
 5    1  0.8875601E-005  0.9118800E+02  0.7818608E-02  0.1130116E+00
         25   -1    0    0    0    0  0.00000000000E+00  0.00000000000E+00  0.99999998245E-14  0.12500000000E+03  0.12500000000E+03 0.  0.
        -11    1    3    3    0    0  0.55781044021E+01 -0.10504076849E+02 -0.44165492499E+02  0.45738841339E+02  0.51100000000E-03 0.  1.
         23    2    1    0    0    0 -0.29540249088E+02 -0.27261010250E+01 -0.17051416175E+02  0.90782917475E+02  0.84087629106E+02 0.  0.
         11    1    3    3    0    0 -0.35118353490E+02  0.77779758237E+01  0.27114076323E+02  0.45044076135E+02  0.51100000000E-03 0. -1.
         22    1    1    0    0    0  0.29540249088E+02  0.27261010250E+01  0.17051416175E+02  0.34217082525E+02  0.00000000000E+00 0. -1.
</event>
<event>
 5    1  0.8875601E-005  0.9118800E+02  0.7818608E-02  0.1130116E+00
         25   -1    0    0    0    0  0.00000000000E+00  0.00000000000E+00  0.99999998245E-14  0.12500000000E+03  0.12500000000E+03 0.  0.
        -11    1    3    3    0    0  0.74025577298E-01  0.43558909711E+02  0.21416752042E+02  0.48539276502E+02  0.51100000000E-03 0. -1.
         23    2    1    0    0    0 -0.19266636899E+02  0.36307350600E+02 -0.66246274814E+01  0.83366927878E+02  0.72226947669E+02 0.  0.
         11    1    3    3    0    0 -0.19340662477E+02 -0.72515591111E+01 -0.28041379523E+02  0.34827651377E+02  0.51100000000E-03 0.  1.
         22    1    1    0    0    0  0.19266636899E+02 -0.36307350600E+02  0.66246274814E+01  0.41633072122E+02  0.00000000000E+00 0. -1.
</event>
<event>
 5    1  0.8875601E-005  0.9118800E+02  0.7818608E-02  0.1130116E+00
         25   -1    0    0    0    0  0.00000000000E+00  0.00000000000E+00  0.99999998245E-14  0.12500000000E+03  0.12500000000E+03 0.  0.
        -11    1    3    3    0    0  0.18237028624E+02 -0.73676496039E+01 -0.27158981613E+02  0.33533293250E+02  0.51100000000E-03 0.  1.
         23    2    1    0    0    0 -0.18491850335E+02  0.20336339215E+02  0.12993690295E+02  0.94596855279E+02  0.89577976198E+02 0.  0.
         11    1    3    3    0    0 -0.36728878958E+02  0.27703988819E+02  0.40152671908E+02  0.61063562028E+02  0.51100000000E-03 0. -1.
         22    1    1    0    0    0  0.18491850335E+02 -0.20336339215E+02 -0.12993690295E+02  0.30403144721E+02  0.00000000000E+00 0. -1.
</event>
<event>
 5    1  0.8875601E-005  0.9118800E+02  0.7818608E-02  0.1130116E+00
         25   -1    0    0    0    0  0.00000000000E+00  0.00000000000E+00  0.99999998245E-14  0.12500000000E+03  0.12500000000E+03 0.  0.
        -11    1    3    3    0    0  0.36466113924E+02 -0.30933395794E+02 -0.20072286379E+02  0.51860863093E+02  0.51100000000E-03 0.  1.
         23    2    1    0    0    0  0.11250766965E+02 -0.33737592134E+02  0.67716659333E+01  0.88796956761E+02  0.81081682211E+02 0.  0.
         11    1    3    3    0    0 -0.25215346959E+02 -0.28041963404E+01  0.26843952312E+02  0.36936093667E+02  0.51100000000E-03 0. -1.
         22    1    1    0    0    0 -0.11250766965E+02  0.33737592134E+02 -0.67716659333E+01  0.36203043239E+02  0.00000000000E+00 0.  1.
</event>
<event>
 5    1  0.8875601E-005  0.9118800E+02  0.7818608E-02  0.1130116E+00
         25   -1    0    0    0    0  0.00000000000E+00  0.00000000000E+00  0.99999998245E-14  0.12500000000E+03  0.12500000000E+03 0.  0.
        -11    1    3    3    0    0 -0.26919095714E+02 -0.41519143720E+01  0.23048600670E+02  0.35680724490E+02  0.51100000000E-03 0.  1.
         23    2    1    0    0    0  0.20613971705E+02  0.20291494532E+02 -0.43593335769E+01  0.95747916842E+02  0.91170056546E+02 0.  0.
         11    1    3    3    0    0  0.47533067419E+02  0.24443408904E+02 -0.27407934247E+02  0.60067192352E+02  0.51100000000E-03 0. -1.
         22    1    1    0    0    0 -0.20613971705E+02 -0.20291494532E+02  0.43593335769E+01  0.29252083158E+02  0.00000000000E+00 0. -1.
</event>
<event>
 5    1  0.8875601E-005  0.9118800E+02  0.7818608E-02  0.1130116E+00
         25   -1    0    0    0    0  0.00000000000E+00  0.00000000000E+00  0.99999998245E-14  0.12500000000E+03  0.12500000000E+03 0.  0.
        -11    1    3    3    0    0  0.45060350721E+02  0.77861533894E+01  0.25767327937E+02  0.52488232786E+02  0.51100000000E-03 0.  1.
         23    2    1    0    0    0 -0.15292133782E+01  0.19345409735E+02  0.10913149443E+02  0.10273612338E+03  0.10029471993E+03 0.  0.
         11    1    3    3    0    0 -0.46589564099E+02  0.11559256346E+02 -0.14854178494E+02  0.50247890594E+02  0.51100000000E-03 0. -1.
         22    1    1    0    0    0  0.15292133782E+01 -0.19345409735E+02 -0.10913149443E+02  0.22263876620E+02  0.00000000000E+00 0. -1.
</event>
<event>
 5    1  0.8875601E-005  0.9118800E+02  0.7818608E-02  0.1130116E+00
         25   -1    0    0    0    0  0.00000000000E+00  0.00000000000E+00  0.99999998245E-14  0.12500000000E+03  0.12500000000E+03 0.  0.
        -11    1    3    3    0    0  0.35360310312E+02 -0.15820628186E+02 -0.33156348154E+02  0.50990070060E+02  0.51100000000E-03 0. -1.
         23    2    1    0    0    0 -0.83792424888E+01 -0.45359028393E+01 -0.26737287223E+02  0.96615697167E+02  0.92352175350E+02 0.  0.
         11    1    3    3    0    0 -0.43739552801E+02  0.11284725347E+02  0.64190609312E+01  0.45625627107E+02  0.51100000000E-03 0.  1.
         22    1    1    0    0    0  0.83792424888E+01  0.45359028393E+01  0.26737287223E+02  0.28384302833E+02  0.00000000000E+00 0. -1.
</event>
<event>
 5    1  0.8875601E-005  0.9118800E+02  0.7818608E-02  0.1130116E+00
         25   -1    0    0    0    0  0.00000000000E+00  0.00000000000E+00  0.99999998245E-14  0.12500000000E+03  0.12500000000E+03 0.  0.
        -11    1    3    3    0    0  0.29857815455E+02  0.31350259457E+02  0.39673400462E+02  0.58722283813E+02  0.51100000000E-03 0. -1.
         23    2    1    0    0    0  0.18610095707E+02  0.22161098067E+00  0.21792050096E+02  0.96342047857E+02  0.91981041331E+02 0.  0.
         11    1    3    3    0    0 -0.11247719748E+02 -0.31128648477E+02 -0.17881350366E+02  0.37619764044E+02  0.51100000000E-03 0.  1.
         22    1    1    0    0    0 -0.18610095707E+02 -0.22161098067E+00 -0.21792050096E+02  0.28657952143E+02  0.00000000000E+00 0. -1.
</event>
<event>
 5    1  0.8875601E-005  0.9118800E+02  0.7818608E-02  0.1130116E+00
         25   -1    0    0    0    0  0.00000000000E+00  0.00000000000E+00  0.99999998245E-14  0.12500000000E+03  0.12500000000E+03 0.  0.
        -11    1    3    3    0    0 -0.29631858897E+02  0.49145850636E+02  0.19183284309E+02  0.60509173632E+02  0.51100000000E-03 0.  1.
         23    2    1    0    0    0 -0.23331999115E+02  0.17207210067E+02  0.80879219497E+01  0.94902080762E+02  0.90002889901E+02 0.  0.
         11    1    3    3    0    0  0.62998597823E+01 -0.31938640569E+02 -0.11095362359E+02  0.34392907130E+02  0.51100000000E-03 0. -1.
         22    1    1    0    0    0  0.23331999115E+02 -0.17207210067E+02 -0.80879219497E+01  0.30097919238E+02  0.00000000000E+00 0.  1.
</event>
<event>
 5    1  0.8875601E-005  0.9118800E+02  0.7818608E-02  0.1130116E+00
         25   -1    0    0    0    0  0.00000000000E+00  0.00000000000E+00  0.99999998245E-14  0.12500000000E+03  0.12500000000E+03 0.  0.
        -11    1    3    3    0    0 -0.39201884268E+02  0.18238190895E+02 -0.29646019085E+02  0.52424286215E+02  0.51100000000E-03 0.  1.
         23    2    1    0    0    0 -0.99428109426E+01  0.23978595235E+02  0.54495799756E+01  0.98475851742E+02  0.94836506344E+02 0.  0.
         11    1    3    3    0    0  0.29259073325E+02  0.57404043398E+01  0.35095599061E+02  0.46051565527E+02  0.51100000000E-03 0. -1.
         22    1    1    0    0    0  0.99428109426E+01 -0.23978595235E+02 -0.54495799756E+01  0.26524148258E+02  0.00000000000E+00 0.  1.
</event>
<event>
 5    1  0.8875601E-005  0.9118800E+02  0.7818608E-02  0.1130116E+00
         25   -1    0    0    0    0  0.00000000000E+00  0.00000000000E+00  0.99999998245E-14  0.12500000000E+03  0.12500000000E+03 0.  0.
        -11    1    3    3    0    0  0.31386389172E+02 -0.31250566448E+02 -0.16656258885E+02  0.47319491638E+02  0.51100000000E-03 0. -1.
         23    2    1    0    0    0 -0.14451503910E+02 -0.17295703668E+02 -0.19327978250E+02  0.95308956336E+02  0.90566213811E+02 0.  0.
         11    1    3    3    0    0 -0.45837893081E+02  0.13954862780E+02 -0.26717193644E+01  0.47989464698E+02  0.51100000000E-03 0.  1.
         22    1    1    0    0    0  0.14451503910E+02  0.17295703668E+02  0.19327978250E+02  0.29691043664E+02  0.00000000000E+00 0. -1.
</event>
<event>
 5    1  0.8875601E-005  0.9118800E+02  0.7818608E-02  0.1130116E+00
         25   -1    0    0    0    0  0.00000000000E+00  0.00000000000E+00  0.99999998245E-14  0.12500000000E+03  0.12500000000E+03 0.  0.
        -11    1    3    3    0    0  0.16869332039E+02  0.59209429723E+02  0.24434950589E+00  0.61566148479E+02  0.51100000000E-03 0. -1.
         23    2    1    0    0    0  0.15707926741E+01  0.26390040904E+02  0.50238730974E+01  0.98090132861E+02  0.94326736482E+02 0.  0.
         11    1    3    3    0    0 -0.15298539365E+02 -0.32819388819E+02  0.47795235915E+01  0.36523984383E+02  0.51100000000E-03 0.  1.
         22    1    1    0    0    0 -0.15707926741E+01 -0.26390040904E+02 -0.50238730974E+01  0.26909867139E+02  0.00000000000E+00 0. -1.
</event>
<event>
 5    1  0.8875601E-005  0.9118800E+02  0.7818608E-02  0.1130116E+00
         25   -1    0    0    0    0  0.00000000000E+00  0.00000000000E+00  0.99999998245E-14  0.12500000000E+03  0.12500000000E+03 0.  0.
        -11    1    3    3    0    0  0.43668656714E+01  0.44404502621E+02  0.13389719340E+02  0.46584481891E+02  0.51100000000E-03 0.  1.
         23    2    1    0    0    0 -0.19704074802E+02 -0.27726209193E+01  0.15784053120E+02  0.99601686602E+02  0.96308990497E+02 0.  0.
         11    1    3    3    0    0 -0.24070940474E+02 -0.47177123540E+02  0.23943337803E+01  0.53017204711E+02  0.51100000000E-03 0. -1.
         22    1    1    0    0    0  0.19704074802E+02  0.27726209193E+01 -0.15784053120E+02  0.25398313398E+02  0.00000000000E+00 0. -1.
</event>
<event>
 5    1  0.8875601E-005  0.9118800E+02  0.7818608E-02  0.1130116E+00
         25   -1    0    0    0    0  0.00000000000E+00  0.00000000000E+00  0.99999998245E-14  0.12500000000E+03  0.12500000000E+03 0.  0.
        -11    1    3    3    0    0 -0.27942424501E+02 -0.27861353127E+02  0.16173012555E+01  0.39492401150E+02  0.51100000000E-03 0. -1.
         23    2    1    0    0    0 -0.98884208618E+01  0.24231362651E+02 -0.11888303767E+02  0.96255060106E+02  0.91862751028E+02 0.  0.
         11    1    3    3    0    0  0.18054003639E+02  0.52092715777E+02 -0.13505605023E+02  0.56762658956E+02  0.51100000000E-03 0.  1.
         22    1    1    0    0    0  0.98884208618E+01 -0.24231362651E+02  0.11888303767E+02  0.28744939894E+02  0.00000000000E+00 0.  1.
</event>
<event>
 5    1  0.8875601E-005  0.9118800E+02  0.7818608E-02  0.1130116E+00
         25   -1    0    0    0    0  0.00000000000E+00  0.00000000000E+00  0.99999998245E-14  0.12500000000E+03  0.12500000000E+03 0.  0.
        -11    1    3    3    0    0  0.14223701701E+02  0.81776495552E+00 -0.30241775682E+02  0.33429738651E+02  0.51100000000E-03 0.  1.
         23    2    1    0    0    0 -0.15745661434E+02 -0.93591394578E+01  0.23139206069E+02  0.95488270080E+02  0.90813366416E+02 0.  0.
         11    1    3    3    0    0 -0.29969363136E+02 -0.10176904413E+02  0.53380981750E+02  0.62058531429E+02  0.51100000000E-03 0. -1.
         22    1    1    0    0    0  0.15745661434E+02  0.93591394578E+01 -0.23139206069E+02  0.29511729920E+02  0.00000000000E+00 0. -1.
</event>
<event>
 5    1  0.8875601E-005  0.9118800E+02  0.7818608E-02  0.1130116E+00
         25   -1    0    0    0    0  0.00000000000E+00  0.00000000000E+00  0.99999998245E-14  0.12500000000E+03  0.12500000000E+03 0.  0.
        -11    1    3    3    0    0  0.15109521870E+02 -0.75878352391E+01 -0.58462165503E+02  0.60858012540E+02  0.51100000000E-03 0.  1.
         23    2    1    0    0    0  0.15707818245E+02  0.87297359313E+00 -0.24341382312E+02  0.96017237368E+02  0.91538567511E+02 0.  0.
         11    1    3    3    0    0  0.59829637442E+00  0.84608088322E+01  0.34120783191E+02  0.35159224828E+02  0.51100000000E-03 0. -1.
         22    1    1    0    0    0 -0.15707818245E+02 -0.87297359313E+00  0.24341382312E+02  0.28982762632E+02  0.00000000000E+00 0.  1.
</event>
<event>
 5    1  0.8875601E-005  0.9118800E+02  0.7818608E-02  0.1130116E+00
         25   -1    0    0    0    0  0.00000000000E+00  0.00000000000E+00  0.99999998245E-14  0.12500000000E+03  0.12500000000E+03 0.  0.
        -11    1    3    3    0    0 -0.19354420571E+02 -0.27267609448E+02 -0.23384986579E+02  0.40804089479E+02  0.51100000000E-03 0. -1.
         23    2    1    0    0    0  0.25409369561E+02 -0.16712906789E+02  0.39905210126E+01  0.94326207069E+02  0.89199505420E+02 0.  0.
         11    1    3    3    0    0  0.44763790132E+02  0.10554702659E+02  0.27375507591E+02  0.53522117590E+02  0.51100000000E-03 0.  1.
         22    1    1    0    0    0 -0.25409369561E+02  0.16712906789E+02 -0.39905210126E+01  0.30673792931E+02  0.00000000000E+00 0. -1.
</event>
<event>
 5    1  0.8875601E-005  0.9118800E+02  0.7818608E-02  0.1130116E+00
         25   -1    0    0    0    0  0.00000000000E+00  0.00000000000E+00  0.99999998245E-14  0.12500000000E+03  0.12500000000E+03 0.  0.
        -11    1    3    3    0    0 -0.44325294369E+01 -0.57591394910E+02 -0.16389256042E+01  0.57784964847E+02  0.51100000000E-03 0.  1.
         23    2    1    0    0    0 -0.15445910903E+02 -0.23589564971E+02  0.95398228751E+01  0.95233375071E+02  0.90461835974E+02 0.  0.
         11    1    3    3    0    0 -0.11013381466E+02  0.34001829939E+02  0.11178748479E+02  0.37448410225E+02  0.51100000000E-03 0. -1.
         22    1    1    0    0    0  0.15445910903E+02  0.23589564971E+02 -0.95398228751E+01  0.29766624929E+02  0.00000000000E+00 0.  1.
</event>
<event>
 5    1  0.8875601E-005  0.9118800E+02  0.7818608E-02  0.1130116E+00
         25   -1    0    0    0    0  0.00000000000E+00  0.00000000000E+00  0.99999998245E-14  0.12500000000E+03  0.12500000000E+03 0.  0.
        -11    1    3    3    0    0  0.25043713867E+01  0.39627606410E+02  0.22342549012E+02  0.45561042157E+02  0.51100000000E-03 0.  1.
         23    2    1    0    0    0  0.11386574935E+02  0.95979296951E+01 -0.21136755808E+02  0.99143921618E+02  0.95713010634E+02 0.  0.
         11    1    3    3    0    0  0.88822035484E+01 -0.30029676715E+02 -0.43479304820E+02  0.53582879461E+02  0.51100000000E-03 0. -1.
         22    1    1    0    0    0 -0.11386574935E+02 -0.95979296951E+01  0.21136755808E+02  0.25856078382E+02  0.00000000000E+00 0.  1.
</event>
<event>
 5    1  0.8875601E-005  0.9118800E+02  0.7818608E-02  0.1130116E+00
         25   -1    0    0    0    0  0.00000000000E+00  0.00000000000E+00  0.99999998245E-14  0.12500000000E+03  0.12500000000E+03 0.  0.
        -11    1    3    3    0    0  0.10028899455E+02 -0.26323538321E+02 -0.25211854035E+02  0.37804035210E+02  0.51100000000E-03 0.  1.
         23    2    1    0    0    0 -0.76322625191E+01 -0.12107316043E+02  0.26841866125E+02  0.94580856192E+02  0.89555647773E+02 0.  0.
         11    1    3    3    0    0 -0.17661161974E+02  0.14216222279E+02  0.52053720160E+02  0.56776820982E+02  0.51100000000E-03 0. -1.
         22    1    1    0    0    0  0.76322625191E+01  0.12107316043E+02 -0.26841866125E+02  0.30419143808E+02  0.00000000000E+00 0. -1.
</event>
<event>
 5    1  0.8875601E-005  0.9118800E+02  0.7818608E-02  0.1130116E+00
         25   -1    0    0    0    0  0.00000000000E+00  0.00000000000E+00  0.99999998245E-14  0.12500000000E+03  0.12500000000E+03 0.  0.
        -11    1    3    3    0    0 -0.39258952587E+02  0.80220958064E+01  0.28679547314E+02  0.49276118087E+02  0.51100000000E-03 0.  1.
         23    2    1    0    0    0 -0.23755394182E+02 -0.21590725027E+02  0.66029318625E+00  0.92892148202E+02  0.87166719857E+02 0.  0.
         11    1    3    3    0    0  0.15503558404E+02 -0.29612820834E+02 -0.28019254127E+02  0.43616030116E+02  0.51100000000E-03 0. -1.
         22    1    1    0    0    0  0.23755394182E+02  0.21590725027E+02 -0.66029318625E+00  0.32107851798E+02  0.00000000000E+00 0.  1.
</event>
<event>
 5    1  0.8875601E-005  0.9118800E+02  0.7818608E-02  0.1130116E+00
         25   -1    0    0    0    0  0.00000000000E+00  0.00000000000E+00  0.99999998245E-14  0.12500000000E+03  0.12500000000E+03 0.  0.
        -11    1    3    3    0    0  0.35374893171E+02 -0.41803721329E+02  0.25829094745E+02  0.60548132253E+02  0.51100000000E-03 0.  1.
         23    2    1    0    0    0  0.20719404549E+02 -0.11600499692E+02  0.18470828381E+02  0.94916170140E+02  0.90022455726E+02 0.  0.
         11    1    3    3    0    0 -0.14655488622E+02  0.30203221637E+02 -0.73582663632E+01  0.34368037886E+02  0.51100000000E-03 0. -1.
         22    1    1    0    0    0 -0.20719404549E+02  0.11600499692E+02 -0.18470828381E+02  0.30083829860E+02  0.00000000000E+00 0.  1.
</event>
<event>
 5    1  0.8875601E-005  0.9118800E+02  0.7818608E-02  0.1130116E+00
         25   -1    0    0    0    0  0.00000000000E+00  0.00000000000E+00  0.99999998245E-14  0.12500000000E+03  0.12500000000E+03 0.  0.
        -11    1    3    3    0    0 -0.91947921662E+00  0.47035916613E+01  0.62093706490E+02  0.62278387925E+02  0.51100000000E-03 0. -1.
         23    2    1    0    0    0 -0.22751426072E+01  0.54780650006E+01  0.29495779670E+02  0.94913682705E+02  0.90019001751E+02 0.  0.
         11    1    3    3    0    0 -0.13556633905E+01  0.77447333931E+00 -0.32597926820E+02  0.32635294781E+02  0.51100000000E-03 0.  1.
         22    1    1    0    0    0  0.22751426072E+01 -0.54780650006E+01 -0.29495779670E+02  0.30086317295E+02  0.00000000000E+00 0. -1.
</event>
<event>
 5    1  0.8875601E-005  0.9118800E+02  0.7818608E-02  0.1130116E+00
         25   -1    0    0    0    0  0.00000000000E+00  0.00000000000E+00  0.99999998245E-14  0.12500000000E+03  0.12500000000E+03 0.  0.
        -11    1    3    3    0    0 -0.91205958850E+01 -0.10524951056E+02  0.49334179342E+02  0.51262277706E+02  0.51100000000E-03 0. -1.
         23    2    1    0    0    0  0.14623190462E+00  0.21152184327E+02  0.24904816769E+02  0.92324532385E+02  0.86348903271E+02 0.  0.
         11    1    3    3    0    0  0.92668277896E+01  0.31677135383E+02 -0.24429362572E+02  0.41062254679E+02  0.51100000000E-03 0.  1.
         22    1    1    0    0    0 -0.14623190462E+00 -0.21152184327E+02 -0.24904816769E+02  0.32675467615E+02  0.00000000000E+00 0.  1.
</event>
<event>
 5    1  0.8875601E-005  0.9118800E+02  0.7818608E-02  0.1130116E+00
         25   -1    0    0    0    0  0.00000000000E+00  0.00000000000E+00  0.99999998245E-14  0.12500000000E+03  0.12500000000E+03 0.  0.
        -11    1    3    3    0    0 -0.22577438040E+02 -0.26231599354E+02 -0.14463974855E+02  0.37510586266E+02  0.51100000000E-03 0. -1.
         23    2    1    0    0    0  0.99432874548E+01  0.24263761615E+02 -0.41253960816E+01  0.98455358621E+02  0.94809491378E+02 0.  0.
         11    1    3    3    0    0  0.32520725495E+02  0.50495360969E+02  0.10338578774E+02  0.60944772355E+02  0.51100000000E-03 0.  1.
         22    1    1    0    0    0 -0.99432874548E+01 -0.24263761615E+02  0.41253960816E+01  0.26544641379E+02  0.00000000000E+00 0.  1.
</event>
<event>
 5    1  0.8875601E-005  0.9118800E+02  0.7818608E-02  0.1130116E+00
         25   -1    0    0    0    0  0.00000000000E+00  0.00000000000E+00  0.99999998245E-14  0.12500000000E+03  0.12500000000E+03 0.  0.
        -11    1    3    3    0    0  0.43003456094E+02 -0.26107053622E+01  0.39167383662E+02  0.58225397909E+02  0.51100000000E-03 0. -1.
         23    2    1    0    0    0  0.13564474725E+02 -0.73690823846E+01  0.32843469435E+02  0.88709617882E+02  0.80946923786E+02 0.  0.
         11    1    3    3    0    0 -0.29438981368E+02 -0.47583770224E+01 -0.63239142271E+01  0.30484219972E+02  0.51100000000E-03 0.  1.
         22    1    1    0    0    0 -0.13564474725E+02  0.73690823846E+01 -0.32843469435E+02  0.36290382118E+02  0.00000000000E+00 0. -1.
</event>
<event>
 5    1  0.8875601E-005  0.9118800E+02  0.7818608E-02  0.1130116E+00
         25   -1    0    0    0    0  0.00000000000E+00  0.00000000000E+00  0.99999998245E-14  0.12500000000E+03  0.12500000000E+03 0.  0.
        -11    1    3    3    0    0 -0.26812561568E+02  0.21010922818E+02 -0.10860149166E+02  0.35753533751E+02  0.51100000000E-03 0.  1.
         23    2    1    0    0    0  0.77764031526E+01 -0.26403654776E+02 -0.13164322753E+02  0.94488939300E+02  0.89427259966E+02 0.  0.
         11    1    3    3    0    0  0.34588964721E+02 -0.47414577594E+02 -0.23041735867E+01  0.58735405549E+02  0.51100000000E-03 0. -1.
         22    1    1    0    0    0 -0.77764031526E+01  0.26403654776E+02  0.13164322753E+02  0.30511060700E+02  0.00000000000E+00 0. -1.
</event>
<event>
 5    1  0.8875601E-005  0.9118800E+02  0.7818608E-02  0.1130116E+00
         25   -1    0    0    0    0  0.00000000000E+00  0.00000000000E+00  0.99999998245E-14  0.12500000000E+03  0.12500000000E+03 0.  0.
        -11    1    3    3    0    0  0.96454191968E+01  0.29980240865E+02  0.52917359208E+02  0.61579995613E+02  0.51100000000E-03 0.  1.
         23    2    1    0    0    0  0.11824387353E+02  0.12141095330E+02  0.24253964723E+02  0.95411537099E+02  0.90707685864E+02 0.  0.
         11    1    3    3    0    0  0.21789681558E+01 -0.17839145535E+02 -0.28663394486E+02  0.33831541486E+02  0.51100000000E-03 0. -1.
         22    1    1    0    0    0 -0.11824387353E+02 -0.12141095330E+02 -0.24253964723E+02  0.29588462901E+02  0.00000000000E+00 0.  1.
</event>
<event>
 5    1  0.8875601E-005  0.9118800E+02  0.7818608E-02  0.1130116E+00
         25   -1    0    0    0    0  0.00000000000E+00  0.00000000000E+00  0.99999998245E-14  0.12500000000E+03  0.12500000000E+03 0.  0.
        -11    1    3    3    0    0  0.25972027266E+02 -0.41181664055E+02 -0.33492113593E+02  0.59094816421E+02  0.51100000000E-03 0.  1.
         23    2    1    0    0    0  0.22639857339E+02 -0.95211196945E+01 -0.10914242917E+02  0.98123698933E+02  0.94371207120E+02 0.  0.
         11    1    3    3    0    0 -0.33321699270E+01  0.31660544360E+02  0.22577870676E+02  0.39028882512E+02  0.51100000000E-03 0. -1.
         22    1    1    0    0    0 -0.22639857339E+02  0.95211196945E+01  0.10914242917E+02  0.26876301067E+02  0.00000000000E+00 0.  1.
</event>
<event>
 5    1  0.8875601E-005  0.9118800E+02  0.7818608E-02  0.1130116E+00
         25   -1    0    0    0    0  0.00000000000E+00  0.00000000000E+00  0.99999998245E-14  0.12500000000E+03  0.12500000000E+03 0.  0.
        -11    1    3    3    0    0 -0.12696242088E+02  0.24385350477E+02 -0.15277015828E+02  0.31451980763E+02  0.51100000000E-03 0. -1.
         23    2    1    0    0    0 -0.15770441069E+02 -0.26570292021E+02  0.14840813058E+02  0.90722646517E+02  0.83997985864E+02 0.  0.
         11    1    3    3    0    0 -0.30741989809E+01 -0.50955642498E+02  0.30117828886E+02  0.59270665754E+02  0.51100000000E-03 0.  1.
         22    1    1    0    0    0  0.15770441069E+02  0.26570292021E+02 -0.14840813058E+02  0.34277353483E+02  0.00000000000E+00 0.  1.
</event>
<event>
 5    1  0.8875601E-005  0.9118800E+02  0.7818608E-02  0.1130116E+00
         25   -1    0    0    0    0  0.00000000000E+00  0.00000000000E+00  0.99999998245E-14  0.12500000000E+03  0.12500000000E+03 0.  0.
        -11    1    3    3    0    0 -0.38165564489E+00 -0.56835140263E+00 -0.55856689129E+02  0.55860884392E+02  0.51100000000E-03 0.  1.
         23    2    1    0    0    0  0.53157771559E+01  0.18723711426E+02 -0.19282074684E+02  0.97602312863E+02  0.93678056212E+02 0.  0.
         11    1    3    3    0    0  0.56974328008E+01  0.19292062829E+02  0.36574614445E+02  0.41741428470E+02  0.51100000000E-03 0. -1.
         22    1    1    0    0    0 -0.53157771559E+01 -0.18723711426E+02  0.19282074684E+02  0.27397687137E+02  0.00000000000E+00 0.  1.
</event>
<event>
 5    1  0.8875601E-005  0.9118800E+02  0.7818608E-02  0.1130116E+00
         25   -1    0    0    0    0  0.00000000000E+00  0.00000000000E+00  0.99999998245E-14  0.12500000000E+03  0.12500000000E+03 0.  0.
        -11    1    3    3    0    0  0.11822400613E+02 -0.42713762473E+02  0.27858689530E+02  0.52348268772E+02  0.51100000000E-03 0. -1.
         23    2    1    0    0    0  0.19579524548E+02 -0.20085166707E+02 -0.83400455654E+01  0.95736916375E+02  0.91154972952E+02 0.  0.
         11    1    3    3    0    0  0.77571239347E+01  0.22628595766E+02 -0.36198735095E+02  0.43388647603E+02  0.51100000000E-03 0.  1.
         22    1    1    0    0    0 -0.19579524548E+02  0.20085166707E+02  0.83400455654E+01  0.29263083625E+02  0.00000000000E+00 0.  1.
</event>
<event>
 5    1  0.8875601E-005  0.9118800E+02  0.7818608E-02  0.1130116E+00
         25   -1    0    0    0    0  0.00000000000E+00  0.00000000000E+00  0.99999998245E-14  0.12500000000E+03  0.12500000000E+03 0.  0.
        -11    1    3    3    0    0  0.27094047203E+01  0.36338542371E+02  0.29825702490E+02  0.47089309454E+02  0.51100000000E-03 0.  1.
         23    2    1    0    0    0 -0.24555320403E+02  0.13667072041E+02 -0.46146907943E+01  0.96521095713E+02  0.92224042030E+02 0.  0.
         11    1    3    3    0    0 -0.27264725123E+02 -0.22671470329E+02 -0.34440393284E+02  0.49431786259E+02  0.51100000000E-03 0. -1.
         22    1    1    0    0    0  0.24555320403E+02 -0.13667072041E+02  0.46146907943E+01  0.28478904287E+02  0.00000000000E+00 0. -1.
</event>
<event>
 5    1  0.8875601E-005  0.9118800E+02  0.7818608E-02  0.1130116E+00
         25   -1    0    0    0    0  0.00000000000E+00  0.00000000000E+00  0.99999998245E-14  0.12500000000E+03  0.12500000000E+03 0.  0.
        -11    1    3    3    0    0  0.25472533679E+02  0.31258445700E+02 -0.40533754315E+02  0.57174519139E+02  0.51100000000E-03 0.  1.
         23    2    1    0    0    0  0.20901248818E+02 -0.10526473948E+01 -0.21701865037E+02  0.94851348044E+02  0.89932402454E+02 0.  0.
         11    1    3    3    0    0 -0.45712848608E+01 -0.32311093095E+02  0.18831889279E+02  0.37676828905E+02  0.51100000000E-03 0. -1.
         22    1    1    0    0    0 -0.20901248818E+02  0.10526473948E+01  0.21701865037E+02  0.30148651956E+02  0.00000000000E+00 0.  1.
</event>
<event>
 5    1  0.8875601E-005  0.9118800E+02  0.7818608E-02  0.1130116E+00
         25   -1    0    0    0    0  0.00000000000E+00  0.00000000000E+00  0.99999998245E-14  0.12500000000E+03  0.12500000000E+03 0.  0.
        -11    1    3    3    0    0  0.15701758797E+02  0.39146468128E+02 -0.28138710008E+02  0.50702842104E+02  0.51100000000E-03 0.  1.
         23    2    1    0    0    0  0.44777050714E+01 -0.41374366713E+01 -0.28939288736E+02  0.95425506640E+02  0.90726934590E+02 0.  0.
         11    1    3    3    0    0 -0.11224053725E+02 -0.43283904799E+02 -0.80057872796E+00  0.44722664537E+02  0.51100000000E-03 0. -1.
         22    1    1    0    0    0 -0.44777050714E+01  0.41374366713E+01  0.28939288736E+02  0.29574493360E+02  0.00000000000E+00 0.  1.
</event>
<event>
 5    1  0.8875601E-005  0.9118800E+02  0.7818608E-02  0.1130116E+00
         25   -1    0    0    0    0  0.00000000000E+00  0.00000000000E+00  0.99999998245E-14  0.12500000000E+03  0.12500000000E+03 0.  0.
        -11    1    3    3    0    0 -0.16817143876E+01 -0.22746799647E+02  0.26235138525E+02  0.34763882855E+02  0.51100000000E-03 0.  1.
         23    2    1    0    0    0  0.11379576358E+01  0.21752583548E+02 -0.17377334644E+02  0.97135298352E+02  0.93052805374E+02 0.  0.
         11    1    3    3    0    0  0.28196720234E+01  0.44499383195E+02 -0.43612473169E+02  0.62371415498E+02  0.51100000000E-03 0. -1.
         22    1    1    0    0    0 -0.11379576358E+01 -0.21752583548E+02  0.17377334644E+02  0.27864701648E+02  0.00000000000E+00 0. -1.
</event>
<event>
 5    1  0.8875601E-005  0.9118800E+02  0.7818608E-02  0.1130116E+00
         25   -1    0    0    0    0  0.00000000000E+00  0.00000000000E+00  0.99999998245E-14  0.12500000000E+03  0.12500000000E+03 0.  0.
        -11    1    3    3    0    0 -0.50550488985E+02 -0.15584851554E+02  0.23353136597E+02  0.57823944208E+02  0.51100000000E-03 0. -1.
         23    2    1    0    0    0 -0.30389759173E+02  0.48107731355E+01  0.94697455352E+00  0.94217248961E+02  0.89046685734E+02 0.  0.
         11    1    3    3    0    0  0.20160729813E+02  0.20395624690E+02 -0.22406162043E+02  0.36393304753E+02  0.51100000000E-03 0.  1.
         22    1    1    0    0    0  0.30389759173E+02 -0.48107731355E+01 -0.94697455352E+00  0.30782751039E+02  0.00000000000E+00 0. -1.
</event>
<event>
 5    1  0.8875601E-005  0.9118800E+02  0.7818608E-02  0.1130116E+00
         25   -1    0    0    0    0  0.00000000000E+00  0.00000000000E+00  0.99999998245E-14  0.12500000000E+03  0.12500000000E+03 0.  0.
        -11    1    3    3    0    0 -0.50054734370E+02 -0.36849339967E+02  0.11695199944E+01  0.62166856653E+02  0.51100000000E-03 0.  1.
         23    2    1    0    0    0 -0.20148657965E+02 -0.19629009638E+02 -0.18595145419E+01  0.96809146315E+02  0.92613641429E+02 0.  0.
         11    1    3    3    0    0  0.29906076405E+02  0.17220330329E+02 -0.30290345363E+01  0.34642289662E+02  0.51100000000E-03 0. -1.
         22    1    1    0    0    0  0.20148657965E+02  0.19629009638E+02  0.18595145419E+01  0.28190853685E+02  0.00000000000E+00 0.  1.
</event>
<event>
 5    1  0.8875601E-005  0.9118800E+02  0.7818608E-02  0.1130116E+00
         25   -1    0    0    0    0  0.00000000000E+00  0.00000000000E+00  0.99999998245E-14  0.12500000000E+03  0.12500000000E+03 0.  0.
        -11    1    3    3    0    0  0.35131991973E+02 -0.18616983800E+02  0.31617998094E+02  0.50799082172E+02  0.51100000000E-03 0.  1.
         23    2    1    0    0    0 -0.40878056373E+00  0.89506587711E+01  0.27628681364E+02  0.95954769275E+02  0.91453224758E+02 0.  0.
         11    1    3    3    0    0 -0.35540772537E+02  0.27567642571E+02 -0.39893167299E+01  0.45155687103E+02  0.51100000000E-03 0. -1.
         22    1    1    0    0    0  0.40878056373E+00 -0.89506587711E+01 -0.27628681364E+02  0.29045230725E+02  0.00000000000E+00 0.  1.
</event>
<event>
 5    1  0.8875601E-005  0.9118800E+02  0.7818608E-02  0.1130116E+00
         25   -1    0    0    0    0  0.00000000000E+00  0.00000000000E+00  0.99999998245E-14  0.12500000000E+03  0.12500000000E+03 0.  0.
        -11    1    3    3    0    0 -0.13018217184E+02  0.38972968733E+02 -0.15542532963E+02  0.43931043712E+02  0.51100000000E-03 0.  1.
         23    2    1    0    0    0  0.77084165793E+01  0.40323376241E+02  0.15361589080E+02  0.81166533599E+02  0.68312761618E+02 0.  0.
         11    1    3    3    0    0  0.20726633763E+02  0.13504075084E+01  0.30904122043E+02  0.37235489887E+02  0.51100000000E-03 0. -1.
         22    1    1    0    0    0 -0.77084165793E+01 -0.40323376241E+02 -0.15361589080E+02  0.43833466401E+02  0.00000000000E+00 0. -1.
</event>
<event>
 5    1  0.8875601E-005  0.9118800E+02  0.7818608E-02  0.1130116E+00
         25   -1    0    0    0    0  0.00000000000E+00  0.00000000000E+00  0.99999998245E-14  0.12500000000E+03  0.12500000000E+03 0.  0.
        -11    1    3    3    0    0  0.17218846571E+02 -0.91960742631E+01 -0.56587007528E+02  0.59859384230E+02  0.51100000000E-03 0. -1.
         23    2    1    0    0    0  0.72756290203E+01 -0.16991875887E+02 -0.24768760656E+02  0.94094496797E+02  0.88874204352E+02 0.  0.
         11    1    3    3    0    0 -0.99432175508E+01 -0.77958016236E+01  0.31818246872E+02  0.34235112567E+02  0.51100000000E-03 0.  1.
         22    1    1    0    0    0 -0.72756290203E+01  0.16991875887E+02  0.24768760656E+02  0.30905503203E+02  0.00000000000E+00 0. -1.
</event>
<event>
 5    1  0.8875601E-005  0.9118800E+02  0.7818608E-02  0.1130116E+00
         25   -1    0    0    0    0  0.00000000000E+00  0.00000000000E+00  0.99999998245E-14  0.12500000000E+03  0.12500000000E+03 0.  0.
        -11    1    3    3    0    0 -0.23274088173E+02 -0.88092719359E+01  0.51407273475E+02  0.57113870633E+02  0.51100000000E-03 0.  1.
         23    2    1    0    0    0  0.60827923783E+01 -0.12493710870E+02  0.22985147959E+02  0.98140919578E+02  0.94394014081E+02 0.  0.
         11    1    3    3    0    0  0.29356880552E+02 -0.36844389341E+01 -0.28422125516E+02  0.41027048944E+02  0.51100000000E-03 0. -1.
         22    1    1    0    0    0 -0.60827923783E+01  0.12493710870E+02 -0.22985147959E+02  0.26859080422E+02  0.00000000000E+00 0.  1.
</event>
<event>
 5    1  0.8875601E-005  0.9118800E+02  0.7818608E-02  0.1130116E+00
         25   -1    0    0    0    0  0.00000000000E+00  0.00000000000E+00  0.99999998245E-14  0.12500000000E+03  0.12500000000E+03 0.  0.
        -11    1    3    3    0    0  0.97247214808E+01 -0.27202657953E+02  0.39334697894E+02  0.48803414494E+02  0.51100000000E-03 0. -1.
         23    2    1    0    0    0 -0.14678910781E+02  0.98765196879E+01  0.22728578330E+02  0.96197147090E+02  0.91783913473E+02 0.  0.
         11    1    3    3    0    0 -0.24403632262E+02  0.37079177641E+02 -0.16606119564E+02  0.47393732596E+02  0.51100000000E-03 0.  1.
         22    1    1    0    0    0  0.14678910781E+02 -0.98765196879E+01 -0.22728578330E+02  0.28802852910E+02  0.00000000000E+00 0. -1.
</event>
<event>
 5    1  0.8875601E-005  0.9118800E+02  0.7818608E-02  0.1130116E+00
         25   -1    0    0    0    0  0.00000000000E+00  0.00000000000E+00  0.99999998245E-14  0.12500000000E+03  0.12500000000E+03 0.  0.
        -11    1    3    3    0    0  0.12446017449E+02 -0.93298487332E+01 -0.74748115938E+01  0.17257526948E+02  0.51100000000E-03 0.  1.
         23    2    1    0    0    0  0.36947396648E+01  0.15668547374E+02  0.45636913763E+02  0.76607000756E+02  0.59386447857E+02 0.  0.
         11    1    3    3    0    0 -0.87512777840E+01  0.24998396107E+02  0.53111725357E+02  0.59349473809E+02  0.51100000000E-03 0. -1.
         22    1    1    0    0    0 -0.36947396648E+01 -0.15668547374E+02 -0.45636913763E+02  0.48392999244E+02  0.00000000000E+00 0. -1.
</event>
<event>
 5    1  0.8875601E-005  0.9118800E+02  0.7818608E-02  0.1130116E+00
         25   -1    0    0    0    0  0.00000000000E+00  0.00000000000E+00  0.99999998245E-14  0.12500000000E+03  0.12500000000E+03 0.  0.
        -11    1    3    3    0    0  0.26709488641E+02 -0.45855988207E+01 -0.40185730349E+02  0.48469757828E+02  0.51100000000E-03 0. -1.
         23    2    1    0    0    0  0.61523204402E+01  0.26501747159E+02 -0.11673610432E+02  0.95394817518E+02  0.90684642468E+02 0.  0.
         11    1    3    3    0    0 -0.20557168201E+02  0.31087345980E+02  0.28512119917E+02  0.46925059690E+02  0.51100000000E-03 0.  1.
         22    1    1    0    0    0 -0.61523204402E+01 -0.26501747159E+02  0.11673610432E+02  0.29605182482E+02  0.00000000000E+00 0. -1.
</event>
<event>
 5    1  0.8875601E-005  0.9118800E+02  0.7818608E-02  0.1130116E+00
         25   -1    0    0    0    0  0.00000000000E+00  0.00000000000E+00  0.99999998245E-14  0.12500000000E+03  0.12500000000E+03 0.  0.
        -11    1    3    3    0    0 -0.42902700927E+02 -0.81523565313E+01  0.33885225598E+01  0.43801652358E+02  0.51100000000E-03 0.  1.
         23    2    1    0    0    0 -0.11504547421E+02  0.26814962084E+02 -0.12283423150E+02  0.93341205215E+02  0.87808321382E+02 0.  0.
         11    1    3    3    0    0  0.31398153506E+02  0.34967318615E+02 -0.15671945710E+02  0.49539552858E+02  0.51100000000E-03 0. -1.
         22    1    1    0    0    0  0.11504547421E+02 -0.26814962084E+02  0.12283423150E+02  0.31658794785E+02  0.00000000000E+00 0. -1.
</event>
<event>
 5    1  0.8875601E-005  0.9118800E+02  0.7818608E-02  0.1130116E+00
         25   -1    0    0    0    0  0.00000000000E+00  0.00000000000E+00  0.99999998245E-14  0.12500000000E+03  0.12500000000E+03 0.  0.
        -11    1    3    3    0    0  0.36955807316E+02 -0.24174166668E+01  0.10437969519E+02  0.38477614345E+02  0.51100000000E-03 0. -1.
         23    2    1    0    0    0 -0.96189558711E+01 -0.16853178024E+02  0.28538247616E+02  0.90489342247E+02  0.83650078074E+02 0.  0.
         11    1    3    3    0    0 -0.46574763187E+02 -0.14435761357E+02  0.18100278096E+02  0.52011727902E+02  0.51100000000E-03 0.  1.
         22    1    1    0    0    0  0.96189558711E+01  0.16853178024E+02 -0.28538247616E+02  0.34510657753E+02  0.00000000000E+00 0.  1.
</event>
<event>
 5    1  0.8875601E-005  0.9118800E+02  0.7818608E-02  0.1130116E+00
         25   -1    0    0    0    0  0.00000000000E+00  0.00000000000E+00  0.99999998245E-14  0.12500000000E+03  0.12500000000E+03 0.  0.
        -11    1    3    3    0    0 -0.34890833552E+01 -0.12615983863E+02 -0.32022088218E+02  0.34594087437E+02  0.51100000000E-03 0. -1.
         23    2    1    0    0    0  0.50069160527E+00  0.25464102687E+02  0.15162571964E+02  0.95359237421E+02  0.90635585479E+02 0.  0.
         11    1    3    3    0    0  0.39897749604E+01  0.38080086550E+02  0.47184660181E+02  0.60765149984E+02  0.51100000000E-03 0.  1.
         22    1    1    0    0    0 -0.50069160527E+00 -0.25464102687E+02 -0.15162571964E+02  0.29640762579E+02  0.00000000000E+00 0.  1.
</event>
<event>
 5    1  0.8875601E-005  0.9118800E+02  0.7818608E-02  0.1130116E+00
         25   -1    0    0    0    0  0.00000000000E+00  0.00000000000E+00  0.99999998245E-14  0.12500000000E+03  0.12500000000E+03 0.  0.
        -11    1    3    3    0    0 -0.16410797049E+02 -0.34778508344E+02 -0.31193352277E+01  0.38582238854E+02  0.51100000000E-03 0.  1.
         23    2    1    0    0    0  0.68445971610E+01  0.16197325729E+02 -0.21199404975E+02  0.97457003751E+02  0.93483960858E+02 0.  0.
         11    1    3    3    0    0  0.23255394210E+02  0.50975834074E+02 -0.18080069748E+02  0.58874764897E+02  0.51100000000E-03 0. -1.
         22    1    1    0    0    0 -0.68445971610E+01 -0.16197325729E+02  0.21199404975E+02  0.27542996249E+02  0.00000000000E+00 0. -1.
</event>
<event>
 5    1  0.8875601E-005  0.9118800E+02  0.7818608E-02  0.1130116E+00
         25   -1    0    0    0    0  0.00000000000E+00  0.00000000000E+00  0.99999998245E-14  0.12500000000E+03  0.12500000000E+03 0.  0.
        -11    1    3    3    0    0 -0.27139469745E+01 -0.25079659518E+02 -0.52178743136E+02  0.57956674036E+02  0.51100000000E-03 0.  1.
         23    2    1    0    0    0  0.15166473270E+02 -0.15887335030E+02 -0.26016670322E+02  0.90951557151E+02  0.84337946902E+02 0.  0.
         11    1    3    3    0    0  0.17880420244E+02  0.91923244878E+01  0.26162072814E+02  0.32994883115E+02  0.51100000000E-03 0. -1.
         22    1    1    0    0    0 -0.15166473270E+02  0.15887335030E+02  0.26016670322E+02  0.34048442849E+02  0.00000000000E+00 0.  1.
</event>
<event>
 5    1  0.8875601E-005  0.9118800E+02  0.7818608E-02  0.1130116E+00
         25   -1    0    0    0    0  0.00000000000E+00  0.00000000000E+00  0.99999998245E-14  0.12500000000E+03  0.12500000000E+03 0.  0.
        -11    1    3    3    0    0  0.71673426274E+01  0.20664564490E+02 -0.27519608702E+02  0.35152864596E+02  0.51100000000E-03 0. -1.
         23    2    1    0    0    0 -0.20543842547E+01 -0.10967489073E+01  0.28735045821E+02  0.96170740364E+02  0.91747943252E+02 0.  0.
         11    1    3    3    0    0 -0.92217268821E+01 -0.21761313398E+02  0.56254654523E+02  0.61017875768E+02  0.51100000000E-03 0.  1.
         22    1    1    0    0    0  0.20543842547E+01  0.10967489073E+01 -0.28735045821E+02  0.28829259636E+02  0.00000000000E+00 0.  1.
</event>
<event>
 5    1  0.8875601E-005  0.9118800E+02  0.7818608E-02  0.1130116E+00
         25   -1    0    0    0    0  0.00000000000E+00  0.00000000000E+00  0.99999998245E-14  0.12500000000E+03  0.12500000000E+03 0.  0.
        -11    1    3    3    0    0 -0.24401686370E+02  0.12537889463E+02 -0.55165851883E+02  0.61610974543E+02  0.51100000000E-03 0. -1.
         23    2    1    0    0    0 -0.11318632879E+02  0.59943042729E+00 -0.33725917239E+02  0.89420395439E+02  0.82037179740E+02 0.  0.
         11    1    3    3    0    0  0.13083053491E+02 -0.11938459035E+02  0.21439934644E+02  0.27809420896E+02  0.51100000000E-03 0.  1.
         22    1    1    0    0    0  0.11318632879E+02 -0.59943042729E+00  0.33725917239E+02  0.35579604561E+02  0.00000000000E+00 0. -1.
</event>
<event>
 5    1  0.8875601E-005  0.9118800E+02  0.7818608E-02  0.1130116E+00
         25   -1    0    0    0    0  0.00000000000E+00  0.00000000000E+00  0.99999998245E-14  0.12500000000E+03  0.12500000000E+03 0.  0.
        -11    1    3    3    0    0 -0.26511930161E+01  0.15577919375E+02  0.40318136232E+02  0.43304185778E+02  0.51100000000E-03 0. -1.
         23    2    1    0    0    0  0.26956151594E+02 -0.93657357783E+01  0.43776908933E+01  0.96129335079E+02  0.91691514164E+02 0.  0.
         11    1    3    3    0    0  0.29607344610E+02 -0.24943655153E+02 -0.35940445339E+02  0.52825149301E+02  0.51100000000E-03 0.  1.
         22    1    1    0    0    0 -0.26956151594E+02  0.93657357783E+01 -0.43776908933E+01  0.28870664921E+02  0.00000000000E+00 0.  1.
</event>
<event>
 5    1  0.8875601E-005  0.9118800E+02  0.7818608E-02  0.1130116E+00
         25   -1    0    0    0    0  0.00000000000E+00  0.00000000000E+00  0.99999998245E-14  0.12500000000E+03  0.12500000000E+03 0.  0.
        -11    1    3    3    0    0  0.42884420909E+02  0.71357871294E+01  0.37615319116E+02  0.57488305307E+02  0.51100000000E-03 0. -1.
         23    2    1    0    0    0  0.26868415024E+02  0.73557517581E+01  0.13768130176E+01  0.97108882706E+02  0.93017313853E+02 0.  0.
         11    1    3    3    0    0 -0.16016005884E+02  0.21996462876E+00 -0.36238506098E+02  0.39620577399E+02  0.51100000000E-03 0.  1.
         22    1    1    0    0    0 -0.26868415024E+02 -0.73557517581E+01 -0.13768130176E+01  0.27891117294E+02  0.00000000000E+00 0. -1.
</event>
<event>
 5    1  0.8875601E-005  0.9118800E+02  0.7818608E-02  0.1130116E+00
         25   -1    0    0    0    0  0.00000000000E+00  0.00000000000E+00  0.99999998245E-14  0.12500000000E+03  0.12500000000E+03 0.  0.
        -11    1    3    3    0    0  0.10323707797E+02  0.27832880891E+02 -0.17126497412E+02  0.34271928968E+02  0.51100000000E-03 0. -1.
         23    2    1    0    0    0  0.16311316095E+01 -0.12918810365E+02  0.27037497732E+02  0.94990292651E+02  0.90125319210E+02 0.  0.
         11    1    3    3    0    0 -0.86925761873E+01 -0.40751691256E+02  0.44163995144E+02  0.60718363683E+02  0.51100000000E-03 0.  1.
         22    1    1    0    0    0 -0.16311316095E+01  0.12918810365E+02 -0.27037497732E+02  0.30009707349E+02  0.00000000000E+00 0.  1.
</event>
<event>
 5    1  0.8875601E-005  0.9118800E+02  0.7818608E-02  0.1130116E+00
         25   -1    0    0    0    0  0.00000000000E+00  0.00000000000E+00  0.99999998245E-14  0.12500000000E+03  0.12500000000E+03 0.  0.
        -11    1    3    3    0    0 -0.19622162340E+02  0.64344416268E+01 -0.24460250645E+02  0.32011484748E+02  0.51100000000E-03 0.  1.
         23    2    1    0    0    0  0.24000898803E+02 -0.24046788974E+02  0.10105421739E+01  0.91010113287E+02  0.84424690237E+02 0.  0.
         11    1    3    3    0    0  0.43623061142E+02 -0.30481230601E+02  0.25470792819E+02  0.58998628538E+02  0.51100000000E-03 0. -1.
         22    1    1    0    0    0 -0.24000898803E+02  0.24046788974E+02 -0.10105421739E+01  0.33989886713E+02  0.00000000000E+00 0. -1.
</event>
<event>
 5    1  0.8875601E-005  0.9118800E+02  0.7818608E-02  0.1130116E+00
         25   -1    0    0    0    0  0.00000000000E+00  0.00000000000E+00  0.99999998245E-14  0.12500000000E+03  0.12500000000E+03 0.  0.
        -11    1    3    3    0    0 -0.76155556680E+01  0.37540846923E+02  0.35479770192E+01  0.38469468635E+02  0.51100000000E-03 0. -1.
         23    2    1    0    0    0  0.27443262765E+02 -0.68342371029E+01 -0.66805249177E+01  0.95940253251E+02  0.91433381829E+02 0.  0.
         11    1    3    3    0    0  0.35058818433E+02 -0.44375084026E+02 -0.10228501937E+02  0.57470784616E+02  0.51100000000E-03 0.  1.
         22    1    1    0    0    0 -0.27443262765E+02  0.68342371029E+01  0.66805249177E+01  0.29059746749E+02  0.00000000000E+00 0.  1.
</event>
<event>
 5    1  0.8875601E-005  0.9118800E+02  0.7818608E-02  0.1130116E+00
         25   -1    0    0    0    0  0.00000000000E+00  0.00000000000E+00  0.99999998245E-14  0.12500000000E+03  0.12500000000E+03 0.  0.
        -11    1    3    3    0    0  0.90825926487E-02  0.63879051611E+01  0.48460092213E+02  0.48879299835E+02  0.51100000000E-03 0.  1.
         23    2    1    0    0    0 -0.23472275846E+02 -0.11693929436E+02  0.11210501887E+02  0.96480338859E+02  0.92168783842E+02 0.  0.
         11    1    3    3    0    0 -0.23481358438E+02 -0.18081834597E+02 -0.37249590326E+02  0.47601039024E+02  0.51100000000E-03 0. -1.
         22    1    1    0    0    0  0.23472275846E+02  0.11693929436E+02 -0.11210501887E+02  0.28519661141E+02  0.00000000000E+00 0.  1.
</event>
<event>
 5    1  0.8875601E-005  0.9118800E+02  0.7818608E-02  0.1130116E+00
         25   -1    0    0    0    0  0.00000000000E+00  0.00000000000E+00  0.99999998245E-14  0.12500000000E+03  0.12500000000E+03 0.  0.
        -11    1    3    3    0    0 -0.29394223347E+02 -0.21871040081E+02 -0.44551565960E+02  0.57681927761E+02  0.51100000000E-03 0. -1.
         23    2    1    0    0    0  0.17885704406E+01 -0.16525003081E+02 -0.25337436438E+02  0.94697188310E+02  0.89717874905E+02 0.  0.
         11    1    3    3    0    0  0.31182793788E+02  0.53460370003E+01  0.19214129522E+02  0.37015260550E+02  0.51100000000E-03 0.  1.
         22    1    1    0    0    0 -0.17885704406E+01  0.16525003081E+02  0.25337436438E+02  0.30302811690E+02  0.00000000000E+00 0. -1.
</event>
<event>
 5    1  0.8875601E-005  0.9118800E+02  0.7818608E-02  0.1130116E+00
         25   -1    0    0    0    0  0.00000000000E+00  0.00000000000E+00  0.99999998245E-14  0.12500000000E+03  0.12500000000E+03 0.  0.
        -11    1    3    3    0    0  0.30521214294E+02 -0.30965335660E+02 -0.82261814030E+01  0.44250046274E+02  0.51100000000E-03 0.  1.
         23    2    1    0    0    0  0.16716473916E+02  0.83662732492E+01  0.22289119501E+02  0.95909797588E+02  0.91391735934E+02 0.  0.
         11    1    3    3    0    0 -0.13804740378E+02  0.39331608909E+02  0.30515300904E+02  0.51659751314E+02  0.51100000000E-03 0. -1.
         22    1    1    0    0    0 -0.16716473916E+02 -0.83662732492E+01 -0.22289119501E+02  0.29090202412E+02  0.00000000000E+00 0. -1.
</event>
<event>
 5    1  0.8875601E-005  0.9118800E+02  0.7818608E-02  0.1130116E+00
         25   -1    0    0    0    0  0.00000000000E+00  0.00000000000E+00  0.99999998245E-14  0.12500000000E+03  0.12500000000E+03 0.  0.
        -11    1    3    3    0    0  0.30204887566E+02  0.15302014019E+01 -0.27238412761E+02  0.40701448122E+02  0.51100000000E-03 0. -1.
         23    2    1    0    0    0 -0.29014786905E+01  0.10876956619E+02  0.21719310909E+02  0.10053665538E+03  0.97514941644E+02 0.  0.
         11    1    3    3    0    0 -0.33106366257E+02  0.93467552169E+01  0.48957723670E+02  0.59835207253E+02  0.51100000000E-03 0.  1.
         22    1    1    0    0    0  0.29014786905E+01 -0.10876956619E+02 -0.21719310909E+02  0.24463344625E+02  0.00000000000E+00 0.  1.
</event>
<event>
 5    1  0.8875601E-005  0.9118800E+02  0.7818608E-02  0.1130116E+00
         25   -1    0    0    0    0  0.00000000000E+00  0.00000000000E+00  0.99999998245E-14  0.12500000000E+03  0.12500000000E+03 0.  0.
        -11    1    3    3    0    0  0.19472369329E+02 -0.16717179239E+02 -0.32880389770E+02  0.41710397752E+02  0.51100000000E-03 0.  1.
         23    2    1    0    0    0 -0.71615570278E+01  0.25380460809E+02 -0.15146687703E+02  0.94588195741E+02  0.89565891583E+02 0.  0.
         11    1    3    3    0    0 -0.26633926357E+02  0.42097640048E+02  0.17733702067E+02  0.52877797988E+02  0.51100000000E-03 0. -1.
         22    1    1    0    0    0  0.71615570278E+01 -0.25380460809E+02  0.15146687703E+02  0.30411804259E+02  0.00000000000E+00 0. -1.
</event>
<event>
 5    1  0.8875601E-005  0.9118800E+02  0.7818608E-02  0.1130116E+00
         25   -1    0    0    0    0  0.00000000000E+00  0.00000000000E+00  0.99999998245E-14  0.12500000000E+03  0.12500000000E+03 0.  0.
        -11    1    3    3    0    0  0.69692180835E+01  0.34959427762E+02  0.17865532704E+02  0.39873661096E+02  0.51100000000E-03 0.  1.
         23    2    1    0    0    0 -0.92253411877E+01 -0.17967394830E+02  0.21699628185E+02  0.95355302997E+02  0.90630159160E+02 0.  0.
         11    1    3    3    0    0 -0.16194559271E+02 -0.52926822592E+02  0.38340954819E+01  0.55481641901E+02  0.51100000000E-03 0. -1.
         22    1    1    0    0    0  0.92253411877E+01  0.17967394830E+02 -0.21699628185E+02  0.29644697003E+02  0.00000000000E+00 0.  1.
</event>
<event>
 5    1  0.8875601E-005  0.9118800E+02  0.7818608E-02  0.1130116E+00
         25   -1    0    0    0    0  0.00000000000E+00  0.00000000000E+00  0.99999998245E-14  0.12500000000E+03  0.12500000000E+03 0.  0.
        -11    1    3    3    0    0  0.63366111972E+01 -0.13072106834E+02  0.52328697950E+02  0.54307690505E+02  0.51100000000E-03 0. -1.
         23    2    1    0    0    0 -0.19215958529E+02 -0.97550442444E+01  0.20525272172E+02  0.95239275074E+02  0.90469988220E+02 0.  0.
         11    1    3    3    0    0 -0.25552569727E+02  0.33170625894E+01 -0.31803425778E+02  0.40931584569E+02  0.51100000000E-03 0.  1.
         22    1    1    0    0    0  0.19215958529E+02  0.97550442444E+01 -0.20525272172E+02  0.29760724926E+02  0.00000000000E+00 0. -1.
</event>
<event>
 5    1  0.8875601E-005  0.9118800E+02  0.7818608E-02  0.1130116E+00
         25   -1    0    0    0    0  0.00000000000E+00  0.00000000000E+00  0.99999998245E-14  0.12500000000E+03  0.12500000000E+03 0.  0.
        -11    1    3    3    0    0  0.25147227480E+02 -0.22133054144E+02 -0.16472329805E+02  0.37330855672E+02  0.51100000000E-03 0. -1.
         23    2    1    0    0    0  0.79624979250E+01  0.20577190649E+02  0.19341630318E+02  0.95658547896E+02  0.91047443533E+02 0.  0.
         11    1    3    3    0    0 -0.17184729555E+02  0.42710244794E+02  0.35813960123E+02  0.58327692224E+02  0.51100000000E-03 0.  1.
         22    1    1    0    0    0 -0.79624979250E+01 -0.20577190649E+02 -0.19341630318E+02  0.29341452104E+02  0.00000000000E+00 0.  1.
</event>
<event>
 5    1  0.8875601E-005  0.9118800E+02  0.7818608E-02  0.1130116E+00
         25   -1    0    0    0    0  0.00000000000E+00  0.00000000000E+00  0.99999998245E-14  0.12500000000E+03  0.12500000000E+03 0.  0.
        -11    1    3    3    0    0  0.26918568181E+02 -0.72940253658E+01 -0.22257361506E+02  0.35681959874E+02  0.51100000000E-03 0.  1.
         23    2    1    0    0    0 -0.22624318111E+02  0.17154331769E+02  0.30400613971E+01  0.96445265861E+02  0.92121205297E+02 0.  0.
         11    1    3    3    0    0 -0.49542886292E+02  0.24448357135E+02  0.25297422903E+02  0.60763305988E+02  0.51100000000E-03 0. -1.
         22    1    1    0    0    0  0.22624318111E+02 -0.17154331769E+02 -0.30400613971E+01  0.28554734139E+02  0.00000000000E+00 0. -1.
</event>
<event>
 5    1  0.8875601E-005  0.9118800E+02  0.7818608E-02  0.1130116E+00
         25   -1    0    0    0    0  0.00000000000E+00  0.00000000000E+00  0.99999998245E-14  0.12500000000E+03  0.12500000000E+03 0.  0.
        -11    1    3    3    0    0 -0.29398267880E+02  0.34792583812E+01 -0.27143800629E+02  0.40164030003E+02  0.51100000000E-03 0. -1.
         23    2    1    0    0    0  0.21471026144E+02 -0.14302525173E+02 -0.14066558252E+02  0.95615731232E+02  0.90988641093E+02 0.  0.
         11    1    3    3    0    0  0.50869294023E+02 -0.17781783554E+02  0.13077242376E+02  0.55451701229E+02  0.51100000000E-03 0.  1.
         22    1    1    0    0    0 -0.21471026144E+02  0.14302525173E+02  0.14066558252E+02  0.29384268768E+02  0.00000000000E+00 0.  1.
</event>
<event>
 5    1  0.8875601E-005  0.9118800E+02  0.7818608E-02  0.1130116E+00
         25   -1    0    0    0    0  0.00000000000E+00  0.00000000000E+00  0.99999998245E-14  0.12500000000E+03  0.12500000000E+03 0.  0.
        -11    1    3    3    0    0 -0.48102296912E+02  0.17337167023E+02 -0.19102584813E+02  0.54583120792E+02  0.51100000000E-03 0. -1.
         23    2    1    0    0    0 -0.10520015679E+02  0.22753657200E+02 -0.20556202005E+02  0.92581531703E+02  0.86720141407E+02 0.  0.
         11    1    3    3    0    0  0.37582281233E+02  0.54164901772E+01 -0.14536171921E+01  0.37998410911E+02  0.51100000000E-03 0.  1.
         22    1    1    0    0    0  0.10520015679E+02 -0.22753657200E+02  0.20556202005E+02  0.32418468297E+02  0.00000000000E+00 0. -1.
</event>
<event>
 5    1  0.8875601E-005  0.9118800E+02  0.7818608E-02  0.1130116E+00
         25   -1    0    0    0    0  0.00000000000E+00  0.00000000000E+00  0.99999998245E-14  0.12500000000E+03  0.12500000000E+03 0.  0.
        -11    1    3    3    0    0 -0.35846006623E+02 -0.50676547779E+02  0.26930966754E+00  0.62073514590E+02  0.51100000000E-03 0.  1.
         23    2    1    0    0    0 -0.14502433775E+02 -0.26149603239E+02 -0.38676979381E+01  0.94849022864E+02  0.89929170550E+02 0.  0.
         11    1    3    3    0    0  0.21343572847E+02  0.24526944541E+02 -0.41370076056E+01  0.32775508273E+02  0.51100000000E-03 0. -1.
         22    1    1    0    0    0  0.14502433775E+02  0.26149603239E+02  0.38676979381E+01  0.30150977136E+02  0.00000000000E+00 0.  1.
</event>
<event>
 5    1  0.8875601E-005  0.9118800E+02  0.7818608E-02  0.1130116E+00
         25   -1    0    0    0    0  0.00000000000E+00  0.00000000000E+00  0.99999998245E-14  0.12500000000E+03  0.12500000000E+03 0.  0.
        -11    1    3    3    0    0 -0.30126482979E+02  0.34805744676E+00 -0.51466487552E+02  0.59636611757E+02  0.51100000000E-03 0. -1.
         23    2    1    0    0    0 -0.98044292674E+01 -0.12583833841E+02 -0.24154597933E+02  0.96053077733E+02  0.91587496053E+02 0.  0.
         11    1    3    3    0    0  0.20322053712E+02 -0.12931891288E+02  0.27311889619E+02  0.36416465976E+02  0.51100000000E-03 0.  1.
         22    1    1    0    0    0  0.98044292674E+01  0.12583833841E+02  0.24154597933E+02  0.28946922267E+02  0.00000000000E+00 0. -1.
</event>
<event>
 5    1  0.8875601E-005  0.9118800E+02  0.7818608E-02  0.1130116E+00
         25   -1    0    0    0    0  0.00000000000E+00  0.00000000000E+00  0.99999998245E-14  0.12500000000E+03  0.12500000000E+03 0.  0.
        -11    1    3    3    0    0 -0.30647598098E+02 -0.19800485942E+02  0.32701877412E+02  0.48997421353E+02  0.51100000000E-03 0.  1.
         23    2    1    0    0    0 -0.17121385844E+02 -0.21458221326E+02 -0.11488471248E+02  0.95241268722E+02  0.90472742749E+02 0.  0.
         11    1    3    3    0    0  0.13526212254E+02 -0.16577353832E+01 -0.44190348660E+02  0.46243847369E+02  0.51100000000E-03 0. -1.
         22    1    1    0    0    0  0.17121385844E+02  0.21458221326E+02  0.11488471248E+02  0.29758731278E+02  0.00000000000E+00 0. -1.
</event>
<event>
 5    1  0.8875601E-005  0.9118800E+02  0.7818608E-02  0.1130116E+00
         25   -1    0    0    0    0  0.00000000000E+00  0.00000000000E+00  0.99999998245E-14  0.12500000000E+03  0.12500000000E+03 0.  0.
        -11    1    3    3    0    0  0.15273370373E+02 -0.23968834662E+02 -0.23175621884E+02  0.36672746387E+02  0.51100000000E-03 0.  1.
         23    2    1    0    0    0 -0.25872857869E+02  0.13361643224E+02 -0.32280828489E+01  0.95702238945E+02  0.91107407691E+02 0.  0.
         11    1    3    3    0    0 -0.41146228242E+02  0.37330477886E+02  0.19947539035E+02  0.59029492558E+02  0.51100000000E-03 0. -1.
         22    1    1    0    0    0  0.25872857869E+02 -0.13361643224E+02  0.32280828489E+01  0.29297761055E+02  0.00000000000E+00 0. -1.
</event>
<event>
 5    1  0.8875601E-005  0.9118800E+02  0.7818608E-02  0.1130116E+00
         25   -1    0    0    0    0  0.00000000000E+00  0.00000000000E+00  0.99999998245E-14  0.12500000000E+03  0.12500000000E+03 0.  0.
        -11    1    3    3    0    0  0.93643750677E+01  0.30008262506E+02  0.35305904358E+02  0.47272552521E+02  0.51100000000E-03 0.  1.
         23    2    1    0    0    0  0.21769037532E+02 -0.12393290600E+02  0.13625386828E+02  0.96484463653E+02  0.92174377748E+02 0.  0.
         11    1    3    3    0    0  0.12404662464E+02 -0.42401553106E+02 -0.21680517530E+02  0.49211911132E+02  0.51100000000E-03 0. -1.
         22    1    1    0    0    0 -0.21769037532E+02  0.12393290600E+02 -0.13625386828E+02  0.28515536347E+02  0.00000000000E+00 0.  1.
</event>
<event>
 5    1  0.8875601E-005  0.9118800E+02  0.7818608E-02  0.1130116E+00
         25   -1    0    0    0    0  0.00000000000E+00  0.00000000000E+00  0.99999998245E-14  0.12500000000E+03  0.12500000000E+03 0.  0.
        -11    1    3    3    0    0  0.15351163165E+02  0.72649444072E+00 -0.59694670367E+02  0.61641217340E+02  0.51100000000E-03 0. -1.
         23    2    1    0    0    0  0.12046432081E+02 -0.50442851448E+01 -0.26975279567E+02  0.95029563796E+02  0.90179770176E+02 0.  0.
         11    1    3    3    0    0 -0.33047310842E+01 -0.57707795855E+01  0.32719390799E+02  0.33388346456E+02  0.51100000000E-03 0.  1.
         22    1    1    0    0    0 -0.12046432081E+02  0.50442851448E+01  0.26975279567E+02  0.29970436204E+02  0.00000000000E+00 0. -1.
</event>
<event>
 5    1  0.8875601E-005  0.9118800E+02  0.7818608E-02  0.1130116E+00
         25   -1    0    0    0    0  0.00000000000E+00  0.00000000000E+00  0.99999998245E-14  0.12500000000E+03  0.12500000000E+03 0.  0.
        -11    1    3    3    0    0 -0.29967204649E+02 -0.21974130945E+02  0.43190261233E+02  0.56976262170E+02  0.51100000000E-03 0.  1.
         23    2    1    0    0    0 -0.25881494361E+02  0.10274344075E+01  0.10743042978E+02  0.96958595894E+02  0.92815133322E+02 0.  0.
         11    1    3    3    0    0  0.40857102882E+01  0.23001565352E+02 -0.32447218255E+02  0.39982333724E+02  0.51100000000E-03 0. -1.
         22    1    1    0    0    0  0.25881494361E+02 -0.10274344075E+01 -0.10743042978E+02  0.28041404106E+02  0.00000000000E+00 0.  1.
</event>
<event>
 5    1  0.8875601E-005  0.9118800E+02  0.7818608E-02  0.1130116E+00
         25   -1    0    0    0    0  0.00000000000E+00  0.00000000000E+00  0.99999998245E-14  0.12500000000E+03  0.12500000000E+03 0.  0.
        -11    1    3    3    0    0 -0.16384064366E+02  0.24433569217E+02  0.49913767211E+02  0.57938079251E+02  0.51100000000E-03 0. -1.
         23    2    1    0    0    0 -0.21116020655E+02  0.15020611578E+02  0.13629637350E+02  0.95720790401E+02  0.91132856864E+02 0.  0.
         11    1    3    3    0    0 -0.47319562887E+01 -0.94129576386E+01 -0.36284129861E+02  0.37782711150E+02  0.51100000000E-03 0.  1.
         22    1    1    0    0    0  0.21116020655E+02 -0.15020611578E+02 -0.13629637350E+02  0.29279209599E+02  0.00000000000E+00 0. -1.
</event>
<event>
 5    1  0.8875601E-005  0.9118800E+02  0.7818608E-02  0.1130116E+00
         25   -1    0    0    0    0  0.00000000000E+00  0.00000000000E+00  0.99999998245E-14  0.12500000000E+03  0.12500000000E+03 0.  0.
        -11    1    3    3    0    0 -0.34147056701E+02  0.50191659699E+01  0.93435812749E+01  0.35756342370E+02  0.51100000000E-03 0. -1.
         23    2    1    0    0    0  0.25273001088E+02  0.99688021830E+01  0.11679299329E+02  0.95427924764E+02  0.90730266125E+02 0.  0.
         11    1    3    3    0    0  0.59420057789E+02  0.49496362131E+01  0.23357180537E+01  0.59671582394E+02  0.51100000000E-03 0.  1.
         22    1    1    0    0    0 -0.25273001088E+02 -0.99688021830E+01 -0.11679299329E+02  0.29572075236E+02  0.00000000000E+00 0.  1.
</event>
<event>
 5    1  0.8875601E-005  0.9118800E+02  0.7818608E-02  0.1130116E+00
         25   -1    0    0    0    0  0.00000000000E+00  0.00000000000E+00  0.99999998245E-14  0.12500000000E+03  0.12500000000E+03 0.  0.
        -11    1    3    3    0    0  0.15263500420E+02  0.26175793952E+02 -0.26639064251E+02  0.40345834711E+02  0.51100000000E-03 0.  1.
         23    2    1    0    0    0 -0.30264736913E+02  0.12513932256E+02 -0.91370801808E+01  0.90999425958E+02  0.84408864994E+02 0.  0.
         11    1    3    3    0    0 -0.45528237333E+02 -0.13661861696E+02  0.17501984070E+02  0.50653591248E+02  0.51100000000E-03 0. -1.
         22    1    1    0    0    0  0.30264736913E+02 -0.12513932256E+02  0.91370801808E+01  0.34000574042E+02  0.00000000000E+00 0. -1.
</event>
<event>
 5    1  0.8875601E-005  0.9118800E+02  0.7818608E-02  0.1130116E+00
         25   -1    0    0    0    0  0.00000000000E+00  0.00000000000E+00  0.99999998245E-14  0.12500000000E+03  0.12500000000E+03 0.  0.
        -11    1    3    3    0    0 -0.37994509958E+01 -0.40765758224E+02 -0.57662198975E+01  0.41346489133E+02  0.51100000000E-03 0.  1.
         23    2    1    0    0    0  0.92811631689E+01  0.58314502598E+01 -0.28239380789E+02  0.94707947754E+02  0.89732864317E+02 0.  0.
         11    1    3    3    0    0  0.13080614165E+02  0.46597208484E+02 -0.22473160892E+02  0.53361458621E+02  0.51100000000E-03 0. -1.
         22    1    1    0    0    0 -0.92811631689E+01 -0.58314502598E+01  0.28239380789E+02  0.30292052246E+02  0.00000000000E+00 0. -1.
</event>
<event>
 5    1  0.8875601E-005  0.9118800E+02  0.7818608E-02  0.1130116E+00
         25   -1    0    0    0    0  0.00000000000E+00  0.00000000000E+00  0.99999998245E-14  0.12500000000E+03  0.12500000000E+03 0.  0.
        -11    1    3    3    0    0  0.13675401109E+02  0.29396836745E+02 -0.86776489076E+01  0.33563256649E+02  0.51100000000E-03 0.  1.
         23    2    1    0    0    0 -0.15807344446E+02 -0.23873244560E+02  0.49209156260E+01  0.95947988799E+02  0.91443956605E+02 0.  0.
         11    1    3    3    0    0 -0.29482745555E+02 -0.53270081304E+02  0.13598564534E+02  0.62384732149E+02  0.51100000000E-03 0. -1.
         22    1    1    0    0    0  0.15807344446E+02  0.23873244560E+02 -0.49209156260E+01  0.29052011201E+02  0.00000000000E+00 0. -1.
</event>
<event>
 5    1  0.8875601E-005  0.9118800E+02  0.7818608E-02  0.1130116E+00
         25   -1    0    0    0    0  0.00000000000E+00  0.00000000000E+00  0.99999998245E-14  0.12500000000E+03  0.12500000000E+03 0.  0.
        -11    1    3    3    0    0 -0.24842205510E+01 -0.29250712878E+02  0.16971588264E+02  0.33908853771E+02  0.51100000000E-03 0. -1.
         23    2    1    0    0    0 -0.10158131523E+02  0.21531682273E+02 -0.17228212834E+02  0.95612718823E+02  0.90984502558E+02 0.  0.
         11    1    3    3    0    0 -0.76739109721E+01  0.50782395151E+02 -0.34199801098E+02  0.61703865051E+02  0.51100000000E-03 0.  1.
         22    1    1    0    0    0  0.10158131523E+02 -0.21531682273E+02  0.17228212834E+02  0.29387281177E+02  0.00000000000E+00 0.  1.
</event>
<event>
 5    1  0.8875601E-005  0.9118800E+02  0.7818608E-02  0.1130116E+00
         25   -1    0    0    0    0  0.00000000000E+00  0.00000000000E+00  0.99999998245E-14  0.12500000000E+03  0.12500000000E+03 0.  0.
        -11    1    3    3    0    0  0.96799987593E+01  0.43908126200E+02 -0.13951994532E+02  0.47077426374E+02  0.51100000000E-03 0.  1.
         23    2    1    0    0    0 -0.11240314956E+02  0.13315447968E+02  0.20787424206E+02  0.97875051336E+02  0.94041282605E+02 0.  0.
         11    1    3    3    0    0 -0.20920313715E+02 -0.30592678231E+02  0.34739418737E+02  0.50797624962E+02  0.51100000000E-03 0. -1.
         22    1    1    0    0    0  0.11240314956E+02 -0.13315447968E+02 -0.20787424206E+02  0.27124948664E+02  0.00000000000E+00 0. -1.
</event>
<event>
 5    1  0.8875601E-005  0.9118800E+02  0.7818608E-02  0.1130116E+00
         25   -1    0    0    0    0  0.00000000000E+00  0.00000000000E+00  0.99999998245E-14  0.12500000000E+03  0.12500000000E+03 0.  0.
        -11    1    3    3    0    0  0.22401600803E+02 -0.49997311919E+02 -0.10750041951E+02  0.55831230686E+02  0.51100000000E-03 0.  1.
         23    2    1    0    0    0 -0.33092339148E+01 -0.27017227275E+02 -0.19630975282E+02  0.91440250459E+02  0.85059171256E+02 0.  0.
         11    1    3    3    0    0 -0.25710834718E+02  0.22980084644E+02 -0.88809333303E+01  0.35609019773E+02  0.51100000000E-03 0. -1.
         22    1    1    0    0    0  0.33092339148E+01  0.27017227275E+02  0.19630975282E+02  0.33559749541E+02  0.00000000000E+00 0.  1.
</event>
<event>
 5    1  0.8875601E-005  0.9118800E+02  0.7818608E-02  0.1130116E+00
         25   -1    0    0    0    0  0.00000000000E+00  0.00000000000E+00  0.99999998245E-14  0.12500000000E+03  0.12500000000E+03 0.  0.
        -11    1    3    3    0    0 -0.70039115549E+01 -0.12687072526E+02 -0.18169445593E+02  0.23241027081E+02  0.51100000000E-03 0.  1.
         23    2    1    0    0    0 -0.41866833832E+01  0.32292429077E+02  0.23675792375E+02  0.84739939916E+02  0.74565306805E+02 0.  0.
         11    1    3    3    0    0  0.28172281717E+01  0.44979501603E+02  0.41845237968E+02  0.61498912835E+02  0.51100000000E-03 0. -1.
         22    1    1    0    0    0  0.41866833832E+01 -0.32292429077E+02 -0.23675792375E+02  0.40260060084E+02  0.00000000000E+00 0. -1.
</event>
<event>
 5    1  0.8875601E-005  0.9118800E+02  0.7818608E-02  0.1130116E+00
         25   -1    0    0    0    0  0.00000000000E+00  0.00000000000E+00  0.99999998245E-14  0.12500000000E+03  0.12500000000E+03 0.  0.
        -11    1    3    3    0    0 -0.31847059218E+02  0.12099914863E+02  0.35664303368E+02  0.49321249533E+02  0.51100000000E-03 0.  1.
         23    2    1    0    0    0  0.13707875148E+02  0.10374093259E+02  0.22330467549E+02  0.96818846138E+02  0.92626732289E+02 0.  0.
         11    1    3    3    0    0  0.45554934367E+02 -0.17258216043E+01 -0.13333835819E+02  0.47497596605E+02  0.51100000000E-03 0. -1.
         22    1    1    0    0    0 -0.13707875148E+02 -0.10374093259E+02 -0.22330467549E+02  0.28181153862E+02  0.00000000000E+00 0.  1.
</event>
<event>
 5    1  0.8875601E-005  0.9118800E+02  0.7818608E-02  0.1130116E+00
         25   -1    0    0    0    0  0.00000000000E+00  0.00000000000E+00  0.99999998245E-14  0.12500000000E+03  0.12500000000E+03 0.  0.
        -11    1    3    3    0    0  0.10922435771E+02 -0.47447347295E+02  0.22507558256E+02  0.53638983467E+02  0.51100000000E-03 0. -1.
         23    2    1    0    0    0 -0.17990980869E+02 -0.25191091772E+02  0.71347220739E+01  0.93232551938E+02  0.87653510965E+02 0.  0.
         11    1    3    3    0    0 -0.28913416641E+02  0.22256255523E+02 -0.15372836182E+02  0.39593568471E+02  0.51100000000E-03 0.  1.
         22    1    1    0    0    0  0.17990980869E+02  0.25191091772E+02 -0.71347220739E+01  0.31767448062E+02  0.00000000000E+00 0. -1.
</event>
<event>
 5    1  0.8875601E-005  0.9118800E+02  0.7818608E-02  0.1130116E+00
         25   -1    0    0    0    0  0.00000000000E+00  0.00000000000E+00  0.99999998245E-14  0.12500000000E+03  0.12500000000E+03 0.  0.
        -11    1    3    3    0    0  0.45498135657E+02  0.12698095219E+01  0.48259691678E+01  0.45770981452E+02  0.51100000000E-03 0.  1.
         23    2    1    0    0    0  0.17203799684E+01  0.16338957280E+02  0.24026712495E+02  0.95893228527E+02  0.91369070981E+02 0.  0.
         11    1    3    3    0    0 -0.43777755688E+02  0.15069147759E+02  0.19200743327E+02  0.50122247075E+02  0.51100000000E-03 0. -1.
         22    1    1    0    0    0 -0.17203799684E+01 -0.16338957280E+02 -0.24026712495E+02  0.29106771473E+02  0.00000000000E+00 0. -1.
</event>
<event>
 5    1  0.8875601E-005  0.9118800E+02  0.7818608E-02  0.1130116E+00
         25   -1    0    0    0    0  0.00000000000E+00  0.00000000000E+00  0.99999998245E-14  0.12500000000E+03  0.12500000000E+03 0.  0.
        -11    1    3    3    0    0  0.45793899795E+02  0.57714447535E+01 -0.29014204928E+02  0.54518023817E+02  0.51100000000E-03 0.  1.
         23    2    1    0    0    0  0.24906517022E+02 -0.19225072201E+02 -0.11512584426E+02  0.91496603285E+02  0.85141945134E+02 0.  0.
         11    1    3    3    0    0 -0.20887382774E+02 -0.24996516955E+02  0.17501620502E+02  0.36978579468E+02  0.51100000000E-03 0. -1.
         22    1    1    0    0    0 -0.24906517022E+02  0.19225072201E+02  0.11512584426E+02  0.33503396715E+02  0.00000000000E+00 0.  1.
</event>
<event>
 5    1  0.8875601E-005  0.9118800E+02  0.7818608E-02  0.1130116E+00
         25   -1    0    0    0    0  0.00000000000E+00  0.00000000000E+00  0.99999998245E-14  0.12500000000E+03  0.12500000000E+03 0.  0.
        -11    1    3    3    0    0 -0.22138436703E+02 -0.26081918438E+02  0.24290138731E+02  0.41956974257E+02  0.51100000000E-03 0. -1.
         23    2    1    0    0    0  0.48196182573E+01  0.20517462067E+02  0.19970457242E+02  0.95965294349E+02  0.91467609497E+02 0.  0.
         11    1    3    3    0    0  0.26958054960E+02  0.46599380505E+02 -0.43196814891E+01  0.54008320091E+02  0.51100000000E-03 0.  1.
         22    1    1    0    0    0 -0.48196182573E+01 -0.20517462067E+02 -0.19970457242E+02  0.29034705651E+02  0.00000000000E+00 0.  1.
</event>
<event>
 5    1  0.8875601E-005  0.9118800E+02  0.7818608E-02  0.1130116E+00
         25   -1    0    0    0    0  0.00000000000E+00  0.00000000000E+00  0.99999998245E-14  0.12500000000E+03  0.12500000000E+03 0.  0.
        -11    1    3    3    0    0 -0.52872546463E+02  0.45196079946E+01 -0.71945802960E+01  0.53550863782E+02  0.51100000000E-03 0.  1.
         23    2    1    0    0    0 -0.12207871396E+02 -0.13687765446E+02 -0.17898144445E+02  0.99373244031E+02  0.96012035744E+02 0.  0.
         11    1    3    3    0    0  0.40664675067E+02 -0.18207373441E+02 -0.10703564149E+02  0.45822380249E+02  0.51100000000E-03 0. -1.
         22    1    1    0    0    0  0.12207871396E+02  0.13687765446E+02  0.17898144445E+02  0.25626755969E+02  0.00000000000E+00 0.  1.
</event>
<event>
 5    1  0.8875601E-005  0.9118800E+02  0.7818608E-02  0.1130116E+00
         25   -1    0    0    0    0  0.00000000000E+00  0.00000000000E+00  0.99999998245E-14  0.12500000000E+03  0.12500000000E+03 0.  0.
        -11    1    3    3    0    0 -0.11857951983E+02 -0.12591322393E+02 -0.28372085404E+02  0.33228416382E+02  0.51100000000E-03 0.  1.
         23    2    1    0    0    0  0.10486891999E+02  0.21185642665E+02  0.18360768301E+02  0.95068007558E+02  0.90233042116E+02 0.  0.
         11    1    3    3    0    0  0.22344843982E+02  0.33776965058E+02  0.46732853705E+02  0.61839591176E+02  0.51100000000E-03 0. -1.
         22    1    1    0    0    0 -0.10486891999E+02 -0.21185642665E+02 -0.18360768301E+02  0.29931992442E+02  0.00000000000E+00 0. -1.
</event>
<event>
 5    1  0.8875601E-005  0.9118800E+02  0.7818608E-02  0.1130116E+00
         25   -1    0    0    0    0  0.00000000000E+00  0.00000000000E+00  0.99999998245E-14  0.12500000000E+03  0.12500000000E+03 0.  0.
        -11    1    3    3    0    0 -0.11480845492E+02 -0.22787788131E+01  0.29693031827E+02  0.31916747727E+02  0.51100000000E-03 0.  1.
         23    2    1    0    0    0 -0.15632921078E+01 -0.16673959239E+02 -0.28095780964E+02  0.92291626349E+02  0.86301254842E+02 0.  0.
         11    1    3    3    0    0  0.99175533844E+01 -0.14395180425E+02 -0.57788812791E+02  0.60374878623E+02  0.51100000000E-03 0. -1.
         22    1    1    0    0    0  0.15632921078E+01  0.16673959239E+02  0.28095780964E+02  0.32708373651E+02  0.00000000000E+00 0. -1.
</event>
<event>
 5    1  0.8875601E-005  0.9118800E+02  0.7818608E-02  0.1130116E+00
         25   -1    0    0    0    0  0.00000000000E+00  0.00000000000E+00  0.99999998245E-14  0.12500000000E+03  0.12500000000E+03 0.  0.
        -11    1    3    3    0    0  0.12439682476E+02 -0.83418562524E+01 -0.54340600117E+02  0.56366950309E+02  0.51100000000E-03 0.  1.
         23    2    1    0    0    0 -0.33258844160E+01  0.13848613449E+02 -0.23674829026E+02  0.97371334976E+02  0.93369340492E+02 0.  0.
         11    1    3    3    0    0 -0.15765566892E+02  0.22190469701E+02  0.30665771091E+02  0.41004384666E+02  0.51100000000E-03 0. -1.
         22    1    1    0    0    0  0.33258844160E+01 -0.13848613449E+02  0.23674829026E+02  0.27628665024E+02  0.00000000000E+00 0. -1.
</event>
<event>
 5    1  0.8875601E-005  0.9118800E+02  0.7818608E-02  0.1130116E+00
         25   -1    0    0    0    0  0.00000000000E+00  0.00000000000E+00  0.99999998245E-14  0.12500000000E+03  0.12500000000E+03 0.  0.
        -11    1    3    3    0    0 -0.21140060423E+02 -0.98057746528E+01  0.24178485381E+02  0.33580567696E+02  0.51100000000E-03 0. -1.
         23    2    1    0    0    0  0.11463192387E+02 -0.16476519917E+02 -0.24986798036E+02  0.92949718186E+02  0.87249238085E+02 0.  0.
         11    1    3    3    0    0  0.32603252810E+02 -0.66707452645E+01 -0.49165283417E+02  0.59369150490E+02  0.51100000000E-03 0.  1.
         22    1    1    0    0    0 -0.11463192387E+02  0.16476519917E+02  0.24986798036E+02  0.32050281814E+02  0.00000000000E+00 0.  1.
</event>
<event>
 5    1  0.8875601E-005  0.9118800E+02  0.7818608E-02  0.1130116E+00
         25   -1    0    0    0    0  0.00000000000E+00  0.00000000000E+00  0.99999998245E-14  0.12500000000E+03  0.12500000000E+03 0.  0.
        -11    1    3    3    0    0  0.71250668628E+01 -0.25853208804E+02 -0.23996162916E+02  0.35985702970E+02  0.51100000000E-03 0.  1.
         23    2    1    0    0    0  0.24339354113E+00  0.29201099821E+02 -0.18036081530E+01  0.95742240798E+02  0.91162273992E+02 0.  0.
         11    1    3    3    0    0 -0.68816733217E+01  0.55054308626E+02  0.22192554763E+02  0.59756537827E+02  0.51100000000E-03 0. -1.
         22    1    1    0    0    0 -0.24339354113E+00 -0.29201099821E+02  0.18036081530E+01  0.29257759202E+02  0.00000000000E+00 0. -1.
</event>
<event>
 5    1  0.8875601E-005  0.9118800E+02  0.7818608E-02  0.1130116E+00
         25   -1    0    0    0    0  0.00000000000E+00  0.00000000000E+00  0.99999998245E-14  0.12500000000E+03  0.12500000000E+03 0.  0.
        -11    1    3    3    0    0  0.53333887772E+02  0.21990456338E+02  0.23248230742E+02  0.62197781212E+02  0.51100000000E-03 0. -1.
         23    2    1    0    0    0  0.21820392039E+02  0.11459231470E+02  0.13853390421E+02  0.96727046126E+02  0.92502764993E+02 0.  0.
         11    1    3    3    0    0 -0.31513495733E+02 -0.10531224869E+02 -0.93948403215E+01  0.34529264913E+02  0.51100000000E-03 0.  1.
         22    1    1    0    0    0 -0.21820392039E+02 -0.11459231470E+02 -0.13853390421E+02  0.28272953874E+02  0.00000000000E+00 0. -1.
</event>
<event>
 5    1  0.8875601E-005  0.9118800E+02  0.7818608E-02  0.1130116E+00
         25   -1    0    0    0    0  0.00000000000E+00  0.00000000000E+00  0.99999998245E-14  0.12500000000E+03  0.12500000000E+03 0.  0.
        -11    1    3    3    0    0 -0.13987876219E+02  0.48515272083E+02 -0.30696347895E+02  0.59090253686E+02  0.51100000000E-03 0. -1.
         23    2    1    0    0    0 -0.16570319686E+02  0.13581645836E+02 -0.19935099208E+02  0.95734922202E+02  0.91152238318E+02 0.  0.
         11    1    3    3    0    0 -0.25824434672E+01 -0.34933626247E+02  0.10761248687E+02  0.36644668515E+02  0.51100000000E-03 0.  1.
         22    1    1    0    0    0  0.16570319686E+02 -0.13581645836E+02  0.19935099208E+02  0.29265077798E+02  0.00000000000E+00 0. -1.
</event>
<event>
 5    1  0.8875601E-005  0.9118800E+02  0.7818608E-02  0.1130116E+00
         25   -1    0    0    0    0  0.00000000000E+00  0.00000000000E+00  0.99999998245E-14  0.12500000000E+03  0.12500000000E+03 0.  0.
        -11    1    3    3    0    0  0.33987329188E+02  0.10575931427E+02 -0.43300444514E+02  0.56052808727E+02  0.51100000000E-03 0. -1.
         23    2    1    0    0    0 -0.16463463909E+01  0.15513974945E+01 -0.29649381581E+02  0.95264446890E+02  0.90504760773E+02 0.  0.
         11    1    3    3    0    0 -0.35633675579E+02 -0.90245339321E+01  0.13651062933E+02  0.39211638163E+02  0.51100000000E-03 0.  1.
         22    1    1    0    0    0  0.16463463909E+01 -0.15513974945E+01  0.29649381581E+02  0.29735553110E+02  0.00000000000E+00 0. -1.
</event>
<event>
 5    1  0.8875601E-005  0.9118800E+02  0.7818608E-02  0.1130116E+00
         25   -1    0    0    0    0  0.00000000000E+00  0.00000000000E+00  0.99999998245E-14  0.12500000000E+03  0.12500000000E+03 0.  0.
        -11    1    3    3    0    0 -0.43899930924E+02  0.14670824746E+02  0.14768149043E+02  0.48585339972E+02  0.51100000000E-03 0.  1.
         23    2    1    0    0    0  0.72935578582E+00  0.28155956358E+02  0.29605442989E+01  0.96679430429E+02  0.92438398987E+02 0.  0.
         11    1    3    3    0    0  0.44629286709E+02  0.13485131612E+02 -0.11807604744E+02  0.48094090456E+02  0.51100000000E-03 0. -1.
         22    1    1    0    0    0 -0.72935578582E+00 -0.28155956358E+02 -0.29605442989E+01  0.28320569571E+02  0.00000000000E+00 0. -1.
</event>
<event>
 5    1  0.8875601E-005  0.9118800E+02  0.7818608E-02  0.1130116E+00
         25   -1    0    0    0    0  0.00000000000E+00  0.00000000000E+00  0.99999998245E-14  0.12500000000E+03  0.12500000000E+03 0.  0.
        -11    1    3    3    0    0 -0.43652810908E+02 -0.14542785061E+01 -0.42191180953E+02  0.60727082728E+02  0.51100000000E-03 0.  1.
         23    2    1    0    0    0 -0.17944445688E+02  0.96165283686E+01 -0.20165309732E+02  0.96344800376E+02  0.91984781861E+02 0.  0.
         11    1    3    3    0    0  0.25708365220E+02  0.11070806875E+02  0.22025871221E+02  0.35617717648E+02  0.51100000000E-03 0. -1.
         22    1    1    0    0    0  0.17944445688E+02 -0.96165283686E+01  0.20165309732E+02  0.28655199624E+02  0.00000000000E+00 0.  1.
</event>
<event>
 5    1  0.8875601E-005  0.9118800E+02  0.7818608E-02  0.1130116E+00
         25   -1    0    0    0    0  0.00000000000E+00  0.00000000000E+00  0.99999998245E-14  0.12500000000E+03  0.12500000000E+03 0.  0.
        -11    1    3    3    0    0 -0.36466701716E+01 -0.38268138217E+01 -0.38244522752E+02  0.38608110911E+02  0.51100000000E-03 0.  1.
         23    2    1    0    0    0 -0.19973917176E+02 -0.21714250727E+02  0.11021355534E+02  0.93504979285E+02  0.88041154134E+02 0.  0.
         11    1    3    3    0    0 -0.16327247005E+02 -0.17887436906E+02  0.49265878285E+02  0.54896868374E+02  0.51100000000E-03 0. -1.
         22    1    1    0    0    0  0.19973917176E+02  0.21714250727E+02 -0.11021355534E+02  0.31495020715E+02  0.00000000000E+00 0. -1.
</event>
<event>
 5    1  0.8875601E-005  0.9118800E+02  0.7818608E-02  0.1130116E+00
         25   -1    0    0    0    0  0.00000000000E+00  0.00000000000E+00  0.99999998245E-14  0.12500000000E+03  0.12500000000E+03 0.  0.
        -11    1    3    3    0    0 -0.21036070571E+02  0.46480274675E+02  0.87134600769E+01  0.51757671757E+02  0.51100000000E-03 0. -1.
         23    2    1    0    0    0  0.14251685969E+02  0.26840808531E+02  0.12112500641E+02  0.92285290352E+02  0.86292077204E+02 0.  0.
         11    1    3    3    0    0  0.35287756540E+02 -0.19639466144E+02  0.33990405637E+01  0.40527618596E+02  0.51100000000E-03 0.  1.
         22    1    1    0    0    0 -0.14251685969E+02 -0.26840808531E+02 -0.12112500641E+02  0.32714709648E+02  0.00000000000E+00 0. -1.
</event>
<event>
 5    1  0.8875601E-005  0.9118800E+02  0.7818608E-02  0.1130116E+00
         25   -1    0    0    0    0  0.00000000000E+00  0.00000000000E+00  0.99999998245E-14  0.12500000000E+03  0.12500000000E+03 0.  0.
        -11    1    3    3    0    0  0.42232422520E+02  0.38923690976E+02  0.71536380113E+01  0.57877506582E+02  0.51100000000E-03 0. -1.
         23    2    1    0    0    0  0.32250423719E+02  0.68353486464E+01  0.11609997994E+01  0.92012733643E+02  0.85896352721E+02 0.  0.
         11    1    3    3    0    0 -0.99819988010E+01 -0.32088342330E+02 -0.59926382119E+01  0.34135227061E+02  0.51100000000E-03 0.  1.
         22    1    1    0    0    0 -0.32250423719E+02 -0.68353486464E+01 -0.11609997994E+01  0.32987266357E+02  0.00000000000E+00 0. -1.
</event>
<event>
 5    1  0.8875601E-005  0.9118800E+02  0.7818608E-02  0.1130116E+00
         25   -1    0    0    0    0  0.00000000000E+00  0.00000000000E+00  0.99999998245E-14  0.12500000000E+03  0.12500000000E+03 0.  0.
        -11    1    3    3    0    0  0.42167479501E+02  0.27390110853E+02  0.12495400046E+02  0.51811673613E+02  0.51100000000E-03 0.  1.
         23    2    1    0    0    0  0.19002250313E+01  0.19016634832E+02  0.23810405282E+02  0.94468399072E+02  0.89398544552E+02 0.  0.
         11    1    3    3    0    0 -0.40267254469E+02 -0.83734760216E+01  0.11315005236E+02  0.42656725460E+02  0.51100000000E-03 0. -1.
         22    1    1    0    0    0 -0.19002250313E+01 -0.19016634832E+02 -0.23810405282E+02  0.30531600928E+02  0.00000000000E+00 0.  1.
</event>
<event>
 5    1  0.8875601E-005  0.9118800E+02  0.7818608E-02  0.1130116E+00
         25   -1    0    0    0    0  0.00000000000E+00  0.00000000000E+00  0.99999998245E-14  0.12500000000E+03  0.12500000000E+03 0.  0.
        -11    1    3    3    0    0  0.14898651188E+01 -0.46012452487E+02  0.41896941070E+01  0.46226821423E+02  0.51100000000E-03 0.  1.
         23    2    1    0    0    0  0.24968925102E+02 -0.59329025757E+01  0.16760001933E+02  0.94348014445E+02  0.89230060020E+02 0.  0.
         11    1    3    3    0    0  0.23479059983E+02  0.40079549911E+02  0.12570307826E+02  0.48121193022E+02  0.51100000000E-03 0. -1.
         22    1    1    0    0    0 -0.24968925102E+02  0.59329025757E+01 -0.16760001933E+02  0.30651985555E+02  0.00000000000E+00 0.  1.
</event>
<event>
 5    1  0.8875601E-005  0.9118800E+02  0.7818608E-02  0.1130116E+00
         25   -1    0    0    0    0  0.00000000000E+00  0.00000000000E+00  0.99999998245E-14  0.12500000000E+03  0.12500000000E+03 0.  0.
        -11    1    3    3    0    0 -0.32646675731E+02  0.88074276046E+01  0.31249103080E+02  0.46042183493E+02  0.51100000000E-03 0. -1.
         23    2    1    0    0    0 -0.12390572640E+02 -0.25413618549E+02 -0.17505496541E+00  0.96726179206E+02  0.92501593507E+02 0.  0.
         11    1    3    3    0    0  0.20256103091E+02 -0.34221046153E+02 -0.31424158045E+02  0.50683995712E+02  0.51100000000E-03 0.  1.
         22    1    1    0    0    0  0.12390572640E+02  0.25413618549E+02  0.17505496541E+00  0.28273820794E+02  0.00000000000E+00 0.  1.
</event>
<event>
 5    1  0.8875601E-005  0.9118800E+02  0.7818608E-02  0.1130116E+00
         25   -1    0    0    0    0  0.00000000000E+00  0.00000000000E+00  0.99999998245E-14  0.12500000000E+03  0.12500000000E+03 0.  0.
        -11    1    3    3    0    0 -0.30246293109E+02  0.35337163887E+02 -0.28465767833E+02  0.54533048118E+02  0.51100000000E-03 0.  1.
         23    2    1    0    0    0 -0.84109856452E+01 -0.21692397239E+01 -0.25531263045E+02  0.98031580076E+02  0.94249111503E+02 0.  0.
         11    1    3    3    0    0  0.21835307464E+02 -0.37506403611E+02  0.29345047880E+01  0.43498531958E+02  0.51100000000E-03 0. -1.
         22    1    1    0    0    0  0.84109856452E+01  0.21692397239E+01  0.25531263045E+02  0.26968419924E+02  0.00000000000E+00 0.  1.
</event>
<event>
 5    1  0.8875601E-005  0.9118800E+02  0.7818608E-02  0.1130116E+00
         25   -1    0    0    0    0  0.00000000000E+00  0.00000000000E+00  0.99999998245E-14  0.12500000000E+03  0.12500000000E+03 0.  0.
        -11    1    3    3    0    0 -0.21826993088E+01 -0.10570231279E+02 -0.57378830151E+02  0.58385136082E+02  0.51100000000E-03 0.  1.
         23    2    1    0    0    0 -0.51926999250E+01 -0.18992664299E+02 -0.19564169826E+02  0.97243159930E+02  0.93197585712E+02 0.  0.
         11    1    3    3    0    0 -0.30100006162E+01 -0.84224330196E+01  0.37814660325E+02  0.38858023849E+02  0.51100000000E-03 0. -1.
         22    1    1    0    0    0  0.51926999250E+01  0.18992664299E+02  0.19564169826E+02  0.27756840070E+02  0.00000000000E+00 0.  1.
</event>
<event>
 5    1  0.8875601E-005  0.9118800E+02  0.7818608E-02  0.1130116E+00
         25   -1    0    0    0    0  0.00000000000E+00  0.00000000000E+00  0.99999998245E-14  0.12500000000E+03  0.12500000000E+03 0.  0.
        -11    1    3    3    0    0 -0.35022863824E+02  0.35624730742E+00  0.39863591787E+02  0.53064431147E+02  0.51100000000E-03 0. -1.
         23    2    1    0    0    0  0.81333389950E+00  0.19248330820E+02  0.14848562778E+02  0.10067635784E+03  0.97693855794E+02 0.  0.
         11    1    3    3    0    0  0.35836197723E+02  0.18892083513E+02 -0.25015029009E+02  0.47611926692E+02  0.51100000000E-03 0.  1.
         22    1    1    0    0    0 -0.81333389950E+00 -0.19248330820E+02 -0.14848562778E+02  0.24323642161E+02  0.00000000000E+00 0. -1.
</event>
<event>
 5    1  0.8875601E-005  0.9118800E+02  0.7818608E-02  0.1130116E+00
         25   -1    0    0    0    0  0.00000000000E+00  0.00000000000E+00  0.99999998245E-14  0.12500000000E+03  0.12500000000E+03 0.  0.
        -11    1    3    3    0    0 -0.33865393108E+02 -0.16595634128E+02  0.15174576471E+02  0.40651539870E+02  0.51100000000E-03 0. -1.
         23    2    1    0    0    0  0.16311923576E+02 -0.26540704423E+02  0.59655650704E+00  0.93841634804E+02  0.88517843969E+02 0.  0.
         11    1    3    3    0    0  0.50177316684E+02 -0.99450702954E+01 -0.14578019964E+02  0.53190094934E+02  0.51100000000E-03 0.  1.
         22    1    1    0    0    0 -0.16311923576E+02  0.26540704423E+02 -0.59655650704E+00  0.31158365196E+02  0.00000000000E+00 0.  1.
</event>
<event>
 5    1  0.8875601E-005  0.9118800E+02  0.7818608E-02  0.1130116E+00
         25   -1    0    0    0    0  0.00000000000E+00  0.00000000000E+00  0.99999998245E-14  0.12500000000E+03  0.12500000000E+03 0.  0.
        -11    1    3    3    0    0 -0.15711445440E+02 -0.33091791453E+02 -0.63437088076E+01  0.37177396642E+02  0.51100000000E-03 0.  1.
         23    2    1    0    0    0  0.21539881377E+02  0.14530119410E+02 -0.84590032987E+01  0.97675183502E+02  0.93775241272E+02 0.  0.
         11    1    3    3    0    0  0.37251326818E+02  0.47621910863E+02 -0.21152944911E+01  0.60497786860E+02  0.51100000000E-03 0. -1.
         22    1    1    0    0    0 -0.21539881377E+02 -0.14530119410E+02  0.84590032987E+01  0.27324816498E+02  0.00000000000E+00 0. -1.
</event>
<event>
 5    1  0.8875601E-005  0.9118800E+02  0.7818608E-02  0.1130116E+00
         25   -1    0    0    0    0  0.00000000000E+00  0.00000000000E+00  0.99999998245E-14  0.12500000000E+03  0.12500000000E+03 0.  0.
        -11    1    3    3    0    0  0.57493565308E+01  0.40477502871E+02  0.28069312374E+02  0.49592031987E+02  0.51100000000E-03 0. -1.
         23    2    1    0    0    0 -0.28900303132E+01 -0.72413068851E+01  0.25698804334E+02  0.98144509968E+02  0.94398768488E+02 0.  0.
         11    1    3    3    0    0 -0.86393868440E+01 -0.47718809756E+02 -0.23705080399E+01  0.48552477982E+02  0.51100000000E-03 0.  1.
         22    1    1    0    0    0  0.28900303132E+01  0.72413068851E+01 -0.25698804334E+02  0.26855490032E+02  0.00000000000E+00 0.  1.
</event>
<event>
 5    1  0.8875601E-005  0.9118800E+02  0.7818608E-02  0.1130116E+00
         25   -1    0    0    0    0  0.00000000000E+00  0.00000000000E+00  0.99999998245E-14  0.12500000000E+03  0.12500000000E+03 0.  0.
        -11    1    3    3    0    0 -0.78184265676E+01 -0.46714975994E+02 -0.12247836997E+00  0.47364879155E+02  0.51100000000E-03 0. -1.
         23    2    1    0    0    0  0.23955383713E+02 -0.38928607824E+01 -0.12322637860E+01  0.10069911014E+03  0.97722963193E+02 0.  0.
         11    1    3    3    0    0  0.31773810280E+02  0.42822115212E+02 -0.11097854160E+01  0.53334230986E+02  0.51100000000E-03 0.  1.
         22    1    1    0    0    0 -0.23955383713E+02  0.38928607824E+01  0.12322637860E+01  0.24300889859E+02  0.00000000000E+00 0. -1.
</event>
<event>
 5    1  0.8875601E-005  0.9118800E+02  0.7818608E-02  0.1130116E+00
         25   -1    0    0    0    0  0.00000000000E+00  0.00000000000E+00  0.99999998245E-14  0.12500000000E+03  0.12500000000E+03 0.  0.
        -11    1    3    3    0    0  0.25121386305E+02  0.26796999616E+02  0.17203650158E+02  0.40560187590E+02  0.51100000000E-03 0.  1.
         23    2    1    0    0    0 -0.23922243088E+02  0.96301582750E-01  0.15631720312E+02  0.96423197025E+02  0.92091255048E+02 0.  0.
         11    1    3    3    0    0 -0.49043629393E+02 -0.26700698033E+02 -0.15719298464E+01  0.55863009435E+02  0.51100000000E-03 0. -1.
         22    1    1    0    0    0  0.23922243088E+02 -0.96301582750E-01 -0.15631720312E+02  0.28576802975E+02  0.00000000000E+00 0. -1.
</event>
<event>
 5    1  0.8875601E-005  0.9118800E+02  0.7818608E-02  0.1130116E+00
         25   -1    0    0    0    0  0.00000000000E+00  0.00000000000E+00  0.99999998245E-14  0.12500000000E+03  0.12500000000E+03 0.  0.
        -11    1    3    3    0    0  0.27358357291E+02  0.14721869271E+02 -0.49690099942E+02  0.58603064604E+02  0.51100000000E-03 0.  1.
         23    2    1    0    0    0  0.63010478626E+01  0.20463326489E+02 -0.18310096861E+02  0.96827130387E+02  0.92637911229E+02 0.  0.
         11    1    3    3    0    0 -0.21057309429E+02  0.57414572184E+01  0.31380003081E+02  0.38224065783E+02  0.51100000000E-03 0. -1.
         22    1    1    0    0    0 -0.63010478626E+01 -0.20463326489E+02  0.18310096861E+02  0.28172869613E+02  0.00000000000E+00 0.  1.
</event>
<event>
 5    1  0.8875601E-005  0.9118800E+02  0.7818608E-02  0.1130116E+00
         25   -1    0    0    0    0  0.00000000000E+00  0.00000000000E+00  0.99999998245E-14  0.12500000000E+03  0.12500000000E+03 0.  0.
        -11    1    3    3    0    0 -0.17683320128E+02  0.29711888766E+01  0.56661400603E+02  0.59430985964E+02  0.51100000000E-03 0.  1.
         23    2    1    0    0    0  0.21440807000E+01 -0.81746524834E+01  0.26353488626E+02  0.97324588747E+02  0.93306737092E+02 0.  0.
         11    1    3    3    0    0  0.19827400828E+02 -0.11145841360E+02 -0.30307911977E+02  0.37893602783E+02  0.51100000000E-03 0. -1.
         22    1    1    0    0    0 -0.21440807000E+01  0.81746524834E+01 -0.26353488626E+02  0.27675411253E+02  0.00000000000E+00 0.  1.
</event>
<event>
 5    1  0.8875601E-005  0.9118800E+02  0.7818608E-02  0.1130116E+00
         25   -1    0    0    0    0  0.00000000000E+00  0.00000000000E+00  0.99999998245E-14  0.12500000000E+03  0.12500000000E+03 0.  0.
        -11    1    3    3    0    0  0.48507617606E+02 -0.25722670087E+02 -0.13417531320E+01  0.54922172425E+02  0.51100000000E-03 0. -1.
         23    2    1    0    0    0  0.17071598408E+02 -0.10298767835E+02 -0.21784847105E+02  0.95468937464E+02  0.90786752150E+02 0.  0.
         11    1    3    3    0    0 -0.31436019198E+02  0.15423902252E+02 -0.20443093973E+02  0.40546765039E+02  0.51100000000E-03 0.  1.
         22    1    1    0    0    0 -0.17071598408E+02  0.10298767835E+02  0.21784847105E+02  0.29531062536E+02  0.00000000000E+00 0. -1.
</event>
<event>
 5    1  0.8875601E-005  0.9118800E+02  0.7818608E-02  0.1130116E+00
         25   -1    0    0    0    0  0.00000000000E+00  0.00000000000E+00  0.99999998245E-14  0.12500000000E+03  0.12500000000E+03 0.  0.
        -11    1    3    3    0    0 -0.16898577060E+01 -0.12032076689E+02 -0.54999089255E+02  0.56325183601E+02  0.51100000000E-03 0.  1.
         23    2    1    0    0    0  0.18621256515E+02 -0.39668809423E+01 -0.21987593032E+02  0.95914925031E+02  0.91398748666E+02 0.  0.
         11    1    3    3    0    0  0.20311114221E+02  0.80651957465E+01  0.33011496223E+02  0.39589741430E+02  0.51100000000E-03 0. -1.
         22    1    1    0    0    0 -0.18621256515E+02  0.39668809423E+01  0.21987593032E+02  0.29085074969E+02  0.00000000000E+00 0.  1.
</event>
<event>
 5    1  0.8875601E-005  0.9118800E+02  0.7818608E-02  0.1130116E+00
         25   -1    0    0    0    0  0.00000000000E+00  0.00000000000E+00  0.99999998245E-14  0.12500000000E+03  0.12500000000E+03 0.  0.
        -11    1    3    3    0    0  0.42932932016E+01  0.38593218114E+02 -0.96328709072E+01  0.40008262310E+02  0.51100000000E-03 0.  1.
         23    2    1    0    0    0  0.20533416467E+01 -0.43989224167E+01  0.27630700366E+02  0.96946081681E+02  0.92798278110E+02 0.  0.
         11    1    3    3    0    0 -0.22399515550E+01 -0.42992140531E+02  0.37263571273E+02  0.56937819371E+02  0.51100000000E-03 0. -1.
         22    1    1    0    0    0 -0.20533416467E+01  0.43989224167E+01 -0.27630700366E+02  0.28053918319E+02  0.00000000000E+00 0. -1.
</event>
<event>
 5    1  0.8875601E-005  0.9118800E+02  0.7818608E-02  0.1130116E+00
         25   -1    0    0    0    0  0.00000000000E+00  0.00000000000E+00  0.99999998245E-14  0.12500000000E+03  0.12500000000E+03 0.  0.
        -11    1    3    3    0    0  0.44214544945E+01  0.41341935931E+02 -0.10938410319E+02  0.42992484773E+02  0.51100000000E-03 0.  1.
         23    2    1    0    0    0 -0.29128945599E+02  0.37626421688E+01  0.35596943336E+01  0.95414118713E+02  0.90711243395E+02 0.  0.
         11    1    3    3    0    0 -0.33550400093E+02 -0.37579293763E+02  0.14498104653E+02  0.52421633940E+02  0.51100000000E-03 0. -1.
         22    1    1    0    0    0  0.29128945599E+02 -0.37626421688E+01 -0.35596943336E+01  0.29585881287E+02  0.00000000000E+00 0.  1.
</event>
<event>
 5    1  0.8875601E-005  0.9118800E+02  0.7818608E-02  0.1130116E+00
         25   -1    0    0    0    0  0.00000000000E+00  0.00000000000E+00  0.99999998245E-14  0.12500000000E+03  0.12500000000E+03 0.  0.
        -11    1    3    3    0    0  0.16347558940E+02 -0.67304795742E+01  0.35410163735E+02  0.39578046119E+02  0.51100000000E-03 0.  1.
         23    2    1    0    0    0 -0.29185445020E+02 -0.26004555323E+01  0.31575660558E+01  0.95529289228E+02  0.90869809657E+02 0.  0.
         11    1    3    3    0    0 -0.45533003960E+02  0.41300240419E+01 -0.32252597679E+02  0.55951243110E+02  0.51100000000E-03 0. -1.
         22    1    1    0    0    0  0.29185445020E+02  0.26004555323E+01 -0.31575660558E+01  0.29470710772E+02  0.00000000000E+00 0. -1.
</event>
<event>
 5    1  0.8875601E-005  0.9118800E+02  0.7818608E-02  0.1130116E+00
         25   -1    0    0    0    0  0.00000000000E+00  0.00000000000E+00  0.99999998245E-14  0.12500000000E+03  0.12500000000E+03 0.  0.
        -11    1    3    3    0    0  0.31335589723E+02 -0.42510905315E+02 -0.57218215655E+00  0.52814994525E+02  0.51100000000E-03 0.  1.
         23    2    1    0    0    0  0.44721469648E+01 -0.19617185761E+02 -0.22850743106E+02  0.94553480722E+02  0.89517429479E+02 0.  0.
         11    1    3    3    0    0 -0.26863442758E+02  0.22893719554E+02 -0.22278560949E+02  0.41738486197E+02  0.51100000000E-03 0. -1.
         22    1    1    0    0    0 -0.44721469648E+01  0.19617185761E+02  0.22850743106E+02  0.30446519278E+02  0.00000000000E+00 0. -1.
</event>
<event>
 5    1  0.8875601E-005  0.9118800E+02  0.7818608E-02  0.1130116E+00
         25   -1    0    0    0    0  0.00000000000E+00  0.00000000000E+00  0.99999998245E-14  0.12500000000E+03  0.12500000000E+03 0.  0.
        -11    1    3    3    0    0 -0.36004481311E+01  0.47597513575E+02  0.17094019440E+02  0.50701992329E+02  0.51100000000E-03 0. -1.
         23    2    1    0    0    0  0.18397894655E+02  0.19431702041E+02 -0.10906501433E+02  0.96103194892E+02  0.91655871187E+02 0.  0.
         11    1    3    3    0    0  0.21998342786E+02 -0.28165811535E+02 -0.28000520872E+02  0.45401202563E+02  0.51100000000E-03 0.  1.
         22    1    1    0    0    0 -0.18397894655E+02 -0.19431702041E+02  0.10906501433E+02  0.28896805108E+02  0.00000000000E+00 0. -1.
</event>
<event>
 5    1  0.8875601E-005  0.9118800E+02  0.7818608E-02  0.1130116E+00
         25   -1    0    0    0    0  0.00000000000E+00  0.00000000000E+00  0.99999998245E-14  0.12500000000E+03  0.12500000000E+03 0.  0.
        -11    1    3    3    0    0 -0.32533114413E+01 -0.45325685735E+02 -0.41441754461E+02  0.61501388893E+02  0.51100000000E-03 0.  1.
         23    2    1    0    0    0 -0.48916089798E+01 -0.28368928100E+02 -0.16161001828E+02  0.91986337676E+02  0.85857931603E+02 0.  0.
         11    1    3    3    0    0 -0.16382975385E+01  0.16956757636E+02  0.25280752633E+02  0.30484948783E+02  0.51100000000E-03 0. -1.
         22    1    1    0    0    0  0.48916089798E+01  0.28368928100E+02  0.16161001828E+02  0.33013662324E+02  0.00000000000E+00 0.  1.
</event>
<event>
 5    1  0.8875601E-005  0.9118800E+02  0.7818608E-02  0.1130116E+00
         25   -1    0    0    0    0  0.00000000000E+00  0.00000000000E+00  0.99999998245E-14  0.12500000000E+03  0.12500000000E+03 0.  0.
        -11    1    3    3    0    0  0.13471440464E+01 -0.61882005486E+02  0.75484095104E+01  0.62355239447E+02  0.51100000000E-03 0.  1.
         23    2    1    0    0    0  0.85920713275E-01 -0.29319978391E+02  0.65510991564E+01  0.94956940645E+02  0.90079049514E+02 0.  0.
         11    1    3    3    0    0 -0.12612233332E+01  0.32562027095E+02 -0.99731035398E+00  0.32601701198E+02  0.51100000000E-03 0. -1.
         22    1    1    0    0    0 -0.85920713275E-01  0.29319978391E+02 -0.65510991564E+01  0.30043059355E+02  0.00000000000E+00 0.  1.
</event>
<event>
 5    1  0.8875601E-005  0.9118800E+02  0.7818608E-02  0.1130116E+00
         25   -1    0    0    0    0  0.00000000000E+00  0.00000000000E+00  0.99999998245E-14  0.12500000000E+03  0.12500000000E+03 0.  0.
        -11    1    3    3    0    0  0.17211981592E+02  0.49683301455E+02  0.12659223647E+02  0.54082702386E+02  0.51100000000E-03 0. -1.
         23    2    1    0    0    0  0.26917808229E+02  0.11149018298E+02  0.11006854849E+02  0.93854858123E+02  0.88536515240E+02 0.  0.
         11    1    3    3    0    0  0.97058266370E+01 -0.38534283157E+02 -0.16523687980E+01  0.39772155738E+02  0.51100000000E-03 0.  1.
         22    1    1    0    0    0 -0.26917808229E+02 -0.11149018298E+02 -0.11006854849E+02  0.31145141877E+02  0.00000000000E+00 0. -1.
</event>
<event>
 5    1  0.8875601E-005  0.9118800E+02  0.7818608E-02  0.1130116E+00
         25   -1    0    0    0    0  0.00000000000E+00  0.00000000000E+00  0.99999998245E-14  0.12500000000E+03  0.12500000000E+03 0.  0.
        -11    1    3    3    0    0  0.19620913925E+02  0.26095823066E+02 -0.28478457815E+02  0.43324298084E+02  0.51100000000E-03 0. -1.
         23    2    1    0    0    0 -0.25708537136E+02  0.14269514113E+02 -0.74903500428E+01  0.94657731488E+02  0.89662884585E+02 0.  0.
         11    1    3    3    0    0 -0.45329451061E+02 -0.11826308953E+02  0.20988107772E+02  0.51333433404E+02  0.51100000000E-03 0.  1.
         22    1    1    0    0    0  0.25708537136E+02 -0.14269514113E+02  0.74903500428E+01  0.30342268512E+02  0.00000000000E+00 0.  1.
</event>
<event>
 5    1  0.8875601E-005  0.9118800E+02  0.7818608E-02  0.1130116E+00
         25   -1    0    0    0    0  0.00000000000E+00  0.00000000000E+00  0.99999998245E-14  0.12500000000E+03  0.12500000000E+03 0.  0.
        -11    1    3    3    0    0  0.19884833090E+02 -0.33763017528E+02 -0.40389759924E+00  0.39185597777E+02  0.51100000000E-03 0. -1.
         23    2    1    0    0    0 -0.59787953722E+01  0.68307502263E+01 -0.28616996942E+02  0.94977713999E+02  0.90107871464E+02 0.  0.
         11    1    3    3    0    0 -0.25863628463E+02  0.40593767754E+02 -0.28213099343E+02  0.55792116222E+02  0.51100000000E-03 0.  1.
         22    1    1    0    0    0  0.59787953722E+01 -0.68307502263E+01  0.28616996942E+02  0.30022286001E+02  0.00000000000E+00 0. -1.
</event>
<event>
 5    1  0.8875601E-005  0.9118800E+02  0.7818608E-02  0.1130116E+00
         25   -1    0    0    0    0  0.00000000000E+00  0.00000000000E+00  0.99999998245E-14  0.12500000000E+03  0.12500000000E+03 0.  0.
        -11    1    3    3    0    0  0.30223502943E+01  0.17208123472E+02 -0.36672853381E+02  0.40622066541E+02  0.51100000000E-03 0. -1.
         23    2    1    0    0    0  0.24205447490E+02  0.68839462953E+01  0.13781409890E+02  0.96308195188E+02  0.91935024866E+02 0.  0.
         11    1    3    3    0    0  0.21183097196E+02 -0.10324177176E+02  0.50454263271E+02  0.55686128647E+02  0.51100000000E-03 0.  1.
         22    1    1    0    0    0 -0.24205447490E+02 -0.68839462953E+01 -0.13781409890E+02  0.28691804812E+02  0.00000000000E+00 0.  1.
</event>
<event>
 5    1  0.8875601E-005  0.9118800E+02  0.7818608E-02  0.1130116E+00
         25   -1    0    0    0    0  0.00000000000E+00  0.00000000000E+00  0.99999998245E-14  0.12500000000E+03  0.12500000000E+03 0.  0.
        -11    1    3    3    0    0  0.17402784894E+02  0.11679305367E+02 -0.34199580094E+02  0.40110776292E+02  0.51100000000E-03 0.  1.
         23    2    1    0    0    0  0.27928068772E+01  0.27395978473E+02  0.14896260895E+02  0.93691247304E+02  0.88305219698E+02 0.  0.
         11    1    3    3    0    0 -0.14609978016E+02  0.15716673106E+02  0.49095840989E+02  0.53580471012E+02  0.51100000000E-03 0. -1.
         22    1    1    0    0    0 -0.27928068772E+01 -0.27395978473E+02 -0.14896260895E+02  0.31308752696E+02  0.00000000000E+00 0. -1.
</event>
<event>
 5    1  0.8875601E-005  0.9118800E+02  0.7818608E-02  0.1130116E+00
         25   -1    0    0    0    0  0.00000000000E+00  0.00000000000E+00  0.99999998245E-14  0.12500000000E+03  0.12500000000E+03 0.  0.
        -11    1    3    3    0    0  0.42367762458E+02  0.12068353023E+02  0.29166619983E+02  0.52833362205E+02  0.51100000000E-03 0. -1.
         23    2    1    0    0    0 -0.61133268276E+00  0.48353619773E+01  0.28152601436E+02  0.96428625852E+02  0.92098623567E+02 0.  0.
         11    1    3    3    0    0 -0.42979095141E+02 -0.72329910459E+01 -0.10140185466E+01  0.43595263647E+02  0.51100000000E-03 0.  1.
         22    1    1    0    0    0  0.61133268276E+00 -0.48353619773E+01 -0.28152601436E+02  0.28571374148E+02  0.00000000000E+00 0. -1.
</event>
<event>
 5    1  0.8875601E-005  0.9118800E+02  0.7818608E-02  0.1130116E+00
         25   -1    0    0    0    0  0.00000000000E+00  0.00000000000E+00  0.99999998245E-14  0.12500000000E+03  0.12500000000E+03 0.  0.
        -11    1    3    3    0    0 -0.45855588334E+02 -0.17102490195E+02 -0.45312657871E+01  0.49150407142E+02  0.51100000000E-03 0.  1.
         23    2    1    0    0    0 -0.14732509785E+02  0.89710503159E+01  0.21542310477E+02  0.97402939848E+02  0.93411642540E+02 0.  0.
         11    1    3    3    0    0  0.31123078549E+02  0.26073540511E+02  0.26073576264E+02  0.48252532707E+02  0.51100000000E-03 0. -1.
         22    1    1    0    0    0  0.14732509785E+02 -0.89710503159E+01 -0.21542310477E+02  0.27597060152E+02  0.00000000000E+00 0. -1.
</event>
<event>
 5    1  0.8875601E-005  0.9118800E+02  0.7818608E-02  0.1130116E+00
         25   -1    0    0    0    0  0.00000000000E+00  0.00000000000E+00  0.99999998245E-14  0.12500000000E+03  0.12500000000E+03 0.  0.
        -11    1    3    3    0    0 -0.39544817721E+02 -0.20284612263E+02 -0.40183167534E+02  0.59916150215E+02  0.51100000000E-03 0. -1.
         23    2    1    0    0    0 -0.82072167498E+01 -0.15288609689E+02 -0.23559239599E+02  0.95740168089E+02  0.91159431888E+02 0.  0.
         11    1    3    3    0    0  0.31337600971E+02  0.49960025735E+01  0.16623927935E+02  0.35824017874E+02  0.51100000000E-03 0.  1.
         22    1    1    0    0    0  0.82072167498E+01  0.15288609689E+02  0.23559239599E+02  0.29259831911E+02  0.00000000000E+00 0. -1.
</event>
<event>
 5    1  0.8875601E-005  0.9118800E+02  0.7818608E-02  0.1130116E+00
         25   -1    0    0    0    0  0.00000000000E+00  0.00000000000E+00  0.99999998245E-14  0.12500000000E+03  0.12500000000E+03 0.  0.
        -11    1    3    3    0    0  0.82970737481E+01  0.67121896568E+00  0.38436061006E+02  0.39327124909E+02  0.51100000000E-03 0.  1.
         23    2    1    0    0    0  0.92467453469E+00  0.26678209800E+02 -0.11361510608E+02  0.95988522539E+02  0.91499347729E+02 0.  0.
         11    1    3    3    0    0 -0.73723992134E+01  0.26006990835E+02 -0.49797571615E+02  0.56661397630E+02  0.51100000000E-03 0. -1.
         22    1    1    0    0    0 -0.92467453469E+00 -0.26678209800E+02  0.11361510608E+02  0.29011477461E+02  0.00000000000E+00 0. -1.
</event>
<event>
 5    1  0.8875601E-005  0.9118800E+02  0.7818608E-02  0.1130116E+00
         25   -1    0    0    0    0  0.00000000000E+00  0.00000000000E+00  0.99999998245E-14  0.12500000000E+03  0.12500000000E+03 0.  0.
        -11    1    3    3    0    0 -0.11980533613E+01  0.72786994000E+01 -0.39288065595E+02  0.39974578113E+02  0.51100000000E-03 0.  1.
         23    2    1    0    0    0  0.26539508624E+02  0.39538683793E+00  0.97423325826E+01  0.96726073974E+02  0.92501451305E+02 0.  0.
         11    1    3    3    0    0  0.27737561986E+02 -0.68833125621E+01  0.49030398178E+02  0.56751495861E+02  0.51100000000E-03 0. -1.
         22    1    1    0    0    0 -0.26539508624E+02 -0.39538683793E+00 -0.97423325826E+01  0.28273926026E+02  0.00000000000E+00 0. -1.
</event>
<event>
 5    1  0.8875601E-005  0.9118800E+02  0.7818608E-02  0.1130116E+00
         25   -1    0    0    0    0  0.00000000000E+00  0.00000000000E+00  0.99999998245E-14  0.12500000000E+03  0.12500000000E+03 0.  0.
        -11    1    3    3    0    0  0.19086938717E+02 -0.58772683575E+02 -0.55137690094E+01  0.62039835696E+02  0.51100000000E-03 0.  1.
         23    2    1    0    0    0  0.10404942966E+02 -0.25995354550E+02 -0.75218083717E+01  0.96006916386E+02  0.91524472664E+02 0.  0.
         11    1    3    3    0    0 -0.86819957514E+01  0.32777329025E+02 -0.20080393623E+01  0.33967080690E+02  0.51100000000E-03 0. -1.
         22    1    1    0    0    0 -0.10404942966E+02  0.25995354550E+02  0.75218083717E+01  0.28993083614E+02  0.00000000000E+00 0.  1.
</event>
<event>
 5    1  0.8875601E-005  0.9118800E+02  0.7818608E-02  0.1130116E+00
         25   -1    0    0    0    0  0.00000000000E+00  0.00000000000E+00  0.99999998245E-14  0.12500000000E+03  0.12500000000E+03 0.  0.
        -11    1    3    3    0    0  0.33453724372E+01 -0.55299608127E+02 -0.29963986136E+01  0.55481677883E+02  0.51100000000E-03 0.  1.
         23    2    1    0    0    0  0.16083036967E+02 -0.19309168428E+02  0.12799411855E+02  0.96798350983E+02  0.92599069896E+02 0.  0.
         11    1    3    3    0    0  0.12737664530E+02  0.35990439699E+02  0.15795810469E+02  0.41316673100E+02  0.51100000000E-03 0. -1.
         22    1    1    0    0    0 -0.16083036967E+02  0.19309168428E+02 -0.12799411855E+02  0.28201649017E+02  0.00000000000E+00 0.  1.
</event>
<event>
 5    1  0.8875601E-005  0.9118800E+02  0.7818608E-02  0.1130116E+00
         25   -1    0    0    0    0  0.00000000000E+00  0.00000000000E+00  0.99999998245E-14  0.12500000000E+03  0.12500000000E+03 0.  0.
        -11    1    3    3    0    0 -0.24452104249E+02 -0.32562479579E+02  0.42224803869E+02  0.58661354746E+02  0.51100000000E-03 0. -1.
         23    2    1    0    0    0  0.37235114131E+01 -0.17832339883E+02  0.22392019189E+02  0.96133767022E+02  0.91697555887E+02 0.  0.
         11    1    3    3    0    0  0.28175615663E+02  0.14730139696E+02 -0.19832784679E+02  0.37472412277E+02  0.51100000000E-03 0.  1.
         22    1    1    0    0    0 -0.37235114131E+01  0.17832339883E+02 -0.22392019189E+02  0.28866232978E+02  0.00000000000E+00 0. -1.
</event>
<event>
 5    1  0.8875601E-005  0.9118800E+02  0.7818608E-02  0.1130116E+00
         25   -1    0    0    0    0  0.00000000000E+00  0.00000000000E+00  0.99999998245E-14  0.12500000000E+03  0.12500000000E+03 0.  0.
        -11    1    3    3    0    0 -0.14163235298E+01 -0.26775622641E+02 -0.27752323593E+02  0.38589265414E+02  0.51100000000E-03 0.  1.
         23    2    1    0    0    0 -0.75624461832E+01 -0.19231374839E+02  0.25189873567E+02  0.92418316483E+02  0.86484560014E+02 0.  0.
         11    1    3    3    0    0 -0.61461226534E+01  0.75442478022E+01  0.52942197160E+02  0.53829051069E+02  0.51100000000E-03 0. -1.
         22    1    1    0    0    0  0.75624461832E+01  0.19231374839E+02 -0.25189873567E+02  0.32581683517E+02  0.00000000000E+00 0. -1.
</event>
<event>
 5    1  0.8875601E-005  0.9118800E+02  0.7818608E-02  0.1130116E+00
         25   -1    0    0    0    0  0.00000000000E+00  0.00000000000E+00  0.99999998245E-14  0.12500000000E+03  0.12500000000E+03 0.  0.
        -11    1    3    3    0    0 -0.16401596282E+02 -0.93886156550E+01 -0.31136676385E+02  0.36423221729E+02  0.51100000000E-03 0.  1.
         23    2    1    0    0    0  0.27405694223E+02  0.12410957441E+02  0.88625060870E+00  0.94902003711E+02  0.90002782889E+02 0.  0.
         11    1    3    3    0    0  0.43807290506E+02  0.21799573096E+02  0.32022926994E+02  0.58478781982E+02  0.51100000000E-03 0. -1.
         22    1    1    0    0    0 -0.27405694223E+02 -0.12410957441E+02 -0.88625060870E+00  0.30097996289E+02  0.00000000000E+00 0. -1.
</event>
<event>
 5    1  0.8875601E-005  0.9118800E+02  0.7818608E-02  0.1130116E+00
         25   -1    0    0    0    0  0.00000000000E+00  0.00000000000E+00  0.99999998245E-14  0.12500000000E+03  0.12500000000E+03 0.  0.
        -11    1    3    3    0    0  0.32286267411E+02 -0.16092870018E+02 -0.50017437901E+01  0.36419788165E+02  0.51100000000E-03 0. -1.
         23    2    1    0    0    0 -0.11778652735E+02  0.14941492288E+02  0.21340740059E+02  0.96409581355E+02  0.92072771972E+02 0.  0.
         11    1    3    3    0    0 -0.44064920147E+02  0.31034362307E+02  0.26342483849E+02  0.59989793189E+02  0.51100000000E-03 0.  1.
         22    1    1    0    0    0  0.11778652735E+02 -0.14941492288E+02 -0.21340740059E+02  0.28590418645E+02  0.00000000000E+00 0.  1.
</event>
<event>
 5    1  0.8875601E-005  0.9118800E+02  0.7818608E-02  0.1130116E+00
         25   -1    0    0    0    0  0.00000000000E+00  0.00000000000E+00  0.99999998245E-14  0.12500000000E+03  0.12500000000E+03 0.  0.
        -11    1    3    3    0    0  0.47431925588E+01 -0.17066841696E+02 -0.24042336128E+02  0.29863169421E+02  0.51100000000E-03 0.  1.
         23    2    1    0    0    0 -0.17235249487E+02  0.31245066703E+02  0.25443005736E+01  0.89225966350E+02  0.81740391408E+02 0.  0.
         11    1    3    3    0    0 -0.21978442046E+02  0.48311908399E+02  0.26586636702E+02  0.59362796929E+02  0.51100000000E-03 0. -1.
         22    1    1    0    0    0  0.17235249487E+02 -0.31245066703E+02 -0.25443005736E+01  0.35774033650E+02  0.00000000000E+00 0. -1.
</event>
<event>
 5    1  0.8875601E-005  0.9118800E+02  0.7818608E-02  0.1130116E+00
         25   -1    0    0    0    0  0.00000000000E+00  0.00000000000E+00  0.99999998245E-14  0.12500000000E+03  0.12500000000E+03 0.  0.
        -11    1    3    3    0    0  0.20197751977E+02 -0.44701907044E+02  0.63647053868E+01  0.49464322024E+02  0.51100000000E-03 0.  1.
         23    2    1    0    0    0  0.23752079736E+02  0.10083414847E+01  0.16038862549E+02  0.96322078942E+02  0.91953900056E+02 0.  0.
         11    1    3    3    0    0  0.35543277590E+01  0.45710248529E+02  0.96741571620E+01  0.46857756919E+02  0.51100000000E-03 0. -1.
         22    1    1    0    0    0 -0.23752079736E+02 -0.10083414847E+01 -0.16038862549E+02  0.28677921058E+02  0.00000000000E+00 0. -1.
</event>
<event>
 5    1  0.8875601E-005  0.9118800E+02  0.7818608E-02  0.1130116E+00
         25   -1    0    0    0    0  0.00000000000E+00  0.00000000000E+00  0.99999998245E-14  0.12500000000E+03  0.12500000000E+03 0.  0.
        -11    1    3    3    0    0 -0.27233366540E+02 -0.23467086942E+02  0.21356680264E+02  0.41814688984E+02  0.51100000000E-03 0.  1.
         23    2    1    0    0    0  0.33337865190E+01  0.20950946369E+02  0.20140220882E+02  0.95747909758E+02  0.91170046833E+02 0.  0.
         11    1    3    3    0    0  0.30567153059E+02  0.44418033312E+02 -0.12164593815E+01  0.53933220775E+02  0.51100000000E-03 0. -1.
         22    1    1    0    0    0 -0.33337865190E+01 -0.20950946369E+02 -0.20140220882E+02  0.29252090242E+02  0.00000000000E+00 0. -1.
</event>
<event>
 5    1  0.8875601E-005  0.9118800E+02  0.7818608E-02  0.1130116E+00
         25   -1    0    0    0    0  0.00000000000E+00  0.00000000000E+00  0.99999998245E-14  0.12500000000E+03  0.12500000000E+03 0.  0.
        -11    1    3    3    0    0 -0.12625634848E+01  0.50629631713E+02  0.17109169264E+02  0.53457247845E+02  0.51100000000E-03 0. -1.
         23    2    1    0    0    0 -0.16958823179E+02  0.21020935589E+02 -0.96259802538E+01  0.96327000288E+02  0.91960589777E+02 0.  0.
         11    1    3    3    0    0 -0.15696259694E+02 -0.29608696124E+02 -0.26735149518E+02  0.42869752444E+02  0.51100000000E-03 0.  1.
         22    1    1    0    0    0  0.16958823179E+02 -0.21020935589E+02  0.96259802538E+01  0.28672999712E+02  0.00000000000E+00 0. -1.
</event>
<event>
 5    1  0.8875601E-005  0.9118800E+02  0.7818608E-02  0.1130116E+00
         25   -1    0    0    0    0  0.00000000000E+00  0.00000000000E+00  0.99999998245E-14  0.12500000000E+03  0.12500000000E+03 0.  0.
        -11    1    3    3    0    0  0.25035695246E+02 -0.21021788805E+02  0.25865092358E+02  0.41685784675E+02  0.51100000000E-03 0.  1.
         23    2    1    0    0    0 -0.25486190944E+02 -0.97079165366E+01  0.11391379750E+02  0.95444068194E+02  0.90752504364E+02 0.  0.
         11    1    3    3    0    0 -0.50521886190E+02  0.11313872268E+02 -0.14473712608E+02  0.53758283518E+02  0.51100000000E-03 0. -1.
         22    1    1    0    0    0  0.25486190944E+02  0.97079165366E+01 -0.11391379750E+02  0.29555931806E+02  0.00000000000E+00 0. -1.
</event>
<event>
 5    1  0.8875601E-005  0.9118800E+02  0.7818608E-02  0.1130116E+00
         25   -1    0    0    0    0  0.00000000000E+00  0.00000000000E+00  0.99999998245E-14  0.12500000000E+03  0.12500000000E+03 0.  0.
        -11    1    3    3    0    0  0.17799441235E+02 -0.84433363867E+00  0.39849023529E+02  0.43651777558E+02  0.51100000000E-03 0. -1.
         23    2    1    0    0    0  0.22903532703E+02  0.77434278629E+01 -0.13077354168E+02  0.97512736088E+02  0.93558452435E+02 0.  0.
         11    1    3    3    0    0  0.51040914681E+01  0.85877615015E+01 -0.52926377697E+02  0.53860958530E+02  0.51100000000E-03 0.  1.
         22    1    1    0    0    0 -0.22903532703E+02 -0.77434278629E+01  0.13077354168E+02  0.27487263912E+02  0.00000000000E+00 0.  1.
</event>
<event>
 5    1  0.8875601E-005  0.9118800E+02  0.7818608E-02  0.1130116E+00
         25   -1    0    0    0    0  0.00000000000E+00  0.00000000000E+00  0.99999998245E-14  0.12500000000E+03  0.12500000000E+03 0.  0.
        -11    1    3    3    0    0  0.27590918560E+02  0.17974387132E+02 -0.23937085511E+02  0.40710213003E+02  0.51100000000E-03 0. -1.
         23    2    1    0    0    0  0.11732572100E+02  0.23354907186E+01  0.26543200410E+02  0.95885583417E+02  0.91358611276E+02 0.  0.
         11    1    3    3    0    0 -0.15858346459E+02 -0.15638896414E+02  0.50480285920E+02  0.55175370414E+02  0.51100000000E-03 0.  1.
         22    1    1    0    0    0 -0.11732572100E+02 -0.23354907186E+01 -0.26543200410E+02  0.29114416583E+02  0.00000000000E+00 0.  1.
</event>
<event>
 5    1  0.8875601E-005  0.9118800E+02  0.7818608E-02  0.1130116E+00
         25   -1    0    0    0    0  0.00000000000E+00  0.00000000000E+00  0.99999998245E-14  0.12500000000E+03  0.12500000000E+03 0.  0.
        -11    1    3    3    0    0  0.15896944630E+02  0.34833135777E+01 -0.40850552482E+02  0.43972877554E+02  0.51100000000E-03 0.  1.
         23    2    1    0    0    0 -0.16653546683E+01  0.31245022786E+02 -0.38138999872E+01  0.93479043666E+02  0.88004323283E+02 0.  0.
         11    1    3    3    0    0 -0.17562299299E+02  0.27761709209E+02  0.37036652495E+02  0.49506166112E+02  0.51100000000E-03 0. -1.
         22    1    1    0    0    0  0.16653546683E+01 -0.31245022786E+02  0.38138999872E+01  0.31520956334E+02  0.00000000000E+00 0. -1.
</event>
<event>
 5    1  0.8875601E-005  0.9118800E+02  0.7818608E-02  0.1130116E+00
         25   -1    0    0    0    0  0.00000000000E+00  0.00000000000E+00  0.99999998245E-14  0.12500000000E+03  0.12500000000E+03 0.  0.
        -11    1    3    3    0    0  0.47610259573E+02  0.15926049365E+02 -0.33578440045E+02  0.60397744172E+02  0.51100000000E-03 0. -1.
         23    2    1    0    0    0  0.26907130938E+02  0.65416185464E+01 -0.50868861037E+01  0.96845730719E+02  0.92663005993E+02 0.  0.
         11    1    3    3    0    0 -0.20703128635E+02 -0.93844308186E+01  0.28491553941E+02  0.36447986546E+02  0.51100000000E-03 0.  1.
         22    1    1    0    0    0 -0.26907130938E+02 -0.65416185464E+01  0.50868861037E+01  0.28154269281E+02  0.00000000000E+00 0. -1.
</event>
<event>
 5    1  0.8875601E-005  0.9118800E+02  0.7818608E-02  0.1130116E+00
         25   -1    0    0    0    0  0.00000000000E+00  0.00000000000E+00  0.99999998245E-14  0.12500000000E+03  0.12500000000E+03 0.  0.
        -11    1    3    3    0    0  0.93278261312E+01 -0.32686647229E+02 -0.20273982256E+02  0.39578524532E+02  0.51100000000E-03 0.  1.
         23    2    1    0    0    0  0.20068163182E+02  0.20455509734E+02 -0.49443933714E+01  0.95920693307E+02  0.91406637213E+02 0.  0.
         11    1    3    3    0    0  0.10740337051E+02  0.53142156962E+02  0.15329588885E+02  0.56342168774E+02  0.51100000000E-03 0. -1.
         22    1    1    0    0    0 -0.20068163182E+02 -0.20455509734E+02  0.49443933714E+01  0.29079306693E+02  0.00000000000E+00 0. -1.
</event>
<event>
 5    1  0.8875601E-005  0.9118800E+02  0.7818608E-02  0.1130116E+00
         25   -1    0    0    0    0  0.00000000000E+00  0.00000000000E+00  0.99999998245E-14  0.12500000000E+03  0.12500000000E+03 0.  0.
        -11    1    3    3    0    0  0.27777428948E+02 -0.23369466052E+02  0.37806175401E+02  0.52412063509E+02  0.51100000000E-03 0. -1.
         23    2    1    0    0    0  0.14758031559E+02 -0.37023773231E+02  0.14070348238E+02  0.82732589631E+02  0.71120653876E+02 0.  0.
         11    1    3    3    0    0 -0.13019397389E+02 -0.13654307179E+02 -0.23735827164E+02  0.30320526122E+02  0.51100000000E-03 0.  1.
         22    1    1    0    0    0 -0.14758031559E+02  0.37023773231E+02 -0.14070348238E+02  0.42267410369E+02  0.00000000000E+00 0. -1.
</event>
<event>
 5    1  0.8875601E-005  0.9118800E+02  0.7818608E-02  0.1130116E+00
         25   -1    0    0    0    0  0.00000000000E+00  0.00000000000E+00  0.99999998245E-14  0.12500000000E+03  0.12500000000E+03 0.  0.
        -11    1    3    3    0    0  0.14274116927E+02 -0.22186111966E+02 -0.23246828840E+02  0.35162324007E+02  0.51100000000E-03 0. -1.
         23    2    1    0    0    0 -0.16981354160E+02  0.24974086402E+02 -0.80514995300E+01  0.93744632054E+02  0.88380755901E+02 0.  0.
         11    1    3    3    0    0 -0.31255471088E+02  0.47160198368E+02  0.15195329310E+02  0.58582308047E+02  0.51100000000E-03 0.  1.
         22    1    1    0    0    0  0.16981354160E+02 -0.24974086402E+02  0.80514995300E+01  0.31255367946E+02  0.00000000000E+00 0.  1.
</event>
<event>
 5    1  0.8875601E-005  0.9118800E+02  0.7818608E-02  0.1130116E+00
         25   -1    0    0    0    0  0.00000000000E+00  0.00000000000E+00  0.99999998245E-14  0.12500000000E+03  0.12500000000E+03 0.  0.
        -11    1    3    3    0    0  0.81952764804E+01  0.59489614942E+02 -0.15460793645E+02  0.62009781349E+02  0.51100000000E-03 0. -1.
         23    2    1    0    0    0  0.61530444915E+01  0.28518606174E+02 -0.22627487041E+01  0.95737551601E+02  0.91155844026E+02 0.  0.
         11    1    3    3    0    0 -0.20422319888E+01 -0.30971008768E+02  0.13198044941E+02  0.33727770252E+02  0.51100000000E-03 0.  1.
         22    1    1    0    0    0 -0.61530444915E+01 -0.28518606174E+02  0.22627487041E+01  0.29262448399E+02  0.00000000000E+00 0. -1.
</event>
<event>
 5    1  0.8875601E-005  0.9118800E+02  0.7818608E-02  0.1130116E+00
         25   -1    0    0    0    0  0.00000000000E+00  0.00000000000E+00  0.99999998245E-14  0.12500000000E+03  0.12500000000E+03 0.  0.
        -11    1    3    3    0    0 -0.36495932452E+02 -0.20167929116E+02  0.29424733272E+01  0.41801394712E+02  0.51100000000E-03 0. -1.
         23    2    1    0    0    0  0.13485949991E+02 -0.15541462203E+02  0.21427422798E+02  0.95292385785E+02  0.90543340154E+02 0.  0.
         11    1    3    3    0    0  0.49981882443E+02  0.46264669130E+01  0.18484949471E+02  0.53490991072E+02  0.51100000000E-03 0.  1.
         22    1    1    0    0    0 -0.13485949991E+02  0.15541462203E+02 -0.21427422798E+02  0.29707614215E+02  0.00000000000E+00 0.  1.
</event>
<event>
 5    1  0.8875601E-005  0.9118800E+02  0.7818608E-02  0.1130116E+00
         25   -1    0    0    0    0  0.00000000000E+00  0.00000000000E+00  0.99999998245E-14  0.12500000000E+03  0.12500000000E+03 0.  0.
        -11    1    3    3    0    0  0.49410136906E+02  0.35407214156E+02  0.12706779583E+02  0.62100681888E+02  0.51100000000E-03 0.  1.
         23    2    1    0    0    0  0.26227436420E+02  0.14689326983E+02  0.24527244901E+01  0.94839253892E+02  0.89915590822E+02 0.  0.
         11    1    3    3    0    0 -0.23182700485E+02 -0.20717887173E+02 -0.10254055093E+02  0.32738572004E+02  0.51100000000E-03 0. -1.
         22    1    1    0    0    0 -0.26227436420E+02 -0.14689326983E+02 -0.24527244901E+01  0.30160746108E+02  0.00000000000E+00 0.  1.
</event>
<event>
 5    1  0.8875601E-005  0.9118800E+02  0.7818608E-02  0.1130116E+00
         25   -1    0    0    0    0  0.00000000000E+00  0.00000000000E+00  0.99999998245E-14  0.12500000000E+03  0.12500000000E+03 0.  0.
        -11    1    3    3    0    0  0.38195869657E+02 -0.28609226220E+02  0.62728242856E+01  0.48132739467E+02  0.51100000000E-03 0. -1.
         23    2    1    0    0    0  0.15155990104E+02  0.12957307943E+02  0.19131554492E+02  0.97366465255E+02  0.93362820833E+02 0.  0.
         11    1    3    3    0    0 -0.23039879553E+02  0.41566534164E+02  0.12858730207E+02  0.49233725788E+02  0.51100000000E-03 0.  1.
         22    1    1    0    0    0 -0.15155990104E+02 -0.12957307943E+02 -0.19131554492E+02  0.27633534745E+02  0.00000000000E+00 0.  1.
</event>
<event>
 5    1  0.8875601E-005  0.9118800E+02  0.7818608E-02  0.1130116E+00
         25   -1    0    0    0    0  0.00000000000E+00  0.00000000000E+00  0.99999998245E-14  0.12500000000E+03  0.12500000000E+03 0.  0.
        -11    1    3    3    0    0  0.31918763100E+02  0.43183588119E+02 -0.29231207397E+02  0.61139947717E+02  0.51100000000E-03 0. -1.
         23    2    1    0    0    0  0.17767798433E+02  0.13847605348E+02 -0.19694308400E+02  0.95078158172E+02  0.90247102685E+02 0.  0.
         11    1    3    3    0    0 -0.14150964667E+02 -0.29335982771E+02  0.95368989970E+01  0.33938210455E+02  0.51100000000E-03 0.  1.
         22    1    1    0    0    0 -0.17767798433E+02 -0.13847605348E+02  0.19694308400E+02  0.29921841828E+02  0.00000000000E+00 0. -1.
</event>
<event>
 5    1  0.8875601E-005  0.9118800E+02  0.7818608E-02  0.1130116E+00
         25   -1    0    0    0    0  0.00000000000E+00  0.00000000000E+00  0.99999998245E-14  0.12500000000E+03  0.12500000000E+03 0.  0.
        -11    1    3    3    0    0 -0.12032488577E+02 -0.58260502807E+01  0.55507392146E+02  0.57094607682E+02  0.51100000000E-03 0.  1.
         23    2    1    0    0    0 -0.16407341328E+02 -0.15619400121E+02  0.18116502283E+02  0.95993549604E+02  0.91506215095E+02 0.  0.
         11    1    3    3    0    0 -0.43748527511E+01 -0.97933498403E+01 -0.37390889863E+02  0.38898941922E+02  0.51100000000E-03 0. -1.
         22    1    1    0    0    0  0.16407341328E+02  0.15619400121E+02 -0.18116502283E+02  0.29006450396E+02  0.00000000000E+00 0.  1.
</event>
<event>
 5    1  0.8875601E-005  0.9118800E+02  0.7818608E-02  0.1130116E+00
         25   -1    0    0    0    0  0.00000000000E+00  0.00000000000E+00  0.99999998245E-14  0.12500000000E+03  0.12500000000E+03 0.  0.
        -11    1    3    3    0    0  0.31257917279E+02  0.25781527378E+02  0.28560647530E+01  0.40618981434E+02  0.51100000000E-03 0. -1.
         23    2    1    0    0    0  0.62903000697E+01 -0.21113358374E+02  0.18747722726E+02  0.96072178025E+02  0.91613560712E+02 0.  0.
         11    1    3    3    0    0 -0.24967617209E+02 -0.46894885752E+02  0.15891657973E+02  0.55453196591E+02  0.51100000000E-03 0.  1.
         22    1    1    0    0    0 -0.62903000697E+01  0.21113358374E+02 -0.18747722726E+02  0.28927821975E+02  0.00000000000E+00 0.  1.
</event>
<event>
 5    1  0.8875601E-005  0.9118800E+02  0.7818608E-02  0.1130116E+00
         25   -1    0    0    0    0  0.00000000000E+00  0.00000000000E+00  0.99999998245E-14  0.12500000000E+03  0.12500000000E+03 0.  0.
        -11    1    3    3    0    0  0.42892088320E+02 -0.50746295995E+01  0.18946428582E+02  0.47164078093E+02  0.51100000000E-03 0. -1.
         23    2    1    0    0    0  0.17861299701E+02 -0.23478156271E+00 -0.22773334724E+02  0.96056850140E+02  0.91592644546E+02 0.  0.
         11    1    3    3    0    0 -0.25030788620E+02  0.48398480368E+01 -0.41719763306E+02  0.48892772048E+02  0.51100000000E-03 0.  1.
         22    1    1    0    0    0 -0.17861299701E+02  0.23478156271E+00  0.22773334724E+02  0.28943149860E+02  0.00000000000E+00 0. -1.
</event>
<event>
 5    1  0.8875601E-005  0.9118800E+02  0.7818608E-02  0.1130116E+00
         25   -1    0    0    0    0  0.00000000000E+00  0.00000000000E+00  0.99999998245E-14  0.12500000000E+03  0.12500000000E+03 0.  0.
        -11    1    3    3    0    0 -0.20248223612E+01 -0.11855080872E+02  0.43092313173E+02  0.44739136144E+02  0.51100000000E-03 0. -1.
         23    2    1    0    0    0 -0.45407317050E+01 -0.30164459389E+02 -0.29511352813E+01  0.94353270091E+02  0.89237422211E+02 0.  0.
         11    1    3    3    0    0 -0.25159093438E+01 -0.18309378517E+02 -0.46043448454E+02  0.49614133947E+02  0.51100000000E-03 0.  1.
         22    1    1    0    0    0  0.45407317050E+01  0.30164459389E+02  0.29511352813E+01  0.30646729909E+02  0.00000000000E+00 0.  1.
</event>
<event>
 5    1  0.8875601E-005  0.9118800E+02  0.7818608E-02  0.1130116E+00
         25   -1    0    0    0    0  0.00000000000E+00  0.00000000000E+00  0.99999998245E-14  0.12500000000E+03  0.12500000000E+03 0.  0.
        -11    1    3    3    0    0  0.39858803257E+02 -0.51214308699E+01 -0.19574010024E+02  0.44700057270E+02  0.51100000000E-03 0. -1.
         23    2    1    0    0    0 -0.10161442264E+02 -0.53175920394E+01 -0.27369730415E+02  0.95324524654E+02  0.90587698743E+02 0.  0.
         11    1    3    3    0    0 -0.50020245522E+02 -0.19616116958E+00 -0.77957203911E+01  0.50624467384E+02  0.51100000000E-03 0.  1.
         22    1    1    0    0    0  0.10161442264E+02  0.53175920394E+01  0.27369730415E+02  0.29675475346E+02  0.00000000000E+00 0.  1.
</event>
<event>
 5    1  0.8875601E-005  0.9118800E+02  0.7818608E-02  0.1130116E+00
         25   -1    0    0    0    0  0.00000000000E+00  0.00000000000E+00  0.99999998245E-14  0.12500000000E+03  0.12500000000E+03 0.  0.
        -11    1    3    3    0    0 -0.56485838737E+02  0.20471816226E+02  0.14648689089E+02  0.61841162099E+02  0.51100000000E-03 0. -1.
         23    2    1    0    0    0 -0.33188290187E+02  0.68285671905E+01  0.12345018535E+02  0.88937673147E+02  0.81298328929E+02 0.  0.
         11    1    3    3    0    0  0.23297548550E+02 -0.13643249036E+02 -0.23036705542E+01  0.27096511048E+02  0.51100000000E-03 0.  1.
         22    1    1    0    0    0  0.33188290187E+02 -0.68285671905E+01 -0.12345018535E+02  0.36062326853E+02  0.00000000000E+00 0. -1.
</event>
<event>
 5    1  0.8875601E-005  0.9118800E+02  0.7818608E-02  0.1130116E+00
         25   -1    0    0    0    0  0.00000000000E+00  0.00000000000E+00  0.99999998245E-14  0.12500000000E+03  0.12500000000E+03 0.  0.
        -11    1    3    3    0    0 -0.11228049234E+02  0.49162361967E+02  0.17914590604E+02  0.53515787209E+02  0.51100000000E-03 0.  1.
         23    2    1    0    0    0 -0.78573275577E+01  0.98331678068E+01  0.28037750135E+02  0.94266561889E+02  0.89115882268E+02 0.  0.
         11    1    3    3    0    0  0.33707216766E+01 -0.39329194160E+02  0.10123159531E+02  0.40750774681E+02  0.51100000000E-03 0. -1.
         22    1    1    0    0    0  0.78573275577E+01 -0.98331678068E+01 -0.28037750135E+02  0.30733438111E+02  0.00000000000E+00 0.  1.
</event>
<event>
 5    1  0.8875601E-005  0.9118800E+02  0.7818608E-02  0.1130116E+00
         25   -1    0    0    0    0  0.00000000000E+00  0.00000000000E+00  0.99999998245E-14  0.12500000000E+03  0.12500000000E+03 0.  0.
        -11    1    3    3    0    0  0.13681572613E+02 -0.35132506303E+02 -0.31150028072E+02  0.48906059721E+02  0.51100000000E-03 0. -1.
         23    2    1    0    0    0 -0.17841287237E+02 -0.23648060291E+02  0.98131955158E+00  0.95360410363E+02  0.90637203127E+02 0.  0.
         11    1    3    3    0    0 -0.31522859849E+02  0.11484446012E+02  0.32131347623E+02  0.46454350642E+02  0.51100000000E-03 0.  1.
         22    1    1    0    0    0  0.17841287237E+02  0.23648060291E+02 -0.98131955158E+00  0.29639589637E+02  0.00000000000E+00 0. -1.
</event>
<event>
 5    1  0.8875601E-005  0.9118800E+02  0.7818608E-02  0.1130116E+00
         25   -1    0    0    0    0  0.00000000000E+00  0.00000000000E+00  0.99999998245E-14  0.12500000000E+03  0.12500000000E+03 0.  0.
        -11    1    3    3    0    0 -0.49406793147E+01 -0.50881703966E+02  0.35686228631E+01  0.51245421064E+02  0.51100000000E-03 0. -1.
         23    2    1    0    0    0 -0.55155791749E+01 -0.21212612397E+02 -0.24524380949E+02  0.92108636403E+02  0.86035801273E+02 0.  0.
         11    1    3    3    0    0 -0.57489986021E+00  0.29669091569E+02 -0.28093003812E+02  0.40863215339E+02  0.51100000000E-03 0.  1.
         22    1    1    0    0    0  0.55155791749E+01  0.21212612397E+02  0.24524380949E+02  0.32891363597E+02  0.00000000000E+00 0.  1.
</event>
<event>
 5    1  0.8875601E-005  0.9118800E+02  0.7818608E-02  0.1130116E+00
         25   -1    0    0    0    0  0.00000000000E+00  0.00000000000E+00  0.99999998245E-14  0.12500000000E+03  0.12500000000E+03 0.  0.
        -11    1    3    3    0    0 -0.39907945447E+02  0.27095004728E+02  0.18446703068E+02  0.51643627345E+02  0.51100000000E-03 0.  1.
         23    2    1    0    0    0 -0.18458984246E+02 -0.94088850278E+01  0.22784158004E+02  0.94204236122E+02  0.89028416983E+02 0.  0.
         11    1    3    3    0    0  0.21448961201E+02 -0.36503889756E+02  0.43374549362E+01  0.42560608777E+02  0.51100000000E-03 0. -1.
         22    1    1    0    0    0  0.18458984246E+02  0.94088850278E+01 -0.22784158004E+02  0.30795763878E+02  0.00000000000E+00 0.  1.
</event>
<event>
 5    1  0.8875601E-005  0.9118800E+02  0.7818608E-02  0.1130116E+00
         25   -1    0    0    0    0  0.00000000000E+00  0.00000000000E+00  0.99999998245E-14  0.12500000000E+03  0.12500000000E+03 0.  0.
        -11    1    3    3    0    0  0.27060489544E+01 -0.37930271802E+02 -0.31096190981E+02  0.49122309735E+02  0.51100000000E-03 0. -1.
         23    2    1    0    0    0  0.24042233112E+02  0.12695118833E+01 -0.15342035465E+02  0.96451467890E+02  0.92129620494E+02 0.  0.
         11    1    3    3    0    0  0.21336184158E+02  0.39199783685E+02  0.15754155516E+02  0.47329158155E+02  0.51100000000E-03 0.  1.
         22    1    1    0    0    0 -0.24042233112E+02 -0.12695118833E+01  0.15342035465E+02  0.28548532110E+02  0.00000000000E+00 0. -1.
</event>
<event>
 5    1  0.8875601E-005  0.9118800E+02  0.7818608E-02  0.1130116E+00
         25   -1    0    0    0    0  0.00000000000E+00  0.00000000000E+00  0.99999998245E-14  0.12500000000E+03  0.12500000000E+03 0.  0.
        -11    1    3    3    0    0  0.37095425322E+02 -0.10960220185E+02 -0.33708540873E+02  0.51307530972E+02  0.51100000000E-03 0.  1.
         23    2    1    0    0    0  0.10397869301E+00  0.11974046088E+02 -0.27154680833E+02  0.95322310022E+02  0.90584642768E+02 0.  0.
         11    1    3    3    0    0 -0.36991446629E+02  0.22934266272E+02  0.65538600402E+01  0.44014779050E+02  0.51100000000E-03 0. -1.
         22    1    1    0    0    0 -0.10397869301E+00 -0.11974046088E+02  0.27154680833E+02  0.29677689978E+02  0.00000000000E+00 0.  1.
</event>
<event>
 5    1  0.8875601E-005  0.9118800E+02  0.7818608E-02  0.1130116E+00
         25   -1    0    0    0    0  0.00000000000E+00  0.00000000000E+00  0.99999998245E-14  0.12500000000E+03  0.12500000000E+03 0.  0.
        -11    1    3    3    0    0 -0.30883499622E+02 -0.14411747295E+02  0.13457327820E+02  0.36641352067E+02  0.51100000000E-03 0. -1.
         23    2    1    0    0    0  0.26394483800E+02 -0.13391325317E+02  0.38845898296E+00  0.95400215048E+02  0.90692082135E+02 0.  0.
         11    1    3    3    0    0  0.57277983422E+02  0.10204219782E+01 -0.13068868837E+02  0.58758862981E+02  0.51100000000E-03 0.  1.
         22    1    1    0    0    0 -0.26394483800E+02  0.13391325317E+02 -0.38845898296E+00  0.29599784952E+02  0.00000000000E+00 0.  1.
</event>
<event>
 5    1  0.8875601E-005  0.9118800E+02  0.7818608E-02  0.1130116E+00
         25   -1    0    0    0    0  0.00000000000E+00  0.00000000000E+00  0.99999998245E-14  0.12500000000E+03  0.12500000000E+03 0.  0.
        -11    1    3    3    0    0  0.24846593109E+02 -0.48959839861E+02 -0.11296271613E+02  0.56053767589E+02  0.51100000000E-03 0. -1.
         23    2    1    0    0    0  0.24606989689E+02 -0.79831070252E+01  0.17860864937E+01  0.99068859564E+02  0.95614930273E+02 0.  0.
         11    1    3    3    0    0 -0.23960341985E+00  0.40976732836E+02  0.13082358106E+02  0.43015091975E+02  0.51100000000E-03 0.  1.
         22    1    1    0    0    0 -0.24606989689E+02  0.79831070252E+01 -0.17860864937E+01  0.25931140436E+02  0.00000000000E+00 0. -1.
</event>
<event>
 5    1  0.8875601E-005  0.9118800E+02  0.7818608E-02  0.1130116E+00
         25   -1    0    0    0    0  0.00000000000E+00  0.00000000000E+00  0.99999998245E-14  0.12500000000E+03  0.12500000000E+03 0.  0.
        -11    1    3    3    0    0 -0.22322916891E+02  0.15664917701E+02 -0.44002424259E+02  0.51767901310E+02  0.51100000000E-03 0. -1.
         23    2    1    0    0    0 -0.28287923223E+02  0.20968281613E+02 -0.76755766245E+01  0.88961272073E+02  0.81334605293E+02 0.  0.
         11    1    3    3    0    0 -0.59650063321E+01  0.53033639115E+01  0.36326847635E+02  0.37193370762E+02  0.51100000000E-03 0.  1.
         22    1    1    0    0    0  0.28287923223E+02 -0.20968281613E+02  0.76755766245E+01  0.36038727927E+02  0.00000000000E+00 0. -1.
</event>
<event>
 5    1  0.8875601E-005  0.9118800E+02  0.7818608E-02  0.1130116E+00
         25   -1    0    0    0    0  0.00000000000E+00  0.00000000000E+00  0.99999998245E-14  0.12500000000E+03  0.12500000000E+03 0.  0.
        -11    1    3    3    0    0 -0.30817338716E+02  0.34495307404E+01 -0.28317473388E+02  0.41993891547E+02  0.51100000000E-03 0. -1.
         23    2    1    0    0    0 -0.99209534975E+01 -0.22558456110E+02  0.14601932659E+02  0.96355180263E+02  0.91998886221E+02 0.  0.
         11    1    3    3    0    0  0.20896385219E+02 -0.26007986850E+02  0.42919406047E+02  0.54361288717E+02  0.51100000000E-03 0.  1.
         22    1    1    0    0    0  0.99209534975E+01  0.22558456110E+02 -0.14601932659E+02  0.28644819737E+02  0.00000000000E+00 0.  1.
</event>
<event>
 5    1  0.8875601E-005  0.9118800E+02  0.7818608E-02  0.1130116E+00
         25   -1    0    0    0    0  0.00000000000E+00  0.00000000000E+00  0.99999998245E-14  0.12500000000E+03  0.12500000000E+03 0.  0.
        -11    1    3    3    0    0 -0.45570703279E+02 -0.18948201237E+01  0.19490849654E+02  0.49600126624E+02  0.51100000000E-03 0.  1.
         23    2    1    0    0    0 -0.17678614569E+02  0.25783179508E+02 -0.59930445644E+00  0.93732366184E+02  0.88363406148E+02 0.  0.
         11    1    3    3    0    0  0.27892088709E+02  0.27677999631E+02 -0.20090154110E+02  0.44132239560E+02  0.51100000000E-03 0. -1.
         22    1    1    0    0    0  0.17678614569E+02 -0.25783179508E+02  0.59930445644E+00  0.31267633816E+02  0.00000000000E+00 0.  1.
</event>
<event>
 5    1  0.8875601E-005  0.9118800E+02  0.7818608E-02  0.1130116E+00
         25   -1    0    0    0    0  0.00000000000E+00  0.00000000000E+00  0.99999998245E-14  0.12500000000E+03  0.12500000000E+03 0.  0.
        -11    1    3    3    0    0  0.22349211606E+02  0.69726544640E+01 -0.29309532320E+02  0.37512049461E+02  0.51100000000E-03 0. -1.
         23    2    1    0    0    0 -0.23475414144E+02  0.18193839235E+02  0.36686239970E+01  0.95073930138E+02  0.90241246304E+02 0.  0.
         11    1    3    3    0    0 -0.45824625750E+02  0.11221184771E+02  0.32978156317E+02  0.57561880677E+02  0.51100000000E-03 0.  1.
         22    1    1    0    0    0  0.23475414144E+02 -0.18193839235E+02 -0.36686239970E+01  0.29926069862E+02  0.00000000000E+00 0.  1.
</event>
<event>
 5    1  0.8875601E-005  0.9118800E+02  0.7818608E-02  0.1130116E+00
         25   -1    0    0    0    0  0.00000000000E+00  0.00000000000E+00  0.99999998245E-14  0.12500000000E+03  0.12500000000E+03 0.  0.
        -11    1    3    3    0    0  0.30590026676E+02  0.14256233907E+02  0.19082502220E+02  0.38770244112E+02  0.51100000000E-03 0.  1.
         23    2    1    0    0    0  0.68535496613E+01 -0.27850690864E+02 -0.93303360325E+01  0.94838977222E+02  0.89915206197E+02 0.  0.
         11    1    3    3    0    0 -0.23736477015E+02 -0.42106924770E+02 -0.28412838253E+02  0.56068733110E+02  0.51100000000E-03 0. -1.
         22    1    1    0    0    0 -0.68535496613E+01  0.27850690864E+02  0.93303360325E+01  0.30161022778E+02  0.00000000000E+00 0. -1.
</event>
<event>
 5    1  0.8875601E-005  0.9118800E+02  0.7818608E-02  0.1130116E+00
         25   -1    0    0    0    0  0.00000000000E+00  0.00000000000E+00  0.99999998245E-14  0.12500000000E+03  0.12500000000E+03 0.  0.
        -11    1    3    3    0    0  0.43154739074E+02 -0.71167548477E+01 -0.17408222987E+02  0.47074684618E+02  0.51100000000E-03 0.  1.
         23    2    1    0    0    0  0.93662010140E+01  0.26610209438E+02 -0.60413924357E+01  0.96149915246E+02  0.91719566132E+02 0.  0.
         11    1    3    3    0    0 -0.33788538060E+02  0.33726964286E+02  0.11366830551E+02  0.49075230628E+02  0.51100000000E-03 0. -1.
         22    1    1    0    0    0 -0.93662010140E+01 -0.26610209438E+02  0.60413924357E+01  0.28850084754E+02  0.00000000000E+00 0. -1.
</event>
<event>
 5    1  0.8875601E-005  0.9118800E+02  0.7818608E-02  0.1130116E+00
         25   -1    0    0    0    0  0.00000000000E+00  0.00000000000E+00  0.99999998245E-14  0.12500000000E+03  0.12500000000E+03 0.  0.
        -11    1    3    3    0    0 -0.34946576529E+02 -0.43515233278E+02  0.27838656777E+02  0.62368498055E+02  0.51100000000E-03 0.  1.
         23    2    1    0    0    0 -0.13841636679E+02 -0.21076171864E+02  0.14247127277E+02  0.96038360508E+02  0.91567407559E+02 0.  0.
         11    1    3    3    0    0  0.21104939850E+02  0.22439061414E+02 -0.13591529500E+02  0.33669862453E+02  0.51100000000E-03 0. -1.
         22    1    1    0    0    0  0.13841636679E+02  0.21076171864E+02 -0.14247127277E+02  0.28961639492E+02  0.00000000000E+00 0.  1.
</event>
<event>
 5    1  0.8875601E-005  0.9118800E+02  0.7818608E-02  0.1130116E+00
         25   -1    0    0    0    0  0.00000000000E+00  0.00000000000E+00  0.99999998245E-14  0.12500000000E+03  0.12500000000E+03 0.  0.
        -11    1    3    3    0    0 -0.34194729621E+02 -0.45532899429E+02  0.21291577136E+02  0.60793549999E+02  0.51100000000E-03 0.  1.
         23    2    1    0    0    0 -0.17182824159E+02 -0.15624820855E+02  0.18487528908E+02  0.95315438390E+02  0.90575159937E+02 0.  0.
         11    1    3    3    0    0  0.17011905462E+02  0.29908078574E+02 -0.28040482281E+01  0.34521888392E+02  0.51100000000E-03 0. -1.
         22    1    1    0    0    0  0.17182824159E+02  0.15624820855E+02 -0.18487528908E+02  0.29684561610E+02  0.00000000000E+00 0.  1.
</event>
<event>
 5    1  0.8875601E-005  0.9118800E+02  0.7818608E-02  0.1130116E+00
         25   -1    0    0    0    0  0.00000000000E+00  0.00000000000E+00  0.99999998245E-14  0.12500000000E+03  0.12500000000E+03 0.  0.
        -11    1    3    3    0    0  0.16609762672E+02  0.38459552847E+01  0.35325943707E+02  0.39224965100E+02  0.51100000000E-03 0.  1.
         23    2    1    0    0    0 -0.14356706868E+02  0.28542885529E+02 -0.10917948242E+01  0.93031212686E+02  0.87365915387E+02 0.  0.
         11    1    3    3    0    0 -0.30966469540E+02  0.24696930244E+02 -0.36417738531E+02  0.53806247586E+02  0.51100000000E-03 0. -1.
         22    1    1    0    0    0  0.14356706868E+02 -0.28542885529E+02  0.10917948242E+01  0.31968787314E+02  0.00000000000E+00 0. -1.
</event>
<event>
 5    1  0.8875601E-005  0.9118800E+02  0.7818608E-02  0.1130116E+00
         25   -1    0    0    0    0  0.00000000000E+00  0.00000000000E+00  0.99999998245E-14  0.12500000000E+03  0.12500000000E+03 0.  0.
        -11    1    3    3    0    0  0.12513305454E+02 -0.13261711690E+02 -0.40294014776E+02  0.44227405953E+02  0.51100000000E-03 0.  1.
         23    2    1    0    0    0 -0.12773778413E+01 -0.26578560086E+02  0.88334393633E+01  0.96962860321E+02  0.92820876317E+02 0.  0.
         11    1    3    3    0    0 -0.13790683295E+02 -0.13316848396E+02  0.49127454139E+02  0.52735454368E+02  0.51100000000E-03 0. -1.
         22    1    1    0    0    0  0.12773778413E+01  0.26578560086E+02 -0.88334393633E+01  0.28037139679E+02  0.00000000000E+00 0. -1.
</event>
<event>
 5    1  0.8875601E-005  0.9118800E+02  0.7818608E-02  0.1130116E+00
         25   -1    0    0    0    0  0.00000000000E+00  0.00000000000E+00  0.99999998245E-14  0.12500000000E+03  0.12500000000E+03 0.  0.
        -11    1    3    3    0    0  0.26504859091E+02 -0.81234917117E+01  0.40040594958E+02  0.48700594635E+02  0.51100000000E-03 0. -1.
         23    2    1    0    0    0  0.19561333893E+02  0.20942266505E+02  0.31589299707E+01  0.96169406031E+02  0.91746125301E+02 0.  0.
         11    1    3    3    0    0 -0.69435251977E+01  0.29065758216E+02 -0.36881664987E+02  0.47468811396E+02  0.51100000000E-03 0.  1.
         22    1    1    0    0    0 -0.19561333893E+02 -0.20942266505E+02 -0.31589299707E+01  0.28830593969E+02  0.00000000000E+00 0. -1.
</event>
<event>
 5    1  0.8875601E-005  0.9118800E+02  0.7818608E-02  0.1130116E+00
         25   -1    0    0    0    0  0.00000000000E+00  0.00000000000E+00  0.99999998245E-14  0.12500000000E+03  0.12500000000E+03 0.  0.
        -11    1    3    3    0    0  0.12933763638E+02  0.37981686185E+02 -0.41241588631E+02  0.57539198468E+02  0.51100000000E-03 0.  1.
         23    2    1    0    0    0  0.15863981259E+02  0.23344377479E+02 -0.55387677674E+01  0.96237110547E+02  0.91838323356E+02 0.  0.
         11    1    3    3    0    0  0.29302176209E+01 -0.14637308705E+02  0.35702820863E+02  0.38697912079E+02  0.51100000000E-03 0. -1.
         22    1    1    0    0    0 -0.15863981259E+02 -0.23344377479E+02  0.55387677674E+01  0.28762889453E+02  0.00000000000E+00 0.  1.
</event>
<event>
 5    1  0.8875601E-005  0.9118800E+02  0.7818608E-02  0.1130116E+00
         25   -1    0    0    0    0  0.00000000000E+00  0.00000000000E+00  0.99999998245E-14  0.12500000000E+03  0.12500000000E+03 0.  0.
        -11    1    3    3    0    0 -0.41948703922E+02 -0.15883180147E+02  0.36929296812E+01  0.45006742852E+02  0.51100000000E-03 0.  1.
         23    2    1    0    0    0 -0.10089035032E+02  0.13624303969E+02 -0.23335622123E+02  0.96156256374E+02  0.91728207731E+02 0.  0.
         11    1    3    3    0    0  0.31859668889E+02  0.29507484116E+02 -0.27028551804E+02  0.51149513521E+02  0.51100000000E-03 0. -1.
         22    1    1    0    0    0  0.10089035032E+02 -0.13624303969E+02  0.23335622123E+02  0.28843743626E+02  0.00000000000E+00 0. -1.
</event>
<event>
 5    1  0.8875601E-005  0.9118800E+02  0.7818608E-02  0.1130116E+00
         25   -1    0    0    0    0  0.00000000000E+00  0.00000000000E+00  0.99999998245E-14  0.12500000000E+03  0.12500000000E+03 0.  0.
        -11    1    3    3    0    0 -0.29528450900E+02 -0.27948253683E+02 -0.99840419320E+01  0.41865443865E+02  0.51100000000E-03 0.  1.
         23    2    1    0    0    0  0.10154807301E+02 -0.10875904395E+02 -0.31526364873E+02  0.90138601723E+02  0.83124307099E+02 0.  0.
         11    1    3    3    0    0  0.39683258200E+02  0.17072349287E+02 -0.21542322941E+02  0.48273157858E+02  0.51100000000E-03 0. -1.
         22    1    1    0    0    0 -0.10154807301E+02  0.10875904395E+02  0.31526364873E+02  0.34861398277E+02  0.00000000000E+00 0. -1.
</event>
<event>
 5    1  0.8875601E-005  0.9118800E+02  0.7818608E-02  0.1130116E+00
         25   -1    0    0    0    0  0.00000000000E+00  0.00000000000E+00  0.99999998245E-14  0.12500000000E+03  0.12500000000E+03 0.  0.
        -11    1    3    3    0    0  0.52546817871E+01 -0.10532686289E+02  0.51834876901E+02  0.53154525910E+02  0.51100000000E-03 0. -1.
         23    2    1    0    0    0 -0.16642493719E+02 -0.19122460342E+02  0.20144465991E+02  0.92620367562E+02  0.86776102071E+02 0.  0.
         11    1    3    3    0    0 -0.21897175506E+02 -0.85897740536E+01 -0.31690410910E+02  0.39465841652E+02  0.51100000000E-03 0.  1.
         22    1    1    0    0    0  0.16642493719E+02  0.19122460342E+02 -0.20144465991E+02  0.32379632438E+02  0.00000000000E+00 0.  1.
</event>
<event>
 5    1  0.8875601E-005  0.9118800E+02  0.7818608E-02  0.1130116E+00
         25   -1    0    0    0    0  0.00000000000E+00  0.00000000000E+00  0.99999998245E-14  0.12500000000E+03  0.12500000000E+03 0.  0.
        -11    1    3    3    0    0 -0.49218462300E+02 -0.21437125590E+01 -0.33378703938E+02  0.59507902093E+02  0.51100000000E-03 0. -1.
         23    2    1    0    0    0 -0.27826826107E+02  0.70789679341E+01 -0.56270485783E+01  0.95740681588E+02  0.91160136009E+02 0.  0.
         11    1    3    3    0    0  0.21391636193E+02  0.92226804932E+01  0.27751655360E+02  0.36232779495E+02  0.51100000000E-03 0.  1.
         22    1    1    0    0    0  0.27826826107E+02 -0.70789679341E+01  0.56270485783E+01  0.29259318412E+02  0.00000000000E+00 0. -1.
</event>
<event>
 5    1  0.8875601E-005  0.9118800E+02  0.7818608E-02  0.1130116E+00
         25   -1    0    0    0    0  0.00000000000E+00  0.00000000000E+00  0.99999998245E-14  0.12500000000E+03  0.12500000000E+03 0.  0.
        -11    1    3    3    0    0  0.22348157155E+02  0.34572286032E+02 -0.45783397902E+02  0.61569494178E+02  0.51100000000E-03 0. -1.
         23    2    1    0    0    0  0.81107485743E+01  0.21985337698E+02 -0.17044542269E+02  0.96023186212E+02  0.91546690563E+02 0.  0.
         11    1    3    3    0    0 -0.14237408580E+02 -0.12586948333E+02  0.28738855632E+02  0.34453692034E+02  0.51100000000E-03 0.  1.
         22    1    1    0    0    0 -0.81107485743E+01 -0.21985337698E+02  0.17044542269E+02  0.28976813788E+02  0.00000000000E+00 0. -1.
</event>
<event>
 5    1  0.8875601E-005  0.9118800E+02  0.7818608E-02  0.1130116E+00
         25   -1    0    0    0    0  0.00000000000E+00  0.00000000000E+00  0.99999998245E-14  0.12500000000E+03  0.12500000000E+03 0.  0.
        -11    1    3    3    0    0  0.24586210361E+02  0.17755995318E+02 -0.14141694777E+02  0.33462585690E+02  0.51100000000E-03 0. -1.
         23    2    1    0    0    0  0.90544606844E+01 -0.15111475236E+02 -0.42126037153E+02  0.79338824497E+02  0.64882248145E+02 0.  0.
         11    1    3    3    0    0 -0.15531749677E+02 -0.32867470554E+02 -0.27984342376E+02  0.45876238807E+02  0.51100000000E-03 0.  1.
         22    1    1    0    0    0 -0.90544606844E+01  0.15111475236E+02  0.42126037153E+02  0.45661175503E+02  0.00000000000E+00 0.  1.
</event>
<event>
 5    1  0.8875601E-005  0.9118800E+02  0.7818608E-02  0.1130116E+00
         25   -1    0    0    0    0  0.00000000000E+00  0.00000000000E+00  0.99999998245E-14  0.12500000000E+03  0.12500000000E+03 0.  0.
        -11    1    3    3    0    0  0.26112517369E+02  0.16127776947E+02 -0.30234626730E+02  0.43082495359E+02  0.51100000000E-03 0.  1.
         23    2    1    0    0    0  0.23963021839E+02  0.74004385023E+01  0.19254692299E+02  0.93381396596E+02  0.87865517406E+02 0.  0.
         11    1    3    3    0    0 -0.21494955303E+01 -0.87273384447E+01  0.49489319029E+02  0.50298901237E+02  0.51100000000E-03 0. -1.
         22    1    1    0    0    0 -0.23963021839E+02 -0.74004385023E+01 -0.19254692299E+02  0.31618603404E+02  0.00000000000E+00 0. -1.
</event>
<event>
 5    1  0.8875601E-005  0.9118800E+02  0.7818608E-02  0.1130116E+00
         25   -1    0    0    0    0  0.00000000000E+00  0.00000000000E+00  0.99999998245E-14  0.12500000000E+03  0.12500000000E+03 0.  0.
        -11    1    3    3    0    0 -0.30193875300E+02 -0.14744431481E+02  0.24312098742E+02  0.41474649014E+02  0.51100000000E-03 0. -1.
         23    2    1    0    0    0 -0.18415483209E+02  0.95603246837E+01 -0.21793615762E+02  0.94908613892E+02  0.90011962944E+02 0.  0.
         11    1    3    3    0    0  0.11778392091E+02  0.24304756165E+02 -0.46105714504E+02  0.53433964879E+02  0.51100000000E-03 0.  1.
         22    1    1    0    0    0  0.18415483209E+02 -0.95603246837E+01  0.21793615762E+02  0.30091386108E+02  0.00000000000E+00 0. -1.
</event>
<event>
 5    1  0.8875601E-005  0.9118800E+02  0.7818608E-02  0.1130116E+00
         25   -1    0    0    0    0  0.00000000000E+00  0.00000000000E+00  0.99999998245E-14  0.12500000000E+03  0.12500000000E+03 0.  0.
        -11    1    3    3    0    0  0.28073890210E+02 -0.28218431467E+02  0.27140271272E+02  0.48176939618E+02  0.51100000000E-03 0. -1.
         23    2    1    0    0    0  0.19651524543E+02  0.13937177976E+02 -0.30612961515E+01  0.10071422472E+03  0.97742294736E+02 0.  0.
         11    1    3    3    0    0 -0.84223656675E+01  0.42155609442E+02 -0.30201567423E+02  0.52537285103E+02  0.51100000000E-03 0.  1.
         22    1    1    0    0    0 -0.19651524543E+02 -0.13937177976E+02  0.30612961515E+01  0.24285775279E+02  0.00000000000E+00 0.  1.
</event>
<event>
 5    1  0.8875601E-005  0.9118800E+02  0.7818608E-02  0.1130116E+00
         25   -1    0    0    0    0  0.00000000000E+00  0.00000000000E+00  0.99999998245E-14  0.12500000000E+03  0.12500000000E+03 0.  0.
        -11    1    3    3    0    0 -0.19831324799E+02 -0.25392238801E+02  0.18294228006E+02  0.37050317316E+02  0.51100000000E-03 0.  1.
         23    2    1    0    0    0 -0.41509720392E+01  0.25211393434E+02 -0.10533402918E+02  0.97363113330E+02  0.93358332957E+02 0.  0.
         11    1    3    3    0    0  0.15680352760E+02  0.50603632235E+02 -0.28827630924E+02  0.60312796014E+02  0.51100000000E-03 0. -1.
         22    1    1    0    0    0  0.41509720392E+01 -0.25211393434E+02  0.10533402918E+02  0.27636886670E+02  0.00000000000E+00 0.  1.
</event>
<event>
 5    1  0.8875601E-005  0.9118800E+02  0.7818608E-02  0.1130116E+00
         25   -1    0    0    0    0  0.00000000000E+00  0.00000000000E+00  0.99999998245E-14  0.12500000000E+03  0.12500000000E+03 0.  0.
        -11    1    3    3    0    0 -0.29512107496E+02  0.27984070392E+02  0.19301151734E+02  0.45017853603E+02  0.51100000000E-03 0.  1.
         23    2    1    0    0    0  0.14239610880E+02  0.41539139374E+01  0.25779344157E+02  0.95257839618E+02  0.90495634726E+02 0.  0.
         11    1    3    3    0    0  0.43751718375E+02 -0.23830156454E+02  0.64781924234E+01  0.50239986015E+02  0.51100000000E-03 0. -1.
         22    1    1    0    0    0 -0.14239610880E+02 -0.41539139374E+01 -0.25779344157E+02  0.29742160382E+02  0.00000000000E+00 0. -1.
</event>
<event>
 5    1  0.8875601E-005  0.9118800E+02  0.7818608E-02  0.1130116E+00
         25   -1    0    0    0    0  0.00000000000E+00  0.00000000000E+00  0.99999998245E-14  0.12500000000E+03  0.12500000000E+03 0.  0.
        -11    1    3    3    0    0 -0.17394432133E+02  0.44106055453E+02 -0.95619925233E+00  0.47421774684E+02  0.51100000000E-03 0.  1.
         23    2    1    0    0    0 -0.61248092353E+01  0.34952751530E+01 -0.27086602489E+02  0.97010461402E+02  0.92884957611E+02 0.  0.
         11    1    3    3    0    0  0.11269622898E+02 -0.40610780300E+02 -0.26130403236E+02  0.49588686718E+02  0.51100000000E-03 0. -1.
         22    1    1    0    0    0  0.61248092353E+01 -0.34952751530E+01  0.27086602489E+02  0.27989538598E+02  0.00000000000E+00 0. -1.
</event>
<event>
 5    1  0.8875601E-005  0.9118800E+02  0.7818608E-02  0.1130116E+00
         25   -1    0    0    0    0  0.00000000000E+00  0.00000000000E+00  0.99999998245E-14  0.12500000000E+03  0.12500000000E+03 0.  0.
        -11    1    3    3    0    0  0.22263368772E+02 -0.23749154352E+02 -0.18005728261E+02  0.37200620586E+02  0.51100000000E-03 0. -1.
         23    2    1    0    0    0  0.93756408047E+01  0.12869346629E+02  0.25141260457E+02  0.95240871980E+02  0.90472194596E+02 0.  0.
         11    1    3    3    0    0 -0.12887727968E+02  0.36618500981E+02  0.43146988717E+02  0.58040251394E+02  0.51100000000E-03 0.  1.
         22    1    1    0    0    0 -0.93756408047E+01 -0.12869346629E+02 -0.25141260457E+02  0.29759128020E+02  0.00000000000E+00 0.  1.
</event>
<event>
 5    1  0.8875601E-005  0.9118800E+02  0.7818608E-02  0.1130116E+00
         25   -1    0    0    0    0  0.00000000000E+00  0.00000000000E+00  0.99999998245E-14  0.12500000000E+03  0.12500000000E+03 0.  0.
        -11    1    3    3    0    0 -0.23389989599E+02  0.14322682765E+02 -0.21695477582E+02  0.34970338901E+02  0.51100000000E-03 0.  1.
         23    2    1    0    0    0  0.24628338534E+02 -0.15446241859E+02  0.11358062568E+01  0.95906504123E+02  0.91387231223E+02 0.  0.
         11    1    3    3    0    0  0.48018328133E+02 -0.29768924624E+02  0.22831283839E+02  0.60936165222E+02  0.51100000000E-03 0. -1.
         22    1    1    0    0    0 -0.24628338534E+02  0.15446241859E+02 -0.11358062568E+01  0.29093495877E+02  0.00000000000E+00 0. -1.
</event>
<event>
 5    1  0.8875601E-005  0.9118800E+02  0.7818608E-02  0.1130116E+00
         25   -1    0    0    0    0  0.00000000000E+00  0.00000000000E+00  0.99999998245E-14  0.12500000000E+03  0.12500000000E+03 0.  0.
        -11    1    3    3    0    0  0.42273747761E+01  0.21031856766E+02 -0.33504836657E+02  0.39784215164E+02  0.51100000000E-03 0.  1.
         23    2    1    0    0    0 -0.30038638626E+02 -0.32026638804E+01  0.19542168558E+01  0.94727969510E+02  0.89760750763E+02 0.  0.
         11    1    3    3    0    0 -0.34266013402E+02 -0.24234520647E+02  0.35459053512E+02  0.54943754347E+02  0.51100000000E-03 0. -1.
         22    1    1    0    0    0  0.30038638626E+02  0.32026638804E+01 -0.19542168558E+01  0.30272030490E+02  0.00000000000E+00 0. -1.
</event>
<event>
 5    1  0.8875601E-005  0.9118800E+02  0.7818608E-02  0.1130116E+00
         25   -1    0    0    0    0  0.00000000000E+00  0.00000000000E+00  0.99999998245E-14  0.12500000000E+03  0.12500000000E+03 0.  0.
        -11    1    3    3    0    0  0.59250070424E+01  0.55492169220E+02 -0.24700721439E+02  0.61029600957E+02  0.51100000000E-03 0.  1.
         23    2    1    0    0    0  0.13444430251E+01  0.24322891844E+02 -0.70775492982E+00  0.10062970021E+03  0.97634138769E+02 0.  0.
         11    1    3    3    0    0 -0.45805640173E+01 -0.31169277376E+02  0.23992966509E+02  0.39600099255E+02  0.51100000000E-03 0. -1.
         22    1    1    0    0    0 -0.13444430251E+01 -0.24322891844E+02  0.70775492982E+00  0.24370299787E+02  0.00000000000E+00 0.  1.
</event>
<event>
 5    1  0.8875601E-005  0.9118800E+02  0.7818608E-02  0.1130116E+00
         25   -1    0    0    0    0  0.00000000000E+00  0.00000000000E+00  0.99999998245E-14  0.12500000000E+03  0.12500000000E+03 0.  0.
        -11    1    3    3    0    0  0.48947212326E+02 -0.26271430640E+02  0.19838742392E+02  0.58988078137E+02  0.51100000000E-03 0.  1.
         23    2    1    0    0    0  0.27378375805E+02 -0.19584369469E+01 -0.89047678399E+00  0.97537227273E+02  0.93591168484E+02 0.  0.
         11    1    3    3    0    0 -0.21568836521E+02  0.24312993694E+02 -0.20729219176E+02  0.38549149136E+02  0.51100000000E-03 0. -1.
         22    1    1    0    0    0 -0.27378375805E+02  0.19584369469E+01  0.89047678399E+00  0.27462772727E+02  0.00000000000E+00 0.  1.
</event>
<event>
 5    1  0.8875601E-005  0.9118800E+02  0.7818608E-02  0.1130116E+00
         25   -1    0    0    0    0  0.00000000000E+00  0.00000000000E+00  0.99999998245E-14  0.12500000000E+03  0.12500000000E+03 0.  0.
        -11    1    3    3    0    0  0.24641102214E+01 -0.33588873277E+02 -0.10601608113E+02  0.35308332473E+02  0.51100000000E-03 0.  1.
         23    2    1    0    0    0  0.69496669763E+01  0.16254758330E+02  0.23298133575E+02  0.95754178632E+02  0.91178641457E+02 0.  0.
         11    1    3    3    0    0  0.44855567549E+01  0.49843631607E+02  0.33899741687E+02  0.60445846159E+02  0.51100000000E-03 0. -1.
         22    1    1    0    0    0 -0.69496669763E+01 -0.16254758330E+02 -0.23298133575E+02  0.29245821368E+02  0.00000000000E+00 0. -1.
</event>
<event>
 5    1  0.8875601E-005  0.9118800E+02  0.7818608E-02  0.1130116E+00
         25   -1    0    0    0    0  0.00000000000E+00  0.00000000000E+00  0.99999998245E-14  0.12500000000E+03  0.12500000000E+03 0.  0.
        -11    1    3    3    0    0 -0.34287460374E+00 -0.59832171382E+02 -0.43087421657E+01  0.59988095107E+02  0.51100000000E-03 0.  1.
         23    2    1    0    0    0 -0.97278483338E+01 -0.26447084050E+02 -0.99347253355E+01  0.95120608181E+02  0.90305880458E+02 0.  0.
         11    1    3    3    0    0 -0.93849737301E+01  0.33385087331E+02 -0.56259831698E+01  0.35132513075E+02  0.51100000000E-03 0. -1.
         22    1    1    0    0    0  0.97278483338E+01  0.26447084050E+02  0.99347253355E+01  0.29879391819E+02  0.00000000000E+00 0.  1.
</event>
<event>
 5    1  0.8875601E-005  0.9118800E+02  0.7818608E-02  0.1130116E+00
         25   -1    0    0    0    0  0.00000000000E+00  0.00000000000E+00  0.99999998245E-14  0.12500000000E+03  0.12500000000E+03 0.  0.
        -11    1    3    3    0    0 -0.32717841710E+02  0.16397392550E+02  0.42488284464E+01  0.36842695233E+02  0.51100000000E-03 0.  1.
         23    2    1    0    0    0  0.17121581925E+02 -0.19553741729E+02  0.60220685743E+01  0.98321118968E+02  0.94632339832E+02 0.  0.
         11    1    3    3    0    0  0.49839423634E+02 -0.35951134279E+02  0.17732401279E+01  0.61478423735E+02  0.51100000000E-03 0. -1.
         22    1    1    0    0    0 -0.17121581925E+02  0.19553741729E+02 -0.60220685743E+01  0.26678881032E+02  0.00000000000E+00 0. -1.
</event>
<event>
 5    1  0.8875601E-005  0.9118800E+02  0.7818608E-02  0.1130116E+00
         25   -1    0    0    0    0  0.00000000000E+00  0.00000000000E+00  0.99999998245E-14  0.12500000000E+03  0.12500000000E+03 0.  0.
        -11    1    3    3    0    0 -0.36218857044E+02  0.10500895087E+02  0.33703104003E+02  0.50576413701E+02  0.51100000000E-03 0. -1.
         23    2    1    0    0    0  0.34175801439E+01 -0.12036407019E+02  0.25068258891E+02  0.96982638386E+02  0.92847507218E+02 0.  0.
         11    1    3    3    0    0  0.39636437188E+02 -0.22537302107E+02 -0.86348451119E+01  0.46406224685E+02  0.51100000000E-03 0.  1.
         22    1    1    0    0    0 -0.34175801439E+01  0.12036407019E+02 -0.25068258891E+02  0.28017361614E+02  0.00000000000E+00 0. -1.
</event>
<event>
 5    1  0.8875601E-005  0.9118800E+02  0.7818608E-02  0.1130116E+00
         25   -1    0    0    0    0  0.00000000000E+00  0.00000000000E+00  0.99999998245E-14  0.12500000000E+03  0.12500000000E+03 0.  0.
        -11    1    3    3    0    0  0.29435931063E+02 -0.23818831463E+02 -0.21786360115E+02  0.43685881669E+02  0.51100000000E-03 0. -1.
         23    2    1    0    0    0 -0.56221127631E+01 -0.21121768581E+02  0.17929275757E+02  0.96729941827E+02  0.92506677904E+02 0.  0.
         11    1    3    3    0    0 -0.35058043826E+02  0.26970628821E+01  0.39715635872E+02  0.53044060159E+02  0.51100000000E-03 0.  1.
         22    1    1    0    0    0  0.56221127631E+01  0.21121768581E+02 -0.17929275757E+02  0.28270058173E+02  0.00000000000E+00 0.  1.
</event>
<event>
 5    1  0.8875601E-005  0.9118800E+02  0.7818608E-02  0.1130116E+00
         25   -1    0    0    0    0  0.00000000000E+00  0.00000000000E+00  0.99999998245E-14  0.12500000000E+03  0.12500000000E+03 0.  0.
        -11    1    3    3    0    0 -0.75585104835E+01 -0.38748163942E+02 -0.10948778499E+01  0.39493670979E+02  0.51100000000E-03 0.  1.
         23    2    1    0    0    0  0.19675314227E+01  0.19880766240E+02  0.13786050773E+02  0.10072715010E+03  0.97758823263E+02 0.  0.
         11    1    3    3    0    0  0.95260419062E+01  0.58628930182E+02  0.14880928623E+02  0.61233479124E+02  0.51100000000E-03 0. -1.
         22    1    1    0    0    0 -0.19675314227E+01 -0.19880766240E+02 -0.13786050773E+02  0.24272849897E+02  0.00000000000E+00 0. -1.
</event>
<event>
 5    1  0.8875601E-005  0.9118800E+02  0.7818608E-02  0.1130116E+00
         25   -1    0    0    0    0  0.00000000000E+00  0.00000000000E+00  0.99999998245E-14  0.12500000000E+03  0.12500000000E+03 0.  0.
        -11    1    3    3    0    0 -0.23290853745E+02  0.23855023145E+02  0.12371639212E+02  0.35560982192E+02  0.51100000000E-03 0.  1.
         23    2    1    0    0    0  0.24914405264E+02  0.16354622775E+02 -0.15143385681E+02  0.91570620621E+02  0.85250543431E+02 0.  0.
         11    1    3    3    0    0  0.48205259009E+02 -0.75004003698E+01 -0.27515024893E+02  0.56009638429E+02  0.51100000000E-03 0. -1.
         22    1    1    0    0    0 -0.24914405264E+02 -0.16354622775E+02  0.15143385681E+02  0.33429379379E+02  0.00000000000E+00 0. -1.
</event>
<event>
 5    1  0.8875601E-005  0.9118800E+02  0.7818608E-02  0.1130116E+00
         25   -1    0    0    0    0  0.00000000000E+00  0.00000000000E+00  0.99999998245E-14  0.12500000000E+03  0.12500000000E+03 0.  0.
        -11    1    3    3    0    0 -0.39442457099E+02 -0.15919645518E+02 -0.17469918793E+02  0.45981959488E+02  0.51100000000E-03 0.  1.
         23    2    1    0    0    0 -0.19566837991E+02  0.77501287982E+01  0.20958982077E+02  0.95298071190E+02  0.90551188824E+02 0.  0.
         11    1    3    3    0    0  0.19875619108E+02  0.23669774316E+02  0.38428900870E+02  0.49316111702E+02  0.51100000000E-03 0. -1.
         22    1    1    0    0    0  0.19566837991E+02 -0.77501287982E+01 -0.20958982077E+02  0.29701928810E+02  0.00000000000E+00 0. -1.
</event>
<event>
 5    1  0.8875601E-005  0.9118800E+02  0.7818608E-02  0.1130116E+00
         25   -1    0    0    0    0  0.00000000000E+00  0.00000000000E+00  0.99999998245E-14  0.12500000000E+03  0.12500000000E+03 0.  0.
        -11    1    3    3    0    0 -0.67186855090E+01  0.78215272622E+01  0.31847212144E+02  0.33474795672E+02  0.51100000000E-03 0.  1.
         23    2    1    0    0    0  0.11973889445E+02 -0.53027094277E+00 -0.26826404742E+02  0.95617842028E+02  0.90991540854E+02 0.  0.
         11    1    3    3    0    0  0.18692574954E+02 -0.83517982050E+01 -0.58673616886E+02  0.62143046356E+02  0.51100000000E-03 0. -1.
         22    1    1    0    0    0 -0.11973889445E+02  0.53027094277E+00  0.26826404742E+02  0.29382157972E+02  0.00000000000E+00 0. -1.
</event>
<event>
 5    1  0.8875601E-005  0.9118800E+02  0.7818608E-02  0.1130116E+00
         25   -1    0    0    0    0  0.00000000000E+00  0.00000000000E+00  0.99999998245E-14  0.12500000000E+03  0.12500000000E+03 0.  0.
        -11    1    3    3    0    0  0.35297769495E+02  0.18589173033E+02 -0.46581460502E+02  0.61329620479E+02  0.51100000000E-03 0.  1.
         23    2    1    0    0    0  0.14839073036E+02  0.17390110907E+02 -0.23011446121E+02  0.92563281632E+02  0.86693831429E+02 0.  0.
         11    1    3    3    0    0 -0.20458696459E+02 -0.11990621258E+01  0.23570014381E+02  0.31233661152E+02  0.51100000000E-03 0. -1.
         22    1    1    0    0    0 -0.14839073036E+02 -0.17390110907E+02  0.23011446121E+02  0.32436718368E+02  0.00000000000E+00 0.  1.
</event>
<event>
 5    1  0.8875601E-005  0.9118800E+02  0.7818608E-02  0.1130116E+00
         25   -1    0    0    0    0  0.00000000000E+00  0.00000000000E+00  0.99999998245E-14  0.12500000000E+03  0.12500000000E+03 0.  0.
        -11    1    3    3    0    0  0.28680911717E+02 -0.18368966298E+02 -0.28770240146E+02  0.44584081667E+02  0.51100000000E-03 0.  1.
         23    2    1    0    0    0 -0.91735634190E+01  0.17137420640E+02  0.28434496418E+01  0.10535488209E+03  0.10350710372E+03 0.  0.
         11    1    3    3    0    0 -0.37854475136E+02  0.35506386938E+02  0.31613689788E+02  0.60770800419E+02  0.51100000000E-03 0. -1.
         22    1    1    0    0    0  0.91735634190E+01 -0.17137420640E+02 -0.28434496418E+01  0.19645117914E+02  0.00000000000E+00 0. -1.
</event>
<event>
 5    1  0.8875601E-005  0.9118800E+02  0.7818608E-02  0.1130116E+00
         25   -1    0    0    0    0  0.00000000000E+00  0.00000000000E+00  0.99999998245E-14  0.12500000000E+03  0.12500000000E+03 0.  0.
        -11    1    3    3    0    0  0.22757055878E+02 -0.46425297462E+02 -0.27218743879E+02  0.58429888373E+02  0.51100000000E-03 0.  1.
         23    2    1    0    0    0 -0.33701735420E+01 -0.26301304494E+02 -0.18886775806E+02  0.92445015924E+02  0.86523141304E+02 0.  0.
         11    1    3    3    0    0 -0.26127229420E+02  0.20123992967E+02  0.83319680732E+01  0.34015127551E+02  0.51100000000E-03 0. -1.
         22    1    1    0    0    0  0.33701735420E+01  0.26301304494E+02  0.18886775806E+02  0.32554984076E+02  0.00000000000E+00 0.  1.
</event>
<event>
 5    1  0.8875601E-005  0.9118800E+02  0.7818608E-02  0.1130116E+00
         25   -1    0    0    0    0  0.00000000000E+00  0.00000000000E+00  0.99999998245E-14  0.12500000000E+03  0.12500000000E+03 0.  0.
        -11    1    3    3    0    0  0.37098697177E+02 -0.41202821663E+02  0.27258924735E+02  0.61782156188E+02  0.51100000000E-03 0.  1.
         23    2    1    0    0    0  0.13589982405E+02 -0.14313117315E+02  0.17019908413E+02  0.98937954197E+02  0.95443640696E+02 0.  0.
         11    1    3    3    0    0 -0.23508714773E+02  0.26889704348E+02 -0.10239016322E+02  0.37155798009E+02  0.51100000000E-03 0. -1.
         22    1    1    0    0    0 -0.13589982405E+02  0.14313117315E+02 -0.17019908413E+02  0.26062045803E+02  0.00000000000E+00 0.  1.
</event>
<event>
 5    1  0.8875601E-005  0.9118800E+02  0.7818608E-02  0.1130116E+00
         25   -1    0    0    0    0  0.00000000000E+00  0.00000000000E+00  0.99999998245E-14  0.12500000000E+03  0.12500000000E+03 0.  0.
        -11    1    3    3    0    0  0.11007547249E+02  0.53796483264E+02  0.12140280409E+02  0.56237124008E+02  0.51100000000E-03 0.  1.
         23    2    1    0    0    0  0.23150320780E+02  0.19075150063E+02 -0.98599625717E-01  0.95003193103E+02  0.90143209815E+02 0.  0.
         11    1    3    3    0    0  0.12142773531E+02 -0.34721333201E+02 -0.12238880034E+02  0.38766069095E+02  0.51100000000E-03 0. -1.
         22    1    1    0    0    0 -0.23150320780E+02 -0.19075150063E+02  0.98599625717E-01  0.29996806897E+02  0.00000000000E+00 0. -1.
</event>
<event>
 5    1  0.8875601E-005  0.9118800E+02  0.7818608E-02  0.1130116E+00
         25   -1    0    0    0    0  0.00000000000E+00  0.00000000000E+00  0.99999998245E-14  0.12500000000E+03  0.12500000000E+03 0.  0.
        -11    1    3    3    0    0  0.59848929654E+02  0.39225231700E+01  0.51095734041E+01  0.60194587044E+02  0.51100000000E-03 0.  1.
         23    2    1    0    0    0  0.20791407815E+02 -0.15846732518E+01  0.13010827603E+02  0.10042205332E+03  0.97367927621E+02 0.  0.
         11    1    3    3    0    0 -0.39057521839E+02 -0.55071964218E+01  0.79012541987E+01  0.40227466274E+02  0.51100000000E-03 0. -1.
         22    1    1    0    0    0 -0.20791407815E+02  0.15846732518E+01 -0.13010827603E+02  0.24577946683E+02  0.00000000000E+00 0.  1.
</event>
<event>
 5    1  0.8875601E-005  0.9118800E+02  0.7818608E-02  0.1130116E+00
         25   -1    0    0    0    0  0.00000000000E+00  0.00000000000E+00  0.99999998245E-14  0.12500000000E+03  0.12500000000E+03 0.  0.
        -11    1    3    3    0    0 -0.42893806069E+02  0.97071846812E+01  0.81516424997E+01  0.44727590022E+02  0.51100000000E-03 0.  1.
         23    2    1    0    0    0  0.63199953353E+01  0.26925886124E+02  0.43168369707E+01  0.97007487322E+02  0.92880955155E+02 0.  0.
         11    1    3    3    0    0  0.49213801404E+02  0.17218701443E+02 -0.38348055290E+01  0.52279897300E+02  0.51100000000E-03 0. -1.
         22    1    1    0    0    0 -0.63199953353E+01 -0.26925886124E+02 -0.43168369707E+01  0.27992512678E+02  0.00000000000E+00 0.  1.
</event>
<event>
 5    1  0.8875601E-005  0.9118800E+02  0.7818608E-02  0.1130116E+00
         25   -1    0    0    0    0  0.00000000000E+00  0.00000000000E+00  0.99999998245E-14  0.12500000000E+03  0.12500000000E+03 0.  0.
        -11    1    3    3    0    0 -0.62237120691E+01 -0.15658009667E+02 -0.28769130548E+02  0.33340226924E+02  0.51100000000E-03 0. -1.
         23    2    1    0    0    0 -0.10073389829E+01  0.20901863496E+02  0.21025985852E+02  0.95335295207E+02  0.90602559576E+02 0.  0.
         11    1    3    3    0    0  0.52163730863E+01  0.36559873163E+02  0.49795116400E+02  0.61995068282E+02  0.51100000000E-03 0.  1.
         22    1    1    0    0    0  0.10073389829E+01 -0.20901863496E+02 -0.21025985852E+02  0.29664704793E+02  0.00000000000E+00 0.  1.
</event>
<event>
 5    1  0.8875601E-005  0.9118800E+02  0.7818608E-02  0.1130116E+00
         25   -1    0    0    0    0  0.00000000000E+00  0.00000000000E+00  0.99999998245E-14  0.12500000000E+03  0.12500000000E+03 0.  0.
        -11    1    3    3    0    0  0.22920036203E+02 -0.25963588975E+02 -0.36514844616E+02  0.50326632011E+02  0.51100000000E-03 0.  1.
         23    2    1    0    0    0  0.22072963522E+02 -0.23336784766E+02  0.54815940411E+01  0.92413666744E+02  0.86477839277E+02 0.  0.
         11    1    3    3    0    0 -0.84707268170E+00  0.26268042090E+01  0.41996438657E+02  0.42087034733E+02  0.51100000000E-03 0. -1.
         22    1    1    0    0    0 -0.22072963522E+02  0.23336784766E+02 -0.54815940411E+01  0.32586333256E+02  0.00000000000E+00 0.  1.
</event>
<event>
 5    1  0.8875601E-005  0.9118800E+02  0.7818608E-02  0.1130116E+00
         25   -1    0    0    0    0  0.00000000000E+00  0.00000000000E+00  0.99999998245E-14  0.12500000000E+03  0.12500000000E+03 0.  0.
        -11    1    3    3    0    0  0.40270973705E+01  0.21314511861E+02 -0.28613269739E+02  0.35906059858E+02  0.51100000000E-03 0.  1.
         23    2    1    0    0    0  0.19501833905E+02 -0.86305848310E+01  0.20463766776E+02  0.95443710131E+02  0.90752011177E+02 0.  0.
         11    1    3    3    0    0  0.15474736535E+02 -0.29945096691E+02  0.49077036515E+02  0.59537650273E+02  0.51100000000E-03 0. -1.
         22    1    1    0    0    0 -0.19501833905E+02  0.86305848310E+01 -0.20463766776E+02  0.29556289869E+02  0.00000000000E+00 0. -1.
</event>
<event>
 5    1  0.8875601E-005  0.9118800E+02  0.7818608E-02  0.1130116E+00
         25   -1    0    0    0    0  0.00000000000E+00  0.00000000000E+00  0.99999998245E-14  0.12500000000E+03  0.12500000000E+03 0.  0.
        -11    1    3    3    0    0  0.78347572577E-01 -0.15240821371E+02  0.35212642811E+02  0.38369505970E+02  0.51100000000E-03 0.  1.
         23    2    1    0    0    0 -0.11439927587E+02 -0.13259930685E+02 -0.22066355234E+02  0.96828707195E+02  0.92640038854E+02 0.  0.
         11    1    3    3    0    0 -0.11518275160E+02  0.19808906860E+01 -0.57278998045E+02  0.58459201225E+02  0.51100000000E-03 0. -1.
         22    1    1    0    0    0  0.11439927587E+02  0.13259930685E+02  0.22066355234E+02  0.28171292805E+02  0.00000000000E+00 0. -1.
</event>
<event>
 5    1  0.8875601E-005  0.9118800E+02  0.7818608E-02  0.1130116E+00
         25   -1    0    0    0    0  0.00000000000E+00  0.00000000000E+00  0.99999998245E-14  0.12500000000E+03  0.12500000000E+03 0.  0.
        -11    1    3    3    0    0 -0.67775422340E+01  0.53257508817E+02 -0.20259395398E+01  0.53725243186E+02  0.51100000000E-03 0.  1.
         23    2    1    0    0    0  0.19889809026E+02  0.18707659962E+02 -0.39411335420E+01  0.97411713030E+02  0.93423381749E+02 0.  0.
         11    1    3    3    0    0  0.26667351260E+02 -0.34549848854E+02 -0.19151940022E+01  0.43686469844E+02  0.51100000000E-03 0. -1.
         22    1    1    0    0    0 -0.19889809026E+02 -0.18707659962E+02  0.39411335420E+01  0.27588286970E+02  0.00000000000E+00 0.  1.
</event>
<event>
 5    1  0.8875601E-005  0.9118800E+02  0.7818608E-02  0.1130116E+00
         25   -1    0    0    0    0  0.00000000000E+00  0.00000000000E+00  0.99999998245E-14  0.12500000000E+03  0.12500000000E+03 0.  0.
        -11    1    3    3    0    0  0.10600159203E+02  0.96868878679E+01 -0.32981012606E+02  0.35971465976E+02  0.51100000000E-03 0.  1.
         23    2    1    0    0    0 -0.64517842012E+01 -0.21441755242E+02  0.16727100664E+02  0.97050576323E+02  0.92938926618E+02 0.  0.
         11    1    3    3    0    0 -0.17051943404E+02 -0.31128643110E+02  0.49708113270E+02  0.61079110347E+02  0.51100000000E-03 0. -1.
         22    1    1    0    0    0  0.64517842012E+01  0.21441755242E+02 -0.16727100664E+02  0.27949423677E+02  0.00000000000E+00 0. -1.
</event>
<event>
 5    1  0.8875601E-005  0.9118800E+02  0.7818608E-02  0.1130116E+00
         25   -1    0    0    0    0  0.00000000000E+00  0.00000000000E+00  0.99999998245E-14  0.12500000000E+03  0.12500000000E+03 0.  0.
        -11    1    3    3    0    0  0.78227230906E+01  0.29368224290E+02  0.33469682814E+02  0.45209592593E+02  0.51100000000E-03 0.  1.
         23    2    1    0    0    0  0.25482387348E+02 -0.11464741216E+02  0.13051990149E+02  0.94159331996E+02  0.88965347181E+02 0.  0.
         11    1    3    3    0    0  0.17659664257E+02 -0.40832965505E+02 -0.20417692665E+02  0.48949739403E+02  0.51100000000E-03 0. -1.
         22    1    1    0    0    0 -0.25482387348E+02  0.11464741216E+02 -0.13051990149E+02  0.30840668004E+02  0.00000000000E+00 0. -1.
</event>
<event>
 5    1  0.8875601E-005  0.9118800E+02  0.7818608E-02  0.1130116E+00
         25   -1    0    0    0    0  0.00000000000E+00  0.00000000000E+00  0.99999998245E-14  0.12500000000E+03  0.12500000000E+03 0.  0.
        -11    1    3    3    0    0  0.29729237148E+02  0.17480173804E+02 -0.62408887520E+01  0.35047577809E+02  0.51100000000E-03 0. -1.
         23    2    1    0    0    0 -0.28984212081E+02  0.24652192935E+01 -0.70878791907E+00  0.95902504637E+02  0.91381760539E+02 0.  0.
         11    1    3    3    0    0 -0.58713449229E+02 -0.15014954511E+02  0.55321008329E+01  0.60854926827E+02  0.51100000000E-03 0.  1.
         22    1    1    0    0    0  0.28984212081E+02 -0.24652192935E+01  0.70878791907E+00  0.29097495363E+02  0.00000000000E+00 0.  1.
</event>
<event>
 5    1  0.8875601E-005  0.9118800E+02  0.7818608E-02  0.1130116E+00
         25   -1    0    0    0    0  0.00000000000E+00  0.00000000000E+00  0.99999998245E-14  0.12500000000E+03  0.12500000000E+03 0.  0.
        -11    1    3    3    0    0 -0.31027667707E+00 -0.23168602308E+02 -0.42968677872E+02  0.48817903303E+02  0.51100000000E-03 0. -1.
         23    2    1    0    0    0 -0.81311284316E+01 -0.25327751338E+02  0.53950630891E+01  0.97857469846E+02  0.94017910323E+02 0.  0.
         11    1    3    3    0    0 -0.78208517545E+01 -0.21591490298E+01  0.48363740961E+02  0.49039566543E+02  0.51100000000E-03 0.  1.
         22    1    1    0    0    0  0.81311284316E+01  0.25327751338E+02 -0.53950630891E+01  0.27142530154E+02  0.00000000000E+00 0. -1.
</event>
<event>
 5    1  0.8875601E-005  0.9118800E+02  0.7818608E-02  0.1130116E+00
         25   -1    0    0    0    0  0.00000000000E+00  0.00000000000E+00  0.99999998245E-14  0.12500000000E+03  0.12500000000E+03 0.  0.
        -11    1    3    3    0    0 -0.47464262910E+02 -0.12159601909E+02 -0.36562960893E+02  0.61135605678E+02  0.51100000000E-03 0. -1.
         23    2    1    0    0    0 -0.18375342379E+02 -0.14121142769E+02 -0.15072675126E+02  0.97355011013E+02  0.93347483915E+02 0.  0.
         11    1    3    3    0    0  0.29088920531E+02 -0.19615408598E+01  0.21490285766E+02  0.36219405334E+02  0.51100000000E-03 0.  1.
         22    1    1    0    0    0  0.18375342379E+02  0.14121142769E+02  0.15072675126E+02  0.27644988987E+02  0.00000000000E+00 0. -1.
</event>
<event>
 5    1  0.8875601E-005  0.9118800E+02  0.7818608E-02  0.1130116E+00
         25   -1    0    0    0    0  0.00000000000E+00  0.00000000000E+00  0.99999998245E-14  0.12500000000E+03  0.12500000000E+03 0.  0.
        -11    1    3    3    0    0 -0.42226858956E+02 -0.27115772709E+02 -0.23186768198E+02  0.55281090498E+02  0.51100000000E-03 0. -1.
         23    2    1    0    0    0 -0.18359593178E+02  0.49188729762E+01 -0.22912099808E+02  0.95230312554E+02  0.90457604095E+02 0.  0.
         11    1    3    3    0    0  0.23867265778E+02  0.32034645686E+02  0.27466838993E+00  0.39949222056E+02  0.51100000000E-03 0.  1.
         22    1    1    0    0    0  0.18359593178E+02 -0.49188729762E+01  0.22912099808E+02  0.29769687446E+02  0.00000000000E+00 0. -1.
</event>
<event>
 5    1  0.8875601E-005  0.9118800E+02  0.7818608E-02  0.1130116E+00
         25   -1    0    0    0    0  0.00000000000E+00  0.00000000000E+00  0.99999998245E-14  0.12500000000E+03  0.12500000000E+03 0.  0.
        -11    1    3    3    0    0  0.32171831372E+02 -0.16437711775E+02 -0.37723269205E+02  0.52232845433E+02  0.51100000000E-03 0. -1.
         23    2    1    0    0    0  0.30432896911E+02  0.96572840907E+01 -0.74962868196E+01  0.92203374160E+02  0.86173334275E+02 0.  0.
         11    1    3    3    0    0 -0.17389344611E+01  0.26094995866E+02  0.30226982386E+02  0.39970528727E+02  0.51100000000E-03 0.  1.
         22    1    1    0    0    0 -0.30432896911E+02 -0.96572840907E+01  0.74962868196E+01  0.32796625840E+02  0.00000000000E+00 0. -1.
</event>
<event>
 5    1  0.8875601E-005  0.9118800E+02  0.7818608E-02  0.1130116E+00
         25   -1    0    0    0    0  0.00000000000E+00  0.00000000000E+00  0.99999998245E-14  0.12500000000E+03  0.12500000000E+03 0.  0.
        -11    1    3    3    0    0 -0.90329368077E+01 -0.58224519681E+02  0.86923571640E+01  0.59558758489E+02  0.51100000000E-03 0.  1.
         23    2    1    0    0    0 -0.15548306123E+02 -0.24272678797E+02 -0.29168165334E+01  0.96027244212E+02  0.91552231283E+02 0.  0.
         11    1    3    3    0    0 -0.65153693155E+01  0.33951840884E+02 -0.11609173697E+02  0.36468485723E+02  0.51100000000E-03 0. -1.
         22    1    1    0    0    0  0.15548306123E+02  0.24272678797E+02  0.29168165334E+01  0.28972755788E+02  0.00000000000E+00 0.  1.
</event>
<event>
 5    1  0.8875601E-005  0.9118800E+02  0.7818608E-02  0.1130116E+00
         25   -1    0    0    0    0  0.00000000000E+00  0.00000000000E+00  0.99999998245E-14  0.12500000000E+03  0.12500000000E+03 0.  0.
        -11    1    3    3    0    0  0.39367049614E+02 -0.57661152638E+01 -0.34083338501E+02  0.52389757054E+02  0.51100000000E-03 0.  1.
         23    2    1    0    0    0  0.12751478721E+02 -0.26716601439E+02 -0.10820372255E+02  0.93480839831E+02  0.88006874491E+02 0.  0.
         11    1    3    3    0    0 -0.26615570893E+02 -0.20950486175E+02  0.23262966246E+02  0.41091082777E+02  0.51100000000E-03 0. -1.
         22    1    1    0    0    0 -0.12751478721E+02  0.26716601439E+02  0.10820372255E+02  0.31519160169E+02  0.00000000000E+00 0.  1.
</event>
<event>
 5    1  0.8875601E-005  0.9118800E+02  0.7818608E-02  0.1130116E+00
         25   -1    0    0    0    0  0.00000000000E+00  0.00000000000E+00  0.99999998245E-14  0.12500000000E+03  0.12500000000E+03 0.  0.
        -11    1    3    3    0    0 -0.33589958391E+02  0.43145169650E+02  0.14570481815E+01  0.54698390822E+02  0.51100000000E-03 0.  1.
         23    2    1    0    0    0 -0.26358488197E+02  0.36228716666E+01  0.11345376550E+02  0.96075742564E+02  0.91618424135E+02 0.  0.
         11    1    3    3    0    0  0.72314701934E+01 -0.39522297983E+02  0.98883283683E+01  0.41377351743E+02  0.51100000000E-03 0. -1.
         22    1    1    0    0    0  0.26358488197E+02 -0.36228716666E+01 -0.11345376550E+02  0.28924257436E+02  0.00000000000E+00 0.  1.
</event>
<event>
 5    1  0.8875601E-005  0.9118800E+02  0.7818608E-02  0.1130116E+00
         25   -1    0    0    0    0  0.00000000000E+00  0.00000000000E+00  0.99999998245E-14  0.12500000000E+03  0.12500000000E+03 0.  0.
        -11    1    3    3    0    0 -0.29440484383E+02 -0.13954569472E+02  0.13877459898E+02  0.35412653436E+02  0.51100000000E-03 0.  1.
         23    2    1    0    0    0  0.14683345689E+02 -0.22781080385E+00 -0.25135775987E+02  0.95888837659E+02  0.91363063734E+02 0.  0.
         11    1    3    3    0    0  0.44123830072E+02  0.13726758668E+02 -0.39013235885E+02  0.60476184223E+02  0.51100000000E-03 0. -1.
         22    1    1    0    0    0 -0.14683345689E+02  0.22781080385E+00  0.25135775987E+02  0.29111162341E+02  0.00000000000E+00 0. -1.
</event>
<event>
 5    1  0.8875601E-005  0.9118800E+02  0.7818608E-02  0.1130116E+00
         25   -1    0    0    0    0  0.00000000000E+00  0.00000000000E+00  0.99999998245E-14  0.12500000000E+03  0.12500000000E+03 0.  0.
        -11    1    3    3    0    0  0.32210979140E+02  0.68623455166E+01  0.86945546917E+01  0.34062211389E+02  0.51100000000E-03 0.  1.
         23    2    1    0    0    0 -0.24068761062E+02 -0.16664652606E+02 -0.31552226459E+00  0.95723465714E+02  0.91136526313E+02 0.  0.
         11    1    3    3    0    0 -0.56279740202E+02 -0.23526998122E+02 -0.90100769563E+01  0.61661254325E+02  0.51100000000E-03 0. -1.
         22    1    1    0    0    0  0.24068761062E+02  0.16664652606E+02  0.31552226459E+00  0.29276534286E+02  0.00000000000E+00 0. -1.
</event>
<event>
 5    1  0.8875601E-005  0.9118800E+02  0.7818608E-02  0.1130116E+00
         25   -1    0    0    0    0  0.00000000000E+00  0.00000000000E+00  0.99999998245E-14  0.12500000000E+03  0.12500000000E+03 0.  0.
        -11    1    3    3    0    0  0.55475929353E+02 -0.25159594173E+00 -0.85420911026E+01  0.56130289139E+02  0.51100000000E-03 0.  1.
         23    2    1    0    0    0  0.22317888312E+02 -0.16845435927E+02  0.67446706741E+01  0.96236352234E+02  0.91837291220E+02 0.  0.
         11    1    3    3    0    0 -0.33158041041E+02 -0.16593839986E+02  0.15286761777E+02  0.40106063096E+02  0.51100000000E-03 0. -1.
         22    1    1    0    0    0 -0.22317888312E+02  0.16845435927E+02 -0.67446706741E+01  0.28763647766E+02  0.00000000000E+00 0.  1.
</event>
<event>
 5    1  0.8875601E-005  0.9118800E+02  0.7818608E-02  0.1130116E+00
         25   -1    0    0    0    0  0.00000000000E+00  0.00000000000E+00  0.99999998245E-14  0.12500000000E+03  0.12500000000E+03 0.  0.
        -11    1    3    3    0    0  0.46717031577E+02  0.28767242393E+02 -0.11768521493E+02  0.56111793525E+02  0.51100000000E-03 0. -1.
         23    2    1    0    0    0  0.18938437129E+02  0.27211408042E+02 -0.21384126191E+02  0.85548688470E+02  0.75908972575E+02 0.  0.
         11    1    3    3    0    0 -0.27778594448E+02 -0.15558343510E+01 -0.96156046984E+01  0.29436894945E+02  0.51100000000E-03 0.  1.
         22    1    1    0    0    0 -0.18938437129E+02 -0.27211408042E+02  0.21384126191E+02  0.39451311530E+02  0.00000000000E+00 0. -1.
</event>
<event>
 5    1  0.8875601E-005  0.9118800E+02  0.7818608E-02  0.1130116E+00
         25   -1    0    0    0    0  0.00000000000E+00  0.00000000000E+00  0.99999998245E-14  0.12500000000E+03  0.12500000000E+03 0.  0.
        -11    1    3    3    0    0  0.13174252007E+02  0.32413477972E+02 -0.20835662239E+02  0.40722466667E+02  0.51100000000E-03 0.  1.
         23    2    1    0    0    0  0.56859678694E+01  0.95660414938E+01  0.27843193342E+02  0.95015290631E+02  0.90159983683E+02 0.  0.
         11    1    3    3    0    0 -0.74882841380E+01 -0.22847436478E+02  0.48678855582E+02  0.54292823964E+02  0.51100000000E-03 0. -1.
         22    1    1    0    0    0 -0.56859678694E+01 -0.95660414938E+01 -0.27843193342E+02  0.29984709369E+02  0.00000000000E+00 0. -1.
</event>
<event>
 5    1  0.8875601E-005  0.9118800E+02  0.7818608E-02  0.1130116E+00
         25   -1    0    0    0    0  0.00000000000E+00  0.00000000000E+00  0.99999998245E-14  0.12500000000E+03  0.12500000000E+03 0.  0.
        -11    1    3    3    0    0  0.64233119571E+01  0.35633617065E+02 -0.38273604754E+02  0.52686643685E+02  0.51100000000E-03 0. -1.
         23    2    1    0    0    0  0.13148289829E+02  0.27317042959E+02  0.22520053033E+01  0.94599837347E+02  0.89582137376E+02 0.  0.
         11    1    3    3    0    0  0.67249778719E+01 -0.83165741067E+01  0.40525610057E+02  0.41913193663E+02  0.51100000000E-03 0.  1.
         22    1    1    0    0    0 -0.13148289829E+02 -0.27317042959E+02 -0.22520053033E+01  0.30400162653E+02  0.00000000000E+00 0. -1.
</event>
<event>
 5    1  0.8875601E-005  0.9118800E+02  0.7818608E-02  0.1130116E+00
         25   -1    0    0    0    0  0.00000000000E+00  0.00000000000E+00  0.99999998245E-14  0.12500000000E+03  0.12500000000E+03 0.  0.
        -11    1    3    3    0    0  0.16458686860E+02  0.91669794881E+00 -0.54067951098E+02  0.56524968328E+02  0.51100000000E-03 0.  1.
         23    2    1    0    0    0 -0.25771105817E+01 -0.16018121699E+02 -0.25207269878E+02  0.95022872446E+02  0.90170494684E+02 0.  0.
         11    1    3    3    0    0 -0.19035797441E+02 -0.16934819647E+02  0.28860681220E+02  0.38497904118E+02  0.51100000000E-03 0. -1.
         22    1    1    0    0    0  0.25771105817E+01  0.16018121699E+02  0.25207269878E+02  0.29977127554E+02  0.00000000000E+00 0.  1.
</event>
<event>
 5    1  0.8875601E-005  0.9118800E+02  0.7818608E-02  0.1130116E+00
         25   -1    0    0    0    0  0.00000000000E+00  0.00000000000E+00  0.99999998245E-14  0.12500000000E+03  0.12500000000E+03 0.  0.
        -11    1    3    3    0    0 -0.36914637212E+01  0.32379098765E+02  0.11858742310E+02  0.34679427773E+02  0.51100000000E-03 0. -1.
         23    2    1    0    0    0 -0.38056726878E+01 -0.28330322743E+02  0.69200230311E+01  0.95589507823E+02  0.90952608296E+02 0.  0.
         11    1    3    3    0    0 -0.11420896661E+00 -0.60709421507E+02 -0.49387192784E+01  0.60910080051E+02  0.51100000000E-03 0.  1.
         22    1    1    0    0    0  0.38056726878E+01  0.28330322743E+02 -0.69200230311E+01  0.29410492177E+02  0.00000000000E+00 0.  1.
</event>
<event>
 5    1  0.8875601E-005  0.9118800E+02  0.7818608E-02  0.1130116E+00
         25   -1    0    0    0    0  0.00000000000E+00  0.00000000000E+00  0.99999998245E-14  0.12500000000E+03  0.12500000000E+03 0.  0.
        -11    1    3    3    0    0 -0.85651826784E+01  0.44215528366E+01  0.51193793431E+02  0.52093348615E+02  0.51100000000E-03 0. -1.
         23    2    1    0    0    0  0.17119761651E+02  0.15383094668E+02  0.16247413833E+02  0.96827241938E+02  0.92638061749E+02 0.  0.
         11    1    3    3    0    0  0.25684944329E+02  0.10961541831E+02 -0.34946379599E+02  0.44733893323E+02  0.51100000000E-03 0.  1.
         22    1    1    0    0    0 -0.17119761651E+02 -0.15383094668E+02 -0.16247413833E+02  0.28172758062E+02  0.00000000000E+00 0. -1.
</event>
<event>
 5    1  0.8875601E-005  0.9118800E+02  0.7818608E-02  0.1130116E+00
         25   -1    0    0    0    0  0.00000000000E+00  0.00000000000E+00  0.99999998245E-14  0.12500000000E+03  0.12500000000E+03 0.  0.
        -11    1    3    3    0    0 -0.16094148149E+02 -0.22346490137E+02 -0.21823430694E+02  0.35137577514E+02  0.51100000000E-03 0.  1.
         23    2    1    0    0    0  0.95824297541E+01  0.27914711407E+02 -0.46799839034E+00  0.95482664494E+02  0.90805650283E+02 0.  0.
         11    1    3    3    0    0  0.25676577903E+02  0.50261201543E+02  0.21355432304E+02  0.60345086979E+02  0.51100000000E-03 0. -1.
         22    1    1    0    0    0 -0.95824297541E+01 -0.27914711407E+02  0.46799839034E+00  0.29517335506E+02  0.00000000000E+00 0. -1.
</event>
<event>
 5    1  0.8875601E-005  0.9118800E+02  0.7818608E-02  0.1130116E+00
         25   -1    0    0    0    0  0.00000000000E+00  0.00000000000E+00  0.99999998245E-14  0.12500000000E+03  0.12500000000E+03 0.  0.
        -11    1    3    3    0    0 -0.49908808363E+02  0.23997939500E+02 -0.20523629190E+02  0.59059373581E+02  0.51100000000E-03 0. -1.
         23    2    1    0    0    0 -0.26848774277E+02 -0.29667085064E+01 -0.11303213593E+02  0.95718253517E+02  0.91129377148E+02 0.  0.
         11    1    3    3    0    0  0.23060034085E+02 -0.26964648006E+02  0.92204155975E+01  0.36658879936E+02  0.51100000000E-03 0.  1.
         22    1    1    0    0    0  0.26848774277E+02  0.29667085064E+01  0.11303213593E+02  0.29281746483E+02  0.00000000000E+00 0. -1.
</event>
<event>
 5    1  0.8875601E-005  0.9118800E+02  0.7818608E-02  0.1130116E+00
         25   -1    0    0    0    0  0.00000000000E+00  0.00000000000E+00  0.99999998245E-14  0.12500000000E+03  0.12500000000E+03 0.  0.
        -11    1    3    3    0    0  0.50654376686E+00 -0.25265450731E+02 -0.33326800673E+02  0.41824337778E+02  0.51100000000E-03 0. -1.
         23    2    1    0    0    0  0.32059783685E+02  0.20243494895E+01 -0.44301070763E+01  0.92572333271E+02  0.86706881605E+02 0.  0.
         11    1    3    3    0    0  0.31553239918E+02  0.27289800220E+02  0.28896693597E+02  0.50747995492E+02  0.51100000000E-03 0.  1.
         22    1    1    0    0    0 -0.32059783685E+02 -0.20243494895E+01  0.44301070763E+01  0.32427666729E+02  0.00000000000E+00 0.  1.
</event>
<event>
 5    1  0.8875601E-005  0.9118800E+02  0.7818608E-02  0.1130116E+00
         25   -1    0    0    0    0  0.00000000000E+00  0.00000000000E+00  0.99999998245E-14  0.12500000000E+03  0.12500000000E+03 0.  0.
        -11    1    3    3    0    0  0.36767180591E+02  0.89181898820E+01 -0.15756223795E+02  0.40983146145E+02  0.51100000000E-03 0. -1.
         23    2    1    0    0    0 -0.17785388474E+02  0.73245414373E+01 -0.21840562673E+02  0.95897094161E+02  0.91374359315E+02 0.  0.
         11    1    3    3    0    0 -0.54552569064E+02 -0.15936484447E+01 -0.60843388779E+01  0.54913948016E+02  0.51100000000E-03 0.  1.
         22    1    1    0    0    0  0.17785388474E+02 -0.73245414373E+01  0.21840562673E+02  0.29102905839E+02  0.00000000000E+00 0.  1.
</event>
<event>
 5    1  0.8875601E-005  0.9118800E+02  0.7818608E-02  0.1130116E+00
         25   -1    0    0    0    0  0.00000000000E+00  0.00000000000E+00  0.99999998245E-14  0.12500000000E+03  0.12500000000E+03 0.  0.
        -11    1    3    3    0    0  0.24173257571E+02  0.34423468690E+02  0.57275858260E+01  0.42451464261E+02  0.51100000000E-03 0.  1.
         23    2    1    0    0    0  0.13104044176E+02 -0.78328528147E+01 -0.24894021955E+02  0.95797570545E+02  0.91238109561E+02 0.  0.
         11    1    3    3    0    0 -0.11069213395E+02 -0.42256321505E+02 -0.30621607781E+02  0.53346106284E+02  0.51100000000E-03 0. -1.
         22    1    1    0    0    0 -0.13104044176E+02  0.78328528147E+01  0.24894021955E+02  0.29202429455E+02  0.00000000000E+00 0.  1.
</event>
<event>
 5    1  0.8875601E-005  0.9118800E+02  0.7818608E-02  0.1130116E+00
         25   -1    0    0    0    0  0.00000000000E+00  0.00000000000E+00  0.99999998245E-14  0.12500000000E+03  0.12500000000E+03 0.  0.
        -11    1    3    3    0    0  0.43068204547E+02 -0.22704969396E+02  0.18616189315E+02  0.52124354989E+02  0.51100000000E-03 0. -1.
         23    2    1    0    0    0  0.29250362943E+02  0.28165114328E+01 -0.11030994652E+02  0.93612115204E+02  0.88193133526E+02 0.  0.
         11    1    3    3    0    0 -0.13817841604E+02  0.25521480828E+02 -0.29647183967E+02  0.41487760215E+02  0.51100000000E-03 0.  1.
         22    1    1    0    0    0 -0.29250362943E+02 -0.28165114328E+01  0.11030994652E+02  0.31387884796E+02  0.00000000000E+00 0. -1.
</event>
<event>
 5    1  0.8875601E-005  0.9118800E+02  0.7818608E-02  0.1130116E+00
         25   -1    0    0    0    0  0.00000000000E+00  0.00000000000E+00  0.99999998245E-14  0.12500000000E+03  0.12500000000E+03 0.  0.
        -11    1    3    3    0    0  0.21238219562E+01  0.40363765472E+02  0.17259171665E+02  0.43950235376E+02  0.51100000000E-03 0.  1.
         23    2    1    0    0    0 -0.37806530989E+01 -0.97976888317E+01  0.27568127238E+02  0.95499327402E+02  0.90828584986E+02 0.  0.
         11    1    3    3    0    0 -0.59044750551E+01 -0.50161454303E+02  0.10308955573E+02  0.51549092027E+02  0.51100000000E-03 0. -1.
         22    1    1    0    0    0  0.37806530989E+01  0.97976888317E+01 -0.27568127238E+02  0.29500672598E+02  0.00000000000E+00 0.  1.
</event>
<event>
 5    1  0.8875601E-005  0.9118800E+02  0.7818608E-02  0.1130116E+00
         25   -1    0    0    0    0  0.00000000000E+00  0.00000000000E+00  0.99999998245E-14  0.12500000000E+03  0.12500000000E+03 0.  0.
        -11    1    3    3    0    0 -0.15262960144E+02 -0.25117762629E+02 -0.34231443747E+02  0.45118196918E+02  0.51100000000E-03 0.  1.
         23    2    1    0    0    0  0.32316395049E+00  0.21299791441E+02 -0.19157651551E+02  0.96350372370E+02  0.91992353446E+02 0.  0.
         11    1    3    3    0    0  0.15586124095E+02  0.46417554070E+02  0.15073792196E+02  0.51232175452E+02  0.51100000000E-03 0. -1.
         22    1    1    0    0    0 -0.32316395049E+00 -0.21299791441E+02  0.19157651551E+02  0.28649627630E+02  0.00000000000E+00 0.  1.
</event>
<event>
 5    1  0.8875601E-005  0.9118800E+02  0.7818608E-02  0.1130116E+00
         25   -1    0    0    0    0  0.00000000000E+00  0.00000000000E+00  0.99999998245E-14  0.12500000000E+03  0.12500000000E+03 0.  0.
        -11    1    3    3    0    0 -0.66640156416E+01 -0.26102072291E+02  0.21425060636E+02  0.34420350171E+02  0.51100000000E-03 0. -1.
         23    2    1    0    0    0  0.14490253964E+02  0.21170487995E+02 -0.12631235499E+02  0.96404456079E+02  0.92065813524E+02 0.  0.
         11    1    3    3    0    0  0.21154269606E+02  0.47272560286E+02 -0.34056296135E+02  0.61984105908E+02  0.51100000000E-03 0.  1.
         22    1    1    0    0    0 -0.14490253964E+02 -0.21170487995E+02  0.12631235499E+02  0.28595543921E+02  0.00000000000E+00 0.  1.
</event>
<event>
 5    1  0.8875601E-005  0.9118800E+02  0.7818608E-02  0.1130116E+00
         25   -1    0    0    0    0  0.00000000000E+00  0.00000000000E+00  0.99999998245E-14  0.12500000000E+03  0.12500000000E+03 0.  0.
        -11    1    3    3    0    0  0.23509109335E+02 -0.23763379871E+02 -0.10425804516E+02  0.35015337278E+02  0.51100000000E-03 0.  1.
         23    2    1    0    0    0 -0.10089292718E+02  0.25051692645E+02 -0.14372403633E+02  0.94406747180E+02  0.89312299236E+02 0.  0.
         11    1    3    3    0    0 -0.33598402053E+02  0.48815072516E+02 -0.39465991165E+01  0.59391409902E+02  0.51100000000E-03 0. -1.
         22    1    1    0    0    0  0.10089292718E+02 -0.25051692645E+02  0.14372403633E+02  0.30593252820E+02  0.00000000000E+00 0. -1.
</event>
<event>
 5    1  0.8875601E-005  0.9118800E+02  0.7818608E-02  0.1130116E+00
         25   -1    0    0    0    0  0.00000000000E+00  0.00000000000E+00  0.99999998245E-14  0.12500000000E+03  0.12500000000E+03 0.  0.
        -11    1    3    3    0    0 -0.18424624869E+02  0.15708547872E+02  0.24918628928E+02  0.34744256298E+02  0.51100000000E-03 0.  1.
         23    2    1    0    0    0  0.63752888112E+01 -0.23960500169E+02 -0.14809169699E+02  0.96119879105E+02  0.91678622242E+02 0.  0.
         11    1    3    3    0    0  0.24799913680E+02 -0.39669048040E+02 -0.39727798627E+02  0.61375622807E+02  0.51100000000E-03 0. -1.
         22    1    1    0    0    0 -0.63752888112E+01  0.23960500169E+02  0.14809169699E+02  0.28880120895E+02  0.00000000000E+00 0. -1.
</event>
<event>
 5    1  0.8875601E-005  0.9118800E+02  0.7818608E-02  0.1130116E+00
         25   -1    0    0    0    0  0.00000000000E+00  0.00000000000E+00  0.99999998245E-14  0.12500000000E+03  0.12500000000E+03 0.  0.
        -11    1    3    3    0    0  0.20548510776E+02  0.25872901943E+02 -0.14322170337E+02  0.36010733309E+02  0.51100000000E-03 0.  1.
         23    2    1    0    0    0 -0.30270687525E+01 -0.22887034942E+02  0.14871824005E+02  0.97538196292E+02  0.93592462693E+02 0.  0.
         11    1    3    3    0    0 -0.23575579528E+02 -0.48759936885E+02  0.29193994342E+02  0.61527462982E+02  0.51100000000E-03 0. -1.
         22    1    1    0    0    0  0.30270687525E+01  0.22887034942E+02 -0.14871824005E+02  0.27461803708E+02  0.00000000000E+00 0. -1.
</event>
<event>
 5    1  0.8875601E-005  0.9118800E+02  0.7818608E-02  0.1130116E+00
         25   -1    0    0    0    0  0.00000000000E+00  0.00000000000E+00  0.99999998245E-14  0.12500000000E+03  0.12500000000E+03 0.  0.
        -11    1    3    3    0    0 -0.85105019979E+01 -0.33499546109E+02 -0.28270449001E+02  0.44652732511E+02  0.51100000000E-03 0. -1.
         23    2    1    0    0    0 -0.22575694921E+02 -0.10621346620E+02  0.15225601642E+02  0.95771692650E+02  0.91202648878E+02 0.  0.
         11    1    3    3    0    0 -0.14065192923E+02  0.22878199489E+02  0.43496050643E+02  0.51118960138E+02  0.51100000000E-03 0.  1.
         22    1    1    0    0    0  0.22575694921E+02  0.10621346620E+02 -0.15225601642E+02  0.29228307350E+02  0.00000000000E+00 0. -1.
</event>
<event>
 5    1  0.8875601E-005  0.9118800E+02  0.7818608E-02  0.1130116E+00
         25   -1    0    0    0    0  0.00000000000E+00  0.00000000000E+00  0.99999998245E-14  0.12500000000E+03  0.12500000000E+03 0.  0.
        -11    1    3    3    0    0 -0.41391505629E+02  0.25150189075E+02  0.36331752138E+02  0.60545726211E+02  0.51100000000E-03 0.  1.
         23    2    1    0    0    0 -0.18034978156E+02  0.21293836786E+02  0.27526734060E+02  0.85802946410E+02  0.76326513103E+02 0.  0.
         11    1    3    3    0    0  0.23356527472E+02 -0.38563522890E+01 -0.88050180783E+01  0.25257220199E+02  0.51100000000E-03 0. -1.
         22    1    1    0    0    0  0.18034978156E+02 -0.21293836786E+02 -0.27526734060E+02  0.39197053590E+02  0.00000000000E+00 0.  1.
</event>
<event>
 5    1  0.8875601E-005  0.9118800E+02  0.7818608E-02  0.1130116E+00
         25   -1    0    0    0    0  0.00000000000E+00  0.00000000000E+00  0.99999998245E-14  0.12500000000E+03  0.12500000000E+03 0.  0.
        -11    1    3    3    0    0 -0.32209945958E+02 -0.81925449730E+01 -0.17726970279E+02  0.37667544216E+02  0.51100000000E-03 0.  1.
         23    2    1    0    0    0  0.14673095593E+02 -0.20637056156E+02  0.14420652065E+02  0.95859941197E+02  0.91323519967E+02 0.  0.
         11    1    3    3    0    0  0.46883041551E+02 -0.12444511183E+02  0.32147622344E+02  0.58192396980E+02  0.51100000000E-03 0. -1.
         22    1    1    0    0    0 -0.14673095593E+02  0.20637056156E+02 -0.14420652065E+02  0.29140058803E+02  0.00000000000E+00 0. -1.
</event>
<event>
 5    1  0.8875601E-005  0.9118800E+02  0.7818608E-02  0.1130116E+00
         25   -1    0    0    0    0  0.00000000000E+00  0.00000000000E+00  0.99999998245E-14  0.12500000000E+03  0.12500000000E+03 0.  0.
        -11    1    3    3    0    0  0.99712326791E+01  0.45982207428E+02 -0.93577059194E+01  0.47972445648E+02  0.51100000000E-03 0.  1.
         23    2    1    0    0    0  0.21068767126E+02  0.67214504827E+00 -0.20133707744E+02  0.95850198719E+02  0.91310183878E+02 0.  0.
         11    1    3    3    0    0  0.11097534446E+02 -0.45310062379E+02 -0.10776001825E+02  0.47877753072E+02  0.51100000000E-03 0. -1.
         22    1    1    0    0    0 -0.21068767126E+02 -0.67214504827E+00  0.20133707744E+02  0.29149801281E+02  0.00000000000E+00 0. -1.
</event>
<event>
 5    1  0.8875601E-005  0.9118800E+02  0.7818608E-02  0.1130116E+00
         25   -1    0    0    0    0  0.00000000000E+00  0.00000000000E+00  0.99999998245E-14  0.12500000000E+03  0.12500000000E+03 0.  0.
        -11    1    3    3    0    0  0.16518645648E+02 -0.14887748250E+02 -0.40575811665E+02  0.46269938346E+02  0.51100000000E-03 0.  1.
         23    2    1    0    0    0  0.17196512616E+02 -0.23862855976E+02  0.70619902562E+01  0.94750576074E+02  0.89792226938E+02 0.  0.
         11    1    3    3    0    0  0.67786696744E+00 -0.89751077260E+01  0.47637801921E+02  0.48480637728E+02  0.51100000000E-03 0. -1.
         22    1    1    0    0    0 -0.17196512616E+02  0.23862855976E+02 -0.70619902562E+01  0.30249423926E+02  0.00000000000E+00 0. -1.
</event>
<event>
 5    1  0.8875601E-005  0.9118800E+02  0.7818608E-02  0.1130116E+00
         25   -1    0    0    0    0  0.00000000000E+00  0.00000000000E+00  0.99999998245E-14  0.12500000000E+03  0.12500000000E+03 0.  0.
        -11    1    3    3    0    0  0.34689329037E+02  0.17879800644E+02 -0.66629996075E+01  0.39590811866E+02  0.51100000000E-03 0. -1.
         23    2    1    0    0    0 -0.11011736599E+02 -0.84057412557E+01 -0.25831275501E+02  0.95688404633E+02  0.91088424940E+02 0.  0.
         11    1    3    3    0    0 -0.45701065636E+02 -0.26285541900E+02 -0.19168275893E+02  0.56097592767E+02  0.51100000000E-03 0.  1.
         22    1    1    0    0    0  0.11011736599E+02  0.84057412557E+01  0.25831275501E+02  0.29311595367E+02  0.00000000000E+00 0.  1.
</event>
<event>
 5    1  0.8875601E-005  0.9118800E+02  0.7818608E-02  0.1130116E+00
         25   -1    0    0    0    0  0.00000000000E+00  0.00000000000E+00  0.99999998245E-14  0.12500000000E+03  0.12500000000E+03 0.  0.
        -11    1    3    3    0    0  0.57889814199E+01  0.20804986380E+02 -0.56792900135E+02  0.60760128952E+02  0.51100000000E-03 0.  1.
         23    2    1    0    0    0  0.12012232923E+02  0.11826690153E+02 -0.21653444125E+02  0.97558498907E+02  0.93619574485E+02 0.  0.
         11    1    3    3    0    0  0.62232515028E+01 -0.89782962278E+01  0.35139456010E+02  0.36798369956E+02  0.51100000000E-03 0. -1.
         22    1    1    0    0    0 -0.12012232923E+02 -0.11826690153E+02  0.21653444125E+02  0.27441501093E+02  0.00000000000E+00 0.  1.
</event>
<event>
 5    1  0.8875601E-005  0.9118800E+02  0.7818608E-02  0.1130116E+00
         25   -1    0    0    0    0  0.00000000000E+00  0.00000000000E+00  0.99999998245E-14  0.12500000000E+03  0.12500000000E+03 0.  0.
        -11    1    3    3    0    0  0.38687715836E+02  0.46250429137E+02  0.16358845569E+01  0.60320126579E+02  0.51100000000E-03 0. -1.
         23    2    1    0    0    0  0.11421193770E+02  0.23969619134E+02  0.10196314051E+02  0.96557933816E+02  0.92273958700E+02 0.  0.
         11    1    3    3    0    0 -0.27266522066E+02 -0.22280810003E+02  0.85604294942E+01  0.36237807237E+02  0.51100000000E-03 0.  1.
         22    1    1    0    0    0 -0.11421193770E+02 -0.23969619134E+02 -0.10196314051E+02  0.28442066184E+02  0.00000000000E+00 0. -1.
</event>
<event>
 5    1  0.8875601E-005  0.9118800E+02  0.7818608E-02  0.1130116E+00
         25   -1    0    0    0    0  0.00000000000E+00  0.00000000000E+00  0.99999998245E-14  0.12500000000E+03  0.12500000000E+03 0.  0.
        -11    1    3    3    0    0 -0.13185796038E+02  0.32119533034E+02  0.28761286826E+02  0.45085931726E+02  0.51100000000E-03 0.  1.
         23    2    1    0    0    0  0.78513185470E+01  0.21753398363E+02 -0.16858332076E+02  0.96380829787E+02  0.92033729941E+02 0.  0.
         11    1    3    3    0    0  0.21037114585E+02 -0.10366134671E+02 -0.45619618902E+02  0.51294898061E+02  0.51100000000E-03 0. -1.
         22    1    1    0    0    0 -0.78513185470E+01 -0.21753398363E+02  0.16858332076E+02  0.28619170213E+02  0.00000000000E+00 0. -1.
</event>
<event>
 5    1  0.8875601E-005  0.9118800E+02  0.7818608E-02  0.1130116E+00
         25   -1    0    0    0    0  0.00000000000E+00  0.00000000000E+00  0.99999998245E-14  0.12500000000E+03  0.12500000000E+03 0.  0.
        -11    1    3    3    0    0 -0.32362990327E+02 -0.28330689923E+02 -0.23422689599E+02  0.48975642137E+02  0.51100000000E-03 0. -1.
         23    2    1    0    0    0 -0.97860661629E+01 -0.21772194990E+02  0.16970023220E+02  0.95712165431E+02  0.91121025882E+02 0.  0.
         11    1    3    3    0    0  0.22576924164E+02  0.65584949325E+01  0.40392712819E+02  0.46736523294E+02  0.51100000000E-03 0.  1.
         22    1    1    0    0    0  0.97860661629E+01  0.21772194990E+02 -0.16970023220E+02  0.29287834569E+02  0.00000000000E+00 0.  1.
</event>
<event>
 5    1  0.8875601E-005  0.9118800E+02  0.7818608E-02  0.1130116E+00
         25   -1    0    0    0    0  0.00000000000E+00  0.00000000000E+00  0.99999998245E-14  0.12500000000E+03  0.12500000000E+03 0.  0.
        -11    1    3    3    0    0 -0.20389375344E+02 -0.24859628612E+02  0.39690131623E+02  0.51078707014E+02  0.51100000000E-03 0.  1.
         23    2    1    0    0    0 -0.22671012722E+02 -0.19337523492E+02 -0.37851644119E+01  0.94962654873E+02  0.90086978628E+02 0.  0.
         11    1    3    3    0    0 -0.22816373778E+01  0.55221051200E+01 -0.43475296035E+02  0.43883947859E+02  0.51100000000E-03 0. -1.
         22    1    1    0    0    0  0.22671012722E+02  0.19337523492E+02  0.37851644119E+01  0.30037345127E+02  0.00000000000E+00 0.  1.
</event>
<event>
 5    1  0.8875601E-005  0.9118800E+02  0.7818608E-02  0.1130116E+00
         25   -1    0    0    0    0  0.00000000000E+00  0.00000000000E+00  0.99999998245E-14  0.12500000000E+03  0.12500000000E+03 0.  0.
        -11    1    3    3    0    0 -0.44871021309E+02  0.21690483807E+01 -0.27662996959E+01  0.45008507401E+02  0.51100000000E-03 0. -1.
         23    2    1    0    0    0 -0.60253224711E+01 -0.10192611895E+02 -0.29129830648E+02  0.93555749624E+02  0.88113207898E+02 0.  0.
         11    1    3    3    0    0  0.38845698838E+02 -0.12361660275E+02 -0.26363530952E+02  0.48547242223E+02  0.51100000000E-03 0.  1.
         22    1    1    0    0    0  0.60253224711E+01  0.10192611895E+02  0.29129830648E+02  0.31444250376E+02  0.00000000000E+00 0. -1.
</event>
<event>
 5    1  0.8875601E-005  0.9118800E+02  0.7818608E-02  0.1130116E+00
         25   -1    0    0    0    0  0.00000000000E+00  0.00000000000E+00  0.99999998245E-14  0.12500000000E+03  0.12500000000E+03 0.  0.
        -11    1    3    3    0    0  0.33542606090E+01 -0.51526357226E+02  0.29229070504E+02  0.59334265951E+02  0.51100000000E-03 0. -1.
         23    2    1    0    0    0 -0.11143684759E+02 -0.20971561297E+02  0.18754623718E+02  0.94739068024E+02  0.89776205121E+02 0.  0.
         11    1    3    3    0    0 -0.14497945368E+02  0.30554795928E+02 -0.10474446785E+02  0.35404802073E+02  0.51100000000E-03 0.  1.
         22    1    1    0    0    0  0.11143684759E+02  0.20971561297E+02 -0.18754623718E+02  0.30260931976E+02  0.00000000000E+00 0.  1.
</event>
<event>
 5    1  0.8875601E-005  0.9118800E+02  0.7818608E-02  0.1130116E+00
         25   -1    0    0    0    0  0.00000000000E+00  0.00000000000E+00  0.99999998245E-14  0.12500000000E+03  0.12500000000E+03 0.  0.
        -11    1    3    3    0    0 -0.36802904285E+02  0.61611791596E+01 -0.89052401370E+01  0.38362966447E+02  0.51100000000E-03 0.  1.
         23    2    1    0    0    0  0.11297574282E+02 -0.23419972457E+02 -0.14703110059E+02  0.95128412497E+02  0.90316682425E+02 0.  0.
         11    1    3    3    0    0  0.48100478567E+02 -0.29581151617E+02 -0.57978699221E+01  0.56765446050E+02  0.51100000000E-03 0. -1.
         22    1    1    0    0    0 -0.11297574282E+02  0.23419972457E+02  0.14703110059E+02  0.29871587503E+02  0.00000000000E+00 0. -1.
</event>
<event>
 5    1  0.8875601E-005  0.9118800E+02  0.7818608E-02  0.1130116E+00
         25   -1    0    0    0    0  0.00000000000E+00  0.00000000000E+00  0.99999998245E-14  0.12500000000E+03  0.12500000000E+03 0.  0.
        -11    1    3    3    0    0  0.41710658020E+02  0.48226240185E+01 -0.58990596539E+01  0.42400891499E+02  0.51100000000E-03 0.  1.
         23    2    1    0    0    0  0.62178536846E-01 -0.28453345064E+02 -0.69089433125E+01  0.95719798341E+02  0.91131496121E+02 0.  0.
         11    1    3    3    0    0 -0.41648479483E+02 -0.33275969082E+02 -0.10098836586E+01  0.53318906842E+02  0.51100000000E-03 0. -1.
         22    1    1    0    0    0 -0.62178536846E-01  0.28453345064E+02  0.69089433125E+01  0.29280201659E+02  0.00000000000E+00 0. -1.
</event>
<event>
 5    1  0.8875601E-005  0.9118800E+02  0.7818608E-02  0.1130116E+00
         25   -1    0    0    0    0  0.00000000000E+00  0.00000000000E+00  0.99999998245E-14  0.12500000000E+03  0.12500000000E+03 0.  0.
        -11    1    3    3    0    0  0.29898300526E+02  0.27514454676E+02  0.27938850229E+01  0.40727869871E+02  0.51100000000E-03 0.  1.
         23    2    1    0    0    0  0.74947556561E+01 -0.16892049538E+02 -0.21971339853E+02  0.96290202459E+02  0.91910557689E+02 0.  0.
         11    1    3    3    0    0 -0.22403544869E+02 -0.44406504214E+02 -0.24765224875E+02  0.55562332588E+02  0.51100000000E-03 0. -1.
         22    1    1    0    0    0 -0.74947556561E+01  0.16892049538E+02  0.21971339853E+02  0.28709797541E+02  0.00000000000E+00 0. -1.
</event>
<event>
 5    1  0.8875601E-005  0.9118800E+02  0.7818608E-02  0.1130116E+00
         25   -1    0    0    0    0  0.00000000000E+00  0.00000000000E+00  0.99999998245E-14  0.12500000000E+03  0.12500000000E+03 0.  0.
        -11    1    3    3    0    0  0.66919284037E+01 -0.34759185844E+02 -0.47748961268E+01  0.35718098208E+02  0.51100000000E-03 0. -1.
         23    2    1    0    0    0  0.47892745913E+01  0.24004707084E+02 -0.16246195180E+02  0.95621402839E+02  0.90996432402E+02 0.  0.
         11    1    3    3    0    0 -0.19026538125E+01  0.58763892928E+02 -0.11471299053E+02  0.59903304632E+02  0.51100000000E-03 0.  1.
         22    1    1    0    0    0 -0.47892745913E+01 -0.24004707084E+02  0.16246195180E+02  0.29378597161E+02  0.00000000000E+00 0.  1.
</event>
<event>
 5    1  0.8875601E-005  0.9118800E+02  0.7818608E-02  0.1130116E+00
         25   -1    0    0    0    0  0.00000000000E+00  0.00000000000E+00  0.99999998245E-14  0.12500000000E+03  0.12500000000E+03 0.  0.
        -11    1    3    3    0    0 -0.49577929812E+01  0.11306330356E+02 -0.35868561055E+02  0.37933711785E+02  0.51100000000E-03 0.  1.
         23    2    1    0    0    0  0.27499275188E+02 -0.60338088960E+01  0.85138871360E+01  0.95587362243E+02  0.90949659486E+02 0.  0.
         11    1    3    3    0    0  0.32457068170E+02 -0.17340139252E+02  0.44382448191E+02  0.57653650458E+02  0.51100000000E-03 0. -1.
         22    1    1    0    0    0 -0.27499275188E+02  0.60338088960E+01 -0.85138871360E+01  0.29412637757E+02  0.00000000000E+00 0. -1.
</event>
<event>
 5    1  0.8875601E-005  0.9118800E+02  0.7818608E-02  0.1130116E+00
         25   -1    0    0    0    0  0.00000000000E+00  0.00000000000E+00  0.99999998245E-14  0.12500000000E+03  0.12500000000E+03 0.  0.
        -11    1    3    3    0    0 -0.63930720567E+01  0.18018262767E+02 -0.39426995526E+02  0.43818000182E+02  0.51100000000E-03 0.  1.
         23    2    1    0    0    0 -0.26684767150E+02 -0.12603015549E+02 -0.33606986726E+01  0.95298028780E+02  0.90551130280E+02 0.  0.
         11    1    3    3    0    0 -0.20291695093E+02 -0.30621278317E+02  0.36066296853E+02  0.51480028598E+02  0.51100000000E-03 0. -1.
         22    1    1    0    0    0  0.26684767150E+02  0.12603015549E+02  0.33606986726E+01  0.29701971220E+02  0.00000000000E+00 0. -1.
</event>
<event>
 5    1  0.8875601E-005  0.9118800E+02  0.7818608E-02  0.1130116E+00
         25   -1    0    0    0    0  0.00000000000E+00  0.00000000000E+00  0.99999998245E-14  0.12500000000E+03  0.12500000000E+03 0.  0.
        -11    1    3    3    0    0 -0.15736009917E+02  0.36666269203E+01 -0.55938990576E+02  0.58225740253E+02  0.51100000000E-03 0.  1.
         23    2    1    0    0    0  0.80579403513E+01 -0.45350122635E+01 -0.26372535794E+02  0.97053490680E+02  0.92942846256E+02 0.  0.
         11    1    3    3    0    0  0.23793950268E+02 -0.82016391838E+01  0.29566454782E+02  0.38827750428E+02  0.51100000000E-03 0. -1.
         22    1    1    0    0    0 -0.80579403513E+01  0.45350122635E+01  0.26372535794E+02  0.27946509320E+02  0.00000000000E+00 0.  1.
</event>
<event>
 5    1  0.8875601E-005  0.9118800E+02  0.7818608E-02  0.1130116E+00
         25   -1    0    0    0    0  0.00000000000E+00  0.00000000000E+00  0.99999998245E-14  0.12500000000E+03  0.12500000000E+03 0.  0.
        -11    1    3    3    0    0  0.13046092983E+02  0.46388302297E+02 -0.22289575529E+02  0.53093316996E+02  0.51100000000E-03 0.  1.
         23    2    1    0    0    0 -0.10466543900E+02  0.11631026386E+02 -0.25395298549E+02  0.95171314069E+02  0.90376039508E+02 0.  0.
         11    1    3    3    0    0 -0.23512636883E+02 -0.34757275911E+02 -0.31057230199E+01  0.42077997073E+02  0.51100000000E-03 0. -1.
         22    1    1    0    0    0  0.10466543900E+02 -0.11631026386E+02  0.25395298549E+02  0.29828685931E+02  0.00000000000E+00 0.  1.
</event>
<event>
 5    1  0.8875601E-005  0.9118800E+02  0.7818608E-02  0.1130116E+00
         25   -1    0    0    0    0  0.00000000000E+00  0.00000000000E+00  0.99999998245E-14  0.12500000000E+03  0.12500000000E+03 0.  0.
        -11    1    3    3    0    0  0.21769118682E+02  0.35969928387E+01  0.56911192304E+02  0.61038649194E+02  0.51100000000E-03 0. -1.
         23    2    1    0    0    0  0.18026533625E+02 -0.50501055814E+00  0.21250966415E+02  0.97128607430E+02  0.93043816869E+02 0.  0.
         11    1    3    3    0    0 -0.37425850570E+01 -0.41020033969E+01 -0.35660225889E+02  0.36089958236E+02  0.51100000000E-03 0.  1.
         22    1    1    0    0    0 -0.18026533625E+02  0.50501055814E+00 -0.21250966415E+02  0.27871392570E+02  0.00000000000E+00 0. -1.
</event>
<event>
 5    1  0.8875601E-005  0.9118800E+02  0.7818608E-02  0.1130116E+00
         25   -1    0    0    0    0  0.00000000000E+00  0.00000000000E+00  0.99999998245E-14  0.12500000000E+03  0.12500000000E+03 0.  0.
        -11    1    3    3    0    0 -0.47091618955E+02 -0.22762116799E+01 -0.29356330927E+02  0.55539138282E+02  0.51100000000E-03 0.  1.
         23    2    1    0    0    0 -0.17738753978E+02  0.19461240018E+02 -0.10427851937E+02  0.96677864633E+02  0.92436281612E+02 0.  0.
         11    1    3    3    0    0  0.29352864977E+02  0.21737451698E+02  0.18928478990E+02  0.41138726351E+02  0.51100000000E-03 0. -1.
         22    1    1    0    0    0  0.17738753978E+02 -0.19461240018E+02  0.10427851937E+02  0.28322135367E+02  0.00000000000E+00 0.  1.
</event>
<event>
 5    1  0.8875601E-005  0.9118800E+02  0.7818608E-02  0.1130116E+00
         25   -1    0    0    0    0  0.00000000000E+00  0.00000000000E+00  0.99999998245E-14  0.12500000000E+03  0.12500000000E+03 0.  0.
        -11    1    3    3    0    0  0.12676486510E+02  0.43791498028E+02 -0.22807130074E+02  0.50976011930E+02  0.51100000000E-03 0. -1.
         23    2    1    0    0    0 -0.80670827655E+01  0.26418835727E+02  0.11848341648E+02  0.94943122163E+02  0.90059871978E+02 0.  0.
         11    1    3    3    0    0 -0.20743569275E+02 -0.17372662302E+02  0.34655471722E+02  0.43967110233E+02  0.51100000000E-03 0.  1.
         22    1    1    0    0    0  0.80670827655E+01 -0.26418835727E+02 -0.11848341648E+02  0.30056877837E+02  0.00000000000E+00 0. -1.
</event>
<event>
 5    1  0.8875601E-005  0.9118800E+02  0.7818608E-02  0.1130116E+00
         25   -1    0    0    0    0  0.00000000000E+00  0.00000000000E+00  0.99999998245E-14  0.12500000000E+03  0.12500000000E+03 0.  0.
        -11    1    3    3    0    0 -0.34814553978E+02  0.10315382468E+02  0.99432968139E+01  0.37647435981E+02  0.51100000000E-03 0.  1.
         23    2    1    0    0    0  0.23915349549E+02  0.14759842444E+01  0.14124646795E+02  0.97185828781E+02  0.93120659336E+02 0.  0.
         11    1    3    3    0    0  0.58729903527E+02 -0.88393982232E+01  0.41813499813E+01  0.59538392800E+02  0.51100000000E-03 0. -1.
         22    1    1    0    0    0 -0.23915349549E+02 -0.14759842444E+01 -0.14124646795E+02  0.27814171219E+02  0.00000000000E+00 0. -1.
</event>
<event>
 5    1  0.8875601E-005  0.9118800E+02  0.7818608E-02  0.1130116E+00
         25   -1    0    0    0    0  0.00000000000E+00  0.00000000000E+00  0.99999998245E-14  0.12500000000E+03  0.12500000000E+03 0.  0.
        -11    1    3    3    0    0 -0.18091333858E+02 -0.26880088342E+02 -0.31478984396E+02  0.45174793512E+02  0.51100000000E-03 0.  1.
         23    2    1    0    0    0 -0.27058679123E+02 -0.16401845724E+00  0.10700238991E+02  0.95901990921E+02  0.91381057830E+02 0.  0.
         11    1    3    3    0    0 -0.89673452646E+01  0.26716069885E+02  0.42179223387E+02  0.50727197409E+02  0.51100000000E-03 0. -1.
         22    1    1    0    0    0  0.27058679123E+02  0.16401845724E+00 -0.10700238991E+02  0.29098009079E+02  0.00000000000E+00 0. -1.
</event>
<event>
 5    1  0.8875601E-005  0.9118800E+02  0.7818608E-02  0.1130116E+00
         25   -1    0    0    0    0  0.00000000000E+00  0.00000000000E+00  0.99999998245E-14  0.12500000000E+03  0.12500000000E+03 0.  0.
        -11    1    3    3    0    0  0.18782102401E+02 -0.11495840871E+02  0.34218627862E+02  0.40691967524E+02  0.51100000000E-03 0. -1.
         23    2    1    0    0    0 -0.79050546908E+01 -0.24383159021E+02 -0.12860376960E+02  0.96322175308E+02  0.91954031053E+02 0.  0.
         11    1    3    3    0    0 -0.26687157092E+02 -0.12887318150E+02 -0.47079004822E+02  0.55630207784E+02  0.51100000000E-03 0.  1.
         22    1    1    0    0    0  0.79050546908E+01  0.24383159021E+02  0.12860376960E+02  0.28677824692E+02  0.00000000000E+00 0.  1.
</event>
<event>
 5    1  0.8875601E-005  0.9118800E+02  0.7818608E-02  0.1130116E+00
         25   -1    0    0    0    0  0.00000000000E+00  0.00000000000E+00  0.99999998245E-14  0.12500000000E+03  0.12500000000E+03 0.  0.
        -11    1    3    3    0    0  0.39664330586E+02  0.17713612652E+02  0.33647280603E+02  0.54946980684E+02  0.51100000000E-03 0. -1.
         23    2    1    0    0    0  0.22955186318E+02 -0.68676929514E+01  0.32409169115E+02  0.84695409343E+02  0.74490619112E+02 0.  0.
         11    1    3    3    0    0 -0.16709144269E+02 -0.24581305603E+02 -0.12381114878E+01  0.29748428659E+02  0.51100000000E-03 0.  1.
         22    1    1    0    0    0 -0.22955186318E+02  0.68676929514E+01 -0.32409169115E+02  0.40304590657E+02  0.00000000000E+00 0. -1.
</event>
<event>
 5    1  0.8875601E-005  0.9118800E+02  0.7818608E-02  0.1130116E+00
         25   -1    0    0    0    0  0.00000000000E+00  0.00000000000E+00  0.99999998245E-14  0.12500000000E+03  0.12500000000E+03 0.  0.
        -11    1    3    3    0    0  0.55834819792E+01  0.28078687569E+02  0.17974451075E+02  0.33803385308E+02  0.51100000000E-03 0. -1.
         23    2    1    0    0    0 -0.24804965730E+01 -0.30294713558E+02  0.42506175266E+01  0.94308139806E+02  0.89174183211E+02 0.  0.
         11    1    3    3    0    0 -0.80639785522E+01 -0.58373401127E+02 -0.13723833548E+02  0.60504754497E+02  0.51100000000E-03 0.  1.
         22    1    1    0    0    0  0.24804965730E+01  0.30294713558E+02 -0.42506175266E+01  0.30691860194E+02  0.00000000000E+00 0.  1.
</event>
<event>
 5    1  0.8875601E-005  0.9118800E+02  0.7818608E-02  0.1130116E+00
         25   -1    0    0    0    0  0.00000000000E+00  0.00000000000E+00  0.99999998245E-14  0.12500000000E+03  0.12500000000E+03 0.  0.
        -11    1    3    3    0    0 -0.14562506936E+02 -0.38172207680E+02  0.11108688729E+02  0.42338953849E+02  0.51100000000E-03 0. -1.
         23    2    1    0    0    0 -0.87419893085E+01  0.68281821537E+00 -0.26719476521E+02  0.96878495002E+02  0.92707193629E+02 0.  0.
         11    1    3    3    0    0  0.58205176275E+01  0.38855025896E+02 -0.37828165250E+02  0.54539541154E+02  0.51100000000E-03 0.  1.
         22    1    1    0    0    0  0.87419893085E+01 -0.68281821537E+00  0.26719476521E+02  0.28121504998E+02  0.00000000000E+00 0.  1.
</event>
<event>
 5    1  0.8875601E-005  0.9118800E+02  0.7818608E-02  0.1130116E+00
         25   -1    0    0    0    0  0.00000000000E+00  0.00000000000E+00  0.99999998245E-14  0.12500000000E+03  0.12500000000E+03 0.  0.
        -11    1    3    3    0    0 -0.46155851191E+01  0.18711854003E+02  0.28887584040E+02  0.34726497349E+02  0.51100000000E-03 0.  1.
         23    2    1    0    0    0  0.16590721272E+02 -0.86619864707E+01 -0.21898018589E+02  0.96193659377E+02  0.91779163454E+02 0.  0.
         11    1    3    3    0    0  0.21206306391E+02 -0.27373840474E+02 -0.50785602630E+02  0.61467162028E+02  0.51100000000E-03 0. -1.
         22    1    1    0    0    0 -0.16590721272E+02  0.86619864707E+01  0.21898018589E+02  0.28806340623E+02  0.00000000000E+00 0. -1.
</event>
<event>
 5    1  0.8875601E-005  0.9118800E+02  0.7818608E-02  0.1130116E+00
         25   -1    0    0    0    0  0.00000000000E+00  0.00000000000E+00  0.99999998245E-14  0.12500000000E+03  0.12500000000E+03 0.  0.
        -11    1    3    3    0    0 -0.10006298475E+02  0.27126733190E+01  0.58846516634E+02  0.59752800151E+02  0.51100000000E-03 0. -1.
         23    2    1    0    0    0 -0.18893244134E+01  0.13989410127E+02  0.26051013712E+02  0.95370142459E+02  0.90650623907E+02 0.  0.
         11    1    3    3    0    0  0.81169740612E+01  0.11276736808E+02 -0.32795502922E+02  0.35617342308E+02  0.51100000000E-03 0.  1.
         22    1    1    0    0    0  0.18893244134E+01 -0.13989410127E+02 -0.26051013712E+02  0.29629857541E+02  0.00000000000E+00 0. -1.
</event>
<event>
 5    1  0.8875601E-005  0.9118800E+02  0.7818608E-02  0.1130116E+00
         25   -1    0    0    0    0  0.00000000000E+00  0.00000000000E+00  0.99999998245E-14  0.12500000000E+03  0.12500000000E+03 0.  0.
        -11    1    3    3    0    0  0.21239471881E+02  0.28353625413E+02  0.27484778459E+02  0.44838111993E+02  0.51100000000E-03 0. -1.
         23    2    1    0    0    0  0.30832415913E+02  0.18408571223E+01 -0.10706745455E+02  0.92309618782E+02  0.86327311411E+02 0.  0.
         11    1    3    3    0    0  0.95929440320E+01 -0.26512768291E+02 -0.38191523914E+02  0.47471506789E+02  0.51100000000E-03 0.  1.
         22    1    1    0    0    0 -0.30832415913E+02 -0.18408571223E+01  0.10706745455E+02  0.32690381218E+02  0.00000000000E+00 0.  1.
</event>
<event>
 5    1  0.8875601E-005  0.9118800E+02  0.7818608E-02  0.1130116E+00
         25   -1    0    0    0    0  0.00000000000E+00  0.00000000000E+00  0.99999998245E-14  0.12500000000E+03  0.12500000000E+03 0.  0.
        -11    1    3    3    0    0  0.54634570979E+01  0.18312313833E+02 -0.53072193315E+02  0.56407870948E+02  0.51100000000E-03 0.  1.
         23    2    1    0    0    0 -0.19428651254E+01  0.23323064263E+02 -0.11514027740E+02  0.98917191748E+02  0.95416444793E+02 0.  0.
         11    1    3    3    0    0 -0.74063222233E+01  0.50107504301E+01  0.41558165574E+02  0.42509320800E+02  0.51100000000E-03 0. -1.
         22    1    1    0    0    0  0.19428651254E+01 -0.23323064263E+02  0.11514027740E+02  0.26082808252E+02  0.00000000000E+00 0. -1.
</event>
<event>
 5    1  0.8875601E-005  0.9118800E+02  0.7818608E-02  0.1130116E+00
         25   -1    0    0    0    0  0.00000000000E+00  0.00000000000E+00  0.99999998245E-14  0.12500000000E+03  0.12500000000E+03 0.  0.
        -11    1    3    3    0    0  0.25219874071E+02 -0.36553370865E+01 -0.52336407009E+02  0.58210849816E+02  0.51100000000E-03 0.  1.
         23    2    1    0    0    0  0.83490793802E+01 -0.17534132464E+02 -0.21165201283E+02  0.96275121008E+02  0.91890044357E+02 0.  0.
         11    1    3    3    0    0 -0.16870794691E+02 -0.13878795378E+02  0.31171205726E+02  0.38064271192E+02  0.51100000000E-03 0. -1.
         22    1    1    0    0    0 -0.83490793802E+01  0.17534132464E+02  0.21165201283E+02  0.28724878992E+02  0.00000000000E+00 0.  1.
</event>
<event>
 5    1  0.8875601E-005  0.9118800E+02  0.7818608E-02  0.1130116E+00
         25   -1    0    0    0    0  0.00000000000E+00  0.00000000000E+00  0.99999998245E-14  0.12500000000E+03  0.12500000000E+03 0.  0.
        -11    1    3    3    0    0  0.20739854945E+02 -0.17582872299E+02 -0.17338120759E+02  0.32247626472E+02  0.51100000000E-03 0.  1.
         23    2    1    0    0    0 -0.66560157865E+01  0.20776840917E+02  0.22275178217E+02  0.93820467783E+02  0.88487948026E+02 0.  0.
         11    1    3    3    0    0 -0.27395870731E+02  0.38359713216E+02  0.39613298976E+02  0.61572841311E+02  0.51100000000E-03 0. -1.
         22    1    1    0    0    0  0.66560157865E+01 -0.20776840917E+02 -0.22275178217E+02  0.31179532217E+02  0.00000000000E+00 0. -1.
</event>
<event>
 5    1  0.8875601E-005  0.9118800E+02  0.7818608E-02  0.1130116E+00
         25   -1    0    0    0    0  0.00000000000E+00  0.00000000000E+00  0.99999998245E-14  0.12500000000E+03  0.12500000000E+03 0.  0.
        -11    1    3    3    0    0  0.28197986813E+02 -0.13348234036E+02  0.51899056779E+02  0.60554222867E+02  0.51100000000E-03 0. -1.
         23    2    1    0    0    0  0.21180184638E+02 -0.14348196065E+02  0.22072881311E+02  0.91211199474E+02  0.84721897220E+02 0.  0.
         11    1    3    3    0    0 -0.70178021750E+01 -0.99996202897E+00 -0.29826175468E+02  0.30656976607E+02  0.51100000000E-03 0.  1.
         22    1    1    0    0    0 -0.21180184638E+02  0.14348196065E+02 -0.22072881311E+02  0.33788800526E+02  0.00000000000E+00 0. -1.
</event>
<event>
 5    1  0.8875601E-005  0.9118800E+02  0.7818608E-02  0.1130116E+00
         25   -1    0    0    0    0  0.00000000000E+00  0.00000000000E+00  0.99999998245E-14  0.12500000000E+03  0.12500000000E+03 0.  0.
        -11    1    3    3    0    0  0.25904305494E+02  0.17354964138E+02 -0.30428850107E+02  0.43567680021E+02  0.51100000000E-03 0. -1.
         23    2    1    0    0    0  0.24607570537E+02 -0.43264846922E+01  0.16348375387E+02  0.95141661544E+02  0.90335017496E+02 0.  0.
         11    1    3    3    0    0 -0.12967349569E+01 -0.21681448830E+02  0.46777225494E+02  0.51573981523E+02  0.51100000000E-03 0.  1.
         22    1    1    0    0    0 -0.24607570537E+02  0.43264846922E+01 -0.16348375387E+02  0.29858338456E+02  0.00000000000E+00 0.  1.
</event>
<event>
 5    1  0.8875601E-005  0.9118800E+02  0.7818608E-02  0.1130116E+00
         25   -1    0    0    0    0  0.00000000000E+00  0.00000000000E+00  0.99999998245E-14  0.12500000000E+03  0.12500000000E+03 0.  0.
        -11    1    3    3    0    0  0.17915419611E+02  0.11796436716E+02  0.32113372908E+02  0.38618478722E+02  0.51100000000E-03 0. -1.
         23    2    1    0    0    0  0.12485488102E+02 -0.25764731332E+02 -0.94006585581E+01  0.94865614739E+02  0.89952230015E+02 0.  0.
         11    1    3    3    0    0 -0.54299315086E+01 -0.37561168048E+02 -0.41514031466E+02  0.56247136017E+02  0.51100000000E-03 0.  1.
         22    1    1    0    0    0 -0.12485488102E+02  0.25764731332E+02  0.94006585581E+01  0.30134385261E+02  0.00000000000E+00 0.  1.
</event>
<event>
 5    1  0.8875601E-005  0.9118800E+02  0.7818608E-02  0.1130116E+00
         25   -1    0    0    0    0  0.00000000000E+00  0.00000000000E+00  0.99999998245E-14  0.12500000000E+03  0.12500000000E+03 0.  0.
        -11    1    3    3    0    0 -0.38999101788E+02  0.24925170096E+02  0.41041718547E+02  0.61859653298E+02  0.51100000000E-03 0.  1.
         23    2    1    0    0    0 -0.21424049090E+02  0.62066138393E+01  0.19274122348E+02  0.95521130839E+02  0.90858586329E+02 0.  0.
         11    1    3    3    0    0  0.17575052698E+02 -0.18718556257E+02 -0.21767596199E+02  0.33661477541E+02  0.51100000000E-03 0. -1.
         22    1    1    0    0    0  0.21424049090E+02 -0.62066138393E+01 -0.19274122348E+02  0.29478869161E+02  0.00000000000E+00 0.  1.
</event>
<event>
 5    1  0.8875601E-005  0.9118800E+02  0.7818608E-02  0.1130116E+00
         25   -1    0    0    0    0  0.00000000000E+00  0.00000000000E+00  0.99999998245E-14  0.12500000000E+03  0.12500000000E+03 0.  0.
        -11    1    3    3    0    0  0.16383220288E+02 -0.20260936138E+02  0.30915689362E+02  0.40431365166E+02  0.51100000000E-03 0. -1.
         23    2    1    0    0    0  0.20526024523E+02  0.19951331074E+02 -0.66464283862E+01  0.95613807585E+02  0.90985998353E+02 0.  0.
         11    1    3    3    0    0  0.41428042352E+01  0.40212267212E+02 -0.37562117749E+02  0.55182442419E+02  0.51100000000E-03 0.  1.
         22    1    1    0    0    0 -0.20526024523E+02 -0.19951331074E+02  0.66464283862E+01  0.29386192415E+02  0.00000000000E+00 0.  1.
</event>
<event>
 5    1  0.8875601E-005  0.9118800E+02  0.7818608E-02  0.1130116E+00
         25   -1    0    0    0    0  0.00000000000E+00  0.00000000000E+00  0.99999998245E-14  0.12500000000E+03  0.12500000000E+03 0.  0.
        -11    1    3    3    0    0 -0.40168083459E+02  0.27873755560E+01 -0.27251767635E+02  0.48619987976E+02  0.51100000000E-03 0.  1.
         23    2    1    0    0    0 -0.35374157292E+01  0.27134650783E+02 -0.10877748731E+02  0.95552962787E+02  0.90902369038E+02 0.  0.
         11    1    3    3    0    0  0.36630667730E+02  0.24347275227E+02  0.16374018904E+02  0.46932974811E+02  0.51100000000E-03 0. -1.
         22    1    1    0    0    0  0.35374157292E+01 -0.27134650783E+02  0.10877748731E+02  0.29447037213E+02  0.00000000000E+00 0.  1.
</event>
<event>
 5    1  0.8875601E-005  0.9118800E+02  0.7818608E-02  0.1130116E+00
         25   -1    0    0    0    0  0.00000000000E+00  0.00000000000E+00  0.99999998245E-14  0.12500000000E+03  0.12500000000E+03 0.  0.
        -11    1    3    3    0    0 -0.30929290461E+02  0.85435866801E+01  0.15554353362E+02  0.35658824862E+02  0.51100000000E-03 0. -1.
         23    2    1    0    0    0  0.15824616963E+02 -0.16957158781E+02 -0.15306566457E+02  0.97210528744E+02  0.93153809294E+02 0.  0.
         11    1    3    3    0    0  0.46753907424E+02 -0.25500745462E+02 -0.30860919819E+02  0.61551703882E+02  0.51100000000E-03 0.  1.
         22    1    1    0    0    0 -0.15824616963E+02  0.16957158781E+02  0.15306566457E+02  0.27789471256E+02  0.00000000000E+00 0.  1.
</event>
<event>
 5    1  0.8875601E-005  0.9118800E+02  0.7818608E-02  0.1130116E+00
         25   -1    0    0    0    0  0.00000000000E+00  0.00000000000E+00  0.99999998245E-14  0.12500000000E+03  0.12500000000E+03 0.  0.
        -11    1    3    3    0    0 -0.45134828587E+02 -0.45561573534E+01  0.25005645978E+02  0.51799552628E+02  0.51100000000E-03 0.  1.
         23    2    1    0    0    0 -0.12475613352E+02 -0.23021379096E+02 -0.30377664815E+01  0.98639938369E+02  0.95052535959E+02 0.  0.
         11    1    3    3    0    0  0.32659215235E+02 -0.18465221743E+02 -0.28043412460E+02  0.46840385741E+02  0.51100000000E-03 0. -1.
         22    1    1    0    0    0  0.12475613352E+02  0.23021379096E+02  0.30377664815E+01  0.26360061631E+02  0.00000000000E+00 0.  1.
</event>
<event>
 5    1  0.8875601E-005  0.9118800E+02  0.7818608E-02  0.1130116E+00
         25   -1    0    0    0    0  0.00000000000E+00  0.00000000000E+00  0.99999998245E-14  0.12500000000E+03  0.12500000000E+03 0.  0.
        -11    1    3    3    0    0 -0.10490423978E+02  0.27489563506E+02  0.14470265879E+02  0.32788926360E+02  0.51100000000E-03 0.  1.
         23    2    1    0    0    0  0.13800536616E+02 -0.18322172790E+02 -0.19595731051E+02  0.94831315871E+02  0.89904554767E+02 0.  0.
         11    1    3    3    0    0  0.24290960594E+02 -0.45811736296E+02 -0.34065996930E+02  0.62042389511E+02  0.51100000000E-03 0. -1.
         22    1    1    0    0    0 -0.13800536616E+02  0.18322172790E+02  0.19595731051E+02  0.30168684129E+02  0.00000000000E+00 0. -1.
</event>
<event>
 5    1  0.8875601E-005  0.9118800E+02  0.7818608E-02  0.1130116E+00
         25   -1    0    0    0    0  0.00000000000E+00  0.00000000000E+00  0.99999998245E-14  0.12500000000E+03  0.12500000000E+03 0.  0.
        -11    1    3    3    0    0  0.42600017274E+02  0.65358205389E+00  0.84134466749E+01  0.43427810519E+02  0.51100000000E-03 0. -1.
         23    2    1    0    0    0  0.10315774031E+02  0.89706849022E+01 -0.28635717290E+02  0.93268427613E+02  0.87704657249E+02 0.  0.
         11    1    3    3    0    0 -0.32284243243E+02  0.83171028483E+01 -0.37049163964E+02  0.49840617094E+02  0.51100000000E-03 0.  1.
         22    1    1    0    0    0 -0.10315774031E+02 -0.89706849022E+01  0.28635717290E+02  0.31731572387E+02  0.00000000000E+00 0.  1.
</event>
<event>
 5    1  0.8875601E-005  0.9118800E+02  0.7818608E-02  0.1130116E+00
         25   -1    0    0    0    0  0.00000000000E+00  0.00000000000E+00  0.99999998245E-14  0.12500000000E+03  0.12500000000E+03 0.  0.
        -11    1    3    3    0    0  0.36311190451E+02 -0.10744949693E+02 -0.22778200674E+01  0.37936064113E+02  0.51100000000E-03 0.  1.
         23    2    1    0    0    0 -0.18124692260E+02 -0.16993371935E+02  0.15707977476E+02  0.95605787718E+02  0.90974979690E+02 0.  0.
         11    1    3    3    0    0 -0.54435882712E+02 -0.62484222429E+01  0.17985797544E+02  0.57669723605E+02  0.51100000000E-03 0. -1.
         22    1    1    0    0    0  0.18124692260E+02  0.16993371935E+02 -0.15707977476E+02  0.29394212282E+02  0.00000000000E+00 0. -1.
</event>
<event>
 5    1  0.8875601E-005  0.9118800E+02  0.7818608E-02  0.1130116E+00
         25   -1    0    0    0    0  0.00000000000E+00  0.00000000000E+00  0.99999998245E-14  0.12500000000E+03  0.12500000000E+03 0.  0.
        -11    1    3    3    0    0  0.31787469487E+02  0.56203153590E+01 -0.20840714457E+02  0.38423515462E+02  0.51100000000E-03 0.  1.
         23    2    1    0    0    0 -0.19495058172E+02  0.22358563739E+02 -0.32790435052E+01  0.95155154684E+02  0.90353686539E+02 0.  0.
         11    1    3    3    0    0 -0.51282527659E+02  0.16738248380E+02  0.17561670952E+02  0.56731639222E+02  0.51100000000E-03 0. -1.
         22    1    1    0    0    0  0.19495058172E+02 -0.22358563739E+02  0.32790435052E+01  0.29844845316E+02  0.00000000000E+00 0. -1.
</event>
<event>
 5    1  0.8875601E-005  0.9118800E+02  0.7818608E-02  0.1130116E+00
         25   -1    0    0    0    0  0.00000000000E+00  0.00000000000E+00  0.99999998245E-14  0.12500000000E+03  0.12500000000E+03 0.  0.
        -11    1    3    3    0    0  0.26131553009E+02 -0.42241793977E+02 -0.32150891918E+02  0.59168463496E+02  0.51100000000E-03 0.  1.
         23    2    1    0    0    0  0.79869179809E+01 -0.12097812830E+02 -0.26487582419E+02  0.94804968016E+02  0.89867914207E+02 0.  0.
         11    1    3    3    0    0 -0.18144635028E+02  0.30143981147E+02  0.56633094984E+01  0.35636504520E+02  0.51100000000E-03 0. -1.
         22    1    1    0    0    0 -0.79869179809E+01  0.12097812830E+02  0.26487582419E+02  0.30195031984E+02  0.00000000000E+00 0.  1.
</event>
<event>
 5    1  0.8875601E-005  0.9118800E+02  0.7818608E-02  0.1130116E+00
         25   -1    0    0    0    0  0.00000000000E+00  0.00000000000E+00  0.99999998245E-14  0.12500000000E+03  0.12500000000E+03 0.  0.
        -11    1    3    3    0    0  0.40429910963E+02  0.38723543309E+02 -0.65954013795E+01  0.56370114658E+02  0.51100000000E-03 0. -1.
         23    2    1    0    0    0  0.10073665633E+02  0.20434875696E+02 -0.20414571248E+02  0.94408863976E+02  0.89315261820E+02 0.  0.
         11    1    3    3    0    0 -0.30356245330E+02 -0.18288667613E+02 -0.13819169869E+02  0.38038749318E+02  0.51100000000E-03 0.  1.
         22    1    1    0    0    0 -0.10073665633E+02 -0.20434875696E+02  0.20414571248E+02  0.30591136024E+02  0.00000000000E+00 0.  1.
</event>
<event>
 5    1  0.8875601E-005  0.9118800E+02  0.7818608E-02  0.1130116E+00
         25   -1    0    0    0    0  0.00000000000E+00  0.00000000000E+00  0.99999998245E-14  0.12500000000E+03  0.12500000000E+03 0.  0.
        -11    1    3    3    0    0  0.42680026387E+02  0.29115295062E+02 -0.22670347563E+02  0.56420118024E+02  0.51100000000E-03 0.  1.
         23    2    1    0    0    0  0.14235077161E+02  0.24601664159E+01 -0.25698192107E+02  0.95519719843E+02  0.90856645111E+02 0.  0.
         11    1    3    3    0    0 -0.28444949226E+02 -0.26655128646E+02 -0.30278445438E+01  0.39099601820E+02  0.51100000000E-03 0. -1.
         22    1    1    0    0    0 -0.14235077161E+02 -0.24601664159E+01  0.25698192107E+02  0.29480280157E+02  0.00000000000E+00 0.  1.
</event>
<event>
 5    1  0.8875601E-005  0.9118800E+02  0.7818608E-02  0.1130116E+00
         25   -1    0    0    0    0  0.00000000000E+00  0.00000000000E+00  0.99999998245E-14  0.12500000000E+03  0.12500000000E+03 0.  0.
        -11    1    3    3    0    0 -0.42307849016E+02  0.15814207959E+02  0.27915152765E+02  0.53097071632E+02  0.51100000000E-03 0.  1.
         23    2    1    0    0    0 -0.55982564675E+01  0.26971950816E+02  0.80583378423E+01  0.96298721020E+02  0.91922142354E+02 0.  0.
         11    1    3    3    0    0  0.36709592548E+02  0.11157742857E+02 -0.19856814923E+02  0.43201649388E+02  0.51100000000E-03 0. -1.
         22    1    1    0    0    0  0.55982564675E+01 -0.26971950816E+02 -0.80583378423E+01  0.28701278980E+02  0.00000000000E+00 0. -1.
</event>
<event>
 5    1  0.8875601E-005  0.9118800E+02  0.7818608E-02  0.1130116E+00
         25   -1    0    0    0    0  0.00000000000E+00  0.00000000000E+00  0.99999998245E-14  0.12500000000E+03  0.12500000000E+03 0.  0.
        -11    1    3    3    0    0 -0.41031263760E+00  0.54907070325E+01 -0.21808162138E+02  0.22492491109E+02  0.51100000000E-03 0.  1.
         23    2    1    0    0    0  0.25116266906E+02 -0.27186638055E+02  0.21291313075E+02  0.82300349363E+02  0.70356857099E+02 0.  0.
         11    1    3    3    0    0  0.25526579544E+02 -0.32677345087E+02  0.43099475213E+02  0.59807858255E+02  0.51100000000E-03 0. -1.
         22    1    1    0    0    0 -0.25116266906E+02  0.27186638055E+02 -0.21291313075E+02  0.42699650637E+02  0.00000000000E+00 0. -1.
</event>
<event>
 5    1  0.8875601E-005  0.9118800E+02  0.7818608E-02  0.1130116E+00
         25   -1    0    0    0    0  0.00000000000E+00  0.00000000000E+00  0.99999998245E-14  0.12500000000E+03  0.12500000000E+03 0.  0.
        -11    1    3    3    0    0  0.37541165925E+01 -0.15615949132E+02  0.30007932316E+02  0.34035676295E+02  0.51100000000E-03 0. -1.
         23    2    1    0    0    0  0.20266881811E+02  0.14679633386E+01 -0.24305913909E+02  0.93319108825E+02  0.87776860311E+02 0.  0.
         11    1    3    3    0    0  0.16512765219E+02  0.17083912470E+02 -0.54313846225E+02  0.59283432530E+02  0.51100000000E-03 0.  1.
         22    1    1    0    0    0 -0.20266881811E+02 -0.14679633386E+01  0.24305913909E+02  0.31680891175E+02  0.00000000000E+00 0.  1.
</event>
<event>
 5    1  0.8875601E-005  0.9118800E+02  0.7818608E-02  0.1130116E+00
         25   -1    0    0    0    0  0.00000000000E+00  0.00000000000E+00  0.99999998245E-14  0.12500000000E+03  0.12500000000E+03 0.  0.
        -11    1    3    3    0    0 -0.25153927223E+02 -0.28857119724E+02  0.23213963453E+02  0.44769872827E+02  0.51100000000E-03 0. -1.
         23    2    1    0    0    0 -0.67052736017E+01 -0.16058161088E+02 -0.23005199123E+02  0.96154473167E+02  0.91725777684E+02 0.  0.
         11    1    3    3    0    0  0.18448653621E+02  0.12798958636E+02 -0.46219162576E+02  0.51384600340E+02  0.51100000000E-03 0.  1.
         22    1    1    0    0    0  0.67052736017E+01  0.16058161088E+02  0.23005199123E+02  0.28845526833E+02  0.00000000000E+00 0. -1.
</event>
<event>
 5    1  0.8875601E-005  0.9118800E+02  0.7818608E-02  0.1130116E+00
         25   -1    0    0    0    0  0.00000000000E+00  0.00000000000E+00  0.99999998245E-14  0.12500000000E+03  0.12500000000E+03 0.  0.
        -11    1    3    3    0    0 -0.19245911026E+02  0.40834265649E+02  0.70463846173E+01  0.45689100218E+02  0.51100000000E-03 0.  1.
         23    2    1    0    0    0 -0.57092073135E+01  0.81824747168E+01 -0.27884857014E+02  0.95383903172E+02  0.90669596851E+02 0.  0.
         11    1    3    3    0    0  0.13536703713E+02 -0.32651790932E+02 -0.34931241631E+02  0.49694802954E+02  0.51100000000E-03 0. -1.
         22    1    1    0    0    0  0.57092073135E+01 -0.81824747168E+01  0.27884857014E+02  0.29616096828E+02  0.00000000000E+00 0. -1.
</event>
<event>
 5    1  0.8875601E-005  0.9118800E+02  0.7818608E-02  0.1130116E+00
         25   -1    0    0    0    0  0.00000000000E+00  0.00000000000E+00  0.99999998245E-14  0.12500000000E+03  0.12500000000E+03 0.  0.
        -11    1    3    3    0    0  0.23690857394E+02  0.23082683409E+02  0.10617090863E+02  0.34738877588E+02  0.51100000000E-03 0.  1.
         23    2    1    0    0    0 -0.27456032108E+02 -0.93156926596E+01  0.54011612600E+01  0.95507825245E+02  0.90840279124E+02 0.  0.
         11    1    3    3    0    0 -0.51146889501E+02 -0.32398376068E+02 -0.52159296030E+01  0.60768947657E+02  0.51100000000E-03 0. -1.
         22    1    1    0    0    0  0.27456032108E+02  0.93156926596E+01 -0.54011612600E+01  0.29492174755E+02  0.00000000000E+00 0. -1.
</event>
<event>
 5    1  0.8875601E-005  0.9118800E+02  0.7818608E-02  0.1130116E+00
         25   -1    0    0    0    0  0.00000000000E+00  0.00000000000E+00  0.99999998245E-14  0.12500000000E+03  0.12500000000E+03 0.  0.
        -11    1    3    3    0    0  0.33306573129E+02 -0.80932199854E+01  0.19800572607E+02  0.39583970230E+02  0.51100000000E-03 0.  1.
         23    2    1    0    0    0  0.24850361723E+01  0.29383218991E+02 -0.65402696695E+01  0.94795296883E+02  0.89854461329E+02 0.  0.
         11    1    3    3    0    0 -0.30821536957E+02  0.37476438976E+02 -0.26340842276E+02  0.55211326653E+02  0.51100000000E-03 0. -1.
         22    1    1    0    0    0 -0.24850361723E+01 -0.29383218991E+02  0.65402696695E+01  0.30204703117E+02  0.00000000000E+00 0. -1.
</event>
<event>
 5    1  0.8875601E-005  0.9118800E+02  0.7818608E-02  0.1130116E+00
         25   -1    0    0    0    0  0.00000000000E+00  0.00000000000E+00  0.99999998245E-14  0.12500000000E+03  0.12500000000E+03 0.  0.
        -11    1    3    3    0    0  0.15881781513E+02  0.32826016204E+01  0.52184870473E+02  0.54646748888E+02  0.51100000000E-03 0. -1.
         23    2    1    0    0    0  0.12832569251E+02  0.19130936483E+02  0.98635313740E+01  0.99940933468E+02  0.96748299039E+02 0.  0.
         11    1    3    3    0    0 -0.30492122623E+01  0.15848334863E+02 -0.42321339099E+02  0.45294184580E+02  0.51100000000E-03 0.  1.
         22    1    1    0    0    0 -0.12832569251E+02 -0.19130936483E+02 -0.98635313740E+01  0.25059066532E+02  0.00000000000E+00 0. -1.
</event>
<event>
 5    1  0.8875601E-005  0.9118800E+02  0.7818608E-02  0.1130116E+00
         25   -1    0    0    0    0  0.00000000000E+00  0.00000000000E+00  0.99999998245E-14  0.12500000000E+03  0.12500000000E+03 0.  0.
        -11    1    3    3    0    0  0.21859572394E+02  0.81510501381E+00  0.27842500605E+02  0.35407769510E+02  0.51100000000E-03 0.  1.
         23    2    1    0    0    0 -0.29441960837E+02  0.74729058021E+01 -0.94471292772E+00  0.94609773584E+02  0.89596001005E+02 0.  0.
         11    1    3    3    0    0 -0.51301533232E+02  0.66578007883E+01 -0.28787213533E+02  0.59202004075E+02  0.51100000000E-03 0. -1.
         22    1    1    0    0    0  0.29441960837E+02 -0.74729058021E+01  0.94471292772E+00  0.30390226416E+02  0.00000000000E+00 0. -1.
</event>
<event>
 5    1  0.8875601E-005  0.9118800E+02  0.7818608E-02  0.1130116E+00
         25   -1    0    0    0    0  0.00000000000E+00  0.00000000000E+00  0.99999998245E-14  0.12500000000E+03  0.12500000000E+03 0.  0.
        -11    1    3    3    0    0 -0.12683083721E+02 -0.33753380112E+02 -0.39249210740E+02  0.53297765672E+02  0.51100000000E-03 0.  1.
         23    2    1    0    0    0 -0.21364238503E+02  0.30548889951E+01 -0.19261810513E+02  0.96072843593E+02  0.91614468825E+02 0.  0.
         11    1    3    3    0    0 -0.86811547820E+01  0.36808269107E+02  0.19987400227E+02  0.42775077921E+02  0.51100000000E-03 0. -1.
         22    1    1    0    0    0  0.21364238503E+02 -0.30548889951E+01  0.19261810513E+02  0.28927156407E+02  0.00000000000E+00 0.  1.
</event>
<event>
 5    1  0.8875601E-005  0.9118800E+02  0.7818608E-02  0.1130116E+00
         25   -1    0    0    0    0  0.00000000000E+00  0.00000000000E+00  0.99999998245E-14  0.12500000000E+03  0.12500000000E+03 0.  0.
        -11    1    3    3    0    0  0.14887211809E+02  0.29665609368E+02 -0.13907446491E+02  0.35987421730E+02  0.51100000000E-03 0.  1.
         23    2    1    0    0    0  0.15224666486E+02 -0.26353676296E+02  0.27737796784E+01  0.94438576969E+02  0.89356836573E+02 0.  0.
         11    1    3    3    0    0  0.33745467700E+00 -0.56019285665E+02  0.16681226169E+02  0.58451155239E+02  0.51100000000E-03 0. -1.
         22    1    1    0    0    0 -0.15224666486E+02  0.26353676296E+02 -0.27737796784E+01  0.30561423031E+02  0.00000000000E+00 0. -1.
</event>
<event>
 5    1  0.8875601E-005  0.9118800E+02  0.7818608E-02  0.1130116E+00
         25   -1    0    0    0    0  0.00000000000E+00  0.00000000000E+00  0.99999998245E-14  0.12500000000E+03  0.12500000000E+03 0.  0.
        -11    1    3    3    0    0  0.12440515184E+02 -0.31532390629E+02 -0.47328195142E+02  0.58215256870E+02  0.51100000000E-03 0.  1.
         23    2    1    0    0    0 -0.26940301213E+01 -0.21738597549E+01 -0.28611958426E+02  0.96179388808E+02  0.91759725381E+02 0.  0.
         11    1    3    3    0    0 -0.15134545305E+02  0.29358530874E+02  0.18716236716E+02  0.37964131938E+02  0.51100000000E-03 0. -1.
         22    1    1    0    0    0  0.26940301213E+01  0.21738597549E+01  0.28611958426E+02  0.28820611192E+02  0.00000000000E+00 0.  1.
</event>
<event>
 5    1  0.8875601E-005  0.9118800E+02  0.7818608E-02  0.1130116E+00
         25   -1    0    0    0    0  0.00000000000E+00  0.00000000000E+00  0.99999998245E-14  0.12500000000E+03  0.12500000000E+03 0.  0.
        -11    1    3    3    0    0 -0.27978202375E+01  0.20392214334E+01 -0.37912657290E+02  0.38070405897E+02  0.51100000000E-03 0.  1.
         23    2    1    0    0    0  0.24004945061E+02 -0.73416247924E+01  0.13272172140E+02  0.96604799784E+02  0.92337424406E+02 0.  0.
         11    1    3    3    0    0  0.26802765299E+02 -0.93808462258E+01  0.51184829430E+02  0.58534393886E+02  0.51100000000E-03 0. -1.
         22    1    1    0    0    0 -0.24004945061E+02  0.73416247924E+01 -0.13272172140E+02  0.28395200216E+02  0.00000000000E+00 0. -1.
</event>
<event>
 5    1  0.8875601E-005  0.9118800E+02  0.7818608E-02  0.1130116E+00
         25   -1    0    0    0    0  0.00000000000E+00  0.00000000000E+00  0.99999998245E-14  0.12500000000E+03  0.12500000000E+03 0.  0.
        -11    1    3    3    0    0  0.31759660750E+02 -0.20925365008E+02 -0.49492462354E+02  0.62418352924E+02  0.51100000000E-03 0.  1.
         23    2    1    0    0    0  0.15264288516E+02 -0.74030361794E+01 -0.21351566548E+02  0.97729267655E+02  0.93847306375E+02 0.  0.
         11    1    3    3    0    0 -0.16495372234E+02  0.13522328828E+02  0.28140895806E+02  0.35310914731E+02  0.51100000000E-03 0. -1.
         22    1    1    0    0    0 -0.15264288516E+02  0.74030361794E+01  0.21351566548E+02  0.27270732345E+02  0.00000000000E+00 0.  1.
</event>
<event>
 5    1  0.8875601E-005  0.9118800E+02  0.7818608E-02  0.1130116E+00
         25   -1    0    0    0    0  0.00000000000E+00  0.00000000000E+00  0.99999998245E-14  0.12500000000E+03  0.12500000000E+03 0.  0.
        -11    1    3    3    0    0  0.28388504414E+02 -0.10068109594E+02 -0.26503882933E+02  0.40121438464E+02  0.51100000000E-03 0.  1.
         23    2    1    0    0    0 -0.19538393102E+02  0.12889827243E+02  0.37846380719E+01  0.10128882254E+03  0.98474390753E+02 0.  0.
         11    1    3    3    0    0 -0.47926897516E+02  0.22957936837E+02  0.30288521005E+02  0.61167384072E+02  0.51100000000E-03 0. -1.
         22    1    1    0    0    0  0.19538393102E+02 -0.12889827243E+02 -0.37846380719E+01  0.23711177464E+02  0.00000000000E+00 0. -1.
</event>
<event>
 5    1  0.8875601E-005  0.9118800E+02  0.7818608E-02  0.1130116E+00
         25   -1    0    0    0    0  0.00000000000E+00  0.00000000000E+00  0.99999998245E-14  0.12500000000E+03  0.12500000000E+03 0.  0.
        -11    1    3    3    0    0  0.23546682619E+02 -0.23636206675E+02 -0.12561591806E+02  0.35649826329E+02  0.51100000000E-03 0.  1.
         23    2    1    0    0    0 -0.15052930673E+02  0.45643742907E+01  0.24326226932E+02  0.96031231451E+02  0.91557675062E+02 0.  0.
         11    1    3    3    0    0 -0.38599613292E+02  0.28200580966E+02  0.36887818737E+02  0.60381405122E+02  0.51100000000E-03 0. -1.
         22    1    1    0    0    0  0.15052930673E+02 -0.45643742907E+01 -0.24326226932E+02  0.28968768549E+02  0.00000000000E+00 0. -1.
</event>
<event>
 5    1  0.8875601E-005  0.9118800E+02  0.7818608E-02  0.1130116E+00
         25   -1    0    0    0    0  0.00000000000E+00  0.00000000000E+00  0.99999998245E-14  0.12500000000E+03  0.12500000000E+03 0.  0.
        -11    1    3    3    0    0  0.13808333555E+02  0.36920710431E+02 -0.28551606929E+01  0.39521650739E+02  0.51100000000E-03 0.  1.
         23    2    1    0    0    0 -0.17589155049E+02 -0.56169714053E+01 -0.22473322247E+02  0.95914282613E+02  0.91397870069E+02 0.  0.
         11    1    3    3    0    0 -0.31397488603E+02 -0.42537681836E+02 -0.19618161554E+02  0.56392631874E+02  0.51100000000E-03 0. -1.
         22    1    1    0    0    0  0.17589155049E+02  0.56169714053E+01  0.22473322247E+02  0.29085717387E+02  0.00000000000E+00 0. -1.
</event>
<event>
 5    1  0.8875601E-005  0.9118800E+02  0.7818608E-02  0.1130116E+00
         25   -1    0    0    0    0  0.00000000000E+00  0.00000000000E+00  0.99999998245E-14  0.12500000000E+03  0.12500000000E+03 0.  0.
        -11    1    3    3    0    0  0.48396646249E+01 -0.51958814714E+02  0.11964200441E+01  0.52197434816E+02  0.51100000000E-03 0.  1.
         23    2    1    0    0    0 -0.21613681565E+02 -0.25842533271E+02  0.88875210889E+01  0.90157844674E+02  0.83153239074E+02 0.  0.
         11    1    3    3    0    0 -0.26453346190E+02  0.26116281443E+02  0.76911010447E+01  0.37960409858E+02  0.51100000000E-03 0. -1.
         22    1    1    0    0    0  0.21613681565E+02  0.25842533271E+02 -0.88875210889E+01  0.34842155326E+02  0.00000000000E+00 0.  1.
</event>
<event>
 5    1  0.8875601E-005  0.9118800E+02  0.7818608E-02  0.1130116E+00
         25   -1    0    0    0    0  0.00000000000E+00  0.00000000000E+00  0.99999998245E-14  0.12500000000E+03  0.12500000000E+03 0.  0.
        -11    1    3    3    0    0  0.89335410822E+01  0.36612568850E+02 -0.27464199180E+00  0.37687713947E+02  0.51100000000E-03 0.  1.
         23    2    1    0    0    0  0.26570152124E+01 -0.25088571276E+02 -0.15882530410E+01  0.99721181076E+02  0.96463958393E+02 0.  0.
         11    1    3    3    0    0 -0.62765258698E+01 -0.61701140125E+02 -0.13136110492E+01  0.62033467129E+02  0.51100000000E-03 0. -1.
         22    1    1    0    0    0 -0.26570152124E+01  0.25088571276E+02  0.15882530410E+01  0.25278818924E+02  0.00000000000E+00 0. -1.
</event>
<event>
 5    1  0.8875601E-005  0.9118800E+02  0.7818608E-02  0.1130116E+00
         25   -1    0    0    0    0  0.00000000000E+00  0.00000000000E+00  0.99999998245E-14  0.12500000000E+03  0.12500000000E+03 0.  0.
        -11    1    3    3    0    0 -0.45447076331E+02 -0.78483129977E+01 -0.35381315447E+02  0.58128050432E+02  0.51100000000E-03 0.  1.
         23    2    1    0    0    0 -0.27797539983E+02  0.49050361837E+01 -0.37569209664E+01  0.96524096780E+02  0.92228109571E+02 0.  0.
         11    1    3    3    0    0  0.17649536348E+02  0.12753349181E+02  0.31624394481E+02  0.38396046349E+02  0.51100000000E-03 0. -1.
         22    1    1    0    0    0  0.27797539983E+02 -0.49050361837E+01  0.37569209664E+01  0.28475903220E+02  0.00000000000E+00 0.  1.
</event>
<event>
 5    1  0.8875601E-005  0.9118800E+02  0.7818608E-02  0.1130116E+00
         25   -1    0    0    0    0  0.00000000000E+00  0.00000000000E+00  0.99999998245E-14  0.12500000000E+03  0.12500000000E+03 0.  0.
        -11    1    3    3    0    0  0.33670166496E+02  0.18852299824E+02  0.39914738798E+02  0.55518246497E+02  0.51100000000E-03 0.  1.
         23    2    1    0    0    0  0.36210427346E+01  0.37070437498E+00  0.33412004700E+02  0.91390307495E+02  0.84985745121E+02 0.  0.
         11    1    3    3    0    0 -0.30049123762E+02 -0.18481595449E+02 -0.65027340986E+01  0.35872060998E+02  0.51100000000E-03 0. -1.
         22    1    1    0    0    0 -0.36210427346E+01 -0.37070437498E+00 -0.33412004700E+02  0.33609692505E+02  0.00000000000E+00 0.  1.
</event>
<event>
 5    1  0.8875601E-005  0.9118800E+02  0.7818608E-02  0.1130116E+00
         25   -1    0    0    0    0  0.00000000000E+00  0.00000000000E+00  0.99999998245E-14  0.12500000000E+03  0.12500000000E+03 0.  0.
        -11    1    3    3    0    0  0.83202159659E+01  0.44289533299E+02 -0.40905979703E+02  0.60861218598E+02  0.51100000000E-03 0. -1.
         23    2    1    0    0    0  0.11653248516E+01  0.13816598859E+02 -0.26006632568E+02  0.95527956916E+02  0.90867976917E+02 0.  0.
         11    1    3    3    0    0 -0.71548911143E+01 -0.30472934440E+02  0.14899347135E+02  0.34666738317E+02  0.51100000000E-03 0.  1.
         22    1    1    0    0    0 -0.11653248516E+01 -0.13816598859E+02  0.26006632568E+02  0.29472043084E+02  0.00000000000E+00 0. -1.
</event>
<event>
 5    1  0.8875601E-005  0.9118800E+02  0.7818608E-02  0.1130116E+00
         25   -1    0    0    0    0  0.00000000000E+00  0.00000000000E+00  0.99999998245E-14  0.12500000000E+03  0.12500000000E+03 0.  0.
        -11    1    3    3    0    0  0.32363350361E+02  0.97240270820E+01 -0.89859322493E+01  0.34966986257E+02  0.51100000000E-03 0.  1.
         23    2    1    0    0    0 -0.26152417722E+01 -0.22512631150E+02  0.23330149643E+02  0.92473796208E+02  0.86564710199E+02 0.  0.
         11    1    3    3    0    0 -0.34978592133E+02 -0.32236658232E+02  0.32316081892E+02  0.57506809950E+02  0.51100000000E-03 0. -1.
         22    1    1    0    0    0  0.26152417722E+01  0.22512631150E+02 -0.23330149643E+02  0.32526203792E+02  0.00000000000E+00 0. -1.
</event>
<event>
 5    1  0.8875601E-005  0.9118800E+02  0.7818608E-02  0.1130116E+00
         25   -1    0    0    0    0  0.00000000000E+00  0.00000000000E+00  0.99999998245E-14  0.12500000000E+03  0.12500000000E+03 0.  0.
        -11    1    3    3    0    0 -0.27219978923E+02  0.11405463141E+02  0.17745588465E+02  0.34437156565E+02  0.51100000000E-03 0.  1.
         23    2    1    0    0    0  0.25553738008E+02 -0.11707836201E+02 -0.51333635111E+01  0.96426964186E+02  0.92096368260E+02 0.  0.
         11    1    3    3    0    0  0.52773716931E+02 -0.23113299342E+02 -0.22878951976E+02  0.61989807622E+02  0.51100000000E-03 0. -1.
         22    1    1    0    0    0 -0.25553738008E+02  0.11707836201E+02  0.51333635111E+01  0.28573035814E+02  0.00000000000E+00 0. -1.
</event>
<event>
 5    1  0.8875601E-005  0.9118800E+02  0.7818608E-02  0.1130116E+00
         25   -1    0    0    0    0  0.00000000000E+00  0.00000000000E+00  0.99999998245E-14  0.12500000000E+03  0.12500000000E+03 0.  0.
        -11    1    3    3    0    0  0.98939004638E-01  0.44565351259E+02 -0.41405970412E+02  0.60832020415E+02  0.51100000000E-03 0. -1.
         23    2    1    0    0    0 -0.40261231913E+01  0.13791004377E+02 -0.25530659631E+02  0.95704675272E+02  0.91110750288E+02 0.  0.
         11    1    3    3    0    0 -0.41250621959E+01 -0.30774346882E+02  0.15875310781E+02  0.34872654857E+02  0.51100000000E-03 0.  1.
         22    1    1    0    0    0  0.40261231913E+01 -0.13791004377E+02  0.25530659631E+02  0.29295324728E+02  0.00000000000E+00 0. -1.
</event>
<event>
 5    1  0.8875601E-005  0.9118800E+02  0.7818608E-02  0.1130116E+00
         25   -1    0    0    0    0  0.00000000000E+00  0.00000000000E+00  0.99999998245E-14  0.12500000000E+03  0.12500000000E+03 0.  0.
        -11    1    3    3    0    0  0.28830218454E+02  0.95541222308E+01 -0.53917552234E+02  0.61883480727E+02  0.51100000000E-03 0.  1.
         23    2    1    0    0    0  0.17117781784E+02  0.89359932802E+01 -0.22894842417E+02  0.95049303207E+02  0.90207127222E+02 0.  0.
         11    1    3    3    0    0 -0.11712436670E+02 -0.61812895060E+00  0.31022709817E+02  0.33165822480E+02  0.51100000000E-03 0. -1.
         22    1    1    0    0    0 -0.17117781784E+02 -0.89359932802E+01  0.22894842417E+02  0.29950696793E+02  0.00000000000E+00 0.  1.
</event>
<event>
 5    1  0.8875601E-005  0.9118800E+02  0.7818608E-02  0.1130116E+00
         25   -1    0    0    0    0  0.00000000000E+00  0.00000000000E+00  0.99999998245E-14  0.12500000000E+03  0.12500000000E+03 0.  0.
        -11    1    3    3    0    0  0.98933703822E+01 -0.32622408934E+02  0.24332225574E+02  0.41882664001E+02  0.51100000000E-03 0.  1.
         23    2    1    0    0    0 -0.42544919796E+01  0.19279708872E+02  0.21583115754E+02  0.95748696408E+02  0.91171125374E+02 0.  0.
         11    1    3    3    0    0 -0.14147862362E+02  0.51902117806E+02 -0.27491098201E+01  0.53866032407E+02  0.51100000000E-03 0. -1.
         22    1    1    0    0    0  0.42544919796E+01 -0.19279708872E+02 -0.21583115754E+02  0.29251303592E+02  0.00000000000E+00 0. -1.
</event>
<event>
 5    1  0.8875601E-005  0.9118800E+02  0.7818608E-02  0.1130116E+00
         25   -1    0    0    0    0  0.00000000000E+00  0.00000000000E+00  0.99999998245E-14  0.12500000000E+03  0.12500000000E+03 0.  0.
        -11    1    3    3    0    0  0.13459384774E+02 -0.22409742078E+02  0.44546104959E+02  0.51649850394E+02  0.51100000000E-03 0. -1.
         23    2    1    0    0    0  0.13934985843E+01  0.15336152702E+02  0.24508053247E+02  0.96055499797E+02  0.91590801663E+02 0.  0.
         11    1    3    3    0    0 -0.12065886190E+02  0.37745894780E+02 -0.20038051711E+02  0.44405649403E+02  0.51100000000E-03 0.  1.
         22    1    1    0    0    0 -0.13934985843E+01 -0.15336152702E+02 -0.24508053247E+02  0.28944500203E+02  0.00000000000E+00 0. -1.
</event>
<event>
 5    1  0.8875601E-005  0.9118800E+02  0.7818608E-02  0.1130116E+00
         25   -1    0    0    0    0  0.00000000000E+00  0.00000000000E+00  0.99999998245E-14  0.12500000000E+03  0.12500000000E+03 0.  0.
        -11    1    3    3    0    0 -0.83649548352E-01  0.38390292084E+02 -0.42272884233E+02  0.57103574890E+02  0.51100000000E-03 0. -1.
         23    2    1    0    0    0  0.12449868154E+02  0.25162175355E+02 -0.81836309060E+01  0.95757802743E+02  0.91183609742E+02 0.  0.
         11    1    3    3    0    0  0.12533517703E+02 -0.13228116729E+02  0.34089253327E+02  0.38654227853E+02  0.51100000000E-03 0.  1.
         22    1    1    0    0    0 -0.12449868154E+02 -0.25162175355E+02  0.81836309060E+01  0.29242197257E+02  0.00000000000E+00 0. -1.
</event>
<event>
 5    1  0.8875601E-005  0.9118800E+02  0.7818608E-02  0.1130116E+00
         25   -1    0    0    0    0  0.00000000000E+00  0.00000000000E+00  0.99999998245E-14  0.12500000000E+03  0.12500000000E+03 0.  0.
        -11    1    3    3    0    0  0.14718820332E+02  0.62942937549E+01 -0.41768521850E+02  0.44731099066E+02  0.51100000000E-03 0. -1.
         23    2    1    0    0    0 -0.23561624391E+02  0.14873123246E+02 -0.93903100135E+01  0.95596975306E+02  0.90962870592E+02 0.  0.
         11    1    3    3    0    0 -0.38280444723E+02  0.85788294909E+01  0.32378211837E+02  0.50865876240E+02  0.51100000000E-03 0.  1.
         22    1    1    0    0    0  0.23561624391E+02 -0.14873123246E+02  0.93903100135E+01  0.29403024694E+02  0.00000000000E+00 0.  1.
</event>
<event>
 5    1  0.8875601E-005  0.9118800E+02  0.7818608E-02  0.1130116E+00
         25   -1    0    0    0    0  0.00000000000E+00  0.00000000000E+00  0.99999998245E-14  0.12500000000E+03  0.12500000000E+03 0.  0.
        -11    1    3    3    0    0 -0.16431378869E+02 -0.19976686589E+02 -0.41389732262E+02  0.48807460040E+02  0.51100000000E-03 0. -1.
         23    2    1    0    0    0 -0.33284014215E+02 -0.34833151767E+01 -0.65151266188E+01  0.90905924830E+02  0.84270286623E+02 0.  0.
         11    1    3    3    0    0 -0.16852635345E+02  0.16493371412E+02  0.34874605643E+02  0.42098464790E+02  0.51100000000E-03 0.  1.
         22    1    1    0    0    0  0.33284014215E+02  0.34833151767E+01  0.65151266188E+01  0.34094075170E+02  0.00000000000E+00 0. -1.
</event>
<event>
 5    1  0.8875601E-005  0.9118800E+02  0.7818608E-02  0.1130116E+00
         25   -1    0    0    0    0  0.00000000000E+00  0.00000000000E+00  0.99999998245E-14  0.12500000000E+03  0.12500000000E+03 0.  0.
        -11    1    3    3    0    0 -0.15035478351E+02 -0.11313170744E+02  0.24437962263E+02  0.30842623776E+02  0.51100000000E-03 0.  1.
         23    2    1    0    0    0  0.36049946580E+02 -0.36213026379E+01 -0.16779132162E+01  0.88729793577E+02  0.80978073541E+02 0.  0.
         11    1    3    3    0    0  0.51085424931E+02  0.76918681061E+01 -0.26115875479E+02  0.57887169802E+02  0.51100000000E-03 0. -1.
         22    1    1    0    0    0 -0.36049946580E+02  0.36213026379E+01  0.16779132162E+01  0.36270206423E+02  0.00000000000E+00 0. -1.
</event>
<event>
 5    1  0.8875601E-005  0.9118800E+02  0.7818608E-02  0.1130116E+00
         25   -1    0    0    0    0  0.00000000000E+00  0.00000000000E+00  0.99999998245E-14  0.12500000000E+03  0.12500000000E+03 0.  0.
        -11    1    3    3    0    0 -0.10365754181E+02  0.33618691052E+02  0.22288314444E+02  0.41646538977E+02  0.51100000000E-03 0.  1.
         23    2    1    0    0    0  0.77538352354E+01  0.14192224463E+02 -0.24613393071E+02  0.95549018446E+02  0.90896945006E+02 0.  0.
         11    1    3    3    0    0  0.18119589417E+02 -0.19426466589E+02 -0.46901707515E+02  0.53902479468E+02  0.51100000000E-03 0. -1.
         22    1    1    0    0    0 -0.77538352354E+01 -0.14192224463E+02  0.24613393071E+02  0.29450981554E+02  0.00000000000E+00 0. -1.
</event>
<event>
 5    1  0.8875601E-005  0.9118800E+02  0.7818608E-02  0.1130116E+00
         25   -1    0    0    0    0  0.00000000000E+00  0.00000000000E+00  0.99999998245E-14  0.12500000000E+03  0.12500000000E+03 0.  0.
        -11    1    3    3    0    0  0.25927805310E+02 -0.26313099364E+02  0.26202470061E+01  0.37033714113E+02  0.51100000000E-03 0. -1.
         23    2    1    0    0    0 -0.21763309817E+02 -0.17225409158E+01 -0.20120094220E+02  0.95311163835E+02  0.90569260562E+02 0.  0.
         11    1    3    3    0    0 -0.47691115127E+02  0.24590558448E+02 -0.22740341226E+02  0.58277449723E+02  0.51100000000E-03 0.  1.
         22    1    1    0    0    0  0.21763309817E+02  0.17225409158E+01  0.20120094220E+02  0.29688836165E+02  0.00000000000E+00 0.  1.
</event>
<event>
 5    1  0.8875601E-005  0.9118800E+02  0.7818608E-02  0.1130116E+00
         25   -1    0    0    0    0  0.00000000000E+00  0.00000000000E+00  0.99999998245E-14  0.12500000000E+03  0.12500000000E+03 0.  0.
        -11    1    3    3    0    0 -0.28343808206E+02 -0.14873145891E+02 -0.49140697134E+02  0.58646313161E+02  0.51100000000E-03 0. -1.
         23    2    1    0    0    0 -0.26044691397E+02 -0.37395145648E+01 -0.14818429333E+02  0.94802388057E+02  0.89864325593E+02 0.  0.
         11    1    3    3    0    0  0.22991168089E+01  0.11133631327E+02  0.34322267801E+02  0.36156074896E+02  0.51100000000E-03 0.  1.
         22    1    1    0    0    0  0.26044691397E+02  0.37395145648E+01  0.14818429333E+02  0.30197611943E+02  0.00000000000E+00 0. -1.
</event>
<event>
 5    1  0.8875601E-005  0.9118800E+02  0.7818608E-02  0.1130116E+00
         25   -1    0    0    0    0  0.00000000000E+00  0.00000000000E+00  0.99999998245E-14  0.12500000000E+03  0.12500000000E+03 0.  0.
        -11    1    3    3    0    0 -0.40493753453E+02 -0.15822682168E+01 -0.19436064480E+02  0.44944501823E+02  0.51100000000E-03 0. -1.
         23    2    1    0    0    0 -0.17266562099E+02 -0.50766059440E+01  0.24402181951E+02  0.94678842723E+02  0.89692311158E+02 0.  0.
         11    1    3    3    0    0  0.23227191354E+02 -0.34943377272E+01  0.43838246431E+02  0.49734340900E+02  0.51100000000E-03 0.  1.
         22    1    1    0    0    0  0.17266562099E+02  0.50766059440E+01 -0.24402181951E+02  0.30321157277E+02  0.00000000000E+00 0. -1.
</event>
<event>
 5    1  0.8875601E-005  0.9118800E+02  0.7818608E-02  0.1130116E+00
         25   -1    0    0    0    0  0.00000000000E+00  0.00000000000E+00  0.99999998245E-14  0.12500000000E+03  0.12500000000E+03 0.  0.
        -11    1    3    3    0    0 -0.31018479755E+02 -0.24819721658E+02 -0.84049658093E+01  0.40605518344E+02  0.51100000000E-03 0. -1.
         23    2    1    0    0    0 -0.10916696677E+02  0.20323696656E+02  0.17164077620E+02  0.96245305207E+02  0.91849476328E+02 0.  0.
         11    1    3    3    0    0  0.20101783077E+02  0.45143418314E+02  0.25569043429E+02  0.55639786863E+02  0.51100000000E-03 0.  1.
         22    1    1    0    0    0  0.10916696677E+02 -0.20323696656E+02 -0.17164077620E+02  0.28754694793E+02  0.00000000000E+00 0.  1.
</event>
<event>
 5    1  0.8875601E-005  0.9118800E+02  0.7818608E-02  0.1130116E+00
         25   -1    0    0    0    0  0.00000000000E+00  0.00000000000E+00  0.99999998245E-14  0.12500000000E+03  0.12500000000E+03 0.  0.
        -11    1    3    3    0    0  0.51382076989E+02  0.78565044578E+00  0.12625096659E+02  0.52916237095E+02  0.51100000000E-03 0. -1.
         23    2    1    0    0    0  0.11468929150E+02 -0.22137809799E+02  0.38702531901E+01  0.99769109839E+02  0.96526045500E+02 0.  0.
         11    1    3    3    0    0 -0.39913147839E+02 -0.22923460245E+02 -0.87548434693E+01  0.46852872745E+02  0.51100000000E-03 0.  1.
         22    1    1    0    0    0 -0.11468929150E+02  0.22137809799E+02 -0.38702531901E+01  0.25230890161E+02  0.00000000000E+00 0. -1.
</event>
<event>
 5    1  0.8875601E-005  0.9118800E+02  0.7818608E-02  0.1130116E+00
         25   -1    0    0    0    0  0.00000000000E+00  0.00000000000E+00  0.99999998245E-14  0.12500000000E+03  0.12500000000E+03 0.  0.
        -11    1    3    3    0    0 -0.60247553973E+01 -0.32811780422E+02  0.10055040736E+02  0.34842710235E+02  0.51100000000E-03 0.  1.
         23    2    1    0    0    0  0.17271684645E+02  0.17507998788E+02 -0.15532130272E+02  0.95912405001E+02  0.91395302124E+02 0.  0.
         11    1    3    3    0    0  0.23296440043E+02  0.50319779210E+02 -0.25587171007E+02  0.61069694766E+02  0.51100000000E-03 0. -1.
         22    1    1    0    0    0 -0.17271684645E+02 -0.17507998788E+02  0.15532130272E+02  0.29087594999E+02  0.00000000000E+00 0. -1.
</event>
<event>
 5    1  0.8875601E-005  0.9118800E+02  0.7818608E-02  0.1130116E+00
         25   -1    0    0    0    0  0.00000000000E+00  0.00000000000E+00  0.99999998245E-14  0.12500000000E+03  0.12500000000E+03 0.  0.
        -11    1    3    3    0    0 -0.22484683361E+02  0.15877387712E+02 -0.23483551509E+02  0.36181896276E+02  0.51100000000E-03 0.  1.
         23    2    1    0    0    0  0.61626526079E+01 -0.27277346658E+02  0.68506679645E+01  0.96208272378E+02  0.91799063691E+02 0.  0.
         11    1    3    3    0    0  0.28647335969E+02 -0.43154734370E+02  0.30334219473E+02  0.60026376102E+02  0.51100000000E-03 0. -1.
         22    1    1    0    0    0 -0.61626526079E+01  0.27277346658E+02 -0.68506679645E+01  0.28791727622E+02  0.00000000000E+00 0. -1.
</event>
<event>
 5    1  0.8875601E-005  0.9118800E+02  0.7818608E-02  0.1130116E+00
         25   -1    0    0    0    0  0.00000000000E+00  0.00000000000E+00  0.99999998245E-14  0.12500000000E+03  0.12500000000E+03 0.  0.
        -11    1    3    3    0    0  0.28276096877E+02  0.19044599259E+02  0.10103940843E+02  0.35557334495E+02  0.51100000000E-03 0.  1.
         23    2    1    0    0    0 -0.27508802551E+02  0.62516041841E+00 -0.67381999245E+01  0.96671068118E+02  0.92427090344E+02 0.  0.
         11    1    3    3    0    0 -0.55784899428E+02 -0.18419438841E+02 -0.16842140768E+02  0.61113733623E+02  0.51100000000E-03 0. -1.
         22    1    1    0    0    0  0.27508802551E+02 -0.62516041841E+00  0.67381999245E+01  0.28328931882E+02  0.00000000000E+00 0. -1.
</event>
<event>
 5    1  0.8875601E-005  0.9118800E+02  0.7818608E-02  0.1130116E+00
         25   -1    0    0    0    0  0.00000000000E+00  0.00000000000E+00  0.99999998245E-14  0.12500000000E+03  0.12500000000E+03 0.  0.
        -11    1    3    3    0    0  0.12405099947E+02 -0.41630067144E+02  0.80365236091E+01  0.44176178050E+02  0.51100000000E-03 0.  1.
         23    2    1    0    0    0 -0.25940928216E+02 -0.90015210999E+01 -0.68883146240E+01  0.96690849233E+02  0.92453838796E+02 0.  0.
         11    1    3    3    0    0 -0.38346028163E+02  0.32628546044E+02 -0.14924838233E+02  0.52514671182E+02  0.51100000000E-03 0. -1.
         22    1    1    0    0    0  0.25940928216E+02  0.90015210999E+01  0.68883146240E+01  0.28309150767E+02  0.00000000000E+00 0.  1.
</event>
<event>
 5    1  0.8875601E-005  0.9118800E+02  0.7818608E-02  0.1130116E+00
         25   -1    0    0    0    0  0.00000000000E+00  0.00000000000E+00  0.99999998245E-14  0.12500000000E+03  0.12500000000E+03 0.  0.
        -11    1    3    3    0    0  0.15320462137E+02  0.29237418054E+02  0.24012384076E+02  0.40818350822E+02  0.51100000000E-03 0. -1.
         23    2    1    0    0    0 -0.26621421034E+02  0.10387825157E+02 -0.60949779070E+01  0.95780901365E+02  0.91215269233E+02 0.  0.
         11    1    3    3    0    0 -0.41941883171E+02 -0.18849592897E+02 -0.30107361984E+02  0.54962550543E+02  0.51100000000E-03 0.  1.
         22    1    1    0    0    0  0.26621421034E+02 -0.10387825157E+02  0.60949779070E+01  0.29219098635E+02  0.00000000000E+00 0.  1.
</event>
<event>
 5    1  0.8875601E-005  0.9118800E+02  0.7818608E-02  0.1130116E+00
         25   -1    0    0    0    0  0.00000000000E+00  0.00000000000E+00  0.99999998245E-14  0.12500000000E+03  0.12500000000E+03 0.  0.
        -11    1    3    3    0    0  0.33406164761E+02  0.29693609412E+01  0.27282021535E+02  0.43233061975E+02  0.51100000000E-03 0.  1.
         23    2    1    0    0    0 -0.93053839466E+01 -0.23235300773E+02  0.17938426323E+02  0.94206226094E+02  0.89031210952E+02 0.  0.
         11    1    3    3    0    0 -0.42711548707E+02 -0.26204661715E+02 -0.93435952118E+01  0.50973164119E+02  0.51100000000E-03 0. -1.
         22    1    1    0    0    0  0.93053839466E+01  0.23235300773E+02 -0.17938426323E+02  0.30793773906E+02  0.00000000000E+00 0. -1.
</event>
<event>
 5    1  0.8875601E-005  0.9118800E+02  0.7818608E-02  0.1130116E+00
         25   -1    0    0    0    0  0.00000000000E+00  0.00000000000E+00  0.99999998245E-14  0.12500000000E+03  0.12500000000E+03 0.  0.
        -11    1    3    3    0    0  0.11355202049E+02  0.26781192466E+02 -0.61521682336E+01  0.29732508433E+02  0.51100000000E-03 0. -1.
         23    2    1    0    0    0 -0.32609912963E+02 -0.13638104747E+02 -0.21759059658E+01  0.89586176550E+02  0.82289392619E+02 0.  0.
         11    1    3    3    0    0 -0.43965115013E+02 -0.40419297212E+02  0.39762622678E+01  0.59853668117E+02  0.51100000000E-03 0.  1.
         22    1    1    0    0    0  0.32609912963E+02  0.13638104747E+02  0.21759059658E+01  0.35413823450E+02  0.00000000000E+00 0.  1.
</event>
<event>
 5    1  0.8875601E-005  0.9118800E+02  0.7818608E-02  0.1130116E+00
         25   -1    0    0    0    0  0.00000000000E+00  0.00000000000E+00  0.99999998245E-14  0.12500000000E+03  0.12500000000E+03 0.  0.
        -11    1    3    3    0    0 -0.50862087323E+02  0.13120341596E+02 -0.10982246219E+02  0.53662883101E+02  0.51100000000E-03 0.  1.
         23    2    1    0    0    0 -0.12061537526E+02  0.26764680213E+02 -0.46320125312E+01  0.95279900160E+02  0.90526101430E+02 0.  0.
         11    1    3    3    0    0  0.38800549796E+02  0.13644338616E+02  0.63502336881E+01  0.41617017059E+02  0.51100000000E-03 0. -1.
         22    1    1    0    0    0  0.12061537526E+02 -0.26764680213E+02  0.46320125312E+01  0.29720099840E+02  0.00000000000E+00 0.  1.
</event>
<event>
 5    1  0.8875601E-005  0.9118800E+02  0.7818608E-02  0.1130116E+00
         25   -1    0    0    0    0  0.00000000000E+00  0.00000000000E+00  0.99999998245E-14  0.12500000000E+03  0.12500000000E+03 0.  0.
        -11    1    3    3    0    0  0.31774780027E+02 -0.17476179827E+02  0.11173767236E+02  0.37946101007E+02  0.51100000000E-03 0.  1.
         23    2    1    0    0    0 -0.12939104601E+02  0.11525580422E+02  0.26442330678E+02  0.93385821478E+02  0.87871812144E+02 0.  0.
         11    1    3    3    0    0 -0.44713884628E+02  0.29001760249E+02  0.15268563442E+02  0.55439720471E+02  0.51100000000E-03 0. -1.
         22    1    1    0    0    0  0.12939104601E+02 -0.11525580422E+02 -0.26442330678E+02  0.31614178522E+02  0.00000000000E+00 0. -1.
</event>
<event>
 5    1  0.8875601E-005  0.9118800E+02  0.7818608E-02  0.1130116E+00
         25   -1    0    0    0    0  0.00000000000E+00  0.00000000000E+00  0.99999998245E-14  0.12500000000E+03  0.12500000000E+03 0.  0.
        -11    1    3    3    0    0 -0.50538400061E+01 -0.80586458018E+01  0.27560876271E+02  0.29156216697E+02  0.51100000000E-03 0.  1.
         23    2    1    0    0    0 -0.27397423187E+01  0.77648358083E+01 -0.32584477899E+02  0.91391265078E+02  0.84987153555E+02 0.  0.
         11    1    3    3    0    0  0.23140976874E+01  0.15823481610E+02 -0.60145354171E+02  0.62235048381E+02  0.51100000000E-03 0. -1.
         22    1    1    0    0    0  0.27397423187E+01 -0.77648358083E+01  0.32584477899E+02  0.33608734922E+02  0.00000000000E+00 0. -1.
</event>
<event>
 5    1  0.8875601E-005  0.9118800E+02  0.7818608E-02  0.1130116E+00
         25   -1    0    0    0    0  0.00000000000E+00  0.00000000000E+00  0.99999998245E-14  0.12500000000E+03  0.12500000000E+03 0.  0.
        -11    1    3    3    0    0  0.43208964144E+02  0.65777719806E+01 -0.13484391832E+02  0.45739594335E+02  0.51100000000E-03 0. -1.
         23    2    1    0    0    0  0.13295477334E+02 -0.35728267451E+01  0.25563553375E+02  0.95965019896E+02  0.91467234429E+02 0.  0.
         11    1    3    3    0    0 -0.29913486810E+02 -0.10150598726E+02  0.39047945207E+02  0.50225425561E+02  0.51100000000E-03 0.  1.
         22    1    1    0    0    0 -0.13295477334E+02  0.35728267451E+01 -0.25563553375E+02  0.29034980104E+02  0.00000000000E+00 0.  1.
</event>
<event>
 5    1  0.8875601E-005  0.9118800E+02  0.7818608E-02  0.1130116E+00
         25   -1    0    0    0    0  0.00000000000E+00  0.00000000000E+00  0.99999998245E-14  0.12500000000E+03  0.12500000000E+03 0.  0.
        -11    1    3    3    0    0 -0.10500368924E+02  0.25581801512E+01 -0.32120086417E+02  0.33889555691E+02  0.51100000000E-03 0.  1.
         23    2    1    0    0    0 -0.12787922027E+01 -0.13255077468E+02  0.26522116171E+02  0.95322482679E+02  0.90584881022E+02 0.  0.
         11    1    3    3    0    0  0.92215767215E+01 -0.15813257619E+02  0.58642202587E+02  0.61432926988E+02  0.51100000000E-03 0. -1.
         22    1    1    0    0    0  0.12787922027E+01  0.13255077468E+02 -0.26522116171E+02  0.29677517321E+02  0.00000000000E+00 0. -1.
</event>
<event>
 5    1  0.8875601E-005  0.9118800E+02  0.7818608E-02  0.1130116E+00
         25   -1    0    0    0    0  0.00000000000E+00  0.00000000000E+00  0.99999998245E-14  0.12500000000E+03  0.12500000000E+03 0.  0.
        -11    1    3    3    0    0  0.43515254782E+02 -0.20194977652E+02  0.79811967334E+01  0.48632437967E+02  0.51100000000E-03 0. -1.
         23    2    1    0    0    0  0.18784091488E+02 -0.67230568858E+01 -0.25654163909E+02  0.92501112130E+02  0.86604145585E+02 0.  0.
         11    1    3    3    0    0 -0.24731163294E+02  0.13471920766E+02 -0.33635360642E+02  0.43868674163E+02  0.51100000000E-03 0.  1.
         22    1    1    0    0    0 -0.18784091488E+02  0.67230568858E+01  0.25654163909E+02  0.32498887870E+02  0.00000000000E+00 0.  1.
</event>
<event>
 5    1  0.8875601E-005  0.9118800E+02  0.7818608E-02  0.1130116E+00
         25   -1    0    0    0    0  0.00000000000E+00  0.00000000000E+00  0.99999998245E-14  0.12500000000E+03  0.12500000000E+03 0.  0.
        -11    1    3    3    0    0  0.18077257749E+02  0.24232028275E+02 -0.23726444785E+02  0.38430751026E+02  0.51100000000E-03 0.  1.
         23    2    1    0    0    0 -0.20126822664E+01 -0.27585162022E+02 -0.87903797692E+01  0.95978235233E+02  0.91485292852E+02 0.  0.
         11    1    3    3    0    0 -0.20089940015E+02 -0.51817190297E+02  0.14936065016E+02  0.57547484207E+02  0.51100000000E-03 0. -1.
         22    1    1    0    0    0  0.20126822664E+01  0.27585162022E+02  0.87903797692E+01  0.29021764767E+02  0.00000000000E+00 0. -1.
</event>
<event>
 5    1  0.8875601E-005  0.9118800E+02  0.7818608E-02  0.1130116E+00
         25   -1    0    0    0    0  0.00000000000E+00  0.00000000000E+00  0.99999998245E-14  0.12500000000E+03  0.12500000000E+03 0.  0.
        -11    1    3    3    0    0  0.19555480610E+02  0.41489900367E+02 -0.27862757001E+02  0.53667139688E+02  0.51100000000E-03 0. -1.
         23    2    1    0    0    0  0.51746266388E+01  0.25324099216E+02  0.10007848531E+02  0.97282788846E+02  0.93250722310E+02 0.  0.
         11    1    3    3    0    0 -0.14380853971E+02 -0.16165801151E+02  0.37870605532E+02  0.43615649158E+02  0.51100000000E-03 0.  1.
         22    1    1    0    0    0 -0.51746266388E+01 -0.25324099216E+02 -0.10007848531E+02  0.27717211154E+02  0.00000000000E+00 0. -1.
</event>
<event>
 5    1  0.8875601E-005  0.9118800E+02  0.7818608E-02  0.1130116E+00
         25   -1    0    0    0    0  0.00000000000E+00  0.00000000000E+00  0.99999998245E-14  0.12500000000E+03  0.12500000000E+03 0.  0.
        -11    1    3    3    0    0 -0.28157316685E+02 -0.45196518162E+02 -0.28169307738E+02  0.60241759897E+02  0.51100000000E-03 0.  1.
         23    2    1    0    0    0 -0.21120696926E+02 -0.17201225646E+02 -0.48891933567E+01  0.97325639771E+02  0.93308145105E+02 0.  0.
         11    1    3    3    0    0  0.70366197588E+01  0.27995292516E+02  0.23280114381E+02  0.37083879874E+02  0.51100000000E-03 0. -1.
         22    1    1    0    0    0  0.21120696926E+02  0.17201225646E+02  0.48891933567E+01  0.27674360229E+02  0.00000000000E+00 0.  1.
</event>
<event>
 5    1  0.8875601E-005  0.9118800E+02  0.7818608E-02  0.1130116E+00
         25   -1    0    0    0    0  0.00000000000E+00  0.00000000000E+00  0.99999998245E-14  0.12500000000E+03  0.12500000000E+03 0.  0.
        -11    1    3    3    0    0 -0.36342033439E+02 -0.45356666079E+02  0.22728256597E+02  0.62406283341E+02  0.51100000000E-03 0. -1.
         23    2    1    0    0    0 -0.15499753061E+02 -0.21537400404E+02  0.12497803020E+02  0.95669179326E+02  0.91062038366E+02 0.  0.
         11    1    3    3    0    0  0.20842280377E+02  0.23819265675E+02 -0.10230453578E+02  0.33262895985E+02  0.51100000000E-03 0.  1.
         22    1    1    0    0    0  0.15499753061E+02  0.21537400404E+02 -0.12497803020E+02  0.29330820674E+02  0.00000000000E+00 0. -1.
</event>
<event>
 5    1  0.8875601E-005  0.9118800E+02  0.7818608E-02  0.1130116E+00
         25   -1    0    0    0    0  0.00000000000E+00  0.00000000000E+00  0.99999998245E-14  0.12500000000E+03  0.12500000000E+03 0.  0.
        -11    1    3    3    0    0  0.21822336056E+02 -0.19139931689E+02 -0.80204148673E+01  0.30114421643E+02  0.51100000000E-03 0. -1.
         23    2    1    0    0    0 -0.22665427836E+02  0.22276315826E+02 -0.12008093915E+02  0.91027214050E+02  0.84450005994E+02 0.  0.
         11    1    3    3    0    0 -0.44487763892E+02  0.41416247514E+02 -0.39876790477E+01  0.60912792406E+02  0.51100000000E-03 0.  1.
         22    1    1    0    0    0  0.22665427836E+02 -0.22276315826E+02  0.12008093915E+02  0.33972785950E+02  0.00000000000E+00 0.  1.
</event>
<event>
 5    1  0.8875601E-005  0.9118800E+02  0.7818608E-02  0.1130116E+00
         25   -1    0    0    0    0  0.00000000000E+00  0.00000000000E+00  0.99999998245E-14  0.12500000000E+03  0.12500000000E+03 0.  0.
        -11    1    3    3    0    0 -0.42392135677E+02  0.14273556867E+02  0.26808113410E+02  0.52148849822E+02  0.51100000000E-03 0.  1.
         23    2    1    0    0    0  0.68540154518E+00 -0.46250792406E+01  0.25360730980E+02  0.99211866894E+02  0.95801705223E+02 0.  0.
         11    1    3    3    0    0  0.43077537222E+02 -0.18898636107E+02 -0.14473824307E+01  0.47063017073E+02  0.51100000000E-03 0. -1.
         22    1    1    0    0    0 -0.68540154518E+00  0.46250792406E+01 -0.25360730980E+02  0.25788133106E+02  0.00000000000E+00 0. -1.
</event>
<event>
 5    1  0.8875601E-005  0.9118800E+02  0.7818608E-02  0.1130116E+00
         25   -1    0    0    0    0  0.00000000000E+00  0.00000000000E+00  0.99999998245E-14  0.12500000000E+03  0.12500000000E+03 0.  0.
        -11    1    3    3    0    0 -0.46381454321E+02 -0.29118614738E+02  0.19131266160E+02  0.58009812742E+02  0.51100000000E-03 0. -1.
         23    2    1    0    0    0 -0.89400690640E+01 -0.17278657537E+02  0.19741661161E+02  0.97283397998E+02  0.93251538858E+02 0.  0.
         11    1    3    3    0    0  0.37441385257E+02  0.11839957202E+02  0.61039500154E+00  0.39273585256E+02  0.51100000000E-03 0.  1.
         22    1    1    0    0    0  0.89400690640E+01  0.17278657537E+02 -0.19741661161E+02  0.27716602002E+02  0.00000000000E+00 0. -1.
</event>
<event>
 5    1  0.8875601E-005  0.9118800E+02  0.7818608E-02  0.1130116E+00
         25   -1    0    0    0    0  0.00000000000E+00  0.00000000000E+00  0.99999998245E-14  0.12500000000E+03  0.12500000000E+03 0.  0.
        -11    1    3    3    0    0 -0.22438946004E+02  0.90135740371E+01  0.45846017674E+02  0.51832500919E+02  0.51100000000E-03 0. -1.
         23    2    1    0    0    0 -0.11705255393E+02 -0.21479823987E+02  0.16498332546E+02  0.95494223970E+02  0.90821561275E+02 0.  0.
         11    1    3    3    0    0  0.10733690610E+02 -0.30493398024E+02 -0.29347685127E+02  0.43661723051E+02  0.51100000000E-03 0.  1.
         22    1    1    0    0    0  0.11705255393E+02  0.21479823987E+02 -0.16498332546E+02  0.29505776030E+02  0.00000000000E+00 0. -1.
</event>
<event>
 5    1  0.8875601E-005  0.9118800E+02  0.7818608E-02  0.1130116E+00
         25   -1    0    0    0    0  0.00000000000E+00  0.00000000000E+00  0.99999998245E-14  0.12500000000E+03  0.12500000000E+03 0.  0.
        -11    1    3    3    0    0 -0.46075434873E+02 -0.26408028361E+02 -0.10620160578E+02  0.54158263189E+02  0.51100000000E-03 0.  1.
         23    2    1    0    0    0 -0.21589459642E+02 -0.10612064559E+02  0.17963790527E+02  0.94976368442E+02  0.90106004852E+02 0.  0.
         11    1    3    3    0    0  0.24485975231E+02  0.15795963802E+02  0.28583951105E+02  0.40818105253E+02  0.51100000000E-03 0. -1.
         22    1    1    0    0    0  0.21589459642E+02  0.10612064559E+02 -0.17963790527E+02  0.30023631558E+02  0.00000000000E+00 0.  1.
</event>
<event>
 5    1  0.8875601E-005  0.9118800E+02  0.7818608E-02  0.1130116E+00
         25   -1    0    0    0    0  0.00000000000E+00  0.00000000000E+00  0.99999998245E-14  0.12500000000E+03  0.12500000000E+03 0.  0.
        -11    1    3    3    0    0  0.51247536924E+01  0.18309593390E+02 -0.32616437932E+02  0.37753626768E+02  0.51100000000E-03 0. -1.
         23    2    1    0    0    0  0.15664994751E+02  0.34494265673E+02  0.11080027760E+02  0.85528321039E+02  0.75875425928E+02 0.  0.
         11    1    3    3    0    0  0.10540241058E+02  0.16184672283E+02  0.43696465692E+02  0.47774694271E+02  0.51100000000E-03 0.  1.
         22    1    1    0    0    0 -0.15664994751E+02 -0.34494265673E+02 -0.11080027760E+02  0.39471678961E+02  0.00000000000E+00 0.  1.
</event>
<event>
 5    1  0.8875601E-005  0.9118800E+02  0.7818608E-02  0.1130116E+00
         25   -1    0    0    0    0  0.00000000000E+00  0.00000000000E+00  0.99999998245E-14  0.12500000000E+03  0.12500000000E+03 0.  0.
        -11    1    3    3    0    0  0.23101098758E+02 -0.56116552637E+02  0.35000642668E+01  0.60786336407E+02  0.51100000000E-03 0.  1.
         23    2    1    0    0    0  0.21085564066E+02 -0.24674232222E+02 -0.45454433274E+00  0.92540404218E+02  0.86660839222E+02 0.  0.
         11    1    3    3    0    0 -0.20155346920E+01  0.31442320414E+02 -0.39546085996E+01  0.31754067811E+02  0.51100000000E-03 0. -1.
         22    1    1    0    0    0 -0.21085564066E+02  0.24674232222E+02  0.45454433274E+00  0.32459595782E+02  0.00000000000E+00 0.  1.
</event>
<event>
 5    1  0.8875601E-005  0.9118800E+02  0.7818608E-02  0.1130116E+00
         25   -1    0    0    0    0  0.00000000000E+00  0.00000000000E+00  0.99999998245E-14  0.12500000000E+03  0.12500000000E+03 0.  0.
        -11    1    3    3    0    0  0.53203374121E+02 -0.27563792837E+02  0.65651773913E+01  0.60278215367E+02  0.51100000000E-03 0. -1.
         23    2    1    0    0    0  0.26160404596E+02 -0.26624736713E+02  0.35242579985E+01  0.87507817240E+02  0.79069300680E+02 0.  0.
         11    1    3    3    0    0 -0.27042969525E+02  0.93905612432E+00 -0.30409193928E+01  0.27229601873E+02  0.51100000000E-03 0.  1.
         22    1    1    0    0    0 -0.26160404596E+02  0.26624736713E+02 -0.35242579985E+01  0.37492182760E+02  0.00000000000E+00 0. -1.
</event>
<event>
 5    1  0.8875601E-005  0.9118800E+02  0.7818608E-02  0.1130116E+00
         25   -1    0    0    0    0  0.00000000000E+00  0.00000000000E+00  0.99999998245E-14  0.12500000000E+03  0.12500000000E+03 0.  0.
        -11    1    3    3    0    0 -0.47986545817E+02  0.13762120041E+02  0.22186737773E+02  0.54629258285E+02  0.51100000000E-03 0. -1.
         23    2    1    0    0    0 -0.18613107924E+02 -0.16306890412E+02  0.83730436522E+01  0.98875867067E+02  0.95362292164E+02 0.  0.
         11    1    3    3    0    0  0.29373437893E+02 -0.30069010452E+02 -0.13813694120E+02  0.44246608783E+02  0.51100000000E-03 0.  1.
         22    1    1    0    0    0  0.18613107924E+02  0.16306890412E+02 -0.83730436522E+01  0.26124132933E+02  0.00000000000E+00 0. -1.
</event>
<event>
 5    1  0.8875601E-005  0.9118800E+02  0.7818608E-02  0.1130116E+00
         25   -1    0    0    0    0  0.00000000000E+00  0.00000000000E+00  0.99999998245E-14  0.12500000000E+03  0.12500000000E+03 0.  0.
        -11    1    3    3    0    0 -0.13196817492E+02  0.40735194152E+02 -0.10526327829E+02  0.44094394342E+02  0.51100000000E-03 0. -1.
         23    2    1    0    0    0  0.22187429291E+02  0.12357765754E+02  0.14353622547E+02  0.95827703669E+02  0.91279383857E+02 0.  0.
         11    1    3    3    0    0  0.35384246783E+02 -0.28377428399E+02  0.24879950377E+02  0.51733309327E+02  0.51100000000E-03 0.  1.
         22    1    1    0    0    0 -0.22187429291E+02 -0.12357765754E+02 -0.14353622547E+02  0.29172296331E+02  0.00000000000E+00 0.  1.
</event>
<event>
 5    1  0.8875601E-005  0.9118800E+02  0.7818608E-02  0.1130116E+00
         25   -1    0    0    0    0  0.00000000000E+00  0.00000000000E+00  0.99999998245E-14  0.12500000000E+03  0.12500000000E+03 0.  0.
        -11    1    3    3    0    0  0.22820002597E+02  0.31558250238E+02 -0.54946023282E+01  0.39330221607E+02  0.51100000000E-03 0. -1.
         23    2    1    0    0    0 -0.27864784105E+02  0.10641814627E+02  0.37579142312E+01  0.94936461766E+02  0.90050627102E+02 0.  0.
         11    1    3    3    0    0 -0.50684786702E+02 -0.20916435611E+02  0.92525165594E+01  0.55606240159E+02  0.51100000000E-03 0.  1.
         22    1    1    0    0    0  0.27864784105E+02 -0.10641814627E+02 -0.37579142312E+01  0.30063538234E+02  0.00000000000E+00 0.  1.
</event>
<event>
 5    1  0.8875601E-005  0.9118800E+02  0.7818608E-02  0.1130116E+00
         25   -1    0    0    0    0  0.00000000000E+00  0.00000000000E+00  0.99999998245E-14  0.12500000000E+03  0.12500000000E+03 0.  0.
        -11    1    3    3    0    0 -0.11891990148E+02 -0.10084312348E+02  0.31196443137E+02  0.34875935111E+02  0.51100000000E-03 0.  1.
         23    2    1    0    0    0 -0.47220213341E+01 -0.73576650693E+00 -0.28692250022E+02  0.95912476057E+02  0.91395399305E+02 0.  0.
         11    1    3    3    0    0  0.71699688142E+01  0.93485458408E+01 -0.59888693159E+02  0.61036540946E+02  0.51100000000E-03 0. -1.
         22    1    1    0    0    0  0.47220213341E+01  0.73576650693E+00  0.28692250022E+02  0.29087523943E+02  0.00000000000E+00 0. -1.
</event>
<event>
 5    1  0.8875601E-005  0.9118800E+02  0.7818608E-02  0.1130116E+00
         25   -1    0    0    0    0  0.00000000000E+00  0.00000000000E+00  0.99999998245E-14  0.12500000000E+03  0.12500000000E+03 0.  0.
        -11    1    3    3    0    0 -0.33749422078E+02 -0.54953516850E+01  0.46271701138E+02  0.57535143236E+02  0.51100000000E-03 0. -1.
         23    2    1    0    0    0 -0.22699408210E+01 -0.13136277995E+02  0.26091002301E+02  0.95700600143E+02  0.91105159216E+02 0.  0.
         11    1    3    3    0    0  0.31479481257E+02 -0.76409263100E+01 -0.20180698837E+02  0.38165456907E+02  0.51100000000E-03 0.  1.
         22    1    1    0    0    0  0.22699408210E+01  0.13136277995E+02 -0.26091002301E+02  0.29299399857E+02  0.00000000000E+00 0. -1.
</event>
<event>
 5    1  0.8875601E-005  0.9118800E+02  0.7818608E-02  0.1130116E+00
         25   -1    0    0    0    0  0.00000000000E+00  0.00000000000E+00  0.99999998245E-14  0.12500000000E+03  0.12500000000E+03 0.  0.
        -11    1    3    3    0    0  0.12194187801E+02 -0.14841003152E+02 -0.29407258810E+02  0.35124641801E+02  0.51100000000E-03 0.  1.
         23    2    1    0    0    0 -0.12374629962E+02  0.12415284437E+02  0.21108802463E+02  0.97561845984E+02  0.93624043365E+02 0.  0.
         11    1    3    3    0    0 -0.24568817763E+02  0.27256287589E+02  0.50516061273E+02  0.62437204183E+02  0.51100000000E-03 0. -1.
         22    1    1    0    0    0  0.12374629962E+02 -0.12415284437E+02 -0.21108802463E+02  0.27438154016E+02  0.00000000000E+00 0. -1.
</event>
<event>
 5    1  0.8875601E-005  0.9118800E+02  0.7818608E-02  0.1130116E+00
         25   -1    0    0    0    0  0.00000000000E+00  0.00000000000E+00  0.99999998245E-14  0.12500000000E+03  0.12500000000E+03 0.  0.
        -11    1    3    3    0    0 -0.52539282110E+02  0.16773285737E+02 -0.21876761517E+02  0.59332216997E+02  0.51100000000E-03 0. -1.
         23    2    1    0    0    0 -0.32368037679E+02  0.95609163624E+01  0.17241625390E+01  0.91205418758E+02  0.84713367832E+02 0.  0.
         11    1    3    3    0    0  0.20171244432E+02 -0.72123693744E+01  0.23600924056E+02  0.31873201761E+02  0.51100000000E-03 0.  1.
         22    1    1    0    0    0  0.32368037679E+02 -0.95609163624E+01 -0.17241625390E+01  0.33794581242E+02  0.00000000000E+00 0. -1.
</event>
<event>
 5    1  0.8875601E-005  0.9118800E+02  0.7818608E-02  0.1130116E+00
         25   -1    0    0    0    0  0.00000000000E+00  0.00000000000E+00  0.99999998245E-14  0.12500000000E+03  0.12500000000E+03 0.  0.
        -11    1    3    3    0    0 -0.24290804710E+02  0.10264693395E+02  0.53953766057E+02  0.60053442832E+02  0.51100000000E-03 0. -1.
         23    2    1    0    0    0 -0.14305934805E+02  0.15820324550E+02  0.20454431220E+02  0.95447907079E+02  0.90757791785E+02 0.  0.
         11    1    3    3    0    0  0.99848699058E+01  0.55556311550E+01 -0.33499334837E+02  0.35394464247E+02  0.51100000000E-03 0.  1.
         22    1    1    0    0    0  0.14305934805E+02 -0.15820324550E+02 -0.20454431220E+02  0.29552092921E+02  0.00000000000E+00 0. -1.
</event>
<event>
 5    1  0.8875601E-005  0.9118800E+02  0.7818608E-02  0.1130116E+00
         25   -1    0    0    0    0  0.00000000000E+00  0.00000000000E+00  0.99999998245E-14  0.12500000000E+03  0.12500000000E+03 0.  0.
        -11    1    3    3    0    0  0.13547080698E+02 -0.21729480345E+02 -0.10304349657E+02  0.27602053069E+02  0.51100000000E-03 0.  1.
         23    2    1    0    0    0  0.58275350457E+01  0.31571537506E+02  0.17736354787E+02  0.88321662711E+02  0.80345601483E+02 0.  0.
         11    1    3    3    0    0 -0.77195456527E+01  0.53301017851E+02  0.28040704444E+02  0.60719609641E+02  0.51100000000E-03 0. -1.
         22    1    1    0    0    0 -0.58275350457E+01 -0.31571537506E+02 -0.17736354787E+02  0.36678337289E+02  0.00000000000E+00 0. -1.
</event>
<event>
 5    1  0.8875601E-005  0.9118800E+02  0.7818608E-02  0.1130116E+00
         25   -1    0    0    0    0  0.00000000000E+00  0.00000000000E+00  0.99999998245E-14  0.12500000000E+03  0.12500000000E+03 0.  0.
        -11    1    3    3    0    0 -0.69570159873E+01 -0.19391921545E+02 -0.57554959866E+02  0.61131171247E+02  0.51100000000E-03 0.  1.
         23    2    1    0    0    0  0.60113285139E+01 -0.99835730563E+01 -0.25211625043E+02  0.97225302184E+02  0.93173631173E+02 0.  0.
         11    1    3    3    0    0  0.12968344501E+02  0.94083484883E+01  0.32343334823E+02  0.36094130937E+02  0.51100000000E-03 0. -1.
         22    1    1    0    0    0 -0.60113285139E+01  0.99835730563E+01  0.25211625043E+02  0.27774697816E+02  0.00000000000E+00 0.  1.
</event>
<event>
 5    1  0.8875601E-005  0.9118800E+02  0.7818608E-02  0.1130116E+00
         25   -1    0    0    0    0  0.00000000000E+00  0.00000000000E+00  0.99999998245E-14  0.12500000000E+03  0.12500000000E+03 0.  0.
        -11    1    3    3    0    0 -0.90309891636E+01  0.24428945313E+02  0.38252160969E+02  0.46276991620E+02  0.51100000000E-03 0.  1.
         23    2    1    0    0    0 -0.10153875340E+02 -0.16388291288E+02  0.32078824560E+02  0.87573695602E+02  0.79173378736E+02 0.  0.
         11    1    3    3    0    0 -0.11228861767E+01 -0.40817236601E+02 -0.61733364090E+01  0.41296703982E+02  0.51100000000E-03 0. -1.
         22    1    1    0    0    0  0.10153875340E+02  0.16388291288E+02 -0.32078824560E+02  0.37426304398E+02  0.00000000000E+00 0. -1.
</event>
<event>
 5    1  0.8875601E-005  0.9118800E+02  0.7818608E-02  0.1130116E+00
         25   -1    0    0    0    0  0.00000000000E+00  0.00000000000E+00  0.99999998245E-14  0.12500000000E+03  0.12500000000E+03 0.  0.
        -11    1    3    3    0    0 -0.82595848691E+01  0.21784310506E+02 -0.23931568285E+02  0.33399055185E+02  0.51100000000E-03 0.  1.
         23    2    1    0    0    0  0.68689937971E+00 -0.29877231351E+02  0.70439044774E+01  0.94295971368E+02  0.89157124460E+02 0.  0.
         11    1    3    3    0    0  0.89464842488E+01 -0.51661541857E+02  0.30975472762E+02  0.60896916183E+02  0.51100000000E-03 0. -1.
         22    1    1    0    0    0 -0.68689937971E+00  0.29877231351E+02 -0.70439044774E+01  0.30704028632E+02  0.00000000000E+00 0. -1.
</event>
<event>
 5    1  0.8875601E-005  0.9118800E+02  0.7818608E-02  0.1130116E+00
         25   -1    0    0    0    0  0.00000000000E+00  0.00000000000E+00  0.99999998245E-14  0.12500000000E+03  0.12500000000E+03 0.  0.
        -11    1    3    3    0    0  0.15780260934E+02  0.27178302827E+02 -0.11960152405E+02  0.33626210395E+02  0.51100000000E-03 0. -1.
         23    2    1    0    0    0 -0.17917813270E+02 -0.15103769153E+02  0.18009614768E+02  0.95444660396E+02  0.90753320044E+02 0.  0.
         11    1    3    3    0    0 -0.33698074204E+02 -0.42282071979E+02  0.29969767173E+02  0.61818450002E+02  0.51100000000E-03 0.  1.
         22    1    1    0    0    0  0.17917813270E+02  0.15103769153E+02 -0.18009614768E+02  0.29555339604E+02  0.00000000000E+00 0.  1.
</event>
<event>
 5    1  0.8875601E-005  0.9118800E+02  0.7818608E-02  0.1130116E+00
         25   -1    0    0    0    0  0.00000000000E+00  0.00000000000E+00  0.99999998245E-14  0.12500000000E+03  0.12500000000E+03 0.  0.
        -11    1    3    3    0    0  0.26719847934E+02 -0.19171108769E+02  0.31526837268E+01  0.33036662967E+02  0.51100000000E-03 0. -1.
         23    2    1    0    0    0 -0.90326112459E+01 -0.26365836326E+02  0.34165147889E+02  0.80909153770E+02  0.67840168355E+02 0.  0.
         11    1    3    3    0    0 -0.35752459180E+02 -0.71947275564E+01  0.31012464162E+02  0.47872490803E+02  0.51100000000E-03 0.  1.
         22    1    1    0    0    0  0.90326112459E+01  0.26365836326E+02 -0.34165147889E+02  0.44090846230E+02  0.00000000000E+00 0.  1.
</event>
<event>
 5    1  0.8875601E-005  0.9118800E+02  0.7818608E-02  0.1130116E+00
         25   -1    0    0    0    0  0.00000000000E+00  0.00000000000E+00  0.99999998245E-14  0.12500000000E+03  0.12500000000E+03 0.  0.
        -11    1    3    3    0    0  0.47027857897E+02 -0.17962184086E+02  0.32820772284E+02  0.60095445494E+02  0.51100000000E-03 0.  1.
         23    2    1    0    0    0  0.13586661820E+02 -0.17223869160E+02  0.17739406500E+02  0.96787492291E+02  0.92584410527E+02 0.  0.
         11    1    3    3    0    0 -0.33441196077E+02  0.73831492607E+00 -0.15081365784E+02  0.36692046797E+02  0.51100000000E-03 0. -1.
         22    1    1    0    0    0 -0.13586661820E+02  0.17223869160E+02 -0.17739406500E+02  0.28212507709E+02  0.00000000000E+00 0.  1.
</event>
<event>
 5    1  0.8875601E-005  0.9118800E+02  0.7818608E-02  0.1130116E+00
         25   -1    0    0    0    0  0.00000000000E+00  0.00000000000E+00  0.99999998245E-14  0.12500000000E+03  0.12500000000E+03 0.  0.
        -11    1    3    3    0    0 -0.11501120822E+01  0.42513724032E+02  0.19312911323E+02  0.46708971653E+02  0.51100000000E-03 0. -1.
         23    2    1    0    0    0  0.25446810283E+01 -0.61451228231E+01  0.27952760310E+02  0.96266835451E+02  0.91878772645E+02 0.  0.
         11    1    3    3    0    0  0.36947931105E+01 -0.48658846855E+02  0.86398489879E+01  0.49557863798E+02  0.51100000000E-03 0.  1.
         22    1    1    0    0    0 -0.25446810283E+01  0.61451228231E+01 -0.27952760310E+02  0.28733164549E+02  0.00000000000E+00 0.  1.
</event>
<event>
 5    1  0.8875601E-005  0.9118800E+02  0.7818608E-02  0.1130116E+00
         25   -1    0    0    0    0  0.00000000000E+00  0.00000000000E+00  0.99999998245E-14  0.12500000000E+03  0.12500000000E+03 0.  0.
        -11    1    3    3    0    0  0.85496272700E+01  0.33456795688E+02  0.19570258459E+01  0.34587327948E+02  0.51100000000E-03 0.  1.
         23    2    1    0    0    0 -0.16848983990E+02 -0.21203863761E+02  0.11435941691E+02  0.95601481972E+02  0.90969063384E+02 0.  0.
         11    1    3    3    0    0 -0.25398611260E+02 -0.54660659449E+02  0.94789158455E+01  0.61014154024E+02  0.51100000000E-03 0. -1.
         22    1    1    0    0    0  0.16848983990E+02  0.21203863761E+02 -0.11435941691E+02  0.29398518028E+02  0.00000000000E+00 0. -1.
</event>
<event>
 5    1  0.8875601E-005  0.9118800E+02  0.7818608E-02  0.1130116E+00
         25   -1    0    0    0    0  0.00000000000E+00  0.00000000000E+00  0.99999998245E-14  0.12500000000E+03  0.12500000000E+03 0.  0.
        -11    1    3    3    0    0 -0.13445800934E+02 -0.31256238668E+02 -0.30760700226E+02  0.45868973141E+02  0.51100000000E-03 0. -1.
         23    2    1    0    0    0  0.45834846799E+01 -0.28040798647E+02  0.13332731612E+02  0.93614390992E+02  0.88196359041E+02 0.  0.
         11    1    3    3    0    0  0.18029285614E+02  0.32154400210E+01  0.44093431838E+02  0.47745417851E+02  0.51100000000E-03 0.  1.
         22    1    1    0    0    0 -0.45834846799E+01  0.28040798647E+02 -0.13332731612E+02  0.31385609008E+02  0.00000000000E+00 0.  1.
</event>
<event>
 5    1  0.8875601E-005  0.9118800E+02  0.7818608E-02  0.1130116E+00
         25   -1    0    0    0    0  0.00000000000E+00  0.00000000000E+00  0.99999998245E-14  0.12500000000E+03  0.12500000000E+03 0.  0.
        -11    1    3    3    0    0 -0.38180527919E+01 -0.49377601422E+02  0.18386955372E+02  0.52828071869E+02  0.51100000000E-03 0.  1.
         23    2    1    0    0    0 -0.64752422294E+01 -0.94500359740E+01  0.28654688422E+02  0.94140267169E+02  0.88938556275E+02 0.  0.
         11    1    3    3    0    0 -0.26571894375E+01  0.39927565448E+02  0.10267733049E+02  0.41312195300E+02  0.51100000000E-03 0. -1.
         22    1    1    0    0    0  0.64752422294E+01  0.94500359740E+01 -0.28654688422E+02  0.30859732831E+02  0.00000000000E+00 0.  1.
</event>
<event>
 5    1  0.8875601E-005  0.9118800E+02  0.7818608E-02  0.1130116E+00
         25   -1    0    0    0    0  0.00000000000E+00  0.00000000000E+00  0.99999998245E-14  0.12500000000E+03  0.12500000000E+03 0.  0.
        -11    1    3    3    0    0 -0.17232884562E+02 -0.25502896298E+02 -0.17766439162E+02  0.35538941890E+02  0.51100000000E-03 0. -1.
         23    2    1    0    0    0  0.82614628604E-01  0.19490087423E+02  0.20219767742E+02  0.96916030543E+02  0.92757790162E+02 0.  0.
         11    1    3    3    0    0  0.17315499190E+02  0.44992983721E+02  0.37986206904E+02  0.61377088653E+02  0.51100000000E-03 0.  1.
         22    1    1    0    0    0 -0.82614628604E-01 -0.19490087423E+02 -0.20219767742E+02  0.28083969457E+02  0.00000000000E+00 0.  1.
</event>
<event>
 5    1  0.8875601E-005  0.9118800E+02  0.7818608E-02  0.1130116E+00
         25   -1    0    0    0    0  0.00000000000E+00  0.00000000000E+00  0.99999998245E-14  0.12500000000E+03  0.12500000000E+03 0.  0.
        -11    1    3    3    0    0  0.47253909251E+02 -0.16259477437E+02  0.31068269110E+02  0.58843350446E+02  0.51100000000E-03 0.  1.
         23    2    1    0    0    0  0.21426471304E+02 -0.19143957621E+02  0.46649455199E+01  0.95890783201E+02  0.91365725522E+02 0.  0.
         11    1    3    3    0    0 -0.25827437946E+02 -0.28844801844E+01 -0.26403323590E+02  0.37047432754E+02  0.51100000000E-03 0. -1.
         22    1    1    0    0    0 -0.21426471304E+02  0.19143957621E+02 -0.46649455199E+01  0.29109216799E+02  0.00000000000E+00 0.  1.
</event>
<event>
 5    1  0.8875601E-005  0.9118800E+02  0.7818608E-02  0.1130116E+00
         25   -1    0    0    0    0  0.00000000000E+00  0.00000000000E+00  0.99999998245E-14  0.12500000000E+03  0.12500000000E+03 0.  0.
        -11    1    3    3    0    0  0.42828592866E+02 -0.93501240873E+01  0.33200881218E+02  0.54991014732E+02  0.51100000000E-03 0. -1.
         23    2    1    0    0    0  0.24167390334E+01 -0.75071681668E+01  0.28158506240E+02  0.95757912607E+02  0.91183760351E+02 0.  0.
         11    1    3    3    0    0 -0.40411853833E+02  0.18429559205E+01 -0.50423749777E+01  0.40766897875E+02  0.51100000000E-03 0.  1.
         22    1    1    0    0    0 -0.24167390334E+01  0.75071681668E+01 -0.28158506240E+02  0.29242087393E+02  0.00000000000E+00 0. -1.
</event>
<event>
 5    1  0.8875601E-005  0.9118800E+02  0.7818608E-02  0.1130116E+00
         25   -1    0    0    0    0  0.00000000000E+00  0.00000000000E+00  0.99999998245E-14  0.12500000000E+03  0.12500000000E+03 0.  0.
        -11    1    3    3    0    0 -0.37389076120E+02 -0.27878082932E+02 -0.10558188544E+02  0.47818467841E+02  0.51100000000E-03 0.  1.
         23    2    1    0    0    0 -0.22535811346E+02  0.11871148786E+02  0.13053062873E+02  0.96378864157E+02  0.92031060188E+02 0.  0.
         11    1    3    3    0    0  0.14853264774E+02  0.39749231718E+02  0.23611251418E+02  0.48560396316E+02  0.51100000000E-03 0. -1.
         22    1    1    0    0    0  0.22535811346E+02 -0.11871148786E+02 -0.13053062873E+02  0.28621135843E+02  0.00000000000E+00 0. -1.
</event>
<event>
 5    1  0.8875601E-005  0.9118800E+02  0.7818608E-02  0.1130116E+00
         25   -1    0    0    0    0  0.00000000000E+00  0.00000000000E+00  0.99999998245E-14  0.12500000000E+03  0.12500000000E+03 0.  0.
        -11    1    3    3    0    0  0.60461740411E+02 -0.37495668769E+01  0.13266433307E+02  0.62013543345E+02  0.51100000000E-03 0. -1.
         23    2    1    0    0    0  0.28584722718E+02  0.17286157564E+01  0.18880812741E+01  0.96300882658E+02  0.91925081803E+02 0.  0.
         11    1    3    3    0    0 -0.31877017693E+02  0.54781826333E+01 -0.11378352033E+02  0.34287339313E+02  0.51100000000E-03 0.  1.
         22    1    1    0    0    0 -0.28584722718E+02 -0.17286157564E+01 -0.18880812741E+01  0.28699117342E+02  0.00000000000E+00 0. -1.
</event>
<event>
 5    1  0.8875601E-005  0.9118800E+02  0.7818608E-02  0.1130116E+00
         25   -1    0    0    0    0  0.00000000000E+00  0.00000000000E+00  0.99999998245E-14  0.12500000000E+03  0.12500000000E+03 0.  0.
        -11    1    3    3    0    0 -0.14957870094E+02 -0.51011738299E+02 -0.31548324710E+02  0.61816115329E+02  0.51100000000E-03 0.  1.
         23    2    1    0    0    0 -0.12615138469E+02 -0.21197064258E+02 -0.16749132400E+02  0.95184053127E+02  0.90393657310E+02 0.  0.
         11    1    3    3    0    0  0.23427316255E+01  0.29814674041E+02  0.14799192310E+02  0.33367937799E+02  0.51100000000E-03 0. -1.
         22    1    1    0    0    0  0.12615138469E+02  0.21197064258E+02  0.16749132400E+02  0.29815946873E+02  0.00000000000E+00 0.  1.
</event>
<event>
 5    1  0.8875601E-005  0.9118800E+02  0.7818608E-02  0.1130116E+00
         25   -1    0    0    0    0  0.00000000000E+00  0.00000000000E+00  0.99999998245E-14  0.12500000000E+03  0.12500000000E+03 0.  0.
        -11    1    3    3    0    0  0.15393803331E+02  0.44044997007E+02 -0.58268410129E+01  0.47020027848E+02  0.51100000000E-03 0.  1.
         23    2    1    0    0    0 -0.17410013784E+02  0.11958284163E+02  0.16639243188E+02  0.98111832455E+02  0.94355487989E+02 0.  0.
         11    1    3    3    0    0 -0.32803817115E+02 -0.32086712844E+02  0.22466084201E+02  0.51091804607E+02  0.51100000000E-03 0. -1.
         22    1    1    0    0    0  0.17410013784E+02 -0.11958284163E+02 -0.16639243188E+02  0.26888167545E+02  0.00000000000E+00 0.  1.
</event>
<event>
 5    1  0.8875601E-005  0.9118800E+02  0.7818608E-02  0.1130116E+00
         25   -1    0    0    0    0  0.00000000000E+00  0.00000000000E+00  0.99999998245E-14  0.12500000000E+03  0.12500000000E+03 0.  0.
        -11    1    3    3    0    0  0.13089658854E+02  0.41273855162E+02  0.30299022696E+02  0.52847905024E+02  0.51100000000E-03 0.  1.
         23    2    1    0    0    0  0.13087127809E+02  0.21327898935E+02 -0.10188763059E+02  0.97982171073E+02  0.94183558906E+02 0.  0.
         11    1    3    3    0    0 -0.25310451659E-02 -0.19945956227E+02 -0.40487785755E+02  0.45134266049E+02  0.51100000000E-03 0. -1.
         22    1    1    0    0    0 -0.13087127809E+02 -0.21327898935E+02  0.10188763059E+02  0.27017828927E+02  0.00000000000E+00 0.  1.
</event>
<event>
 5    1  0.8875601E-005  0.9118800E+02  0.7818608E-02  0.1130116E+00
         25   -1    0    0    0    0  0.00000000000E+00  0.00000000000E+00  0.99999998245E-14  0.12500000000E+03  0.12500000000E+03 0.  0.
        -11    1    3    3    0    0  0.43817210274E+02  0.38959778396E+02 -0.11397199358E+02  0.59730297190E+02  0.51100000000E-03 0. -1.
         23    2    1    0    0    0  0.24991313885E+02  0.54348685875E+01 -0.73355994233E+01  0.98393335700E+02  0.94727682992E+02 0.  0.
         11    1    3    3    0    0 -0.18825896389E+02 -0.33524909809E+02  0.40615999346E+01  0.38663038510E+02  0.51100000000E-03 0.  1.
         22    1    1    0    0    0 -0.24991313885E+02 -0.54348685875E+01  0.73355994233E+01  0.26606664300E+02  0.00000000000E+00 0. -1.
</event>
<event>
 5    1  0.8875601E-005  0.9118800E+02  0.7818608E-02  0.1130116E+00
         25   -1    0    0    0    0  0.00000000000E+00  0.00000000000E+00  0.99999998245E-14  0.12500000000E+03  0.12500000000E+03 0.  0.
        -11    1    3    3    0    0  0.43129763022E+02  0.18670021206E+02 -0.15757591866E+02  0.49568617611E+02  0.51100000000E-03 0. -1.
         23    2    1    0    0    0  0.22423149091E+02 -0.56094095522E+01  0.17762828604E+02  0.95848993659E+02  0.91308534184E+02 0.  0.
         11    1    3    3    0    0 -0.20706613931E+02 -0.24279430758E+02  0.33520420469E+02  0.46280376048E+02  0.51100000000E-03 0.  1.
         22    1    1    0    0    0 -0.22423149091E+02  0.56094095522E+01 -0.17762828604E+02  0.29151006341E+02  0.00000000000E+00 0.  1.
</event>
<event>
 5    1  0.8875601E-005  0.9118800E+02  0.7818608E-02  0.1130116E+00
         25   -1    0    0    0    0  0.00000000000E+00  0.00000000000E+00  0.99999998245E-14  0.12500000000E+03  0.12500000000E+03 0.  0.
        -11    1    3    3    0    0  0.54867348548E+01 -0.35224940371E+02  0.71101115569E+00  0.35656783655E+02  0.51100000000E-03 0.  1.
         23    2    1    0    0    0  0.11348960596E+02  0.23708300453E+02  0.12260495145E+02  0.95996514724E+02  0.91510265440E+02 0.  0.
         11    1    3    3    0    0  0.58622257415E+01  0.58933240824E+02  0.11549483989E+02  0.60339731068E+02  0.51100000000E-03 0. -1.
         22    1    1    0    0    0 -0.11348960596E+02 -0.23708300453E+02 -0.12260495145E+02  0.29003485276E+02  0.00000000000E+00 0. -1.
</event>
<event>
 5    1  0.8875601E-005  0.9118800E+02  0.7818608E-02  0.1130116E+00
         25   -1    0    0    0    0  0.00000000000E+00  0.00000000000E+00  0.99999998245E-14  0.12500000000E+03  0.12500000000E+03 0.  0.
        -11    1    3    3    0    0 -0.40444714152E+02 -0.32998082280E+02  0.22909942016E+02  0.57004506668E+02  0.51100000000E-03 0. -1.
         23    2    1    0    0    0 -0.13131973816E+02 -0.23206766837E+02 -0.56787128470E+01  0.97737378282E+02  0.93858108709E+02 0.  0.
         11    1    3    3    0    0  0.27312740335E+02  0.97913154431E+01 -0.28588654863E+02  0.40732871614E+02  0.51100000000E-03 0.  1.
         22    1    1    0    0    0  0.13131973816E+02  0.23206766837E+02  0.56787128470E+01  0.27262621718E+02  0.00000000000E+00 0. -1.
</event>
<event>
 5    1  0.8875601E-005  0.9118800E+02  0.7818608E-02  0.1130116E+00
         25   -1    0    0    0    0  0.00000000000E+00  0.00000000000E+00  0.99999998245E-14  0.12500000000E+03  0.12500000000E+03 0.  0.
        -11    1    3    3    0    0  0.49514575544E+01  0.25574688640E+02 -0.20130327358E+02  0.32921295702E+02  0.51100000000E-03 0.  1.
         23    2    1    0    0    0  0.46483335280E+01 -0.22186817127E+02  0.19588238031E+02  0.95040678780E+02  0.90195175565E+02 0.  0.
         11    1    3    3    0    0 -0.30312402645E+00 -0.47761505766E+02  0.39718565388E+02  0.62119383078E+02  0.51100000000E-03 0. -1.
         22    1    1    0    0    0 -0.46483335280E+01  0.22186817127E+02 -0.19588238031E+02  0.29959321220E+02  0.00000000000E+00 0. -1.
</event>
<event>
 5    1  0.8875601E-005  0.9118800E+02  0.7818608E-02  0.1130116E+00
         25   -1    0    0    0    0  0.00000000000E+00  0.00000000000E+00  0.99999998245E-14  0.12500000000E+03  0.12500000000E+03 0.  0.
        -11    1    3    3    0    0 -0.34325624156E+02 -0.54178353258E+01 -0.33452714234E+02  0.48235728492E+02  0.51100000000E-03 0. -1.
         23    2    1    0    0    0  0.12152968909E+02  0.12289846473E+01 -0.26658562613E+02  0.95676220960E+02  0.91071703838E+02 0.  0.
         11    1    3    3    0    0  0.46478593065E+02  0.66468199731E+01  0.67941516203E+01  0.47440492468E+02  0.51100000000E-03 0.  1.
         22    1    1    0    0    0 -0.12152968909E+02 -0.12289846473E+01  0.26658562613E+02  0.29323779040E+02  0.00000000000E+00 0.  1.
</event>
<event>
 5    1  0.8875601E-005  0.9118800E+02  0.7818608E-02  0.1130116E+00
         25   -1    0    0    0    0  0.00000000000E+00  0.00000000000E+00  0.99999998245E-14  0.12500000000E+03  0.12500000000E+03 0.  0.
        -11    1    3    3    0    0 -0.24545404898E+02 -0.95718908473E+01  0.23424880708E+02  0.35253695302E+02  0.51100000000E-03 0.  1.
         23    2    1    0    0    0  0.21331668986E+02  0.17755682650E+02 -0.65393096973E+01  0.96485671331E+02  0.92176015496E+02 0.  0.
         11    1    3    3    0    0  0.45877073885E+02  0.27327573497E+02 -0.29964190406E+02  0.61231976029E+02  0.51100000000E-03 0. -1.
         22    1    1    0    0    0 -0.21331668986E+02 -0.17755682650E+02  0.65393096973E+01  0.28514328669E+02  0.00000000000E+00 0. -1.
</event>
<event>
 5    1  0.8875601E-005  0.9118800E+02  0.7818608E-02  0.1130116E+00
         25   -1    0    0    0    0  0.00000000000E+00  0.00000000000E+00  0.99999998245E-14  0.12500000000E+03  0.12500000000E+03 0.  0.
        -11    1    3    3    0    0  0.41876500788E+02 -0.49442152898E+01  0.64408514757E+00  0.42172282710E+02  0.51100000000E-03 0.  1.
         23    2    1    0    0    0 -0.74493733100E+01 -0.27035401446E+02  0.54499862649E+01  0.96432388194E+02  0.92103729829E+02 0.  0.
         11    1    3    3    0    0 -0.49325874098E+02 -0.22091186156E+02  0.48059011173E+01  0.54260105483E+02  0.51100000000E-03 0. -1.
         22    1    1    0    0    0  0.74493733100E+01  0.27035401446E+02 -0.54499862649E+01  0.28567611806E+02  0.00000000000E+00 0. -1.
</event>
<event>
 5    1  0.8875601E-005  0.9118800E+02  0.7818608E-02  0.1130116E+00
         25   -1    0    0    0    0  0.00000000000E+00  0.00000000000E+00  0.99999998245E-14  0.12500000000E+03  0.12500000000E+03 0.  0.
        -11    1    3    3    0    0 -0.47589437822E+02  0.14751554543E+02 -0.18215130591E+02  0.53048599759E+02  0.51100000000E-03 0. -1.
         23    2    1    0    0    0 -0.15418353439E+02  0.24630050130E+02  0.70122794486E+01  0.95107909822E+02  0.90288301875E+02 0.  0.
         11    1    3    3    0    0  0.32171084383E+02  0.98784955863E+01  0.25227410040E+02  0.42059310063E+02  0.51100000000E-03 0.  1.
         22    1    1    0    0    0  0.15418353439E+02 -0.24630050130E+02 -0.70122794486E+01  0.29892090178E+02  0.00000000000E+00 0. -1.
</event>
<event>
 5    1  0.8875601E-005  0.9118800E+02  0.7818608E-02  0.1130116E+00
         25   -1    0    0    0    0  0.00000000000E+00  0.00000000000E+00  0.99999998245E-14  0.12500000000E+03  0.12500000000E+03 0.  0.
        -11    1    3    3    0    0 -0.11183655695E+02  0.15524936594E+02  0.34966323292E+02  0.39859021260E+02  0.51100000000E-03 0.  1.
         23    2    1    0    0    0  0.29936306333E+02  0.33939436905E+01  0.49966144353E+00  0.94867775519E+02  0.89955232643E+02 0.  0.
         11    1    3    3    0    0  0.41119962027E+02 -0.12130992903E+02 -0.34466661849E+02  0.55008754260E+02  0.51100000000E-03 0. -1.
         22    1    1    0    0    0 -0.29936306333E+02 -0.33939436905E+01 -0.49966144353E+00  0.30132224481E+02  0.00000000000E+00 0. -1.
</event>
<event>
 5    1  0.8875601E-005  0.9118800E+02  0.7818608E-02  0.1130116E+00
         25   -1    0    0    0    0  0.00000000000E+00  0.00000000000E+00  0.99999998245E-14  0.12500000000E+03  0.12500000000E+03 0.  0.
        -11    1    3    3    0    0 -0.12613354520E+02 -0.13372864480E+02  0.32224487311E+02  0.37099161707E+02  0.51100000000E-03 0.  1.
         23    2    1    0    0    0  0.67418202524E+01 -0.13416676278E+02 -0.24071382079E+02  0.96629402934E+02  0.92370724440E+02 0.  0.
         11    1    3    3    0    0  0.19355174773E+02 -0.43811798522E-01 -0.56295869390E+02  0.59530241227E+02  0.51100000000E-03 0. -1.
         22    1    1    0    0    0 -0.67418202524E+01  0.13416676278E+02  0.24071382079E+02  0.28370597066E+02  0.00000000000E+00 0. -1.
</event>
<event>
 5    1  0.8875601E-005  0.9118800E+02  0.7818608E-02  0.1130116E+00
         25   -1    0    0    0    0  0.00000000000E+00  0.00000000000E+00  0.99999998245E-14  0.12500000000E+03  0.12500000000E+03 0.  0.
        -11    1    3    3    0    0 -0.24544500018E+02 -0.29031001140E+02 -0.23340935380E+02  0.44609760961E+02  0.51100000000E-03 0. -1.
         23    2    1    0    0    0  0.17056722745E+02  0.31881300044E+01 -0.21648277801E+02  0.97255741216E+02  0.93214458664E+02 0.  0.
         11    1    3    3    0    0  0.41601222762E+02  0.32219131145E+02  0.16926575792E+01  0.52645980255E+02  0.51100000000E-03 0.  1.
         22    1    1    0    0    0 -0.17056722745E+02 -0.31881300044E+01  0.21648277801E+02  0.27744258784E+02  0.00000000000E+00 0.  1.
</event>
<event>
 5    1  0.8875601E-005  0.9118800E+02  0.7818608E-02  0.1130116E+00
         25   -1    0    0    0    0  0.00000000000E+00  0.00000000000E+00  0.99999998245E-14  0.12500000000E+03  0.12500000000E+03 0.  0.
        -11    1    3    3    0    0 -0.41753600481E+02 -0.72164521803E+01  0.45207906005E+02  0.61961238697E+02  0.51100000000E-03 0. -1.
         23    2    1    0    0    0 -0.20947387532E+02  0.21726855690E+01  0.20241437649E+02  0.95789909191E+02  0.91227612584E+02 0.  0.
         11    1    3    3    0    0  0.20806212950E+02  0.93891377493E+01 -0.24966468356E+02  0.33828670494E+02  0.51100000000E-03 0.  1.
         22    1    1    0    0    0  0.20947387532E+02 -0.21726855690E+01 -0.20241437649E+02  0.29210090809E+02  0.00000000000E+00 0. -1.
</event>
<event>
 5    1  0.8875601E-005  0.9118800E+02  0.7818608E-02  0.1130116E+00
         25   -1    0    0    0    0  0.00000000000E+00  0.00000000000E+00  0.99999998245E-14  0.12500000000E+03  0.12500000000E+03 0.  0.
        -11    1    3    3    0    0  0.31023033190E+02  0.35528693135E+02 -0.33234790820E+02  0.57699808884E+02  0.51100000000E-03 0.  1.
         23    2    1    0    0    0  0.35958479320E+01  0.10065081506E+02 -0.27415510791E+02  0.95574735005E+02  0.90932303123E+02 0.  0.
         11    1    3    3    0    0 -0.27427185258E+02 -0.25463611628E+02  0.58192800291E+01  0.37874926121E+02  0.51100000000E-03 0. -1.
         22    1    1    0    0    0 -0.35958479320E+01 -0.10065081506E+02  0.27415510791E+02  0.29425264995E+02  0.00000000000E+00 0.  1.
</event>
<event>
 5    1  0.8875601E-005  0.9118800E+02  0.7818608E-02  0.1130116E+00
         25   -1    0    0    0    0  0.00000000000E+00  0.00000000000E+00  0.99999998245E-14  0.12500000000E+03  0.12500000000E+03 0.  0.
        -11    1    3    3    0    0 -0.25293992038E+02  0.23427869740E+02 -0.35294791492E+02  0.49339369884E+02  0.51100000000E-03 0.  1.
         23    2    1    0    0    0 -0.13348279820E+02  0.23318310301E+02  0.10112180528E+02  0.96291528002E+02  0.91912360434E+02 0.  0.
         11    1    3    3    0    0  0.11945712218E+02 -0.10955943975E+00  0.45406972020E+02  0.46952158118E+02  0.51100000000E-03 0. -1.
         22    1    1    0    0    0  0.13348279820E+02 -0.23318310301E+02 -0.10112180528E+02  0.28708471998E+02  0.00000000000E+00 0. -1.
</event>
<event>
 5    1  0.8875601E-005  0.9118800E+02  0.7818608E-02  0.1130116E+00
         25   -1    0    0    0    0  0.00000000000E+00  0.00000000000E+00  0.99999998245E-14  0.12500000000E+03  0.12500000000E+03 0.  0.
        -11    1    3    3    0    0 -0.29254416988E+02 -0.40596550132E+02 -0.19769875221E+02  0.53802869464E+02  0.51100000000E-03 0. -1.
         23    2    1    0    0    0  0.22282535619E+01 -0.29258064403E+02  0.47341401703E+01  0.95277760352E+02  0.90523146697E+02 0.  0.
         11    1    3    3    0    0  0.31482670550E+02  0.11338485729E+02  0.24504015392E+02  0.41474890888E+02  0.51100000000E-03 0.  1.
         22    1    1    0    0    0 -0.22282535619E+01  0.29258064403E+02 -0.47341401703E+01  0.29722239648E+02  0.00000000000E+00 0. -1.
</event>
<event>
 5    1  0.8875601E-005  0.9118800E+02  0.7818608E-02  0.1130116E+00
         25   -1    0    0    0    0  0.00000000000E+00  0.00000000000E+00  0.99999998245E-14  0.12500000000E+03  0.12500000000E+03 0.  0.
        -11    1    3    3    0    0 -0.53516338237E+02  0.96985260820E+01 -0.22411838035E+02  0.58824742676E+02  0.51100000000E-03 0.  1.
         23    2    1    0    0    0 -0.17849185714E+02  0.97079474823E+00 -0.23395139660E+02  0.95557370484E+02  0.90908429867E+02 0.  0.
         11    1    3    3    0    0  0.35667152523E+02 -0.87277313338E+01 -0.98330162493E+00  0.36732627808E+02  0.51100000000E-03 0. -1.
         22    1    1    0    0    0  0.17849185714E+02 -0.97079474823E+00  0.23395139660E+02  0.29442629516E+02  0.00000000000E+00 0.  1.
</event>
<event>
 5    1  0.8875601E-005  0.9118800E+02  0.7818608E-02  0.1130116E+00
         25   -1    0    0    0    0  0.00000000000E+00  0.00000000000E+00  0.99999998245E-14  0.12500000000E+03  0.12500000000E+03 0.  0.
        -11    1    3    3    0    0  0.13136839103E+02  0.15393092319E+02  0.26921877164E+02  0.33679538344E+02  0.51100000000E-03 0. -1.
         23    2    1    0    0    0 -0.41665623340E+01  0.18897373639E+01 -0.29982648310E+02  0.94670302529E+02  0.89680408297E+02 0.  0.
         11    1    3    3    0    0 -0.17303401437E+02 -0.13503354956E+02 -0.56904525473E+02  0.60990764186E+02  0.51100000000E-03 0.  1.
         22    1    1    0    0    0  0.41665623340E+01 -0.18897373639E+01  0.29982648310E+02  0.30329697471E+02  0.00000000000E+00 0.  1.
</event>
<event>
 5    1  0.8875601E-005  0.9118800E+02  0.7818608E-02  0.1130116E+00
         25   -1    0    0    0    0  0.00000000000E+00  0.00000000000E+00  0.99999998245E-14  0.12500000000E+03  0.12500000000E+03 0.  0.
        -11    1    3    3    0    0  0.22004532900E+02 -0.35492393394E+01 -0.26736081588E+02  0.34808255156E+02  0.51100000000E-03 0. -1.
         23    2    1    0    0    0  0.38967546849E+01  0.26553053249E+02  0.18736270188E+02  0.92269323953E+02  0.86268945677E+02 0.  0.
         11    1    3    3    0    0 -0.18107778215E+02  0.30102292589E+02  0.45472351776E+02  0.57461068797E+02  0.51100000000E-03 0.  1.
         22    1    1    0    0    0 -0.38967546849E+01 -0.26553053249E+02 -0.18736270188E+02  0.32730676047E+02  0.00000000000E+00 0.  1.
</event>
<event>
 5    1  0.8875601E-005  0.9118800E+02  0.7818608E-02  0.1130116E+00
         25   -1    0    0    0    0  0.00000000000E+00  0.00000000000E+00  0.99999998245E-14  0.12500000000E+03  0.12500000000E+03 0.  0.
        -11    1    3    3    0    0  0.41317675503E+02  0.59074352334E+01  0.41401288267E+02  0.58788729961E+02  0.51100000000E-03 0.  1.
         23    2    1    0    0    0  0.12724176568E+02 -0.93175353352E+01  0.25841675316E+02  0.94726029048E+02  0.89758048453E+02 0.  0.
         11    1    3    3    0    0 -0.28593498936E+02 -0.15224970569E+02 -0.15559612951E+02  0.35937299087E+02  0.51100000000E-03 0. -1.
         22    1    1    0    0    0 -0.12724176568E+02  0.93175353352E+01 -0.25841675316E+02  0.30273970952E+02  0.00000000000E+00 0.  1.
</event>
<event>
 5    1  0.8875601E-005  0.9118800E+02  0.7818608E-02  0.1130116E+00
         25   -1    0    0    0    0  0.00000000000E+00  0.00000000000E+00  0.99999998245E-14  0.12500000000E+03  0.12500000000E+03 0.  0.
        -11    1    3    3    0    0 -0.27339112932E+02  0.45920344165E+01 -0.22063636013E+02  0.35430465850E+02  0.51100000000E-03 0. -1.
         23    2    1    0    0    0 -0.17160073728E+02  0.22245590226E+01  0.30991489365E+02  0.89505081965E+02  0.82166115226E+02 0.  0.
         11    1    3    3    0    0  0.10179039204E+02 -0.23674753939E+01  0.53055125378E+02  0.54074616115E+02  0.51100000000E-03 0.  1.
         22    1    1    0    0    0  0.17160073728E+02 -0.22245590226E+01 -0.30991489365E+02  0.35494918035E+02  0.00000000000E+00 0.  1.
</event>
<event>
 5    1  0.8875601E-005  0.9118800E+02  0.7818608E-02  0.1130116E+00
         25   -1    0    0    0    0  0.00000000000E+00  0.00000000000E+00  0.99999998245E-14  0.12500000000E+03  0.12500000000E+03 0.  0.
        -11    1    3    3    0    0  0.34422346758E+02 -0.21276619990E+02 -0.12742061073E+02  0.42425848668E+02  0.51100000000E-03 0. -1.
         23    2    1    0    0    0  0.15503486312E+01  0.21308598375E+02 -0.18772596448E+02  0.96559354385E+02  0.92275883069E+02 0.  0.
         11    1    3    3    0    0 -0.32871998127E+02  0.42585218365E+02 -0.60305353751E+01  0.54133505717E+02  0.51100000000E-03 0.  1.
         22    1    1    0    0    0 -0.15503486312E+01 -0.21308598375E+02  0.18772596448E+02  0.28440645615E+02  0.00000000000E+00 0.  1.
</event>
<event>
 4    1  0.8875601E-005  0.9118800E+02  0.7818608E-02  0.1130116E+00
         25   -1    0    0    0    0  0.00000000000E+00  0.00000000000E+00  0.99999998245E-14  0.12500000000E+03  0.12500000000E+03 0.  0.
        -11    1    1    0    0    0  0.13465309170E+02 -0.83373927612E+01 -0.30453003249E+02  0.34325093973E+02  0.51100000000E-03 0.  1.
         11    1    1    0    0    0  0.54312784814E+01 -0.34163479274E+02 -0.86193351610E+00  0.34603251751E+02  0.51100000000E-03 0. -1.
         22    1    1    0    0    0 -0.18896587652E+02  0.42500872036E+02  0.31314936765E+02  0.56071654276E+02  0.00000000000E+00 0.  1.
</event>
<event>
 5    1  0.8875601E-005  0.9118800E+02  0.7818608E-02  0.1130116E+00
         25   -1    0    0    0    0  0.00000000000E+00  0.00000000000E+00  0.99999998245E-14  0.12500000000E+03  0.12500000000E+03 0.  0.
        -11    1    3    3    0    0  0.32976604234E+02  0.17791548069E+02  0.93311844773E+01  0.38614331712E+02  0.51100000000E-03 0.  1.
         23    2    1    0    0    0 -0.44985599679E+01 -0.78429794700E+01 -0.26848330897E+02  0.96670117531E+02  0.92425804745E+02 0.  0.
         11    1    3    3    0    0 -0.37475164202E+02 -0.25634527539E+02 -0.36179515374E+02  0.58055785819E+02  0.51100000000E-03 0. -1.
         22    1    1    0    0    0  0.44985599679E+01  0.78429794700E+01  0.26848330897E+02  0.28329882469E+02  0.00000000000E+00 0. -1.
</event>
<event>
 5    1  0.8875601E-005  0.9118800E+02  0.7818608E-02  0.1130116E+00
         25   -1    0    0    0    0  0.00000000000E+00  0.00000000000E+00  0.99999998245E-14  0.12500000000E+03  0.12500000000E+03 0.  0.
        -11    1    3    3    0    0  0.27086586401E+02  0.34007919137E+02  0.73495640231E+01  0.44093512204E+02  0.51100000000E-03 0.  1.
         23    2    1    0    0    0 -0.12990738057E+02  0.67081935681E+01  0.25281943227E+02  0.95794935550E+02  0.91234499437E+02 0.  0.
         11    1    3    3    0    0 -0.40077324458E+02 -0.27299725569E+02  0.17932379204E+02  0.51701423346E+02  0.51100000000E-03 0. -1.
         22    1    1    0    0    0  0.12990738057E+02 -0.67081935681E+01 -0.25281943227E+02  0.29205064450E+02  0.00000000000E+00 0.  1.
</event>
<event>
 5    1  0.8875601E-005  0.9118800E+02  0.7818608E-02  0.1130116E+00
         25   -1    0    0    0    0  0.00000000000E+00  0.00000000000E+00  0.99999998245E-14  0.12500000000E+03  0.12500000000E+03 0.  0.
        -11    1    3    3    0    0  0.40136548980E+02 -0.43640038502E+02  0.14400092473E+02  0.61014409675E+02  0.51100000000E-03 0.  1.
         23    2    1    0    0    0  0.30264734236E+02 -0.19094497043E+02  0.10093283083E+02  0.87818979047E+02  0.79559693072E+02 0.  0.
         11    1    3    3    0    0 -0.98718147435E+01  0.24545541459E+02 -0.43068093897E+01  0.26804569372E+02  0.51100000000E-03 0. -1.
         22    1    1    0    0    0 -0.30264734236E+02  0.19094497043E+02 -0.10093283083E+02  0.37181020953E+02  0.00000000000E+00 0.  1.
</event>
<event>
 5    1  0.8875601E-005  0.9118800E+02  0.7818608E-02  0.1130116E+00
         25   -1    0    0    0    0  0.00000000000E+00  0.00000000000E+00  0.99999998245E-14  0.12500000000E+03  0.12500000000E+03 0.  0.
        -11    1    3    3    0    0 -0.29774605694E+02 -0.19759440893E+02  0.50773562918E+02  0.62087980643E+02  0.51100000000E-03 0.  1.
         23    2    1    0    0    0 -0.10580195667E+02 -0.12702405663E+02  0.25672326399E+02  0.94465429547E+02  0.89394392368E+02 0.  0.
         11    1    3    3    0    0  0.19194410027E+02  0.70570352300E+01 -0.25101236519E+02  0.32377448904E+02  0.51100000000E-03 0. -1.
         22    1    1    0    0    0  0.10580195667E+02  0.12702405663E+02 -0.25672326399E+02  0.30534570453E+02  0.00000000000E+00 0.  1.
</event>
<event>
 5    1  0.8875601E-005  0.9118800E+02  0.7818608E-02  0.1130116E+00
         25   -1    0    0    0    0  0.00000000000E+00  0.00000000000E+00  0.99999998245E-14  0.12500000000E+03  0.12500000000E+03 0.  0.
        -11    1    3    3    0    0  0.11311260341E+02 -0.23271022213E+02 -0.23933201755E+02  0.35246038527E+02  0.51100000000E-03 0. -1.
         23    2    1    0    0    0 -0.16444776827E+02  0.24759555073E+02 -0.10380528721E+01  0.95258718822E+02  0.90496849147E+02 0.  0.
         11    1    3    3    0    0 -0.27756037168E+02  0.48030577286E+02  0.22895148883E+02  0.60012680296E+02  0.51100000000E-03 0.  1.
         22    1    1    0    0    0  0.16444776827E+02 -0.24759555073E+02  0.10380528721E+01  0.29741281178E+02  0.00000000000E+00 0.  1.
</event>
<event>
 5    1  0.8875601E-005  0.9118800E+02  0.7818608E-02  0.1130116E+00
         25   -1    0    0    0    0  0.00000000000E+00  0.00000000000E+00  0.99999998245E-14  0.12500000000E+03  0.12500000000E+03 0.  0.
        -11    1    3    3    0    0 -0.14758610793E+02 -0.46029730663E+02  0.26915169630E+02  0.55326115479E+02  0.51100000000E-03 0. -1.
         23    2    1    0    0    0 -0.14607884228E+02 -0.25443629830E+02 -0.68498479460E+01  0.94872122587E+02  0.89961273039E+02 0.  0.
         11    1    3    3    0    0  0.15072656466E+00  0.20586100834E+02 -0.33765017576E+02  0.39546007108E+02  0.51100000000E-03 0.  1.
         22    1    1    0    0    0  0.14607884228E+02  0.25443629830E+02  0.68498479460E+01  0.30127877413E+02  0.00000000000E+00 0. -1.
</event>
<event>
 5    1  0.8875601E-005  0.9118800E+02  0.7818608E-02  0.1130116E+00
         25   -1    0    0    0    0  0.00000000000E+00  0.00000000000E+00  0.99999998245E-14  0.12500000000E+03  0.12500000000E+03 0.  0.
        -11    1    3    3    0    0  0.16162491174E+02 -0.52327114866E+02  0.30906078126E+01  0.54853486016E+02  0.51100000000E-03 0.  1.
         23    2    1    0    0    0 -0.13064454615E+02 -0.23436903227E+02  0.96818989731E+01  0.96474439971E+02  0.92160783378E+02 0.  0.
         11    1    3    3    0    0 -0.29226945789E+02  0.28890211640E+02  0.65912911605E+01  0.41620953955E+02  0.51100000000E-03 0. -1.
         22    1    1    0    0    0  0.13064454615E+02  0.23436903227E+02 -0.96818989731E+01  0.28525560029E+02  0.00000000000E+00 0.  1.
</event>
<event>
 5    1  0.8875601E-005  0.9118800E+02  0.7818608E-02  0.1130116E+00
         25   -1    0    0    0    0  0.00000000000E+00  0.00000000000E+00  0.99999998245E-14  0.12500000000E+03  0.12500000000E+03 0.  0.
        -11    1    3    3    0    0 -0.21724780025E+02  0.37110515461E+02 -0.14061981433E+02  0.45242631964E+02  0.51100000000E-03 0. -1.
         23    2    1    0    0    0 -0.37147529478E+02  0.71135650231E+01 -0.23753873035E+02  0.80336947733E+02  0.66777518172E+02 0.  0.
         11    1    3    3    0    0 -0.15422749453E+02 -0.29996950438E+02 -0.96918916016E+01  0.35094315769E+02  0.51100000000E-03 0.  1.
         22    1    1    0    0    0  0.37147529478E+02 -0.71135650231E+01  0.23753873035E+02  0.44663052267E+02  0.00000000000E+00 0. -1.
</event>
<event>
 5    1  0.8875601E-005  0.9118800E+02  0.7818608E-02  0.1130116E+00
         25   -1    0    0    0    0  0.00000000000E+00  0.00000000000E+00  0.99999998245E-14  0.12500000000E+03  0.12500000000E+03 0.  0.
        -11    1    3    3    0    0 -0.87593374411E+01 -0.31740134987E+02  0.13196828708E+02  0.35472784633E+02  0.51100000000E-03 0.  1.
         23    2    1    0    0    0  0.20914225744E+02  0.15918023642E+02 -0.10873959179E+02  0.96556524415E+02  0.92272049418E+02 0.  0.
         11    1    3    3    0    0  0.29673563185E+02  0.47658158629E+02 -0.24070787887E+02  0.61083739782E+02  0.51100000000E-03 0. -1.
         22    1    1    0    0    0 -0.20914225744E+02 -0.15918023642E+02  0.10873959179E+02  0.28443475585E+02  0.00000000000E+00 0. -1.
</event>
<event>
 5    1  0.8875601E-005  0.9118800E+02  0.7818608E-02  0.1130116E+00
         25   -1    0    0    0    0  0.00000000000E+00  0.00000000000E+00  0.99999998245E-14  0.12500000000E+03  0.12500000000E+03 0.  0.
        -11    1    3    3    0    0 -0.98081982155E+01 -0.16675229452E+02  0.55744857345E+02  0.59006382284E+02  0.51100000000E-03 0. -1.
         23    2    1    0    0    0  0.87620126115E+01  0.19859526154E+01  0.14923900069E+02  0.10758048031E+03  0.10616082177E+03 0.  0.
         11    1    3    3    0    0  0.18570210827E+02  0.18661182067E+02 -0.40820957276E+02  0.48574098031E+02  0.51100000000E-03 0.  1.
         22    1    1    0    0    0 -0.87620126115E+01 -0.19859526154E+01 -0.14923900069E+02  0.17419519685E+02  0.00000000000E+00 0. -1.
</event>
<event>
 5    1  0.8875601E-005  0.9118800E+02  0.7818608E-02  0.1130116E+00
         25   -1    0    0    0    0  0.00000000000E+00  0.00000000000E+00  0.99999998245E-14  0.12500000000E+03  0.12500000000E+03 0.  0.
        -11    1    3    3    0    0 -0.20169159636E+01 -0.67842684197E+01 -0.26046795629E+02  0.26991291388E+02  0.51100000000E-03 0. -1.
         23    2    1    0    0    0  0.28180760731E+00 -0.47562250599E+01  0.35785088751E+02  0.88899118165E+02  0.81239027205E+02 0.  0.
         11    1    3    3    0    0  0.22987235709E+01  0.20280433599E+01  0.61831884380E+02  0.61907826777E+02  0.51100000000E-03 0.  1.
         22    1    1    0    0    0 -0.28180760731E+00  0.47562250599E+01 -0.35785088751E+02  0.36100881835E+02  0.00000000000E+00 0.  1.
</event>
<event>
 5    1  0.8875601E-005  0.9118800E+02  0.7818608E-02  0.1130116E+00
         25   -1    0    0    0    0  0.00000000000E+00  0.00000000000E+00  0.99999998245E-14  0.12500000000E+03  0.12500000000E+03 0.  0.
        -11    1    3    3    0    0 -0.24885200637E+02  0.74515542426E+01 -0.41439091349E+02  0.48908048044E+02  0.51100000000E-03 0.  1.
         23    2    1    0    0    0 -0.28034290734E+02 -0.93180381438E+01  0.18110443647E+01  0.95402243776E+02  0.90694878268E+02 0.  0.
         11    1    3    3    0    0 -0.31490900974E+01 -0.16769592386E+02  0.43250135714E+02  0.46494195732E+02  0.51100000000E-03 0. -1.
         22    1    1    0    0    0  0.28034290734E+02  0.93180381438E+01 -0.18110443647E+01  0.29597756224E+02  0.00000000000E+00 0. -1.
</event>
<event>
 5    1  0.8875601E-005  0.9118800E+02  0.7818608E-02  0.1130116E+00
         25   -1    0    0    0    0  0.00000000000E+00  0.00000000000E+00  0.99999998245E-14  0.12500000000E+03  0.12500000000E+03 0.  0.
        -11    1    3    3    0    0  0.35857222121E+02 -0.26584040618E+02 -0.39694252791E+02  0.59733452091E+02  0.51100000000E-03 0. -1.
         23    2    1    0    0    0  0.21814818856E+02 -0.25021304686E+01 -0.26528278344E+02  0.90563151560E+02  0.83760300202E+02 0.  0.
         11    1    3    3    0    0 -0.14042403265E+02  0.24081910150E+02  0.13165974447E+02  0.30829699469E+02  0.51100000000E-03 0.  1.
         22    1    1    0    0    0 -0.21814818856E+02  0.25021304686E+01  0.26528278344E+02  0.34436848440E+02  0.00000000000E+00 0. -1.
</event>
<event>
 5    1  0.8875601E-005  0.9118800E+02  0.7818608E-02  0.1130116E+00
         25   -1    0    0    0    0  0.00000000000E+00  0.00000000000E+00  0.99999998245E-14  0.12500000000E+03  0.12500000000E+03 0.  0.
        -11    1    3    3    0    0 -0.62477861925E+01 -0.22447918026E+01  0.36229762206E+02  0.36832995973E+02  0.51100000000E-03 0.  1.
         23    2    1    0    0    0 -0.75313561260E+01  0.22957063766E+02 -0.16807923662E+02  0.95567799951E+02  0.90922769359E+02 0.  0.
         11    1    3    3    0    0 -0.12835699335E+01  0.25201855569E+02 -0.53037685868E+02  0.58734803979E+02  0.51100000000E-03 0. -1.
         22    1    1    0    0    0  0.75313561260E+01 -0.22957063766E+02  0.16807923662E+02  0.29432200049E+02  0.00000000000E+00 0. -1.
</event>
<event>
 5    1  0.8875601E-005  0.9118800E+02  0.7818608E-02  0.1130116E+00
         25   -1    0    0    0    0  0.00000000000E+00  0.00000000000E+00  0.99999998245E-14  0.12500000000E+03  0.12500000000E+03 0.  0.
        -11    1    3    3    0    0 -0.12624648972E+02 -0.20207159271E+02 -0.30506655670E+02  0.38708746917E+02  0.51100000000E-03 0.  1.
         23    2    1    0    0    0 -0.16311785820E+02  0.15284212003E+01  0.23104788400E+02  0.96676128884E+02  0.92433934359E+02 0.  0.
         11    1    3    3    0    0 -0.36871368480E+01  0.21735580471E+02  0.53611444070E+02  0.57967381967E+02  0.51100000000E-03 0. -1.
         22    1    1    0    0    0  0.16311785820E+02 -0.15284212003E+01 -0.23104788400E+02  0.28323871116E+02  0.00000000000E+00 0. -1.
</event>
<event>
 5    1  0.8875601E-005  0.9118800E+02  0.7818608E-02  0.1130116E+00
         25   -1    0    0    0    0  0.00000000000E+00  0.00000000000E+00  0.99999998245E-14  0.12500000000E+03  0.12500000000E+03 0.  0.
        -11    1    3    3    0    0  0.27974063479E+02  0.13075338156E+02 -0.27702690378E+02  0.41484355483E+02  0.51100000000E-03 0.  1.
         23    2    1    0    0    0  0.13786295101E+02 -0.24800464166E+02  0.80911121125E+01  0.95494220046E+02  0.90821555875E+02 0.  0.
         11    1    3    3    0    0 -0.14187768378E+02 -0.37875802323E+02  0.35793802490E+02  0.54009864563E+02  0.51100000000E-03 0. -1.
         22    1    1    0    0    0 -0.13786295101E+02  0.24800464166E+02 -0.80911121125E+01  0.29505779954E+02  0.00000000000E+00 0. -1.
</event>
<event>
 5    1  0.8875601E-005  0.9118800E+02  0.7818608E-02  0.1130116E+00
         25   -1    0    0    0    0  0.00000000000E+00  0.00000000000E+00  0.99999998245E-14  0.12500000000E+03  0.12500000000E+03 0.  0.
        -11    1    3    3    0    0 -0.45312687134E+02 -0.98182976240E+01 -0.28172788816E+02  0.54252600062E+02  0.51100000000E-03 0. -1.
         23    2    1    0    0    0 -0.27682263665E+02 -0.11382470450E+02  0.75601354542E+01  0.94128913151E+02  0.88922597171E+02 0.  0.
         11    1    3    3    0    0  0.17630423469E+02 -0.15641728258E+01  0.35732924271E+02  0.39876313088E+02  0.51100000000E-03 0.  1.
         22    1    1    0    0    0  0.27682263665E+02  0.11382470450E+02 -0.75601354542E+01  0.30871086849E+02  0.00000000000E+00 0. -1.
</event>
<event>
 5    1  0.8875601E-005  0.9118800E+02  0.7818608E-02  0.1130116E+00
         25   -1    0    0    0    0  0.00000000000E+00  0.00000000000E+00  0.99999998245E-14  0.12500000000E+03  0.12500000000E+03 0.  0.
        -11    1    3    3    0    0 -0.29691218935E+02  0.14625283356E+02  0.27107723419E+02  0.42781959566E+02  0.51100000000E-03 0.  1.
         23    2    1    0    0    0  0.61128317241E+01 -0.22584458473E+02  0.18587438027E+02  0.95118277683E+02  0.90302654561E+02 0.  0.
         11    1    3    3    0    0  0.35804050659E+02 -0.37209741829E+02 -0.85202853920E+01  0.52336318117E+02  0.51100000000E-03 0. -1.
         22    1    1    0    0    0 -0.61128317241E+01  0.22584458473E+02 -0.18587438027E+02  0.29881722317E+02  0.00000000000E+00 0.  1.
</event>
<event>
 5    1  0.8875601E-005  0.9118800E+02  0.7818608E-02  0.1130116E+00
         25   -1    0    0    0    0  0.00000000000E+00  0.00000000000E+00  0.99999998245E-14  0.12500000000E+03  0.12500000000E+03 0.  0.
        -11    1    3    3    0    0  0.67928531583E+01 -0.28412000148E+01 -0.53768828477E+02  0.54270638356E+02  0.51100000000E-03 0. -1.
         23    2    1    0    0    0  0.75847342928E+01 -0.18457636828E+02 -0.65717968757E+01  0.10399045299E+03  0.10184602715E+03 0.  0.
         11    1    3    3    0    0  0.79188113451E+00 -0.15616436814E+02  0.47197031601E+02  0.49719814629E+02  0.51100000000E-03 0.  1.
         22    1    1    0    0    0 -0.75847342928E+01  0.18457636828E+02  0.65717968757E+01  0.21009547015E+02  0.00000000000E+00 0. -1.
</event>
<event>
 5    1  0.8875601E-005  0.9118800E+02  0.7818608E-02  0.1130116E+00
         25   -1    0    0    0    0  0.00000000000E+00  0.00000000000E+00  0.99999998245E-14  0.12500000000E+03  0.12500000000E+03 0.  0.
        -11    1    3    3    0    0  0.36260940962E+02 -0.83056178505E+01 -0.27367593109E+02  0.46182510544E+02  0.51100000000E-03 0.  1.
         23    2    1    0    0    0  0.15494073946E+02 -0.13309378218E+02  0.18917945352E+02  0.97159480387E+02  0.93085283997E+02 0.  0.
         11    1    3    3    0    0 -0.20766867017E+02 -0.50037603680E+01  0.46285538460E+02  0.50976969843E+02  0.51100000000E-03 0. -1.
         22    1    1    0    0    0 -0.15494073946E+02  0.13309378218E+02 -0.18917945352E+02  0.27840519613E+02  0.00000000000E+00 0.  1.
</event>
<event>
 5    1  0.8875601E-005  0.9118800E+02  0.7818608E-02  0.1130116E+00
         25   -1    0    0    0    0  0.00000000000E+00  0.00000000000E+00  0.99999998245E-14  0.12500000000E+03  0.12500000000E+03 0.  0.
        -11    1    3    3    0    0 -0.55948137605E+02 -0.84691818124E+01  0.19610888493E+02  0.59887461874E+02  0.51100000000E-03 0. -1.
         23    2    1    0    0    0 -0.21057117489E+02 -0.95841846370E+01  0.19415770992E+02  0.94796838654E+02  0.89856606120E+02 0.  0.
         11    1    3    3    0    0  0.34891020116E+02 -0.11150028246E+01 -0.19511750035E+00  0.34909376779E+02  0.51100000000E-03 0.  1.
         22    1    1    0    0    0  0.21057117489E+02  0.95841846370E+01 -0.19415770992E+02  0.30203161346E+02  0.00000000000E+00 0. -1.
</event>
<event>
 5    1  0.8875601E-005  0.9118800E+02  0.7818608E-02  0.1130116E+00
         25   -1    0    0    0    0  0.00000000000E+00  0.00000000000E+00  0.99999998245E-14  0.12500000000E+03  0.12500000000E+03 0.  0.
        -11    1    3    3    0    0 -0.96162169229E+01  0.13586171131E+02 -0.57098174392E+02  0.59474845045E+02  0.51100000000E-03 0.  1.
         23    2    1    0    0    0  0.49426448561E+01 -0.35307959726E+01 -0.28576136566E+02  0.95785417350E+02  0.91221457659E+02 0.  0.
         11    1    3    3    0    0  0.14558861779E+02 -0.17116967104E+02  0.28522037826E+02  0.36310572305E+02  0.51100000000E-03 0. -1.
         22    1    1    0    0    0 -0.49426448561E+01  0.35307959726E+01  0.28576136566E+02  0.29214582650E+02  0.00000000000E+00 0.  1.
</event>
<event>
 5    1  0.8875601E-005  0.9118800E+02  0.7818608E-02  0.1130116E+00
         25   -1    0    0    0    0  0.00000000000E+00  0.00000000000E+00  0.99999998245E-14  0.12500000000E+03  0.12500000000E+03 0.  0.
        -11    1    3    3    0    0 -0.13652332515E+02 -0.26568489041E+02  0.53355543854E+02  0.61148056823E+02  0.51100000000E-03 0.  1.
         23    2    1    0    0    0 -0.15385561515E+02 -0.13751803365E+02  0.23255510599E+02  0.93909062861E+02  0.88613010982E+02 0.  0.
         11    1    3    3    0    0 -0.17332290000E+01  0.12816685676E+02 -0.30100033254E+02  0.32761006039E+02  0.51100000000E-03 0. -1.
         22    1    1    0    0    0  0.15385561515E+02  0.13751803365E+02 -0.23255510599E+02  0.31090937139E+02  0.00000000000E+00 0.  1.
</event>
<event>
 5    1  0.8875601E-005  0.9118800E+02  0.7818608E-02  0.1130116E+00
         25   -1    0    0    0    0  0.00000000000E+00  0.00000000000E+00  0.99999998245E-14  0.12500000000E+03  0.12500000000E+03 0.  0.
        -11    1    3    3    0    0  0.12859752368E+02 -0.32707479274E+02  0.18879886831E+02  0.39894893889E+02  0.51100000000E-03 0.  1.
         23    2    1    0    0    0 -0.11113012027E+02  0.20066852209E+02  0.14142448504E+02  0.98052153266E+02  0.94276393210E+02 0.  0.
         11    1    3    3    0    0 -0.23972764395E+02  0.52774331482E+02 -0.47374383262E+01  0.58157259378E+02  0.51100000000E-03 0. -1.
         22    1    1    0    0    0  0.11113012027E+02 -0.20066852209E+02 -0.14142448504E+02  0.26947846734E+02  0.00000000000E+00 0. -1.
</event>
<event>
 5    1  0.8875601E-005  0.9118800E+02  0.7818608E-02  0.1130116E+00
         25   -1    0    0    0    0  0.00000000000E+00  0.00000000000E+00  0.99999998245E-14  0.12500000000E+03  0.12500000000E+03 0.  0.
        -11    1    3    3    0    0 -0.10787542251E+02  0.43873171298E+02  0.36464664875E+02  0.58059435169E+02  0.51100000000E-03 0. -1.
         23    2    1    0    0    0 -0.30779238121E+01  0.78468546794E+01  0.27859875097E+02  0.95892966764E+02  0.91368712867E+02 0.  0.
         11    1    3    3    0    0  0.77096184391E+01 -0.36026316618E+02 -0.86047897771E+01  0.37833531595E+02  0.51100000000E-03 0.  1.
         22    1    1    0    0    0  0.30779238121E+01 -0.78468546794E+01 -0.27859875097E+02  0.29107033236E+02  0.00000000000E+00 0. -1.
</event>
<event>
 5    1  0.8875601E-005  0.9118800E+02  0.7818608E-02  0.1130116E+00
         25   -1    0    0    0    0  0.00000000000E+00  0.00000000000E+00  0.99999998245E-14  0.12500000000E+03  0.12500000000E+03 0.  0.
        -11    1    3    3    0    0 -0.45488549252E+01 -0.13938949599E+02  0.57044720818E+02  0.58898952202E+02  0.51100000000E-03 0.  1.
         23    2    1    0    0    0 -0.54427104156E+00 -0.20714812291E+02  0.22158910440E+02  0.94661625108E+02  0.89668312558E+02 0.  0.
         11    1    3    3    0    0  0.40045838836E+01 -0.67758626922E+01 -0.34885810378E+02  0.35762672905E+02  0.51100000000E-03 0. -1.
         22    1    1    0    0    0  0.54427104156E+00  0.20714812291E+02 -0.22158910440E+02  0.30338374892E+02  0.00000000000E+00 0.  1.
</event>
<event>
 5    1  0.8875601E-005  0.9118800E+02  0.7818608E-02  0.1130116E+00
         25   -1    0    0    0    0  0.00000000000E+00  0.00000000000E+00  0.99999998245E-14  0.12500000000E+03  0.12500000000E+03 0.  0.
        -11    1    3    3    0    0 -0.19404786680E+02 -0.53643288627E+02  0.66962675138E+01  0.57436818851E+02  0.51100000000E-03 0.  1.
         23    2    1    0    0    0 -0.18354253317E+02 -0.16647381079E+02  0.15878581946E+02  0.95569687799E+02  0.90925364722E+02 0.  0.
         11    1    3    3    0    0  0.10505333624E+01  0.36995907548E+02  0.91823144322E+01  0.38132868949E+02  0.51100000000E-03 0. -1.
         22    1    1    0    0    0  0.18354253317E+02  0.16647381079E+02 -0.15878581946E+02  0.29430312201E+02  0.00000000000E+00 0.  1.
</event>
<event>
 5    1  0.8875601E-005  0.9118800E+02  0.7818608E-02  0.1130116E+00
         25   -1    0    0    0    0  0.00000000000E+00  0.00000000000E+00  0.99999998245E-14  0.12500000000E+03  0.12500000000E+03 0.  0.
        -11    1    3    3    0    0 -0.20121242630E+02  0.11325574810E+02 -0.53021528553E+02  0.57830922006E+02  0.51100000000E-03 0.  1.
         23    2    1    0    0    0 -0.18862820062E+02  0.16542252896E+02 -0.15990938105E+02  0.95248324198E+02  0.90482490292E+02 0.  0.
         11    1    3    3    0    0  0.12584225685E+01  0.52166780866E+01  0.37030590447E+02  0.37417402192E+02  0.51100000000E-03 0. -1.
         22    1    1    0    0    0  0.18862820062E+02 -0.16542252896E+02  0.15990938105E+02  0.29751675802E+02  0.00000000000E+00 0.  1.
</event>
<event>
 5    1  0.8875601E-005  0.9118800E+02  0.7818608E-02  0.1130116E+00
         25   -1    0    0    0    0  0.00000000000E+00  0.00000000000E+00  0.99999998245E-14  0.12500000000E+03  0.12500000000E+03 0.  0.
        -11    1    3    3    0    0 -0.23061267221E+02  0.39729382476E+02  0.13381695589E+02  0.47846793569E+02  0.51100000000E-03 0.  1.
         23    2    1    0    0    0  0.10451261325E+01  0.20923508528E+02 -0.22008518994E+02  0.94614799555E+02  0.89603012722E+02 0.  0.
         11    1    3    3    0    0  0.24106393354E+02 -0.18805873948E+02 -0.35390214582E+02  0.46768005986E+02  0.51100000000E-03 0. -1.
         22    1    1    0    0    0 -0.10451261325E+01 -0.20923508528E+02  0.22008518994E+02  0.30385200445E+02  0.00000000000E+00 0.  1.
</event>
<event>
 5    1  0.8875601E-005  0.9118800E+02  0.7818608E-02  0.1130116E+00
         25   -1    0    0    0    0  0.00000000000E+00  0.00000000000E+00  0.99999998245E-14  0.12500000000E+03  0.12500000000E+03 0.  0.
        -11    1    3    3    0    0  0.46199174928E+02  0.33041731721E+01 -0.56723484903E+01  0.46663228157E+02  0.51100000000E-03 0. -1.
         23    2    1    0    0    0  0.81206732963E+01  0.19157580705E+02  0.20723444695E+02  0.95633022061E+02  0.91012392097E+02 0.  0.
         11    1    3    3    0    0 -0.38078501631E+02  0.15853407533E+02  0.26395793185E+02  0.48969793904E+02  0.51100000000E-03 0.  1.
         22    1    1    0    0    0 -0.81206732963E+01 -0.19157580705E+02 -0.20723444695E+02  0.29366977939E+02  0.00000000000E+00 0. -1.
</event>
<event>
 5    1  0.8875601E-005  0.9118800E+02  0.7818608E-02  0.1130116E+00
         25   -1    0    0    0    0  0.00000000000E+00  0.00000000000E+00  0.99999998245E-14  0.12500000000E+03  0.12500000000E+03 0.  0.
        -11    1    3    3    0    0 -0.19253453777E+02 -0.30793464265E+02 -0.13915543319E+02  0.38891840660E+02  0.51100000000E-03 0.  1.
         23    2    1    0    0    0 -0.96714654991E+01  0.20963833149E+01  0.29320538191E+02  0.94054466757E+02  0.88817884962E+02 0.  0.
         11    1    3    3    0    0  0.95819882783E+01  0.32889847580E+02  0.43236081510E+02  0.55162626096E+02  0.51100000000E-03 0. -1.
         22    1    1    0    0    0  0.96714654991E+01 -0.20963833149E+01 -0.29320538191E+02  0.30945533243E+02  0.00000000000E+00 0. -1.
</event>
<event>
 5    1  0.8875601E-005  0.9118800E+02  0.7818608E-02  0.1130116E+00
         25   -1    0    0    0    0  0.00000000000E+00  0.00000000000E+00  0.99999998245E-14  0.12500000000E+03  0.12500000000E+03 0.  0.
        -11    1    3    3    0    0  0.23001670568E+01 -0.20944448703E+01 -0.58902429617E+02  0.58984520705E+02  0.51100000000E-03 0.  1.
         23    2    1    0    0    0  0.14055357653E+02  0.57960888697E+01 -0.24776879055E+02  0.95930403157E+02  0.91419914620E+02 0.  0.
         11    1    3    3    0    0  0.11755190596E+02  0.78905337400E+01  0.34125550562E+02  0.36945882451E+02  0.51100000000E-03 0. -1.
         22    1    1    0    0    0 -0.14055357653E+02 -0.57960888697E+01  0.24776879055E+02  0.29069596843E+02  0.00000000000E+00 0.  1.
</event>
<event>
 5    1  0.8875601E-005  0.9118800E+02  0.7818608E-02  0.1130116E+00
         25   -1    0    0    0    0  0.00000000000E+00  0.00000000000E+00  0.99999998245E-14  0.12500000000E+03  0.12500000000E+03 0.  0.
        -11    1    3    3    0    0  0.13653396282E+02  0.33331030767E+02  0.15067523577E+01  0.36050563726E+02  0.51100000000E-03 0.  1.
         23    2    1    0    0    0 -0.14707235878E+02 -0.12375720930E+02 -0.22885550259E+02  0.95113386503E+02  0.90295883769E+02 0.  0.
         11    1    3    3    0    0 -0.28360632161E+02 -0.45706751696E+02 -0.24392302616E+02  0.59062822777E+02  0.51100000000E-03 0. -1.
         22    1    1    0    0    0  0.14707235878E+02  0.12375720930E+02  0.22885550259E+02  0.29886613497E+02  0.00000000000E+00 0. -1.
</event>
<event>
 5    1  0.8875601E-005  0.9118800E+02  0.7818608E-02  0.1130116E+00
         25   -1    0    0    0    0  0.00000000000E+00  0.00000000000E+00  0.99999998245E-14  0.12500000000E+03  0.12500000000E+03 0.  0.
        -11    1    3    3    0    0 -0.29577461186E+02  0.44824314658E+02 -0.31675341828E+02  0.62348798505E+02  0.51100000000E-03 0. -1.
         23    2    1    0    0    0 -0.14579118538E+02  0.21607966297E+02 -0.11831728215E+02  0.96374055520E+02  0.92024528687E+02 0.  0.
         11    1    3    3    0    0  0.14998342648E+02 -0.23216348362E+02  0.19843613614E+02  0.34025257015E+02  0.51100000000E-03 0.  1.
         22    1    1    0    0    0  0.14579118538E+02 -0.21607966297E+02  0.11831728215E+02  0.28625944480E+02  0.00000000000E+00 0. -1.
</event>
<event>
 5    1  0.8875601E-005  0.9118800E+02  0.7818608E-02  0.1130116E+00
         25   -1    0    0    0    0  0.00000000000E+00  0.00000000000E+00  0.99999998245E-14  0.12500000000E+03  0.12500000000E+03 0.  0.
        -11    1    3    3    0    0 -0.47229327177E+02  0.28236371657E+02  0.43041242993E+01  0.55194451860E+02  0.51100000000E-03 0.  1.
         23    2    1    0    0    0 -0.24187898790E+02  0.62805392872E+01 -0.18123583554E+02  0.94129886582E+02  0.88923965530E+02 0.  0.
         11    1    3    3    0    0  0.23041428387E+02 -0.21955832370E+02 -0.22427707854E+02  0.38935434722E+02  0.51100000000E-03 0. -1.
         22    1    1    0    0    0  0.24187898790E+02 -0.62805392872E+01  0.18123583554E+02  0.30870113418E+02  0.00000000000E+00 0. -1.
</event>
<event>
 5    1  0.8875601E-005  0.9118800E+02  0.7818608E-02  0.1130116E+00
         25   -1    0    0    0    0  0.00000000000E+00  0.00000000000E+00  0.99999998245E-14  0.12500000000E+03  0.12500000000E+03 0.  0.
        -11    1    3    3    0    0  0.36453861709E+02 -0.48437626328E+01  0.46610096071E+02  0.59370422990E+02  0.51100000000E-03 0.  1.
         23    2    1    0    0    0  0.98037960568E+01 -0.13947714434E+02  0.24386202704E+02  0.95245335872E+02  0.90478361878E+02 0.  0.
         11    1    3    3    0    0 -0.26650065652E+02 -0.91039518014E+01 -0.22223893368E+02  0.35874912883E+02  0.51100000000E-03 0. -1.
         22    1    1    0    0    0 -0.98037960568E+01  0.13947714434E+02 -0.24386202704E+02  0.29754664128E+02  0.00000000000E+00 0.  1.
</event>
<event>
 5    1  0.8875601E-005  0.9118800E+02  0.7818608E-02  0.1130116E+00
         25   -1    0    0    0    0  0.00000000000E+00  0.00000000000E+00  0.99999998245E-14  0.12500000000E+03  0.12500000000E+03 0.  0.
        -11    1    3    3    0    0  0.48083991280E+02  0.21873293305E+02  0.24994818190E+02  0.58440158402E+02  0.51100000000E-03 0.  1.
         23    2    1    0    0    0  0.14001859114E+02  0.23664764453E+02  0.96656513074E+01  0.95853851876E+02  0.91315184767E+02 0.  0.
         11    1    3    3    0    0 -0.34082132166E+02  0.17914711479E+01 -0.15329166883E+02  0.37413693475E+02  0.51100000000E-03 0. -1.
         22    1    1    0    0    0 -0.14001859114E+02 -0.23664764453E+02 -0.96656513074E+01  0.29146148124E+02  0.00000000000E+00 0.  1.
</event>
<event>
 5    1  0.8875601E-005  0.9118800E+02  0.7818608E-02  0.1130116E+00
         25   -1    0    0    0    0  0.00000000000E+00  0.00000000000E+00  0.99999998245E-14  0.12500000000E+03  0.12500000000E+03 0.  0.
        -11    1    3    3    0    0  0.25656496110E+02 -0.17731661876E+02  0.73274527004E+01  0.32036841118E+02  0.51100000000E-03 0.  1.
         23    2    1    0    0    0 -0.14491178489E+02  0.63827230709E+01 -0.29435639175E+02  0.91575603799E+02  0.85257849783E+02 0.  0.
         11    1    3    3    0    0 -0.40147674599E+02  0.24114384947E+02 -0.36763091875E+02  0.59538762680E+02  0.51100000000E-03 0. -1.
         22    1    1    0    0    0  0.14491178489E+02 -0.63827230709E+01  0.29435639175E+02  0.33424396201E+02  0.00000000000E+00 0. -1.
</event>
<event>
 5    1  0.8875601E-005  0.9118800E+02  0.7818608E-02  0.1130116E+00
         25   -1    0    0    0    0  0.00000000000E+00  0.00000000000E+00  0.99999998245E-14  0.12500000000E+03  0.12500000000E+03 0.  0.
        -11    1    3    3    0    0  0.81969261094E+00 -0.33961378224E+01 -0.43189108332E+02  0.43330182631E+02  0.51100000000E-03 0.  1.
         23    2    1    0    0    0  0.22039375024E+02  0.81645691288E+01  0.81921785429E+01  0.10011012194E+03  0.96966646252E+02 0.  0.
         11    1    3    3    0    0  0.21219682413E+02  0.11560706951E+02  0.51381286875E+02  0.56779939310E+02  0.51100000000E-03 0. -1.
         22    1    1    0    0    0 -0.22039375024E+02 -0.81645691288E+01 -0.81921785429E+01  0.24889878059E+02  0.00000000000E+00 0. -1.
</event>
<event>
 5    1  0.8875601E-005  0.9118800E+02  0.7818608E-02  0.1130116E+00
         25   -1    0    0    0    0  0.00000000000E+00  0.00000000000E+00  0.99999998245E-14  0.12500000000E+03  0.12500000000E+03 0.  0.
        -11    1    3    3    0    0 -0.17485792978E+02  0.29914320404E+02  0.20367037873E+02  0.40192483791E+02  0.51100000000E-03 0. -1.
         23    2    1    0    0    0  0.61386783640E+01  0.46015843126E+01 -0.25903885951E+02  0.97983907432E+02  0.94185863366E+02 0.  0.
         11    1    3    3    0    0  0.23624471342E+02 -0.25312736091E+02 -0.46270923825E+02  0.57791423641E+02  0.51100000000E-03 0.  1.
         22    1    1    0    0    0 -0.61386783640E+01 -0.46015843126E+01  0.25903885951E+02  0.27016092568E+02  0.00000000000E+00 0.  1.
</event>
<event>
 5    1  0.8875601E-005  0.9118800E+02  0.7818608E-02  0.1130116E+00
         25   -1    0    0    0    0  0.00000000000E+00  0.00000000000E+00  0.99999998245E-14  0.12500000000E+03  0.12500000000E+03 0.  0.
        -11    1    3    3    0    0  0.36450950009E+02 -0.41048368471E+02  0.14876311484E+02  0.56876576500E+02  0.51100000000E-03 0.  1.
         23    2    1    0    0    0  0.21260970373E+02 -0.61563541240E+01  0.19866772307E+02  0.95257468178E+02  0.90495121661E+02 0.  0.
         11    1    3    3    0    0 -0.15189979636E+02  0.34892014347E+02  0.49904608229E+01  0.38380891678E+02  0.51100000000E-03 0. -1.
         22    1    1    0    0    0 -0.21260970373E+02  0.61563541240E+01 -0.19866772307E+02  0.29742531822E+02  0.00000000000E+00 0.  1.
</event>
<event>
 5    1  0.8875601E-005  0.9118800E+02  0.7818608E-02  0.1130116E+00
         25   -1    0    0    0    0  0.00000000000E+00  0.00000000000E+00  0.99999998245E-14  0.12500000000E+03  0.12500000000E+03 0.  0.
        -11    1    3    3    0    0 -0.55808499830E+02  0.22987340302E+02  0.85127884206E+01  0.60954688371E+02  0.51100000000E-03 0.  1.
         23    2    1    0    0    0 -0.23614687148E+02  0.17704349148E+02 -0.24807695764E+01  0.95381565782E+02  0.90666374392E+02 0.  0.
         11    1    3    3    0    0  0.32193812682E+02 -0.52829911542E+01 -0.10993557997E+02  0.34426877411E+02  0.51100000000E-03 0. -1.
         22    1    1    0    0    0  0.23614687148E+02 -0.17704349148E+02  0.24807695764E+01  0.29618434218E+02  0.00000000000E+00 0.  1.
</event>
<event>
 5    1  0.8875601E-005  0.9118800E+02  0.7818608E-02  0.1130116E+00
         25   -1    0    0    0    0  0.00000000000E+00  0.00000000000E+00  0.99999998245E-14  0.12500000000E+03  0.12500000000E+03 0.  0.
        -11    1    3    3    0    0  0.22669397852E+02  0.37851688966E+02  0.33740590001E+02  0.55543490802E+02  0.51100000000E-03 0.  1.
         23    2    1    0    0    0  0.11661504301E+02 -0.21299801699E+01  0.24135107938E+02  0.98110765476E+02  0.94354074470E+02 0.  0.
         11    1    3    3    0    0 -0.11007893552E+02 -0.39981669135E+02 -0.96054820632E+01  0.42567274675E+02  0.51100000000E-03 0. -1.
         22    1    1    0    0    0 -0.11661504301E+02  0.21299801699E+01 -0.24135107938E+02  0.26889234524E+02  0.00000000000E+00 0.  1.
</event>
<event>
 5    1  0.8875601E-005  0.9118800E+02  0.7818608E-02  0.1130116E+00
         25   -1    0    0    0    0  0.00000000000E+00  0.00000000000E+00  0.99999998245E-14  0.12500000000E+03  0.12500000000E+03 0.  0.
        -11    1    3    3    0    0  0.13690589851E+02 -0.78119568967E+01 -0.51948473787E+02  0.54287225478E+02  0.51100000000E-03 0. -1.
         23    2    1    0    0    0 -0.10578280943E+02  0.11321825771E+02 -0.26418491488E+02  0.94372880335E+02  0.89264887182E+02 0.  0.
         11    1    3    3    0    0 -0.24268870795E+02  0.19133782668E+02  0.25529982299E+02  0.40085654857E+02  0.51100000000E-03 0.  1.
         22    1    1    0    0    0  0.10578280943E+02 -0.11321825771E+02  0.26418491488E+02  0.30627119665E+02  0.00000000000E+00 0. -1.
</event>
<event>
 5    1  0.8875601E-005  0.9118800E+02  0.7818608E-02  0.1130116E+00
         25   -1    0    0    0    0  0.00000000000E+00  0.00000000000E+00  0.99999998245E-14  0.12500000000E+03  0.12500000000E+03 0.  0.
        -11    1    3    3    0    0  0.25630557800E+02  0.19850936734E+02  0.23635174144E+02  0.40119903283E+02  0.51100000000E-03 0.  1.
         23    2    1    0    0    0  0.10594430011E+02  0.32776248695E+01 -0.27180267241E+02  0.95644392370E+02  0.91028007188E+02 0.  0.
         11    1    3    3    0    0 -0.15036127789E+02 -0.16573311865E+02 -0.50815441384E+02  0.55524489087E+02  0.51100000000E-03 0. -1.
         22    1    1    0    0    0 -0.10594430011E+02 -0.32776248695E+01  0.27180267241E+02  0.29355607630E+02  0.00000000000E+00 0. -1.
</event>
<event>
 5    1  0.8875601E-005  0.9118800E+02  0.7818608E-02  0.1130116E+00
         25   -1    0    0    0    0  0.00000000000E+00  0.00000000000E+00  0.99999998245E-14  0.12500000000E+03  0.12500000000E+03 0.  0.
        -11    1    3    3    0    0 -0.88056381620E+01  0.13843835073E+02 -0.29657842212E+02  0.33893637130E+02  0.51100000000E-03 0.  1.
         23    2    1    0    0    0  0.98857446550E+01 -0.61934822001E+01  0.26315675599E+02  0.96214553133E+02  0.91807615605E+02 0.  0.
         11    1    3    3    0    0  0.18691382817E+02 -0.20037317273E+02  0.55973517810E+02  0.62320916003E+02  0.51100000000E-03 0. -1.
         22    1    1    0    0    0 -0.98857446550E+01  0.61934822001E+01 -0.26315675599E+02  0.28785446867E+02  0.00000000000E+00 0. -1.
</event>
<event>
 5    1  0.8875601E-005  0.9118800E+02  0.7818608E-02  0.1130116E+00
         25   -1    0    0    0    0  0.00000000000E+00  0.00000000000E+00  0.99999998245E-14  0.12500000000E+03  0.12500000000E+03 0.  0.
        -11    1    3    3    0    0  0.47187123931E+02 -0.34008909074E+02  0.20821735534E+02  0.61780055294E+02  0.51100000000E-03 0.  1.
         23    2    1    0    0    0  0.17566103959E+02 -0.20296611764E+02  0.12034838045E+02  0.95583035776E+02  0.90943713054E+02 0.  0.
         11    1    3    3    0    0 -0.29621019972E+02  0.13712297311E+02 -0.87868974892E+01  0.33802980482E+02  0.51100000000E-03 0. -1.
         22    1    1    0    0    0 -0.17566103959E+02  0.20296611764E+02 -0.12034838045E+02  0.29416964224E+02  0.00000000000E+00 0.  1.
</event>
<event>
 5    1  0.8875601E-005  0.9118800E+02  0.7818608E-02  0.1130116E+00
         25   -1    0    0    0    0  0.00000000000E+00  0.00000000000E+00  0.99999998245E-14  0.12500000000E+03  0.12500000000E+03 0.  0.
        -11    1    3    3    0    0 -0.42787745189E+02  0.31070603690E+02  0.11364720675E+02  0.54086323856E+02  0.51100000000E-03 0. -1.
         23    2    1    0    0    0 -0.94809534358E+01  0.10960817123E+02  0.25655054911E+02  0.95534599399E+02  0.90877114005E+02 0.  0.
         11    1    3    3    0    0  0.33306791753E+02 -0.20109786567E+02  0.14290334236E+02  0.41448275543E+02  0.51100000000E-03 0.  1.
         22    1    1    0    0    0  0.94809534358E+01 -0.10960817123E+02 -0.25655054911E+02  0.29465400601E+02  0.00000000000E+00 0. -1.
</event>
<event>
 5    1  0.8875601E-005  0.9118800E+02  0.7818608E-02  0.1130116E+00
         25   -1    0    0    0    0  0.00000000000E+00  0.00000000000E+00  0.99999998245E-14  0.12500000000E+03  0.12500000000E+03 0.  0.
        -11    1    3    3    0    0 -0.37587867619E+02  0.24066233463E+02  0.18535941670E+02  0.48328175209E+02  0.51100000000E-03 0.  1.
         23    2    1    0    0    0 -0.64002013712E+01 -0.45220088558E+01  0.31469995319E+02  0.92568969380E+02  0.86702031955E+02 0.  0.
         11    1    3    3    0    0  0.31187666247E+02 -0.28588242319E+02  0.12934053649E+02  0.44240794171E+02  0.51100000000E-03 0. -1.
         22    1    1    0    0    0  0.64002013712E+01  0.45220088558E+01 -0.31469995319E+02  0.32431030620E+02  0.00000000000E+00 0. -1.
</event>
<event>
 5    1  0.8875601E-005  0.9118800E+02  0.7818608E-02  0.1130116E+00
         25   -1    0    0    0    0  0.00000000000E+00  0.00000000000E+00  0.99999998245E-14  0.12500000000E+03  0.12500000000E+03 0.  0.
        -11    1    3    3    0    0 -0.89834948647E+01  0.24902435782E+02  0.88094695048E+01  0.27900559870E+02  0.51100000000E-03 0. -1.
         23    2    1    0    0    0  0.50745313876E+01 -0.28874054693E+02 -0.19012155767E+02  0.90058277516E+02  0.83003429923E+02 0.  0.
         11    1    3    3    0    0  0.14058026252E+02 -0.53776490475E+02 -0.27821625272E+02  0.62157717646E+02  0.51100000000E-03 0.  1.
         22    1    1    0    0    0 -0.50745313876E+01  0.28874054693E+02  0.19012155767E+02  0.34941722484E+02  0.00000000000E+00 0.  1.
</event>
<event>
 5    1  0.8875601E-005  0.9118800E+02  0.7818608E-02  0.1130116E+00
         25   -1    0    0    0    0  0.00000000000E+00  0.00000000000E+00  0.99999998245E-14  0.12500000000E+03  0.12500000000E+03 0.  0.
        -11    1    3    3    0    0 -0.13172275284E+02  0.21051285461E+01 -0.21397058086E+02  0.25214569148E+02  0.51100000000E-03 0.  1.
         23    2    1    0    0    0  0.41644371801E+02 -0.54888154832E+01 -0.11684747559E+02  0.81400526109E+02  0.68739592137E+02 0.  0.
         11    1    3    3    0    0  0.54816647084E+02 -0.75939440293E+01  0.97123105271E+01  0.56185956960E+02  0.51100000000E-03 0. -1.
         22    1    1    0    0    0 -0.41644371801E+02  0.54888154832E+01  0.11684747559E+02  0.43599473891E+02  0.00000000000E+00 0. -1.
</event>
<event>
 5    1  0.8875601E-005  0.9118800E+02  0.7818608E-02  0.1130116E+00
         25   -1    0    0    0    0  0.00000000000E+00  0.00000000000E+00  0.99999998245E-14  0.12500000000E+03  0.12500000000E+03 0.  0.
        -11    1    3    3    0    0 -0.12530305507E+02  0.37678081460E+02 -0.14616699913E+02  0.42311869437E+02  0.51100000000E-03 0. -1.
         23    2    1    0    0    0  0.25632215549E+02 -0.38709928554E+00 -0.13046570618E+02  0.96235902157E+02  0.91836678617E+02 0.  0.
         11    1    3    3    0    0  0.38162521056E+02 -0.38065180746E+02  0.15701292952E+01  0.53924032720E+02  0.51100000000E-03 0.  1.
         22    1    1    0    0    0 -0.25632215549E+02  0.38709928554E+00  0.13046570618E+02  0.28764097843E+02  0.00000000000E+00 0.  1.
</event>
<event>
 5    1  0.8875601E-005  0.9118800E+02  0.7818608E-02  0.1130116E+00
         25   -1    0    0    0    0  0.00000000000E+00  0.00000000000E+00  0.99999998245E-14  0.12500000000E+03  0.12500000000E+03 0.  0.
        -11    1    3    3    0    0  0.18405497316E+01  0.19169942447E+02  0.45347172245E+02  0.49267031041E+02  0.51100000000E-03 0. -1.
         23    2    1    0    0    0 -0.25391569334E+02  0.12557466487E+02  0.87676550735E+01  0.95347115936E+02  0.90618866601E+02 0.  0.
         11    1    3    3    0    0 -0.27232119066E+02 -0.66124759594E+01 -0.36579517172E+02  0.46080084895E+02  0.51100000000E-03 0.  1.
         22    1    1    0    0    0  0.25391569334E+02 -0.12557466487E+02 -0.87676550735E+01  0.29652884064E+02  0.00000000000E+00 0. -1.
</event>
<event>
 5    1  0.8875601E-005  0.9118800E+02  0.7818608E-02  0.1130116E+00
         25   -1    0    0    0    0  0.00000000000E+00  0.00000000000E+00  0.99999998245E-14  0.12500000000E+03  0.12500000000E+03 0.  0.
        -11    1    3    3    0    0  0.15951689656E+01  0.19441101632E+02 -0.35850017438E+02  0.40813291306E+02  0.51100000000E-03 0.  1.
         23    2    1    0    0    0 -0.22735056243E+02  0.18649784101E+02  0.10995165553E+02  0.93605878020E+02  0.88184292847E+02 0.  0.
         11    1    3    3    0    0 -0.24330225209E+02 -0.79131753077E+00  0.46845182991E+02  0.52792586713E+02  0.51100000000E-03 0. -1.
         22    1    1    0    0    0  0.22735056243E+02 -0.18649784101E+02 -0.10995165553E+02  0.31394121980E+02  0.00000000000E+00 0. -1.
</event>
<event>
 5    1  0.8875601E-005  0.9118800E+02  0.7818608E-02  0.1130116E+00
         25   -1    0    0    0    0  0.00000000000E+00  0.00000000000E+00  0.99999998245E-14  0.12500000000E+03  0.12500000000E+03 0.  0.
        -11    1    3    3    0    0  0.25907806953E+02 -0.18333956749E+01 -0.28423284083E+02  0.38502712620E+02  0.51100000000E-03 0.  1.
         23    2    1    0    0    0  0.12234030430E+02 -0.23955755226E+01  0.26824478694E+02  0.95420227522E+02  0.90719660937E+02 0.  0.
         11    1    3    3    0    0 -0.13673776523E+02 -0.56217984770E+00  0.55247762776E+02  0.56917514902E+02  0.51100000000E-03 0. -1.
         22    1    1    0    0    0 -0.12234030430E+02  0.23955755226E+01 -0.26824478694E+02  0.29579772478E+02  0.00000000000E+00 0. -1.
</event>
<event>
 5    1  0.8875601E-005  0.9118800E+02  0.7818608E-02  0.1130116E+00
         25   -1    0    0    0    0  0.00000000000E+00  0.00000000000E+00  0.99999998245E-14  0.12500000000E+03  0.12500000000E+03 0.  0.
        -11    1    3    3    0    0  0.11619751862E+02  0.37229313374E+02  0.32784308500E+02  0.50949497463E+02  0.51100000000E-03 0.  1.
         23    2    1    0    0    0 -0.16343156313E+02  0.41286693934E+01  0.24805593200E+02  0.95008965953E+02  0.90151214569E+02 0.  0.
         11    1    3    3    0    0 -0.27962908175E+02 -0.33100643981E+02 -0.79787153002E+01  0.44059468490E+02  0.51100000000E-03 0. -1.
         22    1    1    0    0    0  0.16343156313E+02 -0.41286693934E+01 -0.24805593200E+02  0.29991034047E+02  0.00000000000E+00 0.  1.
</event>
<event>
 5    1  0.8875601E-005  0.9118800E+02  0.7818608E-02  0.1130116E+00
         25   -1    0    0    0    0  0.00000000000E+00  0.00000000000E+00  0.99999998245E-14  0.12500000000E+03  0.12500000000E+03 0.  0.
        -11    1    3    3    0    0  0.15295286270E+02 -0.18969018223E+02 -0.32795368012E+02  0.40857136435E+02  0.51100000000E-03 0. -1.
         23    2    1    0    0    0  0.19712475161E+02  0.20376499191E+02  0.57027093861E+01  0.96081073834E+02  0.91625697588E+02 0.  0.
         11    1    3    3    0    0  0.44171888911E+01  0.39345517414E+02  0.38498077398E+02  0.55223937399E+02  0.51100000000E-03 0.  1.
         22    1    1    0    0    0 -0.19712475161E+02 -0.20376499191E+02 -0.57027093861E+01  0.28918926166E+02  0.00000000000E+00 0.  1.
</event>
<event>
 5    1  0.8875601E-005  0.9118800E+02  0.7818608E-02  0.1130116E+00
         25   -1    0    0    0    0  0.00000000000E+00  0.00000000000E+00  0.99999998245E-14  0.12500000000E+03  0.12500000000E+03 0.  0.
        -11    1    3    3    0    0 -0.52944508952E+02  0.39680188573E+01  0.23916574435E+01  0.53146836476E+02  0.51100000000E-03 0. -1.
         23    2    1    0    0    0 -0.19524782567E+02  0.25444474949E+02  0.32762281333E+00  0.92925932961E+02  0.87215154878E+02 0.  0.
         11    1    3    3    0    0  0.33419726386E+02  0.21476456092E+02 -0.20640346301E+01  0.39779096485E+02  0.51100000000E-03 0.  1.
         22    1    1    0    0    0  0.19524782567E+02 -0.25444474949E+02 -0.32762281333E+00  0.32074067039E+02  0.00000000000E+00 0. -1.
</event>
<event>
 5    1  0.8875601E-005  0.9118800E+02  0.7818608E-02  0.1130116E+00
         25   -1    0    0    0    0  0.00000000000E+00  0.00000000000E+00  0.99999998245E-14  0.12500000000E+03  0.12500000000E+03 0.  0.
        -11    1    3    3    0    0 -0.40062545171E+02  0.96662194937E+01 -0.42772320131E+02  0.59396251519E+02  0.51100000000E-03 0.  1.
         23    2    1    0    0    0 -0.62522387385E+01  0.64979359335E+01 -0.26413701770E+02  0.97089476862E+02  0.92991231928E+02 0.  0.
         11    1    3    3    0    0  0.33810306433E+02 -0.31682835602E+01  0.16358618361E+02  0.37693225343E+02  0.51100000000E-03 0. -1.
         22    1    1    0    0    0  0.62522387385E+01 -0.64979359335E+01  0.26413701770E+02  0.27910523138E+02  0.00000000000E+00 0.  1.
</event>
<event>
 5    1  0.8875601E-005  0.9118800E+02  0.7818608E-02  0.1130116E+00
         25   -1    0    0    0    0  0.00000000000E+00  0.00000000000E+00  0.99999998245E-14  0.12500000000E+03  0.12500000000E+03 0.  0.
        -11    1    3    3    0    0 -0.17055657432E+02 -0.14152001867E+02 -0.37314851683E+02  0.43400147046E+02  0.51100000000E-03 0.  1.
         23    2    1    0    0    0 -0.62777006111E+01  0.27912520691E+02 -0.10035741880E+02  0.94681120546E+02  0.89695485597E+02 0.  0.
         11    1    3    3    0    0  0.10777956821E+02  0.42064522557E+02  0.27279109803E+02  0.51280973500E+02  0.51100000000E-03 0. -1.
         22    1    1    0    0    0  0.62777006111E+01 -0.27912520691E+02  0.10035741880E+02  0.30318879454E+02  0.00000000000E+00 0. -1.
</event>
<event>
 5    1  0.8875601E-005  0.9118800E+02  0.7818608E-02  0.1130116E+00
         25   -1    0    0    0    0  0.00000000000E+00  0.00000000000E+00  0.99999998245E-14  0.12500000000E+03  0.12500000000E+03 0.  0.
        -11    1    3    3    0    0 -0.27614548330E+02 -0.85138215591E+01 -0.17992099882E+01  0.28953162070E+02  0.51100000000E-03 0.  1.
         23    2    1    0    0    0  0.17432242221E+02  0.17790563758E+02  0.26775000410E+02  0.88431053138E+02  0.80515608949E+02 0.  0.
         11    1    3    3    0    0  0.45046790551E+02  0.26304385317E+02  0.28574210398E+02  0.59477891068E+02  0.51100000000E-03 0. -1.
         22    1    1    0    0    0 -0.17432242221E+02 -0.17790563758E+02 -0.26775000410E+02  0.36568946862E+02  0.00000000000E+00 0. -1.
</event>
<event>
 5    1  0.8875601E-005  0.9118800E+02  0.7818608E-02  0.1130116E+00
         25   -1    0    0    0    0  0.00000000000E+00  0.00000000000E+00  0.99999998245E-14  0.12500000000E+03  0.12500000000E+03 0.  0.
        -11    1    3    3    0    0  0.41685927061E+02 -0.59598407621E+01 -0.44121809793E+02  0.60991559387E+02  0.51100000000E-03 0.  1.
         23    2    1    0    0    0  0.23672032891E+02 -0.16212274772E+01 -0.11216820861E+02  0.98754798725E+02  0.95203464649E+02 0.  0.
         11    1    3    3    0    0 -0.18013894170E+02  0.43386132849E+01  0.32904988932E+02  0.37763239337E+02  0.51100000000E-03 0. -1.
         22    1    1    0    0    0 -0.23672032891E+02  0.16212274772E+01  0.11216820861E+02  0.26245201275E+02  0.00000000000E+00 0.  1.
</event>
<event>
 5    1  0.8875601E-005  0.9118800E+02  0.7818608E-02  0.1130116E+00
         25   -1    0    0    0    0  0.00000000000E+00  0.00000000000E+00  0.99999998245E-14  0.12500000000E+03  0.12500000000E+03 0.  0.
        -11    1    3    3    0    0 -0.20836649343E+02  0.26805927343E+02 -0.50002361889E+02  0.60439721138E+02  0.51100000000E-03 0.  1.
         23    2    1    0    0    0 -0.83226824263E+01  0.22920069571E+01 -0.28069030306E+02  0.95633508875E+02  0.91013060704E+02 0.  0.
         11    1    3    3    0    0  0.12513966917E+02 -0.24513920386E+02  0.21933331583E+02  0.35193787736E+02  0.51100000000E-03 0. -1.
         22    1    1    0    0    0  0.83226824263E+01 -0.22920069571E+01  0.28069030306E+02  0.29366491125E+02  0.00000000000E+00 0.  1.
</event>
<event>
 5    1  0.8875601E-005  0.9118800E+02  0.7818608E-02  0.1130116E+00
         25   -1    0    0    0    0  0.00000000000E+00  0.00000000000E+00  0.99999998245E-14  0.12500000000E+03  0.12500000000E+03 0.  0.
        -11    1    3    3    0    0  0.10599671315E+02  0.36570597308E+02 -0.48806592204E+02  0.61901898697E+02  0.51100000000E-03 0. -1.
         23    2    1    0    0    0  0.16319128697E+01  0.19723038899E+02 -0.17424550224E+02  0.98631906525E+02  0.95041972997E+02 0.  0.
         11    1    3    3    0    0 -0.89677584454E+01 -0.16847558409E+02  0.31382041980E+02  0.36730007827E+02  0.51100000000E-03 0.  1.
         22    1    1    0    0    0 -0.16319128697E+01 -0.19723038899E+02  0.17424550224E+02  0.26368093475E+02  0.00000000000E+00 0. -1.
</event>
<event>
 5    1  0.8875601E-005  0.9118800E+02  0.7818608E-02  0.1130116E+00
         25   -1    0    0    0    0  0.00000000000E+00  0.00000000000E+00  0.99999998245E-14  0.12500000000E+03  0.12500000000E+03 0.  0.
        -11    1    3    3    0    0 -0.31148586934E+02 -0.23302114689E+02  0.75088212483E+01  0.39618245970E+02  0.51100000000E-03 0. -1.
         23    2    1    0    0    0  0.23401404707E+02 -0.18742984202E+02 -0.92138582734E+00  0.95003764388E+02  0.90144002003E+02 0.  0.
         11    1    3    3    0    0  0.54549991641E+02  0.45591304870E+01 -0.84302070756E+01  0.55385518418E+02  0.51100000000E-03 0.  1.
         22    1    1    0    0    0 -0.23401404707E+02  0.18742984202E+02  0.92138582734E+00  0.29996235612E+02  0.00000000000E+00 0.  1.
</event>
<event>
 5    1  0.8875601E-005  0.9118800E+02  0.7818608E-02  0.1130116E+00
         25   -1    0    0    0    0  0.00000000000E+00  0.00000000000E+00  0.99999998245E-14  0.12500000000E+03  0.12500000000E+03 0.  0.
        -11    1    3    3    0    0 -0.22607441946E+02  0.36638701756E+01  0.23954738379E+02  0.33141361877E+02  0.51100000000E-03 0. -1.
         23    2    1    0    0    0  0.18539465217E+02  0.94108200249E+01 -0.21752713943E+02  0.94909206259E+02  0.90012785563E+02 0.  0.
         11    1    3    3    0    0  0.41146907162E+02  0.57469498493E+01 -0.45707452322E+02  0.61767844382E+02  0.51100000000E-03 0.  1.
         22    1    1    0    0    0 -0.18539465217E+02 -0.94108200249E+01  0.21752713943E+02  0.30090793741E+02  0.00000000000E+00 0.  1.
</event>
<event>
 5    1  0.8875601E-005  0.9118800E+02  0.7818608E-02  0.1130116E+00
         25   -1    0    0    0    0  0.00000000000E+00  0.00000000000E+00  0.99999998245E-14  0.12500000000E+03  0.12500000000E+03 0.  0.
        -11    1    3    3    0    0  0.37027658759E+02  0.11350664885E+02 -0.26824007761E+02  0.47110641040E+02  0.51100000000E-03 0. -1.
         23    2    1    0    0    0  0.35764829614E+01 -0.22206699787E+02 -0.19845019530E+02  0.95004107849E+02  0.90144478268E+02 0.  0.
         11    1    3    3    0    0 -0.33451175798E+02 -0.33557364672E+02  0.69789882317E+01  0.47893466809E+02  0.51100000000E-03 0.  1.
         22    1    1    0    0    0 -0.35764829614E+01  0.22206699787E+02  0.19845019530E+02  0.29995892151E+02  0.00000000000E+00 0.  1.
</event>
<event>
 5    1  0.8875601E-005  0.9118800E+02  0.7818608E-02  0.1130116E+00
         25   -1    0    0    0    0  0.00000000000E+00  0.00000000000E+00  0.99999998245E-14  0.12500000000E+03  0.12500000000E+03 0.  0.
        -11    1    3    3    0    0 -0.15399734844E+02 -0.47978816703E+02 -0.98625569939E+01  0.51345776030E+02  0.51100000000E-03 0. -1.
         23    2    1    0    0    0 -0.10782961024E+01 -0.30759261446E+02  0.19717017884E+02  0.88447904555E+02  0.80541766425E+02 0.  0.
         11    1    3    3    0    0  0.14321438741E+02  0.17219555257E+02  0.29579574878E+02  0.37102128525E+02  0.51100000000E-03 0.  1.
         22    1    1    0    0    0  0.10782961024E+01  0.30759261446E+02 -0.19717017884E+02  0.36552095445E+02  0.00000000000E+00 0. -1.
</event>
<event>
 5    1  0.8875601E-005  0.9118800E+02  0.7818608E-02  0.1130116E+00
         25   -1    0    0    0    0  0.00000000000E+00  0.00000000000E+00  0.99999998245E-14  0.12500000000E+03  0.12500000000E+03 0.  0.
        -11    1    3    3    0    0 -0.84172377819E+01  0.38631606437E+02  0.45112524232E+02  0.59986588090E+02  0.51100000000E-03 0.  1.
         23    2    1    0    0    0 -0.15823540191E+02  0.19757819188E+02  0.17571092886E+02  0.94186055941E+02  0.89002887511E+02 0.  0.
         11    1    3    3    0    0 -0.74063024090E+01 -0.18873787249E+02 -0.27541431347E+02  0.34199467852E+02  0.51100000000E-03 0. -1.
         22    1    1    0    0    0  0.15823540191E+02 -0.19757819188E+02 -0.17571092886E+02  0.30813944059E+02  0.00000000000E+00 0.  1.
</event>
<event>
 5    1  0.8875601E-005  0.9118800E+02  0.7818608E-02  0.1130116E+00
         25   -1    0    0    0    0  0.00000000000E+00  0.00000000000E+00  0.99999998245E-14  0.12500000000E+03  0.12500000000E+03 0.  0.
        -11    1    3    3    0    0 -0.73888507947E+01 -0.59913134905E+02  0.15497904828E+02  0.62324665298E+02  0.51100000000E-03 0.  1.
         23    2    1    0    0    0 -0.25176259419E+01 -0.27456380906E+02  0.10368293307E+02  0.95543374278E+02  0.90889182907E+02 0.  0.
         11    1    3    3    0    0  0.48712248528E+01  0.32456753999E+02 -0.51296115202E+01  0.33218708980E+02  0.51100000000E-03 0. -1.
         22    1    1    0    0    0  0.25176259419E+01  0.27456380906E+02 -0.10368293307E+02  0.29456625722E+02  0.00000000000E+00 0.  1.
</event>
<event>
 5    1  0.8875601E-005  0.9118800E+02  0.7818608E-02  0.1130116E+00
         25   -1    0    0    0    0  0.00000000000E+00  0.00000000000E+00  0.99999998245E-14  0.12500000000E+03  0.12500000000E+03 0.  0.
        -11    1    3    3    0    0 -0.34388837374E+02  0.10325181566E+02  0.40857068636E+02  0.54392109429E+02  0.51100000000E-03 0.  1.
         23    2    1    0    0    0  0.25377929017E+01 -0.40291809218E+01  0.28806281412E+02  0.95802799099E+02  0.91245272615E+02 0.  0.
         11    1    3    3    0    0  0.36926630276E+02 -0.14354362488E+02 -0.12050787225E+02  0.41410689670E+02  0.51100000000E-03 0. -1.
         22    1    1    0    0    0 -0.25377929017E+01  0.40291809218E+01 -0.28806281412E+02  0.29197200901E+02  0.00000000000E+00 0. -1.
</event>
<event>
 5    1  0.8875601E-005  0.9118800E+02  0.7818608E-02  0.1130116E+00
         25   -1    0    0    0    0  0.00000000000E+00  0.00000000000E+00  0.99999998245E-14  0.12500000000E+03  0.12500000000E+03 0.  0.
        -11    1    3    3    0    0 -0.52760014662E+00 -0.20331051358E+02  0.36429177680E+02  0.41721876731E+02  0.51100000000E-03 0. -1.
         23    2    1    0    0    0 -0.20665907805E+02 -0.20563088606E+02 -0.11461154628E+02  0.93674636094E+02  0.88281702655E+02 0.  0.
         11    1    3    3    0    0 -0.20138307658E+02 -0.23203724773E+00 -0.47890332308E+02  0.51952759363E+02  0.51100000000E-03 0.  1.
         22    1    1    0    0    0  0.20665907805E+02  0.20563088606E+02  0.11461154628E+02  0.31325363906E+02  0.00000000000E+00 0. -1.
</event>
<event>
 5    1  0.8875601E-005  0.9118800E+02  0.7818608E-02  0.1130116E+00
         25   -1    0    0    0    0  0.00000000000E+00  0.00000000000E+00  0.99999998245E-14  0.12500000000E+03  0.12500000000E+03 0.  0.
        -11    1    3    3    0    0  0.46511791760E+02 -0.11184080685E+02  0.38522386021E+02  0.61419904416E+02  0.51100000000E-03 0.  1.
         23    2    1    0    0    0  0.16095883011E+02 -0.72467806148E+01  0.23604333364E+02  0.95525301821E+02  0.90864324436E+02 0.  0.
         11    1    3    3    0    0 -0.30415908749E+02  0.39373000706E+01 -0.14918052657E+02  0.34105397405E+02  0.51100000000E-03 0. -1.
         22    1    1    0    0    0 -0.16095883011E+02  0.72467806148E+01 -0.23604333364E+02  0.29474698179E+02  0.00000000000E+00 0.  1.
</event>
<event>
 5    1  0.8875601E-005  0.9118800E+02  0.7818608E-02  0.1130116E+00
         25   -1    0    0    0    0  0.00000000000E+00  0.00000000000E+00  0.99999998245E-14  0.12500000000E+03  0.12500000000E+03 0.  0.
        -11    1    3    3    0    0  0.12999663446E+02  0.49989204012E+02  0.34619628686E+01  0.51767721165E+02  0.51100000000E-03 0. -1.
         23    2    1    0    0    0  0.57638544316E+01  0.12110871141E+02  0.25502768179E+02  0.96185309259E+02  0.91767790182E+02 0.  0.
         11    1    3    3    0    0 -0.72358090145E+01 -0.37878332871E+02  0.22040805310E+02  0.44417588094E+02  0.51100000000E-03 0.  1.
         22    1    1    0    0    0 -0.57638544316E+01 -0.12110871141E+02 -0.25502768179E+02  0.28814690741E+02  0.00000000000E+00 0. -1.
</event>
<event>
 5    1  0.8875601E-005  0.9118800E+02  0.7818608E-02  0.1130116E+00
         25   -1    0    0    0    0  0.00000000000E+00  0.00000000000E+00  0.99999998245E-14  0.12500000000E+03  0.12500000000E+03 0.  0.
        -11    1    3    3    0    0 -0.11620230630E+02  0.44925986296E+02  0.32062755674E+02  0.56403850101E+02  0.51100000000E-03 0.  1.
         23    2    1    0    0    0 -0.29460796810E+01  0.40160721800E+01  0.25840784773E+02  0.98683572071E+02  0.95109899684E+02 0.  0.
         11    1    3    3    0    0  0.86741509489E+01 -0.40909914116E+02 -0.62219709009E+01  0.42279721970E+02  0.51100000000E-03 0. -1.
         22    1    1    0    0    0  0.29460796810E+01 -0.40160721800E+01 -0.25840784773E+02  0.26316427929E+02  0.00000000000E+00 0.  1.
</event>
<event>
 5    1  0.8875601E-005  0.9118800E+02  0.7818608E-02  0.1130116E+00
         25   -1    0    0    0    0  0.00000000000E+00  0.00000000000E+00  0.99999998245E-14  0.12500000000E+03  0.12500000000E+03 0.  0.
        -11    1    3    3    0    0 -0.45792790527E+02 -0.38713519430E+02 -0.10453275739E+02  0.60868606234E+02  0.51100000000E-03 0.  1.
         23    2    1    0    0    0 -0.35467981279E+02 -0.29050034253E+02 -0.16535773635E+02  0.76262806853E+02  0.58657494946E+02 0.  0.
         11    1    3    3    0    0  0.10324809248E+02  0.96634851772E+01 -0.60824978961E+01  0.15394200619E+02  0.51100000000E-03 0. -1.
         22    1    1    0    0    0  0.35467981279E+02  0.29050034253E+02  0.16535773635E+02  0.48737193147E+02  0.00000000000E+00 0.  1.
</event>
<event>
 5    1  0.8875601E-005  0.9118800E+02  0.7818608E-02  0.1130116E+00
         25   -1    0    0    0    0  0.00000000000E+00  0.00000000000E+00  0.99999998245E-14  0.12500000000E+03  0.12500000000E+03 0.  0.
        -11    1    3    3    0    0 -0.17024270231E+02  0.12627515205E+02  0.58657857798E+02  0.62370058512E+02  0.51100000000E-03 0.  1.
         23    2    1    0    0    0 -0.96531668519E+01  0.78905589667E+01  0.26280616142E+02  0.95911938258E+02  0.91394663764E+02 0.  0.
         11    1    3    3    0    0  0.73711033794E+01 -0.47369562378E+01 -0.32377241655E+02  0.33541879746E+02  0.51100000000E-03 0. -1.
         22    1    1    0    0    0  0.96531668519E+01 -0.78905589667E+01 -0.26280616142E+02  0.29088061742E+02  0.00000000000E+00 0.  1.
</event>
<event>
 5    1  0.8875601E-005  0.9118800E+02  0.7818608E-02  0.1130116E+00
         25   -1    0    0    0    0  0.00000000000E+00  0.00000000000E+00  0.99999998245E-14  0.12500000000E+03  0.12500000000E+03 0.  0.
        -11    1    3    3    0    0  0.39753022913E+02  0.29965696151E+02  0.37778920023E+02  0.62493940306E+02  0.51100000000E-03 0.  1.
         23    2    1    0    0    0  0.20463018712E+02  0.15845261837E+02  0.18991629269E+02  0.92898762644E+02  0.87176204672E+02 0.  0.
         11    1    3    3    0    0 -0.19290004201E+02 -0.14120434314E+02 -0.18787290754E+02  0.30404822338E+02  0.51100000000E-03 0. -1.
         22    1    1    0    0    0 -0.20463018712E+02 -0.15845261837E+02 -0.18991629269E+02  0.32101237356E+02  0.00000000000E+00 0.  1.
</event>
<event>
 5    1  0.8875601E-005  0.9118800E+02  0.7818608E-02  0.1130116E+00
         25   -1    0    0    0    0  0.00000000000E+00  0.00000000000E+00  0.99999998245E-14  0.12500000000E+03  0.12500000000E+03 0.  0.
        -11    1    3    3    0    0  0.54257454042E+02 -0.13668338099E+02  0.11632520108E+01  0.55964702635E+02  0.51100000000E-03 0.  1.
         23    2    1    0    0    0  0.16404651851E+02 -0.24416869293E+02 -0.24654825120E+01  0.95480943233E+02  0.90803280823E+02 0.  0.
         11    1    3    3    0    0 -0.37852802191E+02 -0.10748531194E+02 -0.36287345228E+01  0.39516240598E+02  0.51100000000E-03 0. -1.
         22    1    1    0    0    0 -0.16404651851E+02  0.24416869293E+02  0.24654825120E+01  0.29519056767E+02  0.00000000000E+00 0.  1.
</event>
<event>
 5    1  0.8875601E-005  0.9118800E+02  0.7818608E-02  0.1130116E+00
         25   -1    0    0    0    0  0.00000000000E+00  0.00000000000E+00  0.99999998245E-14  0.12500000000E+03  0.12500000000E+03 0.  0.
        -11    1    3    3    0    0  0.26005011188E+02  0.55332297945E+02  0.10382813976E+02  0.62013922865E+02  0.51100000000E-03 0. -1.
         23    2    1    0    0    0  0.11868653740E+02  0.32018184937E+02  0.10485554631E+02  0.89279194240E+02  0.81821748698E+02 0.  0.
         11    1    3    3    0    0 -0.14136357448E+02 -0.23314113008E+02  0.10274065500E+00  0.27265271375E+02  0.51100000000E-03 0.  1.
         22    1    1    0    0    0 -0.11868653740E+02 -0.32018184937E+02 -0.10485554631E+02  0.35720805760E+02  0.00000000000E+00 0. -1.
</event>
<event>
 5    1  0.8875601E-005  0.9118800E+02  0.7818608E-02  0.1130116E+00
         25   -1    0    0    0    0  0.00000000000E+00  0.00000000000E+00  0.99999998245E-14  0.12500000000E+03  0.12500000000E+03 0.  0.
        -11    1    3    3    0    0 -0.20903093971E+02  0.32760943563E+01  0.25756110305E+02  0.33332406905E+02  0.51100000000E-03 0.  1.
         23    2    1    0    0    0  0.37471094598E+01 -0.23002922670E+02 -0.21861375606E+02  0.93045422487E+02  0.87386243893E+02 0.  0.
         11    1    3    3    0    0  0.24650203431E+02 -0.26279017026E+02 -0.47617485912E+02  0.59713015581E+02  0.51100000000E-03 0. -1.
         22    1    1    0    0    0 -0.37471094598E+01  0.23002922670E+02  0.21861375606E+02  0.31954577513E+02  0.00000000000E+00 0. -1.
</event>
<event>
 5    1  0.8875601E-005  0.9118800E+02  0.7818608E-02  0.1130116E+00
         25   -1    0    0    0    0  0.00000000000E+00  0.00000000000E+00  0.99999998245E-14  0.12500000000E+03  0.12500000000E+03 0.  0.
        -11    1    3    3    0    0 -0.39708804780E+02  0.12858960820E+02  0.45442861660E+01  0.41985623581E+02  0.51100000000E-03 0.  1.
         23    2    1    0    0    0 -0.80155214419E+01 -0.23094494656E+02 -0.17694735390E+02  0.94822062233E+02  0.89891687926E+02 0.  0.
         11    1    3    3    0    0  0.31693283338E+02 -0.35953455476E+02 -0.22239021556E+02  0.52836438652E+02  0.51100000000E-03 0. -1.
         22    1    1    0    0    0  0.80155214419E+01  0.23094494656E+02  0.17694735390E+02  0.30177937767E+02  0.00000000000E+00 0. -1.
</event>
<event>
 5    1  0.8875601E-005  0.9118800E+02  0.7818608E-02  0.1130116E+00
         25   -1    0    0    0    0  0.00000000000E+00  0.00000000000E+00  0.99999998245E-14  0.12500000000E+03  0.12500000000E+03 0.  0.
        -11    1    3    3    0    0 -0.30527852990E+02  0.64083347035E+01  0.17221779969E+02  0.35631534732E+02  0.51100000000E-03 0.  1.
         23    2    1    0    0    0  0.27345562936E+02 -0.69709800574E+01  0.72611632099E+01  0.95860698938E+02  0.91324557127E+02 0.  0.
         11    1    3    3    0    0  0.57873415926E+02 -0.13379314761E+02 -0.99606167587E+01  0.60229164205E+02  0.51100000000E-03 0. -1.
         22    1    1    0    0    0 -0.27345562936E+02  0.69709800574E+01 -0.72611632099E+01  0.29139301062E+02  0.00000000000E+00 0. -1.
</event>
<event>
 5    1  0.8875601E-005  0.9118800E+02  0.7818608E-02  0.1130116E+00
         25   -1    0    0    0    0  0.00000000000E+00  0.00000000000E+00  0.99999998245E-14  0.12500000000E+03  0.12500000000E+03 0.  0.
        -11    1    3    3    0    0  0.33752050742E+02  0.11784426610E+02 -0.36106351025E+02  0.50810847507E+02  0.51100000000E-03 0. -1.
         23    2    1    0    0    0 -0.68796919694E+00  0.26401188992E+02 -0.21389123514E+02  0.91014846087E+02  0.84431697376E+02 0.  0.
         11    1    3    3    0    0 -0.34440019939E+02  0.14616762382E+02  0.14717227511E+02  0.40203998580E+02  0.51100000000E-03 0.  1.
         22    1    1    0    0    0  0.68796919694E+00 -0.26401188992E+02  0.21389123514E+02  0.33985153913E+02  0.00000000000E+00 0.  1.
</event>
<event>
 5    1  0.8875601E-005  0.9118800E+02  0.7818608E-02  0.1130116E+00
         25   -1    0    0    0    0  0.00000000000E+00  0.00000000000E+00  0.99999998245E-14  0.12500000000E+03  0.12500000000E+03 0.  0.
        -11    1    3    3    0    0  0.42709596905E+02 -0.18554356976E+02 -0.24983153396E+02  0.52844411099E+02  0.51100000000E-03 0.  1.
         23    2    1    0    0    0  0.18782989449E+02  0.16013187864E+02 -0.15215326050E+02  0.96004672359E+02  0.91521407821E+02 0.  0.
         11    1    3    3    0    0 -0.23926607455E+02  0.34567544841E+02  0.97678273460E+01  0.43160261259E+02  0.51100000000E-03 0. -1.
         22    1    1    0    0    0 -0.18782989449E+02 -0.16013187864E+02  0.15215326050E+02  0.28995327641E+02  0.00000000000E+00 0. -1.
</event>
<event>
 5    1  0.8875601E-005  0.9118800E+02  0.7818608E-02  0.1130116E+00
         25   -1    0    0    0    0  0.00000000000E+00  0.00000000000E+00  0.99999998245E-14  0.12500000000E+03  0.12500000000E+03 0.  0.
        -11    1    3    3    0    0 -0.15896945320E+02  0.21735349659E+02  0.22417239857E+02  0.35038135487E+02  0.51100000000E-03 0.  1.
         23    2    1    0    0    0  0.45342778371E+01 -0.53930374106E+01 -0.28166760773E+02  0.95965349314E+02  0.91467684613E+02 0.  0.
         11    1    3    3    0    0  0.20431223158E+02 -0.27128387070E+02 -0.50584000630E+02  0.60927213827E+02  0.51100000000E-03 0. -1.
         22    1    1    0    0    0 -0.45342778371E+01  0.53930374106E+01  0.28166760773E+02  0.29034650686E+02  0.00000000000E+00 0. -1.
</event>
<event>
 5    1  0.8875601E-005  0.9118800E+02  0.7818608E-02  0.1130116E+00
         25   -1    0    0    0    0  0.00000000000E+00  0.00000000000E+00  0.99999998245E-14  0.12500000000E+03  0.12500000000E+03 0.  0.
        -11    1    3    3    0    0  0.26219227012E+02 -0.52911225695E+02 -0.11523189008E+02  0.60165019362E+02  0.51100000000E-03 0.  1.
         23    2    1    0    0    0  0.12310510797E+01 -0.28100001525E+02 -0.89966144370E+01  0.95469259343E+02  0.90787195329E+02 0.  0.
         11    1    3    3    0    0 -0.24988175932E+02  0.24811224171E+02  0.25265745709E+01  0.35304239980E+02  0.51100000000E-03 0. -1.
         22    1    1    0    0    0 -0.12310510797E+01  0.28100001525E+02  0.89966144370E+01  0.29530740657E+02  0.00000000000E+00 0.  1.
</event>
<event>
 5    1  0.8875601E-005  0.9118800E+02  0.7818608E-02  0.1130116E+00
         25   -1    0    0    0    0  0.00000000000E+00  0.00000000000E+00  0.99999998245E-14  0.12500000000E+03  0.12500000000E+03 0.  0.
        -11    1    3    3    0    0  0.14882212477E+02 -0.28842586857E+02  0.10028817169E+02  0.33969872518E+02  0.51100000000E-03 0. -1.
         23    2    1    0    0    0 -0.17065203024E+02  0.63381577595E+01 -0.25757259700E+02  0.93459076975E+02  0.87975958328E+02 0.  0.
         11    1    3    3    0    0 -0.31947415501E+02  0.35180744616E+02 -0.35786076869E+02  0.59489204457E+02  0.51100000000E-03 0.  1.
         22    1    1    0    0    0  0.17065203024E+02 -0.63381577595E+01  0.25757259700E+02  0.31540923025E+02  0.00000000000E+00 0.  1.
</event>
<event>
 5    1  0.8875601E-005  0.9118800E+02  0.7818608E-02  0.1130116E+00
         25   -1    0    0    0    0  0.00000000000E+00  0.00000000000E+00  0.99999998245E-14  0.12500000000E+03  0.12500000000E+03 0.  0.
        -11    1    3    3    0    0  0.54234598721E+02  0.34287058115E+00 -0.27555303012E+02  0.60834233644E+02  0.51100000000E-03 0.  1.
         23    2    1    0    0    0  0.21333540915E+02  0.36667594879E+01 -0.21572474410E+02  0.94439621316E+02  0.89358297483E+02 0.  0.
         11    1    3    3    0    0 -0.32901057807E+02  0.33238889068E+01  0.59828286019E+01  0.33605387672E+02  0.51100000000E-03 0. -1.
         22    1    1    0    0    0 -0.21333540915E+02 -0.36667594879E+01  0.21572474410E+02  0.30560378684E+02  0.00000000000E+00 0.  1.
</event>
<event>
 5    1  0.8875601E-005  0.9118800E+02  0.7818608E-02  0.1130116E+00
         25   -1    0    0    0    0  0.00000000000E+00  0.00000000000E+00  0.99999998245E-14  0.12500000000E+03  0.12500000000E+03 0.  0.
        -11    1    3    3    0    0 -0.22654518913E+02  0.41284463608E+02 -0.38604345423E+02  0.60892771725E+02  0.51100000000E-03 0. -1.
         23    2    1    0    0    0 -0.16175359571E+02  0.19361780231E+02 -0.91828521256E+01  0.98151432736E+02  0.94407934963E+02 0.  0.
         11    1    3    3    0    0  0.64791593423E+01 -0.21922683377E+02  0.29421493297E+02  0.37258661011E+02  0.51100000000E-03 0.  1.
         22    1    1    0    0    0  0.16175359571E+02 -0.19361780231E+02  0.91828521256E+01  0.26848567264E+02  0.00000000000E+00 0. -1.
</event>
<event>
 5    1  0.8875601E-005  0.9118800E+02  0.7818608E-02  0.1130116E+00
         25   -1    0    0    0    0  0.00000000000E+00  0.00000000000E+00  0.99999998245E-14  0.12500000000E+03  0.12500000000E+03 0.  0.
        -11    1    3    3    0    0 -0.16382699880E+02  0.31693903720E+02 -0.29908201530E+01  0.35802812652E+02  0.51100000000E-03 0. -1.
         23    2    1    0    0    0 -0.98708317936E+01 -0.26906124941E+02  0.67333432975E+01  0.95560047697E+02  0.90912110988E+02 0.  0.
         11    1    3    3    0    0  0.65118680859E+01 -0.58600028661E+02  0.97241634505E+01  0.59757235045E+02  0.51100000000E-03 0.  1.
         22    1    1    0    0    0  0.98708317936E+01  0.26906124941E+02 -0.67333432975E+01  0.29439952303E+02  0.00000000000E+00 0.  1.
</event>
<event>
 5    1  0.8875601E-005  0.9118800E+02  0.7818608E-02  0.1130116E+00
         25   -1    0    0    0    0  0.00000000000E+00  0.00000000000E+00  0.99999998245E-14  0.12500000000E+03  0.12500000000E+03 0.  0.
        -11    1    3    3    0    0 -0.26079693265E+01 -0.30433844898E+02  0.18533427173E+02  0.35728256917E+02  0.51100000000E-03 0. -1.
         23    2    1    0    0    0  0.12488689945E+02  0.18889476587E+02 -0.15529132109E+02  0.97542147820E+02  0.93597740117E+02 0.  0.
         11    1    3    3    0    0  0.15096659271E+02  0.49323321485E+02 -0.34062559282E+02  0.61813890903E+02  0.51100000000E-03 0.  1.
         22    1    1    0    0    0 -0.12488689945E+02 -0.18889476587E+02  0.15529132109E+02  0.27457852180E+02  0.00000000000E+00 0.  1.
</event>
<event>
 5    1  0.8875601E-005  0.9118800E+02  0.7818608E-02  0.1130116E+00
         25   -1    0    0    0    0  0.00000000000E+00  0.00000000000E+00  0.99999998245E-14  0.12500000000E+03  0.12500000000E+03 0.  0.
        -11    1    3    3    0    0  0.26594670130E+02 -0.48030958169E+01  0.30079697225E+02  0.40436795053E+02  0.51100000000E-03 0.  1.
         23    2    1    0    0    0  0.10505878387E+02  0.31427020191E+02 -0.25290078366E+01  0.91767080185E+02  0.85538120428E+02 0.  0.
         11    1    3    3    0    0 -0.16088791743E+02  0.36230116008E+02 -0.32608705062E+02  0.51330285132E+02  0.51100000000E-03 0. -1.
         22    1    1    0    0    0 -0.10505878387E+02 -0.31427020191E+02  0.25290078366E+01  0.33232919815E+02  0.00000000000E+00 0. -1.
</event>
<event>
 5    1  0.8875601E-005  0.9118800E+02  0.7818608E-02  0.1130116E+00
         25   -1    0    0    0    0  0.00000000000E+00  0.00000000000E+00  0.99999998245E-14  0.12500000000E+03  0.12500000000E+03 0.  0.
        -11    1    3    3    0    0 -0.54875502299E+02  0.15990501009E+02 -0.50597890135E+01  0.57381341394E+02  0.51100000000E-03 0.  1.
         23    2    1    0    0    0 -0.18155541016E+02  0.21853275621E+02  0.55532641881E+01  0.96051285554E+02  0.91585050027E+02 0.  0.
         11    1    3    3    0    0  0.36719961283E+02  0.58627746121E+01  0.10613053202E+02  0.38669944159E+02  0.51100000000E-03 0. -1.
         22    1    1    0    0    0  0.18155541016E+02 -0.21853275621E+02 -0.55532641881E+01  0.28948714446E+02  0.00000000000E+00 0.  1.
</event>
<event>
 5    1  0.8875601E-005  0.9118800E+02  0.7818608E-02  0.1130116E+00
         25   -1    0    0    0    0  0.00000000000E+00  0.00000000000E+00  0.99999998245E-14  0.12500000000E+03  0.12500000000E+03 0.  0.
        -11    1    3    3    0    0 -0.15187513916E+02 -0.40353379624E+02  0.35736573030E+02  0.56001414966E+02  0.51100000000E-03 0. -1.
         23    2    1    0    0    0 -0.10313080427E+02 -0.16989330814E+01  0.27164777667E+02  0.95893795383E+02  0.91369846480E+02 0.  0.
         11    1    3    3    0    0  0.48744334891E+01  0.38654446542E+02 -0.85717953638E+01  0.39892380417E+02  0.51100000000E-03 0.  1.
         22    1    1    0    0    0  0.10313080427E+02  0.16989330814E+01 -0.27164777667E+02  0.29106204617E+02  0.00000000000E+00 0. -1.
</event>
<event>
 5    1  0.8875601E-005  0.9118800E+02  0.7818608E-02  0.1130116E+00
         25   -1    0    0    0    0  0.00000000000E+00  0.00000000000E+00  0.99999998245E-14  0.12500000000E+03  0.12500000000E+03 0.  0.
        -11    1    3    3    0    0 -0.46422653319E+02 -0.12429610509E+01  0.16052160078E+02  0.49135318630E+02  0.51100000000E-03 0. -1.
         23    2    1    0    0    0  0.88302640315E-01 -0.64809600510E+01  0.27024416405E+02  0.97209179167E+02  0.93151998324E+02 0.  0.
         11    1    3    3    0    0  0.46510955960E+02 -0.52379990001E+01  0.10972256326E+02  0.48073860537E+02  0.51100000000E-03 0.  1.
         22    1    1    0    0    0 -0.88302640315E-01  0.64809600510E+01 -0.27024416405E+02  0.27790820833E+02  0.00000000000E+00 0.  1.
</event>
<event>
 5    1  0.8875601E-005  0.9118800E+02  0.7818608E-02  0.1130116E+00
         25   -1    0    0    0    0  0.00000000000E+00  0.00000000000E+00  0.99999998245E-14  0.12500000000E+03  0.12500000000E+03 0.  0.
        -11    1    3    3    0    0  0.21006843970E+02 -0.97028271247E+00 -0.31253058777E+02  0.37669385784E+02  0.51100000000E-03 0. -1.
         23    2    1    0    0    0 -0.39865861547E+01  0.21307591509E+02  0.17725708799E+02  0.96998087967E+02  0.92868304559E+02 0.  0.
         11    1    3    3    0    0 -0.24993430124E+02  0.22277874222E+02  0.48978767576E+02  0.59328702183E+02  0.51100000000E-03 0.  1.
         22    1    1    0    0    0  0.39865861547E+01 -0.21307591509E+02 -0.17725708799E+02  0.28001912033E+02  0.00000000000E+00 0.  1.
</event>
<event>
 5    1  0.8875601E-005  0.9118800E+02  0.7818608E-02  0.1130116E+00
         25   -1    0    0    0    0  0.00000000000E+00  0.00000000000E+00  0.99999998245E-14  0.12500000000E+03  0.12500000000E+03 0.  0.
        -11    1    3    3    0    0 -0.51117360031E+01  0.32376807662E+02 -0.25928211234E+02  0.41793057526E+02  0.51100000000E-03 0.  1.
         23    2    1    0    0    0 -0.24437162910E+02 -0.13266067295E+02 -0.17704466404E+02  0.92036207693E+02  0.85930506360E+02 0.  0.
         11    1    3    3    0    0 -0.19325426907E+02 -0.45642874957E+02  0.82237448297E+01  0.50243150168E+02  0.51100000000E-03 0. -1.
         22    1    1    0    0    0  0.24437162910E+02  0.13266067295E+02  0.17704466404E+02  0.32963792307E+02  0.00000000000E+00 0. -1.
</event>
<event>
 5    1  0.8875601E-005  0.9118800E+02  0.7818608E-02  0.1130116E+00
         25   -1    0    0    0    0  0.00000000000E+00  0.00000000000E+00  0.99999998245E-14  0.12500000000E+03  0.12500000000E+03 0.  0.
        -11    1    3    3    0    0  0.21227489803E+02  0.38069548700E+02 -0.13854273339E+02  0.45736612812E+02  0.51100000000E-03 0.  1.
         23    2    1    0    0    0  0.21062796432E+02 -0.14055357008E+02 -0.91583566853E+01  0.98072877032E+02  0.94303866612E+02 0.  0.
         11    1    3    3    0    0 -0.16469337079E+00 -0.52124905708E+02  0.46959166540E+01  0.52336264219E+02  0.51100000000E-03 0. -1.
         22    1    1    0    0    0 -0.21062796432E+02  0.14055357008E+02  0.91583566853E+01  0.26927122968E+02  0.00000000000E+00 0. -1.
</event>
<event>
 5    1  0.8875601E-005  0.9118800E+02  0.7818608E-02  0.1130116E+00
         25   -1    0    0    0    0  0.00000000000E+00  0.00000000000E+00  0.99999998245E-14  0.12500000000E+03  0.12500000000E+03 0.  0.
        -11    1    3    3    0    0  0.54946117391E+02 -0.17117902415E+02  0.12840709466E+02  0.58965941180E+02  0.51100000000E-03 0.  1.
         23    2    1    0    0    0  0.21178960674E+02 -0.55011163119E+00  0.18339950127E+02  0.96978494531E+02  0.92841928205E+02 0.  0.
         11    1    3    3    0    0 -0.33767156716E+02  0.16567790784E+02  0.54992406609E+01  0.38012553351E+02  0.51100000000E-03 0. -1.
         22    1    1    0    0    0 -0.21178960674E+02  0.55011163119E+00 -0.18339950127E+02  0.28021505469E+02  0.00000000000E+00 0.  1.
</event>
<event>
 5    1  0.8875601E-005  0.9118800E+02  0.7818608E-02  0.1130116E+00
         25   -1    0    0    0    0  0.00000000000E+00  0.00000000000E+00  0.99999998245E-14  0.12500000000E+03  0.12500000000E+03 0.  0.
        -11    1    3    3    0    0 -0.38885154837E+02  0.12194159027E+02  0.43649883826E+02  0.59716539914E+02  0.51100000000E-03 0.  1.
         23    2    1    0    0    0 -0.22605411966E+02  0.15489361948E+02  0.12797372070E+02  0.94756030095E+02  0.89799819174E+02 0.  0.
         11    1    3    3    0    0  0.16279742871E+02  0.32952029206E+01 -0.30852511756E+02  0.35039490181E+02  0.51100000000E-03 0. -1.
         22    1    1    0    0    0  0.22605411966E+02 -0.15489361948E+02 -0.12797372070E+02  0.30243969905E+02  0.00000000000E+00 0.  1.
</event>
<event>
 5    1  0.8875601E-005  0.9118800E+02  0.7818608E-02  0.1130116E+00
         25   -1    0    0    0    0  0.00000000000E+00  0.00000000000E+00  0.99999998245E-14  0.12500000000E+03  0.12500000000E+03 0.  0.
        -11    1    3    3    0    0 -0.29741434895E+02 -0.25576757081E+02 -0.10484788681E+02  0.40603623562E+02  0.51100000000E-03 0. -1.
         23    2    1    0    0    0  0.45257001908E+00  0.18155798901E+02  0.16727536923E+02  0.10030894201E+03  0.97222607976E+02 0.  0.
         11    1    3    3    0    0  0.30194004914E+02  0.43732555982E+02  0.27212325603E+02  0.59705318444E+02  0.51100000000E-03 0.  1.
         22    1    1    0    0    0 -0.45257001908E+00 -0.18155798901E+02 -0.16727536923E+02  0.24691057994E+02  0.00000000000E+00 0.  1.
</event>
<event>
 5    1  0.8875601E-005  0.9118800E+02  0.7818608E-02  0.1130116E+00
         25   -1    0    0    0    0  0.00000000000E+00  0.00000000000E+00  0.99999998245E-14  0.12500000000E+03  0.12500000000E+03 0.  0.
        -11    1    3    3    0    0  0.24540457228E+02  0.27997710004E+00  0.26511229359E+02  0.36126966528E+02  0.51100000000E-03 0. -1.
         23    2    1    0    0    0 -0.17010105525E+02  0.20235717616E+02 -0.11787327083E+02  0.96055759862E+02  0.91591156590E+02 0.  0.
         11    1    3    3    0    0 -0.41550562753E+02  0.19955740516E+02 -0.38298556442E+02  0.59928793334E+02  0.51100000000E-03 0.  1.
         22    1    1    0    0    0  0.17010105525E+02 -0.20235717616E+02  0.11787327083E+02  0.28944240138E+02  0.00000000000E+00 0.  1.
</event>
<event>
 5    1  0.8875601E-005  0.9118800E+02  0.7818608E-02  0.1130116E+00
         25   -1    0    0    0    0  0.00000000000E+00  0.00000000000E+00  0.99999998245E-14  0.12500000000E+03  0.12500000000E+03 0.  0.
        -11    1    3    3    0    0 -0.31427090697E+02  0.38508146631E+02  0.41328380618E+01  0.49876043722E+02  0.51100000000E-03 0.  1.
         23    2    1    0    0    0 -0.31471643469E+02 -0.31910333211E+01 -0.60337162154E+01  0.92796696324E+02  0.87029731018E+02 0.  0.
         11    1    3    3    0    0 -0.44552772124E-01 -0.41699179952E+02 -0.10166554277E+02  0.42920652602E+02  0.51100000000E-03 0. -1.
         22    1    1    0    0    0  0.31471643469E+02  0.31910333211E+01  0.60337162154E+01  0.32203303676E+02  0.00000000000E+00 0. -1.
</event>
<event>
 5    1  0.8875601E-005  0.9118800E+02  0.7818608E-02  0.1130116E+00
         25   -1    0    0    0    0  0.00000000000E+00  0.00000000000E+00  0.99999998245E-14  0.12500000000E+03  0.12500000000E+03 0.  0.
        -11    1    3    3    0    0  0.26027736220E+02 -0.36518439380E+02 -0.10547133617E+02  0.46068226526E+02  0.51100000000E-03 0.  1.
         23    2    1    0    0    0 -0.77870291527E+01 -0.62897442632E+01 -0.28457826017E+02  0.94833021903E+02  0.89906926739E+02 0.  0.
         11    1    3    3    0    0 -0.33814765373E+02  0.30228695116E+02 -0.17910692399E+02  0.48764795377E+02  0.51100000000E-03 0. -1.
         22    1    1    0    0    0  0.77870291527E+01  0.62897442632E+01  0.28457826017E+02  0.30166978097E+02  0.00000000000E+00 0. -1.
</event>
<event>
 5    1  0.8875601E-005  0.9118800E+02  0.7818608E-02  0.1130116E+00
         25   -1    0    0    0    0  0.00000000000E+00  0.00000000000E+00  0.99999998245E-14  0.12500000000E+03  0.12500000000E+03 0.  0.
        -11    1    3    3    0    0  0.14782068587E+02  0.62817606584E+01 -0.40768156844E+02  0.43817949306E+02  0.51100000000E-03 0. -1.
         23    2    1    0    0    0  0.19893566004E+02 -0.20214915566E+02  0.42668659270E+01  0.96318944850E+02  0.91949639545E+02 0.  0.
         11    1    3    3    0    0  0.51114974174E+01 -0.26496676224E+02  0.45035022771E+02  0.52500995543E+02  0.51100000000E-03 0.  1.
         22    1    1    0    0    0 -0.19893566004E+02  0.20214915566E+02 -0.42668659270E+01  0.28681055150E+02  0.00000000000E+00 0.  1.
</event>
<event>
 5    1  0.8875601E-005  0.9118800E+02  0.7818608E-02  0.1130116E+00
         25   -1    0    0    0    0  0.00000000000E+00  0.00000000000E+00  0.99999998245E-14  0.12500000000E+03  0.12500000000E+03 0.  0.
        -11    1    3    3    0    0 -0.53484081729E+02 -0.50956772512E+01  0.10418483446E+02  0.54727120540E+02  0.51100000000E-03 0.  1.
         23    2    1    0    0    0 -0.22049151892E+02  0.18343727017E+02 -0.29772335357E+01  0.96163888272E+02  0.91738607293E+02 0.  0.
         11    1    3    3    0    0  0.31434929837E+02  0.23439404269E+02 -0.13395716982E+02  0.41436767732E+02  0.51100000000E-03 0. -1.
         22    1    1    0    0    0  0.22049151892E+02 -0.18343727017E+02  0.29772335357E+01  0.28836111728E+02  0.00000000000E+00 0.  1.
</event>
<event>
 5    1  0.8875601E-005  0.9118800E+02  0.7818608E-02  0.1130116E+00
         25   -1    0    0    0    0  0.00000000000E+00  0.00000000000E+00  0.99999998245E-14  0.12500000000E+03  0.12500000000E+03 0.  0.
        -11    1    3    3    0    0  0.27145106331E+02  0.25357724492E+02 -0.99077932239E+01  0.38445225398E+02  0.51100000000E-03 0. -1.
         23    2    1    0    0    0 -0.15193240718E+02  0.52812818326E+01  0.23875842372E+02  0.96211419794E+02  0.91803349332E+02 0.  0.
         11    1    3    3    0    0 -0.42338347049E+02 -0.20076442659E+02  0.33783635596E+02  0.57766194396E+02  0.51100000000E-03 0.  1.
         22    1    1    0    0    0  0.15193240718E+02 -0.52812818326E+01 -0.23875842372E+02  0.28788580206E+02  0.00000000000E+00 0.  1.
</event>
<event>
 5    1  0.8875601E-005  0.9118800E+02  0.7818608E-02  0.1130116E+00
         25   -1    0    0    0    0  0.00000000000E+00  0.00000000000E+00  0.99999998245E-14  0.12500000000E+03  0.12500000000E+03 0.  0.
        -11    1    3    3    0    0  0.13269809845E+02  0.21650103054E+02 -0.30255211637E+02  0.39499274006E+02  0.51100000000E-03 0. -1.
         23    2    1    0    0    0  0.19139795736E+02 -0.23438654305E+02  0.10799701585E+01  0.94720161295E+02  0.89749876455E+02 0.  0.
         11    1    3    3    0    0  0.58699858911E+01 -0.45088757359E+02  0.31335181795E+02  0.55220887289E+02  0.51100000000E-03 0.  1.
         22    1    1    0    0    0 -0.19139795736E+02  0.23438654305E+02 -0.10799701585E+01  0.30279838705E+02  0.00000000000E+00 0. -1.
</event>
<event>
 5    1  0.8875601E-005  0.9118800E+02  0.7818608E-02  0.1130116E+00
         25   -1    0    0    0    0  0.00000000000E+00  0.00000000000E+00  0.99999998245E-14  0.12500000000E+03  0.12500000000E+03 0.  0.
        -11    1    3    3    0    0  0.24082863173E+02  0.32650552504E+02 -0.20206413242E+02  0.45324849849E+02  0.51100000000E-03 0. -1.
         23    2    1    0    0    0 -0.11661224822E+01  0.32700899306E+02  0.15287560592E+02  0.88883270277E+02  0.81214638884E+02 0.  0.
         11    1    3    3    0    0 -0.25248985655E+02  0.50346801964E-01  0.35493973834E+02  0.43558420428E+02  0.51100000000E-03 0.  1.
         22    1    1    0    0    0  0.11661224822E+01 -0.32700899306E+02 -0.15287560592E+02  0.36116729723E+02  0.00000000000E+00 0. -1.
</event>
<event>
 5    1  0.8875601E-005  0.9118800E+02  0.7818608E-02  0.1130116E+00
         25   -1    0    0    0    0  0.00000000000E+00  0.00000000000E+00  0.99999998245E-14  0.12500000000E+03  0.12500000000E+03 0.  0.
        -11    1    3    3    0    0 -0.35579677250E+01  0.55131719089E+02  0.47339017473E+01  0.55448854002E+02  0.51100000000E-03 0. -1.
         23    2    1    0    0    0 -0.11026634203E+02  0.33076891612E+02 -0.16009658493E+02  0.86633652954E+02  0.77675049009E+02 0.  0.
         11    1    3    3    0    0 -0.74686664781E+01 -0.22054827477E+02 -0.20743560240E+02  0.31184798953E+02  0.51100000000E-03 0.  1.
         22    1    1    0    0    0  0.11026634203E+02 -0.33076891612E+02  0.16009658493E+02  0.38366347046E+02  0.00000000000E+00 0. -1.
</event>
<event>
 5    1  0.8875601E-005  0.9118800E+02  0.7818608E-02  0.1130116E+00
         25   -1    0    0    0    0  0.00000000000E+00  0.00000000000E+00  0.99999998245E-14  0.12500000000E+03  0.12500000000E+03 0.  0.
        -11    1    3    3    0    0  0.36522735809E+01 -0.97535433519E+01  0.55221499509E+02  0.56195059556E+02  0.51100000000E-03 0. -1.
         23    2    1    0    0    0 -0.57470939923E+00  0.15318006804E+02  0.24830670665E+02  0.95818947431E+02  0.91267392084E+02 0.  0.
         11    1    3    3    0    0 -0.42269829801E+01  0.25071550156E+02 -0.30390828843E+02  0.39623887875E+02  0.51100000000E-03 0.  1.
         22    1    1    0    0    0  0.57470939923E+00 -0.15318006804E+02 -0.24830670665E+02  0.29181052569E+02  0.00000000000E+00 0. -1.
</event>
<event>
 5    1  0.8875601E-005  0.9118800E+02  0.7818608E-02  0.1130116E+00
         25   -1    0    0    0    0  0.00000000000E+00  0.00000000000E+00  0.99999998245E-14  0.12500000000E+03  0.12500000000E+03 0.  0.
        -11    1    3    3    0    0  0.31611993665E+01 -0.49428403298E+02 -0.31606984619E+02  0.58755099447E+02  0.51100000000E-03 0.  1.
         23    2    1    0    0    0  0.94781107323E+01 -0.35938290095E+02 -0.75141477142E+01  0.87080905946E+02  0.78391494989E+02 0.  0.
         11    1    3    3    0    0  0.63169113657E+01  0.13490113204E+02  0.24092836905E+02  0.28325806499E+02  0.51100000000E-03 0. -1.
         22    1    1    0    0    0 -0.94781107323E+01  0.35938290095E+02  0.75141477142E+01  0.37919094054E+02  0.00000000000E+00 0.  1.
</event>
<event>
 5    1  0.8875601E-005  0.9118800E+02  0.7818608E-02  0.1130116E+00
         25   -1    0    0    0    0  0.00000000000E+00  0.00000000000E+00  0.99999998245E-14  0.12500000000E+03  0.12500000000E+03 0.  0.
        -11    1    3    3    0    0 -0.63626536819E+01 -0.51569511022E+02 -0.34571631212E+02  0.62410700315E+02  0.51100000000E-03 0.  1.
         23    2    1    0    0    0 -0.47593186777E+01 -0.24757876787E+02 -0.14764817470E+02  0.95783507873E+02  0.91218841082E+02 0.  0.
         11    1    3    3    0    0  0.16033350043E+01  0.26811634235E+02  0.19806813741E+02  0.33372807558E+02  0.51100000000E-03 0. -1.
         22    1    1    0    0    0  0.47593186777E+01  0.24757876787E+02  0.14764817470E+02  0.29216492127E+02  0.00000000000E+00 0.  1.
</event>
<event>
 5    1  0.8875601E-005  0.9118800E+02  0.7818608E-02  0.1130116E+00
         25   -1    0    0    0    0  0.00000000000E+00  0.00000000000E+00  0.99999998245E-14  0.12500000000E+03  0.12500000000E+03 0.  0.
        -11    1    3    3    0    0  0.21312075239E+02  0.39958410618E+02  0.27935823916E+02  0.53209861757E+02  0.51100000000E-03 0.  1.
         23    2    1    0    0    0  0.10807729890E+02  0.39549464289E+02 -0.99184836144E+00  0.83988405126E+02  0.73294619731E+02 0.  0.
         11    1    3    3    0    0 -0.10504345349E+02 -0.40894632863E+00 -0.28927672277E+02  0.30778543369E+02  0.51100000000E-03 0. -1.
         22    1    1    0    0    0 -0.10807729890E+02 -0.39549464289E+02  0.99184836144E+00  0.41011594874E+02  0.00000000000E+00 0.  1.
</event>
<event>
 5    1  0.8875601E-005  0.9118800E+02  0.7818608E-02  0.1130116E+00
         25   -1    0    0    0    0  0.00000000000E+00  0.00000000000E+00  0.99999998245E-14  0.12500000000E+03  0.12500000000E+03 0.  0.
        -11    1    3    3    0    0  0.17916197524E+00  0.44000426640E+02 -0.30936952928E+02  0.53788146466E+02  0.51100000000E-03 0.  1.
         23    2    1    0    0    0  0.15298579924E+02  0.42122112476E+01 -0.22955416485E+02  0.97094079171E+02  0.92997418205E+02 0.  0.
         11    1    3    3    0    0  0.15119417949E+02 -0.39788215392E+02  0.79815364427E+01  0.43305932705E+02  0.51100000000E-03 0. -1.
         22    1    1    0    0    0 -0.15298579924E+02 -0.42122112476E+01  0.22955416485E+02  0.27905920829E+02  0.00000000000E+00 0.  1.
</event>
<event>
 5    1  0.8875601E-005  0.9118800E+02  0.7818608E-02  0.1130116E+00
         25   -1    0    0    0    0  0.00000000000E+00  0.00000000000E+00  0.99999998245E-14  0.12500000000E+03  0.12500000000E+03 0.  0.
        -11    1    3    3    0    0 -0.27784253521E+02  0.46461285187E+01  0.18458843678E+02  0.33679076058E+02  0.51100000000E-03 0. -1.
         23    2    1    0    0    0  0.26026724749E+02 -0.21169758396E+01 -0.12415882067E+02  0.96085883804E+02  0.91632259336E+02 0.  0.
         11    1    3    3    0    0  0.53810978270E+02 -0.67631043583E+01 -0.30874725745E+02  0.62406807746E+02  0.51100000000E-03 0.  1.
         22    1    1    0    0    0 -0.26026724749E+02  0.21169758396E+01  0.12415882067E+02  0.28914116196E+02  0.00000000000E+00 0.  1.
</event>
<event>
 5    1  0.8875601E-005  0.9118800E+02  0.7818608E-02  0.1130116E+00
         25   -1    0    0    0    0  0.00000000000E+00  0.00000000000E+00  0.99999998245E-14  0.12500000000E+03  0.12500000000E+03 0.  0.
        -11    1    3    3    0    0  0.35069101249E+02  0.23553194617E+02  0.13442259491E+02  0.44331582191E+02  0.51100000000E-03 0.  1.
         23    2    1    0    0    0  0.14375567385E+02 -0.23244912208E+02  0.10936562101E+02  0.95562077659E+02  0.90914902049E+02 0.  0.
         11    1    3    3    0    0 -0.20693533864E+02 -0.46798106825E+02 -0.25056973898E+01  0.51230495468E+02  0.51100000000E-03 0. -1.
         22    1    1    0    0    0 -0.14375567385E+02  0.23244912208E+02 -0.10936562101E+02  0.29437922341E+02  0.00000000000E+00 0.  1.
</event>
<event>
 5    1  0.8875601E-005  0.9118800E+02  0.7818608E-02  0.1130116E+00
         25   -1    0    0    0    0  0.00000000000E+00  0.00000000000E+00  0.99999998245E-14  0.12500000000E+03  0.12500000000E+03 0.  0.
        -11    1    3    3    0    0  0.20779151005E+02  0.29441660531E+02 -0.26955265227E+02  0.45001897904E+02  0.51100000000E-03 0.  1.
         23    2    1    0    0    0 -0.21544992079E+01  0.24605518496E+02  0.17137703690E+02  0.94937160895E+02  0.90051597564E+02 0.  0.
         11    1    3    3    0    0 -0.22933650213E+02 -0.48361420353E+01  0.44092968916E+02  0.49935262991E+02  0.51100000000E-03 0. -1.
         22    1    1    0    0    0  0.21544992079E+01 -0.24605518496E+02 -0.17137703690E+02  0.30062839105E+02  0.00000000000E+00 0.  1.
</event>
<event>
 5    1  0.8875601E-005  0.9118800E+02  0.7818608E-02  0.1130116E+00
         25   -1    0    0    0    0  0.00000000000E+00  0.00000000000E+00  0.99999998245E-14  0.12500000000E+03  0.12500000000E+03 0.  0.
        -11    1    3    3    0    0  0.35767859641E+02 -0.92187780242E+01 -0.23568701044E+01  0.37011896581E+02  0.51100000000E-03 0.  1.
         23    2    1    0    0    0 -0.21029536579E+02 -0.11676923530E+02 -0.16789759676E+02  0.95665924562E+02  0.91057570473E+02 0.  0.
         11    1    3    3    0    0 -0.56797396220E+02 -0.24581455056E+01 -0.14432889571E+02  0.58654027981E+02  0.51100000000E-03 0. -1.
         22    1    1    0    0    0  0.21029536579E+02  0.11676923530E+02  0.16789759676E+02  0.29334075438E+02  0.00000000000E+00 0. -1.
</event>
<event>
 5    1  0.8875601E-005  0.9118800E+02  0.7818608E-02  0.1130116E+00
         25   -1    0    0    0    0  0.00000000000E+00  0.00000000000E+00  0.99999998245E-14  0.12500000000E+03  0.12500000000E+03 0.  0.
        -11    1    3    3    0    0 -0.32135198746E+02  0.11010223678E+02 -0.67091661052E+01  0.34625264389E+02  0.51100000000E-03 0.  1.
         23    2    1    0    0    0  0.28082945876E+02  0.10889443490E+00 -0.78760265899E+01  0.95833315205E+02  0.91287068094E+02 0.  0.
         11    1    3    3    0    0  0.60218144623E+02 -0.10901329243E+02 -0.11668604847E+01  0.61208050816E+02  0.51100000000E-03 0. -1.
         22    1    1    0    0    0 -0.28082945876E+02 -0.10889443490E+00  0.78760265899E+01  0.29166684795E+02  0.00000000000E+00 0. -1.
</event>
<event>
 5    1  0.8875601E-005  0.9118800E+02  0.7818608E-02  0.1130116E+00
         25   -1    0    0    0    0  0.00000000000E+00  0.00000000000E+00  0.99999998245E-14  0.12500000000E+03  0.12500000000E+03 0.  0.
        -11    1    3    3    0    0  0.32307030967E+02  0.46031264476E+02 -0.22433507293E+02  0.60546542501E+02  0.51100000000E-03 0.  1.
         23    2    1    0    0    0  0.22774210691E+02  0.14013009768E+02 -0.13043359049E+02  0.95248389444E+02  0.90482580429E+02 0.  0.
         11    1    3    3    0    0 -0.95328202759E+01 -0.32018254708E+02  0.93901482432E+01  0.34701846943E+02  0.51100000000E-03 0. -1.
         22    1    1    0    0    0 -0.22774210691E+02 -0.14013009768E+02  0.13043359049E+02  0.29751610556E+02  0.00000000000E+00 0.  1.
</event>
<event>
 5    1  0.8875601E-005  0.9118800E+02  0.7818608E-02  0.1130116E+00
         25   -1    0    0    0    0  0.00000000000E+00  0.00000000000E+00  0.99999998245E-14  0.12500000000E+03  0.12500000000E+03 0.  0.
        -11    1    3    3    0    0 -0.35447033433E+02  0.46282096368E+01 -0.96622017262E+01  0.37030671694E+02  0.51100000000E-03 0.  1.
         23    2    1    0    0    0  0.19869523096E+02 -0.15917143956E+02 -0.13535914702E+02  0.96166436109E+02  0.91742078826E+02 0.  0.
         11    1    3    3    0    0  0.55316556529E+02 -0.20545353593E+02 -0.38737129761E+01  0.59135764416E+02  0.51100000000E-03 0. -1.
         22    1    1    0    0    0 -0.19869523096E+02  0.15917143956E+02  0.13535914702E+02  0.28833563891E+02  0.00000000000E+00 0. -1.
</event>
<event>
 5    1  0.8875601E-005  0.9118800E+02  0.7818608E-02  0.1130116E+00
         25   -1    0    0    0    0  0.00000000000E+00  0.00000000000E+00  0.99999998245E-14  0.12500000000E+03  0.12500000000E+03 0.  0.
        -11    1    3    3    0    0 -0.22285180724E+02 -0.26833616494E+02  0.22005262881E+02  0.41242015576E+02  0.51100000000E-03 0. -1.
         23    2    1    0    0    0 -0.12979611302E+02 -0.19129270165E+00 -0.25436405588E+02  0.96442730668E+02  0.92117765208E+02 0.  0.
         11    1    3    3    0    0  0.93055694222E+01  0.26642323792E+02 -0.47441668469E+02  0.55200715092E+02  0.51100000000E-03 0.  1.
         22    1    1    0    0    0  0.12979611302E+02  0.19129270165E+00  0.25436405588E+02  0.28557269332E+02  0.00000000000E+00 0.  1.
</event>
<event>
 5    1  0.8875601E-005  0.9118800E+02  0.7818608E-02  0.1130116E+00
         25   -1    0    0    0    0  0.00000000000E+00  0.00000000000E+00  0.99999998245E-14  0.12500000000E+03  0.12500000000E+03 0.  0.
        -11    1    3    3    0    0 -0.31448190468E+02 -0.28602517710E+02 -0.32446634186E+02  0.53477815712E+02  0.51100000000E-03 0.  1.
         23    2    1    0    0    0 -0.20878345404E+02  0.94959878696E+01 -0.18925986671E+02  0.95263287608E+02  0.90503159624E+02 0.  0.
         11    1    3    3    0    0  0.10569845064E+02  0.38098505579E+02  0.13520647515E+02  0.41785471896E+02  0.51100000000E-03 0. -1.
         22    1    1    0    0    0  0.20878345404E+02 -0.94959878696E+01  0.18925986671E+02  0.29736712392E+02  0.00000000000E+00 0.  1.
</event>
<event>
 5    1  0.8875601E-005  0.9118800E+02  0.7818608E-02  0.1130116E+00
         25   -1    0    0    0    0  0.00000000000E+00  0.00000000000E+00  0.99999998245E-14  0.12500000000E+03  0.12500000000E+03 0.  0.
        -11    1    3    3    0    0  0.14441748992E+02  0.33401678324E+02 -0.16325273687E+01  0.36426657474E+02  0.51100000000E-03 0.  1.
         23    2    1    0    0    0  0.19062623812E+01 -0.15300220675E+02 -0.27870257703E+02  0.93149068249E+02  0.87534376460E+02 0.  0.
         11    1    3    3    0    0 -0.12535486611E+02 -0.48701899000E+02 -0.26237730335E+02  0.56722410775E+02  0.51100000000E-03 0. -1.
         22    1    1    0    0    0 -0.19062623812E+01  0.15300220675E+02  0.27870257703E+02  0.31850931751E+02  0.00000000000E+00 0. -1.
</event>
<event>
 5    1  0.8875601E-005  0.9118800E+02  0.7818608E-02  0.1130116E+00
         25   -1    0    0    0    0  0.00000000000E+00  0.00000000000E+00  0.99999998245E-14  0.12500000000E+03  0.12500000000E+03 0.  0.
        -11    1    3    3    0    0  0.23392980817E+02  0.54704993972E+02 -0.11152827982E+02  0.60533077645E+02  0.51100000000E-03 0.  1.
         23    2    1    0    0    0  0.10645902548E+02  0.22165526346E+02 -0.15776109345E+02  0.95784739855E+02  0.91220529289E+02 0.  0.
         11    1    3    3    0    0 -0.12747078269E+02 -0.32539467625E+02 -0.46232813628E+01  0.35251662210E+02  0.51100000000E-03 0. -1.
         22    1    1    0    0    0 -0.10645902548E+02 -0.22165526346E+02  0.15776109345E+02  0.29215260145E+02  0.00000000000E+00 0.  1.
</event>
<event>
 5    1  0.8875601E-005  0.9118800E+02  0.7818608E-02  0.1130116E+00
         25   -1    0    0    0    0  0.00000000000E+00  0.00000000000E+00  0.99999998245E-14  0.12500000000E+03  0.12500000000E+03 0.  0.
        -11    1    3    3    0    0  0.31299335203E+02 -0.11035538960E+02 -0.18482832258E+02  0.37987453098E+02  0.51100000000E-03 0. -1.
         23    2    1    0    0    0 -0.55725012658E+01 -0.94864023341E+01  0.26579753717E+02  0.96233215209E+02  0.91833021306E+02 0.  0.
         11    1    3    3    0    0 -0.36871836469E+02  0.15491366255E+01  0.45062585975E+02  0.58245762111E+02  0.51100000000E-03 0.  1.
         22    1    1    0    0    0  0.55725012658E+01  0.94864023341E+01 -0.26579753717E+02  0.28766784791E+02  0.00000000000E+00 0.  1.
</event>
<event>
 5    1  0.8875601E-005  0.9118800E+02  0.7818608E-02  0.1130116E+00
         25   -1    0    0    0    0  0.00000000000E+00  0.00000000000E+00  0.99999998245E-14  0.12500000000E+03  0.12500000000E+03 0.  0.
        -11    1    3    3    0    0 -0.18507993050E+02 -0.28635352990E+02  0.14485940819E+02  0.37045535888E+02  0.51100000000E-03 0.  1.
         23    2    1    0    0    0  0.10656745045E+02  0.38941709867E+01 -0.26014247639E+02  0.96619163810E+02  0.92356867381E+02 0.  0.
         11    1    3    3    0    0  0.29164738094E+02  0.32529523977E+02 -0.40500188459E+02  0.59573627921E+02  0.51100000000E-03 0. -1.
         22    1    1    0    0    0 -0.10656745045E+02 -0.38941709867E+01  0.26014247639E+02  0.28380836190E+02  0.00000000000E+00 0. -1.
</event>
<event>
 5    1  0.8875601E-005  0.9118800E+02  0.7818608E-02  0.1130116E+00
         25   -1    0    0    0    0  0.00000000000E+00  0.00000000000E+00  0.99999998245E-14  0.12500000000E+03  0.12500000000E+03 0.  0.
        -11    1    3    3    0    0 -0.91447519925E+01 -0.35545434628E+02 -0.64398132088E+01  0.37263596261E+02  0.51100000000E-03 0. -1.
         23    2    1    0    0    0  0.29904967628E+02  0.56988232079E+01  0.96324237765E+00  0.94541643008E+02  0.89500898051E+02 0.  0.
         11    1    3    3    0    0  0.39049719620E+02  0.41244257836E+02  0.74030555865E+01  0.57278046747E+02  0.51100000000E-03 0.  1.
         22    1    1    0    0    0 -0.29904967628E+02 -0.56988232079E+01 -0.96324237765E+00  0.30458356992E+02  0.00000000000E+00 0.  1.
</event>
<event>
 5    1  0.8875601E-005  0.9118800E+02  0.7818608E-02  0.1130116E+00
         25   -1    0    0    0    0  0.00000000000E+00  0.00000000000E+00  0.99999998245E-14  0.12500000000E+03  0.12500000000E+03 0.  0.
        -11    1    3    3    0    0  0.21980156602E+02 -0.35574421252E+02 -0.68385784002E+01  0.42372548737E+02  0.51100000000E-03 0.  1.
         23    2    1    0    0    0  0.22370449639E+02  0.15425889232E+02  0.99434148373E+01  0.96064441006E+02  0.91603003507E+02 0.  0.
         11    1    3    3    0    0  0.39029303718E+00  0.51000310484E+02  0.16781993237E+02  0.53691892269E+02  0.51100000000E-03 0. -1.
         22    1    1    0    0    0 -0.22370449639E+02 -0.15425889232E+02 -0.99434148373E+01  0.28935558994E+02  0.00000000000E+00 0.  1.
</event>
<event>
 5    1  0.8875601E-005  0.9118800E+02  0.7818608E-02  0.1130116E+00
         25   -1    0    0    0    0  0.00000000000E+00  0.00000000000E+00  0.99999998245E-14  0.12500000000E+03  0.12500000000E+03 0.  0.
        -11    1    3    3    0    0 -0.32655357182E+02 -0.10954862157E+02 -0.36398145740E+02  0.50111938409E+02  0.51100000000E-03 0.  1.
         23    2    1    0    0    0  0.11073611391E+02 -0.11136652794E+02 -0.25290394484E+02  0.95229982233E+02  0.90457147635E+02 0.  0.
         11    1    3    3    0    0  0.43728968573E+02 -0.18179063628E+00  0.11107751256E+02  0.45118043824E+02  0.51100000000E-03 0. -1.
         22    1    1    0    0    0 -0.11073611391E+02  0.11136652794E+02  0.25290394484E+02  0.29770017767E+02  0.00000000000E+00 0.  1.
</event>
<event>
 5    1  0.8875601E-005  0.9118800E+02  0.7818608E-02  0.1130116E+00
         25   -1    0    0    0    0  0.00000000000E+00  0.00000000000E+00  0.99999998245E-14  0.12500000000E+03  0.12500000000E+03 0.  0.
        -11    1    3    3    0    0  0.14631630970E+02 -0.31533974888E+02  0.10030389388E+02  0.36181278427E+02  0.51100000000E-03 0.  1.
         23    2    1    0    0    0 -0.10030478644E+02  0.95440623225E+01 -0.25603766266E+02  0.95892398339E+02  0.91367935211E+02 0.  0.
         11    1    3    3    0    0 -0.24662109614E+02  0.41078037211E+02 -0.35634155654E+02  0.59711119912E+02  0.51100000000E-03 0. -1.
         22    1    1    0    0    0  0.10030478644E+02 -0.95440623225E+01  0.25603766266E+02  0.29107601661E+02  0.00000000000E+00 0. -1.
</event>
<event>
 5    1  0.8875601E-005  0.9118800E+02  0.7818608E-02  0.1130116E+00
         25   -1    0    0    0    0  0.00000000000E+00  0.00000000000E+00  0.99999998245E-14  0.12500000000E+03  0.12500000000E+03 0.  0.
        -11    1    3    3    0    0 -0.42084485669E+01  0.15816743844E+02 -0.31644704665E+02  0.35626784289E+02  0.51100000000E-03 0.  1.
         23    2    1    0    0    0  0.14824488637E+02 -0.28014510783E+02  0.64430439286E+00  0.93298369034E+02  0.87747320520E+02 0.  0.
         11    1    3    3    0    0  0.19032937204E+02 -0.43831254627E+02  0.32289009058E+02  0.57671584745E+02  0.51100000000E-03 0. -1.
         22    1    1    0    0    0 -0.14824488637E+02  0.28014510783E+02 -0.64430439286E+00  0.31701630966E+02  0.00000000000E+00 0. -1.
</event>
<event>
 5    1  0.8875601E-005  0.9118800E+02  0.7818608E-02  0.1130116E+00
         25   -1    0    0    0    0  0.00000000000E+00  0.00000000000E+00  0.99999998245E-14  0.12500000000E+03  0.12500000000E+03 0.  0.
        -11    1    3    3    0    0  0.14633255677E+02 -0.49082489276E+02 -0.21457866411E+02  0.55530738843E+02  0.51100000000E-03 0.  1.
         23    2    1    0    0    0  0.25564360964E+02 -0.14204046470E+02 -0.12697278054E+02  0.93117209069E+02  0.87488869390E+02 0.  0.
         11    1    3    3    0    0  0.10931105287E+02  0.34878442807E+02  0.87605883578E+01  0.37586470226E+02  0.51100000000E-03 0. -1.
         22    1    1    0    0    0 -0.25564360964E+02  0.14204046470E+02  0.12697278054E+02  0.31882790931E+02  0.00000000000E+00 0.  1.
</event>
<event>
 5    1  0.8875601E-005  0.9118800E+02  0.7818608E-02  0.1130116E+00
         25   -1    0    0    0    0  0.00000000000E+00  0.00000000000E+00  0.99999998245E-14  0.12500000000E+03  0.12500000000E+03 0.  0.
        -11    1    3    3    0    0  0.53171991736E+01 -0.25122600487E+02 -0.33390638941E+02  0.42123062940E+02  0.51100000000E-03 0.  1.
         23    2    1    0    0    0 -0.27704804106E+02 -0.56789322272E+01  0.49023123770E+01  0.96297402409E+02  0.91920349229E+02 0.  0.
         11    1    3    3    0    0 -0.33022003280E+02  0.19443668259E+02  0.38292951318E+02  0.54174339469E+02  0.51100000000E-03 0. -1.
         22    1    1    0    0    0  0.27704804106E+02  0.56789322272E+01 -0.49023123770E+01  0.28702597591E+02  0.00000000000E+00 0.  1.
</event>
<event>
 5    1  0.8875601E-005  0.9118800E+02  0.7818608E-02  0.1130116E+00
         25   -1    0    0    0    0  0.00000000000E+00  0.00000000000E+00  0.99999998245E-14  0.12500000000E+03  0.12500000000E+03 0.  0.
        -11    1    3    3    0    0  0.19845080586E+02 -0.30202564969E+02 -0.23386697415E+01  0.36214520991E+02  0.51100000000E-03 0.  1.
         23    2    1    0    0    0  0.21479904663E+02  0.23147867752E+02  0.11563514714E+02  0.91370772261E+02  0.84957007158E+02 0.  0.
         11    1    3    3    0    0  0.16348240772E+01  0.53350432721E+02  0.13902184455E+02  0.55156251270E+02  0.51100000000E-03 0. -1.
         22    1    1    0    0    0 -0.21479904663E+02 -0.23147867752E+02 -0.11563514714E+02  0.33629227739E+02  0.00000000000E+00 0. -1.
</event>
<event>
 5    1  0.8875601E-005  0.9118800E+02  0.7818608E-02  0.1130116E+00
         25   -1    0    0    0    0  0.00000000000E+00  0.00000000000E+00  0.99999998245E-14  0.12500000000E+03  0.12500000000E+03 0.  0.
        -11    1    3    3    0    0  0.19972807938E+02 -0.21887629462E+02 -0.38688151048E+02  0.48731451981E+02  0.51100000000E-03 0.  1.
         23    2    1    0    0    0  0.29119134731E+02  0.34584923606E+01 -0.24820213520E+00  0.95675150790E+02  0.91070234970E+02 0.  0.
         11    1    3    3    0    0  0.91463267929E+01  0.25346121822E+02  0.38439948913E+02  0.46943698809E+02  0.51100000000E-03 0. -1.
         22    1    1    0    0    0 -0.29119134731E+02 -0.34584923606E+01  0.24820213520E+00  0.29324849210E+02  0.00000000000E+00 0.  1.
</event>
<event>
 5    1  0.8875601E-005  0.9118800E+02  0.7818608E-02  0.1130116E+00
         25   -1    0    0    0    0  0.00000000000E+00  0.00000000000E+00  0.99999998245E-14  0.12500000000E+03  0.12500000000E+03 0.  0.
        -11    1    3    3    0    0 -0.43110919306E+02  0.31455448181E+01  0.15835172049E+01  0.43254518175E+02  0.51100000000E-03 0.  1.
         23    2    1    0    0    0  0.37797773927E+01  0.69851085712E+01  0.27088832622E+02  0.96770878304E+02  0.92561976946E+02 0.  0.
         11    1    3    3    0    0  0.46890696698E+02  0.38395637531E+01  0.25505315417E+02  0.53516360129E+02  0.51100000000E-03 0. -1.
         22    1    1    0    0    0 -0.37797773927E+01 -0.69851085712E+01 -0.27088832622E+02  0.28229121696E+02  0.00000000000E+00 0.  1.
</event>
<event>
 5    1  0.8875601E-005  0.9118800E+02  0.7818608E-02  0.1130116E+00
         25   -1    0    0    0    0  0.00000000000E+00  0.00000000000E+00  0.99999998245E-14  0.12500000000E+03  0.12500000000E+03 0.  0.
        -11    1    3    3    0    0 -0.31264352395E+02  0.14402779033E+02  0.12493900244E+02  0.36619630230E+02  0.51100000000E-03 0.  1.
         23    2    1    0    0    0  0.84600774360E+01 -0.21947167186E+02 -0.15024617735E+02  0.97089604163E+02  0.92991403048E+02 0.  0.
         11    1    3    3    0    0  0.39724429831E+02 -0.36349946219E+02 -0.27518517979E+02  0.60469973934E+02  0.51100000000E-03 0. -1.
         22    1    1    0    0    0 -0.84600774360E+01  0.21947167186E+02  0.15024617735E+02  0.27910395837E+02  0.00000000000E+00 0. -1.
</event>
<event>
 5    1  0.8875601E-005  0.9118800E+02  0.7818608E-02  0.1130116E+00
         25   -1    0    0    0    0  0.00000000000E+00  0.00000000000E+00  0.99999998245E-14  0.12500000000E+03  0.12500000000E+03 0.  0.
        -11    1    3    3    0    0 -0.14844325876E+01  0.33025022201E+02  0.13048414200E+02  0.35540353753E+02  0.51100000000E-03 0.  1.
         23    2    1    0    0    0 -0.16489264238E+02 -0.24127560328E+02  0.70819556523E+01  0.94930262749E+02  0.90042021785E+02 0.  0.
         11    1    3    3    0    0 -0.15004831650E+02 -0.57152582530E+02 -0.59664585473E+01  0.59389908996E+02  0.51100000000E-03 0. -1.
         22    1    1    0    0    0  0.16489264238E+02  0.24127560328E+02 -0.70819556523E+01  0.30069737251E+02  0.00000000000E+00 0. -1.
</event>
<event>
 5    1  0.8875601E-005  0.9118800E+02  0.7818608E-02  0.1130116E+00
         25   -1    0    0    0    0  0.00000000000E+00  0.00000000000E+00  0.99999998245E-14  0.12500000000E+03  0.12500000000E+03 0.  0.
        -11    1    3    3    0    0 -0.14515217311E+02  0.38190891321E+02 -0.27245063417E+02  0.49107323225E+02  0.51100000000E-03 0. -1.
         23    2    1    0    0    0 -0.26162140179E+02  0.80536896572E+01  0.75642726258E+01  0.96600392323E+02  0.92331457699E+02 0.  0.
         11    1    3    3    0    0 -0.11646922869E+02 -0.30137201663E+02  0.34809336043E+02  0.47493069099E+02  0.51100000000E-03 0.  1.
         22    1    1    0    0    0  0.26162140179E+02 -0.80536896572E+01 -0.75642726258E+01  0.28399607677E+02  0.00000000000E+00 0. -1.
</event>
<event>
 5    1  0.8875601E-005  0.9118800E+02  0.7818608E-02  0.1130116E+00
         25   -1    0    0    0    0  0.00000000000E+00  0.00000000000E+00  0.99999998245E-14  0.12500000000E+03  0.12500000000E+03 0.  0.
        -11    1    3    3    0    0 -0.15964671184E+02 -0.77461440372E+01 -0.34188601381E+00  0.17747967765E+02  0.51100000000E-03 0.  1.
         23    2    1    0    0    0  0.22590979107E+02 -0.17757918816E+02 -0.41172942399E+02  0.74791363258E+02  0.55433210394E+02 0.  0.
         11    1    3    3    0    0  0.38555650292E+02 -0.10011774779E+02 -0.40831056385E+02  0.57043395493E+02  0.51100000000E-03 0. -1.
         22    1    1    0    0    0 -0.22590979107E+02  0.17757918816E+02  0.41172942399E+02  0.50208636742E+02  0.00000000000E+00 0. -1.
</event>
<event>
 5    1  0.8875601E-005  0.9118800E+02  0.7818608E-02  0.1130116E+00
         25   -1    0    0    0    0  0.00000000000E+00  0.00000000000E+00  0.99999998245E-14  0.12500000000E+03  0.12500000000E+03 0.  0.
        -11    1    3    3    0    0  0.17870431889E+02  0.32832420740E+02  0.33697117538E+01  0.37532321339E+02  0.51100000000E-03 0. -1.
         23    2    1    0    0    0  0.89149826029E+01 -0.14935911590E+02 -0.25553506221E+02  0.94088189150E+02  0.88865332315E+02 0.  0.
         11    1    3    3    0    0 -0.89554492860E+01 -0.47768332330E+02 -0.28923217975E+02  0.56555867811E+02  0.51100000000E-03 0.  1.
         22    1    1    0    0    0 -0.89149826029E+01  0.14935911590E+02  0.25553506221E+02  0.30911810850E+02  0.00000000000E+00 0.  1.
</event>
<event>
 5    1  0.8875601E-005  0.9118800E+02  0.7818608E-02  0.1130116E+00
         25   -1    0    0    0    0  0.00000000000E+00  0.00000000000E+00  0.99999998245E-14  0.12500000000E+03  0.12500000000E+03 0.  0.
        -11    1    3    3    0    0  0.51641581579E+01 -0.42923310023E+02 -0.54515656133E+01  0.43575206720E+02  0.51100000000E-03 0. -1.
         23    2    1    0    0    0  0.28638090854E+02 -0.11480516981E+02  0.17991894590E+02  0.89283746153E+02  0.81828702411E+02 0.  0.
         11    1    3    3    0    0  0.23473932696E+02  0.31442793042E+02  0.23443460204E+02  0.45708539433E+02  0.51100000000E-03 0.  1.
         22    1    1    0    0    0 -0.28638090854E+02  0.11480516981E+02 -0.17991894590E+02  0.35716253847E+02  0.00000000000E+00 0. -1.
</event>
<event>
 5    1  0.8875601E-005  0.9118800E+02  0.7818608E-02  0.1130116E+00
         25   -1    0    0    0    0  0.00000000000E+00  0.00000000000E+00  0.99999998245E-14  0.12500000000E+03  0.12500000000E+03 0.  0.
        -11    1    3    3    0    0 -0.37200263401E+02  0.27938365056E+02 -0.32986117001E+01  0.46640033003E+02  0.51100000000E-03 0.  1.
         23    2    1    0    0    0  0.10844516448E+02  0.27362071925E+02  0.41973486580E+01  0.95269472713E+02  0.90511701885E+02 0.  0.
         11    1    3    3    0    0  0.48044779849E+02 -0.57629313136E+00  0.74959603581E+01  0.48629439710E+02  0.51100000000E-03 0. -1.
         22    1    1    0    0    0 -0.10844516448E+02 -0.27362071925E+02 -0.41973486580E+01  0.29730527287E+02  0.00000000000E+00 0. -1.
</event>
<event>
 5    1  0.8875601E-005  0.9118800E+02  0.7818608E-02  0.1130116E+00
         25   -1    0    0    0    0  0.00000000000E+00  0.00000000000E+00  0.99999998245E-14  0.12500000000E+03  0.12500000000E+03 0.  0.
        -11    1    3    3    0    0 -0.11729348340E+02  0.33137137319E+02 -0.37350451958E+01  0.35349654101E+02  0.51100000000E-03 0.  1.
         23    2    1    0    0    0 -0.13383857320E+02 -0.25891158631E+02 -0.86291293712E+01  0.94603592223E+02  0.89587376654E+02 0.  0.
         11    1    3    3    0    0 -0.16545089800E+01 -0.59028295951E+02 -0.48940841754E+01  0.59253938122E+02  0.51100000000E-03 0. -1.
         22    1    1    0    0    0  0.13383857320E+02  0.25891158631E+02  0.86291293712E+01  0.30396407777E+02  0.00000000000E+00 0. -1.
</event>
<event>
 5    1  0.8875601E-005  0.9118800E+02  0.7818608E-02  0.1130116E+00
         25   -1    0    0    0    0  0.00000000000E+00  0.00000000000E+00  0.99999998245E-14  0.12500000000E+03  0.12500000000E+03 0.  0.
        -11    1    3    3    0    0  0.53758711760E+01  0.31583895515E+02  0.33611892303E+01  0.32213972747E+02  0.51100000000E-03 0.  1.
         23    2    1    0    0    0 -0.50094593208E+00 -0.27786897661E+02 -0.13346141192E+02  0.94170110068E+02  0.88980489531E+02 0.  0.
         11    1    3    3    0    0 -0.58768171081E+01 -0.59370793177E+02 -0.16707330422E+02  0.61956137322E+02  0.51100000000E-03 0. -1.
         22    1    1    0    0    0  0.50094593208E+00  0.27786897661E+02  0.13346141192E+02  0.30829889932E+02  0.00000000000E+00 0. -1.
</event>
<event>
 5    1  0.8875601E-005  0.9118800E+02  0.7818608E-02  0.1130116E+00
         25   -1    0    0    0    0  0.00000000000E+00  0.00000000000E+00  0.99999998245E-14  0.12500000000E+03  0.12500000000E+03 0.  0.
        -11    1    3    3    0    0  0.12098434388E+01 -0.48289229911E+02 -0.31193229761E+02  0.57500704602E+02  0.51100000000E-03 0. -1.
         23    2    1    0    0    0  0.59549129191E+01 -0.10094838903E+02 -0.26183035948E+02  0.96313450333E+02  0.91942169777E+02 0.  0.
         11    1    3    3    0    0  0.47450694804E+01  0.38194391008E+02  0.50101938134E+01  0.38812745731E+02  0.51100000000E-03 0.  1.
         22    1    1    0    0    0 -0.59549129191E+01  0.10094838903E+02  0.26183035948E+02  0.28686549667E+02  0.00000000000E+00 0. -1.
</event>
<event>
 5    1  0.8875601E-005  0.9118800E+02  0.7818608E-02  0.1130116E+00
         25   -1    0    0    0    0  0.00000000000E+00  0.00000000000E+00  0.99999998245E-14  0.12500000000E+03  0.12500000000E+03 0.  0.
        -11    1    3    3    0    0 -0.17110828327E+01  0.12424879174E+02 -0.37719274761E+02  0.39749831644E+02  0.51100000000E-03 0. -1.
         23    2    1    0    0    0  0.26389954362E+02 -0.14443403634E+02  0.13739999196E+01  0.94884730193E+02  0.89978789435E+02 0.  0.
         11    1    3    3    0    0  0.28101037195E+02 -0.26868282807E+02  0.39093274681E+02  0.55134898549E+02  0.51100000000E-03 0.  1.
         22    1    1    0    0    0 -0.26389954362E+02  0.14443403634E+02 -0.13739999196E+01  0.30115269807E+02  0.00000000000E+00 0.  1.
</event>
<event>
 5    1  0.8875601E-005  0.9118800E+02  0.7818608E-02  0.1130116E+00
         25   -1    0    0    0    0  0.00000000000E+00  0.00000000000E+00  0.99999998245E-14  0.12500000000E+03  0.12500000000E+03 0.  0.
        -11    1    3    3    0    0  0.13694960465E+02 -0.40508597837E+02 -0.44741284271E+02  0.61889263684E+02  0.51100000000E-03 0.  1.
         23    2    1    0    0    0  0.21665011759E+01 -0.15862719948E+02 -0.24209192049E+02  0.95975793014E+02  0.91481955890E+02 0.  0.
         11    1    3    3    0    0 -0.11528459289E+02  0.24645877889E+02  0.20532092222E+02  0.34086529330E+02  0.51100000000E-03 0. -1.
         22    1    1    0    0    0 -0.21665011759E+01  0.15862719948E+02  0.24209192049E+02  0.29024206986E+02  0.00000000000E+00 0.  1.
</event>
<event>
 5    1  0.8875601E-005  0.9118800E+02  0.7818608E-02  0.1130116E+00
         25   -1    0    0    0    0  0.00000000000E+00  0.00000000000E+00  0.99999998245E-14  0.12500000000E+03  0.12500000000E+03 0.  0.
        -11    1    3    3    0    0 -0.59133992242E+02 -0.77478868409E+01  0.12801299003E+02  0.60997803611E+02  0.51100000000E-03 0.  1.
         23    2    1    0    0    0 -0.26141084747E+02 -0.83691860762E+01 -0.26295350591E+01  0.97426207334E+02  0.93442773041E+02 0.  0.
         11    1    3    3    0    0  0.32992907495E+02 -0.62129923534E+00 -0.15430834062E+02  0.36428403723E+02  0.51100000000E-03 0. -1.
         22    1    1    0    0    0  0.26141084747E+02  0.83691860762E+01  0.26295350591E+01  0.27573792666E+02  0.00000000000E+00 0.  1.
</event>
<event>
 5    1  0.8875601E-005  0.9118800E+02  0.7818608E-02  0.1130116E+00
         25   -1    0    0    0    0  0.00000000000E+00  0.00000000000E+00  0.99999998245E-14  0.12500000000E+03  0.12500000000E+03 0.  0.
        -11    1    3    3    0    0 -0.34589676262E+02 -0.39576937195E+02  0.96491661144E+01  0.53440490910E+02  0.51100000000E-03 0.  1.
         23    2    1    0    0    0 -0.80346514489E-01 -0.28476643316E+02 -0.10177900786E+02  0.94759045410E+02  0.89804016349E+02 0.  0.
         11    1    3    3    0    0  0.34509329748E+02  0.11100293879E+02 -0.19827066901E+02  0.41318554500E+02  0.51100000000E-03 0. -1.
         22    1    1    0    0    0  0.80346514489E-01  0.28476643316E+02  0.10177900786E+02  0.30240954590E+02  0.00000000000E+00 0.  1.
</event>
<event>
 5    1  0.8875601E-005  0.9118800E+02  0.7818608E-02  0.1130116E+00
         25   -1    0    0    0    0  0.00000000000E+00  0.00000000000E+00  0.99999998245E-14  0.12500000000E+03  0.12500000000E+03 0.  0.
        -11    1    3    3    0    0 -0.43590405046E+02  0.83706885822E+00 -0.23259221323E+02  0.49414729314E+02  0.51100000000E-03 0.  1.
         23    2    1    0    0    0 -0.14970246443E+02 -0.25433569380E+02  0.14432451874E+01  0.95452450412E+02  0.90764049067E+02 0.  0.
         11    1    3    3    0    0  0.28620158603E+02 -0.26270638239E+02  0.24702466510E+02  0.46037721098E+02  0.51100000000E-03 0. -1.
         22    1    1    0    0    0  0.14970246443E+02  0.25433569380E+02 -0.14432451874E+01  0.29547549588E+02  0.00000000000E+00 0.  1.
</event>
<event>
 5    1  0.8875601E-005  0.9118800E+02  0.7818608E-02  0.1130116E+00
         25   -1    0    0    0    0  0.00000000000E+00  0.00000000000E+00  0.99999998245E-14  0.12500000000E+03  0.12500000000E+03 0.  0.
        -11    1    3    3    0    0  0.17142028024E+02  0.12762178705E+02  0.26245325156E+02  0.33845818396E+02  0.51100000000E-03 0.  1.
         23    2    1    0    0    0 -0.40612973915E+01 -0.48429785404E+01 -0.28858675252E+02  0.95457289987E+02  0.90770713871E+02 0.  0.
         11    1    3    3    0    0 -0.21203325415E+02 -0.17605157246E+02 -0.55104000408E+02  0.61611471591E+02  0.51100000000E-03 0. -1.
         22    1    1    0    0    0  0.40612973915E+01  0.48429785404E+01  0.28858675252E+02  0.29542710013E+02  0.00000000000E+00 0. -1.
</event>
<event>
 5    1  0.8875601E-005  0.9118800E+02  0.7818608E-02  0.1130116E+00
         25   -1    0    0    0    0  0.00000000000E+00  0.00000000000E+00  0.99999998245E-14  0.12500000000E+03  0.12500000000E+03 0.  0.
        -11    1    3    3    0    0 -0.16917412926E+02  0.31737625324E+02 -0.21458729153E+02  0.41880219417E+02  0.51100000000E-03 0.  1.
         23    2    1    0    0    0 -0.24469182828E+02 -0.17117280875E+02 -0.17903286656E+01  0.95084327025E+02  0.90255646672E+02 0.  0.
         11    1    3    3    0    0 -0.75517699016E+01 -0.48854906199E+02  0.19668400488E+02  0.53204107608E+02  0.51100000000E-03 0. -1.
         22    1    1    0    0    0  0.24469182828E+02  0.17117280875E+02  0.17903286656E+01  0.29915672975E+02  0.00000000000E+00 0. -1.
</event>
<event>
 5    1  0.8875601E-005  0.9118800E+02  0.7818608E-02  0.1130116E+00
         25   -1    0    0    0    0  0.00000000000E+00  0.00000000000E+00  0.99999998245E-14  0.12500000000E+03  0.12500000000E+03 0.  0.
        -11    1    3    3    0    0 -0.16000483935E+02  0.56828273364E+02  0.70836241604E+01  0.59461297254E+02  0.51100000000E-03 0.  1.
         23    2    1    0    0    0 -0.76132959065E+01  0.31068462161E+02 -0.99961742292E+01  0.91486791935E+02  0.85127539514E+02 0.  0.
         11    1    3    3    0    0  0.83871880287E+01 -0.25759811203E+02 -0.17079798390E+02  0.32025494680E+02  0.51100000000E-03 0. -1.
         22    1    1    0    0    0  0.76132959065E+01 -0.31068462161E+02  0.99961742292E+01  0.33513208065E+02  0.00000000000E+00 0.  1.
</event>
<event>
 5    1  0.8875601E-005  0.9118800E+02  0.7818608E-02  0.1130116E+00
         25   -1    0    0    0    0  0.00000000000E+00  0.00000000000E+00  0.99999998245E-14  0.12500000000E+03  0.12500000000E+03 0.  0.
        -11    1    3    3    0    0  0.73609235453E+01 -0.24859500073E+02 -0.23638837391E+02  0.35085218722E+02  0.51100000000E-03 0.  1.
         23    2    1    0    0    0  0.65747594207E+01  0.86863923841E+01  0.27029812179E+02  0.95857391665E+02  0.91320030203E+02 0.  0.
         11    1    3    3    0    0 -0.78616412460E+00  0.33545892457E+02  0.50668649570E+02  0.60772172944E+02  0.51100000000E-03 0. -1.
         22    1    1    0    0    0 -0.65747594207E+01 -0.86863923841E+01 -0.27029812179E+02  0.29142608335E+02  0.00000000000E+00 0. -1.
</event>
<event>
 5    1  0.8875601E-005  0.9118800E+02  0.7818608E-02  0.1130116E+00
         25   -1    0    0    0    0  0.00000000000E+00  0.00000000000E+00  0.99999998245E-14  0.12500000000E+03  0.12500000000E+03 0.  0.
        -11    1    3    3    0    0 -0.33107272986E+02  0.10784762834E+02  0.50006249134E+02  0.60934617310E+02  0.51100000000E-03 0. -1.
         23    2    1    0    0    0 -0.83886588994E+01 -0.18074805295E+00  0.27910408448E+02  0.95855649472E+02  0.91317645436E+02 0.  0.
         11    1    3    3    0    0  0.24718614086E+02 -0.10965510887E+02 -0.22095840686E+02  0.34921032162E+02  0.51100000000E-03 0.  1.
         22    1    1    0    0    0  0.83886588994E+01  0.18074805295E+00 -0.27910408448E+02  0.29144350528E+02  0.00000000000E+00 0. -1.
</event>
<event>
 5    1  0.8875601E-005  0.9118800E+02  0.7818608E-02  0.1130116E+00
         25   -1    0    0    0    0  0.00000000000E+00  0.00000000000E+00  0.99999998245E-14  0.12500000000E+03  0.12500000000E+03 0.  0.
        -11    1    3    3    0    0 -0.44282756460E+02  0.80832238516E+01 -0.41404313050E+01  0.45204471008E+02  0.51100000000E-03 0. -1.
         23    2    1    0    0    0 -0.90630336601E+01 -0.23682658768E+02  0.14059674007E+02  0.96005494682E+02  0.91522530945E+02 0.  0.
         11    1    3    3    0    0  0.35219722799E+02 -0.31765882620E+02  0.18200105312E+02  0.50801023674E+02  0.51100000000E-03 0.  1.
         22    1    1    0    0    0  0.90630336601E+01  0.23682658768E+02 -0.14059674007E+02  0.28994505318E+02  0.00000000000E+00 0.  1.
</event>
<event>
 5    1  0.8875601E-005  0.9118800E+02  0.7818608E-02  0.1130116E+00
         25   -1    0    0    0    0  0.00000000000E+00  0.00000000000E+00  0.99999998245E-14  0.12500000000E+03  0.12500000000E+03 0.  0.
        -11    1    3    3    0    0 -0.15909295536E+02 -0.20441852382E+02  0.26665271548E+02  0.37175418226E+02  0.51100000000E-03 0.  1.
         23    2    1    0    0    0 -0.12441125383E+02  0.35180365047E+01 -0.26456296629E+02  0.95553543287E+02  0.90903167281E+02 0.  0.
         11    1    3    3    0    0  0.34681701539E+01  0.23959888887E+02 -0.53121568178E+02  0.58378125061E+02  0.51100000000E-03 0. -1.
         22    1    1    0    0    0  0.12441125383E+02 -0.35180365047E+01  0.26456296629E+02  0.29446456713E+02  0.00000000000E+00 0. -1.
</event>
<event>
 5    1  0.8875601E-005  0.9118800E+02  0.7818608E-02  0.1130116E+00
         25   -1    0    0    0    0  0.00000000000E+00  0.00000000000E+00  0.99999998245E-14  0.12500000000E+03  0.12500000000E+03 0.  0.
        -11    1    3    3    0    0 -0.89324064870E+01  0.40649077593E+02 -0.13294702152E+02  0.43690782785E+02  0.51100000000E-03 0.  1.
         23    2    1    0    0    0 -0.19950115574E+02 -0.95159363147E+01 -0.19626877299E+02  0.95440323617E+02  0.90747346541E+02 0.  0.
         11    1    3    3    0    0 -0.11017709087E+02 -0.50165013908E+02 -0.63321751468E+01  0.51749540831E+02  0.51100000000E-03 0. -1.
         22    1    1    0    0    0  0.19950115574E+02  0.95159363147E+01  0.19626877299E+02  0.29559676383E+02  0.00000000000E+00 0. -1.
</event>
<event>
 5    1  0.8875601E-005  0.9118800E+02  0.7818608E-02  0.1130116E+00
         25   -1    0    0    0    0  0.00000000000E+00  0.00000000000E+00  0.99999998245E-14  0.12500000000E+03  0.12500000000E+03 0.  0.
        -11    1    3    3    0    0  0.16855840096E+02  0.44512333987E+02 -0.14134717075E+02  0.49651358988E+02  0.51100000000E-03 0.  1.
         23    2    1    0    0    0 -0.15023915942E+02  0.20724166916E+02  0.11463534536E+02  0.96953221778E+02  0.92807895377E+02 0.  0.
         11    1    3    3    0    0 -0.31879756038E+02 -0.23788167070E+02  0.25598251611E+02  0.47301862790E+02  0.51100000000E-03 0. -1.
         22    1    1    0    0    0  0.15023915942E+02 -0.20724166916E+02 -0.11463534536E+02  0.28046778222E+02  0.00000000000E+00 0. -1.
</event>
<event>
 5    1  0.8875601E-005  0.9118800E+02  0.7818608E-02  0.1130116E+00
         25   -1    0    0    0    0  0.00000000000E+00  0.00000000000E+00  0.99999998245E-14  0.12500000000E+03  0.12500000000E+03 0.  0.
        -11    1    3    3    0    0  0.58324772205E+01 -0.13040251317E+02 -0.52244149292E+02  0.54161952332E+02  0.51100000000E-03 0.  1.
         23    2    1    0    0    0  0.14907334458E+02  0.13181271238E+02 -0.18722433057E+02  0.97677774035E+02  0.93778694322E+02 0.  0.
         11    1    3    3    0    0  0.90748572375E+01  0.26221522554E+02  0.33521716235E+02  0.43515821703E+02  0.51100000000E-03 0. -1.
         22    1    1    0    0    0 -0.14907334458E+02 -0.13181271238E+02  0.18722433057E+02  0.27322225965E+02  0.00000000000E+00 0.  1.
</event>
<event>
 5    1  0.8875601E-005  0.9118800E+02  0.7818608E-02  0.1130116E+00
         25   -1    0    0    0    0  0.00000000000E+00  0.00000000000E+00  0.99999998245E-14  0.12500000000E+03  0.12500000000E+03 0.  0.
        -11    1    3    3    0    0 -0.10586446888E+02 -0.29415087928E+02  0.13795910734E+02  0.34170856132E+02  0.51100000000E-03 0.  1.
         23    2    1    0    0    0 -0.12333072090E+02  0.24418374092E+02 -0.13432584989E+02  0.94523845388E+02  0.89476037837E+02 0.  0.
         11    1    3    3    0    0 -0.17466252015E+01  0.53833462020E+02 -0.27228495722E+02  0.60352989257E+02  0.51100000000E-03 0. -1.
         22    1    1    0    0    0  0.12333072090E+02 -0.24418374092E+02  0.13432584989E+02  0.30476154612E+02  0.00000000000E+00 0. -1.
</event>
<event>
 5    1  0.8875601E-005  0.9118800E+02  0.7818608E-02  0.1130116E+00
         25   -1    0    0    0    0  0.00000000000E+00  0.00000000000E+00  0.99999998245E-14  0.12500000000E+03  0.12500000000E+03 0.  0.
        -11    1    3    3    0    0 -0.28621792177E+02  0.13894030804E+02  0.30608805738E+02  0.44149179702E+02  0.51100000000E-03 0. -1.
         23    2    1    0    0    0  0.17142154894E+02  0.10932495777E+00  0.28192057716E+02  0.92005189126E+02  0.85885372919E+02 0.  0.
         11    1    3    3    0    0  0.45763947070E+02 -0.13784705846E+02 -0.24167480214E+01  0.47856009424E+02  0.51100000000E-03 0.  1.
         22    1    1    0    0    0 -0.17142154894E+02 -0.10932495777E+00 -0.28192057716E+02  0.32994810874E+02  0.00000000000E+00 0. -1.
</event>
<event>
 5    1  0.8875601E-005  0.9118800E+02  0.7818608E-02  0.1130116E+00
         25   -1    0    0    0    0  0.00000000000E+00  0.00000000000E+00  0.99999998245E-14  0.12500000000E+03  0.12500000000E+03 0.  0.
        -11    1    3    3    0    0  0.32809181064E+02 -0.90660800413E+01 -0.99733893739E+01  0.35469771147E+02  0.51100000000E-03 0.  1.
         23    2    1    0    0    0 -0.26989098030E+02 -0.10966705658E+02 -0.25649543886E+01  0.95755187871E+02  0.91180025048E+02 0.  0.
         11    1    3    3    0    0 -0.59798279094E+02 -0.19006256168E+01  0.74084349853E+01  0.60285416723E+02  0.51100000000E-03 0. -1.
         22    1    1    0    0    0  0.26989098030E+02  0.10966705658E+02  0.25649543886E+01  0.29244812129E+02  0.00000000000E+00 0. -1.
</event>
<event>
 5    1  0.8875601E-005  0.9118800E+02  0.7818608E-02  0.1130116E+00
         25   -1    0    0    0    0  0.00000000000E+00  0.00000000000E+00  0.99999998245E-14  0.12500000000E+03  0.12500000000E+03 0.  0.
        -11    1    3    3    0    0  0.19593638173E+02  0.25495558354E+02  0.45759743067E+02  0.55927526661E+02  0.51100000000E-03 0. -1.
         23    2    1    0    0    0  0.29797742777E+02  0.14029508338E+02  0.18465803675E+02  0.87241312468E+02  0.78646857006E+02 0.  0.
         11    1    3    3    0    0  0.10204104604E+02 -0.11466050016E+02 -0.27293939392E+02  0.31313785806E+02  0.51100000000E-03 0.  1.
         22    1    1    0    0    0 -0.29797742777E+02 -0.14029508338E+02 -0.18465803675E+02  0.37758687532E+02  0.00000000000E+00 0. -1.
</event>
<event>
 4    1  0.8875601E-005  0.9118800E+02  0.7818608E-02  0.1130116E+00
         25   -1    0    0    0    0  0.00000000000E+00  0.00000000000E+00  0.99999998245E-14  0.12500000000E+03  0.12500000000E+03 0.  0.
        -11    1    1    0    0    0  0.34572078185E+02  0.26227675698E+02  0.38109860987E+02  0.57753623846E+02  0.51100000000E-03 0.  1.
         11    1    1    0    0    0 -0.14119832547E+01 -0.15131896857E+02  0.43511784182E+00  0.15203858951E+02  0.51100000000E-03 0. -1.
         22    1    1    0    0    0 -0.33160094931E+02 -0.11095778841E+02 -0.38544978829E+02  0.52042517203E+02  0.00000000000E+00 0.  1.
</event>
<event>
 5    1  0.8875601E-005  0.9118800E+02  0.7818608E-02  0.1130116E+00
         25   -1    0    0    0    0  0.00000000000E+00  0.00000000000E+00  0.99999998245E-14  0.12500000000E+03  0.12500000000E+03 0.  0.
        -11    1    3    3    0    0  0.56528957182E+02 -0.14124427762E+02 -0.14077120634E+02  0.59943204663E+02  0.51100000000E-03 0.  1.
         23    2    1    0    0    0  0.21533115366E+02 -0.17689993233E+02 -0.10161388163E+02  0.95337486159E+02  0.90605582277E+02 0.  0.
         11    1    3    3    0    0 -0.34995841816E+02 -0.35655654716E+01  0.39157324714E+01  0.35394281496E+02  0.51100000000E-03 0. -1.
         22    1    1    0    0    0 -0.21533115366E+02  0.17689993233E+02  0.10161388163E+02  0.29662513841E+02  0.00000000000E+00 0.  1.
</event>
<event>
 5    1  0.8875601E-005  0.9118800E+02  0.7818608E-02  0.1130116E+00
         25   -1    0    0    0    0  0.00000000000E+00  0.00000000000E+00  0.99999998245E-14  0.12500000000E+03  0.12500000000E+03 0.  0.
        -11    1    3    3    0    0 -0.31951822489E+02 -0.75171392346E+01 -0.33094244954E+02  0.46611751651E+02  0.51100000000E-03 0.  1.
         23    2    1    0    0    0 -0.95377167437E+01 -0.27466329645E+02  0.54086152515E+01  0.95426017789E+02  0.90727638828E+02 0.  0.
         11    1    3    3    0    0  0.22414105745E+02 -0.19949190410E+02  0.38502860205E+02  0.48814266139E+02  0.51100000000E-03 0. -1.
         22    1    1    0    0    0  0.95377167437E+01  0.27466329645E+02 -0.54086152515E+01  0.29573982211E+02  0.00000000000E+00 0. -1.
</event>
<event>
 5    1  0.8875601E-005  0.9118800E+02  0.7818608E-02  0.1130116E+00
         25   -1    0    0    0    0  0.00000000000E+00  0.00000000000E+00  0.99999998245E-14  0.12500000000E+03  0.12500000000E+03 0.  0.
        -11    1    3    3    0    0  0.40536040065E+02  0.32753890462E+02  0.14293684761E+02  0.54039775248E+02  0.51100000000E-03 0.  1.
         23    2    1    0    0    0  0.84509968547E+01  0.25512391871E+02 -0.11428585519E+02  0.95795307676E+02  0.91235009283E+02 0.  0.
         11    1    3    3    0    0 -0.32085043211E+02 -0.72414985918E+01 -0.25722270280E+02  0.41755532427E+02  0.51100000000E-03 0. -1.
         22    1    1    0    0    0 -0.84509968547E+01 -0.25512391871E+02  0.11428585519E+02  0.29204692324E+02  0.00000000000E+00 0.  1.
</event>
<event>
 5    1  0.8875601E-005  0.9118800E+02  0.7818608E-02  0.1130116E+00
         25   -1    0    0    0    0  0.00000000000E+00  0.00000000000E+00  0.99999998245E-14  0.12500000000E+03  0.12500000000E+03 0.  0.
        -11    1    3    3    0    0 -0.28932582460E+02 -0.31215269971E+01  0.46520053634E+02  0.54872157320E+02  0.51100000000E-03 0. -1.
         23    2    1    0    0    0  0.30440755599E+01 -0.16332743836E+02  0.22667881911E+02  0.96895591314E+02  0.92730242255E+02 0.  0.
         11    1    3    3    0    0  0.31976658020E+02 -0.13211216839E+02 -0.23852171723E+02  0.42023433994E+02  0.51100000000E-03 0.  1.
         22    1    1    0    0    0 -0.30440755599E+01  0.16332743836E+02 -0.22667881911E+02  0.28104408686E+02  0.00000000000E+00 0. -1.
</event>
<event>
 5    1  0.8875601E-005  0.9118800E+02  0.7818608E-02  0.1130116E+00
         25   -1    0    0    0    0  0.00000000000E+00  0.00000000000E+00  0.99999998245E-14  0.12500000000E+03  0.12500000000E+03 0.  0.
        -11    1    3    3    0    0  0.13274020801E+02  0.44264848947E+02  0.17655339621E+02  0.49470066686E+02  0.51100000000E-03 0. -1.
         23    2    1    0    0    0  0.39397447391E+01  0.28403577336E+01  0.30720675923E+02  0.93897762945E+02  0.88597069569E+02 0.  0.
         11    1    3    3    0    0 -0.93342760620E+01 -0.41424491213E+02  0.13065336303E+02  0.44427696259E+02  0.51100000000E-03 0.  1.
         22    1    1    0    0    0 -0.39397447391E+01 -0.28403577336E+01 -0.30720675923E+02  0.31102237055E+02  0.00000000000E+00 0. -1.
</event>
<event>
 5    1  0.8875601E-005  0.9118800E+02  0.7818608E-02  0.1130116E+00
         25   -1    0    0    0    0  0.00000000000E+00  0.00000000000E+00  0.99999998245E-14  0.12500000000E+03  0.12500000000E+03 0.  0.
        -11    1    3    3    0    0 -0.27522412777E+02  0.11517820685E+02  0.34165593181E+02  0.45358914846E+02  0.51100000000E-03 0. -1.
         23    2    1    0    0    0  0.20263942082E+02  0.12661374626E+02  0.14529003170E+02  0.97035206255E+02  0.92918252048E+02 0.  0.
         11    1    3    3    0    0  0.47786354858E+02  0.11435539405E+01 -0.19636590011E+02  0.51676291409E+02  0.51100000000E-03 0.  1.
         22    1    1    0    0    0 -0.20263942082E+02 -0.12661374626E+02 -0.14529003170E+02  0.27964793745E+02  0.00000000000E+00 0.  1.
</event>
<event>
 5    1  0.8875601E-005  0.9118800E+02  0.7818608E-02  0.1130116E+00
         25   -1    0    0    0    0  0.00000000000E+00  0.00000000000E+00  0.99999998245E-14  0.12500000000E+03  0.12500000000E+03 0.  0.
        -11    1    3    3    0    0  0.22013119341E+02 -0.27984353952E+02 -0.24106225959E+02  0.42997809473E+02  0.51100000000E-03 0.  1.
         23    2    1    0    0    0  0.20572934452E+01  0.19663691964E+02  0.78346683136E+01  0.10373323566E+03  0.10152984248E+03 0.  0.
         11    1    3    3    0    0 -0.19955825896E+02  0.47648045916E+02  0.31940894272E+02  0.60735426186E+02  0.51100000000E-03 0. -1.
         22    1    1    0    0    0 -0.20572934452E+01 -0.19663691964E+02 -0.78346683136E+01  0.21266764342E+02  0.00000000000E+00 0.  1.
</event>
<event>
 5    1  0.8875601E-005  0.9118800E+02  0.7818608E-02  0.1130116E+00
         25   -1    0    0    0    0  0.00000000000E+00  0.00000000000E+00  0.99999998245E-14  0.12500000000E+03  0.12500000000E+03 0.  0.
        -11    1    3    3    0    0 -0.25632928289E+02  0.52018805839E+01  0.48016031254E+02  0.54677653863E+02  0.51100000000E-03 0.  1.
         23    2    1    0    0    0  0.97068602244E+00 -0.14267491807E+02  0.28822781497E+02  0.92824601214E+02  0.87069801329E+02 0.  0.
         11    1    3    3    0    0  0.26603614311E+02 -0.19469372391E+02 -0.19193249757E+02  0.38146947351E+02  0.51100000000E-03 0. -1.
         22    1    1    0    0    0 -0.97068602244E+00  0.14267491807E+02 -0.28822781497E+02  0.32175398786E+02  0.00000000000E+00 0.  1.
</event>
<event>
 5    1  0.8875601E-005  0.9118800E+02  0.7818608E-02  0.1130116E+00
         25   -1    0    0    0    0  0.00000000000E+00  0.00000000000E+00  0.99999998245E-14  0.12500000000E+03  0.12500000000E+03 0.  0.
        -11    1    3    3    0    0 -0.65326524328E+01  0.26803147058E+02 -0.34575818337E+02  0.44233148813E+02  0.51100000000E-03 0. -1.
         23    2    1    0    0    0 -0.29237058699E+02 -0.79426020855E+01 -0.75031964699E+01  0.93788007328E+02  0.88442081794E+02 0.  0.
         11    1    3    3    0    0 -0.22704406266E+02 -0.34745749144E+02  0.27072621867E+02  0.49554858515E+02  0.51100000000E-03 0.  1.
         22    1    1    0    0    0  0.29237058699E+02  0.79426020855E+01  0.75031964699E+01  0.31211992672E+02  0.00000000000E+00 0.  1.
</event>
<event>
 5    1  0.8875601E-005  0.9118800E+02  0.7818608E-02  0.1130116E+00
         25   -1    0    0    0    0  0.00000000000E+00  0.00000000000E+00  0.99999998245E-14  0.12500000000E+03  0.12500000000E+03 0.  0.
        -11    1    3    3    0    0 -0.12054517736E+02  0.29231831365E+02  0.22252962744E+02  0.38665303748E+02  0.51100000000E-03 0.  1.
         23    2    1    0    0    0 -0.18496574324E+02 -0.17686526921E+02 -0.11622957057E+02  0.96892534319E+02  0.92726121346E+02 0.  0.
         11    1    3    3    0    0 -0.64420565881E+01 -0.46918358285E+02 -0.33875919802E+02  0.58227230571E+02  0.51100000000E-03 0. -1.
         22    1    1    0    0    0  0.18496574324E+02  0.17686526921E+02  0.11622957057E+02  0.28107465681E+02  0.00000000000E+00 0. -1.
</event>
<event>
 5    1  0.8875601E-005  0.9118800E+02  0.7818608E-02  0.1130116E+00
         25   -1    0    0    0    0  0.00000000000E+00  0.00000000000E+00  0.99999998245E-14  0.12500000000E+03  0.12500000000E+03 0.  0.
        -11    1    3    3    0    0 -0.42050000918E+02  0.33744073398E+02  0.62150907844E+01  0.54272390959E+02  0.51100000000E-03 0.  1.
         23    2    1    0    0    0 -0.30099374861E+02  0.23991633634E+02 -0.17623459104E+02  0.82666122759E+02  0.71003737154E+02 0.  0.
         11    1    3    3    0    0  0.11950626057E+02 -0.97524397642E+01 -0.23838549888E+02  0.28393731800E+02  0.51100000000E-03 0. -1.
         22    1    1    0    0    0  0.30099374861E+02 -0.23991633634E+02  0.17623459104E+02  0.42333877241E+02  0.00000000000E+00 0.  1.
</event>
<event>
 5    1  0.8875601E-005  0.9118800E+02  0.7818608E-02  0.1130116E+00
         25   -1    0    0    0    0  0.00000000000E+00  0.00000000000E+00  0.99999998245E-14  0.12500000000E+03  0.12500000000E+03 0.  0.
        -11    1    3    3    0    0 -0.37759870029E+02 -0.76205068598E+01 -0.38461711875E+01  0.38712697432E+02  0.51100000000E-03 0.  1.
         23    2    1    0    0    0  0.18827208077E+02 -0.19701794011E+02  0.51389673312E+01  0.97268547885E+02  0.93231630744E+02 0.  0.
         11    1    3    3    0    0  0.56587078106E+02 -0.12081287151E+02  0.89851385188E+01  0.58555850452E+02  0.51100000000E-03 0. -1.
         22    1    1    0    0    0 -0.18827208077E+02  0.19701794011E+02 -0.51389673312E+01  0.27731452115E+02  0.00000000000E+00 0. -1.
</event>
<event>
 5    1  0.8875601E-005  0.9118800E+02  0.7818608E-02  0.1130116E+00
         25   -1    0    0    0    0  0.00000000000E+00  0.00000000000E+00  0.99999998245E-14  0.12500000000E+03  0.12500000000E+03 0.  0.
        -11    1    3    3    0    0  0.18045062920E+02  0.40992336824E+02 -0.83649568780E+01  0.45562797081E+02  0.51100000000E-03 0.  1.
         23    2    1    0    0    0 -0.14630473211E+02  0.14798375212E+02  0.19995408250E+02  0.96140703294E+02  0.91707010765E+02 0.  0.
         11    1    3    3    0    0 -0.32675536131E+02 -0.26193961612E+02  0.28360365128E+02  0.50577906212E+02  0.51100000000E-03 0. -1.
         22    1    1    0    0    0  0.14630473211E+02 -0.14798375212E+02 -0.19995408250E+02  0.28859296706E+02  0.00000000000E+00 0.  1.
</event>
<event>
 5    1  0.8875601E-005  0.9118800E+02  0.7818608E-02  0.1130116E+00
         25   -1    0    0    0    0  0.00000000000E+00  0.00000000000E+00  0.99999998245E-14  0.12500000000E+03  0.12500000000E+03 0.  0.
        -11    1    3    3    0    0  0.17612275184E+02  0.34704375866E+02  0.37876967155E+02  0.54307003070E+02  0.51100000000E-03 0.  1.
         23    2    1    0    0    0 -0.13854317773E+02  0.11123261936E+02  0.22020512337E+02  0.96705618214E+02  0.92473804688E+02 0.  0.
         11    1    3    3    0    0 -0.31466592957E+02 -0.23581113930E+02 -0.15856454818E+02  0.42398615144E+02  0.51100000000E-03 0. -1.
         22    1    1    0    0    0  0.13854317773E+02 -0.11123261936E+02 -0.22020512337E+02  0.28294381786E+02  0.00000000000E+00 0.  1.
</event>
<event>
 5    1  0.8875601E-005  0.9118800E+02  0.7818608E-02  0.1130116E+00
         25   -1    0    0    0    0  0.00000000000E+00  0.00000000000E+00  0.99999998245E-14  0.12500000000E+03  0.12500000000E+03 0.  0.
        -11    1    3    3    0    0 -0.21938913048E+02  0.75641801104E+01  0.56479651967E+02  0.61061311917E+02  0.51100000000E-03 0. -1.
         23    2    1    0    0    0  0.29252710232E+00  0.41421607031E+01  0.24448655135E+02  0.10020121363E+03  0.97084001813E+02 0.  0.
         11    1    3    3    0    0  0.22231440150E+02 -0.34220194072E+01 -0.32030996832E+02  0.39139901715E+02  0.51100000000E-03 0.  1.
         22    1    1    0    0    0 -0.29252710232E+00 -0.41421607031E+01 -0.24448655135E+02  0.24798786368E+02  0.00000000000E+00 0. -1.
</event>
<event>
 5    1  0.8875601E-005  0.9118800E+02  0.7818608E-02  0.1130116E+00
         25   -1    0    0    0    0  0.00000000000E+00  0.00000000000E+00  0.99999998245E-14  0.12500000000E+03  0.12500000000E+03 0.  0.
        -11    1    3    3    0    0  0.28944437407E+02  0.18802010768E+02 -0.17258880413E+02  0.38589700946E+02  0.51100000000E-03 0.  1.
         23    2    1    0    0    0 -0.21365719930E+02  0.16901826119E+02  0.10167884992E+02  0.95921630041E+02  0.91407918203E+02 0.  0.
         11    1    3    3    0    0 -0.50310157336E+02 -0.19001846491E+01  0.27426765405E+02  0.57331929095E+02  0.51100000000E-03 0. -1.
         22    1    1    0    0    0  0.21365719930E+02 -0.16901826119E+02 -0.10167884992E+02  0.29078369959E+02  0.00000000000E+00 0. -1.
</event>
<event>
 5    1  0.8875601E-005  0.9118800E+02  0.7818608E-02  0.1130116E+00
         25   -1    0    0    0    0  0.00000000000E+00  0.00000000000E+00  0.99999998245E-14  0.12500000000E+03  0.12500000000E+03 0.  0.
        -11    1    3    3    0    0  0.17425682757E+02 -0.27339245553E+01  0.46353971665E+02  0.49596566942E+02  0.51100000000E-03 0. -1.
         23    2    1    0    0    0 -0.19354512157E+02 -0.10017191186E+02  0.19943462814E+02  0.95458792017E+02  0.90772782288E+02 0.  0.
         11    1    3    3    0    0 -0.36780194914E+02 -0.72832666310E+01 -0.26410508852E+02  0.45862225075E+02  0.51100000000E-03 0.  1.
         22    1    1    0    0    0  0.19354512157E+02  0.10017191186E+02 -0.19943462814E+02  0.29541207983E+02  0.00000000000E+00 0. -1.
</event>
<event>
 5    1  0.8875601E-005  0.9118800E+02  0.7818608E-02  0.1130116E+00
         25   -1    0    0    0    0  0.00000000000E+00  0.00000000000E+00  0.99999998245E-14  0.12500000000E+03  0.12500000000E+03 0.  0.
        -11    1    3    3    0    0  0.30082921304E+02 -0.23673675707E+02  0.21494942237E+02  0.43902820157E+02  0.51100000000E-03 0. -1.
         23    2    1    0    0    0  0.17341159208E+02 -0.10973362642E+02 -0.24352676206E+02  0.93153754873E+02  0.87541068752E+02 0.  0.
         11    1    3    3    0    0 -0.12741762096E+02  0.12700313066E+02 -0.45847618443E+02  0.49250934716E+02  0.51100000000E-03 0.  1.
         22    1    1    0    0    0 -0.17341159208E+02  0.10973362642E+02  0.24352676206E+02  0.31846245127E+02  0.00000000000E+00 0.  1.
</event>
<event>
 5    1  0.8875601E-005  0.9118800E+02  0.7818608E-02  0.1130116E+00
         25   -1    0    0    0    0  0.00000000000E+00  0.00000000000E+00  0.99999998245E-14  0.12500000000E+03  0.12500000000E+03 0.  0.
        -11    1    3    3    0    0  0.10086748523E+02  0.36451969567E+02 -0.67185342741E+01  0.38413894415E+02  0.51100000000E-03 0.  1.
         23    2    1    0    0    0  0.16949194449E+02 -0.10193238575E+02  0.23400713985E+02  0.94360634469E+02  0.89247737323E+02 0.  0.
         11    1    3    3    0    0  0.68624459267E+01 -0.46645208142E+02  0.30119248259E+02  0.55946740054E+02  0.51100000000E-03 0. -1.
         22    1    1    0    0    0 -0.16949194449E+02  0.10193238575E+02 -0.23400713985E+02  0.30639365531E+02  0.00000000000E+00 0. -1.
</event>
<event>
 5    1  0.8875601E-005  0.9118800E+02  0.7818608E-02  0.1130116E+00
         25   -1    0    0    0    0  0.00000000000E+00  0.00000000000E+00  0.99999998245E-14  0.12500000000E+03  0.12500000000E+03 0.  0.
        -11    1    3    3    0    0  0.21931471819E+02  0.30913350073E+02 -0.16393029379E+02  0.41295957203E+02  0.51100000000E-03 0.  1.
         23    2    1    0    0    0 -0.15263428670E+02 -0.10508687753E+02 -0.20801736832E+02  0.97141122989E+02  0.93060629416E+02 0.  0.
         11    1    3    3    0    0 -0.37194900489E+02 -0.41422037826E+02 -0.44087074535E+01  0.55845165786E+02  0.51100000000E-03 0. -1.
         22    1    1    0    0    0  0.15263428670E+02  0.10508687753E+02  0.20801736832E+02  0.27858877011E+02  0.00000000000E+00 0. -1.
</event>
<event>
 5    1  0.8875601E-005  0.9118800E+02  0.7818608E-02  0.1130116E+00
         25   -1    0    0    0    0  0.00000000000E+00  0.00000000000E+00  0.99999998245E-14  0.12500000000E+03  0.12500000000E+03 0.  0.
        -11    1    3    3    0    0  0.89821337188E+01  0.32548801678E+02 -0.25081717419E+02  0.42061808874E+02  0.51100000000E-03 0.  1.
         23    2    1    0    0    0  0.25427810951E+02 -0.13351174384E+02 -0.14514002642E+01  0.96243540031E+02  0.91847074030E+02 0.  0.
         11    1    3    3    0    0  0.16445677232E+02 -0.45899976062E+02  0.23630317155E+02  0.54181731157E+02  0.51100000000E-03 0. -1.
         22    1    1    0    0    0 -0.25427810951E+02  0.13351174384E+02  0.14514002642E+01  0.28756459969E+02  0.00000000000E+00 0. -1.
</event>
<event>
 5    1  0.8875601E-005  0.9118800E+02  0.7818608E-02  0.1130116E+00
         25   -1    0    0    0    0  0.00000000000E+00  0.00000000000E+00  0.99999998245E-14  0.12500000000E+03  0.12500000000E+03 0.  0.
        -11    1    3    3    0    0  0.38453071614E+02  0.34379414596E+00 -0.22361634705E+02  0.44483700587E+02  0.51100000000E-03 0. -1.
         23    2    1    0    0    0  0.47943616307E+01  0.28620642678E+02  0.39447001000E+01  0.95713693480E+02  0.91123122038E+02 0.  0.
         11    1    3    3    0    0 -0.33658709984E+02  0.28276848532E+02  0.26306334805E+02  0.51229992893E+02  0.51100000000E-03 0.  1.
         22    1    1    0    0    0 -0.47943616307E+01 -0.28620642678E+02 -0.39447001000E+01  0.29286306520E+02  0.00000000000E+00 0.  1.
</event>
<event>
 5    1  0.8875601E-005  0.9118800E+02  0.7818608E-02  0.1130116E+00
         25   -1    0    0    0    0  0.00000000000E+00  0.00000000000E+00  0.99999998245E-14  0.12500000000E+03  0.12500000000E+03 0.  0.
        -11    1    3    3    0    0  0.35314119227E+02  0.20861765095E+02 -0.22529026266E+02  0.46795910979E+02  0.51100000000E-03 0.  1.
         23    2    1    0    0    0  0.30826245788E+02 -0.17397819468E+02 -0.17067913519E+02  0.85702987092E+02  0.76162633705E+02 0.  0.
         11    1    3    3    0    0 -0.44878734388E+01 -0.38259584563E+02  0.54611127466E+01  0.38907076112E+02  0.51100000000E-03 0. -1.
         22    1    1    0    0    0 -0.30826245788E+02  0.17397819468E+02  0.17067913519E+02  0.39297012908E+02  0.00000000000E+00 0.  1.
</event>
<event>
 5    1  0.8875601E-005  0.9118800E+02  0.7818608E-02  0.1130116E+00
         25   -1    0    0    0    0  0.00000000000E+00  0.00000000000E+00  0.99999998245E-14  0.12500000000E+03  0.12500000000E+03 0.  0.
        -11    1    3    3    0    0 -0.31667607053E+02  0.15925033202E+01 -0.30186808772E+02  0.43779182580E+02  0.51100000000E-03 0.  1.
         23    2    1    0    0    0  0.49193586173E+01  0.27366226073E+02 -0.10628614622E+01  0.97174829863E+02  0.93105893829E+02 0.  0.
         11    1    3    3    0    0  0.36586965670E+02  0.25773722753E+02  0.29123947310E+02  0.53395647282E+02  0.51100000000E-03 0. -1.
         22    1    1    0    0    0 -0.49193586173E+01 -0.27366226073E+02  0.10628614622E+01  0.27825170137E+02  0.00000000000E+00 0. -1.
</event>
<event>
 5    1  0.8875601E-005  0.9118800E+02  0.7818608E-02  0.1130116E+00
         25   -1    0    0    0    0  0.00000000000E+00  0.00000000000E+00  0.99999998245E-14  0.12500000000E+03  0.12500000000E+03 0.  0.
        -11    1    3    3    0    0  0.22538168967E+02 -0.51848455519E+02  0.24148235320E+02  0.61476570085E+02  0.51100000000E-03 0. -1.
         23    2    1    0    0    0  0.38094680753E+01 -0.23157102866E+02  0.15695293605E+02  0.96766939565E+02  0.92556657736E+02 0.  0.
         11    1    3    3    0    0 -0.18728700892E+02  0.28691352653E+02 -0.84529417142E+01  0.35290369480E+02  0.51100000000E-03 0.  1.
         22    1    1    0    0    0 -0.38094680753E+01  0.23157102866E+02 -0.15695293605E+02  0.28233060435E+02  0.00000000000E+00 0. -1.
</event>
<event>
 5    1  0.8875601E-005  0.9118800E+02  0.7818608E-02  0.1130116E+00
         25   -1    0    0    0    0  0.00000000000E+00  0.00000000000E+00  0.99999998245E-14  0.12500000000E+03  0.12500000000E+03 0.  0.
        -11    1    3    3    0    0  0.24232556835E+02 -0.11416515852E+02 -0.30202491177E+02  0.40370089404E+02  0.51100000000E-03 0.  1.
         23    2    1    0    0    0 -0.19902495113E+02 -0.22239231901E+02  0.39367482836E+00  0.95152927662E+02  0.90350605507E+02 0.  0.
         11    1    3    3    0    0 -0.44135051948E+02 -0.10822716049E+02  0.30596166005E+02  0.54782838258E+02  0.51100000000E-03 0. -1.
         22    1    1    0    0    0  0.19902495113E+02  0.22239231901E+02 -0.39367482836E+00  0.29847072338E+02  0.00000000000E+00 0. -1.
</event>
<event>
 5    1  0.8875601E-005  0.9118800E+02  0.7818608E-02  0.1130116E+00
         25   -1    0    0    0    0  0.00000000000E+00  0.00000000000E+00  0.99999998245E-14  0.12500000000E+03  0.12500000000E+03 0.  0.
        -11    1    3    3    0    0  0.15717889382E+02 -0.12101115566E+02  0.30489665285E+02  0.36374561633E+02  0.51100000000E-03 0.  1.
         23    2    1    0    0    0 -0.24307674786E+02 -0.99975159730E+01 -0.13135874662E+02  0.95616933750E+02  0.90990293095E+02 0.  0.
         11    1    3    3    0    0 -0.40025564168E+02  0.21035995928E+01 -0.43625539946E+02  0.59242372117E+02  0.51100000000E-03 0. -1.
         22    1    1    0    0    0  0.24307674786E+02  0.99975159730E+01  0.13135874662E+02  0.29383066250E+02  0.00000000000E+00 0. -1.
</event>
<event>
 5    1  0.8875601E-005  0.9118800E+02  0.7818608E-02  0.1130116E+00
         25   -1    0    0    0    0  0.00000000000E+00  0.00000000000E+00  0.99999998245E-14  0.12500000000E+03  0.12500000000E+03 0.  0.
        -11    1    3    3    0    0 -0.40766848431E+02  0.23463574258E+02 -0.28543014123E+02  0.55019804648E+02  0.51100000000E-03 0. -1.
         23    2    1    0    0    0 -0.37829435809E+02  0.17771095066E+01 -0.56163390467E+01  0.86714655596E+02  0.77805294801E+02 0.  0.
         11    1    3    3    0    0  0.29374126222E+01 -0.21686464752E+02  0.22926675076E+02  0.31694850948E+02  0.51100000000E-03 0.  1.
         22    1    1    0    0    0  0.37829435809E+02 -0.17771095066E+01  0.56163390467E+01  0.38285344404E+02  0.00000000000E+00 0. -1.
</event>
<event>
 5    1  0.8875601E-005  0.9118800E+02  0.7818608E-02  0.1130116E+00
         25   -1    0    0    0    0  0.00000000000E+00  0.00000000000E+00  0.99999998245E-14  0.12500000000E+03  0.12500000000E+03 0.  0.
        -11    1    3    3    0    0 -0.98006823072E+01  0.35771848593E+02 -0.25752929301E+02  0.45154090549E+02  0.51100000000E-03 0.  1.
         23    2    1    0    0    0  0.20987252613E+02 -0.25132050784E+01 -0.22100872515E+02  0.94418477181E+02  0.89328714842E+02 0.  0.
         11    1    3    3    0    0  0.30787934920E+02 -0.38285053671E+02  0.36520567859E+01  0.49264386633E+02  0.51100000000E-03 0. -1.
         22    1    1    0    0    0 -0.20987252613E+02  0.25132050784E+01  0.22100872515E+02  0.30581522819E+02  0.00000000000E+00 0. -1.
</event>
<event>
 5    1  0.8875601E-005  0.9118800E+02  0.7818608E-02  0.1130116E+00
         25   -1    0    0    0    0  0.00000000000E+00  0.00000000000E+00  0.99999998245E-14  0.12500000000E+03  0.12500000000E+03 0.  0.
        -11    1    3    3    0    0 -0.46408773097E+01 -0.51282050936E+02 -0.76907137946E+00  0.51497358781E+02  0.51100000000E-03 0.  1.
         23    2    1    0    0    0  0.10680127657E+02 -0.14312765333E+02  0.21305287222E+02  0.97200078384E+02  0.93139785248E+02 0.  0.
         11    1    3    3    0    0  0.15321004966E+02  0.36969285603E+02  0.22074358602E+02  0.45702719603E+02  0.51100000000E-03 0. -1.
         22    1    1    0    0    0 -0.10680127657E+02  0.14312765333E+02 -0.21305287222E+02  0.27799921616E+02  0.00000000000E+00 0.  1.
</event>
<event>
 5    1  0.8875601E-005  0.9118800E+02  0.7818608E-02  0.1130116E+00
         25   -1    0    0    0    0  0.00000000000E+00  0.00000000000E+00  0.99999998245E-14  0.12500000000E+03  0.12500000000E+03 0.  0.
        -11    1    3    3    0    0 -0.10740474452E+02  0.12524857844E+02  0.52506324861E+02  0.55037659890E+02  0.51100000000E-03 0.  1.
         23    2    1    0    0    0 -0.58566997935E+01  0.25156713349E+02  0.14513215325E+02  0.95372401750E+02  0.90653739236E+02 0.  0.
         11    1    3    3    0    0  0.48837746586E+01  0.12631855505E+02 -0.37993109536E+02  0.40334741860E+02  0.51100000000E-03 0. -1.
         22    1    1    0    0    0  0.58566997935E+01 -0.25156713349E+02 -0.14513215325E+02  0.29627598250E+02  0.00000000000E+00 0.  1.
</event>
<event>
 5    1  0.8875601E-005  0.9118800E+02  0.7818608E-02  0.1130116E+00
         25   -1    0    0    0    0  0.00000000000E+00  0.00000000000E+00  0.99999998245E-14  0.12500000000E+03  0.12500000000E+03 0.  0.
        -11    1    3    3    0    0 -0.52389882253E+02  0.10641564207E+02  0.18656644774E+02  0.56621665868E+02  0.51100000000E-03 0.  1.
         23    2    1    0    0    0 -0.14988195895E+02  0.20747835487E+02  0.14489138904E+02  0.95588202371E+02  0.90950814140E+02 0.  0.
         11    1    3    3    0    0  0.37401686358E+02  0.10106271280E+02 -0.41675058696E+01  0.38966536503E+02  0.51100000000E-03 0. -1.
         22    1    1    0    0    0  0.14988195895E+02 -0.20747835487E+02 -0.14489138904E+02  0.29411797629E+02  0.00000000000E+00 0.  1.
</event>
<event>
 5    1  0.8875601E-005  0.9118800E+02  0.7818608E-02  0.1130116E+00
         25   -1    0    0    0    0  0.00000000000E+00  0.00000000000E+00  0.99999998245E-14  0.12500000000E+03  0.12500000000E+03 0.  0.
        -11    1    3    3    0    0 -0.99477548780E+01 -0.30123412675E+02  0.22660367418E+02  0.38985511027E+02  0.51100000000E-03 0.  1.
         23    2    1    0    0    0 -0.38840330960E+01  0.11910443297E+01 -0.26830168180E+02  0.97864005007E+02  0.94026598640E+02 0.  0.
         11    1    3    3    0    0  0.60637217820E+01  0.31314457004E+02 -0.49490535598E+02  0.58878493980E+02  0.51100000000E-03 0. -1.
         22    1    1    0    0    0  0.38840330960E+01 -0.11910443297E+01  0.26830168180E+02  0.27135994993E+02  0.00000000000E+00 0. -1.
</event>
<event>
 5    1  0.8875601E-005  0.9118800E+02  0.7818608E-02  0.1130116E+00
         25   -1    0    0    0    0  0.00000000000E+00  0.00000000000E+00  0.99999998245E-14  0.12500000000E+03  0.12500000000E+03 0.  0.
        -11    1    3    3    0    0 -0.22666219743E+02  0.41236727271E+02  0.18125670962E+02  0.50425838035E+02  0.51100000000E-03 0.  1.
         23    2    1    0    0    0 -0.27084658585E+02  0.15201133919E+01 -0.61516689800E+01  0.97183952354E+02  0.93118140491E+02 0.  0.
         11    1    3    3    0    0 -0.44184388423E+01 -0.39716613879E+02 -0.24277339942E+02  0.46758114320E+02  0.51100000000E-03 0. -1.
         22    1    1    0    0    0  0.27084658585E+02 -0.15201133919E+01  0.61516689800E+01  0.27816047646E+02  0.00000000000E+00 0. -1.
</event>
<event>
 5    1  0.8875601E-005  0.9118800E+02  0.7818608E-02  0.1130116E+00
         25   -1    0    0    0    0  0.00000000000E+00  0.00000000000E+00  0.99999998245E-14  0.12500000000E+03  0.12500000000E+03 0.  0.
        -11    1    3    3    0    0  0.31385176829E+01  0.21412527676E+02 -0.29753086678E+02  0.36791205496E+02  0.51100000000E-03 0.  1.
         23    2    1    0    0    0  0.38878045931E+01  0.95388561606E+01  0.27691415893E+02  0.95454792004E+02  0.90767273843E+02 0.  0.
         11    1    3    3    0    0  0.74928691012E+00 -0.11873671515E+02  0.57444502570E+02  0.58663586508E+02  0.51100000000E-03 0. -1.
         22    1    1    0    0    0 -0.38878045931E+01 -0.95388561606E+01 -0.27691415893E+02  0.29545207996E+02  0.00000000000E+00 0. -1.
</event>
<event>
 5    1  0.8875601E-005  0.9118800E+02  0.7818608E-02  0.1130116E+00
         25   -1    0    0    0    0  0.00000000000E+00  0.00000000000E+00  0.99999998245E-14  0.12500000000E+03  0.12500000000E+03 0.  0.
        -11    1    3    3    0    0 -0.31129259703E+02 -0.15571820853E+02  0.36012539941E+02  0.50084083775E+02  0.51100000000E-03 0. -1.
         23    2    1    0    0    0 -0.60161835315E+01  0.19011181947E+02  0.22560165291E+02  0.94890523730E+02  0.89986837551E+02 0.  0.
         11    1    3    3    0    0  0.25113076172E+02  0.34583002799E+02 -0.13452374649E+02  0.44806439955E+02  0.51100000000E-03 0.  1.
         22    1    1    0    0    0  0.60161835315E+01 -0.19011181947E+02 -0.22560165291E+02  0.30109476270E+02  0.00000000000E+00 0.  1.
</event>
<event>
 5    1  0.8875601E-005  0.9118800E+02  0.7818608E-02  0.1130116E+00
         25   -1    0    0    0    0  0.00000000000E+00  0.00000000000E+00  0.99999998245E-14  0.12500000000E+03  0.12500000000E+03 0.  0.
        -11    1    3    3    0    0  0.29501280096E+00  0.54081977489E+02 -0.16809520719E+02  0.56634859484E+02  0.51100000000E-03 0.  1.
         23    2    1    0    0    0  0.18936035589E+02  0.23220774211E+02 -0.46854470632E+01  0.94672929371E+02  0.89684069615E+02 0.  0.
         11    1    3    3    0    0  0.18641022789E+02 -0.30861203279E+02  0.12124073656E+02  0.38038069887E+02  0.51100000000E-03 0. -1.
         22    1    1    0    0    0 -0.18936035589E+02 -0.23220774211E+02  0.46854470632E+01  0.30327070629E+02  0.00000000000E+00 0.  1.
</event>
<event>
 5    1  0.8875601E-005  0.9118800E+02  0.7818608E-02  0.1130116E+00
         25   -1    0    0    0    0  0.00000000000E+00  0.00000000000E+00  0.99999998245E-14  0.12500000000E+03  0.12500000000E+03 0.  0.
        -11    1    3    3    0    0 -0.39048345988E+02 -0.52455646959E+01  0.24442898940E+02  0.46365338155E+02  0.51100000000E-03 0.  1.
         23    2    1    0    0    0  0.94301298519E+01  0.32589608190E+01  0.27566800113E+02  0.95683167921E+02  0.91081238355E+02 0.  0.
         11    1    3    3    0    0  0.48478475840E+02  0.85045255149E+01  0.31239011733E+01  0.49317829766E+02  0.51100000000E-03 0. -1.
         22    1    1    0    0    0 -0.94301298519E+01 -0.32589608190E+01 -0.27566800113E+02  0.29316832079E+02  0.00000000000E+00 0. -1.
</event>
<event>
 5    1  0.8875601E-005  0.9118800E+02  0.7818608E-02  0.1130116E+00
         25   -1    0    0    0    0  0.00000000000E+00  0.00000000000E+00  0.99999998245E-14  0.12500000000E+03  0.12500000000E+03 0.  0.
        -11    1    3    3    0    0 -0.16169699516E+02  0.14943379180E+02 -0.30519314313E+02  0.37632330650E+02  0.51100000000E-03 0. -1.
         23    2    1    0    0    0 -0.41449968767E+01  0.13168447998E+02  0.26063522282E+02  0.95505996956E+02  0.90837763288E+02 0.  0.
         11    1    3    3    0    0  0.12024702640E+02 -0.17749311817E+01  0.56582836595E+02  0.57873666306E+02  0.51100000000E-03 0.  1.
         22    1    1    0    0    0  0.41449968767E+01 -0.13168447998E+02 -0.26063522282E+02  0.29494003044E+02  0.00000000000E+00 0.  1.
</event>
<event>
 5    1  0.8875601E-005  0.9118800E+02  0.7818608E-02  0.1130116E+00
         25   -1    0    0    0    0  0.00000000000E+00  0.00000000000E+00  0.99999998245E-14  0.12500000000E+03  0.12500000000E+03 0.  0.
        -11    1    3    3    0    0  0.17072580381E+02 -0.36437173172E+02 -0.47766980768E+00  0.40241381168E+02  0.51100000000E-03 0.  1.
         23    2    1    0    0    0  0.22496169181E+02  0.18678780771E+02 -0.24410808856E+01  0.95658334151E+02  0.91047150080E+02 0.  0.
         11    1    3    3    0    0  0.54235888000E+01  0.55115953943E+02 -0.19634110779E+01  0.55416952983E+02  0.51100000000E-03 0. -1.
         22    1    1    0    0    0 -0.22496169181E+02 -0.18678780771E+02  0.24410808856E+01  0.29341665849E+02  0.00000000000E+00 0. -1.
</event>
<event>
 5    1  0.8875601E-005  0.9118800E+02  0.7818608E-02  0.1130116E+00
         25   -1    0    0    0    0  0.00000000000E+00  0.00000000000E+00  0.99999998245E-14  0.12500000000E+03  0.12500000000E+03 0.  0.
        -11    1    3    3    0    0 -0.21008421808E+02 -0.15207206522E+01 -0.35530988665E+02  0.41305175631E+02  0.51100000000E-03 0. -1.
         23    2    1    0    0    0 -0.12765560239E+02 -0.16139516183E+02  0.18158153664E+02  0.97556201879E+02  0.93616507464E+02 0.  0.
         11    1    3    3    0    0  0.82428615695E+01 -0.14618795530E+02  0.53689142329E+02  0.56251026248E+02  0.51100000000E-03 0.  1.
         22    1    1    0    0    0  0.12765560239E+02  0.16139516183E+02 -0.18158153664E+02  0.27443798121E+02  0.00000000000E+00 0.  1.
</event>
<event>
 5    1  0.8875601E-005  0.9118800E+02  0.7818608E-02  0.1130116E+00
         25   -1    0    0    0    0  0.00000000000E+00  0.00000000000E+00  0.99999998245E-14  0.12500000000E+03  0.12500000000E+03 0.  0.
        -11    1    3    3    0    0 -0.64509369307E+01  0.20264340602E+02 -0.56151845938E+02  0.60044049579E+02  0.51100000000E-03 0. -1.
         23    2    1    0    0    0 -0.11222586528E+02  0.17149489594E+02 -0.20994273661E+02  0.95660419766E+02  0.91050013408E+02 0.  0.
         11    1    3    3    0    0 -0.47716495976E+01 -0.31148510085E+01  0.35157572277E+02  0.35616370188E+02  0.51100000000E-03 0.  1.
         22    1    1    0    0    0  0.11222586528E+02 -0.17149489594E+02  0.20994273661E+02  0.29339580234E+02  0.00000000000E+00 0. -1.
</event>
<event>
 5    1  0.8875601E-005  0.9118800E+02  0.7818608E-02  0.1130116E+00
         25   -1    0    0    0    0  0.00000000000E+00  0.00000000000E+00  0.99999998245E-14  0.12500000000E+03  0.12500000000E+03 0.  0.
        -11    1    3    3    0    0  0.24210033587E+02 -0.18998818215E+02 -0.14937557255E+02  0.34208353320E+02  0.51100000000E-03 0.  1.
         23    2    1    0    0    0 -0.20714718828E+01  0.23304556341E+02  0.19321712149E+02  0.94656600349E+02  0.89661307638E+02 0.  0.
         11    1    3    3    0    0 -0.26281505469E+02  0.42303374556E+02  0.34259269404E+02  0.60448247029E+02  0.51100000000E-03 0. -1.
         22    1    1    0    0    0  0.20714718828E+01 -0.23304556341E+02 -0.19321712149E+02  0.30343399651E+02  0.00000000000E+00 0. -1.
</event>
<event>
 5    1  0.8875601E-005  0.9118800E+02  0.7818608E-02  0.1130116E+00
         25   -1    0    0    0    0  0.00000000000E+00  0.00000000000E+00  0.99999998245E-14  0.12500000000E+03  0.12500000000E+03 0.  0.
        -11    1    3    3    0    0  0.27860732330E+02 -0.20533276137E+02  0.42778147401E+02  0.55025500727E+02  0.51100000000E-03 0.  1.
         23    2    1    0    0    0  0.15241545877E+02  0.11418782939E+02  0.24592023706E+02  0.93895965623E+02  0.88594533724E+02 0.  0.
         11    1    3    3    0    0 -0.12619186452E+02  0.31952059077E+02 -0.18186123695E+02  0.38870464896E+02  0.51100000000E-03 0. -1.
         22    1    1    0    0    0 -0.15241545877E+02 -0.11418782939E+02 -0.24592023706E+02  0.31104034377E+02  0.00000000000E+00 0.  1.
</event>
<event>
 5    1  0.8875601E-005  0.9118800E+02  0.7818608E-02  0.1130116E+00
         25   -1    0    0    0    0  0.00000000000E+00  0.00000000000E+00  0.99999998245E-14  0.12500000000E+03  0.12500000000E+03 0.  0.
        -11    1    3    3    0    0 -0.26963529360E+01  0.43111126935E+02 -0.37452797528E+01  0.43357429645E+02  0.51100000000E-03 0. -1.
         23    2    1    0    0    0 -0.16670993230E+02 -0.37909636382E+01 -0.23334974139E+02  0.96072254864E+02  0.91613665553E+02 0.  0.
         11    1    3    3    0    0 -0.13974640294E+02 -0.46902090573E+02 -0.19589694386E+02  0.52714825219E+02  0.51100000000E-03 0.  1.
         22    1    1    0    0    0  0.16670993230E+02  0.37909636382E+01  0.23334974139E+02  0.28927745136E+02  0.00000000000E+00 0.  1.
</event>
<event>
 5    1  0.8875601E-005  0.9118800E+02  0.7818608E-02  0.1130116E+00
         25   -1    0    0    0    0  0.00000000000E+00  0.00000000000E+00  0.99999998245E-14  0.12500000000E+03  0.12500000000E+03 0.  0.
        -11    1    3    3    0    0 -0.16458300089E+02 -0.21464875915E+02  0.17710014190E+02  0.32330498647E+02  0.51100000000E-03 0. -1.
         23    2    1    0    0    0 -0.16134018335E+02  0.32541875661E+02  0.17973987306E+01  0.88633657576E+02  0.80829539117E+02 0.  0.
         11    1    3    3    0    0  0.32428175470E+00  0.54006751575E+02 -0.15912615459E+02  0.56303158929E+02  0.51100000000E-03 0.  1.
         22    1    1    0    0    0  0.16134018335E+02 -0.32541875661E+02 -0.17973987306E+01  0.36366342424E+02  0.00000000000E+00 0.  1.
</event>
<event>
 5    1  0.8875601E-005  0.9118800E+02  0.7818608E-02  0.1130116E+00
         25   -1    0    0    0    0  0.00000000000E+00  0.00000000000E+00  0.99999998245E-14  0.12500000000E+03  0.12500000000E+03 0.  0.
        -11    1    3    3    0    0 -0.19769731671E+02 -0.34870645173E+02  0.44846820344E+02  0.60150157776E+02  0.51100000000E-03 0.  1.
         23    2    1    0    0    0 -0.19802280976E+02 -0.15921015704E+02  0.15031258333E+02  0.95478011585E+02  0.90799245021E+02 0.  0.
         11    1    3    3    0    0 -0.32549304637E-01  0.18949629470E+02 -0.29815562011E+02  0.35327853810E+02  0.51100000000E-03 0. -1.
         22    1    1    0    0    0  0.19802280976E+02  0.15921015704E+02 -0.15031258333E+02  0.29521988415E+02  0.00000000000E+00 0.  1.
</event>
<event>
 5    1  0.8875601E-005  0.9118800E+02  0.7818608E-02  0.1130116E+00
         25   -1    0    0    0    0  0.00000000000E+00  0.00000000000E+00  0.99999998245E-14  0.12500000000E+03  0.12500000000E+03 0.  0.
        -11    1    3    3    0    0 -0.23088314504E+02  0.50890264282E+02  0.18172263334E+02  0.58763257400E+02  0.51100000000E-03 0.  1.
         23    2    1    0    0    0 -0.23257480760E+02  0.20063707940E+02  0.53425492962E+00  0.94279514718E+02  0.89134048935E+02 0.  0.
         11    1    3    3    0    0 -0.16916625642E+00 -0.30826556342E+02 -0.17638008404E+02  0.35516257318E+02  0.51100000000E-03 0. -1.
         22    1    1    0    0    0  0.23257480760E+02 -0.20063707940E+02 -0.53425492962E+00  0.30720485282E+02  0.00000000000E+00 0.  1.
</event>
<event>
 5    1  0.8875601E-005  0.9118800E+02  0.7818608E-02  0.1130116E+00
         25   -1    0    0    0    0  0.00000000000E+00  0.00000000000E+00  0.99999998245E-14  0.12500000000E+03  0.12500000000E+03 0.  0.
        -11    1    3    3    0    0  0.35740200853E+02  0.17390962673E+02  0.34174672374E+02  0.52418658623E+02  0.51100000000E-03 0.  1.
         23    2    1    0    0    0  0.28907368599E+02  0.57851331133E+01 -0.61082188787E+01  0.94893288749E+02  0.89990678335E+02 0.  0.
         11    1    3    3    0    0 -0.68328322539E+01 -0.11605829560E+02 -0.40282891253E+02  0.42474630126E+02  0.51100000000E-03 0. -1.
         22    1    1    0    0    0 -0.28907368599E+02 -0.57851331133E+01  0.61082188787E+01  0.30106711251E+02  0.00000000000E+00 0.  1.
</event>
<event>
 5    1  0.8875601E-005  0.9118800E+02  0.7818608E-02  0.1130116E+00
         25   -1    0    0    0    0  0.00000000000E+00  0.00000000000E+00  0.99999998245E-14  0.12500000000E+03  0.12500000000E+03 0.  0.
        -11    1    3    3    0    0 -0.53121957104E+02 -0.13412042010E+02 -0.70060603395E+01  0.55235043941E+02  0.51100000000E-03 0. -1.
         23    2    1    0    0    0 -0.19990099459E+02  0.11751055641E+02 -0.14700452756E+02  0.97544678178E+02  0.93601119355E+02 0.  0.
         11    1    3    3    0    0  0.33131857644E+02  0.25163097651E+02 -0.76943924168E+01  0.42309634237E+02  0.51100000000E-03 0.  1.
         22    1    1    0    0    0  0.19990099459E+02 -0.11751055641E+02  0.14700452756E+02  0.27455321822E+02  0.00000000000E+00 0. -1.
</event>
<event>
 5    1  0.8875601E-005  0.9118800E+02  0.7818608E-02  0.1130116E+00
         25   -1    0    0    0    0  0.00000000000E+00  0.00000000000E+00  0.99999998245E-14  0.12500000000E+03  0.12500000000E+03 0.  0.
        -11    1    3    3    0    0  0.28545543458E+02 -0.26687517382E+02 -0.44226071922E+02  0.59017091366E+02  0.51100000000E-03 0.  1.
         23    2    1    0    0    0  0.18775951721E+02 -0.20132540803E+02 -0.91873218713E+01  0.95978241862E+02  0.91485301910E+02 0.  0.
         11    1    3    3    0    0 -0.97695917369E+01  0.65549765784E+01  0.35038750051E+02  0.36961150497E+02  0.51100000000E-03 0. -1.
         22    1    1    0    0    0 -0.18775951721E+02  0.20132540803E+02  0.91873218713E+01  0.29021758138E+02  0.00000000000E+00 0.  1.
</event>
<event>
 5    1  0.8875601E-005  0.9118800E+02  0.7818608E-02  0.1130116E+00
         25   -1    0    0    0    0  0.00000000000E+00  0.00000000000E+00  0.99999998245E-14  0.12500000000E+03  0.12500000000E+03 0.  0.
        -11    1    3    3    0    0  0.13823141522E+02  0.15000007954E+02  0.40987540429E+02  0.45782725463E+02  0.51100000000E-03 0. -1.
         23    2    1    0    0    0 -0.16218581011E+02  0.16129806750E+02 -0.58056050915E+01  0.10140088802E+03  0.98616540219E+02 0.  0.
         11    1    3    3    0    0 -0.30041722533E+02  0.11297987960E+01 -0.46793145521E+02  0.55618162556E+02  0.51100000000E-03 0.  1.
         22    1    1    0    0    0  0.16218581011E+02 -0.16129806750E+02  0.58056050915E+01  0.23599111981E+02  0.00000000000E+00 0.  1.
</event>
<event>
 5    1  0.8875601E-005  0.9118800E+02  0.7818608E-02  0.1130116E+00
         25   -1    0    0    0    0  0.00000000000E+00  0.00000000000E+00  0.99999998245E-14  0.12500000000E+03  0.12500000000E+03 0.  0.
        -11    1    3    3    0    0  0.29835303954E+01  0.58069168325E+02  0.34693265321E+01  0.58249171586E+02  0.51100000000E-03 0. -1.
         23    2    1    0    0    0 -0.14238351980E+02  0.25722758795E+02 -0.29474179551E+01  0.95452102279E+02  0.90763569617E+02 0.  0.
         11    1    3    3    0    0 -0.17221882376E+02 -0.32346409530E+02 -0.64167444872E+01  0.37202930693E+02  0.51100000000E-03 0.  1.
         22    1    1    0    0    0  0.14238351980E+02 -0.25722758795E+02  0.29474179551E+01  0.29547897721E+02  0.00000000000E+00 0. -1.
</event>
<event>
 5    1  0.8875601E-005  0.9118800E+02  0.7818608E-02  0.1130116E+00
         25   -1    0    0    0    0  0.00000000000E+00  0.00000000000E+00  0.99999998245E-14  0.12500000000E+03  0.12500000000E+03 0.  0.
        -11    1    3    3    0    0  0.21988279270E+02 -0.25954807533E+02  0.32978653122E+02  0.47378560777E+02  0.51100000000E-03 0.  1.
         23    2    1    0    0    0  0.14788432625E+02 -0.22158161953E+02 -0.13895329104E+02  0.94954001072E+02  0.90074970264E+02 0.  0.
         11    1    3    3    0    0 -0.71998466445E+01  0.37966455796E+01 -0.46873982225E+02  0.47575440295E+02  0.51100000000E-03 0. -1.
         22    1    1    0    0    0 -0.14788432625E+02  0.22158161953E+02  0.13895329104E+02  0.30045998928E+02  0.00000000000E+00 0.  1.
</event>
<event>
 5    1  0.8875601E-005  0.9118800E+02  0.7818608E-02  0.1130116E+00
         25   -1    0    0    0    0  0.00000000000E+00  0.00000000000E+00  0.99999998245E-14  0.12500000000E+03  0.12500000000E+03 0.  0.
        -11    1    3    3    0    0 -0.20399011327E+02  0.16960328092E+02 -0.24548576969E+02  0.36144225315E+02  0.51100000000E-03 0.  1.
         23    2    1    0    0    0  0.27478339363E+02  0.95477287290E+00  0.81883250134E+01  0.96311685447E+02  0.91939770294E+02 0.  0.
         11    1    3    3    0    0  0.47877350691E+02 -0.16005555219E+02  0.32736901983E+02  0.60167460132E+02  0.51100000000E-03 0. -1.
         22    1    1    0    0    0 -0.27478339363E+02 -0.95477287290E+00 -0.81883250134E+01  0.28688314553E+02  0.00000000000E+00 0. -1.
</event>
<event>
 5    1  0.8875601E-005  0.9118800E+02  0.7818608E-02  0.1130116E+00
         25   -1    0    0    0    0  0.00000000000E+00  0.00000000000E+00  0.99999998245E-14  0.12500000000E+03  0.12500000000E+03 0.  0.
        -11    1    3    3    0    0  0.36258617332E+02 -0.19535981940E+00 -0.12626016110E+01  0.36281119875E+02  0.51100000000E-03 0.  1.
         23    2    1    0    0    0 -0.14920981080E+02 -0.23735471388E+02  0.12549813457E+02  0.94283455660E+02  0.89139575470E+02 0.  0.
         11    1    3    3    0    0 -0.51179598412E+02 -0.23540111569E+02  0.13812415068E+02  0.58002335785E+02  0.51100000000E-03 0. -1.
         22    1    1    0    0    0  0.14920981080E+02  0.23735471388E+02 -0.12549813457E+02  0.30716544340E+02  0.00000000000E+00 0. -1.
</event>
<event>
 5    1  0.8875601E-005  0.9118800E+02  0.7818608E-02  0.1130116E+00
         25   -1    0    0    0    0  0.00000000000E+00  0.00000000000E+00  0.99999998245E-14  0.12500000000E+03  0.12500000000E+03 0.  0.
        -11    1    3    3    0    0  0.29572137311E+02 -0.77314645387E+01  0.13978589748E+02  0.33610828920E+02  0.51100000000E-03 0.  1.
         23    2    1    0    0    0 -0.26536922712E+02  0.11355315780E+02 -0.47093648930E+01  0.95753981790E+02  0.91178371599E+02 0.  0.
         11    1    3    3    0    0 -0.56109060023E+02  0.19086780319E+02 -0.18687954641E+02  0.62143152869E+02  0.51100000000E-03 0. -1.
         22    1    1    0    0    0  0.26536922712E+02 -0.11355315780E+02  0.47093648930E+01  0.29246018210E+02  0.00000000000E+00 0. -1.
</event>
<event>
 5    1  0.8875601E-005  0.9118800E+02  0.7818608E-02  0.1130116E+00
         25   -1    0    0    0    0  0.00000000000E+00  0.00000000000E+00  0.99999998245E-14  0.12500000000E+03  0.12500000000E+03 0.  0.
        -11    1    3    3    0    0  0.38067402857E+02  0.29870481959E+01  0.10936585769E+02  0.39719749819E+02  0.51100000000E-03 0. -1.
         23    2    1    0    0    0 -0.14397741046E+01 -0.16814549344E+02 -0.23726244991E+02  0.95884081322E+02  0.91356556034E+02 0.  0.
         11    1    3    3    0    0 -0.39507176961E+02 -0.19801597539E+02 -0.34662830760E+02  0.56164331502E+02  0.51100000000E-03 0.  1.
         22    1    1    0    0    0  0.14397741046E+01  0.16814549344E+02  0.23726244991E+02  0.29115918678E+02  0.00000000000E+00 0.  1.
</event>
<event>
 5    1  0.8875601E-005  0.9118800E+02  0.7818608E-02  0.1130116E+00
         25   -1    0    0    0    0  0.00000000000E+00  0.00000000000E+00  0.99999998245E-14  0.12500000000E+03  0.12500000000E+03 0.  0.
        -11    1    3    3    0    0 -0.45803241769E+02  0.11259036275E+02  0.18265771119E+02  0.50580047936E+02  0.51100000000E-03 0.  1.
         23    2    1    0    0    0  0.27018453608E+01  0.19242195929E+02  0.16066752570E+02  0.99786856391E+02  0.96549024323E+02 0.  0.
         11    1    3    3    0    0  0.48505087129E+02  0.79831596537E+01 -0.21990185493E+01  0.49206808455E+02  0.51100000000E-03 0. -1.
         22    1    1    0    0    0 -0.27018453608E+01 -0.19242195929E+02 -0.16066752570E+02  0.25213143609E+02  0.00000000000E+00 0. -1.
</event>
<event>
 5    1  0.8875601E-005  0.9118800E+02  0.7818608E-02  0.1130116E+00
         25   -1    0    0    0    0  0.00000000000E+00  0.00000000000E+00  0.99999998245E-14  0.12500000000E+03  0.12500000000E+03 0.  0.
        -11    1    3    3    0    0 -0.11280152494E+02 -0.23647804358E+00 -0.53168845150E+02  0.54352772303E+02  0.51100000000E-03 0.  1.
         23    2    1    0    0    0  0.15132575737E+02 -0.67406119175E+01 -0.32518669799E+02  0.88504869052E+02  0.80630126274E+02 0.  0.
         11    1    3    3    0    0  0.26412728230E+02 -0.65041338739E+01  0.20650175352E+02  0.34152096749E+02  0.51100000000E-03 0. -1.
         22    1    1    0    0    0 -0.15132575737E+02  0.67406119175E+01  0.32518669799E+02  0.36495130948E+02  0.00000000000E+00 0.  1.
</event>
<event>
 5    1  0.8875601E-005  0.9118800E+02  0.7818608E-02  0.1130116E+00
         25   -1    0    0    0    0  0.00000000000E+00  0.00000000000E+00  0.99999998245E-14  0.12500000000E+03  0.12500000000E+03 0.  0.
        -11    1    3    3    0    0  0.33633555724E+02 -0.44967684723E+01 -0.36671469862E+01  0.34130411141E+02  0.51100000000E-03 0.  1.
         23    2    1    0    0    0 -0.28103893425E+02  0.42917160315E+01 -0.16338057128E+01  0.96523396037E+02  0.92227159825E+02 0.  0.
         11    1    3    3    0    0 -0.61737449149E+02  0.87884845038E+01  0.20333412734E+01  0.62392984897E+02  0.51100000000E-03 0. -1.
         22    1    1    0    0    0  0.28103893425E+02 -0.42917160315E+01  0.16338057128E+01  0.28476603963E+02  0.00000000000E+00 0. -1.
</event>
<event>
 5    1  0.8875601E-005  0.9118800E+02  0.7818608E-02  0.1130116E+00
         25   -1    0    0    0    0  0.00000000000E+00  0.00000000000E+00  0.99999998245E-14  0.12500000000E+03  0.12500000000E+03 0.  0.
        -11    1    3    3    0    0 -0.36741701652E+02 -0.68744460730E+01  0.45235692289E+01  0.37652002974E+02  0.51100000000E-03 0. -1.
         23    2    1    0    0    0 -0.10122592749E+02 -0.49305515663E+01 -0.36616534142E+02  0.86691413556E+02  0.77767945769E+02 0.  0.
         11    1    3    3    0    0  0.26619108903E+02  0.19438945067E+01 -0.41140103371E+02  0.49039410583E+02  0.51100000000E-03 0.  1.
         22    1    1    0    0    0  0.10122592749E+02  0.49305515663E+01  0.36616534142E+02  0.38308586444E+02  0.00000000000E+00 0.  1.
</event>
<event>
 5    1  0.8875601E-005  0.9118800E+02  0.7818608E-02  0.1130116E+00
         25   -1    0    0    0    0  0.00000000000E+00  0.00000000000E+00  0.99999998245E-14  0.12500000000E+03  0.12500000000E+03 0.  0.
        -11    1    3    3    0    0  0.25432178043E+02 -0.43891944564E+02 -0.33316177833E+02  0.60689918300E+02  0.51100000000E-03 0.  1.
         23    2    1    0    0    0  0.15468516589E+02 -0.23474252462E+02 -0.59375083475E+01  0.96267274068E+02  0.91879369377E+02 0.  0.
         11    1    3    3    0    0 -0.99636614537E+01  0.20417692102E+02  0.27378669486E+02  0.35577355768E+02  0.51100000000E-03 0. -1.
         22    1    1    0    0    0 -0.15468516589E+02  0.23474252462E+02  0.59375083475E+01  0.28732725932E+02  0.00000000000E+00 0.  1.
</event>
<event>
 5    1  0.8875601E-005  0.9118800E+02  0.7818608E-02  0.1130116E+00
         25   -1    0    0    0    0  0.00000000000E+00  0.00000000000E+00  0.99999998245E-14  0.12500000000E+03  0.12500000000E+03 0.  0.
        -11    1    3    3    0    0 -0.23690575687E+02 -0.17250358584E+01  0.20715917101E+02  0.31517746536E+02  0.51100000000E-03 0.  1.
         23    2    1    0    0    0  0.31654981094E+02  0.54245318712E+01 -0.41577456965E+01  0.92615586722E+02  0.86769215051E+02 0.  0.
         11    1    3    3    0    0  0.55345556781E+02  0.71495677296E+01 -0.24873662797E+02  0.61097840186E+02  0.51100000000E-03 0. -1.
         22    1    1    0    0    0 -0.31654981094E+02 -0.54245318712E+01  0.41577456965E+01  0.32384413278E+02  0.00000000000E+00 0. -1.
</event>
<event>
 5    1  0.8875601E-005  0.9118800E+02  0.7818608E-02  0.1130116E+00
         25   -1    0    0    0    0  0.00000000000E+00  0.00000000000E+00  0.99999998245E-14  0.12500000000E+03  0.12500000000E+03 0.  0.
        -11    1    3    3    0    0 -0.88058446111E+01  0.18324838881E+02  0.56774511920E+02  0.60304956872E+02  0.51100000000E-03 0. -1.
         23    2    1    0    0    0 -0.15608978947E+02  0.11782242834E+02  0.26182372002E+02  0.92320066193E+02  0.86342437702E+02 0.  0.
         11    1    3    3    0    0 -0.68031343355E+01 -0.65425960470E+01 -0.30592139918E+02  0.32015109321E+02  0.51100000000E-03 0.  1.
         22    1    1    0    0    0  0.15608978947E+02 -0.11782242834E+02 -0.26182372002E+02  0.32679933807E+02  0.00000000000E+00 0. -1.
</event>
<event>
 5    1  0.8875601E-005  0.9118800E+02  0.7818608E-02  0.1130116E+00
         25   -1    0    0    0    0  0.00000000000E+00  0.00000000000E+00  0.99999998245E-14  0.12500000000E+03  0.12500000000E+03 0.  0.
        -11    1    3    3    0    0  0.45309004410E+02 -0.23252283042E+02 -0.27292079218E+02  0.57779166968E+02  0.51100000000E-03 0. -1.
         23    2    1    0    0    0  0.30086177140E+02  0.35266504066E+01 -0.10024723900E+02  0.93092157590E+02  0.87453069686E+02 0.  0.
         11    1    3    3    0    0 -0.15222827270E+02  0.26778933448E+02  0.17267355318E+02  0.35312990622E+02  0.51100000000E-03 0.  1.
         22    1    1    0    0    0 -0.30086177140E+02 -0.35266504066E+01  0.10024723900E+02  0.31907842410E+02  0.00000000000E+00 0. -1.
</event>
<event>
 5    1  0.8875601E-005  0.9118800E+02  0.7818608E-02  0.1130116E+00
         25   -1    0    0    0    0  0.00000000000E+00  0.00000000000E+00  0.99999998245E-14  0.12500000000E+03  0.12500000000E+03 0.  0.
        -11    1    3    3    0    0 -0.50114235315E+02 -0.49198921276E+01 -0.16993158174E+02  0.53145172356E+02  0.51100000000E-03 0.  1.
         23    2    1    0    0    0 -0.17806084430E+02  0.21604786006E+02 -0.76182922162E+01  0.95985145229E+02  0.91494733768E+02 0.  0.
         11    1    3    3    0    0  0.32308150885E+02  0.26524678134E+02  0.93748659574E+01  0.42839972873E+02  0.51100000000E-03 0. -1.
         22    1    1    0    0    0  0.17806084430E+02 -0.21604786006E+02  0.76182922162E+01  0.29014854771E+02  0.00000000000E+00 0.  1.
</event>
<event>
 5    1  0.8875601E-005  0.9118800E+02  0.7818608E-02  0.1130116E+00
         25   -1    0    0    0    0  0.00000000000E+00  0.00000000000E+00  0.99999998245E-14  0.12500000000E+03  0.12500000000E+03 0.  0.
        -11    1    3    3    0    0 -0.12377322733E+02 -0.12914881970E+02 -0.22161870504E+02  0.28480533683E+02  0.51100000000E-03 0. -1.
         23    2    1    0    0    0  0.12206250820E+02  0.33309501085E+02 -0.26061395560E+02  0.80980552477E+02  0.67971597887E+02 0.  0.
         11    1    3    3    0    0  0.24583573553E+02  0.46224383056E+02 -0.38995250563E+01  0.52500018795E+02  0.51100000000E-03 0.  1.
         22    1    1    0    0    0 -0.12206250820E+02 -0.33309501085E+02  0.26061395560E+02  0.44019447523E+02  0.00000000000E+00 0.  1.
</event>
<event>
 5    1  0.8875601E-005  0.9118800E+02  0.7818608E-02  0.1130116E+00
         25   -1    0    0    0    0  0.00000000000E+00  0.00000000000E+00  0.99999998245E-14  0.12500000000E+03  0.12500000000E+03 0.  0.
        -11    1    3    3    0    0  0.36384782201E+02 -0.17563698334E+02  0.23898128343E+02  0.46940988630E+02  0.51100000000E-03 0.  1.
         23    2    1    0    0    0  0.21176856043E+02  0.22608005311E+02  0.61443805580E+01  0.93419396009E+02  0.87919559838E+02 0.  0.
         11    1    3    3    0    0 -0.15207926158E+02  0.40171703645E+02 -0.17753747785E+02  0.46478407378E+02  0.51100000000E-03 0. -1.
         22    1    1    0    0    0 -0.21176856043E+02 -0.22608005311E+02 -0.61443805580E+01  0.31580603991E+02  0.00000000000E+00 0.  1.
</event>
<event>
 5    1  0.8875601E-005  0.9118800E+02  0.7818608E-02  0.1130116E+00
         25   -1    0    0    0    0  0.00000000000E+00  0.00000000000E+00  0.99999998245E-14  0.12500000000E+03  0.12500000000E+03 0.  0.
        -11    1    3    3    0    0 -0.90126203472E+01  0.32176450735E+02 -0.21526951747E+02  0.39748722737E+02  0.51100000000E-03 0. -1.
         23    2    1    0    0    0 -0.72252092344E+01 -0.24286075613E+02 -0.11712885170E+02  0.97085688327E+02  0.92986139192E+02 0.  0.
         11    1    3    3    0    0  0.17874111128E+01 -0.56462526348E+02  0.98140665773E+01  0.57336965590E+02  0.51100000000E-03 0.  1.
         22    1    1    0    0    0  0.72252092344E+01  0.24286075613E+02  0.11712885170E+02  0.27914311673E+02  0.00000000000E+00 0.  1.
</event>
<event>
 4    1  0.8875601E-005  0.9118800E+02  0.7818608E-02  0.1130116E+00
         25   -1    0    0    0    0  0.00000000000E+00  0.00000000000E+00  0.99999998245E-14  0.12500000000E+03  0.12500000000E+03 0.  0.
        -11    1    1    0    0    0 -0.97200982409E+01  0.18143143756E+02 -0.19655142008E+02  0.28460122677E+02  0.51100000000E-03 0.  1.
         11    1    1    0    0    0 -0.17465016824E+01 -0.36328863010E+02 -0.26915130002E+02  0.45246665944E+02  0.51100000000E-03 0. -1.
         22    1    1    0    0    0  0.11466599923E+02  0.18185719254E+02  0.46570272010E+02  0.51293211379E+02  0.00000000000E+00 0. -1.
</event>
<event>
 5    1  0.8875601E-005  0.9118800E+02  0.7818608E-02  0.1130116E+00
         25   -1    0    0    0    0  0.00000000000E+00  0.00000000000E+00  0.99999998245E-14  0.12500000000E+03  0.12500000000E+03 0.  0.
        -11    1    3    3    0    0  0.14370502137E+02  0.26893344307E+02  0.39592547398E+02  0.49973323977E+02  0.51100000000E-03 0.  1.
         23    2    1    0    0    0  0.14980631480E+01  0.42043507315E+02  0.18246111219E+02  0.79143470747E+02  0.64504788091E+02 0.  0.
         11    1    3    3    0    0 -0.12872438989E+02  0.15150163009E+02 -0.21346436179E+02  0.29170146769E+02  0.51100000000E-03 0. -1.
         22    1    1    0    0    0 -0.14980631480E+01 -0.42043507315E+02 -0.18246111219E+02  0.45856529253E+02  0.00000000000E+00 0.  1.
</event>
<event>
 5    1  0.8875601E-005  0.9118800E+02  0.7818608E-02  0.1130116E+00
         25   -1    0    0    0    0  0.00000000000E+00  0.00000000000E+00  0.99999998245E-14  0.12500000000E+03  0.12500000000E+03 0.  0.
        -11    1    3    3    0    0 -0.25988053949E+02  0.92866936981E+01 -0.42523427929E+02  0.50693821625E+02  0.51100000000E-03 0.  1.
         23    2    1    0    0    0 -0.21432087052E+02  0.22813878360E+02 -0.20265594056E+01  0.93632591050E+02  0.88222150067E+02 0.  0.
         11    1    3    3    0    0  0.45559668969E+01  0.13527184662E+02  0.40496868523E+02  0.42938769424E+02  0.51100000000E-03 0. -1.
         22    1    1    0    0    0  0.21432087052E+02 -0.22813878360E+02  0.20265594056E+01  0.31367408950E+02  0.00000000000E+00 0.  1.
</event>
<event>
 5    1  0.8875601E-005  0.9118800E+02  0.7818608E-02  0.1130116E+00
         25   -1    0    0    0    0  0.00000000000E+00  0.00000000000E+00  0.99999998245E-14  0.12500000000E+03  0.12500000000E+03 0.  0.
        -11    1    3    3    0    0 -0.38318694563E+02  0.41790925716E+01 -0.26363303709E+02  0.46699153638E+02  0.51100000000E-03 0.  1.
         23    2    1    0    0    0  0.44904041916E+01  0.24813850723E+02 -0.15340542987E+02  0.95483510089E+02  0.90806814294E+02 0.  0.
         11    1    3    3    0    0  0.42809098755E+02  0.20634758152E+02  0.11022760722E+02  0.48784356451E+02  0.51100000000E-03 0. -1.
         22    1    1    0    0    0 -0.44904041916E+01 -0.24813850723E+02  0.15340542987E+02  0.29516489911E+02  0.00000000000E+00 0. -1.
</event>
<event>
 5    1  0.8875601E-005  0.9118800E+02  0.7818608E-02  0.1130116E+00
         25   -1    0    0    0    0  0.00000000000E+00  0.00000000000E+00  0.99999998245E-14  0.12500000000E+03  0.12500000000E+03 0.  0.
        -11    1    3    3    0    0 -0.50270756918E+02 -0.11565536429E+02  0.17207376427E+02  0.54378345301E+02  0.51100000000E-03 0. -1.
         23    2    1    0    0    0 -0.97266763527E+01  0.16889290525E+01  0.25342245104E+02  0.97802755634E+02  0.93945137758E+02 0.  0.
         11    1    3    3    0    0  0.40544080565E+02  0.13254465482E+02  0.81348686771E+01  0.43424410332E+02  0.51100000000E-03 0.  1.
         22    1    1    0    0    0  0.97266763527E+01 -0.16889290525E+01 -0.25342245104E+02  0.27197244366E+02  0.00000000000E+00 0.  1.
</event>
<event>
 5    1  0.8875601E-005  0.9118800E+02  0.7818608E-02  0.1130116E+00
         25   -1    0    0    0    0  0.00000000000E+00  0.00000000000E+00  0.99999998245E-14  0.12500000000E+03  0.12500000000E+03 0.  0.
        -11    1    3    3    0    0  0.30647235540E+02 -0.31200402092E+02  0.32187950276E+02  0.54302691279E+02  0.51100000000E-03 0. -1.
         23    2    1    0    0    0  0.18714327978E+01 -0.29767778766E+02  0.34867559936E+01  0.94970341648E+02  0.90097643765E+02 0.  0.
         11    1    3    3    0    0 -0.28775802742E+02  0.14326233261E+01 -0.28701194283E+02  0.40667650369E+02  0.51100000000E-03 0.  1.
         22    1    1    0    0    0 -0.18714327978E+01  0.29767778766E+02 -0.34867559936E+01  0.30029658352E+02  0.00000000000E+00 0. -1.
</event>
<event>
 5    1  0.8875601E-005  0.9118800E+02  0.7818608E-02  0.1130116E+00
         25   -1    0    0    0    0  0.00000000000E+00  0.00000000000E+00  0.99999998245E-14  0.12500000000E+03  0.12500000000E+03 0.  0.
        -11    1    3    3    0    0  0.21426754719E+02 -0.24416894471E+02 -0.42093820708E+01  0.32756822969E+02  0.51100000000E-03 0.  1.
         23    2    1    0    0    0 -0.20266402373E+02  0.19980209436E+02 -0.11914429491E+02  0.94147294051E+02  0.88948431761E+02 0.  0.
         11    1    3    3    0    0 -0.41693157092E+02  0.44397103907E+02 -0.77050474198E+01  0.61390471082E+02  0.51100000000E-03 0. -1.
         22    1    1    0    0    0  0.20266402373E+02 -0.19980209436E+02  0.11914429491E+02  0.30852705949E+02  0.00000000000E+00 0. -1.
</event>
<event>
 5    1  0.8875601E-005  0.9118800E+02  0.7818608E-02  0.1130116E+00
         25   -1    0    0    0    0  0.00000000000E+00  0.00000000000E+00  0.99999998245E-14  0.12500000000E+03  0.12500000000E+03 0.  0.
        -11    1    3    3    0    0 -0.27726342079E+02 -0.14290126354E+02  0.52002799609E+01  0.31622787167E+02  0.51100000000E-03 0. -1.
         23    2    1    0    0    0  0.24901069778E+02  0.87446521759E+01 -0.17435091920E+02  0.93369087146E+02  0.87848003884E+02 0.  0.
         11    1    3    3    0    0  0.52627411856E+02  0.23034778530E+02 -0.22635371881E+02  0.61746299979E+02  0.51100000000E-03 0.  1.
         22    1    1    0    0    0 -0.24901069778E+02 -0.87446521759E+01  0.17435091920E+02  0.31630912854E+02  0.00000000000E+00 0.  1.
</event>
<event>
 5    1  0.8875601E-005  0.9118800E+02  0.7818608E-02  0.1130116E+00
         25   -1    0    0    0    0  0.00000000000E+00  0.00000000000E+00  0.99999998245E-14  0.12500000000E+03  0.12500000000E+03 0.  0.
        -11    1    3    3    0    0 -0.15875528215E+02  0.26303144607E+02  0.21090291343E+02  0.37265107024E+02  0.51100000000E-03 0.  1.
         23    2    1    0    0    0  0.20285916312E+02  0.43451765458E+01 -0.19958178978E+02  0.96212366058E+02  0.91804637762E+02 0.  0.
         11    1    3    3    0    0  0.36161444526E+02 -0.21957968061E+02 -0.41048470322E+02  0.58947259034E+02  0.51100000000E-03 0. -1.
         22    1    1    0    0    0 -0.20285916312E+02 -0.43451765458E+01  0.19958178978E+02  0.28787633942E+02  0.00000000000E+00 0. -1.
</event>
<event>
 5    1  0.8875601E-005  0.9118800E+02  0.7818608E-02  0.1130116E+00
         25   -1    0    0    0    0  0.00000000000E+00  0.00000000000E+00  0.99999998245E-14  0.12500000000E+03  0.12500000000E+03 0.  0.
        -11    1    3    3    0    0  0.83663308494E+01 -0.28759364928E+02  0.38946078571E+02  0.49131391180E+02  0.51100000000E-03 0. -1.
         23    2    1    0    0    0 -0.23370344127E+02 -0.26861426757E+01  0.18837155627E+02  0.94863198922E+02  0.89948872870E+02 0.  0.
         11    1    3    3    0    0 -0.31736674976E+02  0.26073222252E+02 -0.20108922944E+02  0.45731807742E+02  0.51100000000E-03 0.  1.
         22    1    1    0    0    0  0.23370344127E+02  0.26861426757E+01 -0.18837155627E+02  0.30136801078E+02  0.00000000000E+00 0. -1.
</event>
<event>
 5    1  0.8875601E-005  0.9118800E+02  0.7818608E-02  0.1130116E+00
         25   -1    0    0    0    0  0.00000000000E+00  0.00000000000E+00  0.99999998245E-14  0.12500000000E+03  0.12500000000E+03 0.  0.
        -11    1    3    3    0    0  0.11056377983E+01 -0.40200413505E+02 -0.30988975763E+02  0.50770191057E+02  0.51100000000E-03 0. -1.
         23    2    1    0    0    0  0.23543045127E+02 -0.17194087790E+02  0.61150478653E+00  0.95840343505E+02  0.91296691486E+02 0.  0.
         11    1    3    3    0    0  0.22437407329E+02  0.23006325715E+02  0.31600480549E+02  0.45070152449E+02  0.51100000000E-03 0.  1.
         22    1    1    0    0    0 -0.23543045127E+02  0.17194087790E+02 -0.61150478653E+00  0.29159656495E+02  0.00000000000E+00 0. -1.
</event>
<event>
 5    1  0.8875601E-005  0.9118800E+02  0.7818608E-02  0.1130116E+00
         25   -1    0    0    0    0  0.00000000000E+00  0.00000000000E+00  0.99999998245E-14  0.12500000000E+03  0.12500000000E+03 0.  0.
        -11    1    3    3    0    0  0.14896638171E+02  0.22657311750E+00  0.39529770087E+02  0.42244098849E+02  0.51100000000E-03 0. -1.
         23    2    1    0    0    0 -0.16973179172E+02  0.11621930751E+02 -0.99157684250E+01  0.10216405139E+03  0.99579178781E+02 0.  0.
         11    1    3    3    0    0 -0.31869817343E+02  0.11395357634E+02 -0.49445538512E+02  0.59919952538E+02  0.51100000000E-03 0.  1.
         22    1    1    0    0    0  0.16973179172E+02 -0.11621930751E+02  0.99157684250E+01  0.22835948613E+02  0.00000000000E+00 0.  1.
</event>
<event>
 5    1  0.8875601E-005  0.9118800E+02  0.7818608E-02  0.1130116E+00
         25   -1    0    0    0    0  0.00000000000E+00  0.00000000000E+00  0.99999998245E-14  0.12500000000E+03  0.12500000000E+03 0.  0.
        -11    1    3    3    0    0  0.21193097784E+02  0.28979373034E+02  0.55288346161E+01  0.36325190538E+02  0.51100000000E-03 0.  1.
         23    2    1    0    0    0 -0.20224579021E+02 -0.13832170439E+02  0.14446089925E+02  0.96556159722E+02  0.92271555371E+02 0.  0.
         11    1    3    3    0    0 -0.41417676805E+02 -0.42811543473E+02  0.89172553091E+01  0.60230969185E+02  0.51100000000E-03 0. -1.
         22    1    1    0    0    0  0.20224579021E+02  0.13832170439E+02 -0.14446089925E+02  0.28443840278E+02  0.00000000000E+00 0. -1.
</event>
<event>
 5    1  0.8875601E-005  0.9118800E+02  0.7818608E-02  0.1130116E+00
         25   -1    0    0    0    0  0.00000000000E+00  0.00000000000E+00  0.99999998245E-14  0.12500000000E+03  0.12500000000E+03 0.  0.
        -11    1    3    3    0    0 -0.36235886197E+02 -0.45974163868E+01 -0.85823440997E+01  0.37521091621E+02  0.51100000000E-03 0.  1.
         23    2    1    0    0    0  0.10206665759E+02  0.44881511856E+01  0.26381380711E+02  0.96359176423E+02  0.92004315690E+02 0.  0.
         11    1    3    3    0    0  0.46442551956E+02  0.90855675724E+01  0.34963724811E+02  0.58838084802E+02  0.51100000000E-03 0. -1.
         22    1    1    0    0    0 -0.10206665759E+02 -0.44881511856E+01 -0.26381380711E+02  0.28640823577E+02  0.00000000000E+00 0. -1.
</event>
<event>
 5    1  0.8875601E-005  0.9118800E+02  0.7818608E-02  0.1130116E+00
         25   -1    0    0    0    0  0.00000000000E+00  0.00000000000E+00  0.99999998245E-14  0.12500000000E+03  0.12500000000E+03 0.  0.
        -11    1    3    3    0    0  0.41958045850E+02 -0.22323745617E+02  0.29750072539E+02  0.56070438256E+02  0.51100000000E-03 0.  1.
         23    2    1    0    0    0  0.30210116409E+02  0.63034340491E+01  0.11079710527E+02  0.92210605379E+02  0.86183822988E+02 0.  0.
         11    1    3    3    0    0 -0.11747929441E+02  0.28627179666E+02 -0.18670362012E+02  0.36140167123E+02  0.51100000000E-03 0. -1.
         22    1    1    0    0    0 -0.30210116409E+02 -0.63034340491E+01 -0.11079710527E+02  0.32789394621E+02  0.00000000000E+00 0.  1.
</event>
<event>
 5    1  0.8875601E-005  0.9118800E+02  0.7818608E-02  0.1130116E+00
         25   -1    0    0    0    0  0.00000000000E+00  0.00000000000E+00  0.99999998245E-14  0.12500000000E+03  0.12500000000E+03 0.  0.
        -11    1    3    3    0    0  0.11397709622E+02  0.23850602086E+02  0.23357544269E+02  0.35275116995E+02  0.51100000000E-03 0.  1.
         23    2    1    0    0    0  0.63376285725E+01  0.30269658771E-01 -0.30217564142E+02  0.94124967452E+02  0.88917050462E+02 0.  0.
         11    1    3    3    0    0 -0.50600810497E+01 -0.23820332427E+02 -0.53575108411E+02  0.58849850456E+02  0.51100000000E-03 0. -1.
         22    1    1    0    0    0 -0.63376285725E+01 -0.30269658771E-01  0.30217564142E+02  0.30875032548E+02  0.00000000000E+00 0. -1.
</event>
<event>
 5    1  0.8875601E-005  0.9118800E+02  0.7818608E-02  0.1130116E+00
         25   -1    0    0    0    0  0.00000000000E+00  0.00000000000E+00  0.99999998245E-14  0.12500000000E+03  0.12500000000E+03 0.  0.
        -11    1    3    3    0    0  0.67468374493E+01  0.10971800876E+02 -0.33193418731E+02  0.35604820984E+02  0.51100000000E-03 0. -1.
         23    2    1    0    0    0  0.13558776465E+02 -0.10796058461E+02  0.22970963523E+02  0.96223960267E+02  0.91820422929E+02 0.  0.
         11    1    3    3    0    0  0.68119390161E+01 -0.21767859337E+02  0.56164382253E+02  0.60619139283E+02  0.51100000000E-03 0.  1.
         22    1    1    0    0    0 -0.13558776465E+02  0.10796058461E+02 -0.22970963523E+02  0.28776039733E+02  0.00000000000E+00 0. -1.
</event>
<event>
 5    1  0.8875601E-005  0.9118800E+02  0.7818608E-02  0.1130116E+00
         25   -1    0    0    0    0  0.00000000000E+00  0.00000000000E+00  0.99999998245E-14  0.12500000000E+03  0.12500000000E+03 0.  0.
        -11    1    3    3    0    0 -0.72603967812E+01  0.59013934924E+02 -0.31871781984E+01  0.59544235504E+02  0.51100000000E-03 0. -1.
         23    2    1    0    0    0 -0.12861050921E+02  0.24682131847E+02 -0.10787767932E+02  0.95150541039E+02  0.90347303556E+02 0.  0.
         11    1    3    3    0    0 -0.56006541393E+01 -0.34331803077E+02 -0.76005897332E+01  0.35606305535E+02  0.51100000000E-03 0.  1.
         22    1    1    0    0    0  0.12861050921E+02 -0.24682131847E+02  0.10787767932E+02  0.29849458961E+02  0.00000000000E+00 0. -1.
</event>
<event>
 5    1  0.8875601E-005  0.9118800E+02  0.7818608E-02  0.1130116E+00
         25   -1    0    0    0    0  0.00000000000E+00  0.00000000000E+00  0.99999998245E-14  0.12500000000E+03  0.12500000000E+03 0.  0.
        -11    1    3    3    0    0  0.37686474581E+02 -0.20648705223E+02  0.92296801008E+01  0.43952547011E+02  0.51100000000E-03 0. -1.
         23    2    1    0    0    0  0.41657540722E+02  0.46789566583E+01  0.26992398727E+02  0.75141872042E+02  0.56218039904E+02 0.  0.
         11    1    3    3    0    0  0.39710661405E+01  0.25327661881E+02  0.17762718626E+02  0.31189325031E+02  0.51100000000E-03 0.  1.
         22    1    1    0    0    0 -0.41657540722E+02 -0.46789566583E+01 -0.26992398727E+02  0.49858127958E+02  0.00000000000E+00 0. -1.
</event>
<event>
 5    1  0.8875601E-005  0.9118800E+02  0.7818608E-02  0.1130116E+00
         25   -1    0    0    0    0  0.00000000000E+00  0.00000000000E+00  0.99999998245E-14  0.12500000000E+03  0.12500000000E+03 0.  0.
        -11    1    3    3    0    0  0.13220207210E+02 -0.78721114900E+01 -0.51534094726E+02  0.53782031735E+02  0.51100000000E-03 0. -1.
         23    2    1    0    0    0 -0.84079236238E+01 -0.21055074088E+02 -0.16746450833E+02  0.96813958419E+02  0.92620136065E+02 0.  0.
         11    1    3    3    0    0 -0.21628130834E+02 -0.13182962598E+02  0.34787643893E+02  0.43031926684E+02  0.51100000000E-03 0.  1.
         22    1    1    0    0    0  0.84079236238E+01  0.21055074088E+02  0.16746450833E+02  0.28186041581E+02  0.00000000000E+00 0. -1.
</event>
<event>
 5    1  0.8875601E-005  0.9118800E+02  0.7818608E-02  0.1130116E+00
         25   -1    0    0    0    0  0.00000000000E+00  0.00000000000E+00  0.99999998245E-14  0.12500000000E+03  0.12500000000E+03 0.  0.
        -11    1    3    3    0    0  0.54407115327E+02  0.24247600351E+02  0.88062546807E+01  0.60213208208E+02  0.51100000000E-03 0.  1.
         23    2    1    0    0    0  0.27919437560E+02  0.74370286774E+01 -0.68962468942E+01  0.95295410953E+02  0.90547516466E+02 0.  0.
         11    1    3    3    0    0 -0.26487677767E+02 -0.16810571673E+02 -0.15702501575E+02  0.35082202745E+02  0.51100000000E-03 0. -1.
         22    1    1    0    0    0 -0.27919437560E+02 -0.74370286774E+01  0.68962468942E+01  0.29704589047E+02  0.00000000000E+00 0.  1.
</event>
<event>
 5    1  0.8875601E-005  0.9118800E+02  0.7818608E-02  0.1130116E+00
         25   -1    0    0    0    0  0.00000000000E+00  0.00000000000E+00  0.99999998245E-14  0.12500000000E+03  0.12500000000E+03 0.  0.
        -11    1    3    3    0    0 -0.40121186568E+02 -0.14678129093E+02  0.43276258538E+02  0.60811114433E+02  0.51100000000E-03 0.  1.
         23    2    1    0    0    0 -0.13235269001E+02 -0.22038068255E+01  0.27532957123E+02  0.94371698742E+02  0.89263232551E+02 0.  0.
         11    1    3    3    0    0  0.26885917567E+02  0.12474322267E+02 -0.15743301415E+02  0.33560584309E+02  0.51100000000E-03 0. -1.
         22    1    1    0    0    0  0.13235269001E+02  0.22038068255E+01 -0.27532957123E+02  0.30628301258E+02  0.00000000000E+00 0.  1.
</event>
<event>
 5    1  0.8875601E-005  0.9118800E+02  0.7818608E-02  0.1130116E+00
         25   -1    0    0    0    0  0.00000000000E+00  0.00000000000E+00  0.99999998245E-14  0.12500000000E+03  0.12500000000E+03 0.  0.
        -11    1    3    3    0    0  0.24967906251E+02 -0.11800477430E+02 -0.21089469903E+02  0.34747853908E+02  0.51100000000E-03 0. -1.
         23    2    1    0    0    0 -0.17555678571E+02 -0.49018583634E+01  0.22506937180E+02  0.96038089035E+02  0.91567036966E+02 0.  0.
         11    1    3    3    0    0 -0.42523584822E+02  0.68986190667E+01  0.43596407084E+02  0.61290235127E+02  0.51100000000E-03 0.  1.
         22    1    1    0    0    0  0.17555678571E+02  0.49018583634E+01 -0.22506937180E+02  0.28961910965E+02  0.00000000000E+00 0.  1.
</event>
<event>
 5    1  0.8875601E-005  0.9118800E+02  0.7818608E-02  0.1130116E+00
         25   -1    0    0    0    0  0.00000000000E+00  0.00000000000E+00  0.99999998245E-14  0.12500000000E+03  0.12500000000E+03 0.  0.
        -11    1    3    3    0    0  0.19922684506E+02 -0.21850418406E+02  0.53190393463E+02  0.60856980696E+02  0.51100000000E-03 0.  1.
         23    2    1    0    0    0  0.42514228143E+01 -0.19248957738E+02  0.25656494508E+02  0.92644897151E+02  0.86811429476E+02 0.  0.
         11    1    3    3    0    0 -0.15671261692E+02  0.26014606679E+01 -0.27533898954E+02  0.31787916455E+02  0.51100000000E-03 0. -1.
         22    1    1    0    0    0 -0.42514228143E+01  0.19248957738E+02 -0.25656494508E+02  0.32355102849E+02  0.00000000000E+00 0.  1.
</event>
<event>
 5    1  0.8875601E-005  0.9118800E+02  0.7818608E-02  0.1130116E+00
         25   -1    0    0    0    0  0.00000000000E+00  0.00000000000E+00  0.99999998245E-14  0.12500000000E+03  0.12500000000E+03 0.  0.
        -11    1    3    3    0    0 -0.20816994131E+02  0.29747904222E+02  0.35344344324E+02  0.50670580480E+02  0.51100000000E-03 0. -1.
         23    2    1    0    0    0 -0.88552992588E+00  0.29055120526E+02 -0.48394849905E+01  0.95531291053E+02  0.90872563315E+02 0.  0.
         11    1    3    3    0    0  0.19931464205E+02 -0.69278369617E+00 -0.40183829314E+02  0.44860710574E+02  0.51100000000E-03 0.  1.
         22    1    1    0    0    0  0.88552992588E+00 -0.29055120526E+02  0.48394849905E+01  0.29468708947E+02  0.00000000000E+00 0. -1.
</event>
<event>
 5    1  0.8875601E-005  0.9118800E+02  0.7818608E-02  0.1130116E+00
         25   -1    0    0    0    0  0.00000000000E+00  0.00000000000E+00  0.99999998245E-14  0.12500000000E+03  0.12500000000E+03 0.  0.
        -11    1    3    3    0    0  0.53595482325E+02  0.52413782662E+01 -0.20313704203E+02  0.57555141825E+02  0.51100000000E-03 0.  1.
         23    2    1    0    0    0  0.26254388476E+02 -0.12563888585E+02 -0.18210678386E+00  0.95893688425E+02  0.91369700154E+02 0.  0.
         11    1    3    3    0    0 -0.27341093849E+02 -0.17805266851E+02  0.20131597420E+02  0.38338546600E+02  0.51100000000E-03 0. -1.
         22    1    1    0    0    0 -0.26254388476E+02  0.12563888585E+02  0.18210678386E+00  0.29106311575E+02  0.00000000000E+00 0.  1.
</event>
<event>
 5    1  0.8875601E-005  0.9118800E+02  0.7818608E-02  0.1130116E+00
         25   -1    0    0    0    0  0.00000000000E+00  0.00000000000E+00  0.99999998245E-14  0.12500000000E+03  0.12500000000E+03 0.  0.
        -11    1    3    3    0    0  0.34524416896E+02 -0.73630542524E+01 -0.17002586977E+02  0.39182111915E+02  0.51100000000E-03 0. -1.
         23    2    1    0    0    0 -0.20552901641E+02 -0.13373627831E+02 -0.17977436959E+02  0.94595001614E+02  0.89575389497E+02 0.  0.
         11    1    3    3    0    0 -0.55077318538E+02 -0.60105735782E+01 -0.97484998215E+00  0.55412889699E+02  0.51100000000E-03 0.  1.
         22    1    1    0    0    0  0.20552901641E+02  0.13373627831E+02  0.17977436959E+02  0.30404998386E+02  0.00000000000E+00 0.  1.
</event>
<event>
 5    1  0.8875601E-005  0.9118800E+02  0.7818608E-02  0.1130116E+00
         25   -1    0    0    0    0  0.00000000000E+00  0.00000000000E+00  0.99999998245E-14  0.12500000000E+03  0.12500000000E+03 0.  0.
        -11    1    3    3    0    0  0.38366684831E+02 -0.10494146459E+02 -0.44600363010E+02  0.59760538784E+02  0.51100000000E-03 0.  1.
         23    2    1    0    0    0  0.12246466063E+02 -0.16704784217E+02 -0.20935380006E+02  0.95549772789E+02  0.90897982361E+02 0.  0.
         11    1    3    3    0    0 -0.26120218768E+02 -0.62106377578E+01  0.23664983004E+02  0.35789234005E+02  0.51100000000E-03 0. -1.
         22    1    1    0    0    0 -0.12246466063E+02  0.16704784217E+02  0.20935380006E+02  0.29450227211E+02  0.00000000000E+00 0.  1.
</event>
<event>
 5    1  0.8875601E-005  0.9118800E+02  0.7818608E-02  0.1130116E+00
         25   -1    0    0    0    0  0.00000000000E+00  0.00000000000E+00  0.99999998245E-14  0.12500000000E+03  0.12500000000E+03 0.  0.
        -11    1    3    3    0    0 -0.29034244711E+01  0.10134931466E+01  0.34726307942E+02  0.34862207411E+02  0.51100000000E-03 0.  1.
         23    2    1    0    0    0 -0.88735173171E+01 -0.55386950931E+01 -0.26387155974E+02  0.96615172128E+02  0.92351464699E+02 0.  0.
         11    1    3    3    0    0 -0.59700928460E+01 -0.65521882397E+01 -0.61113463916E+02  0.61752964717E+02  0.51100000000E-03 0. -1.
         22    1    1    0    0    0  0.88735173171E+01  0.55386950931E+01  0.26387155974E+02  0.28384827872E+02  0.00000000000E+00 0. -1.
</event>
<event>
 5    1  0.8875601E-005  0.9118800E+02  0.7818608E-02  0.1130116E+00
         25   -1    0    0    0    0  0.00000000000E+00  0.00000000000E+00  0.99999998245E-14  0.12500000000E+03  0.12500000000E+03 0.  0.
        -11    1    3    3    0    0 -0.91992638347E+01 -0.22204256470E+02 -0.22279159153E+02  0.32772189327E+02  0.51100000000E-03 0.  1.
         23    2    1    0    0    0  0.16753112485E+02  0.26729963516E+02 -0.18811364890E+02  0.88270921921E+02  0.80266621209E+02 0.  0.
         11    1    3    3    0    0  0.25952376319E+02  0.48934219986E+02  0.34677942634E+01  0.55498732594E+02  0.51100000000E-03 0. -1.
         22    1    1    0    0    0 -0.16753112485E+02 -0.26729963516E+02  0.18811364890E+02  0.36729078079E+02  0.00000000000E+00 0. -1.
</event>
<event>
 5    1  0.8875601E-005  0.9118800E+02  0.7818608E-02  0.1130116E+00
         25   -1    0    0    0    0  0.00000000000E+00  0.00000000000E+00  0.99999998245E-14  0.12500000000E+03  0.12500000000E+03 0.  0.
        -11    1    3    3    0    0 -0.21407884980E+02 -0.49784747757E+02  0.16742994514E+02  0.56719895223E+02  0.51100000000E-03 0. -1.
         23    2    1    0    0    0 -0.19601210981E+02 -0.11504674656E+02 -0.62719473331E+01  0.10142241882E+03  0.98643827508E+02 0.  0.
         11    1    3    3    0    0  0.18066739983E+01  0.38280073101E+02 -0.23014941847E+02  0.44702523598E+02  0.51100000000E-03 0.  1.
         22    1    1    0    0    0  0.19601210981E+02  0.11504674656E+02  0.62719473331E+01  0.23577581178E+02  0.00000000000E+00 0. -1.
</event>
<event>
 5    1  0.8875601E-005  0.9118800E+02  0.7818608E-02  0.1130116E+00
         25   -1    0    0    0    0  0.00000000000E+00  0.00000000000E+00  0.99999998245E-14  0.12500000000E+03  0.12500000000E+03 0.  0.
        -11    1    3    3    0    0 -0.32997311749E+02 -0.11600667217E+02 -0.16142820204E+02  0.38522573992E+02  0.51100000000E-03 0.  1.
         23    2    1    0    0    0  0.13111328648E+02 -0.11766231595E+02  0.20898242089E+02  0.97667095521E+02  0.93764459579E+02 0.  0.
         11    1    3    3    0    0  0.46108640396E+02 -0.16556437800E+00  0.37041062294E+02  0.59144521529E+02  0.51100000000E-03 0. -1.
         22    1    1    0    0    0 -0.13111328648E+02  0.11766231595E+02 -0.20898242089E+02  0.27332904479E+02  0.00000000000E+00 0. -1.
</event>
<event>
 5    1  0.8875601E-005  0.9118800E+02  0.7818608E-02  0.1130116E+00
         25   -1    0    0    0    0  0.00000000000E+00  0.00000000000E+00  0.99999998245E-14  0.12500000000E+03  0.12500000000E+03 0.  0.
        -11    1    3    3    0    0 -0.18281090150E+02  0.14968174203E+02 -0.30929319809E+02  0.38921296486E+02  0.51100000000E-03 0.  1.
         23    2    1    0    0    0  0.25617125773E+02  0.15335271295E+02  0.38072160497E+01  0.94901784561E+02  0.90002478523E+02 0.  0.
         11    1    3    3    0    0  0.43898215923E+02  0.36709709248E+00  0.34736535859E+02  0.55980488075E+02  0.51100000000E-03 0. -1.
         22    1    1    0    0    0 -0.25617125773E+02 -0.15335271295E+02 -0.38072160497E+01  0.30098215439E+02  0.00000000000E+00 0. -1.
</event>
<event>
 5    1  0.8875601E-005  0.9118800E+02  0.7818608E-02  0.1130116E+00
         25   -1    0    0    0    0  0.00000000000E+00  0.00000000000E+00  0.99999998245E-14  0.12500000000E+03  0.12500000000E+03 0.  0.
        -11    1    3    3    0    0  0.11334589187E+02  0.16272580707E+00  0.31961705357E+02  0.33912387137E+02  0.51100000000E-03 0. -1.
         23    2    1    0    0    0 -0.23505403329E+01 -0.14147022248E+02 -0.26079240886E+02  0.95237774217E+02  0.90467914502E+02 0.  0.
         11    1    3    3    0    0 -0.13685129520E+02 -0.14309748055E+02 -0.58040946243E+02  0.61325387080E+02  0.51100000000E-03 0.  1.
         22    1    1    0    0    0  0.23505403329E+01  0.14147022248E+02  0.26079240886E+02  0.29762225783E+02  0.00000000000E+00 0.  1.
</event>
<event>
 5    1  0.8875601E-005  0.9118800E+02  0.7818608E-02  0.1130116E+00
         25   -1    0    0    0    0  0.00000000000E+00  0.00000000000E+00  0.99999998245E-14  0.12500000000E+03  0.12500000000E+03 0.  0.
        -11    1    3    3    0    0  0.64269405711E+01  0.12954269065E+02  0.37032016309E+02  0.39755362962E+02  0.51100000000E-03 0.  1.
         23    2    1    0    0    0  0.26381920648E+02  0.31428916944E+01 -0.13671309241E+02  0.95120438397E+02  0.90305645444E+02 0.  0.
         11    1    3    3    0    0  0.19954980076E+02 -0.98113773703E+01 -0.50703325550E+02  0.55365075434E+02  0.51100000000E-03 0. -1.
         22    1    1    0    0    0 -0.26381920648E+02 -0.31428916944E+01  0.13671309241E+02  0.29879561603E+02  0.00000000000E+00 0. -1.
</event>
<event>
 5    1  0.8875601E-005  0.9118800E+02  0.7818608E-02  0.1130116E+00
         25   -1    0    0    0    0  0.00000000000E+00  0.00000000000E+00  0.99999998245E-14  0.12500000000E+03  0.12500000000E+03 0.  0.
        -11    1    3    3    0    0  0.57007156308E+01 -0.45223936816E+01  0.54323200081E+02  0.54808395986E+02  0.51100000000E-03 0. -1.
         23    2    1    0    0    0  0.21408754163E+02  0.80833040758E+01  0.19982860639E+02  0.94619261383E+02  0.89609236945E+02 0.  0.
         11    1    3    3    0    0  0.15708038532E+02  0.12605697757E+02 -0.34340339441E+02  0.39810865397E+02  0.51100000000E-03 0.  1.
         22    1    1    0    0    0 -0.21408754163E+02 -0.80833040758E+01 -0.19982860639E+02  0.30380738617E+02  0.00000000000E+00 0. -1.
</event>
<event>
 5    1  0.8875601E-005  0.9118800E+02  0.7818608E-02  0.1130116E+00
         25   -1    0    0    0    0  0.00000000000E+00  0.00000000000E+00  0.99999998245E-14  0.12500000000E+03  0.12500000000E+03 0.  0.
        -11    1    3    3    0    0  0.94571814430E+01 -0.80956172719E+01  0.56508618363E+02  0.57863643590E+02  0.51100000000E-03 0. -1.
         23    2    1    0    0    0  0.19207973420E+02 -0.97528618501E+01  0.20295390563E+02  0.95403252961E+02  0.90696269164E+02 0.  0.
         11    1    3    3    0    0  0.97507919774E+01 -0.16572445781E+01 -0.36213227800E+02  0.37539609371E+02  0.51100000000E-03 0.  1.
         22    1    1    0    0    0 -0.19207973420E+02  0.97528618501E+01 -0.20295390563E+02  0.29596747039E+02  0.00000000000E+00 0. -1.
</event>
<event>
 5    1  0.8875601E-005  0.9118800E+02  0.7818608E-02  0.1130116E+00
         25   -1    0    0    0    0  0.00000000000E+00  0.00000000000E+00  0.99999998245E-14  0.12500000000E+03  0.12500000000E+03 0.  0.
        -11    1    3    3    0    0 -0.17859815466E+02 -0.40231816000E+02  0.42521871069E+02  0.61201973388E+02  0.51100000000E-03 0.  1.
         23    2    1    0    0    0 -0.41728567474E+01 -0.25955032875E+02  0.16218923099E+02  0.94111006305E+02  0.88897421652E+02 0.  0.
         11    1    3    3    0    0  0.13686958719E+02  0.14276783125E+02 -0.26302947970E+02  0.32909032917E+02  0.51100000000E-03 0. -1.
         22    1    1    0    0    0  0.41728567474E+01  0.25955032875E+02 -0.16218923099E+02  0.30888993695E+02  0.00000000000E+00 0.  1.
</event>
<event>
 5    1  0.8875601E-005  0.9118800E+02  0.7818608E-02  0.1130116E+00
         25   -1    0    0    0    0  0.00000000000E+00  0.00000000000E+00  0.99999998245E-14  0.12500000000E+03  0.12500000000E+03 0.  0.
        -11    1    3    3    0    0  0.43302419452E+02 -0.19668961073E+02 -0.34784850651E+02  0.58923283981E+02  0.51100000000E-03 0.  1.
         23    2    1    0    0    0  0.20728597914E+02  0.48344614062E+01 -0.21367520167E+02  0.94840130858E+02  0.89916809966E+02 0.  0.
         11    1    3    3    0    0 -0.22573821538E+02  0.24503422479E+02  0.13417330484E+02  0.35916846877E+02  0.51100000000E-03 0. -1.
         22    1    1    0    0    0 -0.20728597914E+02 -0.48344614062E+01  0.21367520167E+02  0.30159869142E+02  0.00000000000E+00 0.  1.
</event>
<event>
 5    1  0.8875601E-005  0.9118800E+02  0.7818608E-02  0.1130116E+00
         25   -1    0    0    0    0  0.00000000000E+00  0.00000000000E+00  0.99999998245E-14  0.12500000000E+03  0.12500000000E+03 0.  0.
        -11    1    3    3    0    0  0.24142755870E+02  0.44046501579E+02  0.20333124168E+02  0.54188586446E+02  0.51100000000E-03 0. -1.
         23    2    1    0    0    0 -0.61936104085E+01  0.20902493612E+02 -0.80671380605E+01  0.10175448935E+03  0.99063728663E+02 0.  0.
         11    1    3    3    0    0 -0.30336366278E+02 -0.23144007968E+02 -0.28400262228E+02  0.47565902900E+02  0.51100000000E-03 0.  1.
         22    1    1    0    0    0  0.61936104085E+01 -0.20902493612E+02  0.80671380605E+01  0.23245510654E+02  0.00000000000E+00 0. -1.
</event>
<event>
 5    1  0.8875601E-005  0.9118800E+02  0.7818608E-02  0.1130116E+00
         25   -1    0    0    0    0  0.00000000000E+00  0.00000000000E+00  0.99999998245E-14  0.12500000000E+03  0.12500000000E+03 0.  0.
        -11    1    3    3    0    0 -0.31143276919E+02 -0.17798594894E+02 -0.26617856892E+02  0.44667706268E+02  0.51100000000E-03 0.  1.
         23    2    1    0    0    0  0.38168018646E+01  0.19065821324E+02 -0.21933603711E+02  0.95688628641E+02  0.91088732345E+02 0.  0.
         11    1    3    3    0    0  0.34960078783E+02  0.36864416218E+02  0.46842531816E+01  0.51020922373E+02  0.51100000000E-03 0. -1.
         22    1    1    0    0    0 -0.38168018646E+01 -0.19065821324E+02  0.21933603711E+02  0.29311371359E+02  0.00000000000E+00 0. -1.
</event>
<event>
 5    1  0.8875601E-005  0.9118800E+02  0.7818608E-02  0.1130116E+00
         25   -1    0    0    0    0  0.00000000000E+00  0.00000000000E+00  0.99999998245E-14  0.12500000000E+03  0.12500000000E+03 0.  0.
        -11    1    3    3    0    0 -0.18692527389E+02 -0.30912543075E+02 -0.27443488784E+02  0.45366738658E+02  0.51100000000E-03 0.  1.
         23    2    1    0    0    0  0.22756390677E+02 -0.49523916377E+01 -0.18882538178E+02  0.95017842846E+02  0.90163522066E+02 0.  0.
         11    1    3    3    0    0  0.41448918067E+02  0.25960151437E+02  0.85609506058E+01  0.49651104188E+02  0.51100000000E-03 0. -1.
         22    1    1    0    0    0 -0.22756390677E+02  0.49523916377E+01  0.18882538178E+02  0.29982157154E+02  0.00000000000E+00 0. -1.
</event>
<event>
 5    1  0.8875601E-005  0.9118800E+02  0.7818608E-02  0.1130116E+00
         25   -1    0    0    0    0  0.00000000000E+00  0.00000000000E+00  0.99999998245E-14  0.12500000000E+03  0.12500000000E+03 0.  0.
        -11    1    3    3    0    0 -0.14516194969E+02  0.13630174756E+02  0.36510388503E+02  0.41587378484E+02  0.51100000000E-03 0. -1.
         23    2    1    0    0    0  0.22259797320E+02  0.16489817887E+02 -0.47074305189E+01  0.96900665973E+02  0.92737082622E+02 0.  0.
         11    1    3    3    0    0  0.36775992288E+02  0.28596431315E+01 -0.41217819022E+02  0.55313287489E+02  0.51100000000E-03 0.  1.
         22    1    1    0    0    0 -0.22259797320E+02 -0.16489817887E+02  0.47074305189E+01  0.28099334027E+02  0.00000000000E+00 0.  1.
</event>
<event>
 5    1  0.8875601E-005  0.9118800E+02  0.7818608E-02  0.1130116E+00
         25   -1    0    0    0    0  0.00000000000E+00  0.00000000000E+00  0.99999998245E-14  0.12500000000E+03  0.12500000000E+03 0.  0.
        -11    1    3    3    0    0 -0.33445311120E+01 -0.11570809871E+02  0.54181925259E+02  0.55504509316E+02  0.51100000000E-03 0.  1.
         23    2    1    0    0    0  0.12494039894E+02 -0.18538084197E+02  0.15745338156E+02  0.97656312022E+02  0.93750082697E+02 0.  0.
         11    1    3    3    0    0  0.15838571006E+02 -0.69672743259E+01 -0.38436587102E+02  0.42151802706E+02  0.51100000000E-03 0. -1.
         22    1    1    0    0    0 -0.12494039894E+02  0.18538084197E+02 -0.15745338156E+02  0.27343687978E+02  0.00000000000E+00 0.  1.
</event>
<event>
 5    1  0.8875601E-005  0.9118800E+02  0.7818608E-02  0.1130116E+00
         25   -1    0    0    0    0  0.00000000000E+00  0.00000000000E+00  0.99999998245E-14  0.12500000000E+03  0.12500000000E+03 0.  0.
        -11    1    3    3    0    0  0.38735844276E+02  0.12780415118E+02 -0.71697869199E+01  0.41415099748E+02  0.51100000000E-03 0. -1.
         23    2    1    0    0    0  0.33265280686E+01 -0.15264754027E+02  0.24047665936E+02  0.96323027679E+02  0.91955189738E+02 0.  0.
         11    1    3    3    0    0 -0.35409316207E+02 -0.28045169145E+02  0.31217452856E+02  0.54907927932E+02  0.51100000000E-03 0.  1.
         22    1    1    0    0    0 -0.33265280686E+01  0.15264754027E+02 -0.24047665936E+02  0.28676972321E+02  0.00000000000E+00 0.  1.
</event>
<event>
 5    1  0.8875601E-005  0.9118800E+02  0.7818608E-02  0.1130116E+00
         25   -1    0    0    0    0  0.00000000000E+00  0.00000000000E+00  0.99999998245E-14  0.12500000000E+03  0.12500000000E+03 0.  0.
        -11    1    3    3    0    0 -0.14649966919E+02  0.23313798998E+02 -0.21320596371E+02  0.34824166671E+02  0.51100000000E-03 0. -1.
         23    2    1    0    0    0 -0.13258556021E+01 -0.30174527035E+02  0.21156868230E+01  0.94722349735E+02  0.89752924374E+02 0.  0.
         11    1    3    3    0    0  0.13324111316E+02 -0.53488326033E+02  0.23436283194E+02  0.59898183064E+02  0.51100000000E-03 0.  1.
         22    1    1    0    0    0  0.13258556021E+01  0.30174527035E+02 -0.21156868230E+01  0.30277650265E+02  0.00000000000E+00 0.  1.
</event>
<event>
 5    1  0.8875601E-005  0.9118800E+02  0.7818608E-02  0.1130116E+00
         25   -1    0    0    0    0  0.00000000000E+00  0.00000000000E+00  0.99999998245E-14  0.12500000000E+03  0.12500000000E+03 0.  0.
        -11    1    3    3    0    0  0.50297530054E+01 -0.68697330486E+01 -0.38787083405E+02  0.39710571474E+02  0.51100000000E-03 0.  1.
         23    2    1    0    0    0  0.13208320203E+02 -0.21743764386E+02  0.14555918019E+02  0.95689152833E+02  0.91089451685E+02 0.  0.
         11    1    3    3    0    0  0.81785671975E+01 -0.14874031338E+02  0.53343001425E+02  0.55978581358E+02  0.51100000000E-03 0. -1.
         22    1    1    0    0    0 -0.13208320203E+02  0.21743764386E+02 -0.14555918019E+02  0.29310847167E+02  0.00000000000E+00 0. -1.
</event>
<event>
 5    1  0.8875601E-005  0.9118800E+02  0.7818608E-02  0.1130116E+00
         25   -1    0    0    0    0  0.00000000000E+00  0.00000000000E+00  0.99999998245E-14  0.12500000000E+03  0.12500000000E+03 0.  0.
        -11    1    3    3    0    0 -0.34705668470E+02 -0.48675729512E+01  0.72470580230E+01  0.35786820767E+02  0.51100000000E-03 0.  1.
         23    2    1    0    0    0  0.15320322803E+02  0.17831379242E+02 -0.17154772002E+02  0.95897481571E+02  0.91374889290E+02 0.  0.
         11    1    3    3    0    0  0.50025991273E+02  0.22698952193E+02 -0.24401830025E+02  0.60110660804E+02  0.51100000000E-03 0. -1.
         22    1    1    0    0    0 -0.15320322803E+02 -0.17831379242E+02  0.17154772002E+02  0.29102518429E+02  0.00000000000E+00 0. -1.
</event>
<event>
 5    1  0.8875601E-005  0.9118800E+02  0.7818608E-02  0.1130116E+00
         25   -1    0    0    0    0  0.00000000000E+00  0.00000000000E+00  0.99999998245E-14  0.12500000000E+03  0.12500000000E+03 0.  0.
        -11    1    3    3    0    0  0.14143307391E+02 -0.49539105570E+02  0.11894054849E+02  0.52873667034E+02  0.51100000000E-03 0.  1.
         23    2    1    0    0    0 -0.17916624730E+02 -0.21189113797E+02  0.92431744374E+01  0.95752431573E+02  0.91176246321E+02 0.  0.
         11    1    3    3    0    0 -0.32059932121E+02  0.28349991773E+02 -0.26508804114E+01  0.42878764539E+02  0.51100000000E-03 0. -1.
         22    1    1    0    0    0  0.17916624730E+02  0.21189113797E+02 -0.92431744374E+01  0.29247568427E+02  0.00000000000E+00 0.  1.
</event>
<event>
 5    1  0.8875601E-005  0.9118800E+02  0.7818608E-02  0.1130116E+00
         25   -1    0    0    0    0  0.00000000000E+00  0.00000000000E+00  0.99999998245E-14  0.12500000000E+03  0.12500000000E+03 0.  0.
        -11    1    3    3    0    0 -0.81968097676E+01 -0.32312421440E+02  0.16103257085E+02  0.37021549923E+02  0.51100000000E-03 0. -1.
         23    2    1    0    0    0 -0.91554806413E+01  0.26311700399E+02  0.53955991050E+01  0.96623233212E+02  0.92362374931E+02 0.  0.
         11    1    3    3    0    0 -0.95867087365E+00  0.58624121839E+02 -0.10707657980E+02  0.59601683289E+02  0.51100000000E-03 0.  1.
         22    1    1    0    0    0  0.91554806413E+01 -0.26311700399E+02 -0.53955991050E+01  0.28376766788E+02  0.00000000000E+00 0.  1.
</event>
<event>
 5    1  0.8875601E-005  0.9118800E+02  0.7818608E-02  0.1130116E+00
         25   -1    0    0    0    0  0.00000000000E+00  0.00000000000E+00  0.99999998245E-14  0.12500000000E+03  0.12500000000E+03 0.  0.
        -11    1    3    3    0    0 -0.37903682756E+02  0.50129682839E+01 -0.23688332144E+02  0.44977284239E+02  0.51100000000E-03 0.  1.
         23    2    1    0    0    0 -0.18969106183E+01 -0.27698599830E+02 -0.76108820111E+01  0.96212220867E+02  0.91804440071E+02 0.  0.
         11    1    3    3    0    0  0.36006772138E+02 -0.32711568113E+02  0.16077450133E+02  0.51234936628E+02  0.51100000000E-03 0. -1.
         22    1    1    0    0    0  0.18969106183E+01  0.27698599830E+02  0.76108820111E+01  0.28787779133E+02  0.00000000000E+00 0.  1.
</event>
<event>
 5    1  0.8875601E-005  0.9118800E+02  0.7818608E-02  0.1130116E+00
         25   -1    0    0    0    0  0.00000000000E+00  0.00000000000E+00  0.99999998245E-14  0.12500000000E+03  0.12500000000E+03 0.  0.
        -11    1    3    3    0    0  0.30035803278E+02  0.15691733125E+02 -0.34031787227E+02  0.48026477168E+02  0.51100000000E-03 0.  1.
         23    2    1    0    0    0 -0.44849284447E+01  0.29251470241E+02 -0.53140303730E+01  0.94933373764E+02  0.90046340520E+02 0.  0.
         11    1    3    3    0    0 -0.34520731723E+02  0.13559737116E+02  0.28717756854E+02  0.46906896596E+02  0.51100000000E-03 0. -1.
         22    1    1    0    0    0  0.44849284447E+01 -0.29251470241E+02  0.53140303730E+01  0.30066626236E+02  0.00000000000E+00 0. -1.
</event>
<event>
 5    1  0.8875601E-005  0.9118800E+02  0.7818608E-02  0.1130116E+00
         25   -1    0    0    0    0  0.00000000000E+00  0.00000000000E+00  0.99999998245E-14  0.12500000000E+03  0.12500000000E+03 0.  0.
        -11    1    3    3    0    0  0.21278220956E+01  0.34373368777E+02  0.13346846414E+02  0.36935002604E+02  0.51100000000E-03 0. -1.
         23    2    1    0    0    0 -0.18706002617E+02 -0.12554733305E+02 -0.17179078949E+02  0.96668804900E+02  0.92424029478E+02 0.  0.
         11    1    3    3    0    0 -0.20833824713E+02 -0.46928102082E+02 -0.30525925363E+02  0.59733802296E+02  0.51100000000E-03 0.  1.
         22    1    1    0    0    0  0.18706002617E+02  0.12554733305E+02  0.17179078949E+02  0.28331195100E+02  0.00000000000E+00 0.  1.
</event>
<event>
 5    1  0.8875601E-005  0.9118800E+02  0.7818608E-02  0.1130116E+00
         25   -1    0    0    0    0  0.00000000000E+00  0.00000000000E+00  0.99999998245E-14  0.12500000000E+03  0.12500000000E+03 0.  0.
        -11    1    3    3    0    0  0.48923867055E+01 -0.54575099811E+02 -0.20338397859E+02  0.58446791142E+02  0.51100000000E-03 0. -1.
         23    2    1    0    0    0 -0.91883615785E+01 -0.22306066912E+02 -0.20012021690E+02  0.93655660452E+02  0.88254830536E+02 0.  0.
         11    1    3    3    0    0 -0.14080748284E+02  0.32269032899E+02  0.32637616911E+00  0.35208869310E+02  0.51100000000E-03 0.  1.
         22    1    1    0    0    0  0.91883615785E+01  0.22306066912E+02  0.20012021690E+02  0.31344339548E+02  0.00000000000E+00 0. -1.
</event>
<event>
 5    1  0.8875601E-005  0.9118800E+02  0.7818608E-02  0.1130116E+00
         25   -1    0    0    0    0  0.00000000000E+00  0.00000000000E+00  0.99999998245E-14  0.12500000000E+03  0.12500000000E+03 0.  0.
        -11    1    3    3    0    0  0.43736362728E+02  0.10703897798E+02 -0.12709640585E+02  0.46786513194E+02  0.51100000000E-03 0. -1.
         23    2    1    0    0    0  0.45309094773E+01  0.26500551701E+02  0.11791778775E+02  0.95642642697E+02  0.91025604498E+02 0.  0.
         11    1    3    3    0    0 -0.39205453251E+02  0.15796653903E+02  0.24501419360E+02  0.48856129503E+02  0.51100000000E-03 0.  1.
         22    1    1    0    0    0 -0.45309094773E+01 -0.26500551701E+02 -0.11791778775E+02  0.29357357303E+02  0.00000000000E+00 0.  1.
</event>
<event>
 5    1  0.8875601E-005  0.9118800E+02  0.7818608E-02  0.1130116E+00
         25   -1    0    0    0    0  0.00000000000E+00  0.00000000000E+00  0.99999998245E-14  0.12500000000E+03  0.12500000000E+03 0.  0.
        -11    1    3    3    0    0 -0.21768730782E+02  0.28938821521E+02  0.18401504547E+02  0.40619556876E+02  0.51100000000E-03 0.  1.
         23    2    1    0    0    0 -0.21461295617E+02 -0.21996450922E+02  0.12213943143E+02  0.91930203058E+02  0.85776166645E+02 0.  0.
         11    1    3    3    0    0  0.30743516524E+00 -0.50935272443E+02 -0.61875614042E+01  0.51310646182E+02  0.51100000000E-03 0. -1.
         22    1    1    0    0    0  0.21461295617E+02  0.21996450922E+02 -0.12213943143E+02  0.33069796942E+02  0.00000000000E+00 0. -1.
</event>
<event>
 5    1  0.8875601E-005  0.9118800E+02  0.7818608E-02  0.1130116E+00
         25   -1    0    0    0    0  0.00000000000E+00  0.00000000000E+00  0.99999998245E-14  0.12500000000E+03  0.12500000000E+03 0.  0.
        -11    1    3    3    0    0  0.11613041043E+02 -0.11175879738E+02 -0.42258798377E+02  0.45227967572E+02  0.51100000000E-03 0. -1.
         23    2    1    0    0    0  0.22692393846E+02  0.18025475675E+01  0.99513489677E+01  0.10015602161E+03  0.97025797608E+02 0.  0.
         11    1    3    3    0    0  0.11079352803E+02  0.12978427306E+02  0.52210147345E+02  0.54928054033E+02  0.51100000000E-03 0.  1.
         22    1    1    0    0    0 -0.22692393846E+02 -0.18025475675E+01 -0.99513489677E+01  0.24843978394E+02  0.00000000000E+00 0.  1.
</event>
<event>
 5    1  0.8875601E-005  0.9118800E+02  0.7818608E-02  0.1130116E+00
         25   -1    0    0    0    0  0.00000000000E+00  0.00000000000E+00  0.99999998245E-14  0.12500000000E+03  0.12500000000E+03 0.  0.
        -11    1    3    3    0    0  0.40748034649E+01 -0.56314075413E+02  0.19025666290E+02  0.59580660376E+02  0.51100000000E-03 0. -1.
         23    2    1    0    0    0  0.11433976737E+02 -0.21588009194E+02  0.17196999057E+02  0.95125014786E+02  0.90311979806E+02 0.  0.
         11    1    3    3    0    0  0.73591732723E+01  0.34726066219E+02 -0.18286672328E+01  0.35544354409E+02  0.51100000000E-03 0.  1.
         22    1    1    0    0    0 -0.11433976737E+02  0.21588009194E+02 -0.17196999057E+02  0.29874985214E+02  0.00000000000E+00 0. -1.
</event>
<event>
 5    1  0.8875601E-005  0.9118800E+02  0.7818608E-02  0.1130116E+00
         25   -1    0    0    0    0  0.00000000000E+00  0.00000000000E+00  0.99999998245E-14  0.12500000000E+03  0.12500000000E+03 0.  0.
        -11    1    3    3    0    0  0.34368967073E+01  0.15679506518E+02 -0.49601054518E+02  0.52133710718E+02  0.51100000000E-03 0. -1.
         23    2    1    0    0    0 -0.20595836567E+02 -0.52556446249E+01 -0.23342015793E+02  0.93430077834E+02  0.87934745456E+02 0.  0.
         11    1    3    3    0    0 -0.24032733274E+02 -0.20935151142E+02  0.26259038725E+02  0.41296367116E+02  0.51100000000E-03 0.  1.
         22    1    1    0    0    0  0.20595836567E+02  0.52556446249E+01  0.23342015793E+02  0.31569922166E+02  0.00000000000E+00 0. -1.
</event>
<event>
 5    1  0.8875601E-005  0.9118800E+02  0.7818608E-02  0.1130116E+00
         25   -1    0    0    0    0  0.00000000000E+00  0.00000000000E+00  0.99999998245E-14  0.12500000000E+03  0.12500000000E+03 0.  0.
        -11    1    3    3    0    0 -0.11239522981E+02  0.36903524166E+02 -0.48708970324E+02  0.62135020423E+02  0.51100000000E-03 0.  1.
         23    2    1    0    0    0 -0.13750117969E+01  0.20351586098E+02 -0.23106896042E+02  0.94177826832E+02  0.88991329397E+02 0.  0.
         11    1    3    3    0    0  0.98645111843E+01 -0.16551938069E+02  0.25602074282E+02  0.32042806408E+02  0.51100000000E-03 0. -1.
         22    1    1    0    0    0  0.13750117969E+01 -0.20351586098E+02  0.23106896042E+02  0.30822173168E+02  0.00000000000E+00 0.  1.
</event>
<event>
 5    1  0.8875601E-005  0.9118800E+02  0.7818608E-02  0.1130116E+00
         25   -1    0    0    0    0  0.00000000000E+00  0.00000000000E+00  0.99999998245E-14  0.12500000000E+03  0.12500000000E+03 0.  0.
        -11    1    3    3    0    0 -0.32868551669E+02  0.13811926140E+01 -0.28290702826E+02  0.43389091353E+02  0.51100000000E-03 0.  1.
         23    2    1    0    0    0  0.29191953671E+01  0.30150597080E+02 -0.75037737379E+01  0.93792840146E+02  0.88448912014E+02 0.  0.
         11    1    3    3    0    0  0.35787747036E+02  0.28769404466E+02  0.20786929088E+02  0.50403748793E+02  0.51100000000E-03 0. -1.
         22    1    1    0    0    0 -0.29191953671E+01 -0.30150597080E+02  0.75037737379E+01  0.31207159854E+02  0.00000000000E+00 0.  1.
</event>
<event>
 5    1  0.8875601E-005  0.9118800E+02  0.7818608E-02  0.1130116E+00
         25   -1    0    0    0    0  0.00000000000E+00  0.00000000000E+00  0.99999998245E-14  0.12500000000E+03  0.12500000000E+03 0.  0.
        -11    1    3    3    0    0  0.32115423161E+02 -0.31625124252E+02 -0.95281354845E+01  0.46068799146E+02  0.51100000000E-03 0.  1.
         23    2    1    0    0    0 -0.45460024195E+01  0.14041235555E+01  0.20581828978E+02  0.10387538438E+03  0.10170470046E+03 0.  0.
         11    1    3    3    0    0 -0.36661425580E+02  0.33029247807E+02  0.30109964463E+02  0.57806585235E+02  0.51100000000E-03 0. -1.
         22    1    1    0    0    0  0.45460024195E+01 -0.14041235555E+01 -0.20581828978E+02  0.21124615619E+02  0.00000000000E+00 0. -1.
</event>
<event>
 5    1  0.8875601E-005  0.9118800E+02  0.7818608E-02  0.1130116E+00
         25   -1    0    0    0    0  0.00000000000E+00  0.00000000000E+00  0.99999998245E-14  0.12500000000E+03  0.12500000000E+03 0.  0.
        -11    1    3    3    0    0  0.12646619184E+02  0.20631031800E+02  0.28830584444E+02  0.37640125526E+02  0.51100000000E-03 0. -1.
         23    2    1    0    0    0  0.11036935862E+02 -0.26925492081E+02 -0.42478920942E+01  0.95591826574E+02  0.90955794997E+02 0.  0.
         11    1    3    3    0    0 -0.16096833223E+01 -0.47556523881E+02 -0.33078476538E+02  0.57951701048E+02  0.51100000000E-03 0.  1.
         22    1    1    0    0    0 -0.11036935862E+02  0.26925492081E+02  0.42478920942E+01  0.29408173426E+02  0.00000000000E+00 0.  1.
</event>
<event>
 5    1  0.8875601E-005  0.9118800E+02  0.7818608E-02  0.1130116E+00
         25   -1    0    0    0    0  0.00000000000E+00  0.00000000000E+00  0.99999998245E-14  0.12500000000E+03  0.12500000000E+03 0.  0.
        -11    1    3    3    0    0 -0.16277101083E+01  0.91966592749E+01  0.55854863393E+02  0.56630325330E+02  0.51100000000E-03 0.  1.
         23    2    1    0    0    0  0.14081791753E+02 -0.79495501224E+01  0.23364106978E+02  0.96585677889E+02  0.92311534882E+02 0.  0.
         11    1    3    3    0    0  0.15709501861E+02 -0.17146209397E+02 -0.32490756415E+02  0.39955352559E+02  0.51100000000E-03 0. -1.
         22    1    1    0    0    0 -0.14081791753E+02  0.79495501224E+01 -0.23364106978E+02  0.28414322111E+02  0.00000000000E+00 0.  1.
</event>
<event>
 5    1  0.8875601E-005  0.9118800E+02  0.7818608E-02  0.1130116E+00
         25   -1    0    0    0    0  0.00000000000E+00  0.00000000000E+00  0.99999998245E-14  0.12500000000E+03  0.12500000000E+03 0.  0.
        -11    1    3    3    0    0  0.30328409661E+02 -0.19451908775E+02 -0.41340236317E+02  0.54837982517E+02  0.51100000000E-03 0. -1.
         23    2    1    0    0    0  0.25900031259E+01 -0.26816374773E+02 -0.13326961841E+02  0.94942821422E+02  0.90059454559E+02 0.  0.
         11    1    3    3    0    0 -0.27738406535E+02 -0.73644659973E+01  0.28013274475E+02  0.40104838905E+02  0.51100000000E-03 0.  1.
         22    1    1    0    0    0 -0.25900031259E+01  0.26816374773E+02  0.13326961841E+02  0.30057178578E+02  0.00000000000E+00 0. -1.
</event>
<event>
 5    1  0.8875601E-005  0.9118800E+02  0.7818608E-02  0.1130116E+00
         25   -1    0    0    0    0  0.00000000000E+00  0.00000000000E+00  0.99999998245E-14  0.12500000000E+03  0.12500000000E+03 0.  0.
        -11    1    3    3    0    0  0.41672462213E+02  0.54569030585E+01 -0.38939417758E+02  0.57294416425E+02  0.51100000000E-03 0. -1.
         23    2    1    0    0    0  0.25107976230E+02  0.18364185692E+02 -0.11527072134E+02  0.91825805533E+02  0.85623894932E+02 0.  0.
         11    1    3    3    0    0 -0.16564485983E+02  0.12907282634E+02  0.27412345624E+02  0.34531389108E+02  0.51100000000E-03 0.  1.
         22    1    1    0    0    0 -0.25107976230E+02 -0.18364185692E+02  0.11527072134E+02  0.33174194467E+02  0.00000000000E+00 0. -1.
</event>
<event>
 5    1  0.8875601E-005  0.9118800E+02  0.7818608E-02  0.1130116E+00
         25   -1    0    0    0    0  0.00000000000E+00  0.00000000000E+00  0.99999998245E-14  0.12500000000E+03  0.12500000000E+03 0.  0.
        -11    1    3    3    0    0 -0.19365333853E+02  0.38655380786E+02 -0.25003574940E+02  0.49944302768E+02  0.51100000000E-03 0.  1.
         23    2    1    0    0    0 -0.23393162763E+02 -0.61678663065E+01 -0.16425147448E+02  0.95758452375E+02  0.91184500293E+02 0.  0.
         11    1    3    3    0    0 -0.40278289107E+01 -0.44823247093E+02  0.85784274925E+01  0.45814149606E+02  0.51100000000E-03 0. -1.
         22    1    1    0    0    0  0.23393162763E+02  0.61678663065E+01  0.16425147448E+02  0.29241547625E+02  0.00000000000E+00 0. -1.
</event>
<event>
 5    1  0.8875601E-005  0.9118800E+02  0.7818608E-02  0.1130116E+00
         25   -1    0    0    0    0  0.00000000000E+00  0.00000000000E+00  0.99999998245E-14  0.12500000000E+03  0.12500000000E+03 0.  0.
        -11    1    3    3    0    0 -0.48956320372E+02  0.36424454055E+01 -0.30027661938E+02  0.57546930366E+02  0.51100000000E-03 0. -1.
         23    2    1    0    0    0 -0.29642321594E+02  0.21622299040E+01  0.22531822984E+01  0.95193636617E+02  0.90406908775E+02 0.  0.
         11    1    3    3    0    0  0.19313998778E+02 -0.14802155015E+01  0.32280844236E+02  0.37646706251E+02  0.51100000000E-03 0.  1.
         22    1    1    0    0    0  0.29642321594E+02 -0.21622299040E+01 -0.22531822984E+01  0.29806363383E+02  0.00000000000E+00 0. -1.
</event>
<event>
 5    1  0.8875601E-005  0.9118800E+02  0.7818608E-02  0.1130116E+00
         25   -1    0    0    0    0  0.00000000000E+00  0.00000000000E+00  0.99999998245E-14  0.12500000000E+03  0.12500000000E+03 0.  0.
        -11    1    3    3    0    0 -0.48313151971E+02  0.33021271201E+01 -0.18330492487E+02  0.51779065770E+02  0.51100000000E-03 0.  1.
         23    2    1    0    0    0 -0.13092718469E+02  0.25907873103E+02 -0.81188697892E+01  0.94857783554E+02  0.89941346935E+02 0.  0.
         11    1    3    3    0    0  0.35220433503E+02  0.22605745983E+02  0.10211622697E+02  0.43078717784E+02  0.51100000000E-03 0. -1.
         22    1    1    0    0    0  0.13092718469E+02 -0.25907873103E+02  0.81188697892E+01  0.30142216446E+02  0.00000000000E+00 0.  1.
</event>
<event>
 5    1  0.8875601E-005  0.9118800E+02  0.7818608E-02  0.1130116E+00
         25   -1    0    0    0    0  0.00000000000E+00  0.00000000000E+00  0.99999998245E-14  0.12500000000E+03  0.12500000000E+03 0.  0.
        -11    1    3    3    0    0 -0.22609545696E+02 -0.24210391471E+01 -0.35750298105E+02  0.42369054769E+02  0.51100000000E-03 0.  1.
         23    2    1    0    0    0 -0.14568283573E+02 -0.22665014102E+02  0.12492477532E+02  0.95301519476E+02  0.90555948833E+02 0.  0.
         11    1    3    3    0    0  0.80412621228E+01 -0.20243974955E+02  0.48242775638E+02  0.52932464707E+02  0.51100000000E-03 0. -1.
         22    1    1    0    0    0  0.14568283573E+02  0.22665014102E+02 -0.12492477532E+02  0.29698480524E+02  0.00000000000E+00 0. -1.
</event>
<event>
 5    1  0.8875601E-005  0.9118800E+02  0.7818608E-02  0.1130116E+00
         25   -1    0    0    0    0  0.00000000000E+00  0.00000000000E+00  0.99999998245E-14  0.12500000000E+03  0.12500000000E+03 0.  0.
        -11    1    3    3    0    0  0.23058018382E+02  0.33297187538E+02  0.31092500036E+02  0.51059949749E+02  0.51100000000E-03 0. -1.
         23    2    1    0    0    0  0.10320329251E+02 -0.10391853726E+02  0.23664206738E+02  0.97170258710E+02  0.93099756593E+02 0.  0.
         11    1    3    3    0    0 -0.12737689131E+02 -0.43689041264E+02 -0.74282932977E+01  0.46110308961E+02  0.51100000000E-03 0.  1.
         22    1    1    0    0    0 -0.10320329251E+02  0.10391853726E+02 -0.23664206738E+02  0.27829741290E+02  0.00000000000E+00 0. -1.
</event>
<event>
 5    1  0.8875601E-005  0.9118800E+02  0.7818608E-02  0.1130116E+00
         25   -1    0    0    0    0  0.00000000000E+00  0.00000000000E+00  0.99999998245E-14  0.12500000000E+03  0.12500000000E+03 0.  0.
        -11    1    3    3    0    0  0.27105824959E+02 -0.12590800754E+02 -0.24676999936E+02  0.38758332478E+02  0.51100000000E-03 0. -1.
         23    2    1    0    0    0  0.13919416725E+02 -0.85711008357E+01  0.27654699914E+02  0.92875299863E+02  0.87142555424E+02 0.  0.
         11    1    3    3    0    0 -0.13186408234E+02  0.40196999185E+01  0.52331699850E+02  0.54116967386E+02  0.51100000000E-03 0.  1.
         22    1    1    0    0    0 -0.13919416725E+02  0.85711008357E+01 -0.27654699914E+02  0.32124700137E+02  0.00000000000E+00 0.  1.
</event>
<event>
 5    1  0.8875601E-005  0.9118800E+02  0.7818608E-02  0.1130116E+00
         25   -1    0    0    0    0  0.00000000000E+00  0.00000000000E+00  0.99999998245E-14  0.12500000000E+03  0.12500000000E+03 0.  0.
        -11    1    3    3    0    0  0.52645901498E+01 -0.32359286025E+02  0.49762111864E+02  0.59591166115E+02  0.51100000000E-03 0. -1.
         23    2    1    0    0    0 -0.58655405916E+01 -0.59577390190E+01  0.28578821202E+02  0.95223360802E+02  0.90447997216E+02 0.  0.
         11    1    3    3    0    0 -0.11130130741E+02  0.26401547006E+02 -0.21183290662E+02  0.35632194687E+02  0.51100000000E-03 0.  1.
         22    1    1    0    0    0  0.58655405916E+01  0.59577390190E+01 -0.28578821202E+02  0.29776639198E+02  0.00000000000E+00 0. -1.
</event>
<event>
 5    1  0.8875601E-005  0.9118800E+02  0.7818608E-02  0.1130116E+00
         25   -1    0    0    0    0  0.00000000000E+00  0.00000000000E+00  0.99999998245E-14  0.12500000000E+03  0.12500000000E+03 0.  0.
        -11    1    3    3    0    0  0.28395408869E+02 -0.32191271167E+02  0.17001899530E+01  0.42958908626E+02  0.51100000000E-03 0. -1.
         23    2    1    0    0    0 -0.13392689464E+02 -0.21369041590E+02  0.22796292470E+02  0.91004838287E+02  0.84416879661E+02 0.  0.
         11    1    3    3    0    0 -0.41788098333E+02  0.10822229576E+02  0.21096102517E+02  0.48045929661E+02  0.51100000000E-03 0.  1.
         22    1    1    0    0    0  0.13392689464E+02  0.21369041590E+02 -0.22796292470E+02  0.33995161713E+02  0.00000000000E+00 0.  1.
</event>
<event>
 5    1  0.8875601E-005  0.9118800E+02  0.7818608E-02  0.1130116E+00
         25   -1    0    0    0    0  0.00000000000E+00  0.00000000000E+00  0.99999998245E-14  0.12500000000E+03  0.12500000000E+03 0.  0.
        -11    1    3    3    0    0  0.72783310932E+01  0.33660711018E+02  0.98420966919E+01  0.35817376192E+02  0.51100000000E-03 0.  1.
         23    2    1    0    0    0  0.31705727982E+01 -0.13595563880E+02 -0.26147134052E+02  0.95359411136E+02  0.90635825058E+02 0.  0.
         11    1    3    3    0    0 -0.41077582950E+01 -0.47256274898E+02 -0.35989230744E+02  0.59542034944E+02  0.51100000000E-03 0. -1.
         22    1    1    0    0    0 -0.31705727982E+01  0.13595563880E+02  0.26147134052E+02  0.29640588864E+02  0.00000000000E+00 0. -1.
</event>
<event>
 5    1  0.8875601E-005  0.9118800E+02  0.7818608E-02  0.1130116E+00
         25   -1    0    0    0    0  0.00000000000E+00  0.00000000000E+00  0.99999998245E-14  0.12500000000E+03  0.12500000000E+03 0.  0.
        -11    1    3    3    0    0 -0.19920525239E+02  0.32466837375E+02  0.46872908660E+01  0.38378295309E+02  0.51100000000E-03 0.  1.
         23    2    1    0    0    0 -0.21665935442E+01 -0.17225599922E+02 -0.21563617159E+02  0.97315979243E+02  0.93295202507E+02 0.  0.
         11    1    3    3    0    0  0.17753931695E+02 -0.49692437297E+02 -0.26250908025E+02  0.58937683934E+02  0.51100000000E-03 0. -1.
         22    1    1    0    0    0  0.21665935442E+01  0.17225599922E+02  0.21563617159E+02  0.27684020757E+02  0.00000000000E+00 0. -1.
</event>
<event>
 5    1  0.8875601E-005  0.9118800E+02  0.7818608E-02  0.1130116E+00
         25   -1    0    0    0    0  0.00000000000E+00  0.00000000000E+00  0.99999998245E-14  0.12500000000E+03  0.12500000000E+03 0.  0.
        -11    1    3    3    0    0 -0.33734106800E+02  0.52112797058E+02  0.10082115794E+00  0.62078528848E+02  0.51100000000E-03 0. -1.
         23    2    1    0    0    0 -0.16191701328E+02  0.24505048309E+02 -0.50700041934E+01  0.95194404434E+02  0.90407970381E+02 0.  0.
         11    1    3    3    0    0  0.17542405472E+02 -0.27607748748E+02 -0.51708253513E+01  0.33115875585E+02  0.51100000000E-03 0.  1.
         22    1    1    0    0    0  0.16191701328E+02 -0.24505048309E+02  0.50700041934E+01  0.29805595566E+02  0.00000000000E+00 0. -1.
</event>
<event>
 5    1  0.8875601E-005  0.9118800E+02  0.7818608E-02  0.1130116E+00
         25   -1    0    0    0    0  0.00000000000E+00  0.00000000000E+00  0.99999998245E-14  0.12500000000E+03  0.12500000000E+03 0.  0.
        -11    1    3    3    0    0 -0.13061186652E+01  0.31418729490E+02  0.16405475532E+02  0.35468043876E+02  0.51100000000E-03 0. -1.
         23    2    1    0    0    0  0.47777188083E+01 -0.27882396982E+02  0.31501193252E+01  0.96536375666E+02  0.92244750076E+02 0.  0.
         11    1    3    3    0    0  0.60838374734E+01 -0.59301126472E+02 -0.13255356206E+02  0.61068331790E+02  0.51100000000E-03 0.  1.
         22    1    1    0    0    0 -0.47777188083E+01  0.27882396982E+02 -0.31501193252E+01  0.28463624334E+02  0.00000000000E+00 0.  1.
</event>
<event>
 5    1  0.8875601E-005  0.9118800E+02  0.7818608E-02  0.1130116E+00
         25   -1    0    0    0    0  0.00000000000E+00  0.00000000000E+00  0.99999998245E-14  0.12500000000E+03  0.12500000000E+03 0.  0.
        -11    1    3    3    0    0 -0.20673587553E+02 -0.31293542943E+02  0.11984815719E+02  0.39374088692E+02  0.51100000000E-03 0.  1.
         23    2    1    0    0    0  0.23089050083E+02 -0.30446018207E+02 -0.52786276411E+01  0.86426328044E+02  0.77340687939E+02 0.  0.
         11    1    3    3    0    0  0.43762637636E+02  0.84752473572E+00 -0.17263443361E+02  0.47052239351E+02  0.51100000000E-03 0. -1.
         22    1    1    0    0    0 -0.23089050083E+02  0.30446018207E+02  0.52786276411E+01  0.38573671956E+02  0.00000000000E+00 0.  1.
</event>
<event>
 5    1  0.8875601E-005  0.9118800E+02  0.7818608E-02  0.1130116E+00
         25   -1    0    0    0    0  0.00000000000E+00  0.00000000000E+00  0.99999998245E-14  0.12500000000E+03  0.12500000000E+03 0.  0.
        -11    1    3    3    0    0 -0.27727229945E+02  0.77008285533E+01  0.67963044532E+01  0.29568425648E+02  0.51100000000E-03 0. -1.
         23    2    1    0    0    0  0.25077586005E+00  0.22235138500E+02 -0.35976989396E+02  0.82705697327E+02  0.71073372874E+02 0.  0.
         11    1    3    3    0    0  0.27978005805E+02  0.14534309947E+02 -0.42773293849E+02  0.53137271678E+02  0.51100000000E-03 0.  1.
         22    1    1    0    0    0 -0.25077586005E+00 -0.22235138500E+02  0.35976989396E+02  0.42294302673E+02  0.00000000000E+00 0.  1.
</event>
<event>
 5    1  0.8875601E-005  0.9118800E+02  0.7818608E-02  0.1130116E+00
         25   -1    0    0    0    0  0.00000000000E+00  0.00000000000E+00  0.99999998245E-14  0.12500000000E+03  0.12500000000E+03 0.  0.
        -11    1    3    3    0    0 -0.20250969080E+02 -0.28589715212E+02  0.26803635722E+02  0.44112452355E+02  0.51100000000E-03 0.  1.
         23    2    1    0    0    0 -0.23325481187E+02  0.11830400254E+02 -0.81156695636E+01  0.97615688154E+02  0.93695901930E+02 0.  0.
         11    1    3    3    0    0 -0.30745121070E+01  0.40420115467E+02 -0.34919305286E+02  0.53503235799E+02  0.51100000000E-03 0. -1.
         22    1    1    0    0    0  0.23325481187E+02 -0.11830400254E+02  0.81156695636E+01  0.27384311846E+02  0.00000000000E+00 0. -1.
</event>
<event>
 5    1  0.8875601E-005  0.9118800E+02  0.7818608E-02  0.1130116E+00
         25   -1    0    0    0    0  0.00000000000E+00  0.00000000000E+00  0.99999998245E-14  0.12500000000E+03  0.12500000000E+03 0.  0.
        -11    1    3    3    0    0 -0.20201778614E+02  0.57195201311E+01 -0.38452823342E+02  0.43811464173E+02  0.51100000000E-03 0.  1.
         23    2    1    0    0    0  0.23706637667E+02 -0.86371945700E+01 -0.11783507254E+02  0.97152974258E+02  0.93076546801E+02 0.  0.
         11    1    3    3    0    0  0.43908416280E+02 -0.14356714701E+02  0.26669316088E+02  0.53341510085E+02  0.51100000000E-03 0. -1.
         22    1    1    0    0    0 -0.23706637667E+02  0.86371945700E+01  0.11783507254E+02  0.27847025742E+02  0.00000000000E+00 0. -1.
</event>
<event>
 5    1  0.8875601E-005  0.9118800E+02  0.7818608E-02  0.1130116E+00
         25   -1    0    0    0    0  0.00000000000E+00  0.00000000000E+00  0.99999998245E-14  0.12500000000E+03  0.12500000000E+03 0.  0.
        -11    1    3    3    0    0 -0.50827111880E+02  0.23998771950E+02 -0.10816736285E+02  0.57239305912E+02  0.51100000000E-03 0. -1.
         23    2    1    0    0    0 -0.24077802954E+02  0.18469802230E+02  0.11537015735E+02  0.92534989272E+02  0.86653028325E+02 0.  0.
         11    1    3    3    0    0  0.26749308926E+02 -0.55289697198E+01  0.22353752020E+02  0.35295683359E+02  0.51100000000E-03 0.  1.
         22    1    1    0    0    0  0.24077802954E+02 -0.18469802230E+02 -0.11537015735E+02  0.32465010728E+02  0.00000000000E+00 0. -1.
</event>
<event>
 5    1  0.8875601E-005  0.9118800E+02  0.7818608E-02  0.1130116E+00
         25   -1    0    0    0    0  0.00000000000E+00  0.00000000000E+00  0.99999998245E-14  0.12500000000E+03  0.12500000000E+03 0.  0.
        -11    1    3    3    0    0 -0.77715432774E+01  0.24105648346E+02 -0.32392351959E+02  0.41118653100E+02  0.51100000000E-03 0.  1.
         23    2    1    0    0    0  0.96610135366E+01 -0.24130781370E+02 -0.12837450132E+02  0.96009830666E+02  0.91528452771E+02 0.  0.
         11    1    3    3    0    0  0.17432556814E+02 -0.48236429716E+02  0.19554901827E+02  0.54891177566E+02  0.51100000000E-03 0. -1.
         22    1    1    0    0    0 -0.96610135366E+01  0.24130781370E+02  0.12837450132E+02  0.28990169334E+02  0.00000000000E+00 0. -1.
</event>
<event>
 5    1  0.8875601E-005  0.9118800E+02  0.7818608E-02  0.1130116E+00
         25   -1    0    0    0    0  0.00000000000E+00  0.00000000000E+00  0.99999998245E-14  0.12500000000E+03  0.12500000000E+03 0.  0.
        -11    1    3    3    0    0 -0.12417139934E+02  0.18614132232E+02 -0.32430566164E+02  0.39400671376E+02  0.51100000000E-03 0.  1.
         23    2    1    0    0    0  0.17500303744E+01 -0.28570506288E+02 -0.45254119862E+01  0.96020424615E+02  0.91542919736E+02 0.  0.
         11    1    3    3    0    0  0.14167170308E+02 -0.47184638520E+02  0.27905154178E+02  0.56619753239E+02  0.51100000000E-03 0. -1.
         22    1    1    0    0    0 -0.17500303744E+01  0.28570506288E+02  0.45254119862E+01  0.28979575385E+02  0.00000000000E+00 0. -1.
</event>
<event>
 5    1  0.8875601E-005  0.9118800E+02  0.7818608E-02  0.1130116E+00
         25   -1    0    0    0    0  0.00000000000E+00  0.00000000000E+00  0.99999998245E-14  0.12500000000E+03  0.12500000000E+03 0.  0.
        -11    1    3    3    0    0  0.23679905094E+02  0.49570002446E+02 -0.17414992058E+02  0.57629896724E+02  0.51100000000E-03 0. -1.
         23    2    1    0    0    0  0.90133721325E+01  0.14768240605E+02 -0.23432499099E+02  0.95872284302E+02  0.91340413155E+02 0.  0.
         11    1    3    3    0    0 -0.14666532962E+02 -0.34801761841E+02 -0.60175070409E+01  0.38242387577E+02  0.51100000000E-03 0.  1.
         22    1    1    0    0    0 -0.90133721325E+01 -0.14768240605E+02  0.23432499099E+02  0.29127715698E+02  0.00000000000E+00 0. -1.
</event>
<event>
 5    1  0.8875601E-005  0.9118800E+02  0.7818608E-02  0.1130116E+00
         25   -1    0    0    0    0  0.00000000000E+00  0.00000000000E+00  0.99999998245E-14  0.12500000000E+03  0.12500000000E+03 0.  0.
        -11    1    3    3    0    0  0.11816906942E+02 -0.13078421384E+02 -0.32786253498E+02  0.37223954844E+02  0.51100000000E-03 0.  1.
         23    2    1    0    0    0 -0.14846242334E+02  0.25628395564E+02  0.14090995379E+01  0.95348505398E+02  0.90620783209E+02 0.  0.
         11    1    3    3    0    0 -0.26663149276E+02  0.38706816948E+02  0.34195353035E+02  0.58124550554E+02  0.51100000000E-03 0. -1.
         22    1    1    0    0    0  0.14846242334E+02 -0.25628395564E+02 -0.14090995379E+01  0.29651494602E+02  0.00000000000E+00 0. -1.
</event>
<event>
 5    1  0.8875601E-005  0.9118800E+02  0.7818608E-02  0.1130116E+00
         25   -1    0    0    0    0  0.00000000000E+00  0.00000000000E+00  0.99999998245E-14  0.12500000000E+03  0.12500000000E+03 0.  0.
        -11    1    3    3    0    0  0.18314565234E+02  0.43673232361E+02 -0.31405766332E+02  0.56825141300E+02  0.51100000000E-03 0. -1.
         23    2    1    0    0    0  0.19281506715E+01  0.29557834954E+02  0.50559060694E+00  0.95375027527E+02  0.90657359777E+02 0.  0.
         11    1    3    3    0    0 -0.16386414563E+02 -0.14115397408E+02  0.31911356939E+02  0.38549886227E+02  0.51100000000E-03 0.  1.
         22    1    1    0    0    0 -0.19281506715E+01 -0.29557834954E+02 -0.50559060694E+00  0.29624972473E+02  0.00000000000E+00 0. -1.
</event>
<event>
 5    1  0.8875601E-005  0.9118800E+02  0.7818608E-02  0.1130116E+00
         25   -1    0    0    0    0  0.00000000000E+00  0.00000000000E+00  0.99999998245E-14  0.12500000000E+03  0.12500000000E+03 0.  0.
        -11    1    3    3    0    0 -0.64809442671E+01 -0.49341259040E+02 -0.19650275425E+02  0.53504166256E+02  0.51100000000E-03 0.  1.
         23    2    1    0    0    0 -0.54166262192E+01 -0.61403532176E+01 -0.26505554237E+02  0.97258547575E+02  0.93218221897E+02 0.  0.
         11    1    3    3    0    0  0.10643180479E+01  0.43200905822E+02 -0.68552788118E+01  0.43754381319E+02  0.51100000000E-03 0. -1.
         22    1    1    0    0    0  0.54166262192E+01  0.61403532176E+01  0.26505554237E+02  0.27741452425E+02  0.00000000000E+00 0.  1.
</event>
<event>
 5    1  0.8875601E-005  0.9118800E+02  0.7818608E-02  0.1130116E+00
         25   -1    0    0    0    0  0.00000000000E+00  0.00000000000E+00  0.99999998245E-14  0.12500000000E+03  0.12500000000E+03 0.  0.
        -11    1    3    3    0    0  0.57665548624E+02 -0.42611993336E+01  0.43233631027E+01  0.57984177037E+02  0.51100000000E-03 0.  1.
         23    2    1    0    0    0  0.27951203932E+02  0.13448529776E+02  0.85290819138E+01  0.92830480378E+02  0.87078241223E+02 0.  0.
         11    1    3    3    0    0 -0.29714344692E+02  0.17709729109E+02  0.42057188111E+01  0.34846303341E+02  0.51100000000E-03 0. -1.
         22    1    1    0    0    0 -0.27951203932E+02 -0.13448529776E+02 -0.85290819138E+01  0.32169519622E+02  0.00000000000E+00 0.  1.
</event>
<event>
 5    1  0.8875601E-005  0.9118800E+02  0.7818608E-02  0.1130116E+00
         25   -1    0    0    0    0  0.00000000000E+00  0.00000000000E+00  0.99999998245E-14  0.12500000000E+03  0.12500000000E+03 0.  0.
        -11    1    3    3    0    0  0.18841446200E+02 -0.18325868686E+02  0.25298975198E+02  0.36481169174E+02  0.51100000000E-03 0. -1.
         23    2    1    0    0    0 -0.54816818376E+01  0.28465368203E+02 -0.21487571778E+01  0.95932093641E+02  0.91422226019E+02 0.  0.
         11    1    3    3    0    0 -0.24323128037E+02  0.46791236889E+02 -0.27447732376E+02  0.59450924467E+02  0.51100000000E-03 0.  1.
         22    1    1    0    0    0  0.54816818376E+01 -0.28465368203E+02  0.21487571778E+01  0.29067906359E+02  0.00000000000E+00 0.  1.
</event>
<event>
 5    1  0.8875601E-005  0.9118800E+02  0.7818608E-02  0.1130116E+00
         25   -1    0    0    0    0  0.00000000000E+00  0.00000000000E+00  0.99999998245E-14  0.12500000000E+03  0.12500000000E+03 0.  0.
        -11    1    3    3    0    0 -0.62666441176E+01 -0.45637052017E+02  0.20129509860E+02  0.50271348826E+02  0.51100000000E-03 0.  1.
         23    2    1    0    0    0  0.23308162150E+02 -0.14146989790E+02  0.15284021083E+02  0.93742856122E+02  0.88378244102E+02 0.  0.
         11    1    3    3    0    0  0.29574806268E+02  0.31490062227E+02 -0.48454887777E+01  0.43471507296E+02  0.51100000000E-03 0. -1.
         22    1    1    0    0    0 -0.23308162150E+02  0.14146989790E+02 -0.15284021083E+02  0.31257143878E+02  0.00000000000E+00 0. -1.
</event>
<event>
 5    1  0.8875601E-005  0.9118800E+02  0.7818608E-02  0.1130116E+00
         25   -1    0    0    0    0  0.00000000000E+00  0.00000000000E+00  0.99999998245E-14  0.12500000000E+03  0.12500000000E+03 0.  0.
        -11    1    3    3    0    0 -0.22336914107E+02 -0.24657708051E+02 -0.50134021657E+02  0.60169430992E+02  0.51100000000E-03 0.  1.
         23    2    1    0    0    0  0.79170260013E+00 -0.15072465161E+02 -0.25957584131E+02  0.94973308991E+02  0.90101760514E+02 0.  0.
         11    1    3    3    0    0  0.23128616708E+02  0.95852428893E+01  0.24176437526E+02  0.34803877999E+02  0.51100000000E-03 0. -1.
         22    1    1    0    0    0 -0.79170260013E+00  0.15072465161E+02  0.25957584131E+02  0.30026691009E+02  0.00000000000E+00 0.  1.
</event>
<event>
 5    1  0.8875601E-005  0.9118800E+02  0.7818608E-02  0.1130116E+00
         25   -1    0    0    0    0  0.00000000000E+00  0.00000000000E+00  0.99999998245E-14  0.12500000000E+03  0.12500000000E+03 0.  0.
        -11    1    3    3    0    0  0.11530131790E+02  0.29533496735E+02  0.53575202035E+02  0.62253302256E+02  0.51100000000E-03 0. -1.
         23    2    1    0    0    0  0.60742779310E+01  0.17357008183E+02  0.23462379058E+02  0.95189837027E+02  0.90401655165E+02 0.  0.
         11    1    3    3    0    0 -0.54558538594E+01 -0.12176488552E+02 -0.30112822976E+02  0.32936534770E+02  0.51100000000E-03 0.  1.
         22    1    1    0    0    0 -0.60742779310E+01 -0.17357008183E+02 -0.23462379058E+02  0.29810162973E+02  0.00000000000E+00 0. -1.
</event>
<event>
 5    1  0.8875601E-005  0.9118800E+02  0.7818608E-02  0.1130116E+00
         25   -1    0    0    0    0  0.00000000000E+00  0.00000000000E+00  0.99999998245E-14  0.12500000000E+03  0.12500000000E+03 0.  0.
        -11    1    3    3    0    0 -0.23887791210E+02 -0.20651898352E+02 -0.41499650291E+02  0.52147372407E+02  0.51100000000E-03 0. -1.
         23    2    1    0    0    0  0.40799290719E+01  0.84506267160E+01 -0.29179781538E+02  0.94348432932E+02  0.89230646266E+02 0.  0.
         11    1    3    3    0    0  0.27967720282E+02  0.29102525068E+02  0.12319868753E+02  0.42201060525E+02  0.51100000000E-03 0.  1.
         22    1    1    0    0    0 -0.40799290719E+01 -0.84506267160E+01  0.29179781538E+02  0.30651567068E+02  0.00000000000E+00 0.  1.
</event>
<event>
 5    1  0.8875601E-005  0.9118800E+02  0.7818608E-02  0.1130116E+00
         25   -1    0    0    0    0  0.00000000000E+00  0.00000000000E+00  0.99999998245E-14  0.12500000000E+03  0.12500000000E+03 0.  0.
        -11    1    3    3    0    0 -0.35448116157E+02 -0.36206467855E+02 -0.88887146949E+01  0.51444013284E+02  0.51100000000E-03 0.  1.
         23    2    1    0    0    0 -0.34613641466E+01 -0.21904947210E+02  0.18661337694E+02  0.96016327380E+02  0.91537324873E+02 0.  0.
         11    1    3    3    0    0  0.31986752011E+02  0.14301520645E+02  0.27550052389E+02  0.44572314095E+02  0.51100000000E-03 0. -1.
         22    1    1    0    0    0  0.34613641466E+01  0.21904947210E+02 -0.18661337694E+02  0.28983672620E+02  0.00000000000E+00 0.  1.
</event>
<event>
 5    1  0.8875601E-005  0.9118800E+02  0.7818608E-02  0.1130116E+00
         25   -1    0    0    0    0  0.00000000000E+00  0.00000000000E+00  0.99999998245E-14  0.12500000000E+03  0.12500000000E+03 0.  0.
        -11    1    3    3    0    0 -0.48015099898E+02 -0.13438069423E+02 -0.30074542602E+02  0.58228082924E+02  0.51100000000E-03 0. -1.
         23    2    1    0    0    0 -0.23125668023E+02  0.93221051415E+01 -0.18740603809E+02  0.93808520443E+02  0.88471069344E+02 0.  0.
         11    1    3    3    0    0  0.24889431874E+02  0.22760174565E+02  0.11333938793E+02  0.35580437519E+02  0.51100000000E-03 0.  1.
         22    1    1    0    0    0  0.23125668023E+02 -0.93221051415E+01  0.18740603809E+02  0.31191479557E+02  0.00000000000E+00 0. -1.
</event>
<event>
 5    1  0.8875601E-005  0.9118800E+02  0.7818608E-02  0.1130116E+00
         25   -1    0    0    0    0  0.00000000000E+00  0.00000000000E+00  0.99999998245E-14  0.12500000000E+03  0.12500000000E+03 0.  0.
        -11    1    3    3    0    0 -0.18831212208E+02 -0.30312978619E+02 -0.34881562957E+01  0.35856079827E+02  0.51100000000E-03 0.  1.
         23    2    1    0    0    0  0.21062243507E+02  0.15259903483E+02 -0.10749444839E+02  0.96856913456E+02  0.92678089989E+02 0.  0.
         11    1    3    3    0    0  0.39893455715E+02  0.45572882102E+02 -0.72612885430E+01  0.61000833629E+02  0.51100000000E-03 0. -1.
         22    1    1    0    0    0 -0.21062243507E+02 -0.15259903483E+02  0.10749444839E+02  0.28143086544E+02  0.00000000000E+00 0. -1.
</event>
<event>
 5    1  0.8875601E-005  0.9118800E+02  0.7818608E-02  0.1130116E+00
         25   -1    0    0    0    0  0.00000000000E+00  0.00000000000E+00  0.99999998245E-14  0.12500000000E+03  0.12500000000E+03 0.  0.
        -11    1    3    3    0    0  0.24193454487E+02  0.30759868069E+02 -0.23109125605E+02  0.45448040773E+02  0.51100000000E-03 0.  1.
         23    2    1    0    0    0 -0.56212128510E+01  0.76134894305E+01 -0.37861710474E+02  0.85973440131E+02  0.76605221968E+02 0.  0.
         11    1    3    3    0    0 -0.29814667338E+02 -0.23146378639E+02 -0.14752584869E+02  0.40525399358E+02  0.51100000000E-03 0. -1.
         22    1    1    0    0    0  0.56212128510E+01 -0.76134894305E+01  0.37861710474E+02  0.39026559869E+02  0.00000000000E+00 0.  1.
</event>
<event>
 5    1  0.8875601E-005  0.9118800E+02  0.7818608E-02  0.1130116E+00
         25   -1    0    0    0    0  0.00000000000E+00  0.00000000000E+00  0.99999998245E-14  0.12500000000E+03  0.12500000000E+03 0.  0.
        -11    1    3    3    0    0 -0.21201377340E+02  0.36167983350E+02  0.10724705689E+02  0.43274019146E+02  0.51100000000E-03 0. -1.
         23    2    1    0    0    0  0.18235649211E+02  0.29993088807E+02  0.20472434669E+02  0.84364487704E+02  0.73933226129E+02 0.  0.
         11    1    3    3    0    0  0.39437026550E+02 -0.61748945429E+01  0.97477289805E+01  0.41090468557E+02  0.51100000000E-03 0.  1.
         22    1    1    0    0    0 -0.18235649211E+02 -0.29993088807E+02 -0.20472434669E+02  0.40635512296E+02  0.00000000000E+00 0. -1.
</event>
<event>
 5    1  0.8875601E-005  0.9118800E+02  0.7818608E-02  0.1130116E+00
         25   -1    0    0    0    0  0.00000000000E+00  0.00000000000E+00  0.99999998245E-14  0.12500000000E+03  0.12500000000E+03 0.  0.
        -11    1    3    3    0    0  0.13681028830E+02  0.32792246532E+02  0.13649476738E+02  0.38063239457E+02  0.51100000000E-03 0. -1.
         23    2    1    0    0    0 -0.68043629137E+01 -0.31172693276E+01 -0.27563545453E+02  0.96438386588E+02  0.92111870283E+02 0.  0.
         11    1    3    3    0    0 -0.20485391743E+02 -0.35909515860E+02 -0.41213022192E+02  0.58375147131E+02  0.51100000000E-03 0.  1.
         22    1    1    0    0    0  0.68043629137E+01  0.31172693276E+01  0.27563545453E+02  0.28561613412E+02  0.00000000000E+00 0.  1.
</event>
<event>
 5    1  0.8875601E-005  0.9118800E+02  0.7818608E-02  0.1130116E+00
         25   -1    0    0    0    0  0.00000000000E+00  0.00000000000E+00  0.99999998245E-14  0.12500000000E+03  0.12500000000E+03 0.  0.
        -11    1    3    3    0    0  0.88828698073E+01 -0.26580065957E+02 -0.46573829803E+02  0.54355560020E+02  0.51100000000E-03 0.  1.
         23    2    1    0    0    0  0.15173140660E+02 -0.24066543485E+02 -0.54515103002E+01  0.96032057764E+02  0.91558803187E+02 0.  0.
         11    1    3    3    0    0  0.62902708526E+01  0.25135224721E+01  0.41122319503E+02  0.41676497744E+02  0.51100000000E-03 0. -1.
         22    1    1    0    0    0 -0.15173140660E+02  0.24066543485E+02  0.54515103002E+01  0.28967942236E+02  0.00000000000E+00 0.  1.
</event>
<event>
 5    1  0.8875601E-005  0.9118800E+02  0.7818608E-02  0.1130116E+00
         25   -1    0    0    0    0  0.00000000000E+00  0.00000000000E+00  0.99999998245E-14  0.12500000000E+03  0.12500000000E+03 0.  0.
        -11    1    3    3    0    0 -0.38824342075E+02 -0.25152264069E+01 -0.29089272907E+02  0.48578201901E+02  0.51100000000E-03 0. -1.
         23    2    1    0    0    0 -0.28888406597E+02 -0.27550828667E+02 -0.49002463206E+01  0.84780594112E+02  0.74633427686E+02 0.  0.
         11    1    3    3    0    0  0.99359354779E+01 -0.25035602260E+02  0.24189026587E+02  0.36202392211E+02  0.51100000000E-03 0.  1.
         22    1    1    0    0    0  0.28888406597E+02  0.27550828667E+02  0.49002463206E+01  0.40219405888E+02  0.00000000000E+00 0. -1.
</event>
<event>
 5    1  0.8875601E-005  0.9118800E+02  0.7818608E-02  0.1130116E+00
         25   -1    0    0    0    0  0.00000000000E+00  0.00000000000E+00  0.99999998245E-14  0.12500000000E+03  0.12500000000E+03 0.  0.
        -11    1    3    3    0    0 -0.38910097334E+02  0.13011495891E+02 -0.50717524059E+01  0.41340263335E+02  0.51100000000E-03 0.  1.
         23    2    1    0    0    0  0.29257085486E+00 -0.27284669306E+02 -0.17295298866E+01  0.97659004216E+02  0.93753672215E+02 0.  0.
         11    1    3    3    0    0  0.39202668189E+02 -0.40296165197E+02  0.33422225194E+01  0.56318740881E+02  0.51100000000E-03 0. -1.
         22    1    1    0    0    0 -0.29257085486E+00  0.27284669306E+02  0.17295298866E+01  0.27340995784E+02  0.00000000000E+00 0. -1.
</event>
<event>
 5    1  0.8875601E-005  0.9118800E+02  0.7818608E-02  0.1130116E+00
         25   -1    0    0    0    0  0.00000000000E+00  0.00000000000E+00  0.99999998245E-14  0.12500000000E+03  0.12500000000E+03 0.  0.
        -11    1    3    3    0    0  0.28851459393E+02  0.15748666179E+02  0.48769525547E+02  0.58812361097E+02  0.51100000000E-03 0.  1.
         23    2    1    0    0    0  0.24670972979E+02  0.11433668468E+02  0.13404855174E+02  0.94683736632E+02  0.89699131312E+02 0.  0.
         11    1    3    3    0    0 -0.41804864146E+01 -0.43149977106E+01 -0.35364670373E+02  0.35871375535E+02  0.51100000000E-03 0. -1.
         22    1    1    0    0    0 -0.24670972979E+02 -0.11433668468E+02 -0.13404855174E+02  0.30316263368E+02  0.00000000000E+00 0.  1.
</event>
<event>
 5    1  0.8875601E-005  0.9118800E+02  0.7818608E-02  0.1130116E+00
         25   -1    0    0    0    0  0.00000000000E+00  0.00000000000E+00  0.99999998245E-14  0.12500000000E+03  0.12500000000E+03 0.  0.
        -11    1    3    3    0    0 -0.47714817947E+02 -0.29616898380E+02  0.12788829764E+02  0.57597037149E+02  0.51100000000E-03 0.  1.
         23    2    1    0    0    0 -0.23966987190E+02  0.22622408285E+00  0.16478246781E+02  0.95913916226E+02  0.91397368980E+02 0.  0.
         11    1    3    3    0    0  0.23747830757E+02  0.29843122463E+02  0.36894170175E+01  0.38316879077E+02  0.51100000000E-03 0. -1.
         22    1    1    0    0    0  0.23966987190E+02 -0.22622408285E+00 -0.16478246781E+02  0.29086083774E+02  0.00000000000E+00 0.  1.
</event>
<event>
 5    1  0.8875601E-005  0.9118800E+02  0.7818608E-02  0.1130116E+00
         25   -1    0    0    0    0  0.00000000000E+00  0.00000000000E+00  0.99999998245E-14  0.12500000000E+03  0.12500000000E+03 0.  0.
        -11    1    3    3    0    0  0.28768254487E+02 -0.23501319843E+02  0.26280418449E+02  0.45503680013E+02  0.51100000000E-03 0.  1.
         23    2    1    0    0    0  0.22291916499E+02  0.15945407644E+02 -0.60692656288E+01  0.96928278439E+02  0.92774293906E+02 0.  0.
         11    1    3    3    0    0 -0.64763379876E+01  0.39446727486E+02 -0.32349684078E+02  0.51424598426E+02  0.51100000000E-03 0. -1.
         22    1    1    0    0    0 -0.22291916499E+02 -0.15945407644E+02  0.60692656288E+01  0.28071721561E+02  0.00000000000E+00 0. -1.
</event>
<event>
 5    1  0.8875601E-005  0.9118800E+02  0.7818608E-02  0.1130116E+00
         25   -1    0    0    0    0  0.00000000000E+00  0.00000000000E+00  0.99999998245E-14  0.12500000000E+03  0.12500000000E+03 0.  0.
        -11    1    3    3    0    0 -0.25065782889E+02 -0.33602928695E+02  0.45689931289E+02  0.62008226149E+02  0.51100000000E-03 0. -1.
         23    2    1    0    0    0 -0.62769293748E+01 -0.15943439617E+02  0.22737963496E+02  0.96528819956E+02  0.92234510835E+02 0.  0.
         11    1    3    3    0    0  0.18788853514E+02  0.17659489079E+02 -0.22951967793E+02  0.34520593806E+02  0.51100000000E-03 0.  1.
         22    1    1    0    0    0  0.62769293748E+01  0.15943439617E+02 -0.22737963496E+02  0.28471180044E+02  0.00000000000E+00 0. -1.
</event>
<event>
 5    1  0.8875601E-005  0.9118800E+02  0.7818608E-02  0.1130116E+00
         25   -1    0    0    0    0  0.00000000000E+00  0.00000000000E+00  0.99999998245E-14  0.12500000000E+03  0.12500000000E+03 0.  0.
        -11    1    3    3    0    0  0.22321887631E+02  0.16660367554E+02 -0.25142093527E+02  0.37522784833E+02  0.51100000000E-03 0.  1.
         23    2    1    0    0    0  0.53521845101E+01 -0.26343201613E+02  0.10748029680E+02  0.96049519999E+02  0.91582640276E+02 0.  0.
         11    1    3    3    0    0 -0.16969703120E+02 -0.43003569167E+02  0.35890123208E+02  0.58526735166E+02  0.51100000000E-03 0. -1.
         22    1    1    0    0    0 -0.53521845101E+01  0.26343201613E+02 -0.10748029680E+02  0.28950480001E+02  0.00000000000E+00 0. -1.
</event>
<event>
 5    1  0.8875601E-005  0.9118800E+02  0.7818608E-02  0.1130116E+00
         25   -1    0    0    0    0  0.00000000000E+00  0.00000000000E+00  0.99999998245E-14  0.12500000000E+03  0.12500000000E+03 0.  0.
        -11    1    3    3    0    0  0.42054885150E+00  0.31652161321E+02 -0.23688199826E+02  0.39536906668E+02  0.51100000000E-03 0.  1.
         23    2    1    0    0    0  0.27870289036E+02 -0.67970183699E+01  0.64801329353E+01  0.95590059631E+02  0.90953366665E+02 0.  0.
         11    1    3    3    0    0  0.27449740185E+02 -0.38449179691E+02  0.30168332762E+02  0.56053152962E+02  0.51100000000E-03 0. -1.
         22    1    1    0    0    0 -0.27870289036E+02  0.67970183699E+01 -0.64801329353E+01  0.29409940369E+02  0.00000000000E+00 0. -1.
</event>
<event>
 5    1  0.8875601E-005  0.9118800E+02  0.7818608E-02  0.1130116E+00
         25   -1    0    0    0    0  0.00000000000E+00  0.00000000000E+00  0.99999998245E-14  0.12500000000E+03  0.12500000000E+03 0.  0.
        -11    1    3    3    0    0  0.20369582934E+02 -0.36243232235E+02  0.45072498867E+02  0.61319017818E+02  0.51100000000E-03 0.  1.
         23    2    1    0    0    0  0.72375592376E+01 -0.11010637121E+02  0.26823698342E+02  0.95114766418E+02  0.90297794017E+02 0.  0.
         11    1    3    3    0    0 -0.13132023697E+02  0.25232595114E+02 -0.18248800525E+02  0.33795748600E+02  0.51100000000E-03 0. -1.
         22    1    1    0    0    0 -0.72375592376E+01  0.11010637121E+02 -0.26823698342E+02  0.29885233582E+02  0.00000000000E+00 0.  1.
</event>
<event>
 5    1  0.8875601E-005  0.9118800E+02  0.7818608E-02  0.1130116E+00
         25   -1    0    0    0    0  0.00000000000E+00  0.00000000000E+00  0.99999998245E-14  0.12500000000E+03  0.12500000000E+03 0.  0.
        -11    1    3    3    0    0 -0.14898294990E+02 -0.25039727842E+02 -0.45859167823E+02  0.54332406883E+02  0.51100000000E-03 0. -1.
         23    2    1    0    0    0  0.99292810313E+01 -0.25316846867E+02 -0.14990180746E+02  0.93947804009E+02  0.88667643491E+02 0.  0.
         11    1    3    3    0    0  0.24827576021E+02 -0.27711902450E+00  0.30868987077E+02  0.39615397126E+02  0.51100000000E-03 0.  1.
         22    1    1    0    0    0 -0.99292810313E+01  0.25316846867E+02  0.14990180746E+02  0.31052195991E+02  0.00000000000E+00 0. -1.
</event>
<event>
 5    1  0.8875601E-005  0.9118800E+02  0.7818608E-02  0.1130116E+00
         25   -1    0    0    0    0  0.00000000000E+00  0.00000000000E+00  0.99999998245E-14  0.12500000000E+03  0.12500000000E+03 0.  0.
        -11    1    3    3    0    0 -0.29534889512E+02 -0.26864285750E+02  0.25807882986E+02  0.47539945013E+02  0.51100000000E-03 0.  1.
         23    2    1    0    0    0 -0.24088240753E+02 -0.28287130073E+01 -0.15909979078E+02  0.95993580123E+02  0.91506256784E+02 0.  0.
         11    1    3    3    0    0  0.54466487599E+01  0.24035572743E+02 -0.41717862065E+02  0.48453635109E+02  0.51100000000E-03 0. -1.
         22    1    1    0    0    0  0.24088240753E+02  0.28287130073E+01  0.15909979078E+02  0.29006419877E+02  0.00000000000E+00 0.  1.
</event>
<event>
 5    1  0.8875601E-005  0.9118800E+02  0.7818608E-02  0.1130116E+00
         25   -1    0    0    0    0  0.00000000000E+00  0.00000000000E+00  0.99999998245E-14  0.12500000000E+03  0.12500000000E+03 0.  0.
        -11    1    3    3    0    0 -0.17753477708E+02  0.11351835940E+02  0.57143134636E+02  0.60904745186E+02  0.51100000000E-03 0.  1.
         23    2    1    0    0    0 -0.78423443130E+01  0.15069678811E+02  0.24773229377E+02  0.94961516723E+02  0.90085399376E+02 0.  0.
         11    1    3    3    0    0  0.99111333952E+01  0.37178428709E+01 -0.32369905259E+02  0.34056771537E+02  0.51100000000E-03 0. -1.
         22    1    1    0    0    0  0.78423443130E+01 -0.15069678811E+02 -0.24773229377E+02  0.30038483277E+02  0.00000000000E+00 0.  1.
</event>
<event>
 5    1  0.8875601E-005  0.9118800E+02  0.7818608E-02  0.1130116E+00
         25   -1    0    0    0    0  0.00000000000E+00  0.00000000000E+00  0.99999998245E-14  0.12500000000E+03  0.12500000000E+03 0.  0.
        -11    1    3    3    0    0  0.50702267046E+02 -0.92371576821E+01 -0.27135176227E+02  0.58243993294E+02  0.51100000000E-03 0.  1.
         23    2    1    0    0    0  0.28090499234E+02 -0.14538949464E+02 -0.79640591795E+00  0.93359970589E+02  0.87835030865E+02 0.  0.
         11    1    3    3    0    0 -0.22611767812E+02 -0.53017917823E+01  0.26338770309E+02  0.35115977295E+02  0.51100000000E-03 0. -1.
         22    1    1    0    0    0 -0.28090499234E+02  0.14538949464E+02  0.79640591795E+00  0.31640029411E+02  0.00000000000E+00 0.  1.
</event>
<event>
 5    1  0.8875601E-005  0.9118800E+02  0.7818608E-02  0.1130116E+00
         25   -1    0    0    0    0  0.00000000000E+00  0.00000000000E+00  0.99999998245E-14  0.12500000000E+03  0.12500000000E+03 0.  0.
        -11    1    3    3    0    0 -0.27782096323E+02  0.44654636989E+01  0.35873359511E+02  0.45592577960E+02  0.51100000000E-03 0.  1.
         23    2    1    0    0    0  0.21050636524E+02  0.24752670687E+00  0.16318060754E+02  0.98364128055E+02  0.94689133556E+02 0.  0.
         11    1    3    3    0    0  0.48832732846E+02 -0.42179369920E+01 -0.19555298757E+02  0.52771550095E+02  0.51100000000E-03 0. -1.
         22    1    1    0    0    0 -0.21050636524E+02 -0.24752670687E+00 -0.16318060754E+02  0.26635871945E+02  0.00000000000E+00 0. -1.
</event>
<event>
 5    1  0.8875601E-005  0.9118800E+02  0.7818608E-02  0.1130116E+00
         25   -1    0    0    0    0  0.00000000000E+00  0.00000000000E+00  0.99999998245E-14  0.12500000000E+03  0.12500000000E+03 0.  0.
        -11    1    3    3    0    0 -0.72968098074E+01 -0.27235513736E+02  0.24599389935E+02  0.37418533206E+02  0.51100000000E-03 0. -1.
         23    2    1    0    0    0  0.19124434933E+02 -0.58652620353E+01 -0.22111704863E+02  0.95182676140E+02  0.90391753135E+02 0.  0.
         11    1    3    3    0    0  0.26421244741E+02  0.21370251701E+02 -0.46711094798E+02  0.57764142934E+02  0.51100000000E-03 0.  1.
         22    1    1    0    0    0 -0.19124434933E+02  0.58652620353E+01  0.22111704863E+02  0.29817323860E+02  0.00000000000E+00 0.  1.
</event>
<event>
 5    1  0.8875601E-005  0.9118800E+02  0.7818608E-02  0.1130116E+00
         25   -1    0    0    0    0  0.00000000000E+00  0.00000000000E+00  0.99999998245E-14  0.12500000000E+03  0.12500000000E+03 0.  0.
        -11    1    3    3    0    0 -0.95903902520E+01 -0.11800416519E+02 -0.28657746805E+02  0.32442131055E+02  0.51100000000E-03 0.  1.
         23    2    1    0    0    0  0.10773691528E+02  0.90998455130E+01  0.26578079161E+02  0.94912229903E+02  0.90016984374E+02 0.  0.
         11    1    3    3    0    0  0.20364081780E+02  0.20900262032E+02  0.55235825966E+02  0.62470098848E+02  0.51100000000E-03 0. -1.
         22    1    1    0    0    0 -0.10773691528E+02 -0.90998455130E+01 -0.26578079161E+02  0.30087770097E+02  0.00000000000E+00 0. -1.
</event>
<event>
 5    1  0.8875601E-005  0.9118800E+02  0.7818608E-02  0.1130116E+00
         25   -1    0    0    0    0  0.00000000000E+00  0.00000000000E+00  0.99999998245E-14  0.12500000000E+03  0.12500000000E+03 0.  0.
        -11    1    3    3    0    0 -0.19346930440E+02  0.52062054186E+02 -0.17995761456E+02  0.58383290710E+02  0.51100000000E-03 0.  1.
         23    2    1    0    0    0 -0.11308785826E+02  0.12826885752E+02 -0.20248635610E+02  0.98496700601E+02  0.94863982366E+02 0.  0.
         11    1    3    3    0    0  0.80381446137E+01 -0.39235168434E+02 -0.22528741542E+01  0.40113409891E+02  0.51100000000E-03 0. -1.
         22    1    1    0    0    0  0.11308785826E+02 -0.12826885752E+02  0.20248635610E+02  0.26503299399E+02  0.00000000000E+00 0.  1.
</event>
<event>
 5    1  0.8875601E-005  0.9118800E+02  0.7818608E-02  0.1130116E+00
         25   -1    0    0    0    0  0.00000000000E+00  0.00000000000E+00  0.99999998245E-14  0.12500000000E+03  0.12500000000E+03 0.  0.
        -11    1    3    3    0    0  0.34260381496E+02  0.35625722947E+02 -0.10593624805E+02  0.50548894770E+02  0.51100000000E-03 0.  1.
         23    2    1    0    0    0  0.28565663672E+02 -0.46445888624E+01  0.75609710391E+01  0.95087834753E+02  0.90260504587E+02 0.  0.
         11    1    3    3    0    0 -0.56947178244E+01 -0.40270311809E+02  0.18154595844E+02  0.44538939983E+02  0.51100000000E-03 0. -1.
         22    1    1    0    0    0 -0.28565663672E+02  0.46445888624E+01 -0.75609710391E+01  0.29912165247E+02  0.00000000000E+00 0.  1.
</event>
<event>
 5    1  0.8875601E-005  0.9118800E+02  0.7818608E-02  0.1130116E+00
         25   -1    0    0    0    0  0.00000000000E+00  0.00000000000E+00  0.99999998245E-14  0.12500000000E+03  0.12500000000E+03 0.  0.
        -11    1    3    3    0    0 -0.34892543915E+02  0.24981570136E+02 -0.42737065549E+02  0.60564224088E+02  0.51100000000E-03 0.  1.
         23    2    1    0    0    0 -0.15208974959E+02  0.20961504726E+02 -0.14196982256E+02  0.95466088900E+02  0.90782830013E+02 0.  0.
         11    1    3    3    0    0  0.19683568957E+02 -0.40200654106E+01  0.28540083293E+02  0.34901864813E+02  0.51100000000E-03 0. -1.
         22    1    1    0    0    0  0.15208974959E+02 -0.20961504726E+02  0.14196982256E+02  0.29533911100E+02  0.00000000000E+00 0.  1.
</event>
<event>
 5    1  0.8875601E-005  0.9118800E+02  0.7818608E-02  0.1130116E+00
         25   -1    0    0    0    0  0.00000000000E+00  0.00000000000E+00  0.99999998245E-14  0.12500000000E+03  0.12500000000E+03 0.  0.
        -11    1    3    3    0    0  0.32430312023E+02 -0.24042147521E+02 -0.26946877015E+01  0.40459996755E+02  0.51100000000E-03 0. -1.
         23    2    1    0    0    0 -0.20807589396E+02 -0.17651646409E+02  0.10639020578E+02  0.95713054849E+02  0.91122245979E+02 0.  0.
         11    1    3    3    0    0 -0.53237901419E+02  0.63905011111E+01  0.13333708279E+02  0.55253058094E+02  0.51100000000E-03 0.  1.
         22    1    1    0    0    0  0.20807589396E+02  0.17651646409E+02 -0.10639020578E+02  0.29286945151E+02  0.00000000000E+00 0.  1.
</event>
<event>
 5    1  0.8875601E-005  0.9118800E+02  0.7818608E-02  0.1130116E+00
         25   -1    0    0    0    0  0.00000000000E+00  0.00000000000E+00  0.99999998245E-14  0.12500000000E+03  0.12500000000E+03 0.  0.
        -11    1    3    3    0    0 -0.25903364158E+02 -0.30758471503E+02  0.37075945641E+02  0.54696376382E+02  0.51100000000E-03 0. -1.
         23    2    1    0    0    0 -0.74123849885E+01 -0.23548961483E+02 -0.36909050112E+01  0.10003763196E+03  0.96873154129E+02 0.  0.
         11    1    3    3    0    0  0.18490979170E+02  0.72095100192E+01 -0.40766850652E+02  0.45341255582E+02  0.51100000000E-03 0.  1.
         22    1    1    0    0    0  0.74123849885E+01  0.23548961483E+02  0.36909050112E+01  0.24962368036E+02  0.00000000000E+00 0. -1.
</event>
<event>
 5    1  0.8875601E-005  0.9118800E+02  0.7818608E-02  0.1130116E+00
         25   -1    0    0    0    0  0.00000000000E+00  0.00000000000E+00  0.99999998245E-14  0.12500000000E+03  0.12500000000E+03 0.  0.
        -11    1    3    3    0    0 -0.13619202722E+02 -0.14638715565E+02 -0.26404797852E+02  0.33120809562E+02  0.51100000000E-03 0.  1.
         23    2    1    0    0    0  0.24967759735E+02  0.10157557660E+02  0.14336659051E+02  0.94469608641E+02  0.89400235795E+02 0.  0.
         11    1    3    3    0    0  0.38586962457E+02  0.24796273225E+02  0.40741456903E+02  0.61348799079E+02  0.51100000000E-03 0. -1.
         22    1    1    0    0    0 -0.24967759735E+02 -0.10157557660E+02 -0.14336659051E+02  0.30530391359E+02  0.00000000000E+00 0. -1.
</event>
<event>
 5    1  0.8875601E-005  0.9118800E+02  0.7818608E-02  0.1130116E+00
         25   -1    0    0    0    0  0.00000000000E+00  0.00000000000E+00  0.99999998245E-14  0.12500000000E+03  0.12500000000E+03 0.  0.
        -11    1    3    3    0    0 -0.85621111302E+00 -0.44101844899E+02  0.18932629192E+02  0.48001565280E+02  0.51100000000E-03 0.  1.
         23    2    1    0    0    0  0.14861560807E+02 -0.15590487898E+02 -0.17779971254E+02  0.97070505191E+02  0.92965726468E+02 0.  0.
         11    1    3    3    0    0  0.15717771920E+02  0.28511357001E+02 -0.36712600446E+02  0.49068939910E+02  0.51100000000E-03 0. -1.
         22    1    1    0    0    0 -0.14861560807E+02  0.15590487898E+02  0.17779971254E+02  0.27929494809E+02  0.00000000000E+00 0. -1.
</event>
<event>
 5    1  0.8875601E-005  0.9118800E+02  0.7818608E-02  0.1130116E+00
         25   -1    0    0    0    0  0.00000000000E+00  0.00000000000E+00  0.99999998245E-14  0.12500000000E+03  0.12500000000E+03 0.  0.
        -11    1    3    3    0    0  0.92027800382E+01 -0.24365931810E+02  0.53453966706E+02  0.59461889898E+02  0.51100000000E-03 0. -1.
         23    2    1    0    0    0  0.13002243958E+02 -0.20559260956E+02  0.19544131701E+02  0.93795598981E+02  0.88452810839E+02 0.  0.
         11    1    3    3    0    0  0.37994639198E+01  0.38066708539E+01 -0.33909835005E+02  0.34333709083E+02  0.51100000000E-03 0.  1.
         22    1    1    0    0    0 -0.13002243958E+02  0.20559260956E+02 -0.19544131701E+02  0.31204401019E+02  0.00000000000E+00 0. -1.
</event>
<event>
 5    1  0.8875601E-005  0.9118800E+02  0.7818608E-02  0.1130116E+00
         25   -1    0    0    0    0  0.00000000000E+00  0.00000000000E+00  0.99999998245E-14  0.12500000000E+03  0.12500000000E+03 0.  0.
        -11    1    3    3    0    0 -0.48779449774E+02 -0.17697456762E+02 -0.21042465784E+02  0.55994821749E+02  0.51100000000E-03 0. -1.
         23    2    1    0    0    0 -0.83200537536E+01 -0.21222413475E+02 -0.16498305031E+02  0.96860913358E+02  0.92683484718E+02 0.  0.
         11    1    3    3    0    0  0.40459396021E+02 -0.35249567137E+01  0.45441607535E+01  0.40866091609E+02  0.51100000000E-03 0.  1.
         22    1    1    0    0    0  0.83200537536E+01  0.21222413475E+02  0.16498305031E+02  0.28139086642E+02  0.00000000000E+00 0. -1.
</event>
<event>
 5    1  0.8875601E-005  0.9118800E+02  0.7818608E-02  0.1130116E+00
         25   -1    0    0    0    0  0.00000000000E+00  0.00000000000E+00  0.99999998245E-14  0.12500000000E+03  0.12500000000E+03 0.  0.
        -11    1    3    3    0    0  0.28487011569E+01  0.19739839311E+02 -0.32673098649E+02  0.38279338160E+02  0.51100000000E-03 0. -1.
         23    2    1    0    0    0  0.48270901500E+00 -0.26628483870E+02  0.47928128989E+01  0.97939323425E+02  0.94126674520E+02 0.  0.
         11    1    3    3    0    0 -0.23659921419E+01 -0.46368323181E+02  0.37465911548E+02  0.59659985265E+02  0.51100000000E-03 0.  1.
         22    1    1    0    0    0 -0.48270901500E+00  0.26628483870E+02 -0.47928128989E+01  0.27060676575E+02  0.00000000000E+00 0.  1.
</event>
<event>
 5    1  0.8875601E-005  0.9118800E+02  0.7818608E-02  0.1130116E+00
         25   -1    0    0    0    0  0.00000000000E+00  0.00000000000E+00  0.99999998245E-14  0.12500000000E+03  0.12500000000E+03 0.  0.
        -11    1    3    3    0    0  0.10940516602E+02  0.43247154388E+02 -0.41139316043E+02  0.60683231546E+02  0.51100000000E-03 0. -1.
         23    2    1    0    0    0  0.21538988408E+01  0.23206357005E+02 -0.80713384243E+01  0.10033583998E+03  0.97257184796E+02 0.  0.
         11    1    3    3    0    0 -0.87866177616E+01 -0.20040797383E+02  0.33067977618E+02  0.39652608432E+02  0.51100000000E-03 0.  1.
         22    1    1    0    0    0 -0.21538988408E+01 -0.23206357005E+02  0.80713384243E+01  0.24664160022E+02  0.00000000000E+00 0. -1.
</event>
<event>
 5    1  0.8875601E-005  0.9118800E+02  0.7818608E-02  0.1130116E+00
         25   -1    0    0    0    0  0.00000000000E+00  0.00000000000E+00  0.99999998245E-14  0.12500000000E+03  0.12500000000E+03 0.  0.
        -11    1    3    3    0    0 -0.33480870707E+02 -0.35581102263E+02 -0.95486984126E+00  0.48866095795E+02  0.51100000000E-03 0. -1.
         23    2    1    0    0    0  0.77185886330E+01 -0.77803248921E+01  0.19514953182E+02  0.10261823368E+03  0.10014768305E+03 0.  0.
         11    1    3    3    0    0  0.41199459340E+02  0.27800777371E+02  0.20469823023E+02  0.53752137885E+02  0.51100000000E-03 0.  1.
         22    1    1    0    0    0 -0.77185886330E+01  0.77803248921E+01 -0.19514953182E+02  0.22381766320E+02  0.00000000000E+00 0. -1.
</event>
<event>
 5    1  0.8875601E-005  0.9118800E+02  0.7818608E-02  0.1130116E+00
         25   -1    0    0    0    0  0.00000000000E+00  0.00000000000E+00  0.99999998245E-14  0.12500000000E+03  0.12500000000E+03 0.  0.
        -11    1    3    3    0    0  0.35252725956E+02 -0.71556836670E+01  0.32900558540E+02  0.48748387138E+02  0.51100000000E-03 0.  1.
         23    2    1    0    0    0 -0.30960360506E+01  0.18141850049E+02  0.22643282722E+02  0.95820719425E+02  0.91269818978E+02 0.  0.
         11    1    3    3    0    0 -0.38348762006E+02  0.25297533716E+02 -0.10257275818E+02  0.47072332287E+02  0.51100000000E-03 0. -1.
         22    1    1    0    0    0  0.30960360506E+01 -0.18141850049E+02 -0.22643282722E+02  0.29179280575E+02  0.00000000000E+00 0.  1.
</event>
<event>
 5    1  0.8875601E-005  0.9118800E+02  0.7818608E-02  0.1130116E+00
         25   -1    0    0    0    0  0.00000000000E+00  0.00000000000E+00  0.99999998245E-14  0.12500000000E+03  0.12500000000E+03 0.  0.
        -11    1    3    3    0    0  0.54376425676E+02  0.10700395235E+02  0.19818665370E+02  0.58856381343E+02  0.51100000000E-03 0. -1.
         23    2    1    0    0    0  0.28644998649E+02 -0.20030574270E+01 -0.38158258496E+01  0.96032626740E+02  0.91559579974E+02 0.  0.
         11    1    3    3    0    0 -0.25731427027E+02 -0.12703452662E+02 -0.23634491219E+02  0.37176245397E+02  0.51100000000E-03 0.  1.
         22    1    1    0    0    0 -0.28644998649E+02  0.20030574270E+01  0.38158258496E+01  0.28967373260E+02  0.00000000000E+00 0. -1.
</event>
<event>
 5    1  0.8875601E-005  0.9118800E+02  0.7818608E-02  0.1130116E+00
         25   -1    0    0    0    0  0.00000000000E+00  0.00000000000E+00  0.99999998245E-14  0.12500000000E+03  0.12500000000E+03 0.  0.
        -11    1    3    3    0    0  0.26233591656E+02 -0.77291569693E+01  0.25355317386E+02  0.37293877764E+02  0.51100000000E-03 0. -1.
         23    2    1    0    0    0 -0.10333020389E+02  0.38643970607E+01 -0.23280928826E+02  0.99237497753E+02  0.95835141980E+02 0.  0.
         11    1    3    3    0    0 -0.36566612046E+02  0.11593554030E+02 -0.48636246212E+02  0.61943619990E+02  0.51100000000E-03 0.  1.
         22    1    1    0    0    0  0.10333020389E+02 -0.38643970607E+01  0.23280928826E+02  0.25762502247E+02  0.00000000000E+00 0.  1.
</event>
<event>
 5    1  0.8875601E-005  0.9118800E+02  0.7818608E-02  0.1130116E+00
         25   -1    0    0    0    0  0.00000000000E+00  0.00000000000E+00  0.99999998245E-14  0.12500000000E+03  0.12500000000E+03 0.  0.
        -11    1    3    3    0    0 -0.34411932055E+02 -0.15526177478E+02 -0.18400243498E+02  0.41997764415E+02  0.51100000000E-03 0.  1.
         23    2    1    0    0    0  0.10899832528E+02 -0.22376387209E+02 -0.26620757732E+02  0.88555881189E+02  0.80709171085E+02 0.  0.
         11    1    3    3    0    0  0.45311764583E+02 -0.68502097316E+01 -0.82205142348E+01  0.46558116774E+02  0.51100000000E-03 0. -1.
         22    1    1    0    0    0 -0.10899832528E+02  0.22376387209E+02  0.26620757732E+02  0.36444118811E+02  0.00000000000E+00 0.  1.
</event>
<event>
 5    1  0.8875601E-005  0.9118800E+02  0.7818608E-02  0.1130116E+00
         25   -1    0    0    0    0  0.00000000000E+00  0.00000000000E+00  0.99999998245E-14  0.12500000000E+03  0.12500000000E+03 0.  0.
        -11    1    3    3    0    0 -0.30384710600E+02  0.48196419527E+02  0.15482903552E+02  0.59041051787E+02  0.51100000000E-03 0.  1.
         23    2    1    0    0    0 -0.46094995328E+01  0.21878753467E+02  0.18469492744E+02  0.95999146539E+02  0.91513860342E+02 0.  0.
         11    1    3    3    0    0  0.25775211067E+02 -0.26317666060E+02  0.29865891925E+01  0.36958094752E+02  0.51100000000E-03 0. -1.
         22    1    1    0    0    0  0.46094995328E+01 -0.21878753467E+02 -0.18469492744E+02  0.29000853461E+02  0.00000000000E+00 0.  1.
</event>
<event>
 5    1  0.8875601E-005  0.9118800E+02  0.7818608E-02  0.1130116E+00
         25   -1    0    0    0    0  0.00000000000E+00  0.00000000000E+00  0.99999998245E-14  0.12500000000E+03  0.12500000000E+03 0.  0.
        -11    1    3    3    0    0 -0.26664009413E+02  0.27226902670E+02 -0.28613251571E+01  0.38215975834E+02  0.51100000000E-03 0.  1.
         23    2    1    0    0    0  0.11947268377E+00 -0.11899786106E+02 -0.29913671411E+02  0.92806104299E+02  0.87043242557E+02 0.  0.
         11    1    3    3    0    0  0.26783482097E+02 -0.39126688776E+02 -0.27052346254E+02  0.54590128466E+02  0.51100000000E-03 0. -1.
         22    1    1    0    0    0 -0.11947268377E+00  0.11899786106E+02  0.29913671411E+02  0.32193895701E+02  0.00000000000E+00 0. -1.
</event>
<event>
 5    1  0.8875601E-005  0.9118800E+02  0.7818608E-02  0.1130116E+00
         25   -1    0    0    0    0  0.00000000000E+00  0.00000000000E+00  0.99999998245E-14  0.12500000000E+03  0.12500000000E+03 0.  0.
        -11    1    3    3    0    0  0.17376000302E+02  0.20142348157E+02 -0.24518615271E+02  0.36177369595E+02  0.51100000000E-03 0.  1.
         23    2    1    0    0    0  0.68225432876E+01 -0.74541657635E+01  0.27334624126E+02  0.95857361818E+02  0.91319989347E+02 0.  0.
         11    1    3    3    0    0 -0.10553457015E+02 -0.27596513920E+02  0.51853239396E+02  0.59679992222E+02  0.51100000000E-03 0. -1.
         22    1    1    0    0    0 -0.68225432876E+01  0.74541657635E+01 -0.27334624126E+02  0.29142638182E+02  0.00000000000E+00 0. -1.
</event>
<event>
 5    1  0.8875601E-005  0.9118800E+02  0.7818608E-02  0.1130116E+00
         25   -1    0    0    0    0  0.00000000000E+00  0.00000000000E+00  0.99999998245E-14  0.12500000000E+03  0.12500000000E+03 0.  0.
        -11    1    3    3    0    0 -0.16362323199E+02 -0.24094046698E+02 -0.40894052684E+02  0.50205301034E+02  0.51100000000E-03 0.  1.
         23    2    1    0    0    0  0.97103967235E+01 -0.27881292609E+02 -0.44993960995E+01  0.95135257454E+02  0.90326155478E+02 0.  0.
         11    1    3    3    0    0  0.26072719922E+02 -0.37872459113E+01  0.36394656585E+02  0.44929956420E+02  0.51100000000E-03 0. -1.
         22    1    1    0    0    0 -0.97103967235E+01  0.27881292609E+02  0.44993960995E+01  0.29864742546E+02  0.00000000000E+00 0. -1.
</event>
<event>
 5    1  0.8875601E-005  0.9118800E+02  0.7818608E-02  0.1130116E+00
         25   -1    0    0    0    0  0.00000000000E+00  0.00000000000E+00  0.99999998245E-14  0.12500000000E+03  0.12500000000E+03 0.  0.
        -11    1    3    3    0    0 -0.12484924698E+02 -0.34330892712E+02  0.18190954991E+02  0.40809243841E+02  0.51100000000E-03 0.  1.
         23    2    1    0    0    0  0.15852821806E+02 -0.14299972235E+02 -0.22294228236E+02  0.94131994270E+02  0.88926928247E+02 0.  0.
         11    1    3    3    0    0  0.28337746504E+02  0.20030920477E+02 -0.40485183228E+02  0.53322750429E+02  0.51100000000E-03 0. -1.
         22    1    1    0    0    0 -0.15852821806E+02  0.14299972235E+02  0.22294228236E+02  0.30868005730E+02  0.00000000000E+00 0. -1.
</event>
<event>
 5    1  0.8875601E-005  0.9118800E+02  0.7818608E-02  0.1130116E+00
         25   -1    0    0    0    0  0.00000000000E+00  0.00000000000E+00  0.99999998245E-14  0.12500000000E+03  0.12500000000E+03 0.  0.
        -11    1    3    3    0    0  0.42674632786E+02  0.82150704805E+01 -0.13183512933E+02  0.45413837978E+02  0.51100000000E-03 0.  1.
         23    2    1    0    0    0 -0.52124541391E+01 -0.20150197339E+02 -0.11769439504E+02  0.10108933633E+03  0.98220843420E+02 0.  0.
         11    1    3    3    0    0 -0.47887086925E+02 -0.28365267820E+02  0.14140734292E+01  0.55675498350E+02  0.51100000000E-03 0. -1.
         22    1    1    0    0    0  0.52124541391E+01  0.20150197339E+02  0.11769439504E+02  0.23910663671E+02  0.00000000000E+00 0. -1.
</event>
<event>
 5    1  0.8875601E-005  0.9118800E+02  0.7818608E-02  0.1130116E+00
         25   -1    0    0    0    0  0.00000000000E+00  0.00000000000E+00  0.99999998245E-14  0.12500000000E+03  0.12500000000E+03 0.  0.
        -11    1    3    3    0    0 -0.35538559154E+02 -0.94285390332E+01 -0.42115071048E+02  0.55906759383E+02  0.51100000000E-03 0. -1.
         23    2    1    0    0    0 -0.25194069094E+02 -0.14056268226E+02 -0.37538517720E+01  0.95906853091E+02  0.91387708543E+02 0.  0.
         11    1    3    3    0    0  0.10344490060E+02 -0.46277291925E+01  0.38361219276E+02  0.40000093709E+02  0.51100000000E-03 0.  1.
         22    1    1    0    0    0  0.25194069094E+02  0.14056268226E+02  0.37538517720E+01  0.29093146909E+02  0.00000000000E+00 0. -1.
</event>
<event>
 5    1  0.8875601E-005  0.9118800E+02  0.7818608E-02  0.1130116E+00
         25   -1    0    0    0    0  0.00000000000E+00  0.00000000000E+00  0.99999998245E-14  0.12500000000E+03  0.12500000000E+03 0.  0.
        -11    1    3    3    0    0 -0.38611705998E+02  0.18239125185E+02 -0.41529889055E+02  0.59567283074E+02  0.51100000000E-03 0.  1.
         23    2    1    0    0    0 -0.15580837026E+02  0.19906757370E+02 -0.12101915769E+02  0.96973265679E+02  0.92834887946E+02 0.  0.
         11    1    3    3    0    0  0.23030868972E+02  0.16676321841E+01  0.29427973286E+02  0.37405982606E+02  0.51100000000E-03 0. -1.
         22    1    1    0    0    0  0.15580837026E+02 -0.19906757370E+02  0.12101915769E+02  0.28026734321E+02  0.00000000000E+00 0.  1.
</event>
<event>
 5    1  0.8875601E-005  0.9118800E+02  0.7818608E-02  0.1130116E+00
         25   -1    0    0    0    0  0.00000000000E+00  0.00000000000E+00  0.99999998245E-14  0.12500000000E+03  0.12500000000E+03 0.  0.
        -11    1    3    3    0    0  0.14360817549E+02 -0.12415065167E+02  0.27191810868E+02  0.33162652221E+02  0.51100000000E-03 0.  1.
         23    2    1    0    0    0 -0.20555530705E+02  0.80774690608E+01 -0.19904350751E+02  0.95268559944E+02  0.90510441309E+02 0.  0.
         11    1    3    3    0    0 -0.34916348255E+02  0.20492534227E+02 -0.47096161619E+02  0.62105907723E+02  0.51100000000E-03 0. -1.
         22    1    1    0    0    0  0.20555530705E+02 -0.80774690608E+01  0.19904350751E+02  0.29731440056E+02  0.00000000000E+00 0. -1.
</event>
<event>
 5    1  0.8875601E-005  0.9118800E+02  0.7818608E-02  0.1130116E+00
         25   -1    0    0    0    0  0.00000000000E+00  0.00000000000E+00  0.99999998245E-14  0.12500000000E+03  0.12500000000E+03 0.  0.
        -11    1    3    3    0    0  0.51716792712E+01 -0.49390461692E+02  0.14838723591E+02  0.51830026921E+02  0.51100000000E-03 0.  1.
         23    2    1    0    0    0 -0.10402373003E+01 -0.74074118931E+01  0.27804786325E+02  0.96206632931E+02  0.91796831279E+02 0.  0.
         11    1    3    3    0    0 -0.62119165715E+01  0.41983049799E+02  0.12966062733E+02  0.44376606010E+02  0.51100000000E-03 0. -1.
         22    1    1    0    0    0  0.10402373003E+01  0.74074118931E+01 -0.27804786325E+02  0.28793367069E+02  0.00000000000E+00 0.  1.
</event>
<event>
 5    1  0.8875601E-005  0.9118800E+02  0.7818608E-02  0.1130116E+00
         25   -1    0    0    0    0  0.00000000000E+00  0.00000000000E+00  0.99999998245E-14  0.12500000000E+03  0.12500000000E+03 0.  0.
        -11    1    3    3    0    0  0.32307443406E+00 -0.47332231108E+02 -0.35342288107E+01  0.47465095094E+02  0.51100000000E-03 0.  1.
         23    2    1    0    0    0  0.11393242874E+02 -0.79504562428E+01 -0.27006970214E+02  0.94629089942E+02  0.89622946199E+02 0.  0.
         11    1    3    3    0    0  0.11070168440E+02  0.39381774865E+02 -0.23472741403E+02  0.47163994848E+02  0.51100000000E-03 0. -1.
         22    1    1    0    0    0 -0.11393242874E+02  0.79504562428E+01  0.27006970214E+02  0.30370910058E+02  0.00000000000E+00 0.  1.
</event>
<event>
 5    1  0.8875601E-005  0.9118800E+02  0.7818608E-02  0.1130116E+00
         25   -1    0    0    0    0  0.00000000000E+00  0.00000000000E+00  0.99999998245E-14  0.12500000000E+03  0.12500000000E+03 0.  0.
        -11    1    3    3    0    0  0.18099327953E+02  0.20653025728E+02  0.21023187129E+02  0.34584787717E+02  0.51100000000E-03 0.  1.
         23    2    1    0    0    0 -0.81128477142E+01 -0.28948601131E+02 -0.11617218262E+01  0.94913634266E+02  0.90018934489E+02 0.  0.
         11    1    3    3    0    0 -0.26212175668E+02 -0.49601626859E+02 -0.22184908955E+02  0.60328846549E+02  0.51100000000E-03 0. -1.
         22    1    1    0    0    0  0.81128477142E+01  0.28948601131E+02  0.11617218262E+01  0.30086365734E+02  0.00000000000E+00 0. -1.
</event>
<event>
 5    1  0.8875601E-005  0.9118800E+02  0.7818608E-02  0.1130116E+00
         25   -1    0    0    0    0  0.00000000000E+00  0.00000000000E+00  0.99999998245E-14  0.12500000000E+03  0.12500000000E+03 0.  0.
        -11    1    3    3    0    0  0.38805557610E+01 -0.62267795787E+01 -0.35199541550E+02  0.35956073514E+02  0.51100000000E-03 0.  1.
         23    2    1    0    0    0  0.48654933703E+01 -0.14100341338E+02  0.24573610614E+02  0.96253609092E+02  0.91860776576E+02 0.  0.
         11    1    3    3    0    0  0.98493760928E+00 -0.78735617593E+01  0.59773152165E+02  0.60297535578E+02  0.51100000000E-03 0. -1.
         22    1    1    0    0    0 -0.48654933703E+01  0.14100341338E+02 -0.24573610614E+02  0.28746390908E+02  0.00000000000E+00 0. -1.
</event>
<event>
 5    1  0.8875601E-005  0.9118800E+02  0.7818608E-02  0.1130116E+00
         25   -1    0    0    0    0  0.00000000000E+00  0.00000000000E+00  0.99999998245E-14  0.12500000000E+03  0.12500000000E+03 0.  0.
        -11    1    3    3    0    0  0.30431536179E+02  0.13924876547E+02 -0.13600637099E+02  0.36124201180E+02  0.51100000000E-03 0. -1.
         23    2    1    0    0    0 -0.25768314230E+02 -0.29639600943E+01 -0.15400279761E+02  0.94834461808E+02  0.89908928656E+02 0.  0.
         11    1    3    3    0    0 -0.56199850409E+02 -0.16888836642E+02 -0.17996426619E+01  0.58710260629E+02  0.51100000000E-03 0.  1.
         22    1    1    0    0    0  0.25768314230E+02  0.29639600943E+01  0.15400279761E+02  0.30165538192E+02  0.00000000000E+00 0.  1.
</event>
<event>
 5    1  0.8875601E-005  0.9118800E+02  0.7818608E-02  0.1130116E+00
         25   -1    0    0    0    0  0.00000000000E+00  0.00000000000E+00  0.99999998245E-14  0.12500000000E+03  0.12500000000E+03 0.  0.
        -11    1    3    3    0    0 -0.81820638707E+01 -0.13357546181E+02  0.36340417615E+02  0.39572669380E+02  0.51100000000E-03 0. -1.
         23    2    1    0    0    0  0.85234826588E+01  0.27198826634E+02  0.57248120854E-01  0.96496856240E+02  0.92191182116E+02 0.  0.
         11    1    3    3    0    0  0.16705546529E+02  0.40556372815E+02 -0.36283169494E+02  0.56924186859E+02  0.51100000000E-03 0.  1.
         22    1    1    0    0    0 -0.85234826588E+01 -0.27198826634E+02 -0.57248120854E-01  0.28503143760E+02  0.00000000000E+00 0.  1.
</event>
<event>
 5    1  0.8875601E-005  0.9118800E+02  0.7818608E-02  0.1130116E+00
         25   -1    0    0    0    0  0.00000000000E+00  0.00000000000E+00  0.99999998245E-14  0.12500000000E+03  0.12500000000E+03 0.  0.
        -11    1    3    3    0    0 -0.34171882473E+02 -0.11660322332E+02 -0.94067348223E+01  0.37311758588E+02  0.51100000000E-03 0. -1.
         23    2    1    0    0    0  0.60804349308E+01  0.28661577849E+02  0.27596224164E+01  0.95570877525E+02  0.90927000288E+02 0.  0.
         11    1    3    3    0    0  0.40252317404E+02  0.40321900181E+02  0.12166357239E+02  0.58259118937E+02  0.51100000000E-03 0.  1.
         22    1    1    0    0    0 -0.60804349308E+01 -0.28661577849E+02 -0.27596224164E+01  0.29429122475E+02  0.00000000000E+00 0.  1.
</event>
<event>
 5    1  0.8875601E-005  0.9118800E+02  0.7818608E-02  0.1130116E+00
         25   -1    0    0    0    0  0.00000000000E+00  0.00000000000E+00  0.99999998245E-14  0.12500000000E+03  0.12500000000E+03 0.  0.
        -11    1    3    3    0    0  0.38570786191E+02 -0.33432860368E+01 -0.39500124521E+02  0.55309519491E+02  0.51100000000E-03 0.  1.
         23    2    1    0    0    0  0.16374329303E+02 -0.22501395745E+02 -0.15892068877E+02  0.92953325854E+02  0.87254406556E+02 0.  0.
         11    1    3    3    0    0 -0.22196456887E+02 -0.19158109709E+02  0.23608055643E+02  0.37643806363E+02  0.51100000000E-03 0. -1.
         22    1    1    0    0    0 -0.16374329303E+02  0.22501395745E+02  0.15892068877E+02  0.32046674146E+02  0.00000000000E+00 0.  1.
</event>
<event>
 5    1  0.8875601E-005  0.9118800E+02  0.7818608E-02  0.1130116E+00
         25   -1    0    0    0    0  0.00000000000E+00  0.00000000000E+00  0.99999998245E-14  0.12500000000E+03  0.12500000000E+03 0.  0.
        -11    1    3    3    0    0  0.24521256396E+02 -0.39569247729E+02 -0.26557946934E+02  0.53594234080E+02  0.51100000000E-03 0.  1.
         23    2    1    0    0    0  0.13386091657E+01 -0.28485705428E+02  0.67821242766E+01  0.95687468586E+02  0.91087140401E+02 0.  0.
         11    1    3    3    0    0 -0.23182647230E+02  0.11083542301E+02  0.33340071211E+02  0.42093234505E+02  0.51100000000E-03 0. -1.
         22    1    1    0    0    0 -0.13386091657E+01  0.28485705428E+02 -0.67821242766E+01  0.29312531414E+02  0.00000000000E+00 0.  1.
</event>
<event>
 5    1  0.8875601E-005  0.9118800E+02  0.7818608E-02  0.1130116E+00
         25   -1    0    0    0    0  0.00000000000E+00  0.00000000000E+00  0.99999998245E-14  0.12500000000E+03  0.12500000000E+03 0.  0.
        -11    1    3    3    0    0 -0.20562781065E+02  0.24634639382E+02  0.46237656044E+02  0.56281562339E+02  0.51100000000E-03 0.  1.
         23    2    1    0    0    0 -0.86947935698E-01  0.26362370463E+02  0.12407039304E+02  0.95863823850E+02  0.91328834233E+02 0.  0.
         11    1    3    3    0    0  0.20475833129E+02  0.17277310807E+01 -0.33830616740E+02  0.39582261511E+02  0.51100000000E-03 0. -1.
         22    1    1    0    0    0  0.86947935698E-01 -0.26362370463E+02 -0.12407039304E+02  0.29136176150E+02  0.00000000000E+00 0.  1.
</event>
<event>
 5    1  0.8875601E-005  0.9118800E+02  0.7818608E-02  0.1130116E+00
         25   -1    0    0    0    0  0.00000000000E+00  0.00000000000E+00  0.99999998245E-14  0.12500000000E+03  0.12500000000E+03 0.  0.
        -11    1    3    3    0    0  0.21043089071E+02  0.49119901716E+02 -0.25455174038E+02  0.59190727549E+02  0.51100000000E-03 0. -1.
         23    2    1    0    0    0 -0.12378095338E+01  0.29009065650E+02 -0.49384856603E+01  0.95547551834E+02  0.90894928123E+02 0.  0.
         11    1    3    3    0    0 -0.22280898604E+02 -0.20110836066E+02  0.20516688377E+02  0.36356824285E+02  0.51100000000E-03 0.  1.
         22    1    1    0    0    0  0.12378095338E+01 -0.29009065650E+02  0.49384856603E+01  0.29452448166E+02  0.00000000000E+00 0. -1.
</event>
<event>
 5    1  0.8875601E-005  0.9118800E+02  0.7818608E-02  0.1130116E+00
         25   -1    0    0    0    0  0.00000000000E+00  0.00000000000E+00  0.99999998245E-14  0.12500000000E+03  0.12500000000E+03 0.  0.
        -11    1    3    3    0    0  0.41671689042E+02 -0.13458587673E+02 -0.82364335033E+01  0.44558973136E+02  0.51100000000E-03 0. -1.
         23    2    1    0    0    0  0.20463326181E+01 -0.19734109721E+02  0.22428732092E+02  0.95055541633E+02  0.90215771394E+02 0.  0.
         11    1    3    3    0    0 -0.39625356424E+02 -0.62755220472E+01  0.30665165596E+02  0.50496568497E+02  0.51100000000E-03 0.  1.
         22    1    1    0    0    0 -0.20463326181E+01  0.19734109721E+02 -0.22428732092E+02  0.29944458367E+02  0.00000000000E+00 0. -1.
</event>
<event>
 5    1  0.8875601E-005  0.9118800E+02  0.7818608E-02  0.1130116E+00
         25   -1    0    0    0    0  0.00000000000E+00  0.00000000000E+00  0.99999998245E-14  0.12500000000E+03  0.12500000000E+03 0.  0.
        -11    1    3    3    0    0 -0.53459559273E+02  0.66976330028E+01  0.28612916652E+02  0.61003948767E+02  0.51100000000E-03 0. -1.
         23    2    1    0    0    0 -0.23042592273E+02  0.12592997680E+02  0.13323984384E+02  0.95553893142E+02  0.90903648362E+02 0.  0.
         11    1    3    3    0    0  0.30416967000E+02  0.58953646776E+01 -0.15288932269E+02  0.34549944375E+02  0.51100000000E-03 0.  1.
         22    1    1    0    0    0  0.23042592273E+02 -0.12592997680E+02 -0.13323984384E+02  0.29446106858E+02  0.00000000000E+00 0. -1.
</event>
<event>
 5    1  0.8875601E-005  0.9118800E+02  0.7818608E-02  0.1130116E+00
         25   -1    0    0    0    0  0.00000000000E+00  0.00000000000E+00  0.99999998245E-14  0.12500000000E+03  0.12500000000E+03 0.  0.
        -11    1    3    3    0    0  0.11780173936E+02  0.34587577956E+02  0.81589098599E+01  0.37438494323E+02  0.51100000000E-03 0.  1.
         23    2    1    0    0    0 -0.30087260956E+02 -0.36121711141E+01  0.10476185145E-01  0.94696680681E+02  0.89717167646E+02 0.  0.
         11    1    3    3    0    0 -0.41867434892E+02 -0.38199749070E+02 -0.81484336748E+01  0.57258186358E+02  0.51100000000E-03 0. -1.
         22    1    1    0    0    0  0.30087260956E+02  0.36121711141E+01 -0.10476185145E-01  0.30303319319E+02  0.00000000000E+00 0. -1.
</event>
<event>
 5    1  0.8875601E-005  0.9118800E+02  0.7818608E-02  0.1130116E+00
         25   -1    0    0    0    0  0.00000000000E+00  0.00000000000E+00  0.99999998245E-14  0.12500000000E+03  0.12500000000E+03 0.  0.
        -11    1    3    3    0    0 -0.58885807537E+01  0.48437239710E+01  0.43728094640E+02  0.44387873415E+02  0.51100000000E-03 0. -1.
         23    2    1    0    0    0  0.13982697565E+02 -0.15115829973E+02 -0.76941798381E+01  0.10301808584E+03  0.10064552379E+03 0.  0.
         11    1    3    3    0    0  0.19871278319E+02 -0.19959553944E+02 -0.51422274478E+02  0.58630212420E+02  0.51100000000E-03 0.  1.
         22    1    1    0    0    0 -0.13982697565E+02  0.15115829973E+02  0.76941798381E+01  0.21981914165E+02  0.00000000000E+00 0.  1.
</event>
<event>
 5    1  0.8875601E-005  0.9118800E+02  0.7818608E-02  0.1130116E+00
         25   -1    0    0    0    0  0.00000000000E+00  0.00000000000E+00  0.99999998245E-14  0.12500000000E+03  0.12500000000E+03 0.  0.
        -11    1    3    3    0    0  0.34762071056E+01  0.14360133459E+02  0.25805652508E+02  0.29735990826E+02  0.51100000000E-03 0. -1.
         23    2    1    0    0    0  0.14975181013E+01  0.24613795503E+02 -0.29803726232E+02  0.86317399430E+02  0.77164433890E+02 0.  0.
         11    1    3    3    0    0 -0.19786890043E+01  0.10253662044E+02 -0.55609378740E+02  0.56581408604E+02  0.51100000000E-03 0.  1.
         22    1    1    0    0    0 -0.14975181013E+01 -0.24613795503E+02  0.29803726232E+02  0.38682600570E+02  0.00000000000E+00 0.  1.
</event>
<event>
 5    1  0.8875601E-005  0.9118800E+02  0.7818608E-02  0.1130116E+00
         25   -1    0    0    0    0  0.00000000000E+00  0.00000000000E+00  0.99999998245E-14  0.12500000000E+03  0.12500000000E+03 0.  0.
        -11    1    3    3    0    0  0.60139728357E+01 -0.44546006430E+02  0.21032881504E+02  0.49627579658E+02  0.51100000000E-03 0.  1.
         23    2    1    0    0    0  0.97625943870E+01 -0.28492259571E+02 -0.16526281803E+02  0.90645450158E+02  0.83883028912E+02 0.  0.
         11    1    3    3    0    0  0.37486215513E+01  0.16053746859E+02 -0.37559163307E+02  0.41017870500E+02  0.51100000000E-03 0. -1.
         22    1    1    0    0    0 -0.97625943870E+01  0.28492259571E+02  0.16526281803E+02  0.34354549842E+02  0.00000000000E+00 0.  1.
</event>
<event>
 5    1  0.8875601E-005  0.9118800E+02  0.7818608E-02  0.1130116E+00
         25   -1    0    0    0    0  0.00000000000E+00  0.00000000000E+00  0.99999998245E-14  0.12500000000E+03  0.12500000000E+03 0.  0.
        -11    1    3    3    0    0 -0.38630927161E+02  0.16364499127E+02 -0.41880464611E+02  0.59280002373E+02  0.51100000000E-03 0.  1.
         23    2    1    0    0    0 -0.14995663351E+02 -0.54087615932E+00 -0.31449222791E+02  0.90154396539E+02  0.83148055509E+02 0.  0.
         11    1    3    3    0    0  0.23635263810E+02 -0.16905375287E+02  0.10431241820E+02  0.30874394166E+02  0.51100000000E-03 0. -1.
         22    1    1    0    0    0  0.14995663351E+02  0.54087615932E+00  0.31449222791E+02  0.34845603461E+02  0.00000000000E+00 0.  1.
</event>
<event>
 5    1  0.8875601E-005  0.9118800E+02  0.7818608E-02  0.1130116E+00
         25   -1    0    0    0    0  0.00000000000E+00  0.00000000000E+00  0.99999998245E-14  0.12500000000E+03  0.12500000000E+03 0.  0.
        -11    1    3    3    0    0 -0.66614426991E+01  0.20065932043E+01 -0.48873615861E+02  0.49366299869E+02  0.51100000000E-03 0. -1.
         23    2    1    0    0    0  0.77276905918E+01  0.25907388428E+02 -0.12478227063E+02  0.95223900059E+02  0.90448742472E+02 0.  0.
         11    1    3    3    0    0  0.14389133291E+02  0.23900795224E+02  0.36395388798E+02  0.45857600190E+02  0.51100000000E-03 0.  1.
         22    1    1    0    0    0 -0.77276905918E+01 -0.25907388428E+02  0.12478227063E+02  0.29776099941E+02  0.00000000000E+00 0.  1.
</event>
<event>
 5    1  0.8875601E-005  0.9118800E+02  0.7818608E-02  0.1130116E+00
         25   -1    0    0    0    0  0.00000000000E+00  0.00000000000E+00  0.99999998245E-14  0.12500000000E+03  0.12500000000E+03 0.  0.
        -11    1    3    3    0    0 -0.53625134565E+01  0.14345731156E+01  0.57915744719E+02  0.58181165657E+02  0.51100000000E-03 0. -1.
         23    2    1    0    0    0  0.44638131610E+01 -0.14169463800E+02  0.24476950904E+02  0.96367492987E+02  0.92015614146E+02 0.  0.
         11    1    3    3    0    0  0.98263266175E+01 -0.15604036915E+02 -0.33438793815E+02  0.38186327330E+02  0.51100000000E-03 0.  1.
         22    1    1    0    0    0 -0.44638131610E+01  0.14169463800E+02 -0.24476950904E+02  0.28632507013E+02  0.00000000000E+00 0. -1.
</event>
<event>
 5    1  0.8875601E-005  0.9118800E+02  0.7818608E-02  0.1130116E+00
         25   -1    0    0    0    0  0.00000000000E+00  0.00000000000E+00  0.99999998245E-14  0.12500000000E+03  0.12500000000E+03 0.  0.
        -11    1    3    3    0    0  0.30487429170E+01  0.21698943454E+02  0.15877281465E+02  0.27059694148E+02  0.51100000000E-03 0.  1.
         23    2    1    0    0    0  0.25657033731E+02 -0.64118119056E+01 -0.29730281886E+02  0.85209493937E+02  0.75348347588E+02 0.  0.
         11    1    3    3    0    0  0.22608290814E+02 -0.28110755360E+02 -0.45607563351E+02  0.58149799789E+02  0.51100000000E-03 0. -1.
         22    1    1    0    0    0 -0.25657033731E+02  0.64118119056E+01  0.29730281886E+02  0.39790506063E+02  0.00000000000E+00 0. -1.
</event>
<event>
 5    1  0.8875601E-005  0.9118800E+02  0.7818608E-02  0.1130116E+00
         25   -1    0    0    0    0  0.00000000000E+00  0.00000000000E+00  0.99999998245E-14  0.12500000000E+03  0.12500000000E+03 0.  0.
        -11    1    3    3    0    0 -0.23848104292E+01  0.15611448051E+01  0.31850923372E+02  0.31978208421E+02  0.51100000000E-03 0. -1.
         23    2    1    0    0    0  0.36487313317E+02 -0.11960784036E+02 -0.37812160550E+01  0.86416558180E+02  0.77324896023E+02 0.  0.
         11    1    3    3    0    0  0.38872123746E+02 -0.13521928841E+02 -0.35632139427E+02  0.54438349759E+02  0.51100000000E-03 0.  1.
         22    1    1    0    0    0 -0.36487313317E+02  0.11960784036E+02  0.37812160550E+01  0.38583441820E+02  0.00000000000E+00 0.  1.
</event>
<event>
 5    1  0.8875601E-005  0.9118800E+02  0.7818608E-02  0.1130116E+00
         25   -1    0    0    0    0  0.00000000000E+00  0.00000000000E+00  0.99999998245E-14  0.12500000000E+03  0.12500000000E+03 0.  0.
        -11    1    3    3    0    0 -0.29310557285E+01 -0.45806199364E+01 -0.40755978416E+02  0.41117185502E+02  0.51100000000E-03 0.  1.
         23    2    1    0    0    0 -0.20432083394E+02  0.19547239172E+02  0.55470202894E+01  0.96184482910E+02  0.91766664577E+02 0.  0.
         11    1    3    3    0    0 -0.17501027666E+02  0.24127859108E+02  0.46302998705E+02  0.55067297408E+02  0.51100000000E-03 0. -1.
         22    1    1    0    0    0  0.20432083394E+02 -0.19547239172E+02 -0.55470202894E+01  0.28815517090E+02  0.00000000000E+00 0. -1.
</event>
<event>
 5    1  0.8875601E-005  0.9118800E+02  0.7818608E-02  0.1130116E+00
         25   -1    0    0    0    0  0.00000000000E+00  0.00000000000E+00  0.99999998245E-14  0.12500000000E+03  0.12500000000E+03 0.  0.
        -11    1    3    3    0    0  0.39429400329E+02 -0.44448478864E+01 -0.40654461056E+00  0.39681224299E+02  0.51100000000E-03 0. -1.
         23    2    1    0    0    0 -0.11155438553E+02 -0.19469263347E+02 -0.18966866030E+02  0.95619087291E+02  0.90993251523E+02 0.  0.
         11    1    3    3    0    0 -0.50584838882E+02 -0.15024415461E+02 -0.18560321420E+02  0.55937862992E+02  0.51100000000E-03 0.  1.
         22    1    1    0    0    0  0.11155438553E+02  0.19469263347E+02  0.18966866030E+02  0.29380912709E+02  0.00000000000E+00 0.  1.
</event>
<event>
 5    1  0.8875601E-005  0.9118800E+02  0.7818608E-02  0.1130116E+00
         25   -1    0    0    0    0  0.00000000000E+00  0.00000000000E+00  0.99999998245E-14  0.12500000000E+03  0.12500000000E+03 0.  0.
        -11    1    3    3    0    0  0.33078457104E+02 -0.14824190044E+02  0.13114893726E+02  0.38547910093E+02  0.51100000000E-03 0.  1.
         23    2    1    0    0    0 -0.77786167276E+01  0.96597786376E+01 -0.23367167089E+02  0.98545459761E+02  0.94928209402E+02 0.  0.
         11    1    3    3    0    0 -0.40857073832E+02  0.24483968682E+02 -0.36482060815E+02  0.59997549667E+02  0.51100000000E-03 0. -1.
         22    1    1    0    0    0  0.77786167276E+01 -0.96597786376E+01  0.23367167089E+02  0.26454540239E+02  0.00000000000E+00 0. -1.
</event>
<event>
 5    1  0.8875601E-005  0.9118800E+02  0.7818608E-02  0.1130116E+00
         25   -1    0    0    0    0  0.00000000000E+00  0.00000000000E+00  0.99999998245E-14  0.12500000000E+03  0.12500000000E+03 0.  0.
        -11    1    3    3    0    0 -0.52122493877E+02 -0.74718914563E+01 -0.10585751231E+02  0.53708860156E+02  0.51100000000E-03 0.  1.
         23    2    1    0    0    0 -0.19156589462E+02  0.19070239014E+02 -0.10415609143E+02  0.96032192874E+02  0.91558987644E+02 0.  0.
         11    1    3    3    0    0  0.32965904414E+02  0.26542130471E+02  0.17014208825E+00  0.42323332718E+02  0.51100000000E-03 0. -1.
         22    1    1    0    0    0  0.19156589462E+02 -0.19070239014E+02  0.10415609143E+02  0.28967807126E+02  0.00000000000E+00 0.  1.
</event>
<event>
 5    1  0.8875601E-005  0.9118800E+02  0.7818608E-02  0.1130116E+00
         25   -1    0    0    0    0  0.00000000000E+00  0.00000000000E+00  0.99999998245E-14  0.12500000000E+03  0.12500000000E+03 0.  0.
        -11    1    3    3    0    0  0.24408317657E+02  0.15115138321E+01  0.57337061152E+02  0.62334494678E+02  0.51100000000E-03 0. -1.
         23    2    1    0    0    0  0.91972360603E+01 -0.57145732990E+00  0.29103584373E+02  0.94472400389E+02  0.89404139151E+02 0.  0.
         11    1    3    3    0    0 -0.15211081597E+02 -0.20829711620E+01 -0.28233476779E+02  0.32137905711E+02  0.51100000000E-03 0.  1.
         22    1    1    0    0    0 -0.91972360603E+01  0.57145732990E+00 -0.29103584373E+02  0.30527599611E+02  0.00000000000E+00 0. -1.
</event>
<event>
 5    1  0.8875601E-005  0.9118800E+02  0.7818608E-02  0.1130116E+00
         25   -1    0    0    0    0  0.00000000000E+00  0.00000000000E+00  0.99999998245E-14  0.12500000000E+03  0.12500000000E+03 0.  0.
        -11    1    3    3    0    0 -0.17506966829E+01  0.38440838122E+02 -0.21835163922E+02  0.44244065796E+02  0.51100000000E-03 0. -1.
         23    2    1    0    0    0 -0.21299824100E+02  0.25716375771E+02  0.15436410399E+02  0.88212811258E+02  0.80176073829E+02 0.  0.
         11    1    3    3    0    0 -0.19549127417E+02 -0.12724462351E+02  0.37271574321E+02  0.43968745462E+02  0.51100000000E-03 0.  1.
         22    1    1    0    0    0  0.21299824100E+02 -0.25716375771E+02 -0.15436410399E+02  0.36787188742E+02  0.00000000000E+00 0.  1.
</event>
<event>
 5    1  0.8875601E-005  0.9118800E+02  0.7818608E-02  0.1130116E+00
         25   -1    0    0    0    0  0.00000000000E+00  0.00000000000E+00  0.99999998245E-14  0.12500000000E+03  0.12500000000E+03 0.  0.
        -11    1    3    3    0    0 -0.12070981827E+02 -0.29129362896E+02  0.17374386550E+02  0.36001356825E+02  0.51100000000E-03 0.  1.
         23    2    1    0    0    0  0.49927006269E+01  0.27411030663E+02  0.17981845359E+01  0.97080022758E+02  0.92978522732E+02 0.  0.
         11    1    3    3    0    0  0.17063682454E+02  0.56540393559E+02 -0.15576202014E+02  0.61078665933E+02  0.51100000000E-03 0. -1.
         22    1    1    0    0    0 -0.49927006269E+01 -0.27411030663E+02 -0.17981845359E+01  0.27919977242E+02  0.00000000000E+00 0. -1.
</event>
<event>
 5    1  0.8875601E-005  0.9118800E+02  0.7818608E-02  0.1130116E+00
         25   -1    0    0    0    0  0.00000000000E+00  0.00000000000E+00  0.99999998245E-14  0.12500000000E+03  0.12500000000E+03 0.  0.
        -11    1    3    3    0    0  0.14871583719E+02  0.26913733903E+02  0.52282302982E+02  0.60654367364E+02  0.51100000000E-03 0.  1.
         23    2    1    0    0    0 -0.35095447686E+01  0.14362128370E+02  0.25954430292E+02  0.95129946642E+02  0.90318805686E+02 0.  0.
         11    1    3    3    0    0 -0.18381128488E+02 -0.12551605534E+02 -0.26327872690E+02  0.34475579278E+02  0.51100000000E-03 0. -1.
         22    1    1    0    0    0  0.35095447686E+01 -0.14362128370E+02 -0.25954430292E+02  0.29870053358E+02  0.00000000000E+00 0.  1.
</event>
<event>
 5    1  0.8875601E-005  0.9118800E+02  0.7818608E-02  0.1130116E+00
         25   -1    0    0    0    0  0.00000000000E+00  0.00000000000E+00  0.99999998245E-14  0.12500000000E+03  0.12500000000E+03 0.  0.
        -11    1    3    3    0    0  0.70327768305E+01 -0.57986993623E+02  0.21090762418E+02  0.62102911679E+02  0.51100000000E-03 0.  1.
         23    2    1    0    0    0  0.51812824317E+01 -0.27910328767E+02  0.53033468841E+01  0.96121675469E+02  0.91681071478E+02 0.  0.
         11    1    3    3    0    0 -0.18514943988E+01  0.30076664855E+02 -0.15787415534E+02  0.34018763791E+02  0.51100000000E-03 0. -1.
         22    1    1    0    0    0 -0.51812824317E+01  0.27910328767E+02 -0.53033468841E+01  0.28878324531E+02  0.00000000000E+00 0.  1.
</event>
<event>
 5    1  0.8875601E-005  0.9118800E+02  0.7818608E-02  0.1130116E+00
         25   -1    0    0    0    0  0.00000000000E+00  0.00000000000E+00  0.99999998245E-14  0.12500000000E+03  0.12500000000E+03 0.  0.
        -11    1    3    3    0    0  0.17694964110E+01 -0.29766124104E+02 -0.20946168457E+02  0.36440296857E+02  0.51100000000E-03 0. -1.
         23    2    1    0    0    0  0.16244952378E+02  0.61943072778E+01  0.23725484908E+02  0.95586286284E+02  0.90948180691E+02 0.  0.
         11    1    3    3    0    0  0.14475455967E+02  0.35960431382E+02  0.44671653365E+02  0.59145989427E+02  0.51100000000E-03 0.  1.
         22    1    1    0    0    0 -0.16244952378E+02 -0.61943072778E+01 -0.23725484908E+02  0.29413713716E+02  0.00000000000E+00 0.  1.
</event>
<event>
 5    1  0.8875601E-005  0.9118800E+02  0.7818608E-02  0.1130116E+00
         25   -1    0    0    0    0  0.00000000000E+00  0.00000000000E+00  0.99999998245E-14  0.12500000000E+03  0.12500000000E+03 0.  0.
        -11    1    3    3    0    0  0.79496090712E+01  0.45754744407E+02 -0.35500046126E+02  0.58454650758E+02  0.51100000000E-03 0.  1.
         23    2    1    0    0    0 -0.26571456034E+01  0.11240942299E+02 -0.27122066433E+02  0.95520758251E+02  0.90858073734E+02 0.  0.
         11    1    3    3    0    0 -0.10606754675E+02 -0.34513802107E+02  0.83779796934E+01  0.37066107492E+02  0.51100000000E-03 0. -1.
         22    1    1    0    0    0  0.26571456034E+01 -0.11240942299E+02  0.27122066433E+02  0.29479241749E+02  0.00000000000E+00 0.  1.
</event>
<event>
 5    1  0.8875601E-005  0.9118800E+02  0.7818608E-02  0.1130116E+00
         25   -1    0    0    0    0  0.00000000000E+00  0.00000000000E+00  0.99999998245E-14  0.12500000000E+03  0.12500000000E+03 0.  0.
        -11    1    3    3    0    0  0.97791877882E+01  0.11192539772E+02  0.35253983307E+02  0.38258970185E+02  0.51100000000E-03 0.  1.
         23    2    1    0    0    0 -0.16406360572E+02 -0.27562769613E+02  0.10070395954E+02  0.91380246720E+02  0.84970946093E+02 0.  0.
         11    1    3    3    0    0 -0.26185548360E+02 -0.38755309385E+02 -0.25183587353E+02  0.53121276535E+02  0.51100000000E-03 0. -1.
         22    1    1    0    0    0  0.16406360572E+02  0.27562769613E+02 -0.10070395954E+02  0.33619753280E+02  0.00000000000E+00 0. -1.
</event>
<event>
 5    1  0.8875601E-005  0.9118800E+02  0.7818608E-02  0.1130116E+00
         25   -1    0    0    0    0  0.00000000000E+00  0.00000000000E+00  0.99999998245E-14  0.12500000000E+03  0.12500000000E+03 0.  0.
        -11    1    3    3    0    0 -0.16980747227E+02 -0.20257201062E+02 -0.56368487859E+02  0.62258384134E+02  0.51100000000E-03 0. -1.
         23    2    1    0    0    0 -0.10753957377E+02 -0.17225276976E+02 -0.37549170302E+02  0.82311618015E+02  0.70376874779E+02 0.  0.
         11    1    3    3    0    0  0.62267898501E+01  0.30319240853E+01  0.18819317557E+02  0.20053233881E+02  0.51100000000E-03 0.  1.
         22    1    1    0    0    0  0.10753957377E+02  0.17225276976E+02  0.37549170302E+02  0.42688381985E+02  0.00000000000E+00 0. -1.
</event>
<event>
 5    1  0.8875601E-005  0.9118800E+02  0.7818608E-02  0.1130116E+00
         25   -1    0    0    0    0  0.00000000000E+00  0.00000000000E+00  0.99999998245E-14  0.12500000000E+03  0.12500000000E+03 0.  0.
        -11    1    3    3    0    0 -0.90260851815E+01  0.51669833239E+02 -0.55529308437E+01  0.52745397163E+02  0.51100000000E-03 0. -1.
         23    2    1    0    0    0  0.89686867995E+01  0.16588600020E+02 -0.22484387458E+02  0.95654358537E+02  0.91041691736E+02 0.  0.
         11    1    3    3    0    0  0.17994771981E+02 -0.35081233219E+02 -0.16931456614E+02  0.42908961374E+02  0.51100000000E-03 0.  1.
         22    1    1    0    0    0 -0.89686867995E+01 -0.16588600020E+02  0.22484387458E+02  0.29345641463E+02  0.00000000000E+00 0. -1.
</event>
<event>
 5    1  0.8875601E-005  0.9118800E+02  0.7818608E-02  0.1130116E+00
         25   -1    0    0    0    0  0.00000000000E+00  0.00000000000E+00  0.99999998245E-14  0.12500000000E+03  0.12500000000E+03 0.  0.
        -11    1    3    3    0    0  0.25917114590E+02 -0.88846822192E+01 -0.55807448061E+02  0.62169973992E+02  0.51100000000E-03 0. -1.
         23    2    1    0    0    0  0.15044003014E+02 -0.23489515862E+01 -0.22309016517E+02  0.97990153310E+02  0.94194152300E+02 0.  0.
         11    1    3    3    0    0 -0.10873111576E+02  0.65357306329E+01  0.33498431544E+02  0.35820179318E+02  0.51100000000E-03 0.  1.
         22    1    1    0    0    0 -0.15044003014E+02  0.23489515862E+01  0.22309016517E+02  0.27009846690E+02  0.00000000000E+00 0. -1.
</event>
<event>
 5    1  0.8875601E-005  0.9118800E+02  0.7818608E-02  0.1130116E+00
         25   -1    0    0    0    0  0.00000000000E+00  0.00000000000E+00  0.99999998245E-14  0.12500000000E+03  0.12500000000E+03 0.  0.
        -11    1    3    3    0    0  0.10276282630E+02 -0.29038580281E+02  0.28012267730E+02  0.41635661074E+02  0.51100000000E-03 0. -1.
         23    2    1    0    0    0 -0.13546080128E+02  0.17944315134E+02  0.19980057226E+02  0.94921811570E+02  0.90030288751E+02 0.  0.
         11    1    3    3    0    0 -0.23822362758E+02  0.46982895414E+02 -0.80322105042E+01  0.53286150497E+02  0.51100000000E-03 0.  1.
         22    1    1    0    0    0  0.13546080128E+02 -0.17944315134E+02 -0.19980057226E+02  0.30078188430E+02  0.00000000000E+00 0.  1.
</event>
<event>
 5    1  0.8875601E-005  0.9118800E+02  0.7818608E-02  0.1130116E+00
         25   -1    0    0    0    0  0.00000000000E+00  0.00000000000E+00  0.99999998245E-14  0.12500000000E+03  0.12500000000E+03 0.  0.
        -11    1    3    3    0    0 -0.43840883578E+01  0.24335411826E+02  0.28819267806E+02  0.37973447257E+02  0.51100000000E-03 0. -1.
         23    2    1    0    0    0  0.26911320278E+02 -0.10759018825E+02 -0.45915120057E+01  0.95656216541E+02  0.91044242736E+02 0.  0.
         11    1    3    3    0    0  0.31295408635E+02 -0.35094430652E+02 -0.33410779811E+02  0.57682769284E+02  0.51100000000E-03 0.  1.
         22    1    1    0    0    0 -0.26911320278E+02  0.10759018825E+02  0.45915120057E+01  0.29343783459E+02  0.00000000000E+00 0.  1.
</event>
<event>
 5    1  0.8875601E-005  0.9118800E+02  0.7818608E-02  0.1130116E+00
         25   -1    0    0    0    0  0.00000000000E+00  0.00000000000E+00  0.99999998245E-14  0.12500000000E+03  0.12500000000E+03 0.  0.
        -11    1    3    3    0    0 -0.16132959347E+02  0.26869577070E+02  0.92553839467E+01  0.32678872096E+02  0.51100000000E-03 0.  1.
         23    2    1    0    0    0  0.12959577056E+02 -0.15850719586E+02 -0.23470746752E+02  0.93854022700E+02  0.88535335743E+02 0.  0.
         11    1    3    3    0    0  0.29092536403E+02 -0.42720296656E+02 -0.32726130699E+02  0.61175150604E+02  0.51100000000E-03 0. -1.
         22    1    1    0    0    0 -0.12959577056E+02  0.15850719586E+02  0.23470746752E+02  0.31145977300E+02  0.00000000000E+00 0. -1.
</event>
<event>
 5    1  0.8875601E-005  0.9118800E+02  0.7818608E-02  0.1130116E+00
         25   -1    0    0    0    0  0.00000000000E+00  0.00000000000E+00  0.99999998245E-14  0.12500000000E+03  0.12500000000E+03 0.  0.
        -11    1    3    3    0    0 -0.26078824256E+01  0.34328320643E+02  0.24534868307E+02  0.42275222199E+02  0.51100000000E-03 0.  1.
         23    2    1    0    0    0 -0.26482749478E+02 -0.10247916307E+02  0.75787503105E+01  0.95609639934E+02  0.90980272496E+02 0.  0.
         11    1    3    3    0    0 -0.23874867053E+02 -0.44576236949E+02 -0.16956117996E+02  0.53334417735E+02  0.51100000000E-03 0. -1.
         22    1    1    0    0    0  0.26482749478E+02  0.10247916307E+02 -0.75787503105E+01  0.29390360066E+02  0.00000000000E+00 0. -1.
</event>
<event>
 5    1  0.8875601E-005  0.9118800E+02  0.7818608E-02  0.1130116E+00
         25   -1    0    0    0    0  0.00000000000E+00  0.00000000000E+00  0.99999998245E-14  0.12500000000E+03  0.12500000000E+03 0.  0.
        -11    1    3    3    0    0  0.27530187070E+02 -0.80621293909E+01 -0.54698217524E+02  0.61764100665E+02  0.51100000000E-03 0. -1.
         23    2    1    0    0    0  0.81875061727E+01 -0.62517210705E+01 -0.30568036901E+02  0.92742843373E+02  0.86952348119E+02 0.  0.
         11    1    3    3    0    0 -0.19342680897E+02  0.18104083204E+01  0.24130180624E+02  0.30978742708E+02  0.51100000000E-03 0.  1.
         22    1    1    0    0    0 -0.81875061727E+01  0.62517210705E+01  0.30568036901E+02  0.32257156627E+02  0.00000000000E+00 0. -1.
</event>
<event>
 5    1  0.8875601E-005  0.9118800E+02  0.7818608E-02  0.1130116E+00
         25   -1    0    0    0    0  0.00000000000E+00  0.00000000000E+00  0.99999998245E-14  0.12500000000E+03  0.12500000000E+03 0.  0.
        -11    1    3    3    0    0 -0.45580051858E+02  0.22204912099E+02  0.26010793936E+02  0.56983863068E+02  0.51100000000E-03 0.  1.
         23    2    1    0    0    0 -0.68953243231E+01  0.17460728954E+02  0.21870054154E+02  0.96177754740E+02  0.91757499339E+02 0.  0.
         11    1    3    3    0    0  0.38684727535E+02 -0.47441831454E+01 -0.41407397820E+01  0.39193891672E+02  0.51100000000E-03 0. -1.
         22    1    1    0    0    0  0.68953243231E+01 -0.17460728954E+02 -0.21870054154E+02  0.28822245260E+02  0.00000000000E+00 0.  1.
</event>
<event>
 5    1  0.8875601E-005  0.9118800E+02  0.7818608E-02  0.1130116E+00
         25   -1    0    0    0    0  0.00000000000E+00  0.00000000000E+00  0.99999998245E-14  0.12500000000E+03  0.12500000000E+03 0.  0.
        -11    1    3    3    0    0  0.33787032786E+02  0.28600231923E+02 -0.16567333846E+01  0.44297647978E+02  0.51100000000E-03 0.  1.
         23    2    1    0    0    0 -0.19798480166E+02  0.14931669299E+02 -0.50121142703E+01  0.99700674823E+02  0.96437382305E+02 0.  0.
         11    1    3    3    0    0 -0.53585512952E+02 -0.13668562624E+02 -0.33553808857E+01  0.55403026846E+02  0.51100000000E-03 0. -1.
         22    1    1    0    0    0  0.19798480166E+02 -0.14931669299E+02  0.50121142703E+01  0.25299325177E+02  0.00000000000E+00 0. -1.
</event>
<event>
 5    1  0.8875601E-005  0.9118800E+02  0.7818608E-02  0.1130116E+00
         25   -1    0    0    0    0  0.00000000000E+00  0.00000000000E+00  0.99999998245E-14  0.12500000000E+03  0.12500000000E+03 0.  0.
        -11    1    3    3    0    0 -0.42669933446E+02 -0.45213948076E+01  0.13061883293E+02  0.44852859739E+02  0.51100000000E-03 0.  1.
         23    2    1    0    0    0  0.19945382451E+01 -0.18388288618E+02  0.25735619727E+02  0.93307264810E+02  0.87759992038E+02 0.  0.
         11    1    3    3    0    0  0.44664471691E+02 -0.13866893810E+02  0.12673736434E+02  0.48454405072E+02  0.51100000000E-03 0. -1.
         22    1    1    0    0    0 -0.19945382451E+01  0.18388288618E+02 -0.25735619727E+02  0.31692735190E+02  0.00000000000E+00 0. -1.
</event>
<event>
 5    1  0.8875601E-005  0.9118800E+02  0.7818608E-02  0.1130116E+00
         25   -1    0    0    0    0  0.00000000000E+00  0.00000000000E+00  0.99999998245E-14  0.12500000000E+03  0.12500000000E+03 0.  0.
        -11    1    3    3    0    0  0.38335725686E+02 -0.12887916472E+02  0.20753385318E+02  0.45457994426E+02  0.51100000000E-03 0.  1.
         23    2    1    0    0    0  0.98563041555E+01  0.26354982227E+02  0.10116035033E+02  0.95099063817E+02  0.90276054158E+02 0.  0.
         11    1    3    3    0    0 -0.28479421530E+02  0.39242898699E+02 -0.10637350284E+02  0.49641069391E+02  0.51100000000E-03 0. -1.
         22    1    1    0    0    0 -0.98563041555E+01 -0.26354982227E+02 -0.10116035033E+02  0.29900936183E+02  0.00000000000E+00 0. -1.
</event>
<event>
 5    1  0.8875601E-005  0.9118800E+02  0.7818608E-02  0.1130116E+00
         25   -1    0    0    0    0  0.00000000000E+00  0.00000000000E+00  0.99999998245E-14  0.12500000000E+03  0.12500000000E+03 0.  0.
        -11    1    3    3    0    0  0.37456407258E+02  0.88043760905E+00 -0.46704686200E+02  0.59875582072E+02  0.51100000000E-03 0. -1.
         23    2    1    0    0    0  0.10511001299E+02  0.98534933079E+01 -0.26853053917E+02  0.94526093402E+02  0.89479178307E+02 0.  0.
         11    1    3    3    0    0 -0.26945405960E+02  0.89730556988E+01  0.19851632283E+02  0.34650511331E+02  0.51100000000E-03 0.  1.
         22    1    1    0    0    0 -0.10511001299E+02 -0.98534933079E+01  0.26853053917E+02  0.30473906598E+02  0.00000000000E+00 0. -1.
</event>
<event>
 5    1  0.8875601E-005  0.9118800E+02  0.7818608E-02  0.1130116E+00
         25   -1    0    0    0    0  0.00000000000E+00  0.00000000000E+00  0.99999998245E-14  0.12500000000E+03  0.12500000000E+03 0.  0.
        -11    1    3    3    0    0  0.68338988399E+01 -0.28540532475E+02 -0.40945113010E+02  0.50376248838E+02  0.51100000000E-03 0. -1.
         23    2    1    0    0    0 -0.23665257702E+02 -0.12980214221E+02 -0.11034135114E+02  0.95840395733E+02  0.91296762994E+02 0.  0.
         11    1    3    3    0    0 -0.30499156542E+02  0.15560318254E+02  0.29910977896E+02  0.45464146895E+02  0.51100000000E-03 0.  1.
         22    1    1    0    0    0  0.23665257702E+02  0.12980214221E+02  0.11034135114E+02  0.29159604267E+02  0.00000000000E+00 0. -1.
</event>
<event>
 5    1  0.8875601E-005  0.9118800E+02  0.7818608E-02  0.1130116E+00
         25   -1    0    0    0    0  0.00000000000E+00  0.00000000000E+00  0.99999998245E-14  0.12500000000E+03  0.12500000000E+03 0.  0.
        -11    1    3    3    0    0  0.15157369912E+02 -0.20723139904E+01  0.43017358880E+02  0.45656691878E+02  0.51100000000E-03 0. -1.
         23    2    1    0    0    0  0.35828476679E+01  0.28696115081E+02  0.54576429489E+01  0.95570598295E+02  0.90926616421E+02 0.  0.
         11    1    3    3    0    0 -0.11574522244E+02  0.30768429072E+02 -0.37559715931E+02  0.49913906417E+02  0.51100000000E-03 0.  1.
         22    1    1    0    0    0 -0.35828476679E+01 -0.28696115081E+02 -0.54576429489E+01  0.29429401705E+02  0.00000000000E+00 0. -1.
</event>
<event>
 5    1  0.8875601E-005  0.9118800E+02  0.7818608E-02  0.1130116E+00
         25   -1    0    0    0    0  0.00000000000E+00  0.00000000000E+00  0.99999998245E-14  0.12500000000E+03  0.12500000000E+03 0.  0.
        -11    1    3    3    0    0  0.21211674309E+02 -0.37279670260E+02  0.30519360932E+02  0.52641621685E+02  0.51100000000E-03 0. -1.
         23    2    1    0    0    0 -0.11883530112E+02 -0.11218029290E+02  0.25008601411E+02  0.95125385130E+02  0.90312492395E+02 0.  0.
         11    1    3    3    0    0 -0.33095204421E+02  0.26061640970E+02 -0.55107595210E+01  0.42483763445E+02  0.51100000000E-03 0.  1.
         22    1    1    0    0    0  0.11883530112E+02  0.11218029290E+02 -0.25008601411E+02  0.29874614870E+02  0.00000000000E+00 0. -1.
</event>
<event>
 5    1  0.8875601E-005  0.9118800E+02  0.7818608E-02  0.1130116E+00
         25   -1    0    0    0    0  0.00000000000E+00  0.00000000000E+00  0.99999998245E-14  0.12500000000E+03  0.12500000000E+03 0.  0.
        -11    1    3    3    0    0  0.33528609360E+02  0.36609153536E+02 -0.34150420877E+02  0.60254867144E+02  0.51100000000E-03 0. -1.
         23    2    1    0    0    0  0.17877257724E+02  0.58810195663E+01 -0.20022501127E+02  0.97521221165E+02  0.93569788346E+02 0.  0.
         11    1    3    3    0    0 -0.15651351635E+02 -0.30728133970E+02  0.14127919750E+02  0.37266354020E+02  0.51100000000E-03 0.  1.
         22    1    1    0    0    0 -0.17877257724E+02 -0.58810195663E+01  0.20022501127E+02  0.27478778835E+02  0.00000000000E+00 0. -1.
</event>
<event>
 5    1  0.8875601E-005  0.9118800E+02  0.7818608E-02  0.1130116E+00
         25   -1    0    0    0    0  0.00000000000E+00  0.00000000000E+00  0.99999998245E-14  0.12500000000E+03  0.12500000000E+03 0.  0.
        -11    1    3    3    0    0 -0.21358871268E+02  0.14007072274E+02  0.50947001216E+02  0.56991195712E+02  0.51100000000E-03 0. -1.
         23    2    1    0    0    0 -0.13899518467E+01 -0.94909870687E+01  0.27923346200E+02  0.95475026424E+02  0.90795135365E+02 0.  0.
         11    1    3    3    0    0  0.19968919421E+02 -0.23498059342E+02 -0.23023655016E+02  0.38483830712E+02  0.51100000000E-03 0.  1.
         22    1    1    0    0    0  0.13899518467E+01  0.94909870687E+01 -0.27923346200E+02  0.29524973576E+02  0.00000000000E+00 0. -1.
</event>
<event>
 5    1  0.8875601E-005  0.9118800E+02  0.7818608E-02  0.1130116E+00
         25   -1    0    0    0    0  0.00000000000E+00  0.00000000000E+00  0.99999998245E-14  0.12500000000E+03  0.12500000000E+03 0.  0.
        -11    1    3    3    0    0  0.26789198934E+02  0.16666334162E+02  0.24092148146E+02  0.39697096575E+02  0.51100000000E-03 0.  1.
         23    2    1    0    0    0 -0.12596664714E+02  0.12868539191E+02 -0.19423843100E+02  0.98513004255E+02  0.94885462869E+02 0.  0.
         11    1    3    3    0    0 -0.39385863648E+02 -0.37977949709E+01 -0.43515991246E+02  0.58815907680E+02  0.51100000000E-03 0. -1.
         22    1    1    0    0    0  0.12596664714E+02 -0.12868539191E+02  0.19423843100E+02  0.26486995745E+02  0.00000000000E+00 0. -1.
</event>
<event>
 5    1  0.8875601E-005  0.9118800E+02  0.7818608E-02  0.1130116E+00
         25   -1    0    0    0    0  0.00000000000E+00  0.00000000000E+00  0.99999998245E-14  0.12500000000E+03  0.12500000000E+03 0.  0.
        -11    1    3    3    0    0 -0.23683552187E+02  0.17443775200E+02  0.35303613839E+02  0.45951508004E+02  0.51100000000E-03 0. -1.
         23    2    1    0    0    0 -0.47154352741E+01  0.28272150930E+02 -0.86734818480E+01  0.95053729191E+02  0.90213260099E+02 0.  0.
         11    1    3    3    0    0  0.18968116913E+02  0.10828375730E+02 -0.43977095687E+02  0.49102221187E+02  0.51100000000E-03 0.  1.
         22    1    1    0    0    0  0.47154352741E+01 -0.28272150930E+02  0.86734818480E+01  0.29946270809E+02  0.00000000000E+00 0. -1.
</event>
<event>
 5    1  0.8875601E-005  0.9118800E+02  0.7818608E-02  0.1130116E+00
         25   -1    0    0    0    0  0.00000000000E+00  0.00000000000E+00  0.99999998245E-14  0.12500000000E+03  0.12500000000E+03 0.  0.
        -11    1    3    3    0    0  0.18227893333E+02 -0.15523674621E+02 -0.76225103810E+01  0.25126544408E+02  0.51100000000E-03 0.  1.
         23    2    1    0    0    0 -0.31944149174E+02  0.14756401162E+02 -0.19280477355E+02  0.84876230876E+02  0.74793433662E+02 0.  0.
         11    1    3    3    0    0 -0.50172042507E+02  0.30280075783E+02 -0.11657966974E+02  0.59749686468E+02  0.51100000000E-03 0. -1.
         22    1    1    0    0    0  0.31944149174E+02 -0.14756401162E+02  0.19280477355E+02  0.40123769124E+02  0.00000000000E+00 0. -1.
</event>
<event>
 5    1  0.8875601E-005  0.9118800E+02  0.7818608E-02  0.1130116E+00
         25   -1    0    0    0    0  0.00000000000E+00  0.00000000000E+00  0.99999998245E-14  0.12500000000E+03  0.12500000000E+03 0.  0.
        -11    1    3    3    0    0  0.41883367483E+02 -0.40314016821E+02 -0.15551171074E+01  0.58153717108E+02  0.51100000000E-03 0. -1.
         23    2    1    0    0    0  0.22132274898E+02 -0.11926336286E+02 -0.15525260664E+02  0.95451585355E+02  0.90762857704E+02 0.  0.
         11    1    3    3    0    0 -0.19751092585E+02  0.28387680536E+02 -0.13970143556E+02  0.37297868247E+02  0.51100000000E-03 0.  1.
         22    1    1    0    0    0 -0.22132274898E+02  0.11926336286E+02  0.15525260664E+02  0.29548414645E+02  0.00000000000E+00 0. -1.
</event>
<event>
 5    1  0.8875601E-005  0.9118800E+02  0.7818608E-02  0.1130116E+00
         25   -1    0    0    0    0  0.00000000000E+00  0.00000000000E+00  0.99999998245E-14  0.12500000000E+03  0.12500000000E+03 0.  0.
        -11    1    3    3    0    0 -0.54526685154E+01 -0.11889706598E+02 -0.52514374246E+02  0.54118908153E+02  0.51100000000E-03 0.  1.
         23    2    1    0    0    0  0.11186487432E+02 -0.21711542435E+02 -0.14942910763E+02  0.96367515685E+02  0.92015644981E+02 0.  0.
         11    1    3    3    0    0  0.16639155948E+02 -0.98218358362E+01  0.37571463483E+02  0.42248607532E+02  0.51100000000E-03 0. -1.
         22    1    1    0    0    0 -0.11186487432E+02  0.21711542435E+02  0.14942910763E+02  0.28632484315E+02  0.00000000000E+00 0.  1.
</event>
<event>
 5    1  0.8875601E-005  0.9118800E+02  0.7818608E-02  0.1130116E+00
         25   -1    0    0    0    0  0.00000000000E+00  0.00000000000E+00  0.99999998245E-14  0.12500000000E+03  0.12500000000E+03 0.  0.
        -11    1    3    3    0    0 -0.51860029910E+02  0.30866909905E+01 -0.18033161695E+02  0.54992592997E+02  0.51100000000E-03 0. -1.
         23    2    1    0    0    0 -0.17552736899E+02 -0.31565168319E+00  0.14375609678E+02  0.10230955350E+03  0.99761657844E+02 0.  0.
         11    1    3    3    0    0  0.34307293011E+02 -0.34023426736E+01  0.32408771373E+02  0.47316960506E+02  0.51100000000E-03 0.  1.
         22    1    1    0    0    0  0.17552736899E+02  0.31565168319E+00 -0.14375609678E+02  0.22690446497E+02  0.00000000000E+00 0. -1.
</event>
<event>
 5    1  0.8875601E-005  0.9118800E+02  0.7818608E-02  0.1130116E+00
         25   -1    0    0    0    0  0.00000000000E+00  0.00000000000E+00  0.99999998245E-14  0.12500000000E+03  0.12500000000E+03 0.  0.
        -11    1    3    3    0    0 -0.12000464018E+02 -0.33227668228E+02  0.33868831266E+01  0.35490281065E+02  0.51100000000E-03 0. -1.
         23    2    1    0    0    0  0.16706943008E+02  0.20479347145E+02  0.99903999613E+01  0.96745200486E+02  0.92527293928E+02 0.  0.
         11    1    3    3    0    0  0.28707407026E+02  0.53707015373E+02  0.66035168348E+01  0.61254919421E+02  0.51100000000E-03 0.  1.
         22    1    1    0    0    0 -0.16706943008E+02 -0.20479347145E+02 -0.99903999613E+01  0.28254799514E+02  0.00000000000E+00 0.  1.
</event>
<event>
 5    1  0.8875601E-005  0.9118800E+02  0.7818608E-02  0.1130116E+00
         25   -1    0    0    0    0  0.00000000000E+00  0.00000000000E+00  0.99999998245E-14  0.12500000000E+03  0.12500000000E+03 0.  0.
        -11    1    3    3    0    0  0.10833222316E+02  0.37115951901E+02  0.26525910353E+02  0.46888980705E+02  0.51100000000E-03 0. -1.
         23    2    1    0    0    0 -0.12311232311E+02  0.13677515034E+02 -0.15954835325E+02  0.10064435119E+03  0.97652894471E+02 0.  0.
         11    1    3    3    0    0 -0.23144454627E+02 -0.23438436867E+02 -0.42480745678E+02  0.53755370489E+02  0.51100000000E-03 0.  1.
         22    1    1    0    0    0  0.12311232311E+02 -0.13677515034E+02  0.15954835325E+02  0.24355648806E+02  0.00000000000E+00 0. -1.
</event>
<event>
 5    1  0.8875601E-005  0.9118800E+02  0.7818608E-02  0.1130116E+00
         25   -1    0    0    0    0  0.00000000000E+00  0.00000000000E+00  0.99999998245E-14  0.12500000000E+03  0.12500000000E+03 0.  0.
        -11    1    3    3    0    0 -0.15116095210E+02  0.20862806252E+02  0.24253657131E+02  0.35383511748E+02  0.51100000000E-03 0.  1.
         23    2    1    0    0    0 -0.41998813515E+02  0.11039516984E+02 -0.10417949940E+02  0.80342358404E+02  0.66787645572E+02 0.  0.
         11    1    3    3    0    0 -0.26882718305E+02 -0.98232892680E+01 -0.34671607071E+02  0.44958846657E+02  0.51100000000E-03 0. -1.
         22    1    1    0    0    0  0.41998813515E+02 -0.11039516984E+02  0.10417949940E+02  0.44657641596E+02  0.00000000000E+00 0. -1.
</event>
<event>
 5    1  0.8875601E-005  0.9118800E+02  0.7818608E-02  0.1130116E+00
         25   -1    0    0    0    0  0.00000000000E+00  0.00000000000E+00  0.99999998245E-14  0.12500000000E+03  0.12500000000E+03 0.  0.
        -11    1    3    3    0    0  0.20184111997E+02 -0.23322514679E+02 -0.25156577343E+02  0.39801902617E+02  0.51100000000E-03 0.  1.
         23    2    1    0    0    0  0.10723489016E+02  0.27243334058E+02 -0.39011738754E+01  0.95463385013E+02  0.90779106920E+02 0.  0.
         11    1    3    3    0    0 -0.94606229801E+01  0.50565848737E+02  0.21255403468E+02  0.55661482396E+02  0.51100000000E-03 0. -1.
         22    1    1    0    0    0 -0.10723489016E+02 -0.27243334058E+02  0.39011738754E+01  0.29536614987E+02  0.00000000000E+00 0. -1.
</event>
<event>
 5    1  0.8875601E-005  0.9118800E+02  0.7818608E-02  0.1130116E+00
         25   -1    0    0    0    0  0.00000000000E+00  0.00000000000E+00  0.99999998245E-14  0.12500000000E+03  0.12500000000E+03 0.  0.
        -11    1    3    3    0    0  0.18040847395E+02  0.40598139913E+02 -0.11156762376E+02  0.45805616316E+02  0.51100000000E-03 0. -1.
         23    2    1    0    0    0  0.18288831561E+02  0.57557463498E+01  0.23311252265E+02  0.94816818291E+02  0.89884395602E+02 0.  0.
         11    1    3    3    0    0  0.24798416583E+00 -0.34842393563E+02  0.34468014642E+02  0.49011201975E+02  0.51100000000E-03 0.  1.
         22    1    1    0    0    0 -0.18288831561E+02 -0.57557463498E+01 -0.23311252265E+02  0.30183181709E+02  0.00000000000E+00 0.  1.
</event>
<event>
 5    1  0.8875601E-005  0.9118800E+02  0.7818608E-02  0.1130116E+00
         25   -1    0    0    0    0  0.00000000000E+00  0.00000000000E+00  0.99999998245E-14  0.12500000000E+03  0.12500000000E+03 0.  0.
        -11    1    3    3    0    0  0.24190103806E+02  0.13591380000E+02  0.24230614450E+02  0.36837608627E+02  0.51100000000E-03 0.  1.
         23    2    1    0    0    0  0.31325452758E+02  0.19479114763E+02 -0.20693372733E+02  0.82704189598E+02  0.71070721113E+02 0.  0.
         11    1    3    3    0    0  0.71353489521E+01  0.58877347636E+01 -0.44923987183E+02  0.45866580972E+02  0.51100000000E-03 0. -1.
         22    1    1    0    0    0 -0.31325452758E+02 -0.19479114763E+02  0.20693372733E+02  0.42295810402E+02  0.00000000000E+00 0. -1.
</event>
<event>
 5    1  0.8875601E-005  0.9118800E+02  0.7818608E-02  0.1130116E+00
         25   -1    0    0    0    0  0.00000000000E+00  0.00000000000E+00  0.99999998245E-14  0.12500000000E+03  0.12500000000E+03 0.  0.
        -11    1    3    3    0    0 -0.30736629804E+02  0.36418848783E+01  0.44980601716E+02  0.54600899884E+02  0.51100000000E-03 0.  1.
         23    2    1    0    0    0  0.43995211329E+01 -0.95334002912E+01  0.26634442602E+02  0.96370731060E+02  0.92020012851E+02 0.  0.
         11    1    3    3    0    0  0.35136150937E+02 -0.13175285169E+02 -0.18346159114E+02  0.41769831176E+02  0.51100000000E-03 0. -1.
         22    1    1    0    0    0 -0.43995211329E+01  0.95334002912E+01 -0.26634442602E+02  0.28629268940E+02  0.00000000000E+00 0.  1.
</event>
<event>
 5    1  0.8875601E-005  0.9118800E+02  0.7818608E-02  0.1130116E+00
         25   -1    0    0    0    0  0.00000000000E+00  0.00000000000E+00  0.99999998245E-14  0.12500000000E+03  0.12500000000E+03 0.  0.
        -11    1    3    3    0    0 -0.10194174116E+02  0.41435039294E+02 -0.42159140082E+02  0.59984804408E+02  0.51100000000E-03 0. -1.
         23    2    1    0    0    0  0.35015814502E+01  0.26346336609E+02 -0.13390268085E+02  0.95239458931E+02  0.90470242250E+02 0.  0.
         11    1    3    3    0    0  0.13695755566E+02 -0.15088702685E+02  0.28768871997E+02  0.35254654523E+02  0.51100000000E-03 0.  1.
         22    1    1    0    0    0 -0.35015814502E+01 -0.26346336609E+02  0.13390268085E+02  0.29760541069E+02  0.00000000000E+00 0. -1.
</event>
<event>
 5    1  0.8875601E-005  0.9118800E+02  0.7818608E-02  0.1130116E+00
         25   -1    0    0    0    0  0.00000000000E+00  0.00000000000E+00  0.99999998245E-14  0.12500000000E+03  0.12500000000E+03 0.  0.
        -11    1    3    3    0    0 -0.30820778056E+02 -0.38987792083E+02 -0.11608496396E+02  0.51036511248E+02  0.51100000000E-03 0. -1.
         23    2    1    0    0    0  0.76658311137E+01 -0.27806359098E+02  0.71441383830E+01  0.95284729747E+02  0.90532769961E+02 0.  0.
         11    1    3    3    0    0  0.38486609170E+02  0.11181432985E+02  0.18752634780E+02  0.44248218500E+02  0.51100000000E-03 0.  1.
         22    1    1    0    0    0 -0.76658311137E+01  0.27806359098E+02 -0.71441383830E+01  0.29715270253E+02  0.00000000000E+00 0. -1.
</event>
<event>
 5    1  0.8875601E-005  0.9118800E+02  0.7818608E-02  0.1130116E+00
         25   -1    0    0    0    0  0.00000000000E+00  0.00000000000E+00  0.99999998245E-14  0.12500000000E+03  0.12500000000E+03 0.  0.
        -11    1    3    3    0    0 -0.13091269114E+02 -0.25933648597E+02  0.20130942669E+02  0.35343886452E+02  0.51100000000E-03 0. -1.
         23    2    1    0    0    0  0.14772071225E+02  0.25122403508E+02  0.51714705123E+01  0.95401125806E+02  0.90693337415E+02 0.  0.
         11    1    3    3    0    0  0.27863340340E+02  0.51056052104E+02 -0.14959472156E+02  0.60057239354E+02  0.51100000000E-03 0.  1.
         22    1    1    0    0    0 -0.14772071225E+02 -0.25122403508E+02 -0.51714705123E+01  0.29598874194E+02  0.00000000000E+00 0.  1.
</event>
<event>
 5    1  0.8875601E-005  0.9118800E+02  0.7818608E-02  0.1130116E+00
         25   -1    0    0    0    0  0.00000000000E+00  0.00000000000E+00  0.99999998245E-14  0.12500000000E+03  0.12500000000E+03 0.  0.
        -11    1    3    3    0    0  0.16955484333E+02 -0.16531007944E+02  0.46907863903E+02  0.52546268838E+02  0.51100000000E-03 0. -1.
         23    2    1    0    0    0 -0.13927141202E+02 -0.19744697854E+02  0.21133318914E+02  0.92899602437E+02  0.87177408823E+02 0.  0.
         11    1    3    3    0    0 -0.30882625535E+02 -0.32136899104E+01 -0.25774544990E+02  0.40353333598E+02  0.51100000000E-03 0.  1.
         22    1    1    0    0    0  0.13927141202E+02  0.19744697854E+02 -0.21133318914E+02  0.32100397563E+02  0.00000000000E+00 0. -1.
</event>
<event>
 5    1  0.8875601E-005  0.9118800E+02  0.7818608E-02  0.1130116E+00
         25   -1    0    0    0    0  0.00000000000E+00  0.00000000000E+00  0.99999998245E-14  0.12500000000E+03  0.12500000000E+03 0.  0.
        -11    1    3    3    0    0 -0.10469636094E+01 -0.38751207897E+02 -0.39204387028E+02  0.55133802778E+02  0.51100000000E-03 0. -1.
         23    2    1    0    0    0  0.10861229515E+01  0.18917408636E+00 -0.29707248906E+02  0.95272301006E+02  0.90515607778E+02 0.  0.
         11    1    3    3    0    0  0.21330865609E+01  0.38940381983E+02  0.94971381216E+01  0.40138498228E+02  0.51100000000E-03 0.  1.
         22    1    1    0    0    0 -0.10861229515E+01 -0.18917408636E+00  0.29707248906E+02  0.29727698994E+02  0.00000000000E+00 0.  1.
</event>
<event>
 5    1  0.8875601E-005  0.9118800E+02  0.7818608E-02  0.1130116E+00
         25   -1    0    0    0    0  0.00000000000E+00  0.00000000000E+00  0.99999998245E-14  0.12500000000E+03  0.12500000000E+03 0.  0.
        -11    1    3    3    0    0 -0.33710936980E+02  0.24544362909E+02 -0.78071018698E+01  0.42424095306E+02  0.51100000000E-03 0. -1.
         23    2    1    0    0    0  0.25920813274E+01  0.71686556587E+01  0.27807679919E+02  0.96166415900E+02  0.91742051291E+02 0.  0.
         11    1    3    3    0    0  0.36303018308E+02 -0.17375707250E+02  0.35614781789E+02  0.53742320594E+02  0.51100000000E-03 0.  1.
         22    1    1    0    0    0 -0.25920813274E+01 -0.71686556587E+01 -0.27807679919E+02  0.28833584100E+02  0.00000000000E+00 0.  1.
</event>
<event>
 5    1  0.8875601E-005  0.9118800E+02  0.7818608E-02  0.1130116E+00
         25   -1    0    0    0    0  0.00000000000E+00  0.00000000000E+00  0.99999998245E-14  0.12500000000E+03  0.12500000000E+03 0.  0.
        -11    1    3    3    0    0 -0.17472791894E+02 -0.31407649473E+02 -0.23237373562E+02  0.42798533063E+02  0.51100000000E-03 0.  1.
         23    2    1    0    0    0 -0.52816631911E+01  0.20642073660E+02 -0.19046598144E+02  0.96420915481E+02  0.92088158144E+02 0.  0.
         11    1    3    3    0    0  0.12191128703E+02  0.52049723134E+02  0.41907754179E+01  0.53622382418E+02  0.51100000000E-03 0. -1.
         22    1    1    0    0    0  0.52816631911E+01 -0.20642073660E+02  0.19046598144E+02  0.28579084519E+02  0.00000000000E+00 0. -1.
</event>
<event>
 5    1  0.8875601E-005  0.9118800E+02  0.7818608E-02  0.1130116E+00
         25   -1    0    0    0    0  0.00000000000E+00  0.00000000000E+00  0.99999998245E-14  0.12500000000E+03  0.12500000000E+03 0.  0.
        -11    1    3    3    0    0  0.25991678335E+02  0.11627261975E+02 -0.48801032676E+02  0.56500454460E+02  0.51100000000E-03 0. -1.
         23    2    1    0    0    0 -0.38337702650E+01  0.16676986978E+02 -0.23460593825E+02  0.95961763970E+02  0.91462784740E+02 0.  0.
         11    1    3    3    0    0 -0.29825448600E+02  0.50497250028E+01  0.25340438850E+02  0.39461309509E+02  0.51100000000E-03 0.  1.
         22    1    1    0    0    0  0.38337702650E+01 -0.16676986978E+02  0.23460593825E+02  0.29038236030E+02  0.00000000000E+00 0. -1.
</event>
<event>
 5    1  0.8875601E-005  0.9118800E+02  0.7818608E-02  0.1130116E+00
         25   -1    0    0    0    0  0.00000000000E+00  0.00000000000E+00  0.99999998245E-14  0.12500000000E+03  0.12500000000E+03 0.  0.
        -11    1    3    3    0    0 -0.27508289860E+02 -0.10372866563E+02 -0.26866123057E+02  0.39825757245E+02  0.51100000000E-03 0.  1.
         23    2    1    0    0    0  0.22560658520E+02 -0.15165713966E+02  0.18663225739E+01  0.97751782573E+02  0.93877290349E+02 0.  0.
         11    1    3    3    0    0  0.50068948380E+02 -0.47928474029E+01  0.28732445631E+02  0.57926025328E+02  0.51100000000E-03 0. -1.
         22    1    1    0    0    0 -0.22560658520E+02  0.15165713966E+02 -0.18663225739E+01  0.27248217427E+02  0.00000000000E+00 0. -1.
</event>
<event>
 5    1  0.8875601E-005  0.9118800E+02  0.7818608E-02  0.1130116E+00
         25   -1    0    0    0    0  0.00000000000E+00  0.00000000000E+00  0.99999998245E-14  0.12500000000E+03  0.12500000000E+03 0.  0.
        -11    1    3    3    0    0 -0.32626314669E+02 -0.32458372571E+02  0.19297570717E+02  0.49904093967E+02  0.51100000000E-03 0. -1.
         23    2    1    0    0    0  0.75749351380E+01 -0.28208376519E+02 -0.22357967355E+01  0.95706810770E+02  0.91113680052E+02 0.  0.
         11    1    3    3    0    0  0.40201249807E+02  0.42499960519E+01 -0.21533367452E+02  0.45802716803E+02  0.51100000000E-03 0.  1.
         22    1    1    0    0    0 -0.75749351380E+01  0.28208376519E+02  0.22357967355E+01  0.29293189230E+02  0.00000000000E+00 0. -1.
</event>
<event>
 5    1  0.8875601E-005  0.9118800E+02  0.7818608E-02  0.1130116E+00
         25   -1    0    0    0    0  0.00000000000E+00  0.00000000000E+00  0.99999998245E-14  0.12500000000E+03  0.12500000000E+03 0.  0.
        -11    1    3    3    0    0  0.32008477050E+02  0.89190897596E+01 -0.65408042537E+01  0.33865541274E+02  0.51100000000E-03 0.  1.
         23    2    1    0    0    0 -0.22882767297E+02 -0.15681231221E+02 -0.13003136987E+02  0.94363361424E+02  0.89251556602E+02 0.  0.
         11    1    3    3    0    0 -0.54891244347E+02 -0.24600320981E+02 -0.64623327329E+01  0.60497820150E+02  0.51100000000E-03 0. -1.
         22    1    1    0    0    0  0.22882767297E+02  0.15681231221E+02  0.13003136987E+02  0.30636638576E+02  0.00000000000E+00 0. -1.
</event>
<event>
 5    1  0.8875601E-005  0.9118800E+02  0.7818608E-02  0.1130116E+00
         25   -1    0    0    0    0  0.00000000000E+00  0.00000000000E+00  0.99999998245E-14  0.12500000000E+03  0.12500000000E+03 0.  0.
        -11    1    3    3    0    0 -0.30693548281E+02  0.14463997177E+02  0.21865587622E+02  0.40365889595E+02  0.51100000000E-03 0. -1.
         23    2    1    0    0    0  0.83057703342E+01 -0.21281121716E+02  0.22023095392E+02  0.93268490534E+02  0.87704746927E+02 0.  0.
         11    1    3    3    0    0  0.38999318616E+02 -0.35745118894E+02  0.15750777044E+00  0.52902600939E+02  0.51100000000E-03 0.  1.
         22    1    1    0    0    0 -0.83057703342E+01  0.21281121716E+02 -0.22023095392E+02  0.31731509466E+02  0.00000000000E+00 0.  1.
</event>
<event>
 5    1  0.8875601E-005  0.9118800E+02  0.7818608E-02  0.1130116E+00
         25   -1    0    0    0    0  0.00000000000E+00  0.00000000000E+00  0.99999998245E-14  0.12500000000E+03  0.12500000000E+03 0.  0.
        -11    1    3    3    0    0 -0.46330288516E+02 -0.45528108719E+01 -0.38042228893E+02  0.60120170494E+02  0.51100000000E-03 0.  1.
         23    2    1    0    0    0 -0.14268270827E+02 -0.95623656012E+01 -0.24018796854E+02  0.95471623976E+02  0.90790451007E+02 0.  0.
         11    1    3    3    0    0  0.32062017689E+02 -0.50095547293E+01  0.14023432039E+02  0.35351453482E+02  0.51100000000E-03 0. -1.
         22    1    1    0    0    0  0.14268270827E+02  0.95623656012E+01  0.24018796854E+02  0.29528376024E+02  0.00000000000E+00 0.  1.
</event>
<event>
 5    1  0.8875601E-005  0.9118800E+02  0.7818608E-02  0.1130116E+00
         25   -1    0    0    0    0  0.00000000000E+00  0.00000000000E+00  0.99999998245E-14  0.12500000000E+03  0.12500000000E+03 0.  0.
        -11    1    3    3    0    0 -0.74674153410E+01  0.36670033830E+02  0.71987142680E+01  0.38108728139E+02  0.51100000000E-03 0. -1.
         23    2    1    0    0    0  0.98243566694E+01 -0.28997724974E+01 -0.28865644959E+02  0.94370730936E+02  0.89261877271E+02 0.  0.
         11    1    3    3    0    0  0.17291772010E+02 -0.39569806328E+02 -0.36064359227E+02  0.56262002797E+02  0.51100000000E-03 0.  1.
         22    1    1    0    0    0 -0.98243566694E+01  0.28997724974E+01  0.28865644959E+02  0.30629269064E+02  0.00000000000E+00 0.  1.
</event>
<event>
 5    1  0.8875601E-005  0.9118800E+02  0.7818608E-02  0.1130116E+00
         25   -1    0    0    0    0  0.00000000000E+00  0.00000000000E+00  0.99999998245E-14  0.12500000000E+03  0.12500000000E+03 0.  0.
        -11    1    3    3    0    0  0.47224771666E+01  0.10939113440E+02  0.35046764298E+02  0.37016775676E+02  0.51100000000E-03 0. -1.
         23    2    1    0    0    0  0.64769747934E+01  0.32064355726E+02 -0.13207868082E+02  0.89722218184E+02  0.82495785019E+02 0.  0.
         11    1    3    3    0    0  0.17544976268E+01  0.21125242285E+02 -0.48254632380E+02  0.52705442508E+02  0.51100000000E-03 0.  1.
         22    1    1    0    0    0 -0.64769747934E+01 -0.32064355726E+02  0.13207868082E+02  0.35277781816E+02  0.00000000000E+00 0.  1.
</event>
<event>
 5    1  0.8875601E-005  0.9118800E+02  0.7818608E-02  0.1130116E+00
         25   -1    0    0    0    0  0.00000000000E+00  0.00000000000E+00  0.99999998245E-14  0.12500000000E+03  0.12500000000E+03 0.  0.
        -11    1    3    3    0    0  0.50059901551E+02 -0.97007846172E+01  0.30006480117E+02  0.59164920475E+02  0.51100000000E-03 0.  1.
         23    2    1    0    0    0  0.27626605407E+02 -0.38956920485E+01 -0.28882986396E-01  0.97100061343E+02  0.93005458634E+02 0.  0.
         11    1    3    3    0    0 -0.22433296144E+02  0.58050925687E+01 -0.30035363104E+02  0.37935140868E+02  0.51100000000E-03 0. -1.
         22    1    1    0    0    0 -0.27626605407E+02  0.38956920485E+01  0.28882986396E-01  0.27899938657E+02  0.00000000000E+00 0.  1.
</event>
<event>
 5    1  0.8875601E-005  0.9118800E+02  0.7818608E-02  0.1130116E+00
         25   -1    0    0    0    0  0.00000000000E+00  0.00000000000E+00  0.99999998245E-14  0.12500000000E+03  0.12500000000E+03 0.  0.
        -11    1    3    3    0    0 -0.18965599300E+02 -0.33222934387E+02 -0.49084170308E+02  0.62231126466E+02  0.51100000000E-03 0.  1.
         23    2    1    0    0    0 -0.12072870987E+02 -0.12986861805E+02 -0.23103759782E+02  0.95876186557E+02  0.91345753263E+02 0.  0.
         11    1    3    3    0    0  0.68927283130E+01  0.20236072583E+02  0.25980410526E+02  0.33645060091E+02  0.51100000000E-03 0. -1.
         22    1    1    0    0    0  0.12072870987E+02  0.12986861805E+02  0.23103759782E+02  0.29123813443E+02  0.00000000000E+00 0.  1.
</event>
<event>
 5    1  0.8875601E-005  0.9118800E+02  0.7818608E-02  0.1130116E+00
         25   -1    0    0    0    0  0.00000000000E+00  0.00000000000E+00  0.99999998245E-14  0.12500000000E+03  0.12500000000E+03 0.  0.
        -11    1    3    3    0    0  0.46624412395E+02  0.47846460393E+01 -0.31807171392E+02  0.56642959149E+02  0.51100000000E-03 0.  1.
         23    2    1    0    0    0  0.29453684411E+02  0.37825825756E+01  0.26824783308E+01  0.95183508820E+02  0.90392904616E+02 0.  0.
         11    1    3    3    0    0 -0.17170727984E+02 -0.10020634637E+01  0.34489649723E+02  0.38540549671E+02  0.51100000000E-03 0. -1.
         22    1    1    0    0    0 -0.29453684411E+02 -0.37825825756E+01 -0.26824783308E+01  0.29816491180E+02  0.00000000000E+00 0.  1.
</event>
<event>
 5    1  0.8875601E-005  0.9118800E+02  0.7818608E-02  0.1130116E+00
         25   -1    0    0    0    0  0.00000000000E+00  0.00000000000E+00  0.99999998245E-14  0.12500000000E+03  0.12500000000E+03 0.  0.
        -11    1    3    3    0    0  0.39598644936E+02  0.18017308150E+02 -0.41382866337E+02  0.60043465092E+02  0.51100000000E-03 0.  1.
         23    2    1    0    0    0  0.23327117383E+02  0.16418358451E+02 -0.11230911362E+02  0.94343022496E+02  0.89223066659E+02 0.  0.
         11    1    3    3    0    0 -0.16271527553E+02 -0.15989496994E+01  0.30151954974E+02  0.34299557404E+02  0.51100000000E-03 0. -1.
         22    1    1    0    0    0 -0.23327117383E+02 -0.16418358451E+02  0.11230911362E+02  0.30656977504E+02  0.00000000000E+00 0.  1.
</event>
<event>
 5    1  0.8875601E-005  0.9118800E+02  0.7818608E-02  0.1130116E+00
         25   -1    0    0    0    0  0.00000000000E+00  0.00000000000E+00  0.99999998245E-14  0.12500000000E+03  0.12500000000E+03 0.  0.
        -11    1    3    3    0    0  0.26934250275E+02 -0.42823888936E+02 -0.20490688894E+02  0.54582118254E+02  0.51100000000E-03 0.  1.
         23    2    1    0    0    0 -0.62042546399E+01 -0.25164662012E+02 -0.20210653218E+02  0.92133246383E+02  0.86071549282E+02 0.  0.
         11    1    3    3    0    0 -0.33138504915E+02  0.17659226924E+02  0.28003567592E+00  0.37551128129E+02  0.51100000000E-03 0. -1.
         22    1    1    0    0    0  0.62042546399E+01  0.25164662012E+02  0.20210653218E+02  0.32866753617E+02  0.00000000000E+00 0.  1.
</event>
<event>
 5    1  0.8875601E-005  0.9118800E+02  0.7818608E-02  0.1130116E+00
         25   -1    0    0    0    0  0.00000000000E+00  0.00000000000E+00  0.99999998245E-14  0.12500000000E+03  0.12500000000E+03 0.  0.
        -11    1    3    3    0    0 -0.19098154424E+01  0.40141770229E+02  0.41567104447E+02  0.57817240374E+02  0.51100000000E-03 0.  1.
         23    2    1    0    0    0  0.65212966402E+01  0.62741122521E+01  0.28522003167E+02  0.95076824047E+02  0.90245254788E+02 0.  0.
         11    1    3    3    0    0  0.84311120826E+01 -0.33867657977E+02 -0.13045101279E+02  0.37259583673E+02  0.51100000000E-03 0. -1.
         22    1    1    0    0    0 -0.65212966402E+01 -0.62741122521E+01 -0.28522003167E+02  0.29923175953E+02  0.00000000000E+00 0.  1.
</event>
<event>
 5    1  0.8875601E-005  0.9118800E+02  0.7818608E-02  0.1130116E+00
         25   -1    0    0    0    0  0.00000000000E+00  0.00000000000E+00  0.99999998245E-14  0.12500000000E+03  0.12500000000E+03 0.  0.
        -11    1    3    3    0    0  0.60566858265E+01 -0.22534627356E+02 -0.48773133869E+02  0.54067656330E+02  0.51100000000E-03 0.  1.
         23    2    1    0    0    0 -0.18510096204E+02 -0.12823295540E+02 -0.11603865083E+02  0.99667999392E+02  0.96395019829E+02 0.  0.
         11    1    3    3    0    0 -0.24566782030E+02  0.97113318167E+01  0.37169268787E+02  0.45600343062E+02  0.51100000000E-03 0. -1.
         22    1    1    0    0    0  0.18510096204E+02  0.12823295540E+02  0.11603865083E+02  0.25332000608E+02  0.00000000000E+00 0.  1.
</event>
<event>
 5    1  0.8875601E-005  0.9118800E+02  0.7818608E-02  0.1130116E+00
         25   -1    0    0    0    0  0.00000000000E+00  0.00000000000E+00  0.99999998245E-14  0.12500000000E+03  0.12500000000E+03 0.  0.
        -11    1    3    3    0    0 -0.10968392913E+02  0.29323705278E+02  0.43338569723E+02  0.53464165197E+02  0.51100000000E-03 0.  1.
         23    2    1    0    0    0 -0.22060725115E+02  0.16255999994E+02  0.28285935941E+01  0.97451241949E+02  0.93476256276E+02 0.  0.
         11    1    3    3    0    0 -0.11092332202E+02 -0.13067705283E+02 -0.40509976129E+02  0.43987076753E+02  0.51100000000E-03 0. -1.
         22    1    1    0    0    0  0.22060725115E+02 -0.16255999994E+02 -0.28285935941E+01  0.27548758051E+02  0.00000000000E+00 0. -1.
</event>
<event>
 5    1  0.8875601E-005  0.9118800E+02  0.7818608E-02  0.1130116E+00
         25   -1    0    0    0    0  0.00000000000E+00  0.00000000000E+00  0.99999998245E-14  0.12500000000E+03  0.12500000000E+03 0.  0.
        -11    1    3    3    0    0 -0.18101003187E+02 -0.11319852230E+02 -0.84829890297E+01  0.22972733273E+02  0.51100000000E-03 0. -1.
         23    2    1    0    0    0  0.26277854186E+02 -0.21990158603E+02  0.27475943936E+02  0.81079387627E+02  0.68153113698E+02 0.  0.
         11    1    3    3    0    0  0.44378857374E+02 -0.10670306374E+02  0.35958932966E+02  0.58106654354E+02  0.51100000000E-03 0.  1.
         22    1    1    0    0    0 -0.26277854186E+02  0.21990158603E+02 -0.27475943936E+02  0.43920612373E+02  0.00000000000E+00 0.  1.
</event>
<event>
 5    1  0.8875601E-005  0.9118800E+02  0.7818608E-02  0.1130116E+00
         25   -1    0    0    0    0  0.00000000000E+00  0.00000000000E+00  0.99999998245E-14  0.12500000000E+03  0.12500000000E+03 0.  0.
        -11    1    3    3    0    0 -0.80071131614E+00  0.21073431507E+02  0.52337918307E+02  0.56426840662E+02  0.51100000000E-03 0. -1.
         23    2    1    0    0    0  0.16597972272E+02  0.90340196975E+00  0.27608626532E+02  0.92773534515E+02  0.86996457565E+02 0.  0.
         11    1    3    3    0    0  0.17398683588E+02 -0.20170029538E+02 -0.24729291775E+02  0.36346693853E+02  0.51100000000E-03 0.  1.
         22    1    1    0    0    0 -0.16597972272E+02 -0.90340196975E+00 -0.27608626532E+02  0.32226465485E+02  0.00000000000E+00 0. -1.
</event>
<event>
 5    1  0.8875601E-005  0.9118800E+02  0.7818608E-02  0.1130116E+00
         25   -1    0    0    0    0  0.00000000000E+00  0.00000000000E+00  0.99999998245E-14  0.12500000000E+03  0.12500000000E+03 0.  0.
        -11    1    3    3    0    0  0.15621178600E+02 -0.11370561995E+01  0.40917821577E+02  0.43813037335E+02  0.51100000000E-03 0.  1.
         23    2    1    0    0    0 -0.19518285142E+02  0.20530315124E+02  0.21516053236E+02  0.89427569090E+02  0.82048109500E+02 0.  0.
         11    1    3    3    0    0 -0.35139463742E+02  0.21667371324E+02 -0.19401768341E+02  0.45614531755E+02  0.51100000000E-03 0. -1.
         22    1    1    0    0    0  0.19518285142E+02 -0.20530315124E+02 -0.21516053236E+02  0.35572430910E+02  0.00000000000E+00 0.  1.
</event>
<event>
 5    1  0.8875601E-005  0.9118800E+02  0.7818608E-02  0.1130116E+00
         25   -1    0    0    0    0  0.00000000000E+00  0.00000000000E+00  0.99999998245E-14  0.12500000000E+03  0.12500000000E+03 0.  0.
        -11    1    3    3    0    0  0.36169458823E+02  0.39199386440E+02  0.27264944121E+02  0.59901576164E+02  0.51100000000E-03 0. -1.
         23    2    1    0    0    0  0.56633603055E+01  0.24615330828E+02  0.12879100890E+02  0.96647585615E+02  0.92395326742E+02 0.  0.
         11    1    3    3    0    0 -0.30506098517E+02 -0.14584055612E+02 -0.14385843231E+02  0.36746009451E+02  0.51100000000E-03 0.  1.
         22    1    1    0    0    0 -0.56633603055E+01 -0.24615330828E+02 -0.12879100890E+02  0.28352414385E+02  0.00000000000E+00 0. -1.
</event>
<event>
 5    1  0.8875601E-005  0.9118800E+02  0.7818608E-02  0.1130116E+00
         25   -1    0    0    0    0  0.00000000000E+00  0.00000000000E+00  0.99999998245E-14  0.12500000000E+03  0.12500000000E+03 0.  0.
        -11    1    3    3    0    0  0.36229202993E+02 -0.47466128816E+02  0.13634947459E+02  0.61249492461E+02  0.51100000000E-03 0. -1.
         23    2    1    0    0    0  0.13371214644E+02 -0.26355458073E+02 -0.54108518148E+00  0.95441713100E+02  0.90749260465E+02 0.  0.
         11    1    3    3    0    0 -0.22857988348E+02  0.21110670743E+02 -0.14176032640E+02  0.34192220639E+02  0.51100000000E-03 0.  1.
         22    1    1    0    0    0 -0.13371214644E+02  0.26355458073E+02  0.54108518148E+00  0.29558286900E+02  0.00000000000E+00 0. -1.
</event>
<event>
 5    1  0.8875601E-005  0.9118800E+02  0.7818608E-02  0.1130116E+00
         25   -1    0    0    0    0  0.00000000000E+00  0.00000000000E+00  0.99999998245E-14  0.12500000000E+03  0.12500000000E+03 0.  0.
        -11    1    3    3    0    0  0.24794440632E+02  0.41107790066E+02 -0.23558770401E+02  0.53475511717E+02  0.51100000000E-03 0. -1.
         23    2    1    0    0    0  0.27544350502E+02  0.10812774656E+02  0.47511765910E+01  0.95030331678E+02  0.90180834546E+02 0.  0.
         11    1    3    3    0    0  0.27499098700E+01 -0.30295015410E+02  0.28309946992E+02  0.41554819960E+02  0.51100000000E-03 0.  1.
         22    1    1    0    0    0 -0.27544350502E+02 -0.10812774656E+02 -0.47511765910E+01  0.29969668322E+02  0.00000000000E+00 0.  1.
</event>
<event>
 5    1  0.8875601E-005  0.9118800E+02  0.7818608E-02  0.1130116E+00
         25   -1    0    0    0    0  0.00000000000E+00  0.00000000000E+00  0.99999998245E-14  0.12500000000E+03  0.12500000000E+03 0.  0.
        -11    1    3    3    0    0 -0.42576389411E+02 -0.23557099908E+02  0.25090035022E+02  0.54746650574E+02  0.51100000000E-03 0.  1.
         23    2    1    0    0    0 -0.18259824729E+02 -0.20824884554E+02 -0.82483773520E+01  0.96101336627E+02  0.91653336856E+02 0.  0.
         11    1    3    3    0    0  0.24316564683E+02  0.27322153540E+01 -0.33338412374E+02  0.41354686054E+02  0.51100000000E-03 0. -1.
         22    1    1    0    0    0  0.18259824729E+02  0.20824884554E+02  0.82483773520E+01  0.28898663373E+02  0.00000000000E+00 0.  1.
</event>
<event>
 5    1  0.8875601E-005  0.9118800E+02  0.7818608E-02  0.1130116E+00
         25   -1    0    0    0    0  0.00000000000E+00  0.00000000000E+00  0.99999998245E-14  0.12500000000E+03  0.12500000000E+03 0.  0.
        -11    1    3    3    0    0  0.33457209915E+02 -0.10663509401E+02  0.36194625001E+02  0.50429616370E+02  0.51100000000E-03 0.  1.
         23    2    1    0    0    0  0.18487433866E+02  0.20258298931E+02  0.44308068666E+01  0.97218424522E+02  0.93164403774E+02 0.  0.
         11    1    3    3    0    0 -0.14969776048E+02  0.30921808333E+02 -0.31763818135E+02  0.46788808152E+02  0.51100000000E-03 0. -1.
         22    1    1    0    0    0 -0.18487433866E+02 -0.20258298931E+02 -0.44308068666E+01  0.27781575478E+02  0.00000000000E+00 0.  1.
</event>
<event>
 5    1  0.8875601E-005  0.9118800E+02  0.7818608E-02  0.1130116E+00
         25   -1    0    0    0    0  0.00000000000E+00  0.00000000000E+00  0.99999998245E-14  0.12500000000E+03  0.12500000000E+03 0.  0.
        -11    1    3    3    0    0 -0.34432673610E+02  0.54712105737E+01 -0.36541499474E+02  0.50505686226E+02  0.51100000000E-03 0.  1.
         23    2    1    0    0    0 -0.25718516675E+02 -0.12981306154E+02  0.40206221398E+01  0.95911826943E+02  0.91394511518E+02 0.  0.
         11    1    3    3    0    0  0.87141569354E+01 -0.18452516728E+02  0.40562121614E+02  0.45406140717E+02  0.51100000000E-03 0. -1.
         22    1    1    0    0    0  0.25718516675E+02  0.12981306154E+02 -0.40206221398E+01  0.29088173057E+02  0.00000000000E+00 0. -1.
</event>
<event>
 5    1  0.8875601E-005  0.9118800E+02  0.7818608E-02  0.1130116E+00
         25   -1    0    0    0    0  0.00000000000E+00  0.00000000000E+00  0.99999998245E-14  0.12500000000E+03  0.12500000000E+03 0.  0.
        -11    1    3    3    0    0 -0.18183950900E+02  0.53200409074E+02  0.53113257839E+01  0.56472557741E+02  0.51100000000E-03 0.  1.
         23    2    1    0    0    0 -0.23178009012E+02  0.13221010455E+02  0.87732354701E+01  0.96911125337E+02  0.92751179692E+02 0.  0.
         11    1    3    3    0    0 -0.49940581126E+01 -0.39979398618E+02  0.34619096862E+01  0.40438567596E+02  0.51100000000E-03 0. -1.
         22    1    1    0    0    0  0.23178009012E+02 -0.13221010455E+02 -0.87732354701E+01  0.28088874663E+02  0.00000000000E+00 0.  1.
</event>
<event>
 5    1  0.8875601E-005  0.9118800E+02  0.7818608E-02  0.1130116E+00
         25   -1    0    0    0    0  0.00000000000E+00  0.00000000000E+00  0.99999998245E-14  0.12500000000E+03  0.12500000000E+03 0.  0.
        -11    1    3    3    0    0 -0.19520077140E+01  0.42450205763E+02 -0.16504980185E+02  0.45587768914E+02  0.51100000000E-03 0.  1.
         23    2    1    0    0    0  0.11426418852E+02 -0.20643175473E+01 -0.29035717049E+02  0.93728650185E+02  0.88358149292E+02 0.  0.
         11    1    3    3    0    0  0.13378426566E+02 -0.44514523310E+02 -0.12530736863E+02  0.48140881271E+02  0.51100000000E-03 0. -1.
         22    1    1    0    0    0 -0.11426418852E+02  0.20643175473E+01  0.29035717049E+02  0.31271349815E+02  0.00000000000E+00 0. -1.
</event>
<event>
 5    1  0.8875601E-005  0.9118800E+02  0.7818608E-02  0.1130116E+00
         25   -1    0    0    0    0  0.00000000000E+00  0.00000000000E+00  0.99999998245E-14  0.12500000000E+03  0.12500000000E+03 0.  0.
        -11    1    3    3    0    0  0.95179961207E+01  0.31539713999E+02 -0.40716702171E+02  0.52375525250E+02  0.51100000000E-03 0.  1.
         23    2    1    0    0    0 -0.11110679205E+02  0.26099380550E+02 -0.20215049139E+01  0.96562149525E+02  0.92279669382E+02 0.  0.
         11    1    3    3    0    0 -0.20628675326E+02 -0.54403334484E+01  0.38695197258E+02  0.44186624275E+02  0.51100000000E-03 0. -1.
         22    1    1    0    0    0  0.11110679205E+02 -0.26099380550E+02  0.20215049139E+01  0.28437850475E+02  0.00000000000E+00 0.  1.
</event>
<event>
 5    1  0.8875601E-005  0.9118800E+02  0.7818608E-02  0.1130116E+00
         25   -1    0    0    0    0  0.00000000000E+00  0.00000000000E+00  0.99999998245E-14  0.12500000000E+03  0.12500000000E+03 0.  0.
        -11    1    3    3    0    0 -0.51972541897E+02  0.18250455737E+02 -0.16303528139E+02  0.57445881278E+02  0.51100000000E-03 0. -1.
         23    2    1    0    0    0 -0.26002951906E+02  0.15644929003E+02  0.85351084487E+01  0.93475955406E+02  0.87999936656E+02 0.  0.
         11    1    3    3    0    0  0.25969589991E+02 -0.26055267338E+01  0.24838636587E+02  0.36030074128E+02  0.51100000000E-03 0.  1.
         22    1    1    0    0    0  0.26002951906E+02 -0.15644929003E+02 -0.85351084487E+01  0.31524044594E+02  0.00000000000E+00 0. -1.
</event>
<event>
 5    1  0.8875601E-005  0.9118800E+02  0.7818608E-02  0.1130116E+00
         25   -1    0    0    0    0  0.00000000000E+00  0.00000000000E+00  0.99999998245E-14  0.12500000000E+03  0.12500000000E+03 0.  0.
        -11    1    3    3    0    0 -0.31891139956E+01 -0.23290512913E+02 -0.31423576594E+02  0.39243593185E+02  0.51100000000E-03 0.  1.
         23    2    1    0    0    0  0.16902566305E+02 -0.13716914915E+02  0.20101729436E+02  0.95370115950E+02  0.90650587353E+02 0.  0.
         11    1    3    3    0    0  0.20091680301E+02  0.95735979981E+01  0.51525306030E+02  0.56126522765E+02  0.51100000000E-03 0. -1.
         22    1    1    0    0    0 -0.16902566305E+02  0.13716914915E+02 -0.20101729436E+02  0.29629884050E+02  0.00000000000E+00 0. -1.
</event>
<event>
 5    1  0.8875601E-005  0.9118800E+02  0.7818608E-02  0.1130116E+00
         25   -1    0    0    0    0  0.00000000000E+00  0.00000000000E+00  0.99999998245E-14  0.12500000000E+03  0.12500000000E+03 0.  0.
        -11    1    3    3    0    0  0.13846144620E+02 -0.31266701591E+02  0.46095250754E+01  0.34504638397E+02  0.51100000000E-03 0.  1.
         23    2    1    0    0    0 -0.84922072514E+01  0.21549888799E+02 -0.17504341605E+02  0.95966962503E+02  0.91469889176E+02 0.  0.
         11    1    3    3    0    0 -0.22338351871E+02  0.52816590390E+02 -0.22113866680E+02  0.61462324107E+02  0.51100000000E-03 0. -1.
         22    1    1    0    0    0  0.84922072514E+01 -0.21549888799E+02  0.17504341605E+02  0.29033037497E+02  0.00000000000E+00 0. -1.
</event>
<event>
 5    1  0.8875601E-005  0.9118800E+02  0.7818608E-02  0.1130116E+00
         25   -1    0    0    0    0  0.00000000000E+00  0.00000000000E+00  0.99999998245E-14  0.12500000000E+03  0.12500000000E+03 0.  0.
        -11    1    3    3    0    0 -0.23816454380E+02  0.26947582917E+02 -0.12847104890E+01  0.35986750417E+02  0.51100000000E-03 0.  1.
         23    2    1    0    0    0  0.16576768655E+02 -0.10101187564E+02 -0.22965218072E+02  0.94929674256E+02  0.90041204812E+02 0.  0.
         11    1    3    3    0    0  0.40393223035E+02 -0.37048770481E+02 -0.21680507583E+02  0.58942923839E+02  0.51100000000E-03 0. -1.
         22    1    1    0    0    0 -0.16576768655E+02  0.10101187564E+02  0.22965218072E+02  0.30070325744E+02  0.00000000000E+00 0. -1.
</event>
<event>
 5    1  0.8875601E-005  0.9118800E+02  0.7818608E-02  0.1130116E+00
         25   -1    0    0    0    0  0.00000000000E+00  0.00000000000E+00  0.99999998245E-14  0.12500000000E+03  0.12500000000E+03 0.  0.
        -11    1    3    3    0    0  0.19463604853E+02 -0.38489516487E+02 -0.10201339981E+02  0.44320899483E+02  0.51100000000E-03 0. -1.
         23    2    1    0    0    0  0.21154106930E+02  0.11934078540E+02 -0.17175334870E+02  0.95252553076E+02  0.90488332225E+02 0.  0.
         11    1    3    3    0    0  0.16905020773E+01  0.50423595027E+02 -0.69739948893E+01  0.50931653593E+02  0.51100000000E-03 0.  1.
         22    1    1    0    0    0 -0.21154106930E+02 -0.11934078540E+02  0.17175334870E+02  0.29747446924E+02  0.00000000000E+00 0.  1.
</event>
<event>
 5    1  0.8875601E-005  0.9118800E+02  0.7818608E-02  0.1130116E+00
         25   -1    0    0    0    0  0.00000000000E+00  0.00000000000E+00  0.99999998245E-14  0.12500000000E+03  0.12500000000E+03 0.  0.
        -11    1    3    3    0    0  0.51805152606E+02 -0.78864186567E+01 -0.29766207564E+02  0.60266048059E+02  0.51100000000E-03 0.  1.
         23    2    1    0    0    0  0.22727336383E+02 -0.11865956042E+02 -0.45478983694E+01  0.98961257491E+02  0.95474155523E+02 0.  0.
         11    1    3    3    0    0 -0.29077816223E+02 -0.39795373854E+01  0.25218309195E+02  0.38695209432E+02  0.51100000000E-03 0. -1.
         22    1    1    0    0    0 -0.22727336383E+02  0.11865956042E+02  0.45478983694E+01  0.26038742509E+02  0.00000000000E+00 0.  1.
</event>
<event>
 5    1  0.8875601E-005  0.9118800E+02  0.7818608E-02  0.1130116E+00
         25   -1    0    0    0    0  0.00000000000E+00  0.00000000000E+00  0.99999998245E-14  0.12500000000E+03  0.12500000000E+03 0.  0.
        -11    1    3    3    0    0  0.17181246188E+02  0.23213393963E+02  0.52548769465E+02  0.59961905010E+02  0.51100000000E-03 0. -1.
         23    2    1    0    0    0  0.19179014795E+02  0.12872400160E+02  0.19106429899E+02  0.95023526594E+02  0.90171401500E+02 0.  0.
         11    1    3    3    0    0  0.19977686067E+01 -0.10340993803E+02 -0.33442339566E+02  0.35061621584E+02  0.51100000000E-03 0.  1.
         22    1    1    0    0    0 -0.19179014795E+02 -0.12872400160E+02 -0.19106429899E+02  0.29976473406E+02  0.00000000000E+00 0. -1.
</event>
<event>
 5    1  0.8875601E-005  0.9118800E+02  0.7818608E-02  0.1130116E+00
         25   -1    0    0    0    0  0.00000000000E+00  0.00000000000E+00  0.99999998245E-14  0.12500000000E+03  0.12500000000E+03 0.  0.
        -11    1    3    3    0    0 -0.12082605415E+02 -0.77465500553E+01  0.36808765095E+02  0.39508019180E+02  0.51100000000E-03 0.  1.
         23    2    1    0    0    0  0.71272799014E-01 -0.22070917688E+02 -0.17409873276E+02  0.96888895879E+02  0.92721216395E+02 0.  0.
         11    1    3    3    0    0  0.12153878214E+02 -0.14324367633E+02 -0.54218638371E+02  0.57380876700E+02  0.51100000000E-03 0. -1.
         22    1    1    0    0    0 -0.71272799014E-01  0.22070917688E+02  0.17409873276E+02  0.28111104121E+02  0.00000000000E+00 0. -1.
</event>
<event>
 5    1  0.8875601E-005  0.9118800E+02  0.7818608E-02  0.1130116E+00
         25   -1    0    0    0    0  0.00000000000E+00  0.00000000000E+00  0.99999998245E-14  0.12500000000E+03  0.12500000000E+03 0.  0.
        -11    1    3    3    0    0 -0.10141879426E+02  0.12224305612E+02  0.59654177277E+02  0.61732586475E+02  0.51100000000E-03 0. -1.
         23    2    1    0    0    0 -0.72695996753E+01  0.84255046531E+01  0.16811948620E+02  0.10483870479E+03  0.10288185553E+03 0.  0.
         11    1    3    3    0    0  0.28722797507E+01 -0.37988009592E+01 -0.42842228657E+02  0.43106118316E+02  0.51100000000E-03 0.  1.
         22    1    1    0    0    0  0.72695996753E+01 -0.84255046531E+01 -0.16811948620E+02  0.20161295209E+02  0.00000000000E+00 0. -1.
</event>
<event>
 5    1  0.8875601E-005  0.9118800E+02  0.7818608E-02  0.1130116E+00
         25   -1    0    0    0    0  0.00000000000E+00  0.00000000000E+00  0.99999998245E-14  0.12500000000E+03  0.12500000000E+03 0.  0.
        -11    1    3    3    0    0 -0.12193501738E+02  0.30900908176E+02 -0.13031243044E+02  0.35684182859E+02  0.51100000000E-03 0. -1.
         23    2    1    0    0    0  0.21016243746E+01 -0.10022938785E+02  0.27885380000E+02  0.95293594215E+02  0.90545008442E+02 0.  0.
         11    1    3    3    0    0  0.14295126113E+02 -0.40923846961E+02  0.40916623044E+02  0.59609411357E+02  0.51100000000E-03 0.  1.
         22    1    1    0    0    0 -0.21016243746E+01  0.10022938785E+02 -0.27885380000E+02  0.29706405785E+02  0.00000000000E+00 0.  1.
</event>
<event>
 5    1  0.8875601E-005  0.9118800E+02  0.7818608E-02  0.1130116E+00
         25   -1    0    0    0    0  0.00000000000E+00  0.00000000000E+00  0.99999998245E-14  0.12500000000E+03  0.12500000000E+03 0.  0.
        -11    1    3    3    0    0 -0.23550906356E+02 -0.25258841966E+02  0.38985238357E+02  0.52081696378E+02  0.51100000000E-03 0. -1.
         23    2    1    0    0    0 -0.74927986699E+01 -0.28652749162E+02 -0.10650920768E+01  0.95364607517E+02  0.90642991342E+02 0.  0.
         11    1    3    3    0    0  0.16058107686E+02 -0.33939071967E+01 -0.40050330434E+02  0.43282911139E+02  0.51100000000E-03 0.  1.
         22    1    1    0    0    0  0.74927986699E+01  0.28652749162E+02  0.10650920768E+01  0.29635392483E+02  0.00000000000E+00 0. -1.
</event>
<event>
 5    1  0.8875601E-005  0.9118800E+02  0.7818608E-02  0.1130116E+00
         25   -1    0    0    0    0  0.00000000000E+00  0.00000000000E+00  0.99999998245E-14  0.12500000000E+03  0.12500000000E+03 0.  0.
        -11    1    3    3    0    0  0.25206931804E+01 -0.57774536356E+02 -0.15000506083E+02  0.59743335430E+02  0.51100000000E-03 0.  1.
         23    2    1    0    0    0  0.12119363356E+02 -0.24906189702E+02 -0.13917519578E+02  0.94001699969E+02  0.88743591274E+02 0.  0.
         11    1    3    3    0    0  0.95986701753E+01  0.32868346653E+02  0.10829865058E+01  0.34258364539E+02  0.51100000000E-03 0. -1.
         22    1    1    0    0    0 -0.12119363356E+02  0.24906189702E+02  0.13917519578E+02  0.30998300031E+02  0.00000000000E+00 0.  1.
</event>
<event>
 5    1  0.8875601E-005  0.9118800E+02  0.7818608E-02  0.1130116E+00
         25   -1    0    0    0    0  0.00000000000E+00  0.00000000000E+00  0.99999998245E-14  0.12500000000E+03  0.12500000000E+03 0.  0.
        -11    1    3    3    0    0  0.58783035490E+02  0.89471005190E+01  0.36876960178E+01  0.59574281123E+02  0.51100000000E-03 0.  1.
         23    2    1    0    0    0  0.25521297914E+02 -0.94531801773E+01 -0.18974511912E+00  0.97783547882E+02  0.93919577142E+02 0.  0.
         11    1    3    3    0    0 -0.33261737576E+02 -0.18400280696E+02 -0.38774411370E+01  0.38209266759E+02  0.51100000000E-03 0. -1.
         22    1    1    0    0    0 -0.25521297914E+02  0.94531801773E+01  0.18974511912E+00  0.27216452118E+02  0.00000000000E+00 0.  1.
</event>
<event>
 5    1  0.8875601E-005  0.9118800E+02  0.7818608E-02  0.1130116E+00
         25   -1    0    0    0    0  0.00000000000E+00  0.00000000000E+00  0.99999998245E-14  0.12500000000E+03  0.12500000000E+03 0.  0.
        -11    1    3    3    0    0  0.15403293039E+02 -0.44142605833E+02  0.14995328161E+02  0.49098787695E+02  0.51100000000E-03 0.  1.
         23    2    1    0    0    0  0.27679824423E+02  0.83868377906E+00  0.73579062167E+01  0.96346643225E+02  0.91987286112E+02 0.  0.
         11    1    3    3    0    0  0.12276531384E+02  0.44981289612E+02 -0.76374219447E+01  0.47247855530E+02  0.51100000000E-03 0. -1.
         22    1    1    0    0    0 -0.27679824423E+02 -0.83868377906E+00 -0.73579062167E+01  0.28653356775E+02  0.00000000000E+00 0.  1.
</event>
<event>
 5    1  0.8875601E-005  0.9118800E+02  0.7818608E-02  0.1130116E+00
         25   -1    0    0    0    0  0.00000000000E+00  0.00000000000E+00  0.99999998245E-14  0.12500000000E+03  0.12500000000E+03 0.  0.
        -11    1    3    3    0    0  0.47438326085E+01  0.61532429313E+01 -0.55372679705E+02  0.55915114275E+02  0.51100000000E-03 0.  1.
         23    2    1    0    0    0  0.90573672936E+00  0.21668318631E+02 -0.17129130246E+02  0.97364090492E+02  0.93359641297E+02 0.  0.
         11    1    3    3    0    0 -0.38380958791E+01  0.15515075700E+02  0.38243549459E+02  0.41448976217E+02  0.51100000000E-03 0. -1.
         22    1    1    0    0    0 -0.90573672936E+00 -0.21668318631E+02  0.17129130246E+02  0.27635909508E+02  0.00000000000E+00 0.  1.
</event>
<event>
 5    1  0.8875601E-005  0.9118800E+02  0.7818608E-02  0.1130116E+00
         25   -1    0    0    0    0  0.00000000000E+00  0.00000000000E+00  0.99999998245E-14  0.12500000000E+03  0.12500000000E+03 0.  0.
        -11    1    3    3    0    0 -0.45488922936E+02 -0.22052798232E+01  0.73017451719E+01  0.46123972637E+02  0.51100000000E-03 0. -1.
         23    2    1    0    0    0  0.91819422591E+00 -0.19829474531E+02  0.19427461248E+02  0.97224518162E+02  0.93172579338E+02 0.  0.
         11    1    3    3    0    0  0.46407117162E+02 -0.17624194708E+02  0.12125716076E+02  0.51100545525E+02  0.51100000000E-03 0.  1.
         22    1    1    0    0    0 -0.91819422591E+00  0.19829474531E+02 -0.19427461248E+02  0.27775481838E+02  0.00000000000E+00 0.  1.
</event>
<event>
 5    1  0.8875601E-005  0.9118800E+02  0.7818608E-02  0.1130116E+00
         25   -1    0    0    0    0  0.00000000000E+00  0.00000000000E+00  0.99999998245E-14  0.12500000000E+03  0.12500000000E+03 0.  0.
        -11    1    3    3    0    0  0.19951969941E+02 -0.49184319595E+02 -0.31174705553E+02  0.61555183901E+02  0.51100000000E-03 0.  1.
         23    2    1    0    0    0  0.43453368574E+01 -0.21385993179E+02 -0.20177587474E+02  0.95278329573E+02  0.90523932710E+02 0.  0.
         11    1    3    3    0    0 -0.15606633083E+02  0.27798326416E+02  0.10997118078E+02  0.33723145672E+02  0.51100000000E-03 0. -1.
         22    1    1    0    0    0 -0.43453368574E+01  0.21385993179E+02  0.20177587474E+02  0.29721670427E+02  0.00000000000E+00 0.  1.
</event>
<event>
 5    1  0.8875601E-005  0.9118800E+02  0.7818608E-02  0.1130116E+00
         25   -1    0    0    0    0  0.00000000000E+00  0.00000000000E+00  0.99999998245E-14  0.12500000000E+03  0.12500000000E+03 0.  0.
        -11    1    3    3    0    0  0.32741315576E+02  0.17473248977E+02  0.37427972182E+01  0.37300357998E+02  0.51100000000E-03 0.  1.
         23    2    1    0    0    0 -0.24711810364E+02  0.58291334279E+01  0.12714911144E+02  0.96604202188E+02  0.92336615419E+02 0.  0.
         11    1    3    3    0    0 -0.57453125940E+02 -0.11644115549E+02  0.89721139257E+01  0.59303844190E+02  0.51100000000E-03 0. -1.
         22    1    1    0    0    0  0.24711810364E+02 -0.58291334279E+01 -0.12714911144E+02  0.28395797812E+02  0.00000000000E+00 0. -1.
</event>
<event>
 5    1  0.8875601E-005  0.9118800E+02  0.7818608E-02  0.1130116E+00
         25   -1    0    0    0    0  0.00000000000E+00  0.00000000000E+00  0.99999998245E-14  0.12500000000E+03  0.12500000000E+03 0.  0.
        -11    1    3    3    0    0 -0.22534616639E+02 -0.48756767713E+02  0.64646577800E+01  0.54100121491E+02  0.51100000000E-03 0.  1.
         23    2    1    0    0    0  0.90472453253E+01 -0.31639420284E+02 -0.47930969828E+01  0.91745235791E+02  0.85506192453E+02 0.  0.
         11    1    3    3    0    0  0.31581861964E+02  0.17117347429E+02 -0.11257754763E+02  0.37645114300E+02  0.51100000000E-03 0. -1.
         22    1    1    0    0    0 -0.90472453253E+01  0.31639420284E+02  0.47930969828E+01  0.33254764209E+02  0.00000000000E+00 0. -1.
</event>
<event>
 5    1  0.8875601E-005  0.9118800E+02  0.7818608E-02  0.1130116E+00
         25   -1    0    0    0    0  0.00000000000E+00  0.00000000000E+00  0.99999998245E-14  0.12500000000E+03  0.12500000000E+03 0.  0.
        -11    1    3    3    0    0  0.54423147968E+01  0.12756824519E+02  0.58052495454E+02  0.59686242895E+02  0.51100000000E-03 0.  1.
         23    2    1    0    0    0  0.13807047374E+02  0.10183522586E+02  0.20388575193E+02  0.98353561441E+02  0.94675183445E+02 0.  0.
         11    1    3    3    0    0  0.83647325769E+01 -0.25733019326E+01 -0.37663920261E+02  0.38667318547E+02  0.51100000000E-03 0. -1.
         22    1    1    0    0    0 -0.13807047374E+02 -0.10183522586E+02 -0.20388575193E+02  0.26646438559E+02  0.00000000000E+00 0.  1.
</event>
<event>
 5    1  0.8875601E-005  0.9118800E+02  0.7818608E-02  0.1130116E+00
         25   -1    0    0    0    0  0.00000000000E+00  0.00000000000E+00  0.99999998245E-14  0.12500000000E+03  0.12500000000E+03 0.  0.
        -11    1    3    3    0    0 -0.33127255849E+02  0.14313623272E+02  0.24686827428E+01  0.36171664131E+02  0.51100000000E-03 0.  1.
         23    2    1    0    0    0  0.11062163311E+02 -0.16211724693E+02 -0.22281136059E+02  0.95307568326E+02  0.90564298052E+02 0.  0.
         11    1    3    3    0    0  0.44189419160E+02 -0.30525347965E+02 -0.24749818801E+02  0.59135904195E+02  0.51100000000E-03 0. -1.
         22    1    1    0    0    0 -0.11062163311E+02  0.16211724693E+02  0.22281136059E+02  0.29692431674E+02  0.00000000000E+00 0. -1.
</event>
<event>
 5    1  0.8875601E-005  0.9118800E+02  0.7818608E-02  0.1130116E+00
         25   -1    0    0    0    0  0.00000000000E+00  0.00000000000E+00  0.99999998245E-14  0.12500000000E+03  0.12500000000E+03 0.  0.
        -11    1    3    3    0    0  0.14745421525E+02  0.29840669791E+02  0.17972023100E+02  0.37827062324E+02  0.51100000000E-03 0. -1.
         23    2    1    0    0    0  0.24385934587E+02  0.45335142821E+01 -0.25743719922E+02  0.89251354251E+02  0.81779206176E+02 0.  0.
         11    1    3    3    0    0  0.96405130627E+01 -0.25307155509E+02 -0.43715743022E+02  0.51424291927E+02  0.51100000000E-03 0.  1.
         22    1    1    0    0    0 -0.24385934587E+02 -0.45335142821E+01  0.25743719922E+02  0.35748645749E+02  0.00000000000E+00 0.  1.
</event>
<event>
 5    1  0.8875601E-005  0.9118800E+02  0.7818608E-02  0.1130116E+00
         25   -1    0    0    0    0  0.00000000000E+00  0.00000000000E+00  0.99999998245E-14  0.12500000000E+03  0.12500000000E+03 0.  0.
        -11    1    3    3    0    0 -0.22774143769E+02  0.16422103367E+01  0.43631520855E+02  0.49244980369E+02  0.51100000000E-03 0.  1.
         23    2    1    0    0    0  0.16997628951E+01 -0.25147212828E+02  0.13514961738E+02  0.96400599697E+02  0.92060577471E+02 0.  0.
         11    1    3    3    0    0  0.24473906664E+02 -0.26789423165E+02 -0.30116559117E+02  0.47155619328E+02  0.51100000000E-03 0. -1.
         22    1    1    0    0    0 -0.16997628951E+01  0.25147212828E+02 -0.13514961738E+02  0.28599400303E+02  0.00000000000E+00 0.  1.
</event>
<event>
 5    1  0.8875601E-005  0.9118800E+02  0.7818608E-02  0.1130116E+00
         25   -1    0    0    0    0  0.00000000000E+00  0.00000000000E+00  0.99999998245E-14  0.12500000000E+03  0.12500000000E+03 0.  0.
        -11    1    3    3    0    0  0.44673302414E+02  0.75382484834E+01 -0.84653189773E+01  0.46088944058E+02  0.51100000000E-03 0.  1.
         23    2    1    0    0    0  0.60682584876E+01 -0.24006118998E+02 -0.14498416272E+02  0.96306419100E+02  0.91932609966E+02 0.  0.
         11    1    3    3    0    0 -0.38605043926E+02 -0.31544367482E+02 -0.60330972951E+01  0.50217475042E+02  0.51100000000E-03 0. -1.
         22    1    1    0    0    0 -0.60682584876E+01  0.24006118998E+02  0.14498416272E+02  0.28693580900E+02  0.00000000000E+00 0. -1.
</event>
<event>
 5    1  0.8875601E-005  0.9118800E+02  0.7818608E-02  0.1130116E+00
         25   -1    0    0    0    0  0.00000000000E+00  0.00000000000E+00  0.99999998245E-14  0.12500000000E+03  0.12500000000E+03 0.  0.
        -11    1    3    3    0    0 -0.11703195343E+02 -0.39890862047E+02 -0.99773015051E+01  0.42752686485E+02  0.51100000000E-03 0.  1.
         23    2    1    0    0    0  0.27487372311E+02 -0.27334177332E+01 -0.27201244346E+01  0.97243446071E+02  0.93197969494E+02 0.  0.
         11    1    3    3    0    0  0.39190567655E+02  0.37157444313E+02  0.72571770705E+01  0.54490759586E+02  0.51100000000E-03 0. -1.
         22    1    1    0    0    0 -0.27487372311E+02  0.27334177332E+01  0.27201244346E+01  0.27756553929E+02  0.00000000000E+00 0. -1.
</event>
<event>
 5    1  0.8875601E-005  0.9118800E+02  0.7818608E-02  0.1130116E+00
         25   -1    0    0    0    0  0.00000000000E+00  0.00000000000E+00  0.99999998245E-14  0.12500000000E+03  0.12500000000E+03 0.  0.
        -11    1    3    3    0    0  0.37737614552E+02 -0.24570155262E+01 -0.44522858821E+02  0.58416174432E+02  0.51100000000E-03 0. -1.
         23    2    1    0    0    0  0.61192707264E+01  0.81691259535E+01 -0.27085397926E+02  0.96055244449E+02  0.91590453172E+02 0.  0.
         11    1    3    3    0    0 -0.31618343826E+02  0.10626141480E+02  0.17437460895E+02  0.37639070017E+02  0.51100000000E-03 0.  1.
         22    1    1    0    0    0 -0.61192707264E+01 -0.81691259535E+01  0.27085397926E+02  0.28944755551E+02  0.00000000000E+00 0. -1.
</event>
<event>
 5    1  0.8875601E-005  0.9118800E+02  0.7818608E-02  0.1130116E+00
         25   -1    0    0    0    0  0.00000000000E+00  0.00000000000E+00  0.99999998245E-14  0.12500000000E+03  0.12500000000E+03 0.  0.
        -11    1    3    3    0    0 -0.26168235400E+02  0.30580640315E+02  0.36822438176E+02  0.54551297505E+02  0.51100000000E-03 0.  1.
         23    2    1    0    0    0 -0.11393098114E+02  0.26820982047E+02 -0.15263627243E+01  0.95819569130E+02  0.91268243560E+02 0.  0.
         11    1    3    3    0    0  0.14775137286E+02 -0.37596582675E+01 -0.38348800901E+02  0.41268271625E+02  0.51100000000E-03 0. -1.
         22    1    1    0    0    0  0.11393098114E+02 -0.26820982047E+02  0.15263627243E+01  0.29180430870E+02  0.00000000000E+00 0.  1.
</event>
<event>
 5    1  0.8875601E-005  0.9118800E+02  0.7818608E-02  0.1130116E+00
         25   -1    0    0    0    0  0.00000000000E+00  0.00000000000E+00  0.99999998245E-14  0.12500000000E+03  0.12500000000E+03 0.  0.
        -11    1    3    3    0    0  0.56166922723E+02 -0.17070700271E+02 -0.56571163125E+01  0.58975715181E+02  0.51100000000E-03 0.  1.
         23    2    1    0    0    0  0.16573731131E+02 -0.20119997340E+02 -0.18964130350E+01  0.98863832741E+02  0.95346516378E+02 0.  0.
         11    1    3    3    0    0 -0.39593191592E+02 -0.30492970691E+01  0.37607032775E+01  0.39888117560E+02  0.51100000000E-03 0. -1.
         22    1    1    0    0    0 -0.16573731131E+02  0.20119997340E+02  0.18964130350E+01  0.26136167259E+02  0.00000000000E+00 0.  1.
</event>
<event>
 5    1  0.8875601E-005  0.9118800E+02  0.7818608E-02  0.1130116E+00
         25   -1    0    0    0    0  0.00000000000E+00  0.00000000000E+00  0.99999998245E-14  0.12500000000E+03  0.12500000000E+03 0.  0.
        -11    1    3    3    0    0  0.33600799406E+02  0.23328384253E+02  0.94290996878E+01  0.41977793579E+02  0.51100000000E-03 0.  1.
         23    2    1    0    0    0  0.10538720500E+02 -0.24133114009E+02 -0.78805744937E+01  0.97512270449E+02  0.93557830309E+02 0.  0.
         11    1    3    3    0    0 -0.23062078905E+02 -0.47461498262E+02 -0.17309674182E+02  0.55534476870E+02  0.51100000000E-03 0. -1.
         22    1    1    0    0    0 -0.10538720500E+02  0.24133114009E+02  0.78805744937E+01  0.27487729551E+02  0.00000000000E+00 0. -1.
</event>
<event>
 5    1  0.8875601E-005  0.9118800E+02  0.7818608E-02  0.1130116E+00
         25   -1    0    0    0    0  0.00000000000E+00  0.00000000000E+00  0.99999998245E-14  0.12500000000E+03  0.12500000000E+03 0.  0.
        -11    1    3    3    0    0  0.14705793685E+02 -0.19798220320E+02  0.23621238077E+02  0.34149564921E+02  0.51100000000E-03 0.  1.
         23    2    1    0    0    0 -0.27108655204E+02 -0.49091989897E+01 -0.15564163054E+02  0.93357898407E+02  0.87832081847E+02 0.  0.
         11    1    3    3    0    0 -0.41814448889E+02  0.14889021330E+02 -0.39185401131E+02  0.59208333486E+02  0.51100000000E-03 0. -1.
         22    1    1    0    0    0  0.27108655204E+02  0.49091989897E+01  0.15564163054E+02  0.31642101593E+02  0.00000000000E+00 0. -1.
</event>
<event>
 5    1  0.8875601E-005  0.9118800E+02  0.7818608E-02  0.1130116E+00
         25   -1    0    0    0    0  0.00000000000E+00  0.00000000000E+00  0.99999998245E-14  0.12500000000E+03  0.12500000000E+03 0.  0.
        -11    1    3    3    0    0 -0.39103148456E+02 -0.12718600668E+02  0.54498136167E+01  0.41479145252E+02  0.51100000000E-03 0.  1.
         23    2    1    0    0    0  0.82301379019E+01 -0.37913136336E+01  0.28655884991E+02  0.94945566491E+02  0.90063264557E+02 0.  0.
         11    1    3    3    0    0  0.47333286358E+02  0.89272870343E+01  0.23206071374E+02  0.53466421239E+02  0.51100000000E-03 0. -1.
         22    1    1    0    0    0 -0.82301379019E+01  0.37913136336E+01 -0.28655884991E+02  0.30054433509E+02  0.00000000000E+00 0.  1.
</event>
<event>
 5    1  0.8875601E-005  0.9118800E+02  0.7818608E-02  0.1130116E+00
         25   -1    0    0    0    0  0.00000000000E+00  0.00000000000E+00  0.99999998245E-14  0.12500000000E+03  0.12500000000E+03 0.  0.
        -11    1    3    3    0    0  0.89113191434E+01  0.25003997198E+02 -0.33848507374E+02  0.43015496469E+02  0.51100000000E-03 0. -1.
         23    2    1    0    0    0 -0.30042850370E+02  0.71959788210E+01 -0.78300059470E+01  0.93130516749E+02  0.87507880716E+02 0.  0.
         11    1    3    3    0    0 -0.38954169513E+02 -0.17808018377E+02  0.26018501427E+02  0.50115020281E+02  0.51100000000E-03 0.  1.
         22    1    1    0    0    0  0.30042850370E+02 -0.71959788210E+01  0.78300059470E+01  0.31869483251E+02  0.00000000000E+00 0.  1.
</event>
<event>
 5    1  0.8875601E-005  0.9118800E+02  0.7818608E-02  0.1130116E+00
         25   -1    0    0    0    0  0.00000000000E+00  0.00000000000E+00  0.99999998245E-14  0.12500000000E+03  0.12500000000E+03 0.  0.
        -11    1    3    3    0    0  0.13610397915E+01 -0.80825321673E+01  0.43006200359E+02  0.43780281236E+02  0.51100000000E-03 0.  1.
         23    2    1    0    0    0  0.75072709652E+01 -0.27093464358E+02 -0.56006292715E+01  0.96333260100E+02  0.91969098206E+02 0.  0.
         11    1    3    3    0    0  0.61462311738E+01 -0.19010932191E+02 -0.48606829630E+02  0.52552978863E+02  0.51100000000E-03 0. -1.
         22    1    1    0    0    0 -0.75072709652E+01  0.27093464358E+02  0.56006292715E+01  0.28666739900E+02  0.00000000000E+00 0. -1.
</event>
<event>
 5    1  0.8875601E-005  0.9118800E+02  0.7818608E-02  0.1130116E+00
         25   -1    0    0    0    0  0.00000000000E+00  0.00000000000E+00  0.99999998245E-14  0.12500000000E+03  0.12500000000E+03 0.  0.
        -11    1    3    3    0    0  0.52751095243E+01 -0.12898835760E+01 -0.32188106850E+02  0.32642990105E+02  0.51100000000E-03 0.  1.
         23    2    1    0    0    0 -0.18047938750E+01  0.98287310494E+01  0.28527450670E+02  0.94772914849E+02  0.89823319423E+02 0.  0.
         11    1    3    3    0    0 -0.70799033993E+01  0.11118614625E+02  0.60715557521E+02  0.62129924744E+02  0.51100000000E-03 0. -1.
         22    1    1    0    0    0  0.18047938750E+01 -0.98287310494E+01 -0.28527450670E+02  0.30227085151E+02  0.00000000000E+00 0. -1.
</event>
<event>
 5    1  0.8875601E-005  0.9118800E+02  0.7818608E-02  0.1130116E+00
         25   -1    0    0    0    0  0.00000000000E+00  0.00000000000E+00  0.99999998245E-14  0.12500000000E+03  0.12500000000E+03 0.  0.
        -11    1    3    3    0    0 -0.37245173049E+02  0.10882539357E+02 -0.82866479654E+01  0.39677463541E+02  0.51100000000E-03 0. -1.
         23    2    1    0    0    0 -0.41057222378E+01 -0.28912711246E+02  0.92728201532E+01  0.94360368471E+02  0.89247364766E+02 0.  0.
         11    1    3    3    0    0  0.33139450811E+02 -0.39795250603E+02  0.17559468119E+02  0.54682904929E+02  0.51100000000E-03 0.  1.
         22    1    1    0    0    0  0.41057222378E+01  0.28912711246E+02 -0.92728201532E+01  0.30639631529E+02  0.00000000000E+00 0.  1.
</event>
<event>
 5    1  0.8875601E-005  0.9118800E+02  0.7818608E-02  0.1130116E+00
         25   -1    0    0    0    0  0.00000000000E+00  0.00000000000E+00  0.99999998245E-14  0.12500000000E+03  0.12500000000E+03 0.  0.
        -11    1    3    3    0    0  0.13215395952E+02 -0.11855356912E+02  0.54233656941E+02  0.57065626459E+02  0.51100000000E-03 0.  1.
         23    2    1    0    0    0  0.14861403377E+02 -0.16429442346E+02  0.11566980072E+02  0.10000834311E+03  0.96835353964E+02 0.  0.
         11    1    3    3    0    0  0.16460074251E+01 -0.45740854343E+01 -0.42666676869E+02  0.42942716651E+02  0.51100000000E-03 0. -1.
         22    1    1    0    0    0 -0.14861403377E+02  0.16429442346E+02 -0.11566980072E+02  0.24991656890E+02  0.00000000000E+00 0.  1.
</event>
<event>
 5    1  0.8875601E-005  0.9118800E+02  0.7818608E-02  0.1130116E+00
         25   -1    0    0    0    0  0.00000000000E+00  0.00000000000E+00  0.99999998245E-14  0.12500000000E+03  0.12500000000E+03 0.  0.
        -11    1    3    3    0    0  0.37754759290E+02 -0.21549881008E+01  0.14933990312E+02  0.40658208146E+02  0.51100000000E-03 0.  1.
         23    2    1    0    0    0 -0.13966567380E+02 -0.23165840584E+02  0.71183249072E+01  0.97028733961E+02  0.92909544667E+02 0.  0.
         11    1    3    3    0    0 -0.51721326671E+02 -0.21010852483E+02 -0.78156654044E+01  0.56370525815E+02  0.51100000000E-03 0. -1.
         22    1    1    0    0    0  0.13966567380E+02  0.23165840584E+02 -0.71183249072E+01  0.27971266039E+02  0.00000000000E+00 0. -1.
</event>
<event>
 5    1  0.8875601E-005  0.9118800E+02  0.7818608E-02  0.1130116E+00
         25   -1    0    0    0    0  0.00000000000E+00  0.00000000000E+00  0.99999998245E-14  0.12500000000E+03  0.12500000000E+03 0.  0.
        -11    1    3    3    0    0 -0.23398370123E+02  0.46293423409E+02  0.57453501730E+01  0.52187870470E+02  0.51100000000E-03 0.  1.
         23    2    1    0    0    0  0.13292431358E+02  0.27181403382E+02 -0.33856550582E+01  0.94553652413E+02  0.89517669224E+02 0.  0.
         11    1    3    3    0    0  0.36690801481E+02 -0.19112020027E+02 -0.91310052312E+01  0.42365781943E+02  0.51100000000E-03 0. -1.
         22    1    1    0    0    0 -0.13292431358E+02 -0.27181403382E+02  0.33856550582E+01  0.30446347587E+02  0.00000000000E+00 0. -1.
</event>
<event>
 5    1  0.8875601E-005  0.9118800E+02  0.7818608E-02  0.1130116E+00
         25   -1    0    0    0    0  0.00000000000E+00  0.00000000000E+00  0.99999998245E-14  0.12500000000E+03  0.12500000000E+03 0.  0.
        -11    1    3    3    0    0 -0.37050437616E+02 -0.15723571284E+02 -0.29012203709E+02  0.49615255575E+02  0.51100000000E-03 0.  1.
         23    2    1    0    0    0  0.10548147549E+01 -0.28557202421E+02 -0.65128578877E+01  0.95690551657E+02  0.91091371240E+02 0.  0.
         11    1    3    3    0    0  0.38105252371E+02 -0.12833631137E+02  0.22499345821E+02  0.46075296082E+02  0.51100000000E-03 0. -1.
         22    1    1    0    0    0 -0.10548147549E+01  0.28557202421E+02  0.65128578877E+01  0.29309448343E+02  0.00000000000E+00 0.  1.
</event>
<event>
 5    1  0.8875601E-005  0.9118800E+02  0.7818608E-02  0.1130116E+00
         25   -1    0    0    0    0  0.00000000000E+00  0.00000000000E+00  0.99999998245E-14  0.12500000000E+03  0.12500000000E+03 0.  0.
        -11    1    3    3    0    0 -0.40116350730E+02 -0.15935622292E+02  0.90992821767E+01  0.44114199416E+02  0.51100000000E-03 0. -1.
         23    2    1    0    0    0 -0.14113194025E+02  0.21122751290E+02  0.22221325340E+02  0.91248849390E+02  0.84777428290E+02 0.  0.
         11    1    3    3    0    0  0.26003156705E+02  0.37058373582E+02  0.13122043163E+02  0.47134649974E+02  0.51100000000E-03 0.  1.
         22    1    1    0    0    0  0.14113194025E+02 -0.21122751290E+02 -0.22221325340E+02  0.33751150610E+02  0.00000000000E+00 0. -1.
</event>
<event>
 5    1  0.8875601E-005  0.9118800E+02  0.7818608E-02  0.1130116E+00
         25   -1    0    0    0    0  0.00000000000E+00  0.00000000000E+00  0.99999998245E-14  0.12500000000E+03  0.12500000000E+03 0.  0.
        -11    1    3    3    0    0 -0.19568156318E+02 -0.54151233337E+02 -0.13491017525E+02  0.59137774457E+02  0.51100000000E-03 0.  1.
         23    2    1    0    0    0  0.52684390552E+01 -0.20724881517E+02 -0.11239646395E+02  0.10084204448E+03  0.97905623532E+02 0.  0.
         11    1    3    3    0    0  0.24836595373E+02  0.33426351819E+02  0.22513711301E+01  0.41704270020E+02  0.51100000000E-03 0. -1.
         22    1    1    0    0    0 -0.52684390552E+01  0.20724881517E+02  0.11239646395E+02  0.24157955523E+02  0.00000000000E+00 0.  1.
</event>
<event>
 5    1  0.8875601E-005  0.9118800E+02  0.7818608E-02  0.1130116E+00
         25   -1    0    0    0    0  0.00000000000E+00  0.00000000000E+00  0.99999998245E-14  0.12500000000E+03  0.12500000000E+03 0.  0.
        -11    1    3    3    0    0 -0.71307463838E+00  0.48459480005E+01  0.42626131346E+02  0.42906628407E+02  0.51100000000E-03 0.  1.
         23    2    1    0    0    0  0.27721268348E+02 -0.89301445835E+00 -0.31356157375E+01  0.97087667964E+02  0.92988800353E+02 0.  0.
         11    1    3    3    0    0  0.28434342986E+02 -0.57389624589E+01 -0.45761747083E+02  0.54181039557E+02  0.51100000000E-03 0. -1.
         22    1    1    0    0    0 -0.27721268348E+02  0.89301445835E+00  0.31356157375E+01  0.27912332036E+02  0.00000000000E+00 0. -1.
</event>
<event>
 5    1  0.8875601E-005  0.9118800E+02  0.7818608E-02  0.1130116E+00
         25   -1    0    0    0    0  0.00000000000E+00  0.00000000000E+00  0.99999998245E-14  0.12500000000E+03  0.12500000000E+03 0.  0.
        -11    1    3    3    0    0  0.33345245179E+02  0.23543184210E+02  0.84371119527E+01  0.41681791674E+02  0.51100000000E-03 0. -1.
         23    2    1    0    0    0 -0.41393051744E+01  0.79185825811E+01 -0.27608296077E+02  0.95981802094E+02  0.91490166267E+02 0.  0.
         11    1    3    3    0    0 -0.37484550353E+02 -0.15624601629E+02 -0.36045408030E+02  0.54300010420E+02  0.51100000000E-03 0.  1.
         22    1    1    0    0    0  0.41393051744E+01 -0.79185825811E+01  0.27608296077E+02  0.29018197906E+02  0.00000000000E+00 0.  1.
</event>
<event>
 5    1  0.8875601E-005  0.9118800E+02  0.7818608E-02  0.1130116E+00
         25   -1    0    0    0    0  0.00000000000E+00  0.00000000000E+00  0.99999998245E-14  0.12500000000E+03  0.12500000000E+03 0.  0.
        -11    1    3    3    0    0 -0.15338771295E+02  0.12494431118E+02  0.43898571980E+02  0.48150527888E+02  0.51100000000E-03 0.  1.
         23    2    1    0    0    0 -0.22801721023E+02  0.15743518953E+02 -0.42367436215E+01  0.96969180048E+02  0.92829386576E+02 0.  0.
         11    1    3    3    0    0 -0.74629497286E+01  0.32490878356E+01 -0.48135315601E+02  0.48818652160E+02  0.51100000000E-03 0. -1.
         22    1    1    0    0    0  0.22801721023E+02 -0.15743518953E+02  0.42367436215E+01  0.28030819952E+02  0.00000000000E+00 0. -1.
</event>
<event>
 5    1  0.8875601E-005  0.9118800E+02  0.7818608E-02  0.1130116E+00
         25   -1    0    0    0    0  0.00000000000E+00  0.00000000000E+00  0.99999998245E-14  0.12500000000E+03  0.12500000000E+03 0.  0.
        -11    1    3    3    0    0 -0.30229733151E+01  0.49888185653E+02  0.21120477906E+02  0.54259045537E+02  0.51100000000E-03 0.  1.
         23    2    1    0    0    0 -0.14122588956E+02  0.24830603108E+01  0.16461915399E+02  0.10316865176E+03  0.10083235066E+03 0.  0.
         11    1    3    3    0    0 -0.11099615641E+02 -0.47405125342E+02 -0.46585625065E+01  0.48909606224E+02  0.51100000000E-03 0. -1.
         22    1    1    0    0    0  0.14122588956E+02 -0.24830603108E+01 -0.16461915399E+02  0.21831348239E+02  0.00000000000E+00 0. -1.
</event>
<event>
 5    1  0.8875601E-005  0.9118800E+02  0.7818608E-02  0.1130116E+00
         25   -1    0    0    0    0  0.00000000000E+00  0.00000000000E+00  0.99999998245E-14  0.12500000000E+03  0.12500000000E+03 0.  0.
        -11    1    3    3    0    0  0.80524478725E+01  0.17957840464E+02 -0.35267930576E+02  0.40387533699E+02  0.51100000000E-03 0.  1.
         23    2    1    0    0    0  0.28223890252E+02 -0.95201831420E+01  0.67150608176E+01  0.94466184160E+02  0.89395447534E+02 0.  0.
         11    1    3    3    0    0  0.20171442379E+02 -0.27478023606E+02  0.41982991394E+02  0.54078650460E+02  0.51100000000E-03 0. -1.
         22    1    1    0    0    0 -0.28223890252E+02  0.95201831420E+01 -0.67150608176E+01  0.30533815840E+02  0.00000000000E+00 0. -1.
</event>
<event>
 5    1  0.8875601E-005  0.9118800E+02  0.7818608E-02  0.1130116E+00
         25   -1    0    0    0    0  0.00000000000E+00  0.00000000000E+00  0.99999998245E-14  0.12500000000E+03  0.12500000000E+03 0.  0.
        -11    1    3    3    0    0  0.88873755277E+01 -0.30424908330E+02  0.47470655839E+02  0.57079975970E+02  0.51100000000E-03 0.  1.
         23    2    1    0    0    0 -0.14105723615E+02 -0.12715456328E+02  0.23934621490E+02  0.94446434346E+02  0.89367827468E+02 0.  0.
         11    1    3    3    0    0 -0.22993099143E+02  0.17709452002E+02 -0.23536034349E+02  0.37366458376E+02  0.51100000000E-03 0. -1.
         22    1    1    0    0    0  0.14105723615E+02  0.12715456328E+02 -0.23934621490E+02  0.30553565654E+02  0.00000000000E+00 0.  1.
</event>
<event>
 5    1  0.8875601E-005  0.9118800E+02  0.7818608E-02  0.1130116E+00
         25   -1    0    0    0    0  0.00000000000E+00  0.00000000000E+00  0.99999998245E-14  0.12500000000E+03  0.12500000000E+03 0.  0.
        -11    1    3    3    0    0 -0.32216271863E+02  0.34553568941E+02  0.36161401939E+02  0.59493565112E+02  0.51100000000E-03 0.  1.
         23    2    1    0    0    0 -0.95462751176E+00  0.18571042020E+02  0.18396415760E+02  0.98842342838E+02  0.95318338789E+02 0.  0.
         11    1    3    3    0    0  0.31261644351E+02 -0.15982526922E+02 -0.17764986179E+02  0.39348777726E+02  0.51100000000E-03 0. -1.
         22    1    1    0    0    0  0.95462751176E+00 -0.18571042020E+02 -0.18396415760E+02  0.26157657162E+02  0.00000000000E+00 0.  1.
</event>
<event>
 5    1  0.8875601E-005  0.9118800E+02  0.7818608E-02  0.1130116E+00
         25   -1    0    0    0    0  0.00000000000E+00  0.00000000000E+00  0.99999998245E-14  0.12500000000E+03  0.12500000000E+03 0.  0.
        -11    1    3    3    0    0  0.24646119231E+02  0.50305669329E+02 -0.57361799350E+01  0.56311591349E+02  0.51100000000E-03 0. -1.
         23    2    1    0    0    0 -0.43329082215E+01  0.24986286779E+02 -0.14512870404E+02  0.95781649122E+02  0.91216293942E+02 0.  0.
         11    1    3    3    0    0 -0.28979027452E+02 -0.25319382550E+02 -0.87766904687E+01  0.39470057773E+02  0.51100000000E-03 0.  1.
         22    1    1    0    0    0  0.43329082215E+01 -0.24986286779E+02  0.14512870404E+02  0.29218350878E+02  0.00000000000E+00 0. -1.
</event>
<event>
 5    1  0.8875601E-005  0.9118800E+02  0.7818608E-02  0.1130116E+00
         25   -1    0    0    0    0  0.00000000000E+00  0.00000000000E+00  0.99999998245E-14  0.12500000000E+03  0.12500000000E+03 0.  0.
        -11    1    3    3    0    0 -0.14742036189E+01 -0.37247115111E+02  0.97669888720E+01  0.38534593968E+02  0.51100000000E-03 0. -1.
         23    2    1    0    0    0 -0.14088187335E+02  0.20216283815E+02  0.12379508556E+02  0.97424152130E+02  0.93440023719E+02 0.  0.
         11    1    3    3    0    0 -0.12613983716E+02  0.57463398925E+02  0.26125196837E+01  0.58889558163E+02  0.51100000000E-03 0.  1.
         22    1    1    0    0    0  0.14088187335E+02 -0.20216283815E+02 -0.12379508556E+02  0.27575847870E+02  0.00000000000E+00 0.  1.
</event>
<event>
 5    1  0.8875601E-005  0.9118800E+02  0.7818608E-02  0.1130116E+00
         25   -1    0    0    0    0  0.00000000000E+00  0.00000000000E+00  0.99999998245E-14  0.12500000000E+03  0.12500000000E+03 0.  0.
        -11    1    3    3    0    0 -0.26034174278E+02  0.12533985464E+02  0.23644171822E+02  0.37335316837E+02  0.51100000000E-03 0.  1.
         23    2    1    0    0    0  0.26676645986E+02  0.10048727169E+02 -0.27934417805E+01  0.96356961129E+02  0.92001305873E+02 0.  0.
         11    1    3    3    0    0  0.52710820264E+02 -0.24852582945E+01 -0.26437613602E+02  0.59021644292E+02  0.51100000000E-03 0. -1.
         22    1    1    0    0    0 -0.26676645986E+02 -0.10048727169E+02  0.27934417805E+01  0.28643038871E+02  0.00000000000E+00 0. -1.
</event>
<event>
 5    1  0.8875601E-005  0.9118800E+02  0.7818608E-02  0.1130116E+00
         25   -1    0    0    0    0  0.00000000000E+00  0.00000000000E+00  0.99999998245E-14  0.12500000000E+03  0.12500000000E+03 0.  0.
        -11    1    3    3    0    0 -0.35192424917E+02 -0.34607867173E+02 -0.69918462019E+00  0.49362942590E+02  0.51100000000E-03 0. -1.
         23    2    1    0    0    0  0.82470384144E+01 -0.25772009201E+02 -0.12436537338E+02  0.95219510383E+02  0.90442675744E+02 0.  0.
         11    1    3    3    0    0  0.43439463331E+02  0.88358579714E+01 -0.11737352718E+02  0.45856567792E+02  0.51100000000E-03 0.  1.
         22    1    1    0    0    0 -0.82470384144E+01  0.25772009201E+02  0.12436537338E+02  0.29780489617E+02  0.00000000000E+00 0. -1.
</event>
<event>
 5    1  0.8875601E-005  0.9118800E+02  0.7818608E-02  0.1130116E+00
         25   -1    0    0    0    0  0.00000000000E+00  0.00000000000E+00  0.99999998245E-14  0.12500000000E+03  0.12500000000E+03 0.  0.
        -11    1    3    3    0    0 -0.21683270953E+02 -0.37501921953E+01  0.36895074357E+02  0.42958988498E+02  0.51100000000E-03 0. -1.
         23    2    1    0    0    0  0.23697102126E+02  0.10191889348E+02  0.13535502604E+02  0.95868623644E+02  0.91335403382E+02 0.  0.
         11    1    3    3    0    0  0.45380373079E+02  0.13942081544E+02 -0.23359571753E+02  0.52909635146E+02  0.51100000000E-03 0.  1.
         22    1    1    0    0    0 -0.23697102126E+02 -0.10191889348E+02 -0.13535502604E+02  0.29131376356E+02  0.00000000000E+00 0.  1.
</event>
<event>
 5    1  0.8875601E-005  0.9118800E+02  0.7818608E-02  0.1130116E+00
         25   -1    0    0    0    0  0.00000000000E+00  0.00000000000E+00  0.99999998245E-14  0.12500000000E+03  0.12500000000E+03 0.  0.
        -11    1    3    3    0    0  0.14019417619E+02  0.36744302185E+00 -0.31877943541E+02  0.34826460765E+02  0.51100000000E-03 0. -1.
         23    2    1    0    0    0  0.26094947448E+02  0.23172880630E+02  0.13946855371E+02  0.87417511342E+02  0.78926407719E+02 0.  0.
         11    1    3    3    0    0  0.12075529829E+02  0.22805437608E+02  0.45824798912E+02  0.52591050577E+02  0.51100000000E-03 0.  1.
         22    1    1    0    0    0 -0.26094947448E+02 -0.23172880630E+02 -0.13946855371E+02  0.37582488658E+02  0.00000000000E+00 0.  1.
</event>
<event>
 5    1  0.8875601E-005  0.9118800E+02  0.7818608E-02  0.1130116E+00
         25   -1    0    0    0    0  0.00000000000E+00  0.00000000000E+00  0.99999998245E-14  0.12500000000E+03  0.12500000000E+03 0.  0.
        -11    1    3    3    0    0  0.44963065402E+02  0.29575721862E+02  0.49850745724E+00  0.53820526604E+02  0.51100000000E-03 0.  1.
         23    2    1    0    0    0  0.25814034190E+02 -0.68178245622E+01  0.10774281285E+02  0.96208816799E+02  0.91799805009E+02 0.  0.
         11    1    3    3    0    0 -0.19149031212E+02 -0.36393546424E+02  0.10275773828E+02  0.42388290195E+02  0.51100000000E-03 0. -1.
         22    1    1    0    0    0 -0.25814034190E+02  0.68178245622E+01 -0.10774281285E+02  0.28791183201E+02  0.00000000000E+00 0.  1.
</event>
<event>
 5    1  0.8875601E-005  0.9118800E+02  0.7818608E-02  0.1130116E+00
         25   -1    0    0    0    0  0.00000000000E+00  0.00000000000E+00  0.99999998245E-14  0.12500000000E+03  0.12500000000E+03 0.  0.
        -11    1    3    3    0    0 -0.31898356763E+02  0.44967286703E+01 -0.44624854015E+02  0.55037290350E+02  0.51100000000E-03 0.  1.
         23    2    1    0    0    0 -0.76830342746E+01 -0.18401222916E+02 -0.21938861709E+02  0.95352948316E+02  0.90626911451E+02 0.  0.
         11    1    3    3    0    0  0.24215322489E+02 -0.22897951586E+02  0.22685992306E+02  0.40315657966E+02  0.51100000000E-03 0. -1.
         22    1    1    0    0    0  0.76830342746E+01  0.18401222916E+02  0.21938861709E+02  0.29647051684E+02  0.00000000000E+00 0.  1.
</event>
<event>
 5    1  0.8875601E-005  0.9118800E+02  0.7818608E-02  0.1130116E+00
         25   -1    0    0    0    0  0.00000000000E+00  0.00000000000E+00  0.99999998245E-14  0.12500000000E+03  0.12500000000E+03 0.  0.
        -11    1    3    3    0    0 -0.38453990670E+02  0.43678428280E+02  0.22261541471E+02  0.62306426028E+02  0.51100000000E-03 0.  1.
         23    2    1    0    0    0 -0.19815265556E+02  0.20878808273E+02  0.74675882692E+01  0.95262241872E+02  0.90501715277E+02 0.  0.
         11    1    3    3    0    0  0.18638725114E+02 -0.22799620007E+02 -0.14793953202E+02  0.32955815844E+02  0.51100000000E-03 0. -1.
         22    1    1    0    0    0  0.19815265556E+02 -0.20878808273E+02 -0.74675882692E+01  0.29737758128E+02  0.00000000000E+00 0.  1.
</event>
<event>
 5    1  0.8875601E-005  0.9118800E+02  0.7818608E-02  0.1130116E+00
         25   -1    0    0    0    0  0.00000000000E+00  0.00000000000E+00  0.99999998245E-14  0.12500000000E+03  0.12500000000E+03 0.  0.
        -11    1    3    3    0    0 -0.30155573214E+02 -0.11912744413E+02  0.95131969070E+01  0.33790131562E+02  0.51100000000E-03 0.  1.
         23    2    1    0    0    0  0.20531992260E+02  0.20651114308E+02 -0.42004154677E+01  0.95577649339E+02  0.90936309221E+02 0.  0.
         11    1    3    3    0    0  0.50687565474E+02  0.32563858721E+02 -0.13713612375E+02  0.61787517777E+02  0.51100000000E-03 0. -1.
         22    1    1    0    0    0 -0.20531992260E+02 -0.20651114308E+02  0.42004154677E+01  0.29422350661E+02  0.00000000000E+00 0. -1.
</event>
<event>
 5    1  0.8875601E-005  0.9118800E+02  0.7818608E-02  0.1130116E+00
         25   -1    0    0    0    0  0.00000000000E+00  0.00000000000E+00  0.99999998245E-14  0.12500000000E+03  0.12500000000E+03 0.  0.
        -11    1    3    3    0    0 -0.89438976399E+01  0.50645997821E+02 -0.10646989062E+02  0.52520174948E+02  0.51100000000E-03 0.  1.
         23    2    1    0    0    0  0.23386566540E+01  0.18437990255E+02  0.19504169221E+02  0.98058555781E+02  0.94284881849E+02 0.  0.
         11    1    3    3    0    0  0.11282554294E+02 -0.32208007566E+02  0.30151158284E+02  0.45538380833E+02  0.51100000000E-03 0. -1.
         22    1    1    0    0    0 -0.23386566540E+01 -0.18437990255E+02 -0.19504169221E+02  0.26941444219E+02  0.00000000000E+00 0. -1.
</event>
<event>
 5    1  0.8875601E-005  0.9118800E+02  0.7818608E-02  0.1130116E+00
         25   -1    0    0    0    0  0.00000000000E+00  0.00000000000E+00  0.99999998245E-14  0.12500000000E+03  0.12500000000E+03 0.  0.
        -11    1    3    3    0    0  0.18064764761E+02 -0.48102439258E+01 -0.18263473184E+02  0.26134816347E+02  0.51100000000E-03 0.  1.
         23    2    1    0    0    0 -0.25194359662E+02  0.42814675651E+01  0.25896056798E+02  0.88617415142E+02  0.80804416868E+02 0.  0.
         11    1    3    3    0    0 -0.43259124423E+02  0.90917114909E+01  0.44159529982E+02  0.62482598795E+02  0.51100000000E-03 0. -1.
         22    1    1    0    0    0  0.25194359662E+02 -0.42814675651E+01 -0.25896056798E+02  0.36382584858E+02  0.00000000000E+00 0. -1.
</event>
<event>
 5    1  0.8875601E-005  0.9118800E+02  0.7818608E-02  0.1130116E+00
         25   -1    0    0    0    0  0.00000000000E+00  0.00000000000E+00  0.99999998245E-14  0.12500000000E+03  0.12500000000E+03 0.  0.
        -11    1    3    3    0    0  0.42494457188E+01 -0.25278850718E+01  0.38209079620E+02  0.38527675216E+02  0.51100000000E-03 0. -1.
         23    2    1    0    0    0  0.23943589506E+02  0.86007088346E+01 -0.14380217373E+02  0.95775723745E+02  0.91208173627E+02 0.  0.
         11    1    3    3    0    0  0.19694143787E+02  0.11128593906E+02 -0.52589296994E+02  0.57248048529E+02  0.51100000000E-03 0.  1.
         22    1    1    0    0    0 -0.23943589506E+02 -0.86007088346E+01  0.14380217373E+02  0.29224276255E+02  0.00000000000E+00 0.  1.
</event>
<event>
 5    1  0.8875601E-005  0.9118800E+02  0.7818608E-02  0.1130116E+00
         25   -1    0    0    0    0  0.00000000000E+00  0.00000000000E+00  0.99999998245E-14  0.12500000000E+03  0.12500000000E+03 0.  0.
        -11    1    3    3    0    0 -0.16779251961E+01 -0.15498644480E+02  0.31098200651E+02  0.34786800624E+02  0.51100000000E-03 0.  1.
         23    2    1    0    0    0  0.13727858910E+02  0.10089885389E+02 -0.22877615457E+02  0.96475533547E+02  0.92162266610E+02 0.  0.
         11    1    3    3    0    0  0.15405784106E+02  0.25588529870E+02 -0.53975816108E+02  0.61688732923E+02  0.51100000000E-03 0. -1.
         22    1    1    0    0    0 -0.13727858910E+02 -0.10089885389E+02  0.22877615457E+02  0.28524466453E+02  0.00000000000E+00 0. -1.
</event>
<event>
 5    1  0.8875601E-005  0.9118800E+02  0.7818608E-02  0.1130116E+00
         25   -1    0    0    0    0  0.00000000000E+00  0.00000000000E+00  0.99999998245E-14  0.12500000000E+03  0.12500000000E+03 0.  0.
        -11    1    3    3    0    0 -0.50040683264E+01  0.76752990159E+01  0.52000246814E+02  0.52801293391E+02  0.51100000000E-03 0.  1.
         23    2    1    0    0    0  0.40719146377E+01 -0.20163652088E+02  0.18064092183E+02  0.97623645591E+02  0.93706517371E+02 0.  0.
         11    1    3    3    0    0  0.90759829641E+01 -0.27838951104E+02 -0.33936154631E+02  0.44822352200E+02  0.51100000000E-03 0. -1.
         22    1    1    0    0    0 -0.40719146377E+01  0.20163652088E+02 -0.18064092183E+02  0.27376354409E+02  0.00000000000E+00 0.  1.
</event>
<event>
 5    1  0.8875601E-005  0.9118800E+02  0.7818608E-02  0.1130116E+00
         25   -1    0    0    0    0  0.00000000000E+00  0.00000000000E+00  0.99999998245E-14  0.12500000000E+03  0.12500000000E+03 0.  0.
        -11    1    3    3    0    0 -0.84217207908E+01  0.25496855302E+02  0.22551427182E+02  0.35065394331E+02  0.51100000000E-03 0. -1.
         23    2    1    0    0    0  0.20563631368E+02 -0.19398565032E+02 -0.66446371236E+01  0.95960054014E+02  0.91460447755E+02 0.  0.
         11    1    3    3    0    0  0.28985352159E+02 -0.44895420334E+02 -0.29196064306E+02  0.60894659683E+02  0.51100000000E-03 0.  1.
         22    1    1    0    0    0 -0.20563631368E+02  0.19398565032E+02  0.66446371236E+01  0.29039945986E+02  0.00000000000E+00 0.  1.
</event>
<event>
 5    1  0.8875601E-005  0.9118800E+02  0.7818608E-02  0.1130116E+00
         25   -1    0    0    0    0  0.00000000000E+00  0.00000000000E+00  0.99999998245E-14  0.12500000000E+03  0.12500000000E+03 0.  0.
        -11    1    3    3    0    0 -0.13456155712E+02  0.39724420215E+02  0.20062975689E+02  0.46493232644E+02  0.51100000000E-03 0. -1.
         23    2    1    0    0    0  0.77523143164E+01  0.16891907644E+02 -0.20293807901E+02  0.97481396106E+02  0.93516570866E+02 0.  0.
         11    1    3    3    0    0  0.21208470028E+02 -0.22832512571E+02 -0.40356783590E+02  0.50988163462E+02  0.51100000000E-03 0.  1.
         22    1    1    0    0    0 -0.77523143164E+01 -0.16891907644E+02  0.20293807901E+02  0.27518603894E+02  0.00000000000E+00 0.  1.
</event>
<event>
 5    1  0.8875601E-005  0.9118800E+02  0.7818608E-02  0.1130116E+00
         25   -1    0    0    0    0  0.00000000000E+00  0.00000000000E+00  0.99999998245E-14  0.12500000000E+03  0.12500000000E+03 0.  0.
        -11    1    3    3    0    0 -0.22752837920E+02  0.65645740257E+01 -0.27609828041E+02  0.36374274842E+02  0.51100000000E-03 0. -1.
         23    2    1    0    0    0  0.15627263494E+02 -0.28238216507E+02 -0.82002233577E+01  0.91700572093E+02  0.85440874430E+02 0.  0.
         11    1    3    3    0    0  0.38380101414E+02 -0.34802790532E+02  0.19409604683E+02  0.55326297252E+02  0.51100000000E-03 0.  1.
         22    1    1    0    0    0 -0.15627263494E+02  0.28238216507E+02  0.82002233577E+01  0.33299427907E+02  0.00000000000E+00 0.  1.
</event>
<event>
 5    1  0.8875601E-005  0.9118800E+02  0.7818608E-02  0.1130116E+00
         25   -1    0    0    0    0  0.00000000000E+00  0.00000000000E+00  0.99999998245E-14  0.12500000000E+03  0.12500000000E+03 0.  0.
        -11    1    3    3    0    0  0.17512291661E+02  0.42510805233E+02  0.63952809335E+01  0.46419269051E+02  0.51100000000E-03 0.  1.
         23    2    1    0    0    0 -0.20987587010E+02  0.15034202809E+02  0.15921995929E+02  0.94668234193E+02  0.89677525324E+02 0.  0.
         11    1    3    3    0    0 -0.38499878671E+02 -0.27476602423E+02  0.95267149950E+01  0.48248965142E+02  0.51100000000E-03 0. -1.
         22    1    1    0    0    0  0.20987587010E+02 -0.15034202809E+02 -0.15921995929E+02  0.30331765807E+02  0.00000000000E+00 0. -1.
</event>
<event>
 5    1  0.8875601E-005  0.9118800E+02  0.7818608E-02  0.1130116E+00
         25   -1    0    0    0    0  0.00000000000E+00  0.00000000000E+00  0.99999998245E-14  0.12500000000E+03  0.12500000000E+03 0.  0.
        -11    1    3    3    0    0  0.19099090674E+02 -0.99430038459E+01  0.34019730748E+02  0.40261404229E+02  0.51100000000E-03 0. -1.
         23    2    1    0    0    0  0.23236862740E+02  0.10100309292E+02 -0.16496448794E+02  0.94765899044E+02  0.89813555553E+02 0.  0.
         11    1    3    3    0    0  0.41377720657E+01  0.20043313138E+02 -0.50516179542E+02  0.54504494815E+02  0.51100000000E-03 0.  1.
         22    1    1    0    0    0 -0.23236862740E+02 -0.10100309292E+02  0.16496448794E+02  0.30234100956E+02  0.00000000000E+00 0.  1.
</event>
<event>
 5    1  0.8875601E-005  0.9118800E+02  0.7818608E-02  0.1130116E+00
         25   -1    0    0    0    0  0.00000000000E+00  0.00000000000E+00  0.99999998245E-14  0.12500000000E+03  0.12500000000E+03 0.  0.
        -11    1    3    3    0    0 -0.32422674991E+02  0.51392821242E+02  0.34607753044E+01  0.60864019706E+02  0.51100000000E-03 0. -1.
         23    2    1    0    0    0 -0.48806434070E+01  0.26281378937E+02  0.32046938630E+00  0.98267355920E+02  0.94561297474E+02 0.  0.
         11    1    3    3    0    0  0.27542031584E+02 -0.25111442305E+02 -0.31403059181E+01  0.37403336214E+02  0.51100000000E-03 0.  1.
         22    1    1    0    0    0  0.48806434070E+01 -0.26281378937E+02 -0.32046938630E+00  0.26732644080E+02  0.00000000000E+00 0. -1.
</event>
<event>
 5    1  0.8875601E-005  0.9118800E+02  0.7818608E-02  0.1130116E+00
         25   -1    0    0    0    0  0.00000000000E+00  0.00000000000E+00  0.99999998245E-14  0.12500000000E+03  0.12500000000E+03 0.  0.
        -11    1    3    3    0    0 -0.47647439665E+02  0.19360112464E+02  0.11231924254E+02  0.52642649857E+02  0.51100000000E-03 0.  1.
         23    2    1    0    0    0 -0.54923637064E+01  0.27684529651E+02  0.76315537097E+01  0.95762355548E+02  0.91189850789E+02 0.  0.
         11    1    3    3    0    0  0.42155075958E+02  0.83244171871E+01 -0.36003705448E+01  0.43119705691E+02  0.51100000000E-03 0. -1.
         22    1    1    0    0    0  0.54923637064E+01 -0.27684529651E+02 -0.76315537097E+01  0.29237644452E+02  0.00000000000E+00 0.  1.
</event>
<event>
 5    1  0.8875601E-005  0.9118800E+02  0.7818608E-02  0.1130116E+00
         25   -1    0    0    0    0  0.00000000000E+00  0.00000000000E+00  0.99999998245E-14  0.12500000000E+03  0.12500000000E+03 0.  0.
        -11    1    3    3    0    0 -0.31007376961E+02  0.37092878145E+02  0.16664510475E+02  0.51137510154E+02  0.51100000000E-03 0. -1.
         23    2    1    0    0    0 -0.23296074038E+02 -0.75924939241E+01  0.14486802916E+02  0.96535627738E+02  0.92243736559E+02 0.  0.
         11    1    3    3    0    0  0.77113029234E+01 -0.44685372069E+02 -0.21777075589E+01  0.45398117584E+02  0.51100000000E-03 0.  1.
         22    1    1    0    0    0  0.23296074038E+02  0.75924939241E+01 -0.14486802916E+02  0.28464372262E+02  0.00000000000E+00 0.  1.
</event>
<event>
 5    1  0.8875601E-005  0.9118800E+02  0.7818608E-02  0.1130116E+00
         25   -1    0    0    0    0  0.00000000000E+00  0.00000000000E+00  0.99999998245E-14  0.12500000000E+03  0.12500000000E+03 0.  0.
        -11    1    3    3    0    0 -0.38885216177E+01 -0.10133438552E+02  0.38255459074E+02  0.39765403637E+02  0.51100000000E-03 0. -1.
         23    2    1    0    0    0  0.31320454600E+02 -0.32239027357E+01 -0.17016091298E+01  0.93468112984E+02  0.87988796139E+02 0.  0.
         11    1    3    3    0    0  0.35208976217E+02  0.69095358161E+01 -0.39957068203E+02  0.53702709346E+02  0.51100000000E-03 0.  1.
         22    1    1    0    0    0 -0.31320454600E+02  0.32239027357E+01  0.17016091298E+01  0.31531887016E+02  0.00000000000E+00 0.  1.
</event>
<event>
 5    1  0.8875601E-005  0.9118800E+02  0.7818608E-02  0.1130116E+00
         25   -1    0    0    0    0  0.00000000000E+00  0.00000000000E+00  0.99999998245E-14  0.12500000000E+03  0.12500000000E+03 0.  0.
        -11    1    3    3    0    0 -0.37471353091E+02  0.41360144542E+02 -0.10667650427E+02  0.56820441963E+02  0.51100000000E-03 0.  1.
         23    2    1    0    0    0 -0.46874168063E+01  0.31262870513E+02  0.18423876566E+01  0.93334034969E+02  0.87798113547E+02 0.  0.
         11    1    3    3    0    0  0.32783936285E+02 -0.10097274028E+02  0.12510038084E+02  0.36513593006E+02  0.51100000000E-03 0. -1.
         22    1    1    0    0    0  0.46874168063E+01 -0.31262870513E+02 -0.18423876566E+01  0.31665965031E+02  0.00000000000E+00 0.  1.
</event>
<event>
 5    1  0.8875601E-005  0.9118800E+02  0.7818608E-02  0.1130116E+00
         25   -1    0    0    0    0  0.00000000000E+00  0.00000000000E+00  0.99999998245E-14  0.12500000000E+03  0.12500000000E+03 0.  0.
        -11    1    3    3    0    0 -0.22520877995E+02  0.55146719955E+02 -0.95158119442E+01  0.60323306812E+02  0.51100000000E-03 0. -1.
         23    2    1    0    0    0 -0.55150231433E+01  0.42161548548E+02 -0.50560242287E+01  0.82179735670E+02  0.70142240609E+02 0.  0.
         11    1    3    3    0    0  0.17005854852E+02 -0.12985171407E+02  0.44597877155E+01  0.21856428858E+02  0.51100000000E-03 0.  1.
         22    1    1    0    0    0  0.55150231433E+01 -0.42161548548E+02  0.50560242287E+01  0.42820264330E+02  0.00000000000E+00 0. -1.
</event>
<event>
 5    1  0.8875601E-005  0.9118800E+02  0.7818608E-02  0.1130116E+00
         25   -1    0    0    0    0  0.00000000000E+00  0.00000000000E+00  0.99999998245E-14  0.12500000000E+03  0.12500000000E+03 0.  0.
        -11    1    3    3    0    0 -0.47327798257E+02  0.36973842234E+02  0.11148235400E+02  0.61084111274E+02  0.51100000000E-03 0. -1.
         23    2    1    0    0    0 -0.22915419769E+02  0.10688648346E+02  0.12096859576E+02  0.96969700711E+02  0.92830087675E+02 0.  0.
         11    1    3    3    0    0  0.24412378488E+02 -0.26285193888E+02  0.94862417656E+00  0.35885589437E+02  0.51100000000E-03 0.  1.
         22    1    1    0    0    0  0.22915419769E+02 -0.10688648346E+02 -0.12096859576E+02  0.28030299289E+02  0.00000000000E+00 0. -1.
</event>
<event>
 5    1  0.8875601E-005  0.9118800E+02  0.7818608E-02  0.1130116E+00
         25   -1    0    0    0    0  0.00000000000E+00  0.00000000000E+00  0.99999998245E-14  0.12500000000E+03  0.12500000000E+03 0.  0.
        -11    1    3    3    0    0 -0.54785163542E+01 -0.14029636374E+02  0.24874614548E+02  0.29079052381E+02  0.51100000000E-03 0. -1.
         23    2    1    0    0    0  0.34417505285E+02  0.20168997436E+02  0.76195744128E+01  0.84387058198E+02  0.73971376555E+02 0.  0.
         11    1    3    3    0    0  0.39896021639E+02  0.34198633810E+02 -0.17255040135E+02  0.55308005817E+02  0.51100000000E-03 0.  1.
         22    1    1    0    0    0 -0.34417505285E+02 -0.20168997436E+02 -0.76195744128E+01  0.40612941802E+02  0.00000000000E+00 0.  1.
</event>
<event>
 5    1  0.8875601E-005  0.9118800E+02  0.7818608E-02  0.1130116E+00
         25   -1    0    0    0    0  0.00000000000E+00  0.00000000000E+00  0.99999998245E-14  0.12500000000E+03  0.12500000000E+03 0.  0.
        -11    1    3    3    0    0 -0.19205695379E+02  0.27756048811E+02  0.20365501965E+02  0.39420941784E+02  0.51100000000E-03 0. -1.
         23    2    1    0    0    0  0.20668350101E+02 -0.54719474989E+01  0.25666450341E+02  0.91595066555E+02  0.85286380149E+02 0.  0.
         11    1    3    3    0    0  0.39874045481E+02 -0.33227996310E+02  0.53009483763E+01  0.52174124772E+02  0.51100000000E-03 0.  1.
         22    1    1    0    0    0 -0.20668350101E+02  0.54719474989E+01 -0.25666450341E+02  0.33404933445E+02  0.00000000000E+00 0.  1.
</event>
<event>
 5    1  0.8875601E-005  0.9118800E+02  0.7818608E-02  0.1130116E+00
         25   -1    0    0    0    0  0.00000000000E+00  0.00000000000E+00  0.99999998245E-14  0.12500000000E+03  0.12500000000E+03 0.  0.
        -11    1    3    3    0    0  0.43282325693E+02  0.26840289896E+02 -0.33042153177E+02  0.60708687730E+02  0.51100000000E-03 0.  1.
         23    2    1    0    0    0  0.20433665371E+02  0.19176820361E+02 -0.71533341570E+01  0.96078462883E+02  0.91622135539E+02 0.  0.
         11    1    3    3    0    0 -0.22848660322E+02 -0.76634695356E+01  0.25888819020E+02  0.35369775152E+02  0.51100000000E-03 0. -1.
         22    1    1    0    0    0 -0.20433665371E+02 -0.19176820361E+02  0.71533341570E+01  0.28921537117E+02  0.00000000000E+00 0.  1.
</event>
<event>
 5    1  0.8875601E-005  0.9118800E+02  0.7818608E-02  0.1130116E+00
         25   -1    0    0    0    0  0.00000000000E+00  0.00000000000E+00  0.99999998245E-14  0.12500000000E+03  0.12500000000E+03 0.  0.
        -11    1    3    3    0    0  0.15737250365E+02  0.38318093733E+02 -0.71142600569E+01  0.42030346808E+02  0.51100000000E-03 0.  1.
         23    2    1    0    0    0 -0.27162436805E+02  0.90225945431E+01 -0.11480370031E+02  0.94161645934E+02  0.88968598300E+02 0.  0.
         11    1    3    3    0    0 -0.42899687170E+02 -0.29295499190E+02 -0.43661099742E+01  0.52131299126E+02  0.51100000000E-03 0. -1.
         22    1    1    0    0    0  0.27162436805E+02 -0.90225945431E+01  0.11480370031E+02  0.30838354066E+02  0.00000000000E+00 0. -1.
</event>
<event>
 5    1  0.8875601E-005  0.9118800E+02  0.7818608E-02  0.1130116E+00
         25   -1    0    0    0    0  0.00000000000E+00  0.00000000000E+00  0.99999998245E-14  0.12500000000E+03  0.12500000000E+03 0.  0.
        -11    1    3    3    0    0  0.88382449608E+01  0.38957412660E+02  0.69938403970E+01  0.40555004363E+02  0.51100000000E-03 0. -1.
         23    2    1    0    0    0 -0.17753732011E+01  0.22701626612E+02  0.40072357528E+02  0.78909766341E+02  0.64050305115E+02 0.  0.
         11    1    3    3    0    0 -0.10613618162E+02 -0.16255786048E+02  0.33078517131E+02  0.38354761978E+02  0.51100000000E-03 0.  1.
         22    1    1    0    0    0  0.17753732011E+01 -0.22701626612E+02 -0.40072357528E+02  0.46090233659E+02  0.00000000000E+00 0.  1.
</event>
<event>
 5    1  0.8875601E-005  0.9118800E+02  0.7818608E-02  0.1130116E+00
         25   -1    0    0    0    0  0.00000000000E+00  0.00000000000E+00  0.99999998245E-14  0.12500000000E+03  0.12500000000E+03 0.  0.
        -11    1    3    3    0    0 -0.18727794298E+02 -0.81094622262E+01  0.26742100145E+02  0.33639761849E+02  0.51100000000E-03 0. -1.
         23    2    1    0    0    0  0.26301377962E+02 -0.30279305450E+01 -0.14414616746E+02  0.94855149328E+02  0.89937685827E+02 0.  0.
         11    1    3    3    0    0  0.45029172260E+02  0.50815316812E+01 -0.41156716891E+02  0.61215387479E+02  0.51100000000E-03 0.  1.
         22    1    1    0    0    0 -0.26301377962E+02  0.30279305450E+01  0.14414616746E+02  0.30144850672E+02  0.00000000000E+00 0. -1.
</event>
<event>
 5    1  0.8875601E-005  0.9118800E+02  0.7818608E-02  0.1130116E+00
         25   -1    0    0    0    0  0.00000000000E+00  0.00000000000E+00  0.99999998245E-14  0.12500000000E+03  0.12500000000E+03 0.  0.
        -11    1    3    3    0    0  0.14548712062E+01 -0.60336811801E+02 -0.97075836141E+01  0.61130063704E+02  0.51100000000E-03 0. -1.
         23    2    1    0    0    0 -0.51296582605E+00 -0.26840542468E+02 -0.13594853093E+02  0.94908508104E+02  0.90011816036E+02 0.  0.
         11    1    3    3    0    0 -0.19678370323E+01  0.33496269333E+02 -0.38872694789E+01  0.33778444400E+02  0.51100000000E-03 0.  1.
         22    1    1    0    0    0  0.51296582605E+00  0.26840542468E+02  0.13594853093E+02  0.30091491896E+02  0.00000000000E+00 0. -1.
</event>
<event>
 5    1  0.8875601E-005  0.9118800E+02  0.7818608E-02  0.1130116E+00
         25   -1    0    0    0    0  0.00000000000E+00  0.00000000000E+00  0.99999998245E-14  0.12500000000E+03  0.12500000000E+03 0.  0.
        -11    1    3    3    0    0  0.87318970995E+00  0.38712583880E+02 -0.58410161897E+01  0.39160491332E+02  0.51100000000E-03 0.  1.
         23    2    1    0    0    0  0.42113323335E+01 -0.80860992611E+01  0.27047535121E+02  0.96457234237E+02  0.92137443850E+02 0.  0.
         11    1    3    3    0    0  0.33381426235E+01 -0.46798683141E+02  0.32888551311E+02  0.57296742905E+02  0.51100000000E-03 0. -1.
         22    1    1    0    0    0 -0.42113323335E+01  0.80860992611E+01 -0.27047535121E+02  0.28542765763E+02  0.00000000000E+00 0. -1.
</event>
<event>
 5    1  0.8875601E-005  0.9118800E+02  0.7818608E-02  0.1130116E+00
         25   -1    0    0    0    0  0.00000000000E+00  0.00000000000E+00  0.99999998245E-14  0.12500000000E+03  0.12500000000E+03 0.  0.
        -11    1    3    3    0    0  0.20931705624E+02 -0.30746470646E+02  0.82358364962E+01  0.38096072771E+02  0.51100000000E-03 0. -1.
         23    2    1    0    0    0 -0.44306645802E+01 -0.17317450712E+02  0.40171019874E+02  0.81031423431E+02  0.68065085454E+02 0.  0.
         11    1    3    3    0    0 -0.25362370204E+02  0.13429019934E+02  0.31935183377E+02  0.42935350661E+02  0.51100000000E-03 0.  1.
         22    1    1    0    0    0  0.44306645802E+01  0.17317450712E+02 -0.40171019874E+02  0.43968576569E+02  0.00000000000E+00 0.  1.
</event>
<event>
 5    1  0.8875601E-005  0.9118800E+02  0.7818608E-02  0.1130116E+00
         25   -1    0    0    0    0  0.00000000000E+00  0.00000000000E+00  0.99999998245E-14  0.12500000000E+03  0.12500000000E+03 0.  0.
        -11    1    3    3    0    0 -0.26888117905E+02 -0.43801094113E+02  0.11418211127E+02  0.52648668317E+02  0.51100000000E-03 0. -1.
         23    2    1    0    0    0  0.11288980299E+02 -0.25131768976E+02  0.11497913175E+02  0.95146208022E+02  0.90341308412E+02 0.  0.
         11    1    3    3    0    0  0.38177098204E+02  0.18669325137E+02  0.79702048112E-01  0.42497539706E+02  0.51100000000E-03 0.  1.
         22    1    1    0    0    0 -0.11288980299E+02  0.25131768976E+02 -0.11497913175E+02  0.29853791978E+02  0.00000000000E+00 0. -1.
</event>
<event>
 5    1  0.8875601E-005  0.9118800E+02  0.7818608E-02  0.1130116E+00
         25   -1    0    0    0    0  0.00000000000E+00  0.00000000000E+00  0.99999998245E-14  0.12500000000E+03  0.12500000000E+03 0.  0.
        -11    1    3    3    0    0 -0.16249002268E+02  0.74966708362E+01  0.30733749977E+02  0.35563935894E+02  0.51100000000E-03 0.  1.
         23    2    1    0    0    0 -0.80853840592E+01 -0.15013668761E+02 -0.24145791624E+02  0.95439842047E+02  0.90746683200E+02 0.  0.
         11    1    3    3    0    0  0.81636182086E+01 -0.22510339597E+02 -0.54879541602E+02  0.59875906153E+02  0.51100000000E-03 0. -1.
         22    1    1    0    0    0  0.80853840592E+01  0.15013668761E+02  0.24145791624E+02  0.29560157953E+02  0.00000000000E+00 0. -1.
</event>
<event>
 5    1  0.8875601E-005  0.9118800E+02  0.7818608E-02  0.1130116E+00
         25   -1    0    0    0    0  0.00000000000E+00  0.00000000000E+00  0.99999998245E-14  0.12500000000E+03  0.12500000000E+03 0.  0.
        -11    1    3    3    0    0  0.55658399888E+02  0.14528223866E+02 -0.14376943809E+02  0.59292691627E+02  0.51100000000E-03 0.  1.
         23    2    1    0    0    0  0.29496296034E+02 -0.53065466257E+01 -0.26273088428E+00  0.95029014959E+02  0.90179009419E+02 0.  0.
         11    1    3    3    0    0 -0.26162103855E+02 -0.19834770492E+02  0.14114212925E+02  0.35736323332E+02  0.51100000000E-03 0. -1.
         22    1    1    0    0    0 -0.29496296034E+02  0.53065466257E+01  0.26273088428E+00  0.29970985041E+02  0.00000000000E+00 0.  1.
</event>
<event>
 5    1  0.8875601E-005  0.9118800E+02  0.7818608E-02  0.1130116E+00
         25   -1    0    0    0    0  0.00000000000E+00  0.00000000000E+00  0.99999998245E-14  0.12500000000E+03  0.12500000000E+03 0.  0.
        -11    1    3    3    0    0  0.32472186513E+02 -0.24723989234E+02  0.72863870154E+01  0.41458533218E+02  0.51100000000E-03 0. -1.
         23    2    1    0    0    0 -0.23388747679E+01  0.13400332448E+02  0.25413627205E+02  0.96174808022E+02  0.91753484977E+02 0.  0.
         11    1    3    3    0    0 -0.34811061281E+02  0.38124321683E+02  0.18127240189E+02  0.54716274804E+02  0.51100000000E-03 0.  1.
         22    1    1    0    0    0  0.23388747679E+01 -0.13400332448E+02 -0.25413627205E+02  0.28825191978E+02  0.00000000000E+00 0.  1.
</event>
<event>
 5    1  0.8875601E-005  0.9118800E+02  0.7818608E-02  0.1130116E+00
         25   -1    0    0    0    0  0.00000000000E+00  0.00000000000E+00  0.99999998245E-14  0.12500000000E+03  0.12500000000E+03 0.  0.
        -11    1    3    3    0    0  0.34523359482E+02  0.30820306508E+02  0.93789357934E+01  0.47219890724E+02  0.51100000000E-03 0. -1.
         23    2    1    0    0    0 -0.74295140881E+01  0.25218432949E+02 -0.13621273449E+02  0.95390776262E+02  0.90679071817E+02 0.  0.
         11    1    3    3    0    0 -0.41952873570E+02 -0.56018735586E+01 -0.23000209242E+02  0.48170885538E+02  0.51100000000E-03 0.  1.
         22    1    1    0    0    0  0.74295140881E+01 -0.25218432949E+02  0.13621273449E+02  0.29609223738E+02  0.00000000000E+00 0.  1.
</event>
<event>
 5    1  0.8875601E-005  0.9118800E+02  0.7818608E-02  0.1130116E+00
         25   -1    0    0    0    0  0.00000000000E+00  0.00000000000E+00  0.99999998245E-14  0.12500000000E+03  0.12500000000E+03 0.  0.
        -11    1    3    3    0    0  0.16574598277E+02 -0.61383866428E+01 -0.41518060521E+02  0.45123679463E+02  0.51100000000E-03 0.  1.
         23    2    1    0    0    0  0.20530251501E+02 -0.18577667066E+02  0.78762515084E+01  0.96213609498E+02  0.91806330798E+02 0.  0.
         11    1    3    3    0    0  0.39556532240E+01 -0.12439280423E+02  0.49394312029E+02  0.51089930035E+02  0.51100000000E-03 0. -1.
         22    1    1    0    0    0 -0.20530251501E+02  0.18577667066E+02 -0.78762515084E+01  0.28786390502E+02  0.00000000000E+00 0.  1.
</event>
<event>
 5    1  0.8875601E-005  0.9118800E+02  0.7818608E-02  0.1130116E+00
         25   -1    0    0    0    0  0.00000000000E+00  0.00000000000E+00  0.99999998245E-14  0.12500000000E+03  0.12500000000E+03 0.  0.
        -11    1    3    3    0    0  0.39895643238E+01 -0.37084618169E+02 -0.34632622073E+02  0.50897976779E+02  0.51100000000E-03 0. -1.
         23    2    1    0    0    0 -0.23659315851E+02 -0.77801201140E+01 -0.97355550923E+01  0.98259122518E+02  0.94550413164E+02 0.  0.
         11    1    3    3    0    0 -0.27648880175E+02  0.29304498055E+02  0.24897066981E+02  0.47361145739E+02  0.51100000000E-03 0.  1.
         22    1    1    0    0    0  0.23659315851E+02  0.77801201140E+01  0.97355550923E+01  0.26740877482E+02  0.00000000000E+00 0. -1.
</event>
<event>
 5    1  0.8875601E-005  0.9118800E+02  0.7818608E-02  0.1130116E+00
         25   -1    0    0    0    0  0.00000000000E+00  0.00000000000E+00  0.99999998245E-14  0.12500000000E+03  0.12500000000E+03 0.  0.
        -11    1    3    3    0    0 -0.63945074135E+01  0.48210184133E+02 -0.11148682774E+02  0.49893934572E+02  0.51100000000E-03 0.  1.
         23    2    1    0    0    0 -0.21859356006E+02  0.85302033795E+01 -0.20893020436E+02  0.93581627705E+02  0.88149911664E+02 0.  0.
         11    1    3    3    0    0 -0.15464848593E+02 -0.39679980753E+02 -0.97443376620E+01  0.43687693133E+02  0.51100000000E-03 0. -1.
         22    1    1    0    0    0  0.21859356006E+02 -0.85302033795E+01  0.20893020436E+02  0.31418372295E+02  0.00000000000E+00 0.  1.
</event>
<event>
 5    1  0.8875601E-005  0.9118800E+02  0.7818608E-02  0.1130116E+00
         25   -1    0    0    0    0  0.00000000000E+00  0.00000000000E+00  0.99999998245E-14  0.12500000000E+03  0.12500000000E+03 0.  0.
        -11    1    3    3    0    0  0.35652114585E+02  0.75741207002E+01 -0.48562547380E+02  0.60718708707E+02  0.51100000000E-03 0. -1.
         23    2    1    0    0    0  0.24290479640E+02  0.44009090765E+01 -0.15430294926E+02  0.95888328744E+02  0.91362367449E+02 0.  0.
         11    1    3    3    0    0 -0.11361634946E+02 -0.31732116236E+01  0.33132252453E+02  0.35169620037E+02  0.51100000000E-03 0.  1.
         22    1    1    0    0    0 -0.24290479640E+02 -0.44009090765E+01  0.15430294926E+02  0.29111671256E+02  0.00000000000E+00 0. -1.
</event>
<event>
 5    1  0.8875601E-005  0.9118800E+02  0.7818608E-02  0.1130116E+00
         25   -1    0    0    0    0  0.00000000000E+00  0.00000000000E+00  0.99999998245E-14  0.12500000000E+03  0.12500000000E+03 0.  0.
        -11    1    3    3    0    0 -0.50129019674E+02  0.18237749976E+01  0.16553498030E+01  0.50189490453E+02  0.51100000000E-03 0. -1.
         23    2    1    0    0    0 -0.22109906233E+02  0.11227092522E+02 -0.24853994604E+02  0.89891359925E+02  0.82751676607E+02 0.  0.
         11    1    3    3    0    0  0.28019113440E+02  0.94033175247E+01 -0.26509344407E+02  0.39701869472E+02  0.51100000000E-03 0.  1.
         22    1    1    0    0    0  0.22109906233E+02 -0.11227092522E+02  0.24853994604E+02  0.35108640075E+02  0.00000000000E+00 0. -1.
</event>
<event>
 5    1  0.8875601E-005  0.9118800E+02  0.7818608E-02  0.1130116E+00
         25   -1    0    0    0    0  0.00000000000E+00  0.00000000000E+00  0.99999998245E-14  0.12500000000E+03  0.12500000000E+03 0.  0.
        -11    1    3    3    0    0 -0.56315345679E+01 -0.10843706758E+02 -0.48928792125E+02  0.50431407445E+02  0.51100000000E-03 0.  1.
         23    2    1    0    0    0 -0.95857124585E+01  0.21504847639E+02 -0.17972065493E+02  0.95380082826E+02  0.90664329846E+02 0.  0.
         11    1    3    3    0    0 -0.39541778906E+01  0.32348554398E+02  0.30956726632E+02  0.44948675380E+02  0.51100000000E-03 0. -1.
         22    1    1    0    0    0  0.95857124585E+01 -0.21504847639E+02  0.17972065493E+02  0.29619917174E+02  0.00000000000E+00 0. -1.
</event>
<event>
 5    1  0.8875601E-005  0.9118800E+02  0.7818608E-02  0.1130116E+00
         25   -1    0    0    0    0  0.00000000000E+00  0.00000000000E+00  0.99999998245E-14  0.12500000000E+03  0.12500000000E+03 0.  0.
        -11    1    3    3    0    0  0.21062311074E+02  0.53463544228E+01 -0.33577731541E+02  0.39995856149E+02  0.51100000000E-03 0.  1.
         23    2    1    0    0    0 -0.12247497568E+02  0.23424515168E+02  0.90736745008E+01  0.97052895025E+02  0.92942045148E+02 0.  0.
         11    1    3    3    0    0 -0.33309808642E+02  0.18078160745E+02  0.42651406042E+02  0.57057038876E+02  0.51100000000E-03 0. -1.
         22    1    1    0    0    0  0.12247497568E+02 -0.23424515168E+02 -0.90736745008E+01  0.27947104975E+02  0.00000000000E+00 0. -1.
</event>
<event>
 5    1  0.8875601E-005  0.9118800E+02  0.7818608E-02  0.1130116E+00
         25   -1    0    0    0    0  0.00000000000E+00  0.00000000000E+00  0.99999998245E-14  0.12500000000E+03  0.12500000000E+03 0.  0.
        -11    1    3    3    0    0  0.33899736481E+02  0.35213504847E+02  0.35906368321E+02  0.60650229541E+02  0.51100000000E-03 0. -1.
         23    2    1    0    0    0  0.64407761901E+01  0.17898269342E+02  0.21863575168E+02  0.96019876424E+02  0.91542171189E+02 0.  0.
         11    1    3    3    0    0 -0.27458960291E+02 -0.17315235505E+02 -0.14042793152E+02  0.35369646883E+02  0.51100000000E-03 0.  1.
         22    1    1    0    0    0 -0.64407761901E+01 -0.17898269342E+02 -0.21863575168E+02  0.28980123576E+02  0.00000000000E+00 0. -1.
</event>
<event>
 5    1  0.8875601E-005  0.9118800E+02  0.7818608E-02  0.1130116E+00
         25   -1    0    0    0    0  0.00000000000E+00  0.00000000000E+00  0.99999998245E-14  0.12500000000E+03  0.12500000000E+03 0.  0.
        -11    1    3    3    0    0 -0.33413177368E+02  0.44277836537E+02  0.25406442833E+02  0.61011921522E+02  0.51100000000E-03 0. -1.
         23    2    1    0    0    0 -0.82522511182E+01  0.21157871364E+02  0.18111277435E+02  0.95952219714E+02  0.91449739905E+02 0.  0.
         11    1    3    3    0    0  0.25160926249E+02 -0.23119965173E+02 -0.72951653977E+01  0.34940298192E+02  0.51100000000E-03 0.  1.
         22    1    1    0    0    0  0.82522511182E+01 -0.21157871364E+02 -0.18111277435E+02  0.29047780286E+02  0.00000000000E+00 0. -1.
</event>
<event>
 5    1  0.8875601E-005  0.9118800E+02  0.7818608E-02  0.1130116E+00
         25   -1    0    0    0    0  0.00000000000E+00  0.00000000000E+00  0.99999998245E-14  0.12500000000E+03  0.12500000000E+03 0.  0.
        -11    1    3    3    0    0 -0.34988351469E+02 -0.38783938199E+02 -0.29236673860E+02  0.59859516364E+02  0.51100000000E-03 0.  1.
         23    2    1    0    0    0 -0.24352909248E+02 -0.15777034750E+02 -0.38574037850E+01  0.95727853200E+02  0.91142543853E+02 0.  0.
         11    1    3    3    0    0  0.10635442221E+02  0.23006903449E+02  0.25379270075E+02  0.35868336835E+02  0.51100000000E-03 0. -1.
         22    1    1    0    0    0  0.24352909248E+02  0.15777034750E+02  0.38574037850E+01  0.29272146800E+02  0.00000000000E+00 0.  1.
</event>
<event>
 5    1  0.8875601E-005  0.9118800E+02  0.7818608E-02  0.1130116E+00
         25   -1    0    0    0    0  0.00000000000E+00  0.00000000000E+00  0.99999998245E-14  0.12500000000E+03  0.12500000000E+03 0.  0.
        -11    1    3    3    0    0 -0.10450671404E+02  0.42406511043E+02 -0.10048482086E+02  0.44816299536E+02  0.51100000000E-03 0. -1.
         23    2    1    0    0    0 -0.73308833431E+01  0.91045850383E+01  0.27510155874E+02  0.95109466456E+02  0.90290456938E+02 0.  0.
         11    1    3    3    0    0  0.31197880612E+01 -0.33301926004E+02  0.37558637961E+02  0.50293166920E+02  0.51100000000E-03 0.  1.
         22    1    1    0    0    0  0.73308833431E+01 -0.91045850383E+01 -0.27510155874E+02  0.29890533544E+02  0.00000000000E+00 0. -1.
</event>
<event>
 5    1  0.8875601E-005  0.9118800E+02  0.7818608E-02  0.1130116E+00
         25   -1    0    0    0    0  0.00000000000E+00  0.00000000000E+00  0.99999998245E-14  0.12500000000E+03  0.12500000000E+03 0.  0.
        -11    1    3    3    0    0 -0.14333170329E+02 -0.49910712770E+02 -0.33001430323E+02  0.61527338838E+02  0.51100000000E-03 0. -1.
         23    2    1    0    0    0 -0.27692940660E+01 -0.20487808794E+02 -0.21511572597E+02  0.95164332513E+02  0.90366382733E+02 0.  0.
         11    1    3    3    0    0  0.11563876263E+02  0.29422903976E+02  0.11489857725E+02  0.33636993674E+02  0.51100000000E-03 0.  1.
         22    1    1    0    0    0  0.27692940660E+01  0.20487808794E+02  0.21511572597E+02  0.29835667487E+02  0.00000000000E+00 0. -1.
</event>
<event>
 5    1  0.8875601E-005  0.9118800E+02  0.7818608E-02  0.1130116E+00
         25   -1    0    0    0    0  0.00000000000E+00  0.00000000000E+00  0.99999998245E-14  0.12500000000E+03  0.12500000000E+03 0.  0.
        -11    1    3    3    0    0  0.34674446520E+02  0.27718762831E+02  0.16694993150E+02  0.47427522083E+02  0.51100000000E-03 0.  1.
         23    2    1    0    0    0  0.33945970493E+01  0.22741748924E+02 -0.19016648619E+02  0.95161378082E+02  0.90362295901E+02 0.  0.
         11    1    3    3    0    0 -0.31279849471E+02 -0.49770139076E+01 -0.35711641770E+02  0.47733855999E+02  0.51100000000E-03 0. -1.
         22    1    1    0    0    0 -0.33945970493E+01 -0.22741748924E+02  0.19016648619E+02  0.29838621918E+02  0.00000000000E+00 0. -1.
</event>
<event>
 5    1  0.8875601E-005  0.9118800E+02  0.7818608E-02  0.1130116E+00
         25   -1    0    0    0    0  0.00000000000E+00  0.00000000000E+00  0.99999998245E-14  0.12500000000E+03  0.12500000000E+03 0.  0.
        -11    1    3    3    0    0 -0.16468550392E+02 -0.34450083163E+02 -0.46265271715E+01  0.38463308957E+02  0.51100000000E-03 0. -1.
         23    2    1    0    0    0  0.29305460770E+02 -0.92136962347E+01 -0.13436310434E+02  0.91470361360E+02  0.85103409685E+02 0.  0.
         11    1    3    3    0    0  0.45774011162E+02  0.25236386928E+02 -0.88097832626E+01  0.53007052403E+02  0.51100000000E-03 0.  1.
         22    1    1    0    0    0 -0.29305460770E+02  0.92136962347E+01  0.13436310434E+02  0.33529638640E+02  0.00000000000E+00 0.  1.
</event>
<event>
 5    1  0.8875601E-005  0.9118800E+02  0.7818608E-02  0.1130116E+00
         25   -1    0    0    0    0  0.00000000000E+00  0.00000000000E+00  0.99999998245E-14  0.12500000000E+03  0.12500000000E+03 0.  0.
        -11    1    3    3    0    0 -0.25245911741E+02  0.32217286953E+02 -0.11579522072E+01  0.40946922861E+02  0.51100000000E-03 0.  1.
         23    2    1    0    0    0  0.20653064594E+02  0.84093949102E+01  0.18259157627E+02  0.96178760660E+02  0.91758869680E+02 0.  0.
         11    1    3    3    0    0  0.45898976335E+02 -0.23807892043E+02  0.19417109834E+02  0.55231837799E+02  0.51100000000E-03 0. -1.
         22    1    1    0    0    0 -0.20653064594E+02 -0.84093949102E+01 -0.18259157627E+02  0.28821239340E+02  0.00000000000E+00 0.  1.
</event>
<event>
 5    1  0.8875601E-005  0.9118800E+02  0.7818608E-02  0.1130116E+00
         25   -1    0    0    0    0  0.00000000000E+00  0.00000000000E+00  0.99999998245E-14  0.12500000000E+03  0.12500000000E+03 0.  0.
        -11    1    3    3    0    0  0.38009912788E+02 -0.16474669492E+01 -0.64475470570E+01  0.38588061377E+02  0.51100000000E-03 0. -1.
         23    2    1    0    0    0 -0.11685356498E+02  0.12788523675E+01 -0.29348850246E+02  0.93384528619E+02  0.87869972998E+02 0.  0.
         11    1    3    3    0    0 -0.49695269286E+02  0.29263193168E+01 -0.22901303189E+02  0.54796467242E+02  0.51100000000E-03 0.  1.
         22    1    1    0    0    0  0.11685356498E+02 -0.12788523675E+01  0.29348850246E+02  0.31615471381E+02  0.00000000000E+00 0.  1.
</event>
<event>
 5    1  0.8875601E-005  0.9118800E+02  0.7818608E-02  0.1130116E+00
         25   -1    0    0    0    0  0.00000000000E+00  0.00000000000E+00  0.99999998245E-14  0.12500000000E+03  0.12500000000E+03 0.  0.
        -11    1    3    3    0    0 -0.30348020169E+02 -0.57200426326E+01 -0.16668387043E+02  0.35093537051E+02  0.51100000000E-03 0. -1.
         23    2    1    0    0    0  0.16545955544E+02 -0.48855911528E+01  0.22811439126E+02  0.96399311184E+02  0.92058827909E+02 0.  0.
         11    1    3    3    0    0  0.46893975713E+02  0.83445147976E+00  0.39479826168E+02  0.61305774133E+02  0.51100000000E-03 0.  1.
         22    1    1    0    0    0 -0.16545955544E+02  0.48855911528E+01 -0.22811439126E+02  0.28600688816E+02  0.00000000000E+00 0.  1.
</event>
<event>
 5    1  0.8875601E-005  0.9118800E+02  0.7818608E-02  0.1130116E+00
         25   -1    0    0    0    0  0.00000000000E+00  0.00000000000E+00  0.99999998245E-14  0.12500000000E+03  0.12500000000E+03 0.  0.
        -11    1    3    3    0    0 -0.11275201578E+00  0.41624955931E+01 -0.37848108375E+02  0.38076480804E+02  0.51100000000E-03 0.  1.
         23    2    1    0    0    0  0.21638830269E+02 -0.14944470870E+02  0.12289080399E+02  0.95972466828E+02  0.91477410911E+02 0.  0.
         11    1    3    3    0    0  0.21751582285E+02 -0.19106966463E+02  0.50137188774E+02  0.57895986024E+02  0.51100000000E-03 0. -1.
         22    1    1    0    0    0 -0.21638830269E+02  0.14944470870E+02 -0.12289080399E+02  0.29027533172E+02  0.00000000000E+00 0. -1.
</event>
<event>
 5    1  0.8875601E-005  0.9118800E+02  0.7818608E-02  0.1130116E+00
         25   -1    0    0    0    0  0.00000000000E+00  0.00000000000E+00  0.99999998245E-14  0.12500000000E+03  0.12500000000E+03 0.  0.
        -11    1    3    3    0    0 -0.10419847600E+02  0.31151909799E+02  0.29303825609E+02  0.44019642249E+02  0.51100000000E-03 0. -1.
         23    2    1    0    0    0  0.16167208648E+02  0.10106401436E+02 -0.15653776486E+02  0.10033101738E+03  0.97250986339E+02 0.  0.
         11    1    3    3    0    0  0.26587056248E+02 -0.21045508363E+02 -0.44957602095E+02  0.56311375127E+02  0.51100000000E-03 0.  1.
         22    1    1    0    0    0 -0.16167208648E+02 -0.10106401436E+02  0.15653776486E+02  0.24668982624E+02  0.00000000000E+00 0.  1.
</event>
<event>
 5    1  0.8875601E-005  0.9118800E+02  0.7818608E-02  0.1130116E+00
         25   -1    0    0    0    0  0.00000000000E+00  0.00000000000E+00  0.99999998245E-14  0.12500000000E+03  0.12500000000E+03 0.  0.
        -11    1    3    3    0    0  0.17180799029E+02 -0.28242661119E+02  0.64614257732E+00  0.33064259600E+02  0.51100000000E-03 0.  1.
         23    2    1    0    0    0 -0.17057391782E+02  0.23946704310E+02 -0.19378519434E+01  0.95535537815E+02  0.90878404771E+02 0.  0.
         11    1    3    3    0    0 -0.34238190811E+02  0.52189365429E+02 -0.25839945208E+01  0.62471278215E+02  0.51100000000E-03 0. -1.
         22    1    1    0    0    0  0.17057391782E+02 -0.23946704310E+02  0.19378519434E+01  0.29464462185E+02  0.00000000000E+00 0. -1.
</event>
<event>
 5    1  0.8875601E-005  0.9118800E+02  0.7818608E-02  0.1130116E+00
         25   -1    0    0    0    0  0.00000000000E+00  0.00000000000E+00  0.99999998245E-14  0.12500000000E+03  0.12500000000E+03 0.  0.
        -11    1    3    3    0    0 -0.24616238852E+02  0.39778887615E+02 -0.20622709363E+02  0.51123529386E+02  0.51100000000E-03 0.  1.
         23    2    1    0    0    0  0.13199977147E+02  0.15264657831E+02 -0.20560819334E+02  0.96190340733E+02  0.91774643466E+02 0.  0.
         11    1    3    3    0    0  0.37816215999E+02 -0.24514229784E+02  0.61890028192E-01  0.45066811347E+02  0.51100000000E-03 0. -1.
         22    1    1    0    0    0 -0.13199977147E+02 -0.15264657831E+02  0.20560819334E+02  0.28809659267E+02  0.00000000000E+00 0.  1.
</event>
<event>
 5    1  0.8875601E-005  0.9118800E+02  0.7818608E-02  0.1130116E+00
         25   -1    0    0    0    0  0.00000000000E+00  0.00000000000E+00  0.99999998245E-14  0.12500000000E+03  0.12500000000E+03 0.  0.
        -11    1    3    3    0    0 -0.19717456446E+02  0.25213150673E+02 -0.17731256316E+02  0.36590688793E+02  0.51100000000E-03 0.  1.
         23    2    1    0    0    0  0.21605620552E+02  0.62588009332E+01  0.19404662811E+02  0.95292822965E+02  0.90543943703E+02 0.  0.
         11    1    3    3    0    0  0.41323076998E+02 -0.18954349740E+02  0.37135919128E+02  0.58702134172E+02  0.51100000000E-03 0. -1.
         22    1    1    0    0    0 -0.21605620552E+02 -0.62588009332E+01 -0.19404662811E+02  0.29707177035E+02  0.00000000000E+00 0. -1.
</event>
<event>
 5    1  0.8875601E-005  0.9118800E+02  0.7818608E-02  0.1130116E+00
         25   -1    0    0    0    0  0.00000000000E+00  0.00000000000E+00  0.99999998245E-14  0.12500000000E+03  0.12500000000E+03 0.  0.
        -11    1    3    3    0    0 -0.38613336551E+02  0.30409888424E+02  0.21414386934E+02  0.53612750737E+02  0.51100000000E-03 0.  1.
         23    2    1    0    0    0 -0.12258101363E+02 -0.50426993231E+01  0.23697634040E+02  0.97847325646E+02  0.94004422298E+02 0.  0.
         11    1    3    3    0    0  0.26355235189E+02 -0.35452587747E+02  0.22832471055E+01  0.44234574909E+02  0.51100000000E-03 0. -1.
         22    1    1    0    0    0  0.12258101363E+02  0.50426993231E+01 -0.23697634040E+02  0.27152674354E+02  0.00000000000E+00 0.  1.
</event>
<event>
 5    1  0.8875601E-005  0.9118800E+02  0.7818608E-02  0.1130116E+00
         25   -1    0    0    0    0  0.00000000000E+00  0.00000000000E+00  0.99999998245E-14  0.12500000000E+03  0.12500000000E+03 0.  0.
        -11    1    3    3    0    0 -0.26853377862E+02 -0.73908327281E+01 -0.22091682054E+02  0.35549553123E+02  0.51100000000E-03 0.  1.
         23    2    1    0    0    0  0.20983418676E+02 -0.17336690840E+02  0.12128717485E+02  0.95201166190E+02  0.90417318847E+02 0.  0.
         11    1    3    3    0    0  0.47836796538E+02 -0.99458581119E+01  0.34220399539E+02  0.59651613067E+02  0.51100000000E-03 0. -1.
         22    1    1    0    0    0 -0.20983418676E+02  0.17336690840E+02 -0.12128717485E+02  0.29798833810E+02  0.00000000000E+00 0. -1.
</event>
<event>
 5    1  0.8875601E-005  0.9118800E+02  0.7818608E-02  0.1130116E+00
         25   -1    0    0    0    0  0.00000000000E+00  0.00000000000E+00  0.99999998245E-14  0.12500000000E+03  0.12500000000E+03 0.  0.
        -11    1    3    3    0    0 -0.61356647690E+01  0.28321513589E+02 -0.52756066106E+02  0.60191004522E+02  0.51100000000E-03 0.  1.
         23    2    1    0    0    0 -0.14507996843E+02  0.12169970057E+02 -0.21556093977E+02  0.96307573628E+02  0.91934179753E+02 0.  0.
         11    1    3    3    0    0 -0.83723320740E+01 -0.16151543532E+02  0.31199972129E+02  0.36116569105E+02  0.51100000000E-03 0. -1.
         22    1    1    0    0    0  0.14507996843E+02 -0.12169970057E+02  0.21556093977E+02  0.28692426372E+02  0.00000000000E+00 0.  1.
</event>
<event>
 5    1  0.8875601E-005  0.9118800E+02  0.7818608E-02  0.1130116E+00
         25   -1    0    0    0    0  0.00000000000E+00  0.00000000000E+00  0.99999998245E-14  0.12500000000E+03  0.12500000000E+03 0.  0.
        -11    1    3    3    0    0 -0.21725698418E+02  0.35819879563E+02 -0.92924736955E+01  0.42911767748E+02  0.51100000000E-03 0. -1.
         23    2    1    0    0    0 -0.95656904001E+00  0.33341770147E+01  0.28137850793E+02  0.96649155075E+02  0.92397450012E+02 0.  0.
         11    1    3    3    0    0  0.20769129378E+02 -0.32485702548E+02  0.37430324489E+02  0.53737387327E+02  0.51100000000E-03 0.  1.
         22    1    1    0    0    0  0.95656904001E+00 -0.33341770147E+01 -0.28137850793E+02  0.28350844925E+02  0.00000000000E+00 0.  1.
</event>
<event>
 5    1  0.8875601E-005  0.9118800E+02  0.7818608E-02  0.1130116E+00
         25   -1    0    0    0    0  0.00000000000E+00  0.00000000000E+00  0.99999998245E-14  0.12500000000E+03  0.12500000000E+03 0.  0.
        -11    1    3    3    0    0 -0.56491750633E+02  0.22988983947E+02 -0.13028907218E+00  0.60990394719E+02  0.51100000000E-03 0.  1.
         23    2    1    0    0    0 -0.25799766014E+02  0.94374645878E+01 -0.96786019223E+01  0.95873225386E+02  0.91341701027E+02 0.  0.
         11    1    3    3    0    0  0.30691984619E+02 -0.13551519359E+02 -0.95483128501E+01  0.34882830667E+02  0.51100000000E-03 0. -1.
         22    1    1    0    0    0  0.25799766014E+02 -0.94374645878E+01  0.96786019223E+01  0.29126774614E+02  0.00000000000E+00 0.  1.
</event>
<event>
 5    1  0.8875601E-005  0.9118800E+02  0.7818608E-02  0.1130116E+00
         25   -1    0    0    0    0  0.00000000000E+00  0.00000000000E+00  0.99999998245E-14  0.12500000000E+03  0.12500000000E+03 0.  0.
        -11    1    3    3    0    0 -0.27276163462E+02  0.40762382493E+02  0.34963103778E+02  0.60232711592E+02  0.51100000000E-03 0.  1.
         23    2    1    0    0    0 -0.20741898691E+02  0.10131709687E+02  0.16929374003E+02  0.96373410845E+02  0.92023652999E+02 0.  0.
         11    1    3    3    0    0  0.65342647703E+01 -0.30630672805E+02 -0.18033729776E+02  0.36140699253E+02  0.51100000000E-03 0. -1.
         22    1    1    0    0    0  0.20741898691E+02 -0.10131709687E+02 -0.16929374003E+02  0.28626589155E+02  0.00000000000E+00 0.  1.
</event>
<event>
 5    1  0.8875601E-005  0.9118800E+02  0.7818608E-02  0.1130116E+00
         25   -1    0    0    0    0  0.00000000000E+00  0.00000000000E+00  0.99999998245E-14  0.12500000000E+03  0.12500000000E+03 0.  0.
        -11    1    3    3    0    0  0.91080562481E+01 -0.31226751045E+02 -0.13396194478E+02  0.35178469214E+02  0.51100000000E-03 0.  1.
         23    2    1    0    0    0 -0.22579685737E+02  0.16520069564E+02 -0.16413660376E+02  0.92562935501E+02  0.86693332358E+02 0.  0.
         11    1    3    3    0    0 -0.31687741985E+02  0.47746820609E+02 -0.30174658982E+01  0.57384466287E+02  0.51100000000E-03 0. -1.
         22    1    1    0    0    0  0.22579685737E+02 -0.16520069564E+02  0.16413660376E+02  0.32437064499E+02  0.00000000000E+00 0. -1.
</event>
<event>
 5    1  0.8875601E-005  0.9118800E+02  0.7818608E-02  0.1130116E+00
         25   -1    0    0    0    0  0.00000000000E+00  0.00000000000E+00  0.99999998245E-14  0.12500000000E+03  0.12500000000E+03 0.  0.
        -11    1    3    3    0    0  0.18274567728E+02 -0.49173984051E+02 -0.12497896140E+02  0.53928081194E+02  0.51100000000E-03 0.  1.
         23    2    1    0    0    0  0.91313705671E+01 -0.11514591584E+02 -0.26139707026E+02  0.95012468738E+02  0.90156071257E+02 0.  0.
         11    1    3    3    0    0 -0.91431971604E+01  0.37659392467E+02 -0.13641810886E+02  0.41084387544E+02  0.51100000000E-03 0. -1.
         22    1    1    0    0    0 -0.91313705671E+01  0.11514591584E+02  0.26139707026E+02  0.29987531262E+02  0.00000000000E+00 0. -1.
</event>
<event>
 5    1  0.8875601E-005  0.9118800E+02  0.7818608E-02  0.1130116E+00
         25   -1    0    0    0    0  0.00000000000E+00  0.00000000000E+00  0.99999998245E-14  0.12500000000E+03  0.12500000000E+03 0.  0.
        -11    1    3    3    0    0 -0.74248515829E+01  0.17064045307E+02  0.37376102259E+02  0.41752641637E+02  0.51100000000E-03 0. -1.
         23    2    1    0    0    0 -0.26368053455E+02 -0.72792950950E+01 -0.78912133387E+01  0.96530127713E+02  0.92236283144E+02 0.  0.
         11    1    3    3    0    0 -0.18943201872E+02 -0.24343340402E+02 -0.45267315598E+02  0.54777486076E+02  0.51100000000E-03 0.  1.
         22    1    1    0    0    0  0.26368053455E+02  0.72792950950E+01  0.78912133387E+01  0.28469872287E+02  0.00000000000E+00 0.  1.
</event>
<event>
 5    1  0.8875601E-005  0.9118800E+02  0.7818608E-02  0.1130116E+00
         25   -1    0    0    0    0  0.00000000000E+00  0.00000000000E+00  0.99999998245E-14  0.12500000000E+03  0.12500000000E+03 0.  0.
        -11    1    3    3    0    0  0.12666501653E+02 -0.30829031495E+02 -0.24105937437E+02  0.41133510269E+02  0.51100000000E-03 0.  1.
         23    2    1    0    0    0  0.17800387521E+02 -0.37456459016E+01  0.22978147558E+02  0.95693363818E+02  0.91095230141E+02 0.  0.
         11    1    3    3    0    0  0.51338858680E+01  0.27083385594E+02  0.47084084994E+02  0.54559853549E+02  0.51100000000E-03 0. -1.
         22    1    1    0    0    0 -0.17800387521E+02  0.37456459016E+01 -0.22978147558E+02  0.29306636182E+02  0.00000000000E+00 0.  1.
</event>
<event>
 5    1  0.8875601E-005  0.9118800E+02  0.7818608E-02  0.1130116E+00
         25   -1    0    0    0    0  0.00000000000E+00  0.00000000000E+00  0.99999998245E-14  0.12500000000E+03  0.12500000000E+03 0.  0.
        -11    1    3    3    0    0  0.14225327937E+02  0.40566114464E+02 -0.30931655721E+02  0.52959767027E+02  0.51100000000E-03 0. -1.
         23    2    1    0    0    0 -0.17335877708E+02  0.16375905697E+02 -0.19096087891E+02  0.94449001390E+02  0.89371417957E+02 0.  0.
         11    1    3    3    0    0 -0.31561205646E+02 -0.24190208767E+02  0.11835567830E+02  0.41489234364E+02  0.51100000000E-03 0.  1.
         22    1    1    0    0    0  0.17335877708E+02 -0.16375905697E+02  0.19096087891E+02  0.30550998610E+02  0.00000000000E+00 0.  1.
</event>
<event>
 5    1  0.8875601E-005  0.9118800E+02  0.7818608E-02  0.1130116E+00
         25   -1    0    0    0    0  0.00000000000E+00  0.00000000000E+00  0.99999998245E-14  0.12500000000E+03  0.12500000000E+03 0.  0.
        -11    1    3    3    0    0 -0.18098268005E+02  0.36784141552E+02  0.28989751937E+02  0.50209820674E+02  0.51100000000E-03 0.  1.
         23    2    1    0    0    0 -0.13087981931E+02  0.21820207144E+02 -0.13967605793E+02  0.95973964749E+02  0.91479457734E+02 0.  0.
         11    1    3    3    0    0  0.50102860744E+01 -0.14963934408E+02 -0.42957357730E+02  0.45764144075E+02  0.51100000000E-03 0. -1.
         22    1    1    0    0    0  0.13087981931E+02 -0.21820207144E+02  0.13967605793E+02  0.29026035251E+02  0.00000000000E+00 0.  1.
</event>
<event>
 5    1  0.8875601E-005  0.9118800E+02  0.7818608E-02  0.1130116E+00
         25   -1    0    0    0    0  0.00000000000E+00  0.00000000000E+00  0.99999998245E-14  0.12500000000E+03  0.12500000000E+03 0.  0.
        -11    1    3    3    0    0 -0.49181008878E+00  0.37380527318E+02  0.34291049185E+02  0.50728904525E+02  0.51100000000E-03 0.  1.
         23    2    1    0    0    0 -0.11059902333E+02 -0.12177954733E+01  0.32344508350E+02  0.90795151136E+02  0.84105813021E+02 0.  0.
         11    1    3    3    0    0 -0.10568092244E+02 -0.38598322792E+02 -0.19465408356E+01  0.40066246611E+02  0.51100000000E-03 0. -1.
         22    1    1    0    0    0  0.11059902333E+02  0.12177954733E+01 -0.32344508350E+02  0.34204848864E+02  0.00000000000E+00 0. -1.
</event>
<event>
 5    1  0.8875601E-005  0.9118800E+02  0.7818608E-02  0.1130116E+00
         25   -1    0    0    0    0  0.00000000000E+00  0.00000000000E+00  0.99999998245E-14  0.12500000000E+03  0.12500000000E+03 0.  0.
        -11    1    3    3    0    0 -0.25293113436E+02  0.19029091707E+02  0.22557542188E+02  0.38867603841E+02  0.51100000000E-03 0.  1.
         23    2    1    0    0    0 -0.14032720386E+02 -0.24302447785E+02 -0.11040922028E+02  0.94843273237E+02  0.89921178314E+02 0.  0.
         11    1    3    3    0    0  0.11260393050E+02 -0.43331539493E+02 -0.33598464216E+02  0.55975669397E+02  0.51100000000E-03 0. -1.
         22    1    1    0    0    0  0.14032720386E+02  0.24302447785E+02  0.11040922028E+02  0.30156726763E+02  0.00000000000E+00 0. -1.
</event>
<event>
 5    1  0.8875601E-005  0.9118800E+02  0.7818608E-02  0.1130116E+00
         25   -1    0    0    0    0  0.00000000000E+00  0.00000000000E+00  0.99999998245E-14  0.12500000000E+03  0.12500000000E+03 0.  0.
        -11    1    3    3    0    0 -0.19251787166E+02 -0.10204337055E+02 -0.36914408968E+02  0.42865293578E+02  0.51100000000E-03 0.  1.
         23    2    1    0    0    0 -0.18163387010E+02 -0.29366767202E+02  0.60704208289E+01  0.89940541182E+02  0.82825933714E+02 0.  0.
         11    1    3    3    0    0  0.10884001565E+01 -0.19162430147E+02  0.42984829797E+02  0.47075247604E+02  0.51100000000E-03 0. -1.
         22    1    1    0    0    0  0.18163387010E+02  0.29366767202E+02 -0.60704208289E+01  0.35059458818E+02  0.00000000000E+00 0. -1.
</event>
<event>
 5    1  0.8875601E-005  0.9118800E+02  0.7818608E-02  0.1130116E+00
         25   -1    0    0    0    0  0.00000000000E+00  0.00000000000E+00  0.99999998245E-14  0.12500000000E+03  0.12500000000E+03 0.  0.
        -11    1    3    3    0    0  0.50750648212E+01 -0.28279831498E+02 -0.54251593957E+02  0.61390069226E+02  0.51100000000E-03 0.  1.
         23    2    1    0    0    0  0.52121078484E+01 -0.54380201776E+01 -0.27102627002E+02  0.96870113365E+02  0.92695891718E+02 0.  0.
         11    1    3    3    0    0  0.13704302721E+00  0.22841811320E+02  0.27148966955E+02  0.35480044140E+02  0.51100000000E-03 0. -1.
         22    1    1    0    0    0 -0.52121078484E+01  0.54380201776E+01  0.27102627002E+02  0.28129886635E+02  0.00000000000E+00 0.  1.
</event>
<event>
 5    1  0.8875601E-005  0.9118800E+02  0.7818608E-02  0.1130116E+00
         25   -1    0    0    0    0  0.00000000000E+00  0.00000000000E+00  0.99999998245E-14  0.12500000000E+03  0.12500000000E+03 0.  0.
        -11    1    3    3    0    0  0.19459306533E+02 -0.12613991681E+02 -0.45501206345E+02  0.51069924378E+02  0.51100000000E-03 0. -1.
         23    2    1    0    0    0 -0.15181551357E+02  0.86004090088E+01 -0.16542611937E+02  0.10095619526E+03  0.98051256059E+02 0.  0.
         11    1    3    3    0    0 -0.34640857890E+02  0.21214400690E+02  0.28958594408E+02  0.49886270881E+02  0.51100000000E-03 0.  1.
         22    1    1    0    0    0  0.15181551357E+02 -0.86004090088E+01  0.16542611937E+02  0.24043804741E+02  0.00000000000E+00 0.  1.
</event>
<event>
 5    1  0.8875601E-005  0.9118800E+02  0.7818608E-02  0.1130116E+00
         25   -1    0    0    0    0  0.00000000000E+00  0.00000000000E+00  0.99999998245E-14  0.12500000000E+03  0.12500000000E+03 0.  0.
        -11    1    3    3    0    0  0.30759156328E+02 -0.28486259762E+02 -0.17611632254E+02  0.45472654246E+02  0.51100000000E-03 0.  1.
         23    2    1    0    0    0  0.52411716720E+01 -0.18221045499E+02  0.23418144177E+02  0.94868855709E+02  0.89956733641E+02 0.  0.
         11    1    3    3    0    0 -0.25517984656E+02  0.10265214263E+02  0.41029776431E+02  0.49396201463E+02  0.51100000000E-03 0. -1.
         22    1    1    0    0    0 -0.52411716720E+01  0.18221045499E+02 -0.23418144177E+02  0.30131144291E+02  0.00000000000E+00 0. -1.
</event>
<event>
 5    1  0.8875601E-005  0.9118800E+02  0.7818608E-02  0.1130116E+00
         25   -1    0    0    0    0  0.00000000000E+00  0.00000000000E+00  0.99999998245E-14  0.12500000000E+03  0.12500000000E+03 0.  0.
        -11    1    3    3    0    0 -0.20325451979E+02  0.22682399922E+02  0.22062092297E+02  0.37607860630E+02  0.51100000000E-03 0.  1.
         23    2    1    0    0    0 -0.48894845067E+01 -0.26549436512E+02 -0.73816702160E+01  0.97013062100E+02  0.92888457436E+02 0.  0.
         11    1    3    3    0    0  0.15435967473E+02 -0.49231836434E+02 -0.29443762513E+02  0.59405201470E+02  0.51100000000E-03 0. -1.
         22    1    1    0    0    0  0.48894845067E+01  0.26549436512E+02  0.73816702160E+01  0.27986937900E+02  0.00000000000E+00 0. -1.
</event>
<event>
 5    1  0.8875601E-005  0.9118800E+02  0.7818608E-02  0.1130116E+00
         25   -1    0    0    0    0  0.00000000000E+00  0.00000000000E+00  0.99999998245E-14  0.12500000000E+03  0.12500000000E+03 0.  0.
        -11    1    3    3    0    0  0.45737675299E+02  0.11635622955E+02  0.77498383136E+00  0.47200882020E+02  0.51100000000E-03 0.  1.
         23    2    1    0    0    0  0.82123706060E+01 -0.20790867317E+02  0.14120441706E+02  0.98559688566E+02  0.94946943824E+02 0.  0.
         11    1    3    3    0    0 -0.37525304693E+02 -0.32426490272E+02  0.13345457874E+02  0.51358806546E+02  0.51100000000E-03 0. -1.
         22    1    1    0    0    0 -0.82123706060E+01  0.20790867317E+02 -0.14120441706E+02  0.26440311434E+02  0.00000000000E+00 0. -1.
</event>
<event>
 5    1  0.8875601E-005  0.9118800E+02  0.7818608E-02  0.1130116E+00
         25   -1    0    0    0    0  0.00000000000E+00  0.00000000000E+00  0.99999998245E-14  0.12500000000E+03  0.12500000000E+03 0.  0.
        -11    1    3    3    0    0  0.25344076157E+02 -0.17703922871E+02 -0.22734687887E+02  0.38374693678E+02  0.51100000000E-03 0.  1.
         23    2    1    0    0    0  0.75651145864E+01  0.28682104129E+02  0.44533142173E+01  0.95004565956E+02  0.90145113505E+02 0.  0.
         11    1    3    3    0    0 -0.17778961571E+02  0.46386027001E+02  0.27188002104E+02  0.56629872277E+02  0.51100000000E-03 0. -1.
         22    1    1    0    0    0 -0.75651145864E+01 -0.28682104129E+02 -0.44533142173E+01  0.29995434044E+02  0.00000000000E+00 0. -1.
</event>
<event>
 5    1  0.8875601E-005  0.9118800E+02  0.7818608E-02  0.1130116E+00
         25   -1    0    0    0    0  0.00000000000E+00  0.00000000000E+00  0.99999998245E-14  0.12500000000E+03  0.12500000000E+03 0.  0.
        -11    1    3    3    0    0  0.18442504372E+02  0.36871686649E+02 -0.19412445586E+02  0.45568522993E+02  0.51100000000E-03 0. -1.
         23    2    1    0    0    0 -0.17651654191E+02  0.20388329191E+02  0.11314759825E+02  0.95754681524E+02  0.91179330886E+02 0.  0.
         11    1    3    3    0    0 -0.36094158563E+02 -0.16483357458E+02  0.30727205411E+02  0.50186158531E+02  0.51100000000E-03 0.  1.
         22    1    1    0    0    0  0.17651654191E+02 -0.20388329191E+02 -0.11314759825E+02  0.29245318476E+02  0.00000000000E+00 0.  1.
</event>
<event>
 5    1  0.8875601E-005  0.9118800E+02  0.7818608E-02  0.1130116E+00
         25   -1    0    0    0    0  0.00000000000E+00  0.00000000000E+00  0.99999998245E-14  0.12500000000E+03  0.12500000000E+03 0.  0.
        -11    1    3    3    0    0  0.21382580817E+02 -0.25936024689E+02 -0.46856337800E+02  0.57666355281E+02  0.51100000000E-03 0.  1.
         23    2    1    0    0    0 -0.69921258876E+01 -0.16593021425E+02 -0.22306275851E+02  0.96333152828E+02  0.91968952408E+02 0.  0.
         11    1    3    3    0    0 -0.28374706705E+02  0.93430032637E+01  0.24550061949E+02  0.38666797547E+02  0.51100000000E-03 0. -1.
         22    1    1    0    0    0  0.69921258876E+01  0.16593021425E+02  0.22306275851E+02  0.28666847172E+02  0.00000000000E+00 0.  1.
</event>
<event>
 5    1  0.8875601E-005  0.9118800E+02  0.7818608E-02  0.1130116E+00
         25   -1    0    0    0    0  0.00000000000E+00  0.00000000000E+00  0.99999998245E-14  0.12500000000E+03  0.12500000000E+03 0.  0.
        -11    1    3    3    0    0  0.31384053084E+02 -0.12640803620E+02  0.11776161178E+02  0.35824944891E+02  0.51100000000E-03 0. -1.
         23    2    1    0    0    0 -0.48146777170E+01  0.26631311392E+02 -0.13319138371E+02  0.94836987635E+02  0.89912440234E+02 0.  0.
         11    1    3    3    0    0 -0.36198730801E+02  0.39272115012E+02 -0.25095299549E+02  0.59012042744E+02  0.51100000000E-03 0.  1.
         22    1    1    0    0    0  0.48146777170E+01 -0.26631311392E+02  0.13319138371E+02  0.30163012365E+02  0.00000000000E+00 0.  1.
</event>
<event>
 5    1  0.8875601E-005  0.9118800E+02  0.7818608E-02  0.1130116E+00
         25   -1    0    0    0    0  0.00000000000E+00  0.00000000000E+00  0.99999998245E-14  0.12500000000E+03  0.12500000000E+03 0.  0.
        -11    1    3    3    0    0 -0.57140704005E+02 -0.22248965213E+01  0.80523166841E+01  0.57748160343E+02  0.51100000000E-03 0.  1.
         23    2    1    0    0    0 -0.27819500117E+02  0.82016516465E+01  0.18527820894E+02  0.90583843568E+02  0.83791174308E+02 0.  0.
         11    1    3    3    0    0  0.29321203888E+02  0.10426548168E+02  0.10475504210E+02  0.32835683225E+02  0.51100000000E-03 0. -1.
         22    1    1    0    0    0  0.27819500117E+02 -0.82016516465E+01 -0.18527820894E+02  0.34416156432E+02  0.00000000000E+00 0.  1.
</event>
<event>
 5    1  0.8875601E-005  0.9118800E+02  0.7818608E-02  0.1130116E+00
         25   -1    0    0    0    0  0.00000000000E+00  0.00000000000E+00  0.99999998245E-14  0.12500000000E+03  0.12500000000E+03 0.  0.
        -11    1    3    3    0    0  0.14058634545E+02  0.13205938567E+02 -0.33339839073E+02  0.38517358274E+02  0.51100000000E-03 0.  1.
         23    2    1    0    0    0 -0.28586050871E+02 -0.83129733167E+01 -0.30594353697E+01  0.95072955800E+02  0.90239896664E+02 0.  0.
         11    1    3    3    0    0 -0.42644685416E+02 -0.21518911883E+02  0.30280403703E+02  0.56555597526E+02  0.51100000000E-03 0. -1.
         22    1    1    0    0    0  0.28586050871E+02  0.83129733167E+01  0.30594353697E+01  0.29927044200E+02  0.00000000000E+00 0. -1.
</event>
<event>
 5    1  0.8875601E-005  0.9118800E+02  0.7818608E-02  0.1130116E+00
         25   -1    0    0    0    0  0.00000000000E+00  0.00000000000E+00  0.99999998245E-14  0.12500000000E+03  0.12500000000E+03 0.  0.
        -11    1    3    3    0    0 -0.49301563050E+02 -0.81069567063E+01 -0.10027204898E+01  0.49973716240E+02  0.51100000000E-03 0. -1.
         23    2    1    0    0    0 -0.81216458543E+01 -0.27218044465E+02  0.61655530187E+01  0.95934606146E+02  0.91425661258E+02 0.  0.
         11    1    3    3    0    0  0.41179917196E+02 -0.19111087759E+02  0.71682735085E+01  0.45960889906E+02  0.51100000000E-03 0.  1.
         22    1    1    0    0    0  0.81216458543E+01  0.27218044465E+02 -0.61655530187E+01  0.29065393854E+02  0.00000000000E+00 0. -1.
</event>
<event>
 5    1  0.8875601E-005  0.9118800E+02  0.7818608E-02  0.1130116E+00
         25   -1    0    0    0    0  0.00000000000E+00  0.00000000000E+00  0.99999998245E-14  0.12500000000E+03  0.12500000000E+03 0.  0.
        -11    1    3    3    0    0  0.51797317087E+01 -0.17477955988E+02  0.47988094408E+02  0.51333865734E+02  0.51100000000E-03 0.  1.
         23    2    1    0    0    0  0.26155079271E+02 -0.93049146373E+01  0.99965214753E+01  0.95494067551E+02  0.90821345991E+02 0.  0.
         11    1    3    3    0    0  0.20975347563E+02  0.81730413509E+01 -0.37991572932E+02  0.44160201816E+02  0.51100000000E-03 0. -1.
         22    1    1    0    0    0 -0.26155079271E+02  0.93049146373E+01 -0.99965214753E+01  0.29505932449E+02  0.00000000000E+00 0.  1.
</event>
<event>
 5    1  0.8875601E-005  0.9118800E+02  0.7818608E-02  0.1130116E+00
         25   -1    0    0    0    0  0.00000000000E+00  0.00000000000E+00  0.99999998245E-14  0.12500000000E+03  0.12500000000E+03 0.  0.
        -11    1    3    3    0    0 -0.52106457317E+01  0.51959010589E+02  0.26046858248E+02  0.58355192015E+02  0.51100000000E-03 0. -1.
         23    2    1    0    0    0 -0.20779386537E+01  0.15086290047E+02  0.25421606018E+02  0.95366032514E+02  0.90644956443E+02 0.  0.
         11    1    3    3    0    0  0.31327070780E+01 -0.36872720542E+02 -0.62525223018E+00  0.37010840499E+02  0.51100000000E-03 0.  1.
         22    1    1    0    0    0  0.20779386537E+01 -0.15086290047E+02 -0.25421606018E+02  0.29633967486E+02  0.00000000000E+00 0. -1.
</event>
<event>
 5    1  0.8875601E-005  0.9118800E+02  0.7818608E-02  0.1130116E+00
         25   -1    0    0    0    0  0.00000000000E+00  0.00000000000E+00  0.99999998245E-14  0.12500000000E+03  0.12500000000E+03 0.  0.
        -11    1    3    3    0    0  0.21109318306E+02 -0.36382515962E+02 -0.27928472728E+02  0.50490497881E+02  0.51100000000E-03 0. -1.
         23    2    1    0    0    0  0.72955547473E+00  0.32589958876E+01 -0.29713330488E+02  0.95099576691E+02  0.90276764301E+02 0.  0.
         11    1    3    3    0    0 -0.20379762831E+02  0.39641511850E+02 -0.17848577595E+01  0.44609078810E+02  0.51100000000E-03 0.  1.
         22    1    1    0    0    0 -0.72955547473E+00 -0.32589958876E+01  0.29713330488E+02  0.29900423309E+02  0.00000000000E+00 0. -1.
</event>
<event>
 5    1  0.8875601E-005  0.9118800E+02  0.7818608E-02  0.1130116E+00
         25   -1    0    0    0    0  0.00000000000E+00  0.00000000000E+00  0.99999998245E-14  0.12500000000E+03  0.12500000000E+03 0.  0.
        -11    1    3    3    0    0 -0.84448624571E+01  0.11916405111E+02 -0.38684224660E+02  0.41349554417E+02  0.51100000000E-03 0.  1.
         23    2    1    0    0    0 -0.31133503593E+02 -0.10105239637E+02  0.11991436953E+01  0.92245628388E+02  0.86234604986E+02 0.  0.
         11    1    3    3    0    0 -0.22688641136E+02 -0.22021644748E+02  0.39883368355E+02  0.50896073971E+02  0.51100000000E-03 0. -1.
         22    1    1    0    0    0  0.31133503593E+02  0.10105239637E+02 -0.11991436953E+01  0.32754371612E+02  0.00000000000E+00 0. -1.
</event>
<event>
 5    1  0.8875601E-005  0.9118800E+02  0.7818608E-02  0.1130116E+00
         25   -1    0    0    0    0  0.00000000000E+00  0.00000000000E+00  0.99999998245E-14  0.12500000000E+03  0.12500000000E+03 0.  0.
        -11    1    3    3    0    0  0.62628055037E+01 -0.89686933543E+01 -0.16243780273E+02  0.19583681755E+02  0.51100000000E-03 0.  1.
         23    2    1    0    0    0 -0.41815269059E+02  0.29220235447E+01  0.17566679527E+02  0.79550652615E+02  0.65289073771E+02 0.  0.
         11    1    3    3    0    0 -0.48078074563E+02  0.11890716899E+02  0.33810459800E+02  0.59966970860E+02  0.51100000000E-03 0. -1.
         22    1    1    0    0    0  0.41815269059E+02 -0.29220235447E+01 -0.17566679527E+02  0.45449347385E+02  0.00000000000E+00 0. -1.
</event>
<event>
 5    1  0.8875601E-005  0.9118800E+02  0.7818608E-02  0.1130116E+00
         25   -1    0    0    0    0  0.00000000000E+00  0.00000000000E+00  0.99999998245E-14  0.12500000000E+03  0.12500000000E+03 0.  0.
        -11    1    3    3    0    0  0.45903827886E+00 -0.16514696927E+01 -0.61588922749E+02  0.61612770380E+02  0.51100000000E-03 0. -1.
         23    2    1    0    0    0 -0.72051648452E+01 -0.33648124042E+00 -0.29082891125E+02  0.95035985312E+02  0.90188670729E+02 0.  0.
         11    1    3    3    0    0 -0.76642031241E+01  0.13149884523E+01  0.32506031624E+02  0.33423214932E+02  0.51100000000E-03 0.  1.
         22    1    1    0    0    0  0.72051648452E+01  0.33648124042E+00  0.29082891125E+02  0.29964014688E+02  0.00000000000E+00 0. -1.
</event>
<event>
 5    1  0.8875601E-005  0.9118800E+02  0.7818608E-02  0.1130116E+00
         25   -1    0    0    0    0  0.00000000000E+00  0.00000000000E+00  0.99999998245E-14  0.12500000000E+03  0.12500000000E+03 0.  0.
        -11    1    3    3    0    0  0.80914886069E+01 -0.16694006206E+02 -0.57505789291E+02  0.60424149422E+02  0.51100000000E-03 0.  1.
         23    2    1    0    0    0  0.14633408000E+02 -0.64019638352E+01 -0.23197939079E+02  0.96835019117E+02  0.92648555192E+02 0.  0.
         11    1    3    3    0    0  0.65419193930E+01  0.10292042371E+02  0.34307850212E+02  0.36410869695E+02  0.51100000000E-03 0. -1.
         22    1    1    0    0    0 -0.14633408000E+02  0.64019638352E+01  0.23197939079E+02  0.28164980883E+02  0.00000000000E+00 0.  1.
</event>
<event>
 5    1  0.8875601E-005  0.9118800E+02  0.7818608E-02  0.1130116E+00
         25   -1    0    0    0    0  0.00000000000E+00  0.00000000000E+00  0.99999998245E-14  0.12500000000E+03  0.12500000000E+03 0.  0.
        -11    1    3    3    0    0  0.29114056631E+02 -0.18070563715E+02 -0.91463782668E+01  0.35465896325E+02  0.51100000000E-03 0.  1.
         23    2    1    0    0    0 -0.99607756567E+01  0.27000250685E+02 -0.80081819025E+01  0.95127578503E+02  0.90315528154E+02 0.  0.
         11    1    3    3    0    0 -0.39074832288E+02  0.45070814400E+02  0.11381963643E+01  0.59661682177E+02  0.51100000000E-03 0. -1.
         22    1    1    0    0    0  0.99607756567E+01 -0.27000250685E+02  0.80081819025E+01  0.29872421497E+02  0.00000000000E+00 0. -1.
</event>
<event>
 5    1  0.8875601E-005  0.9118800E+02  0.7818608E-02  0.1130116E+00
         25   -1    0    0    0    0  0.00000000000E+00  0.00000000000E+00  0.99999998245E-14  0.12500000000E+03  0.12500000000E+03 0.  0.
        -11    1    3    3    0    0 -0.95316211580E+00  0.52477103612E+02 -0.11674609020E+02  0.53768498375E+02  0.51100000000E-03 0.  1.
         23    2    1    0    0    0  0.36616434019E+01  0.10538291523E+02 -0.24676849067E+02  0.97918454614E+02  0.94098956708E+02 0.  0.
         11    1    3    3    0    0  0.46148055177E+01 -0.41938812089E+02 -0.13002240046E+02  0.44149956239E+02  0.51100000000E-03 0. -1.
         22    1    1    0    0    0 -0.36616434019E+01 -0.10538291523E+02  0.24676849067E+02  0.27081545386E+02  0.00000000000E+00 0. -1.
</event>
<event>
 5    1  0.8875601E-005  0.9118800E+02  0.7818608E-02  0.1130116E+00
         25   -1    0    0    0    0  0.00000000000E+00  0.00000000000E+00  0.99999998245E-14  0.12500000000E+03  0.12500000000E+03 0.  0.
        -11    1    3    3    0    0  0.11423465227E+02 -0.32511575920E+02  0.12479041175E+02  0.36650028588E+02  0.51100000000E-03 0. -1.
         23    2    1    0    0    0 -0.12859471393E+02  0.15410879549E+02 -0.17673225406E+02  0.98256699732E+02  0.94547210075E+02 0.  0.
         11    1    3    3    0    0 -0.24282936619E+02  0.47922455470E+02 -0.30152266582E+02  0.61606671143E+02  0.51100000000E-03 0.  1.
         22    1    1    0    0    0  0.12859471393E+02 -0.15410879549E+02  0.17673225406E+02  0.26743300268E+02  0.00000000000E+00 0.  1.
</event>
<event>
 5    1  0.8875601E-005  0.9118800E+02  0.7818608E-02  0.1130116E+00
         25   -1    0    0    0    0  0.00000000000E+00  0.00000000000E+00  0.99999998245E-14  0.12500000000E+03  0.12500000000E+03 0.  0.
        -11    1    3    3    0    0 -0.43631395245E+01 -0.49358836062E+01  0.35363059647E+02  0.35971459817E+02  0.51100000000E-03 0.  1.
         23    2    1    0    0    0  0.49105742160E+01 -0.13132071842E+02 -0.24322107010E+02  0.96926347950E+02  0.92771692814E+02 0.  0.
         11    1    3    3    0    0  0.92737137405E+01 -0.81961882358E+01 -0.59685166658E+02  0.60954888133E+02  0.51100000000E-03 0. -1.
         22    1    1    0    0    0 -0.49105742160E+01  0.13132071842E+02  0.24322107010E+02  0.28073652050E+02  0.00000000000E+00 0. -1.
</event>
<event>
 5    1  0.8875601E-005  0.9118800E+02  0.7818608E-02  0.1130116E+00
         25   -1    0    0    0    0  0.00000000000E+00  0.00000000000E+00  0.99999998245E-14  0.12500000000E+03  0.12500000000E+03 0.  0.
        -11    1    3    3    0    0 -0.20726132476E+02 -0.33828833936E+02  0.38931587352E+02  0.55584449866E+02  0.51100000000E-03 0.  1.
         23    2    1    0    0    0 -0.30686741130E+01 -0.32567765805E+02  0.78412795177E+01  0.91361305096E+02  0.84943076669E+02 0.  0.
         11    1    3    3    0    0  0.17657458363E+02  0.12610681308E+01 -0.31090307834E+02  0.35776855230E+02  0.51100000000E-03 0. -1.
         22    1    1    0    0    0  0.30686741130E+01  0.32567765805E+02 -0.78412795177E+01  0.33638694904E+02  0.00000000000E+00 0.  1.
</event>
<event>
 5    1  0.8875601E-005  0.9118800E+02  0.7818608E-02  0.1130116E+00
         25   -1    0    0    0    0  0.00000000000E+00  0.00000000000E+00  0.99999998245E-14  0.12500000000E+03  0.12500000000E+03 0.  0.
        -11    1    3    3    0    0 -0.23205426339E+02  0.17003210223E+02 -0.28493798176E+02  0.40490708863E+02  0.51100000000E-03 0. -1.
         23    2    1    0    0    0  0.26749077803E+02  0.10365460108E+02 -0.59245423508E+01  0.95707404884E+02  0.91114495120E+02 0.  0.
         11    1    3    3    0    0  0.49954504142E+02 -0.66377501147E+01  0.22569255825E+02  0.55216696021E+02  0.51100000000E-03 0.  1.
         22    1    1    0    0    0 -0.26749077803E+02 -0.10365460108E+02  0.59245423508E+01  0.29292595116E+02  0.00000000000E+00 0.  1.
</event>
<event>
 5    1  0.8875601E-005  0.9118800E+02  0.7818608E-02  0.1130116E+00
         25   -1    0    0    0    0  0.00000000000E+00  0.00000000000E+00  0.99999998245E-14  0.12500000000E+03  0.12500000000E+03 0.  0.
        -11    1    3    3    0    0 -0.15058197860E+02  0.94117016242E+01  0.50032139110E+02  0.53089965101E+02  0.51100000000E-03 0. -1.
         23    2    1    0    0    0 -0.50303672124E+01 -0.19912695112E+02  0.22376744520E+02  0.94626677557E+02  0.89619581506E+02 0.  0.
         11    1    3    3    0    0  0.10027830647E+02 -0.29324396736E+02 -0.27655394590E+02  0.41536712456E+02  0.51100000000E-03 0.  1.
         22    1    1    0    0    0  0.50303672124E+01  0.19912695112E+02 -0.22376744520E+02  0.30373322443E+02  0.00000000000E+00 0. -1.
</event>
<event>
 5    1  0.8875601E-005  0.9118800E+02  0.7818608E-02  0.1130116E+00
         25   -1    0    0    0    0  0.00000000000E+00  0.00000000000E+00  0.99999998245E-14  0.12500000000E+03  0.12500000000E+03 0.  0.
        -11    1    3    3    0    0  0.43463345272E+01 -0.43838732224E+02 -0.30134308996E+02  0.53374166464E+02  0.51100000000E-03 0.  1.
         23    2    1    0    0    0 -0.74733186307E+01 -0.38072098787E+01 -0.28657598601E+02  0.95140273009E+02  0.90333096107E+02 0.  0.
         11    1    3    3    0    0 -0.11819653158E+02  0.40031522345E+02  0.14767103956E+01  0.41766106545E+02  0.51100000000E-03 0. -1.
         22    1    1    0    0    0  0.74733186307E+01  0.38072098787E+01  0.28657598601E+02  0.29859726991E+02  0.00000000000E+00 0.  1.
</event>
<event>
 5    1  0.8875601E-005  0.9118800E+02  0.7818608E-02  0.1130116E+00
         25   -1    0    0    0    0  0.00000000000E+00  0.00000000000E+00  0.99999998245E-14  0.12500000000E+03  0.12500000000E+03 0.  0.
        -11    1    3    3    0    0  0.48768265354E+02  0.14709635638E+02  0.34570889602E+02  0.61561867210E+02  0.51100000000E-03 0.  1.
         23    2    1    0    0    0  0.26825542892E+02  0.90189817924E+01  0.10020378540E+02  0.94977345719E+02  0.90107360575E+02 0.  0.
         11    1    3    3    0    0 -0.21942722463E+02 -0.56906538459E+01 -0.24550511062E+02  0.33415478509E+02  0.51100000000E-03 0. -1.
         22    1    1    0    0    0 -0.26825542892E+02 -0.90189817924E+01 -0.10020378540E+02  0.30022654281E+02  0.00000000000E+00 0.  1.
</event>
<event>
 5    1  0.8875601E-005  0.9118800E+02  0.7818608E-02  0.1130116E+00
         25   -1    0    0    0    0  0.00000000000E+00  0.00000000000E+00  0.99999998245E-14  0.12500000000E+03  0.12500000000E+03 0.  0.
        -11    1    3    3    0    0 -0.29744341703E+02 -0.85687465203E+01 -0.14679006104E+02  0.34258174218E+02  0.51100000000E-03 0.  1.
         23    2    1    0    0    0  0.71280256469E+01 -0.33567258050E+02 -0.27951503175E+02  0.80741033763E+02  0.67529685626E+02 0.  0.
         11    1    3    3    0    0  0.36872367350E+02 -0.24998511530E+02 -0.13272497071E+02  0.46482859545E+02  0.51100000000E-03 0. -1.
         22    1    1    0    0    0 -0.71280256469E+01  0.33567258050E+02  0.27951503175E+02  0.44258966237E+02  0.00000000000E+00 0. -1.
</event>
<event>
 5    1  0.8875601E-005  0.9118800E+02  0.7818608E-02  0.1130116E+00
         25   -1    0    0    0    0  0.00000000000E+00  0.00000000000E+00  0.99999998245E-14  0.12500000000E+03  0.12500000000E+03 0.  0.
        -11    1    3    3    0    0  0.99750423181E+01 -0.19781291131E+02  0.44344549146E+02  0.49570555648E+02  0.51100000000E-03 0.  1.
         23    2    1    0    0    0 -0.27592615554E+00  0.19879753208E+02  0.17185857205E+02  0.98720075900E+02  0.95157863442E+02 0.  0.
         11    1    3    3    0    0 -0.10250968474E+02  0.39661044340E+02 -0.27158691941E+02  0.49149520252E+02  0.51100000000E-03 0. -1.
         22    1    1    0    0    0  0.27592615554E+00 -0.19879753208E+02 -0.17185857205E+02  0.26279924100E+02  0.00000000000E+00 0.  1.
</event>
<event>
 5    1  0.8875601E-005  0.9118800E+02  0.7818608E-02  0.1130116E+00
         25   -1    0    0    0    0  0.00000000000E+00  0.00000000000E+00  0.99999998245E-14  0.12500000000E+03  0.12500000000E+03 0.  0.
        -11    1    3    3    0    0  0.48258405686E+01 -0.18079893112E+02  0.44737885473E+01  0.19240219758E+02  0.51100000000E-03 0. -1.
         23    2    1    0    0    0  0.12174231789E+02  0.20229234338E+02 -0.40096042554E+02  0.78469080495E+02  0.63184413613E+02 0.  0.
         11    1    3    3    0    0  0.73483912207E+01  0.38309127449E+02 -0.44569831101E+02  0.59228860736E+02  0.51100000000E-03 0.  1.
         22    1    1    0    0    0 -0.12174231789E+02 -0.20229234338E+02  0.40096042554E+02  0.46530919505E+02  0.00000000000E+00 0.  1.
</event>
<event>
 5    1  0.8875601E-005  0.9118800E+02  0.7818608E-02  0.1130116E+00
         25   -1    0    0    0    0  0.00000000000E+00  0.00000000000E+00  0.99999998245E-14  0.12500000000E+03  0.12500000000E+03 0.  0.
        -11    1    3    3    0    0 -0.15723443665E+02  0.73864316515E+01 -0.34991137070E+02  0.39066171132E+02  0.51100000000E-03 0.  1.
         23    2    1    0    0    0  0.30306401203E+02  0.43942044688E+01 -0.53040162417E+01  0.93920753305E+02  0.88629500316E+02 0.  0.
         11    1    3    3    0    0  0.46029844868E+02 -0.29922271827E+01  0.29687120828E+02  0.54854582173E+02  0.51100000000E-03 0. -1.
         22    1    1    0    0    0 -0.30306401203E+02 -0.43942044688E+01  0.53040162417E+01  0.31079246695E+02  0.00000000000E+00 0. -1.
</event>
<event>
 5    1  0.8875601E-005  0.9118800E+02  0.7818608E-02  0.1130116E+00
         25   -1    0    0    0    0  0.00000000000E+00  0.00000000000E+00  0.99999998245E-14  0.12500000000E+03  0.12500000000E+03 0.  0.
        -11    1    3    3    0    0  0.31815382179E+02 -0.42459209479E+00 -0.16649041192E+02  0.35910853436E+02  0.51100000000E-03 0. -1.
         23    2    1    0    0    0  0.90191490614E+01 -0.28406673021E+02  0.21364642279E+02  0.88329411491E+02  0.80357655969E+02 0.  0.
         11    1    3    3    0    0 -0.22796233117E+02 -0.27982080926E+02  0.38013683471E+02  0.52418558055E+02  0.51100000000E-03 0.  1.
         22    1    1    0    0    0 -0.90191490614E+01  0.28406673021E+02 -0.21364642279E+02  0.36670588509E+02  0.00000000000E+00 0.  1.
</event>
<event>
 5    1  0.8875601E-005  0.9118800E+02  0.7818608E-02  0.1130116E+00
         25   -1    0    0    0    0  0.00000000000E+00  0.00000000000E+00  0.99999998245E-14  0.12500000000E+03  0.12500000000E+03 0.  0.
        -11    1    3    3    0    0  0.25809247304E+02 -0.55426252633E+02  0.72511628778E+00  0.61145012235E+02  0.51100000000E-03 0.  1.
         23    2    1    0    0    0  0.19966912985E+02 -0.21202020107E+02 -0.16068963900E+00  0.95875627184E+02  0.91344987799E+02 0.  0.
         11    1    3    3    0    0 -0.58423343187E+01  0.34224232527E+02 -0.88580592678E+00  0.34730614949E+02  0.51100000000E-03 0. -1.
         22    1    1    0    0    0 -0.19966912985E+02  0.21202020107E+02  0.16068963900E+00  0.29124372816E+02  0.00000000000E+00 0.  1.
</event>
<event>
 5    1  0.8875601E-005  0.9118800E+02  0.7818608E-02  0.1130116E+00
         25   -1    0    0    0    0  0.00000000000E+00  0.00000000000E+00  0.99999998245E-14  0.12500000000E+03  0.12500000000E+03 0.  0.
        -11    1    3    3    0    0 -0.29893336199E+02 -0.24604509916E+02 -0.58742816236E+01  0.39159936698E+02  0.51100000000E-03 0. -1.
         23    2    1    0    0    0  0.10648291543E+02 -0.99296386793E+01  0.27633624622E+02  0.93765387039E+02  0.88410105530E+02 0.  0.
         11    1    3    3    0    0  0.40541627742E+02  0.14674871237E+02  0.33507906245E+02  0.54605450341E+02  0.51100000000E-03 0.  1.
         22    1    1    0    0    0 -0.10648291543E+02  0.99296386793E+01 -0.27633624622E+02  0.31234612961E+02  0.00000000000E+00 0.  1.
</event>
<event>
 5    1  0.8875601E-005  0.9118800E+02  0.7818608E-02  0.1130116E+00
         25   -1    0    0    0    0  0.00000000000E+00  0.00000000000E+00  0.99999998245E-14  0.12500000000E+03  0.12500000000E+03 0.  0.
        -11    1    3    3    0    0  0.22171010459E+02  0.48945593669E+02  0.69694972350E+00  0.53737422562E+02  0.51100000000E-03 0. -1.
         23    2    1    0    0    0 -0.71460428606E+01  0.21310587507E+02 -0.16063267904E+02  0.97373280249E+02  0.93371944727E+02 0.  0.
         11    1    3    3    0    0 -0.29317053319E+02 -0.27635006162E+02 -0.16760217628E+02  0.43635857687E+02  0.51100000000E-03 0.  1.
         22    1    1    0    0    0  0.71460428606E+01 -0.21310587507E+02  0.16063267904E+02  0.27626719751E+02  0.00000000000E+00 0. -1.
</event>
<event>
 5    1  0.8875601E-005  0.9118800E+02  0.7818608E-02  0.1130116E+00
         25   -1    0    0    0    0  0.00000000000E+00  0.00000000000E+00  0.99999998245E-14  0.12500000000E+03  0.12500000000E+03 0.  0.
        -11    1    3    3    0    0  0.48228778398E+01 -0.17028509128E+02  0.33697354568E+01  0.18016253525E+02  0.51100000000E-03 0. -1.
         23    2    1    0    0    0 -0.42082403074E+01  0.39746228151E+02  0.23148497378E+02  0.78812070088E+02  0.63859357356E+02 0.  0.
         11    1    3    3    0    0 -0.90311181471E+01  0.56774737279E+02  0.19778761921E+02  0.60795816562E+02  0.51100000000E-03 0.  1.
         22    1    1    0    0    0  0.42082403074E+01 -0.39746228151E+02 -0.23148497378E+02  0.46187929912E+02  0.00000000000E+00 0.  1.
</event>
<event>
 5    1  0.8875601E-005  0.9118800E+02  0.7818608E-02  0.1130116E+00
         25   -1    0    0    0    0  0.00000000000E+00  0.00000000000E+00  0.99999998245E-14  0.12500000000E+03  0.12500000000E+03 0.  0.
        -11    1    3    3    0    0 -0.30636060184E+02  0.15584133986E+02 -0.64443316976E+01  0.34970885419E+02  0.51100000000E-03 0. -1.
         23    2    1    0    0    0  0.22024392950E+02 -0.41081564217E+01  0.17984072504E+02  0.96270612645E+02  0.91883911329E+02 0.  0.
         11    1    3    3    0    0  0.52660453134E+02 -0.19692290408E+02  0.24428404201E+02  0.61299727225E+02  0.51100000000E-03 0.  1.
         22    1    1    0    0    0 -0.22024392950E+02  0.41081564217E+01 -0.17984072504E+02  0.28729387355E+02  0.00000000000E+00 0.  1.
</event>
<event>
 5    1  0.8875601E-005  0.9118800E+02  0.7818608E-02  0.1130116E+00
         25   -1    0    0    0    0  0.00000000000E+00  0.00000000000E+00  0.99999998245E-14  0.12500000000E+03  0.12500000000E+03 0.  0.
        -11    1    3    3    0    0 -0.22117232469E+02  0.20163166532E+02 -0.47618840100E+02  0.56243036808E+02  0.51100000000E-03 0.  1.
         23    2    1    0    0    0 -0.82199157087E+01  0.25716999561E+02 -0.10919379193E+02  0.95876746016E+02  0.91346518839E+02 0.  0.
         11    1    3    3    0    0  0.13897316760E+02  0.55538330293E+01  0.36699460907E+02  0.39633709208E+02  0.51100000000E-03 0. -1.
         22    1    1    0    0    0  0.82199157087E+01 -0.25716999561E+02  0.10919379193E+02  0.29123253984E+02  0.00000000000E+00 0.  1.
</event>
<event>
 5    1  0.8875601E-005  0.9118800E+02  0.7818608E-02  0.1130116E+00
         25   -1    0    0    0    0  0.00000000000E+00  0.00000000000E+00  0.99999998245E-14  0.12500000000E+03  0.12500000000E+03 0.  0.
        -11    1    3    3    0    0  0.53112534956E+02 -0.29359922174E+02 -0.11295726531E+02  0.61729570204E+02  0.51100000000E-03 0.  1.
         23    2    1    0    0    0  0.20615245255E+02 -0.16769745264E+02 -0.10004916759E+02  0.96604383217E+02  0.92336860485E+02 0.  0.
         11    1    3    3    0    0 -0.32497289701E+02  0.12590176910E+02  0.12908097716E+01  0.34874813012E+02  0.51100000000E-03 0. -1.
         22    1    1    0    0    0 -0.20615245255E+02  0.16769745264E+02  0.10004916759E+02  0.28395616783E+02  0.00000000000E+00 0.  1.
</event>
<event>
 5    1  0.8875601E-005  0.9118800E+02  0.7818608E-02  0.1130116E+00
         25   -1    0    0    0    0  0.00000000000E+00  0.00000000000E+00  0.99999998245E-14  0.12500000000E+03  0.12500000000E+03 0.  0.
        -11    1    3    3    0    0 -0.24381518306E+02  0.40016761657E+01 -0.39258254925E+02  0.46386231007E+02  0.51100000000E-03 0. -1.
         23    2    1    0    0    0 -0.24031916216E+02  0.30483521846E+01  0.12215411015E+02  0.97869911273E+02  0.94034450168E+02 0.  0.
         11    1    3    3    0    0  0.34960209004E+00 -0.95332398113E+00  0.51473665940E+02  0.51483680266E+02  0.51100000000E-03 0.  1.
         22    1    1    0    0    0  0.24031916216E+02 -0.30483521846E+01 -0.12215411015E+02  0.27130088727E+02  0.00000000000E+00 0.  1.
</event>
<event>
 5    1  0.8875601E-005  0.9118800E+02  0.7818608E-02  0.1130116E+00
         25   -1    0    0    0    0  0.00000000000E+00  0.00000000000E+00  0.99999998245E-14  0.12500000000E+03  0.12500000000E+03 0.  0.
        -11    1    3    3    0    0  0.40844492466E+01  0.12037495643E+02  0.32266566878E+02  0.34680186928E+02  0.51100000000E-03 0. -1.
         23    2    1    0    0    0  0.50745412323E+01 -0.17634749493E+02 -0.21887106378E+02  0.96438123591E+02  0.92111513384E+02 0.  0.
         11    1    3    3    0    0  0.99009198566E+00 -0.29672245136E+02 -0.54153673256E+02  0.61757936663E+02  0.51100000000E-03 0.  1.
         22    1    1    0    0    0 -0.50745412323E+01  0.17634749493E+02  0.21887106378E+02  0.28561876409E+02  0.00000000000E+00 0.  1.
</event>
<event>
 5    1  0.8875601E-005  0.9118800E+02  0.7818608E-02  0.1130116E+00
         25   -1    0    0    0    0  0.00000000000E+00  0.00000000000E+00  0.99999998245E-14  0.12500000000E+03  0.12500000000E+03 0.  0.
        -11    1    3    3    0    0  0.13646107936E+02 -0.51569944991E+02  0.16968587400E+02  0.55978642774E+02  0.51100000000E-03 0. -1.
         23    2    1    0    0    0  0.16753051718E+02 -0.22369441453E+02 -0.94695302569E+01  0.95491888301E+02  0.90818346578E+02 0.  0.
         11    1    3    3    0    0  0.31069437824E+01  0.29200503539E+02 -0.26438117656E+02  0.39513245527E+02  0.51100000000E-03 0.  1.
         22    1    1    0    0    0 -0.16753051718E+02  0.22369441453E+02  0.94695302569E+01  0.29508111699E+02  0.00000000000E+00 0. -1.
</event>
<event>
 5    1  0.8875601E-005  0.9118800E+02  0.7818608E-02  0.1130116E+00
         25   -1    0    0    0    0  0.00000000000E+00  0.00000000000E+00  0.99999998245E-14  0.12500000000E+03  0.12500000000E+03 0.  0.
        -11    1    3    3    0    0 -0.24345209099E+02 -0.89891059375E+00 -0.25521799562E+02  0.35282566509E+02  0.51100000000E-03 0.  1.
         23    2    1    0    0    0  0.27723944507E+02 -0.83421236026E+01  0.42744740081E+01  0.95734333200E+02  0.91151430597E+02 0.  0.
         11    1    3    3    0    0  0.52069153606E+02 -0.74432130088E+01  0.29796273570E+02  0.60451766691E+02  0.51100000000E-03 0. -1.
         22    1    1    0    0    0 -0.27723944507E+02  0.83421236026E+01 -0.42744740081E+01  0.29265666800E+02  0.00000000000E+00 0. -1.
</event>
<event>
 5    1  0.8875601E-005  0.9118800E+02  0.7818608E-02  0.1130116E+00
         25   -1    0    0    0    0  0.00000000000E+00  0.00000000000E+00  0.99999998245E-14  0.12500000000E+03  0.12500000000E+03 0.  0.
        -11    1    3    3    0    0  0.20743710125E+02  0.35385560114E+02  0.45639056506E+01  0.41270674932E+02  0.51100000000E-03 0.  1.
         23    2    1    0    0    0 -0.27045465083E+02  0.77391081805E+01  0.46903242346E+01  0.96480706208E+02  0.92169282041E+02 0.  0.
         11    1    3    3    0    0 -0.47789175208E+02 -0.27646451933E+02  0.12641858403E+00  0.55210031276E+02  0.51100000000E-03 0. -1.
         22    1    1    0    0    0  0.27045465083E+02 -0.77391081805E+01 -0.46903242346E+01  0.28519293792E+02  0.00000000000E+00 0. -1.
</event>
<event>
 5    1  0.8875601E-005  0.9118800E+02  0.7818608E-02  0.1130116E+00
         25   -1    0    0    0    0  0.00000000000E+00  0.00000000000E+00  0.99999998245E-14  0.12500000000E+03  0.12500000000E+03 0.  0.
        -11    1    3    3    0    0  0.41423638672E+02 -0.18490729481E+01 -0.23876199125E+02  0.47847777341E+02  0.51100000000E-03 0.  1.
         23    2    1    0    0    0  0.14544777103E+02  0.23596906267E+02  0.74045807068E+01  0.96308671313E+02  0.91935672230E+02 0.  0.
         11    1    3    3    0    0 -0.26878861568E+02  0.25445979215E+02  0.31280779832E+02  0.48460893972E+02  0.51100000000E-03 0. -1.
         22    1    1    0    0    0 -0.14544777103E+02 -0.23596906267E+02 -0.74045807068E+01  0.28691328687E+02  0.00000000000E+00 0.  1.
</event>
<event>
 5    1  0.8875601E-005  0.9118800E+02  0.7818608E-02  0.1130116E+00
         25   -1    0    0    0    0  0.00000000000E+00  0.00000000000E+00  0.99999998245E-14  0.12500000000E+03  0.12500000000E+03 0.  0.
        -11    1    3    3    0    0 -0.41435634505E+02 -0.37500020920E+02 -0.22966324750E+02  0.60420323142E+02  0.51100000000E-03 0.  1.
         23    2    1    0    0    0 -0.48440424316E+01 -0.18201296961E+02 -0.93468421945E+01  0.10397345922E+03  0.10182516784E+03 0.  0.
         11    1    3    3    0    0  0.36591592074E+02  0.19298723959E+02  0.13619482556E+02  0.43553136078E+02  0.51100000000E-03 0. -1.
         22    1    1    0    0    0  0.48440424316E+01  0.18201296961E+02  0.93468421945E+01  0.21026540779E+02  0.00000000000E+00 0.  1.
</event>
<event>
 5    1  0.8875601E-005  0.9118800E+02  0.7818608E-02  0.1130116E+00
         25   -1    0    0    0    0  0.00000000000E+00  0.00000000000E+00  0.99999998245E-14  0.12500000000E+03  0.12500000000E+03 0.  0.
        -11    1    3    3    0    0  0.28458315120E+02  0.31645407024E+02 -0.18627516278E+02  0.46457419732E+02  0.51100000000E-03 0. -1.
         23    2    1    0    0    0 -0.13583256516E+02  0.23583532960E+02  0.77038891795E+01  0.96715060670E+02  0.92486567497E+02 0.  0.
         11    1    3    3    0    0 -0.42041571636E+02 -0.80618740645E+01  0.26331405458E+02  0.50257640938E+02  0.51100000000E-03 0.  1.
         22    1    1    0    0    0  0.13583256516E+02 -0.23583532960E+02 -0.77038891795E+01  0.28284939330E+02  0.00000000000E+00 0.  1.
</event>
<event>
 5    1  0.8875601E-005  0.9118800E+02  0.7818608E-02  0.1130116E+00
         25   -1    0    0    0    0  0.00000000000E+00  0.00000000000E+00  0.99999998245E-14  0.12500000000E+03  0.12500000000E+03 0.  0.
        -11    1    3    3    0    0  0.62020858859E+01  0.96240939439E+01 -0.32179335319E+02  0.34155507248E+02  0.51100000000E-03 0. -1.
         23    2    1    0    0    0 -0.71472747559E+01 -0.11003790941E+01  0.27667060611E+02  0.96403485991E+02  0.92064496402E+02 0.  0.
         11    1    3    3    0    0 -0.13349360642E+02 -0.10724473038E+02  0.59846395930E+02  0.62247978743E+02  0.51100000000E-03 0.  1.
         22    1    1    0    0    0  0.71472747559E+01  0.11003790941E+01 -0.27667060611E+02  0.28596514009E+02  0.00000000000E+00 0.  1.
</event>
<event>
 5    1  0.8875601E-005  0.9118800E+02  0.7818608E-02  0.1130116E+00
         25   -1    0    0    0    0  0.00000000000E+00  0.00000000000E+00  0.99999998245E-14  0.12500000000E+03  0.12500000000E+03 0.  0.
        -11    1    3    3    0    0  0.73673750937E+01 -0.50734900596E+02  0.18027648672E+02  0.54344314065E+02  0.51100000000E-03 0. -1.
         23    2    1    0    0    0  0.20737125166E+02 -0.14955242426E+02  0.19922282329E+02  0.92587271491E+02  0.86728414449E+02 0.  0.
         11    1    3    3    0    0  0.13369750072E+02  0.35779658170E+02  0.18946336574E+01  0.38242957427E+02  0.51100000000E-03 0.  1.
         22    1    1    0    0    0 -0.20737125166E+02  0.14955242426E+02 -0.19922282329E+02  0.32412728509E+02  0.00000000000E+00 0. -1.
</event>
<event>
 5    1  0.8875601E-005  0.9118800E+02  0.7818608E-02  0.1130116E+00
         25   -1    0    0    0    0  0.00000000000E+00  0.00000000000E+00  0.99999998245E-14  0.12500000000E+03  0.12500000000E+03 0.  0.
        -11    1    3    3    0    0 -0.43147448118E+02 -0.12960228033E+02  0.28222214836E+02  0.53161670405E+02  0.51100000000E-03 0.  1.
         23    2    1    0    0    0 -0.14662922855E+02 -0.19052624735E+02 -0.80173335898E+01  0.99656727641E+02  0.96380402107E+02 0.  0.
         11    1    3    3    0    0  0.28484525263E+02 -0.60923967021E+01 -0.36239548426E+02  0.46495057236E+02  0.51100000000E-03 0. -1.
         22    1    1    0    0    0  0.14662922855E+02  0.19052624735E+02  0.80173335898E+01  0.25343272359E+02  0.00000000000E+00 0.  1.
</event>
<event>
 5    1  0.8875601E-005  0.9118800E+02  0.7818608E-02  0.1130116E+00
         25   -1    0    0    0    0  0.00000000000E+00  0.00000000000E+00  0.99999998245E-14  0.12500000000E+03  0.12500000000E+03 0.  0.
        -11    1    3    3    0    0  0.33509528847E+02  0.28829587177E+02 -0.13462220837E+02  0.46208927822E+02  0.51100000000E-03 0.  1.
         23    2    1    0    0    0  0.11920979258E+02 -0.15952276452E+02 -0.20501256575E+02  0.96418775540E+02  0.92085253352E+02 0.  0.
         11    1    3    3    0    0 -0.21588549590E+02 -0.44781863629E+02 -0.70390357382E+01  0.50209847718E+02  0.51100000000E-03 0. -1.
         22    1    1    0    0    0 -0.11920979258E+02  0.15952276452E+02  0.20501256575E+02  0.28581224460E+02  0.00000000000E+00 0. -1.
</event>
<event>
 5    1  0.8875601E-005  0.9118800E+02  0.7818608E-02  0.1130116E+00
         25   -1    0    0    0    0  0.00000000000E+00  0.00000000000E+00  0.99999998245E-14  0.12500000000E+03  0.12500000000E+03 0.  0.
        -11    1    3    3    0    0 -0.21965729934E+02 -0.24626085681E+02  0.15547486476E+01  0.33035656966E+02  0.51100000000E-03 0.  1.
         23    2    1    0    0    0  0.28378791438E+02  0.10681724278E+02  0.28758768525E+01  0.94541410001E+02  0.89500572625E+02 0.  0.
         11    1    3    3    0    0  0.50344521373E+02  0.35307809960E+02  0.13211282049E+01  0.61505753035E+02  0.51100000000E-03 0. -1.
         22    1    1    0    0    0 -0.28378791438E+02 -0.10681724278E+02 -0.28758768525E+01  0.30458589999E+02  0.00000000000E+00 0. -1.
</event>
<event>
 5    1  0.8875601E-005  0.9118800E+02  0.7818608E-02  0.1130116E+00
         25   -1    0    0    0    0  0.00000000000E+00  0.00000000000E+00  0.99999998245E-14  0.12500000000E+03  0.12500000000E+03 0.  0.
        -11    1    3    3    0    0  0.20035075079E+02  0.68792968250E+01  0.27147563939E+02  0.34434273425E+02  0.51100000000E-03 0.  1.
         23    2    1    0    0    0 -0.10575500306E+02 -0.27340568728E+02 -0.10554240204E+02  0.93843301020E+02  0.88520196875E+02 0.  0.
         11    1    3    3    0    0 -0.30610575385E+02 -0.34219865553E+02 -0.37701804143E+02  0.59409027594E+02  0.51100000000E-03 0. -1.
         22    1    1    0    0    0  0.10575500306E+02  0.27340568728E+02  0.10554240204E+02  0.31156698980E+02  0.00000000000E+00 0. -1.
</event>
<event>
 5    1  0.8875601E-005  0.9118800E+02  0.7818608E-02  0.1130116E+00
         25   -1    0    0    0    0  0.00000000000E+00  0.00000000000E+00  0.99999998245E-14  0.12500000000E+03  0.12500000000E+03 0.  0.
        -11    1    3    3    0    0  0.28637641453E+02 -0.36122918224E+01 -0.21347376021E+02  0.35900886109E+02  0.51100000000E-03 0. -1.
         23    2    1    0    0    0 -0.16203392769E+02  0.23533059440E+02  0.71264089289E+01  0.95552750077E+02  0.90902076539E+02 0.  0.
         11    1    3    3    0    0 -0.44841034221E+02  0.27145351262E+02  0.28473784950E+02  0.59651863968E+02  0.51100000000E-03 0.  1.
         22    1    1    0    0    0  0.16203392769E+02 -0.23533059440E+02 -0.71264089289E+01  0.29447249923E+02  0.00000000000E+00 0.  1.
</event>
<event>
 5    1  0.8875601E-005  0.9118800E+02  0.7818608E-02  0.1130116E+00
         25   -1    0    0    0    0  0.00000000000E+00  0.00000000000E+00  0.99999998245E-14  0.12500000000E+03  0.12500000000E+03 0.  0.
        -11    1    3    3    0    0 -0.67983467839E+01 -0.12233760767E+02  0.46485999570E+02  0.48547199484E+02  0.51100000000E-03 0. -1.
         23    2    1    0    0    0 -0.27884916303E+02 -0.10018514131E+02  0.52589524894E+01  0.94906881785E+02  0.90009557527E+02 0.  0.
         11    1    3    3    0    0 -0.21086569519E+02  0.22152466354E+01 -0.41227047080E+02  0.46359682300E+02  0.51100000000E-03 0.  1.
         22    1    1    0    0    0  0.27884916303E+02  0.10018514131E+02 -0.52589524894E+01  0.30093118215E+02  0.00000000000E+00 0. -1.
</event>
<event>
 5    1  0.8875601E-005  0.9118800E+02  0.7818608E-02  0.1130116E+00
         25   -1    0    0    0    0  0.00000000000E+00  0.00000000000E+00  0.99999998245E-14  0.12500000000E+03  0.12500000000E+03 0.  0.
        -11    1    3    3    0    0 -0.29106754822E+00 -0.35920900352E+02 -0.25723056852E+00  0.35923000574E+02  0.51100000000E-03 0.  1.
         23    2    1    0    0    0  0.84911534487E+01  0.22333739032E+02 -0.15174566441E+02  0.96695176158E+02  0.92459688728E+02 0.  0.
         11    1    3    3    0    0  0.87822209969E+01  0.58254639384E+02 -0.14917335872E+02  0.60772175584E+02  0.51100000000E-03 0. -1.
         22    1    1    0    0    0 -0.84911534487E+01 -0.22333739032E+02  0.15174566441E+02  0.28304823842E+02  0.00000000000E+00 0. -1.
</event>
<event>
 5    1  0.8875601E-005  0.9118800E+02  0.7818608E-02  0.1130116E+00
         25   -1    0    0    0    0  0.00000000000E+00  0.00000000000E+00  0.99999998245E-14  0.12500000000E+03  0.12500000000E+03 0.  0.
        -11    1    3    3    0    0 -0.33657010075E+02  0.23445658790E+02 -0.14785482388E+02  0.43601648283E+02  0.51100000000E-03 0.  1.
         23    2    1    0    0    0 -0.55845662114E+01  0.15137000142E+02  0.26356767551E+02  0.94097000974E+02  0.88877726363E+02 0.  0.
         11    1    3    3    0    0  0.28072443864E+02 -0.83086586475E+01  0.41142249939E+02  0.50495352690E+02  0.51100000000E-03 0. -1.
         22    1    1    0    0    0  0.55845662114E+01 -0.15137000142E+02 -0.26356767551E+02  0.30902999026E+02  0.00000000000E+00 0. -1.
</event>
<event>
 5    1  0.8875601E-005  0.9118800E+02  0.7818608E-02  0.1130116E+00
         25   -1    0    0    0    0  0.00000000000E+00  0.00000000000E+00  0.99999998245E-14  0.12500000000E+03  0.12500000000E+03 0.  0.
        -11    1    3    3    0    0 -0.46781404126E+02  0.12537010437E+02  0.18734556002E+02  0.51929375035E+02  0.51100000000E-03 0. -1.
         23    2    1    0    0    0 -0.14074574852E+02 -0.18888165144E+02  0.14158654204E+02  0.97516842819E+02  0.93563939126E+02 0.  0.
         11    1    3    3    0    0  0.32706829274E+02 -0.31425175581E+02 -0.45759017975E+01  0.45587467784E+02  0.51100000000E-03 0.  1.
         22    1    1    0    0    0  0.14074574852E+02  0.18888165144E+02 -0.14158654204E+02  0.27483157181E+02  0.00000000000E+00 0.  1.
</event>
<event>
 5    1  0.8875601E-005  0.9118800E+02  0.7818608E-02  0.1130116E+00
         25   -1    0    0    0    0  0.00000000000E+00  0.00000000000E+00  0.99999998245E-14  0.12500000000E+03  0.12500000000E+03 0.  0.
        -11    1    3    3    0    0 -0.40806525002E+02 -0.28807933215E+01  0.40350143191E+01  0.41106602799E+02  0.51100000000E-03 0. -1.
         23    2    1    0    0    0  0.66607796009E+01  0.20923760197E+02 -0.15966501962E+02  0.97850434431E+02  0.94008556035E+02 0.  0.
         11    1    3    3    0    0  0.47467304603E+02  0.23804553519E+02 -0.20001516281E+02  0.56743831632E+02  0.51100000000E-03 0.  1.
         22    1    1    0    0    0 -0.66607796009E+01 -0.20923760197E+02  0.15966501962E+02  0.27149565569E+02  0.00000000000E+00 0.  1.
</event>
<event>
 5    1  0.8875601E-005  0.9118800E+02  0.7818608E-02  0.1130116E+00
         25   -1    0    0    0    0  0.00000000000E+00  0.00000000000E+00  0.99999998245E-14  0.12500000000E+03  0.12500000000E+03 0.  0.
        -11    1    3    3    0    0 -0.34115709934E+02 -0.51493203701E+02 -0.76325366085E+01  0.62238953293E+02  0.51100000000E-03 0. -1.
         23    2    1    0    0    0 -0.12014799980E+02 -0.24980302167E+02 -0.47607060352E+01  0.96874651347E+02  0.92702010964E+02 0.  0.
         11    1    3    3    0    0  0.22100909955E+02  0.26512901534E+02  0.28718305732E+01  0.34635698054E+02  0.51100000000E-03 0.  1.
         22    1    1    0    0    0  0.12014799980E+02  0.24980302167E+02  0.47607060352E+01  0.28125348653E+02  0.00000000000E+00 0. -1.
</event>
<event>
 5    1  0.8875601E-005  0.9118800E+02  0.7818608E-02  0.1130116E+00
         25   -1    0    0    0    0  0.00000000000E+00  0.00000000000E+00  0.99999998245E-14  0.12500000000E+03  0.12500000000E+03 0.  0.
        -11    1    3    3    0    0  0.99945856439E+01 -0.58310563721E+02  0.10620985311E+01  0.59170445640E+02  0.51100000000E-03 0.  1.
         23    2    1    0    0    0  0.84011435948E+01 -0.22794497493E+02  0.13950097295E+02  0.96986190116E+02  0.92852288766E+02 0.  0.
         11    1    3    3    0    0 -0.15934420491E+01  0.35516066228E+02  0.12887998764E+02  0.37815744476E+02  0.51100000000E-03 0. -1.
         22    1    1    0    0    0 -0.84011435948E+01  0.22794497493E+02 -0.13950097295E+02  0.28013809884E+02  0.00000000000E+00 0.  1.
</event>
<event>
 5    1  0.8875601E-005  0.9118800E+02  0.7818608E-02  0.1130116E+00
         25   -1    0    0    0    0  0.00000000000E+00  0.00000000000E+00  0.99999998245E-14  0.12500000000E+03  0.12500000000E+03 0.  0.
        -11    1    3    3    0    0  0.35041118635E+02 -0.31928420570E+02 -0.17861440095E+02  0.50659007864E+02  0.51100000000E-03 0.  1.
         23    2    1    0    0    0  0.24614209006E+02 -0.52373659692E+01  0.16123612713E+02  0.95112541523E+02  0.90294714024E+02 0.  0.
         11    1    3    3    0    0 -0.10426909628E+02  0.26691054601E+02  0.33985052808E+02  0.44453533659E+02  0.51100000000E-03 0. -1.
         22    1    1    0    0    0 -0.24614209006E+02  0.52373659692E+01 -0.16123612713E+02  0.29887458477E+02  0.00000000000E+00 0.  1.
</event>
<event>
 5    1  0.8875601E-005  0.9118800E+02  0.7818608E-02  0.1130116E+00
         25   -1    0    0    0    0  0.00000000000E+00  0.00000000000E+00  0.99999998245E-14  0.12500000000E+03  0.12500000000E+03 0.  0.
        -11    1    3    3    0    0  0.27016904225E+02  0.25186319222E+02 -0.17427319026E+02  0.40840852569E+02  0.51100000000E-03 0. -1.
         23    2    1    0    0    0  0.78316331898E+01 -0.25133166145E+02  0.31416170687E+01  0.98488110654E+02  0.94852662922E+02 0.  0.
         11    1    3    3    0    0 -0.19185271036E+02 -0.50319485367E+02  0.20568936095E+02  0.57647258085E+02  0.51100000000E-03 0.  1.
         22    1    1    0    0    0 -0.78316331898E+01  0.25133166145E+02 -0.31416170687E+01  0.26511889346E+02  0.00000000000E+00 0.  1.
</event>
<event>
 5    1  0.8875601E-005  0.9118800E+02  0.7818608E-02  0.1130116E+00
         25   -1    0    0    0    0  0.00000000000E+00  0.00000000000E+00  0.99999998245E-14  0.12500000000E+03  0.12500000000E+03 0.  0.
        -11    1    3    3    0    0 -0.22970833008E+01  0.25791519673E+02  0.28365536093E+02  0.38406805606E+02  0.51100000000E-03 0.  1.
         23    2    1    0    0    0  0.22130226289E+02 -0.12376008568E+02 -0.99624241767E+01  0.97757342289E+02  0.93884692960E+02 0.  0.
         11    1    3    3    0    0  0.24427309590E+02 -0.38167528242E+02 -0.38327960269E+02  0.59350536683E+02  0.51100000000E-03 0. -1.
         22    1    1    0    0    0 -0.22130226289E+02  0.12376008568E+02  0.99624241767E+01  0.27242657711E+02  0.00000000000E+00 0. -1.
</event>
<event>
 5    1  0.8875601E-005  0.9118800E+02  0.7818608E-02  0.1130116E+00
         25   -1    0    0    0    0  0.00000000000E+00  0.00000000000E+00  0.99999998245E-14  0.12500000000E+03  0.12500000000E+03 0.  0.
        -11    1    3    3    0    0 -0.28594427748E+02 -0.34742203296E+02  0.38823040988E+02  0.59429710583E+02  0.51100000000E-03 0.  1.
         23    2    1    0    0    0 -0.16688339712E+02 -0.41427649994E+01  0.24052970112E+02  0.95432981967E+02  0.90737233216E+02 0.  0.
         11    1    3    3    0    0  0.11906088037E+02  0.30599438297E+02 -0.14770070876E+02  0.36003271384E+02  0.51100000000E-03 0. -1.
         22    1    1    0    0    0  0.16688339712E+02  0.41427649994E+01 -0.24052970112E+02  0.29567018033E+02  0.00000000000E+00 0.  1.
</event>
<event>
 5    1  0.8875601E-005  0.9118800E+02  0.7818608E-02  0.1130116E+00
         25   -1    0    0    0    0  0.00000000000E+00  0.00000000000E+00  0.99999998245E-14  0.12500000000E+03  0.12500000000E+03 0.  0.
        -11    1    3    3    0    0  0.86010246219E+01  0.28366154610E+02  0.17155080193E+02  0.34247819326E+02  0.51100000000E-03 0.  1.
         23    2    1    0    0    0 -0.14561169178E+02 -0.22800267729E+02 -0.93816887064E+01  0.96366174910E+02  0.92013823567E+02 0.  0.
         11    1    3    3    0    0 -0.23162193800E+02 -0.51166422338E+02 -0.26536768900E+02  0.62118355584E+02  0.51100000000E-03 0. -1.
         22    1    1    0    0    0  0.14561169178E+02  0.22800267729E+02  0.93816887064E+01  0.28633825090E+02  0.00000000000E+00 0. -1.
</event>
<event>
 5    1  0.8875601E-005  0.9118800E+02  0.7818608E-02  0.1130116E+00
         25   -1    0    0    0    0  0.00000000000E+00  0.00000000000E+00  0.99999998245E-14  0.12500000000E+03  0.12500000000E+03 0.  0.
        -11    1    3    3    0    0  0.47501806958E+01  0.41447648742E+02 -0.38149807015E+02  0.56532111038E+02  0.51100000000E-03 0.  1.
         23    2    1    0    0    0  0.51474155089E+01  0.33998515104E+01 -0.28572981157E+02  0.95768678974E+02  0.91198518319E+02 0.  0.
         11    1    3    3    0    0  0.39723481306E+00 -0.38047797231E+02  0.95768258587E+01  0.39236567936E+02  0.51100000000E-03 0. -1.
         22    1    1    0    0    0 -0.51474155089E+01 -0.33998515104E+01  0.28572981157E+02  0.29231321026E+02  0.00000000000E+00 0.  1.
</event>
<event>
 5    1  0.8875601E-005  0.9118800E+02  0.7818608E-02  0.1130116E+00
         25   -1    0    0    0    0  0.00000000000E+00  0.00000000000E+00  0.99999998245E-14  0.12500000000E+03  0.12500000000E+03 0.  0.
        -11    1    3    3    0    0  0.39119167913E+02 -0.80601854972E+00  0.31125950203E+02  0.49997837358E+02  0.51100000000E-03 0. -1.
         23    2    1    0    0    0 -0.34526155712E+01  0.12104656483E+02  0.27649751081E+02  0.94619874956E+02  0.89610092841E+02 0.  0.
         11    1    3    3    0    0 -0.42571783484E+02  0.12910675033E+02 -0.34761991226E+01  0.44622037599E+02  0.51100000000E-03 0.  1.
         22    1    1    0    0    0  0.34526155712E+01 -0.12104656483E+02 -0.27649751081E+02  0.30380125044E+02  0.00000000000E+00 0. -1.
</event>
<event>
 5    1  0.8875601E-005  0.9118800E+02  0.7818608E-02  0.1130116E+00
         25   -1    0    0    0    0  0.00000000000E+00  0.00000000000E+00  0.99999998245E-14  0.12500000000E+03  0.12500000000E+03 0.  0.
        -11    1    3    3    0    0 -0.24402828388E+02 -0.15556076964E+02  0.16531029093E+02  0.33328133566E+02  0.51100000000E-03 0. -1.
         23    2    1    0    0    0  0.15817726472E+02  0.10194162883E+02 -0.22970792510E+02  0.95305240594E+02  0.90561085178E+02 0.  0.
         11    1    3    3    0    0  0.40220554860E+02  0.25750239846E+02 -0.39501821603E+02  0.61977107029E+02  0.51100000000E-03 0.  1.
         22    1    1    0    0    0 -0.15817726472E+02 -0.10194162883E+02  0.22970792510E+02  0.29694759406E+02  0.00000000000E+00 0.  1.
</event>
<event>
 5    1  0.8875601E-005  0.9118800E+02  0.7818608E-02  0.1130116E+00
         25   -1    0    0    0    0  0.00000000000E+00  0.00000000000E+00  0.99999998245E-14  0.12500000000E+03  0.12500000000E+03 0.  0.
        -11    1    3    3    0    0  0.18608826021E+02 -0.25638157121E+02 -0.14086388890E+02  0.34670302258E+02  0.51100000000E-03 0.  1.
         23    2    1    0    0    0 -0.11685876888E+01  0.24043763105E+02  0.16065688355E+02  0.96059120888E+02  0.91595743471E+02 0.  0.
         11    1    3    3    0    0 -0.19777413709E+02  0.49681920226E+02  0.30152077245E+02  0.61388818630E+02  0.51100000000E-03 0. -1.
         22    1    1    0    0    0  0.11685876888E+01 -0.24043763105E+02 -0.16065688355E+02  0.28940879112E+02  0.00000000000E+00 0. -1.
</event>
<event>
 5    1  0.8875601E-005  0.9118800E+02  0.7818608E-02  0.1130116E+00
         25   -1    0    0    0    0  0.00000000000E+00  0.00000000000E+00  0.99999998245E-14  0.12500000000E+03  0.12500000000E+03 0.  0.
        -11    1    3    3    0    0  0.45556128455E+02 -0.23897320203E+02  0.28792849325E+01  0.51524101493E+02  0.51100000000E-03 0. -1.
         23    2    1    0    0    0  0.14689021704E+02 -0.97334287988E+01 -0.24272750396E+02  0.95005443718E+02  0.90146330649E+02 0.  0.
         11    1    3    3    0    0 -0.30867106751E+02  0.14163891404E+02 -0.27152035328E+02  0.43481342224E+02  0.51100000000E-03 0.  1.
         22    1    1    0    0    0 -0.14689021704E+02  0.97334287988E+01  0.24272750396E+02  0.29994556282E+02  0.00000000000E+00 0. -1.
</event>
<event>
 5    1  0.8875601E-005  0.9118800E+02  0.7818608E-02  0.1130116E+00
         25   -1    0    0    0    0  0.00000000000E+00  0.00000000000E+00  0.99999998245E-14  0.12500000000E+03  0.12500000000E+03 0.  0.
        -11    1    3    3    0    0  0.36840155792E+02  0.10748029008E+02 -0.13374557895E+02  0.40639832744E+02  0.51100000000E-03 0.  1.
         23    2    1    0    0    0  0.31331118384E+01  0.53515369471E+01  0.29165301722E+02  0.95182720412E+02  0.90391814359E+02 0.  0.
         11    1    3    3    0    0 -0.33707043954E+02 -0.53964920614E+01  0.42539859617E+02  0.54542887668E+02  0.51100000000E-03 0. -1.
         22    1    1    0    0    0 -0.31331118384E+01 -0.53515369471E+01 -0.29165301722E+02  0.29817279588E+02  0.00000000000E+00 0. -1.
</event>
<event>
 5    1  0.8875601E-005  0.9118800E+02  0.7818608E-02  0.1130116E+00
         25   -1    0    0    0    0  0.00000000000E+00  0.00000000000E+00  0.99999998245E-14  0.12500000000E+03  0.12500000000E+03 0.  0.
        -11    1    3    3    0    0  0.20722224747E+01  0.18150737403E+02  0.37528430642E+02  0.41738788686E+02  0.51100000000E-03 0.  1.
         23    2    1    0    0    0  0.29798436265E+02 -0.18139913729E+00 -0.40029071440E+01  0.94933357769E+02  0.90046318315E+02 0.  0.
         11    1    3    3    0    0  0.27726213790E+02 -0.18332136541E+02 -0.41531337786E+02  0.53194569082E+02  0.51100000000E-03 0. -1.
         22    1    1    0    0    0 -0.29798436265E+02  0.18139913729E+00  0.40029071440E+01  0.30066642231E+02  0.00000000000E+00 0. -1.
</event>
<event>
 5    1  0.8875601E-005  0.9118800E+02  0.7818608E-02  0.1130116E+00
         25   -1    0    0    0    0  0.00000000000E+00  0.00000000000E+00  0.99999998245E-14  0.12500000000E+03  0.12500000000E+03 0.  0.
        -11    1    3    3    0    0 -0.37527915744E+02  0.38926497702E+02  0.14347985557E+02  0.55941767698E+02  0.51100000000E-03 0.  1.
         23    2    1    0    0    0 -0.22935819331E+02  0.11994928336E+02 -0.12116365251E+02  0.96421399246E+02  0.92088814801E+02 0.  0.
         11    1    3    3    0    0  0.14592096413E+02 -0.26931569367E+02 -0.26464350808E+02  0.40479631548E+02  0.51100000000E-03 0. -1.
         22    1    1    0    0    0  0.22935819331E+02 -0.11994928336E+02  0.12116365251E+02  0.28578600754E+02  0.00000000000E+00 0.  1.
</event>
<event>
 5    1  0.8875601E-005  0.9118800E+02  0.7818608E-02  0.1130116E+00
         25   -1    0    0    0    0  0.00000000000E+00  0.00000000000E+00  0.99999998245E-14  0.12500000000E+03  0.12500000000E+03 0.  0.
        -11    1    3    3    0    0  0.71484804473E+01  0.44103140858E+02 -0.21737446840E+02  0.49686058423E+02  0.51100000000E-03 0. -1.
         23    2    1    0    0    0 -0.10939571763E+02  0.21973198836E+02  0.15001130596E+02  0.96233185498E+02  0.91832980864E+02 0.  0.
         11    1    3    3    0    0 -0.18088052210E+02 -0.22129942022E+02  0.36738577436E+02  0.46547127075E+02  0.51100000000E-03 0.  1.
         22    1    1    0    0    0  0.10939571763E+02 -0.21973198836E+02 -0.15001130596E+02  0.28766814502E+02  0.00000000000E+00 0. -1.
</event>
<event>
 5    1  0.8875601E-005  0.9118800E+02  0.7818608E-02  0.1130116E+00
         25   -1    0    0    0    0  0.00000000000E+00  0.00000000000E+00  0.99999998245E-14  0.12500000000E+03  0.12500000000E+03 0.  0.
        -11    1    3    3    0    0  0.18414804937E+01  0.34182863091E+02 -0.75203190521E+01  0.35048742893E+02  0.51100000000E-03 0.  1.
         23    2    1    0    0    0  0.11660242672E+02 -0.25403475947E+02  0.46813912121E+01  0.96658982498E+02  0.92410744097E+02 0.  0.
         11    1    3    3    0    0  0.98187621788E+01 -0.59586339037E+02  0.12201710264E+02  0.61610239605E+02  0.51100000000E-03 0. -1.
         22    1    1    0    0    0 -0.11660242672E+02  0.25403475947E+02 -0.46813912121E+01  0.28341017502E+02  0.00000000000E+00 0. -1.
</event>
<event>
 5    1  0.8875601E-005  0.9118800E+02  0.7818608E-02  0.1130116E+00
         25   -1    0    0    0    0  0.00000000000E+00  0.00000000000E+00  0.99999998245E-14  0.12500000000E+03  0.12500000000E+03 0.  0.
        -11    1    3    3    0    0  0.46207212310E+02  0.17058344655E+02  0.16521213874E+02  0.51952325261E+02  0.51100000000E-03 0.  1.
         23    2    1    0    0    0  0.31905524167E+01  0.17483711042E+02  0.23502937045E+02  0.95533954689E+02  0.90876227212E+02 0.  0.
         11    1    3    3    0    0 -0.43016659894E+02  0.42536638662E+00  0.69817231701E+01  0.43581629429E+02  0.51100000000E-03 0. -1.
         22    1    1    0    0    0 -0.31905524167E+01 -0.17483711042E+02 -0.23502937045E+02  0.29466045311E+02  0.00000000000E+00 0.  1.
</event>
<event>
 5    1  0.8875601E-005  0.9118800E+02  0.7818608E-02  0.1130116E+00
         25   -1    0    0    0    0  0.00000000000E+00  0.00000000000E+00  0.99999998245E-14  0.12500000000E+03  0.12500000000E+03 0.  0.
        -11    1    3    3    0    0 -0.74375805549E+01 -0.51274809757E+02  0.50951353498E+01  0.52061349623E+02  0.51100000000E-03 0.  1.
         23    2    1    0    0    0  0.20966567687E+02 -0.16206544678E+02  0.80999490663E+01  0.97289745114E+02  0.93260046528E+02 0.  0.
         11    1    3    3    0    0  0.28404148242E+02  0.35068265078E+02  0.30048137166E+01  0.45228395491E+02  0.51100000000E-03 0. -1.
         22    1    1    0    0    0 -0.20966567687E+02  0.16206544678E+02 -0.80999490663E+01  0.27710254886E+02  0.00000000000E+00 0.  1.
</event>
<event>
 5    1  0.8875601E-005  0.9118800E+02  0.7818608E-02  0.1130116E+00
         25   -1    0    0    0    0  0.00000000000E+00  0.00000000000E+00  0.99999998245E-14  0.12500000000E+03  0.12500000000E+03 0.  0.
        -11    1    3    3    0    0 -0.12688097667E+02 -0.47450829273E+02  0.19704322192E+02  0.52922862114E+02  0.51100000000E-03 0. -1.
         23    2    1    0    0    0  0.13690502534E+02 -0.24264061606E+02 -0.60702636316E+01  0.96486448032E+02  0.92177068776E+02 0.  0.
         11    1    3    3    0    0  0.26378600201E+02  0.23186767667E+02 -0.25774585823E+02  0.43563585918E+02  0.51100000000E-03 0.  1.
         22    1    1    0    0    0 -0.13690502534E+02  0.24264061606E+02  0.60702636316E+01  0.28513551968E+02  0.00000000000E+00 0.  1.
</event>
<event>
 5    1  0.8875601E-005  0.9118800E+02  0.7818608E-02  0.1130116E+00
         25   -1    0    0    0    0  0.00000000000E+00  0.00000000000E+00  0.99999998245E-14  0.12500000000E+03  0.12500000000E+03 0.  0.
        -11    1    3    3    0    0 -0.33808848124E+02 -0.31556023851E+02 -0.41922750516E+00  0.46249287613E+02  0.51100000000E-03 0. -1.
         23    2    1    0    0    0  0.18912109402E+01 -0.13147714178E+02  0.27018574103E+02  0.94892817909E+02  0.89990024320E+02 0.  0.
         11    1    3    3    0    0  0.35700059065E+02  0.18408309673E+02  0.27437801608E+02  0.48643530295E+02  0.51100000000E-03 0.  1.
         22    1    1    0    0    0 -0.18912109402E+01  0.13147714178E+02 -0.27018574103E+02  0.30107182091E+02  0.00000000000E+00 0. -1.
</event>
<event>
 5    1  0.8875601E-005  0.9118800E+02  0.7818608E-02  0.1130116E+00
         25   -1    0    0    0    0  0.00000000000E+00  0.00000000000E+00  0.99999998245E-14  0.12500000000E+03  0.12500000000E+03 0.  0.
        -11    1    3    3    0    0  0.11074484529E+02 -0.35049542475E+02 -0.14359929040E+02  0.39462921808E+02  0.51100000000E-03 0. -1.
         23    2    1    0    0    0  0.18735719375E+02  0.20571998045E+02 -0.11049135733E+01  0.97153005223E+02  0.93076588388E+02 0.  0.
         11    1    3    3    0    0  0.76612348460E+01  0.55621540520E+02  0.13255015467E+02  0.57690083416E+02  0.51100000000E-03 0.  1.
         22    1    1    0    0    0 -0.18735719375E+02 -0.20571998045E+02  0.11049135733E+01  0.27846994777E+02  0.00000000000E+00 0.  1.
</event>
<event>
 5    1  0.8875601E-005  0.9118800E+02  0.7818608E-02  0.1130116E+00
         25   -1    0    0    0    0  0.00000000000E+00  0.00000000000E+00  0.99999998245E-14  0.12500000000E+03  0.12500000000E+03 0.  0.
        -11    1    3    3    0    0 -0.22114273345E+01  0.25767702864E+02  0.32226740779E+02  0.41321032698E+02  0.51100000000E-03 0. -1.
         23    2    1    0    0    0 -0.25206650080E+02 -0.12520376735E+02 -0.76016783552E+00  0.96844842444E+02  0.92661807726E+02 0.  0.
         11    1    3    3    0    0 -0.22995222746E+02 -0.38288079599E+02 -0.32986908615E+02  0.55523809746E+02  0.51100000000E-03 0.  1.
         22    1    1    0    0    0  0.25206650080E+02  0.12520376735E+02  0.76016783552E+00  0.28155157556E+02  0.00000000000E+00 0.  1.
</event>
<event>
 5    1  0.8875601E-005  0.9118800E+02  0.7818608E-02  0.1130116E+00
         25   -1    0    0    0    0  0.00000000000E+00  0.00000000000E+00  0.99999998245E-14  0.12500000000E+03  0.12500000000E+03 0.  0.
        -11    1    3    3    0    0  0.19390142997E+02  0.18262147871E+02 -0.25165220831E+02  0.36643853919E+02  0.51100000000E-03 0. -1.
         23    2    1    0    0    0  0.64679880906E+01 -0.37034323799E+01  0.28226604367E+02  0.95805968497E+02  0.91249614378E+02 0.  0.
         11    1    3    3    0    0 -0.12922154907E+02 -0.21965580251E+02  0.53391825197E+02  0.59162114578E+02  0.51100000000E-03 0.  1.
         22    1    1    0    0    0 -0.64679880906E+01  0.37034323799E+01 -0.28226604367E+02  0.29194031503E+02  0.00000000000E+00 0.  1.
</event>
<event>
 5    1  0.8875601E-005  0.9118800E+02  0.7818608E-02  0.1130116E+00
         25   -1    0    0    0    0  0.00000000000E+00  0.00000000000E+00  0.99999998245E-14  0.12500000000E+03  0.12500000000E+03 0.  0.
        -11    1    3    3    0    0  0.41804343981E+02 -0.25703371306E+02 -0.12846305214E+02  0.50727645620E+02  0.51100000000E-03 0.  1.
         23    2    1    0    0    0 -0.37731195383E+01 -0.25452117814E+02 -0.12700270042E+02  0.96306035627E+02  0.91932088559E+02 0.  0.
         11    1    3    3    0    0 -0.45577463519E+02  0.25125349191E+00  0.14603517237E+00  0.45578390008E+02  0.51100000000E-03 0. -1.
         22    1    1    0    0    0  0.37731195383E+01  0.25452117814E+02  0.12700270042E+02  0.28693964373E+02  0.00000000000E+00 0.  1.
</event>
<event>
 5    1  0.8875601E-005  0.9118800E+02  0.7818608E-02  0.1130116E+00
         25   -1    0    0    0    0  0.00000000000E+00  0.00000000000E+00  0.99999998245E-14  0.12500000000E+03  0.12500000000E+03 0.  0.
        -11    1    3    3    0    0  0.25489339018E+01  0.23855677057E+02  0.26529462341E+02  0.35768740043E+02  0.51100000000E-03 0.  1.
         23    2    1    0    0    0 -0.20819308587E+01 -0.20729069276E+02 -0.16894218799E+02  0.98177558314E+02  0.94442519972E+02 0.  0.
         11    1    3    3    0    0 -0.46308647604E+01 -0.44584746333E+02 -0.43423681140E+02  0.62408818271E+02  0.51100000000E-03 0. -1.
         22    1    1    0    0    0  0.20819308587E+01  0.20729069276E+02  0.16894218799E+02  0.26822441686E+02  0.00000000000E+00 0. -1.
</event>
<event>
 5    1  0.8875601E-005  0.9118800E+02  0.7818608E-02  0.1130116E+00
         25   -1    0    0    0    0  0.00000000000E+00  0.00000000000E+00  0.99999998245E-14  0.12500000000E+03  0.12500000000E+03 0.  0.
        -11    1    3    3    0    0 -0.28785766075E+02 -0.15845671505E+02  0.15079167076E+02  0.36153656992E+02  0.51100000000E-03 0.  1.
         23    2    1    0    0    0  0.80157911449E+01  0.28146808292E+02 -0.98773107533E+00  0.95717388481E+02  0.91128190590E+02 0.  0.
         11    1    3    3    0    0  0.36801557220E+02  0.43992479797E+02 -0.16066898151E+02  0.59563731489E+02  0.51100000000E-03 0. -1.
         22    1    1    0    0    0 -0.80157911449E+01 -0.28146808292E+02  0.98773107533E+00  0.29282611519E+02  0.00000000000E+00 0. -1.
</event>
<event>
 5    1  0.8875601E-005  0.9118800E+02  0.7818608E-02  0.1130116E+00
         25   -1    0    0    0    0  0.00000000000E+00  0.00000000000E+00  0.99999998245E-14  0.12500000000E+03  0.12500000000E+03 0.  0.
        -11    1    3    3    0    0  0.57475507878E+02  0.63723870900E+01 -0.15823835364E+02  0.59953607806E+02  0.51100000000E-03 0.  1.
         23    2    1    0    0    0  0.22440255961E+02 -0.67836410312E+01 -0.14569028121E+02  0.97398560660E+02  0.93405782289E+02 0.  0.
         11    1    3    3    0    0 -0.35035251917E+02 -0.13156028121E+02  0.12548072430E+01  0.37444952855E+02  0.51100000000E-03 0. -1.
         22    1    1    0    0    0 -0.22440255961E+02  0.67836410312E+01  0.14569028121E+02  0.27601439340E+02  0.00000000000E+00 0.  1.
</event>
<event>
 5    1  0.8875601E-005  0.9118800E+02  0.7818608E-02  0.1130116E+00
         25   -1    0    0    0    0  0.00000000000E+00  0.00000000000E+00  0.99999998245E-14  0.12500000000E+03  0.12500000000E+03 0.  0.
        -11    1    3    3    0    0 -0.47710334964E+02  0.83357696685E+01 -0.86764088474E+01  0.49204076956E+02  0.51100000000E-03 0.  1.
         23    2    1    0    0    0 -0.61694028212E+01  0.28138850802E+02  0.76648571402E+00  0.96182575480E+02  0.91764066333E+02 0.  0.
         11    1    3    3    0    0  0.41540932142E+02  0.19803081133E+02  0.94428945614E+01  0.46978498524E+02  0.51100000000E-03 0. -1.
         22    1    1    0    0    0  0.61694028212E+01 -0.28138850802E+02 -0.76648571402E+00  0.28817424520E+02  0.00000000000E+00 0. -1.
</event>
<event>
 5    1  0.8875601E-005  0.9118800E+02  0.7818608E-02  0.1130116E+00
         25   -1    0    0    0    0  0.00000000000E+00  0.00000000000E+00  0.99999998245E-14  0.12500000000E+03  0.12500000000E+03 0.  0.
        -11    1    3    3    0    0  0.20136949700E+02  0.30463324179E+02 -0.47896580379E+02  0.60229505025E+02  0.51100000000E-03 0. -1.
         23    2    1    0    0    0 -0.14954667913E+01  0.12839924483E+02 -0.26919284329E+02  0.95137850874E+02  0.90329744373E+02 0.  0.
         11    1    3    3    0    0 -0.21632416491E+02 -0.17623399696E+02  0.20977296050E+02  0.34908345849E+02  0.51100000000E-03 0.  1.
         22    1    1    0    0    0  0.14954667913E+01 -0.12839924483E+02  0.26919284329E+02  0.29862149126E+02  0.00000000000E+00 0. -1.
</event>
<event>
 5    1  0.8875601E-005  0.9118800E+02  0.7818608E-02  0.1130116E+00
         25   -1    0    0    0    0  0.00000000000E+00  0.00000000000E+00  0.99999998245E-14  0.12500000000E+03  0.12500000000E+03 0.  0.
        -11    1    3    3    0    0  0.16281659865E+02 -0.26006430701E+02  0.34783422525E+02  0.46382252733E+02  0.51100000000E-03 0.  1.
         23    2    1    0    0    0 -0.12161139545E+02  0.13143768811E+02  0.22379814885E+02  0.96338037612E+02  0.91975591344E+02 0.  0.
         11    1    3    3    0    0 -0.28442799411E+02  0.39150199512E+02 -0.12403607639E+02  0.49955784879E+02  0.51100000000E-03 0. -1.
         22    1    1    0    0    0  0.12161139545E+02 -0.13143768811E+02 -0.22379814885E+02  0.28661962388E+02  0.00000000000E+00 0. -1.
</event>
<event>
 5    1  0.8875601E-005  0.9118800E+02  0.7818608E-02  0.1130116E+00
         25   -1    0    0    0    0  0.00000000000E+00  0.00000000000E+00  0.99999998245E-14  0.12500000000E+03  0.12500000000E+03 0.  0.
        -11    1    3    3    0    0  0.60092238580E+01 -0.37508052472E+02  0.48758401923E+02  0.61808951860E+02  0.51100000000E-03 0.  1.
         23    2    1    0    0    0  0.12924493356E+01 -0.22528066255E+02  0.18819398938E+02  0.95617114320E+02  0.90990541157E+02 0.  0.
         11    1    3    3    0    0 -0.47167745224E+01  0.14979986217E+02 -0.29939002985E+02  0.33808162460E+02  0.51100000000E-03 0. -1.
         22    1    1    0    0    0 -0.12924493356E+01  0.22528066255E+02 -0.18819398938E+02  0.29382885680E+02  0.00000000000E+00 0.  1.
</event>
<event>
 5    1  0.8875601E-005  0.9118800E+02  0.7818608E-02  0.1130116E+00
         25   -1    0    0    0    0  0.00000000000E+00  0.00000000000E+00  0.99999998245E-14  0.12500000000E+03  0.12500000000E+03 0.  0.
        -11    1    3    3    0    0 -0.15010454348E+02 -0.20277215524E+02  0.50444161281E+02  0.56401175668E+02  0.51100000000E-03 0.  1.
         23    2    1    0    0    0  0.84657208000E+01  0.21521811724E+01  0.27466917790E+02  0.96177580161E+02  0.91757261513E+02 0.  0.
         11    1    3    3    0    0  0.23476175148E+02  0.22429396696E+02 -0.22977243490E+02  0.39776404493E+02  0.51100000000E-03 0. -1.
         22    1    1    0    0    0 -0.84657208000E+01 -0.21521811724E+01 -0.27466917790E+02  0.28822419839E+02  0.00000000000E+00 0.  1.
</event>
<event>
 5    1  0.8875601E-005  0.9118800E+02  0.7818608E-02  0.1130116E+00
         25   -1    0    0    0    0  0.00000000000E+00  0.00000000000E+00  0.99999998245E-14  0.12500000000E+03  0.12500000000E+03 0.  0.
        -11    1    3    3    0    0 -0.23023412776E+01 -0.34849832951E+02  0.48086370612E+02  0.59431562919E+02  0.51100000000E-03 0.  1.
         23    2    1    0    0    0  0.69104511260E+01 -0.65301255671E+01  0.28197152004E+02  0.95243046934E+02  0.90475199549E+02 0.  0.
         11    1    3    3    0    0  0.92127924037E+01  0.28319707384E+02 -0.19889218608E+02  0.35811484015E+02  0.51100000000E-03 0. -1.
         22    1    1    0    0    0 -0.69104511260E+01  0.65301255671E+01 -0.28197152004E+02  0.29756953066E+02  0.00000000000E+00 0.  1.
</event>
<event>
 5    1  0.8875601E-005  0.9118800E+02  0.7818608E-02  0.1130116E+00
         25   -1    0    0    0    0  0.00000000000E+00  0.00000000000E+00  0.99999998245E-14  0.12500000000E+03  0.12500000000E+03 0.  0.
        -11    1    3    3    0    0 -0.32773839580E+02  0.18649714747E+02  0.38107031117E+02  0.53610467651E+02  0.51100000000E-03 0. -1.
         23    2    1    0    0    0 -0.29302352628E+02 -0.52783724352E+01  0.46875628159E+01  0.94859291146E+02  0.89943442153E+02 0.  0.
         11    1    3    3    0    0  0.34714869518E+01 -0.23928087183E+02 -0.33419468301E+02  0.41248823494E+02  0.51100000000E-03 0.  1.
         22    1    1    0    0    0  0.29302352628E+02  0.52783724352E+01 -0.46875628159E+01  0.30140708854E+02  0.00000000000E+00 0. -1.
</event>
<event>
 5    1  0.8875601E-005  0.9118800E+02  0.7818608E-02  0.1130116E+00
         25   -1    0    0    0    0  0.00000000000E+00  0.00000000000E+00  0.99999998245E-14  0.12500000000E+03  0.12500000000E+03 0.  0.
        -11    1    3    3    0    0  0.49761026771E+02 -0.11183696726E+02  0.67952590297E+01  0.51452992171E+02  0.51100000000E-03 0. -1.
         23    2    1    0    0    0  0.10901079658E+02 -0.28354590113E+02  0.64798644747E+01  0.93938690275E+02  0.88654794393E+02 0.  0.
         11    1    3    3    0    0 -0.38859947114E+02 -0.17170893388E+02 -0.31539455502E+00  0.42485698104E+02  0.51100000000E-03 0.  1.
         22    1    1    0    0    0 -0.10901079658E+02  0.28354590113E+02 -0.64798644747E+01  0.31061309725E+02  0.00000000000E+00 0.  1.
</event>
<event>
 5    1  0.8875601E-005  0.9118800E+02  0.7818608E-02  0.1130116E+00
         25   -1    0    0    0    0  0.00000000000E+00  0.00000000000E+00  0.99999998245E-14  0.12500000000E+03  0.12500000000E+03 0.  0.
        -11    1    3    3    0    0 -0.45192292411E+02  0.20955523757E+02  0.27620644609E+02  0.56959435375E+02  0.51100000000E-03 0. -1.
         23    2    1    0    0    0 -0.30732253556E+02 -0.55543847122E+01  0.87529553921E+01  0.92566424399E+02  0.86698362728E+02 0.  0.
         11    1    3    3    0    0  0.14460038855E+02 -0.26509908469E+02 -0.18867689217E+02  0.35606989024E+02  0.51100000000E-03 0.  1.
         22    1    1    0    0    0  0.30732253556E+02  0.55543847122E+01 -0.87529553921E+01  0.32433575601E+02  0.00000000000E+00 0. -1.
</event>
<event>
 5    1  0.8875601E-005  0.9118800E+02  0.7818608E-02  0.1130116E+00
         25   -1    0    0    0    0  0.00000000000E+00  0.00000000000E+00  0.99999998245E-14  0.12500000000E+03  0.12500000000E+03 0.  0.
        -11    1    3    3    0    0 -0.24059253253E+01 -0.51027378193E+01 -0.52524310234E+02  0.52826409832E+02  0.51100000000E-03 0.  1.
         23    2    1    0    0    0 -0.46972732594E+01 -0.25210889017E+02 -0.15461425979E+02  0.95054900327E+02  0.90214882818E+02 0.  0.
         11    1    3    3    0    0 -0.22913479341E+01 -0.20108151198E+02  0.37062884255E+02  0.42228490495E+02  0.51100000000E-03 0. -1.
         22    1    1    0    0    0  0.46972732594E+01  0.25210889017E+02  0.15461425979E+02  0.29945099673E+02  0.00000000000E+00 0.  1.
</event>
<event>
 5    1  0.8875601E-005  0.9118800E+02  0.7818608E-02  0.1130116E+00
         25   -1    0    0    0    0  0.00000000000E+00  0.00000000000E+00  0.99999998245E-14  0.12500000000E+03  0.12500000000E+03 0.  0.
        -11    1    3    3    0    0  0.40894683084E+02 -0.33826912024E+02 -0.77166066599E+01  0.53630039159E+02  0.51100000000E-03 0.  1.
         23    2    1    0    0    0  0.29632959261E+01 -0.27423528042E+02  0.95701450687E+01  0.95803789807E+02  0.91246629810E+02 0.  0.
         11    1    3    3    0    0 -0.37931387157E+02  0.64033839818E+01  0.17286751729E+02  0.42173750648E+02  0.51100000000E-03 0. -1.
         22    1    1    0    0    0 -0.29632959261E+01  0.27423528042E+02 -0.95701450687E+01  0.29196210193E+02  0.00000000000E+00 0.  1.
</event>
<event>
 5    1  0.8875601E-005  0.9118800E+02  0.7818608E-02  0.1130116E+00
         25   -1    0    0    0    0  0.00000000000E+00  0.00000000000E+00  0.99999998245E-14  0.12500000000E+03  0.12500000000E+03 0.  0.
        -11    1    3    3    0    0 -0.26857587078E+02  0.51631541019E+02  0.57168418099E+01  0.58479297979E+02  0.51100000000E-03 0.  1.
         23    2    1    0    0    0  0.43984461005E+01  0.21260315531E+02 -0.34571106528E+01  0.10301593853E+03  0.10064285684E+03 0.  0.
         11    1    3    3    0    0  0.31256033178E+02 -0.30371225488E+02 -0.91739524627E+01  0.44536640553E+02  0.51100000000E-03 0. -1.
         22    1    1    0    0    0 -0.43984461005E+01 -0.21260315531E+02  0.34571106528E+01  0.21984061468E+02  0.00000000000E+00 0.  1.
</event>
<event>
 5    1  0.8875601E-005  0.9118800E+02  0.7818608E-02  0.1130116E+00
         25   -1    0    0    0    0  0.00000000000E+00  0.00000000000E+00  0.99999998245E-14  0.12500000000E+03  0.12500000000E+03 0.  0.
        -11    1    3    3    0    0  0.24099752327E+01 -0.23373920012E+02 -0.51662588043E+02  0.56755362045E+02  0.51100000000E-03 0. -1.
         23    2    1    0    0    0 -0.16082905721E+02 -0.87119970315E+01 -0.34551140739E+02  0.85906009732E+02  0.76495113785E+02 0.  0.
         11    1    3    3    0    0 -0.18492880954E+02  0.14661922981E+02  0.17111447303E+02  0.29150647686E+02  0.51100000000E-03 0.  1.
         22    1    1    0    0    0  0.16082905721E+02  0.87119970315E+01  0.34551140739E+02  0.39093990268E+02  0.00000000000E+00 0. -1.
</event>
<event>
 5    1  0.8875601E-005  0.9118800E+02  0.7818608E-02  0.1130116E+00
         25   -1    0    0    0    0  0.00000000000E+00  0.00000000000E+00  0.99999998245E-14  0.12500000000E+03  0.12500000000E+03 0.  0.
        -11    1    3    3    0    0 -0.26553947547E+02  0.33596344700E+02  0.96280775012E+01  0.43892213252E+02  0.51100000000E-03 0.  1.
         23    2    1    0    0    0 -0.12640555451E+02 -0.16889218233E+02 -0.12203992126E+02  0.10062856675E+03  0.97632687603E+02 0.  0.
         11    1    3    3    0    0  0.13913392096E+02 -0.50485562933E+02 -0.21832069628E+02  0.56736353502E+02  0.51100000000E-03 0. -1.
         22    1    1    0    0    0  0.12640555451E+02  0.16889218233E+02  0.12203992126E+02  0.24371433245E+02  0.00000000000E+00 0. -1.
</event>
<event>
 5    1  0.8875601E-005  0.9118800E+02  0.7818608E-02  0.1130116E+00
         25   -1    0    0    0    0  0.00000000000E+00  0.00000000000E+00  0.99999998245E-14  0.12500000000E+03  0.12500000000E+03 0.  0.
        -11    1    3    3    0    0  0.10556629980E+02 -0.30263138595E+02  0.13049821598E+02  0.34606326563E+02  0.51100000000E-03 0.  1.
         23    2    1    0    0    0 -0.11611722201E+02  0.26220149975E+02  0.22724468861E+01  0.96233832858E+02  0.91833862025E+02 0.  0.
         11    1    3    3    0    0 -0.22168352181E+02  0.56483288571E+02 -0.10777374712E+02  0.61627506295E+02  0.51100000000E-03 0. -1.
         22    1    1    0    0    0  0.11611722201E+02 -0.26220149975E+02 -0.22724468861E+01  0.28766167142E+02  0.00000000000E+00 0. -1.
</event>
<event>
 4    1  0.8875601E-005  0.9118800E+02  0.7818608E-02  0.1130116E+00
         25   -1    0    0    0    0  0.00000000000E+00  0.00000000000E+00  0.99999998245E-14  0.12500000000E+03  0.12500000000E+03 0.  0.
        -11    1    1    0    0    0  0.32291410250E+02 -0.48417277606E+02  0.16655687848E+02  0.60534121656E+02  0.51100000000E-03 0.  1.
         11    1    1    0    0    0 -0.74084221838E+01  0.23584858906E+01  0.32929091641E+01  0.84433657966E+01  0.51100000000E-03 0. -1.
         22    1    1    0    0    0 -0.24882988066E+02  0.46058791715E+02 -0.19948597012E+02  0.56022512548E+02  0.00000000000E+00 0.  1.
</event>
<event>
 5    1  0.8875601E-005  0.9118800E+02  0.7818608E-02  0.1130116E+00
         25   -1    0    0    0    0  0.00000000000E+00  0.00000000000E+00  0.99999998245E-14  0.12500000000E+03  0.12500000000E+03 0.  0.
        -11    1    3    3    0    0 -0.30891621332E+02  0.33469597886E+01 -0.16759608761E+02  0.35304091752E+02  0.51100000000E-03 0. -1.
         23    2    1    0    0    0  0.18560206283E+02 -0.14874788986E+02  0.15041689751E+02  0.96857629183E+02  0.92679055324E+02 0.  0.
         11    1    3    3    0    0  0.49451827615E+02 -0.18221748775E+02  0.31801298512E+02  0.61553537431E+02  0.51100000000E-03 0.  1.
         22    1    1    0    0    0 -0.18560206283E+02  0.14874788986E+02 -0.15041689751E+02  0.28142370817E+02  0.00000000000E+00 0.  1.
</event>
<event>
 5    1  0.8875601E-005  0.9118800E+02  0.7818608E-02  0.1130116E+00
         25   -1    0    0    0    0  0.00000000000E+00  0.00000000000E+00  0.99999998245E-14  0.12500000000E+03  0.12500000000E+03 0.  0.
        -11    1    3    3    0    0  0.24098392040E+02 -0.12589059482E+02  0.66684907287E+01  0.27994386695E+02  0.51100000000E-03 0.  1.
         23    2    1    0    0    0 -0.34253921809E+02 -0.37677481026E+01  0.14664693471E+02  0.87548961033E+02  0.79134317829E+02 0.  0.
         11    1    3    3    0    0 -0.58352313850E+02  0.88213113792E+01  0.79962027427E+01  0.59554574338E+02  0.51100000000E-03 0. -1.
         22    1    1    0    0    0  0.34253921809E+02  0.37677481026E+01 -0.14664693471E+02  0.37451038967E+02  0.00000000000E+00 0. -1.
</event>
<event>
 5    1  0.8875601E-005  0.9118800E+02  0.7818608E-02  0.1130116E+00
         25   -1    0    0    0    0  0.00000000000E+00  0.00000000000E+00  0.99999998245E-14  0.12500000000E+03  0.12500000000E+03 0.  0.
        -11    1    3    3    0    0 -0.64829128591E+01  0.94504304480E+01 -0.15798638041E+02  0.19517575644E+02  0.51100000000E-03 0. -1.
         23    2    1    0    0    0  0.43564229708E+02  0.45445529584E+01  0.15253507934E+02  0.78619351277E+02  0.63481003610E+02 0.  0.
         11    1    3    3    0    0  0.50047142568E+02 -0.49058774896E+01  0.31052145975E+02  0.59101775633E+02  0.51100000000E-03 0.  1.
         22    1    1    0    0    0 -0.43564229708E+02 -0.45445529584E+01 -0.15253507934E+02  0.46380648723E+02  0.00000000000E+00 0.  1.
</event>
<event>
 5    1  0.8875601E-005  0.9118800E+02  0.7818608E-02  0.1130116E+00
         25   -1    0    0    0    0  0.00000000000E+00  0.00000000000E+00  0.99999998245E-14  0.12500000000E+03  0.12500000000E+03 0.  0.
        -11    1    3    3    0    0 -0.26473846068E+02  0.34364602730E+01  0.52453591527E+02  0.58856206548E+02  0.51100000000E-03 0. -1.
         23    2    1    0    0    0 -0.16916109124E+02 -0.12373540627E+02  0.21020999676E+02  0.95315969228E+02  0.90575892526E+02 0.  0.
         11    1    3    3    0    0  0.95577369443E+01 -0.15810000900E+02 -0.31432591851E+02  0.36459762680E+02  0.51100000000E-03 0.  1.
         22    1    1    0    0    0  0.16916109124E+02  0.12373540627E+02 -0.21020999676E+02  0.29684030772E+02  0.00000000000E+00 0. -1.
</event>
<event>
 5    1  0.8875601E-005  0.9118800E+02  0.7818608E-02  0.1130116E+00
         25   -1    0    0    0    0  0.00000000000E+00  0.00000000000E+00  0.99999998245E-14  0.12500000000E+03  0.12500000000E+03 0.  0.
        -11    1    3    3    0    0 -0.30582124310E+02  0.47028806083E+02  0.15664628255E+02  0.58243931079E+02  0.51100000000E-03 0. -1.
         23    2    1    0    0    0 -0.82261776345E+01  0.17136494516E+02  0.21804632696E+02  0.96072997912E+02  0.91614679381E+02 0.  0.
         11    1    3    3    0    0  0.22355946676E+02 -0.29892311568E+02  0.61400044414E+01  0.37829066833E+02  0.51100000000E-03 0.  1.
         22    1    1    0    0    0  0.82261776345E+01 -0.17136494516E+02 -0.21804632696E+02  0.28927002088E+02  0.00000000000E+00 0. -1.
</event>
<event>
 5    1  0.8875601E-005  0.9118800E+02  0.7818608E-02  0.1130116E+00
         25   -1    0    0    0    0  0.00000000000E+00  0.00000000000E+00  0.99999998245E-14  0.12500000000E+03  0.12500000000E+03 0.  0.
        -11    1    3    3    0    0 -0.78726945505E+01  0.11061207233E+02  0.51608190429E+02  0.53364172856E+02  0.51100000000E-03 0. -1.
         23    2    1    0    0    0 -0.79842450725E+00 -0.18533259361E+02  0.25552956663E+02  0.93423540755E+02  0.87925452451E+02 0.  0.
         11    1    3    3    0    0  0.70742700433E+01 -0.29594466593E+02 -0.26055233766E+02  0.40059367899E+02  0.51100000000E-03 0.  1.
         22    1    1    0    0    0  0.79842450725E+00  0.18533259361E+02 -0.25552956663E+02  0.31576459245E+02  0.00000000000E+00 0. -1.
</event>
<event>
 5    1  0.8875601E-005  0.9118800E+02  0.7818608E-02  0.1130116E+00
         25   -1    0    0    0    0  0.00000000000E+00  0.00000000000E+00  0.99999998245E-14  0.12500000000E+03  0.12500000000E+03 0.  0.
        -11    1    3    3    0    0  0.10074761627E+01  0.41587454577E+02  0.15318282639E+02  0.44330363970E+02  0.51100000000E-03 0. -1.
         23    2    1    0    0    0  0.21848129306E+02 -0.45967312397E+01  0.19749032218E+02  0.95192367323E+02  0.90405153784E+02 0.  0.
         11    1    3    3    0    0  0.20840653143E+02 -0.46184185817E+02  0.44307495792E+01  0.50862003353E+02  0.51100000000E-03 0.  1.
         22    1    1    0    0    0 -0.21848129306E+02  0.45967312397E+01 -0.19749032218E+02  0.29807632677E+02  0.00000000000E+00 0. -1.
</event>
<event>
 5    1  0.8875601E-005  0.9118800E+02  0.7818608E-02  0.1130116E+00
         25   -1    0    0    0    0  0.00000000000E+00  0.00000000000E+00  0.99999998245E-14  0.12500000000E+03  0.12500000000E+03 0.  0.
        -11    1    3    3    0    0 -0.38240043592E+02 -0.16362702917E+02  0.15956243689E+02  0.44549306320E+02  0.51100000000E-03 0. -1.
         23    2    1    0    0    0  0.15876920558E+02 -0.10481591612E+02  0.17702787447E+02  0.99012906040E+02  0.95541752705E+02 0.  0.
         11    1    3    3    0    0  0.54116964151E+02  0.58811113050E+01  0.17465437579E+01  0.54463599720E+02  0.51100000000E-03 0.  1.
         22    1    1    0    0    0 -0.15876920558E+02  0.10481591612E+02 -0.17702787447E+02  0.25987093960E+02  0.00000000000E+00 0.  1.
</event>
<event>
 5    1  0.8875601E-005  0.9118800E+02  0.7818608E-02  0.1130116E+00
         25   -1    0    0    0    0  0.00000000000E+00  0.00000000000E+00  0.99999998245E-14  0.12500000000E+03  0.12500000000E+03 0.  0.
        -11    1    3    3    0    0  0.49695258014E+02 -0.30712177751E+02 -0.25277781696E+01  0.58474320808E+02  0.51100000000E-03 0. -1.
         23    2    1    0    0    0  0.25531939158E+02  0.16777603637E+01  0.29076868702E+01  0.99248311902E+02  0.95849246087E+02 0.  0.
         11    1    3    3    0    0 -0.24163318856E+02  0.32389938115E+02  0.54354650398E+01  0.40773991093E+02  0.51100000000E-03 0.  1.
         22    1    1    0    0    0 -0.25531939158E+02 -0.16777603637E+01 -0.29076868702E+01  0.25751688098E+02  0.00000000000E+00 0. -1.
</event>
<event>
 5    1  0.8875601E-005  0.9118800E+02  0.7818608E-02  0.1130116E+00
         25   -1    0    0    0    0  0.00000000000E+00  0.00000000000E+00  0.99999998245E-14  0.12500000000E+03  0.12500000000E+03 0.  0.
        -11    1    3    3    0    0 -0.35551367391E+02 -0.31694297909E+02 -0.12679889189E+02  0.49286994567E+02  0.51100000000E-03 0.  1.
         23    2    1    0    0    0 -0.18753645241E+02 -0.86391659232E+01  0.22422769680E+02  0.94518612272E+02  0.89468726760E+02 0.  0.
         11    1    3    3    0    0  0.16797722150E+02  0.23055131986E+02  0.35102658869E+02  0.45231617705E+02  0.51100000000E-03 0. -1.
         22    1    1    0    0    0  0.18753645241E+02  0.86391659232E+01 -0.22422769680E+02  0.30481387728E+02  0.00000000000E+00 0.  1.
</event>
<event>
 5    1  0.8875601E-005  0.9118800E+02  0.7818608E-02  0.1130116E+00
         25   -1    0    0    0    0  0.00000000000E+00  0.00000000000E+00  0.99999998245E-14  0.12500000000E+03  0.12500000000E+03 0.  0.
        -11    1    3    3    0    0  0.28965520501E+02 -0.12289730861E+02 -0.13818846016E+02  0.34365671359E+02  0.51100000000E-03 0. -1.
         23    2    1    0    0    0 -0.32214328548E+01  0.64726437124E+01  0.31298535736E+02  0.92877249721E+02  0.87145352316E+02 0.  0.
         11    1    3    3    0    0 -0.32186953356E+02  0.18762374573E+02  0.45117381752E+02  0.58511578361E+02  0.51100000000E-03 0.  1.
         22    1    1    0    0    0  0.32214328548E+01 -0.64726437124E+01 -0.31298535736E+02  0.32122750279E+02  0.00000000000E+00 0.  1.
</event>
<event>
 5    1  0.8875601E-005  0.9118800E+02  0.7818608E-02  0.1130116E+00
         25   -1    0    0    0    0  0.00000000000E+00  0.00000000000E+00  0.99999998245E-14  0.12500000000E+03  0.12500000000E+03 0.  0.
        -11    1    3    3    0    0 -0.22982219233E+02  0.27284301356E+02 -0.20086508978E+01  0.35730241813E+02  0.51100000000E-03 0.  1.
         23    2    1    0    0    0  0.30995540889E+02  0.98328111053E+01 -0.57660168439E+00  0.92477081946E+02  0.86569454697E+02 0.  0.
         11    1    3    3    0    0  0.53977760123E+02 -0.17451490250E+02  0.14320492135E+01  0.56746840132E+02  0.51100000000E-03 0. -1.
         22    1    1    0    0    0 -0.30995540889E+02 -0.98328111053E+01  0.57660168439E+00  0.32522918054E+02  0.00000000000E+00 0. -1.
</event>
<event>
 5    1  0.8875601E-005  0.9118800E+02  0.7818608E-02  0.1130116E+00
         25   -1    0    0    0    0  0.00000000000E+00  0.00000000000E+00  0.99999998245E-14  0.12500000000E+03  0.12500000000E+03 0.  0.
        -11    1    3    3    0    0 -0.44921095415E+02  0.60496895665E+01 -0.13449914325E+02  0.47280056607E+02  0.51100000000E-03 0.  1.
         23    2    1    0    0    0 -0.18959539308E+02 -0.22010448767E+02  0.12385622793E+02  0.93419505424E+02  0.87919715400E+02 0.  0.
         11    1    3    3    0    0  0.25961556107E+02 -0.28060138333E+02  0.25835537117E+02  0.46139448818E+02  0.51100000000E-03 0. -1.
         22    1    1    0    0    0  0.18959539308E+02  0.22010448767E+02 -0.12385622793E+02  0.31580494576E+02  0.00000000000E+00 0. -1.
</event>
<event>
 5    1  0.8875601E-005  0.9118800E+02  0.7818608E-02  0.1130116E+00
         25   -1    0    0    0    0  0.00000000000E+00  0.00000000000E+00  0.99999998245E-14  0.12500000000E+03  0.12500000000E+03 0.  0.
        -11    1    3    3    0    0 -0.32902164086E+02 -0.15938726026E+02 -0.64267741770E+01  0.37120059476E+02  0.51100000000E-03 0. -1.
         23    2    1    0    0    0 -0.27182214816E+02 -0.71286756359E+01  0.35146823346E+02  0.80000111001E+02  0.66143992548E+02 0.  0.
         11    1    3    3    0    0  0.57199492705E+01  0.88100503904E+01  0.41573597523E+02  0.42880051525E+02  0.51100000000E-03 0.  1.
         22    1    1    0    0    0  0.27182214816E+02  0.71286756359E+01 -0.35146823346E+02  0.44999888999E+02  0.00000000000E+00 0. -1.
</event>
<event>
 5    1  0.8875601E-005  0.9118800E+02  0.7818608E-02  0.1130116E+00
         25   -1    0    0    0    0  0.00000000000E+00  0.00000000000E+00  0.99999998245E-14  0.12500000000E+03  0.12500000000E+03 0.  0.
        -11    1    3    3    0    0 -0.21996749714E+02 -0.25569474535E+02 -0.59636227346E+01  0.34252296600E+02  0.51100000000E-03 0.  1.
         23    2    1    0    0    0  0.22109679950E+02  0.17227755200E+02 -0.83431510326E+01  0.95755484858E+02  0.91180432191E+02 0.  0.
         11    1    3    3    0    0  0.44106429664E+02  0.42797229735E+02 -0.23795282980E+01  0.61503188258E+02  0.51100000000E-03 0. -1.
         22    1    1    0    0    0 -0.22109679950E+02 -0.17227755200E+02  0.83431510326E+01  0.29244515142E+02  0.00000000000E+00 0. -1.
</event>
<event>
 5    1  0.8875601E-005  0.9118800E+02  0.7818608E-02  0.1130116E+00
         25   -1    0    0    0    0  0.00000000000E+00  0.00000000000E+00  0.99999998245E-14  0.12500000000E+03  0.12500000000E+03 0.  0.
        -11    1    3    3    0    0  0.34367879034E+02 -0.46833220502E+02  0.22417184088E+01  0.58133698950E+02  0.51100000000E-03 0. -1.
         23    2    1    0    0    0  0.62728842507E+01 -0.26799246891E+02 -0.11360173633E+02  0.95224132999E+02  0.90449064393E+02 0.  0.
         11    1    3    3    0    0 -0.28094994783E+02  0.20033973612E+02 -0.13601892041E+02  0.37090434049E+02  0.51100000000E-03 0.  1.
         22    1    1    0    0    0 -0.62728842507E+01  0.26799246891E+02  0.11360173633E+02  0.29775867001E+02  0.00000000000E+00 0. -1.
</event>
<event>
 5    1  0.8875601E-005  0.9118800E+02  0.7818608E-02  0.1130116E+00
         25   -1    0    0    0    0  0.00000000000E+00  0.00000000000E+00  0.99999998245E-14  0.12500000000E+03  0.12500000000E+03 0.  0.
        -11    1    3    3    0    0 -0.17466325572E+02 -0.12876817899E+02  0.50069165353E+02  0.54569279706E+02  0.51100000000E-03 0.  1.
         23    2    1    0    0    0  0.99422771234E+01  0.73078687241E+01  0.25883796793E+02  0.96325538259E+02  0.91958602452E+02 0.  0.
         11    1    3    3    0    0  0.27408602695E+02  0.20184686623E+02 -0.24185368560E+02  0.41756258554E+02  0.51100000000E-03 0. -1.
         22    1    1    0    0    0 -0.99422771234E+01 -0.73078687241E+01 -0.25883796793E+02  0.28674461741E+02  0.00000000000E+00 0.  1.
</event>
<event>
 5    1  0.8875601E-005  0.9118800E+02  0.7818608E-02  0.1130116E+00
         25   -1    0    0    0    0  0.00000000000E+00  0.00000000000E+00  0.99999998245E-14  0.12500000000E+03  0.12500000000E+03 0.  0.
        -11    1    3    3    0    0  0.24643058033E+02 -0.21989054742E+02 -0.10518015327E+02  0.34661613989E+02  0.51100000000E-03 0. -1.
         23    2    1    0    0    0 -0.26989376019E+02  0.30048378700E+00  0.12282135498E+02  0.95345867728E+02  0.90617144802E+02 0.  0.
         11    1    3    3    0    0 -0.51632434052E+02  0.22289538529E+02  0.22800150824E+02  0.60684253739E+02  0.51100000000E-03 0.  1.
         22    1    1    0    0    0  0.26989376019E+02 -0.30048378700E+00 -0.12282135498E+02  0.29654132272E+02  0.00000000000E+00 0.  1.
</event>
<event>
 5    1  0.8875601E-005  0.9118800E+02  0.7818608E-02  0.1130116E+00
         25   -1    0    0    0    0  0.00000000000E+00  0.00000000000E+00  0.99999998245E-14  0.12500000000E+03  0.12500000000E+03 0.  0.
        -11    1    3    3    0    0 -0.42681952459E+02 -0.22838649147E+02 -0.12546934722E+01  0.48424448541E+02  0.51100000000E-03 0.  1.
         23    2    1    0    0    0  0.34624591133E+01 -0.29070009776E+02  0.46391069909E+01  0.95359227318E+02  0.90635571546E+02 0.  0.
         11    1    3    3    0    0  0.46144411572E+02 -0.62313606298E+01  0.58938004631E+01  0.46934778777E+02  0.51100000000E-03 0. -1.
         22    1    1    0    0    0 -0.34624591133E+01  0.29070009776E+02 -0.46391069909E+01  0.29640772682E+02  0.00000000000E+00 0.  1.
</event>
<event>
 5    1  0.8875601E-005  0.9118800E+02  0.7818608E-02  0.1130116E+00
         25   -1    0    0    0    0  0.00000000000E+00  0.00000000000E+00  0.99999998245E-14  0.12500000000E+03  0.12500000000E+03 0.  0.
        -11    1    3    3    0    0 -0.24450624194E+02  0.21422124288E+02  0.43196133678E+02  0.54061505690E+02  0.51100000000E-03 0.  1.
         23    2    1    0    0    0 -0.34532705883E+02  0.16167413296E+02  0.15794361126E+02  0.83728280001E+02  0.72849639672E+02 0.  0.
         11    1    3    3    0    0 -0.10082081689E+02 -0.52547109921E+01 -0.27401772552E+02  0.29666774311E+02  0.51100000000E-03 0. -1.
         22    1    1    0    0    0  0.34532705883E+02 -0.16167413296E+02 -0.15794361126E+02  0.41271719999E+02  0.00000000000E+00 0.  1.
</event>
<event>
 5    1  0.8875601E-005  0.9118800E+02  0.7818608E-02  0.1130116E+00
         25   -1    0    0    0    0  0.00000000000E+00  0.00000000000E+00  0.99999998245E-14  0.12500000000E+03  0.12500000000E+03 0.  0.
        -11    1    3    3    0    0  0.14013954002E+02  0.26986315811E+02 -0.65306523376E+01  0.31101472120E+02  0.51100000000E-03 0. -1.
         23    2    1    0    0    0  0.46347277374E+01  0.43950002839E+01  0.40439436010E+02  0.84059253628E+02  0.73415348578E+02 0.  0.
         11    1    3    3    0    0 -0.93792262643E+01 -0.22591315527E+02  0.46970088348E+02  0.52957781508E+02  0.51100000000E-03 0.  1.
         22    1    1    0    0    0 -0.46347277374E+01 -0.43950002839E+01 -0.40439436010E+02  0.40940746372E+02  0.00000000000E+00 0.  1.
</event>
<event>
 5    1  0.8875601E-005  0.9118800E+02  0.7818608E-02  0.1130116E+00
         25   -1    0    0    0    0  0.00000000000E+00  0.00000000000E+00  0.99999998245E-14  0.12500000000E+03  0.12500000000E+03 0.  0.
        -11    1    3    3    0    0  0.35483902580E+02 -0.40946385419E+02  0.21921335901E+02  0.58448770638E+02  0.51100000000E-03 0. -1.
         23    2    1    0    0    0  0.25786232321E+01 -0.26826363616E+02  0.77520800775E+01  0.96957214330E+02  0.92813272663E+02 0.  0.
         11    1    3    3    0    0 -0.32905279348E+02  0.14120021803E+02 -0.14169255824E+02  0.38508443692E+02  0.51100000000E-03 0.  1.
         22    1    1    0    0    0 -0.25786232321E+01  0.26826363616E+02 -0.77520800775E+01  0.28042785670E+02  0.00000000000E+00 0. -1.
</event>
<event>
 5    1  0.8875601E-005  0.9118800E+02  0.7818608E-02  0.1130116E+00
         25   -1    0    0    0    0  0.00000000000E+00  0.00000000000E+00  0.99999998245E-14  0.12500000000E+03  0.12500000000E+03 0.  0.
        -11    1    3    3    0    0 -0.30234649319E+02 -0.39834930459E+02  0.32244406550E+02  0.59503423919E+02  0.51100000000E-03 0.  1.
         23    2    1    0    0    0 -0.23004704626E+02 -0.80931785739E+01  0.12231289842E+02  0.97717763553E+02  0.93831982225E+02 0.  0.
         11    1    3    3    0    0  0.72299446933E+01  0.31741751886E+02 -0.20013116707E+02  0.38214339634E+02  0.51100000000E-03 0. -1.
         22    1    1    0    0    0  0.23004704626E+02  0.80931785739E+01 -0.12231289842E+02  0.27282236447E+02  0.00000000000E+00 0. -1.
</event>
<event>
 5    1  0.8875601E-005  0.9118800E+02  0.7818608E-02  0.1130116E+00
         25   -1    0    0    0    0  0.00000000000E+00  0.00000000000E+00  0.99999998245E-14  0.12500000000E+03  0.12500000000E+03 0.  0.
        -11    1    3    3    0    0  0.29033996940E+02  0.95362452354E+01 -0.85814480913E+00  0.30572035658E+02  0.51100000000E-03 0.  1.
         23    2    1    0    0    0 -0.31539935304E+02  0.10805373119E+02 -0.49394122856E+01  0.91296566926E+02  0.84847756196E+02 0.  0.
         11    1    3    3    0    0 -0.60573932245E+02  0.12691278837E+01 -0.40812674764E+01  0.60724531268E+02  0.51100000000E-03 0. -1.
         22    1    1    0    0    0  0.31539935304E+02 -0.10805373119E+02  0.49394122856E+01  0.33703433074E+02  0.00000000000E+00 0. -1.
</event>
<event>
 5    1  0.8875601E-005  0.9118800E+02  0.7818608E-02  0.1130116E+00
         25   -1    0    0    0    0  0.00000000000E+00  0.00000000000E+00  0.99999998245E-14  0.12500000000E+03  0.12500000000E+03 0.  0.
        -11    1    3    3    0    0  0.35471415391E+02  0.18042187458E+02 -0.31571187553E+02  0.50798442121E+02  0.51100000000E-03 0.  1.
         23    2    1    0    0    0 -0.91094431695E+01  0.10889593807E+02 -0.24757364603E+02  0.96460688336E+02  0.92142129800E+02 0.  0.
         11    1    3    3    0    0 -0.44580858561E+02 -0.71525936508E+01  0.68138229493E+01  0.45662246215E+02  0.51100000000E-03 0. -1.
         22    1    1    0    0    0  0.91094431695E+01 -0.10889593807E+02  0.24757364603E+02  0.28539311664E+02  0.00000000000E+00 0. -1.
</event>
<event>
 5    1  0.8875601E-005  0.9118800E+02  0.7818608E-02  0.1130116E+00
         25   -1    0    0    0    0  0.00000000000E+00  0.00000000000E+00  0.99999998245E-14  0.12500000000E+03  0.12500000000E+03 0.  0.
        -11    1    3    3    0    0  0.92292824434E+01 -0.29314104957E+02 -0.36156981783E+02  0.47453384871E+02  0.51100000000E-03 0. -1.
         23    2    1    0    0    0 -0.25809681470E+02 -0.59971056844E+01 -0.14785849367E+02  0.94656528285E+02  0.89661207171E+02 0.  0.
         11    1    3    3    0    0 -0.35038963914E+02  0.23316999272E+02  0.21371132415E+02  0.47203143414E+02  0.51100000000E-03 0.  1.
         22    1    1    0    0    0  0.25809681470E+02  0.59971056844E+01  0.14785849367E+02  0.30343471715E+02  0.00000000000E+00 0. -1.
</event>
<event>
 5    1  0.8875601E-005  0.9118800E+02  0.7818608E-02  0.1130116E+00
         25   -1    0    0    0    0  0.00000000000E+00  0.00000000000E+00  0.99999998245E-14  0.12500000000E+03  0.12500000000E+03 0.  0.
        -11    1    3    3    0    0  0.10302146465E+01 -0.33018622982E+02 -0.10792205039E+01  0.33052314941E+02  0.51100000000E-03 0. -1.
         23    2    1    0    0    0  0.45696703393E+01  0.28197442970E+02 -0.93892365866E+01  0.94931154982E+02  0.90043260411E+02 0.  0.
         11    1    3    3    0    0  0.35394556928E+01  0.61216065952E+02 -0.83100160827E+01  0.61878840040E+02  0.51100000000E-03 0.  1.
         22    1    1    0    0    0 -0.45696703393E+01 -0.28197442970E+02  0.93892365866E+01  0.30068845018E+02  0.00000000000E+00 0.  1.
</event>
<event>
 5    1  0.8875601E-005  0.9118800E+02  0.7818608E-02  0.1130116E+00
         25   -1    0    0    0    0  0.00000000000E+00  0.00000000000E+00  0.99999998245E-14  0.12500000000E+03  0.12500000000E+03 0.  0.
        -11    1    3    3    0    0 -0.34047336693E+02 -0.27248929364E+02  0.20092581211E+02  0.48014967535E+02  0.51100000000E-03 0. -1.
         23    2    1    0    0    0  0.67622220480E+01 -0.60006582773E+01  0.28776110533E+02  0.94837107496E+02  0.89912606869E+02 0.  0.
         11    1    3    3    0    0  0.40809558741E+02  0.21248271087E+02  0.86835293224E+01  0.46822139961E+02  0.51100000000E-03 0.  1.
         22    1    1    0    0    0 -0.67622220480E+01  0.60006582773E+01 -0.28776110533E+02  0.30162892504E+02  0.00000000000E+00 0.  1.
</event>
<event>
 5    1  0.8875601E-005  0.9118800E+02  0.7818608E-02  0.1130116E+00
         25   -1    0    0    0    0  0.00000000000E+00  0.00000000000E+00  0.99999998245E-14  0.12500000000E+03  0.12500000000E+03 0.  0.
        -11    1    3    3    0    0  0.37549881867E+02  0.90152316444E+00  0.48096282488E+02  0.61025066667E+02  0.51100000000E-03 0.  1.
         23    2    1    0    0    0  0.15526634014E+02  0.96736972037E+01  0.23943664681E+02  0.94867694085E+02  0.89955119483E+02 0.  0.
         11    1    3    3    0    0 -0.22023247853E+02  0.87721740393E+01 -0.24152617807E+02  0.33842627418E+02  0.51100000000E-03 0. -1.
         22    1    1    0    0    0 -0.15526634014E+02 -0.96736972037E+01 -0.23943664681E+02  0.30132305915E+02  0.00000000000E+00 0.  1.
</event>
<event>
 5    1  0.8875601E-005  0.9118800E+02  0.7818608E-02  0.1130116E+00
         25   -1    0    0    0    0  0.00000000000E+00  0.00000000000E+00  0.99999998245E-14  0.12500000000E+03  0.12500000000E+03 0.  0.
        -11    1    3    3    0    0 -0.34371443562E+02  0.30447336496E+02  0.24612262116E+02  0.52097983444E+02  0.51100000000E-03 0.  1.
         23    2    1    0    0    0 -0.12938886699E+02 -0.83742843224E+01  0.24036437214E+02  0.96446650969E+02  0.92123084741E+02 0.  0.
         11    1    3    3    0    0  0.21432556863E+02 -0.38821620818E+02 -0.57582490173E+00  0.44348667525E+02  0.51100000000E-03 0. -1.
         22    1    1    0    0    0  0.12938886699E+02  0.83742843224E+01 -0.24036437214E+02  0.28553349031E+02  0.00000000000E+00 0.  1.
</event>
<event>
 5    1  0.8875601E-005  0.9118800E+02  0.7818608E-02  0.1130116E+00
         25   -1    0    0    0    0  0.00000000000E+00  0.00000000000E+00  0.99999998245E-14  0.12500000000E+03  0.12500000000E+03 0.  0.
        -11    1    3    3    0    0  0.17282015837E+02  0.48634361453E+02 -0.64379603166E+01  0.52013618588E+02  0.51100000000E-03 0.  1.
         23    2    1    0    0    0 -0.49169710198E+01  0.14927762990E+02 -0.24228221918E+02  0.96120570483E+02  0.91679564903E+02 0.  0.
         11    1    3    3    0    0 -0.22198986857E+02 -0.33706598462E+02 -0.17790261602E+02  0.44106951895E+02  0.51100000000E-03 0. -1.
         22    1    1    0    0    0  0.49169710198E+01 -0.14927762990E+02  0.24228221918E+02  0.28879429517E+02  0.00000000000E+00 0.  1.
</event>
<event>
 5    1  0.8875601E-005  0.9118800E+02  0.7818608E-02  0.1130116E+00
         25   -1    0    0    0    0  0.00000000000E+00  0.00000000000E+00  0.99999998245E-14  0.12500000000E+03  0.12500000000E+03 0.  0.
        -11    1    3    3    0    0 -0.16189454646E+02 -0.35950984332E+02  0.45200150736E+02  0.59980207927E+02  0.51100000000E-03 0.  1.
         23    2    1    0    0    0  0.19483411816E+01 -0.24277364784E+02  0.17894512736E+02  0.94777490834E+02  0.89829687233E+02 0.  0.
         11    1    3    3    0    0  0.18137795828E+02  0.11673619547E+02 -0.27305638000E+02  0.34797282907E+02  0.51100000000E-03 0. -1.
         22    1    1    0    0    0 -0.19483411816E+01  0.24277364784E+02 -0.17894512736E+02  0.30222509166E+02  0.00000000000E+00 0.  1.
</event>
<event>
 5    1  0.8875601E-005  0.9118800E+02  0.7818608E-02  0.1130116E+00
         25   -1    0    0    0    0  0.00000000000E+00  0.00000000000E+00  0.99999998245E-14  0.12500000000E+03  0.12500000000E+03 0.  0.
        -11    1    3    3    0    0 -0.16360204955E+02 -0.38303412601E+02 -0.31643664932E+01  0.41771053836E+02  0.51100000000E-03 0. -1.
         23    2    1    0    0    0 -0.25583668245E+02  0.10197774154E+02  0.14082494591E+02  0.94067244991E+02  0.88835866899E+02 0.  0.
         11    1    3    3    0    0 -0.92234632896E+01  0.48501186755E+02  0.17246861084E+02  0.52296191154E+02  0.51100000000E-03 0.  1.
         22    1    1    0    0    0  0.25583668245E+02 -0.10197774154E+02 -0.14082494591E+02  0.30932755009E+02  0.00000000000E+00 0. -1.
</event>
<event>
 5    1  0.8875601E-005  0.9118800E+02  0.7818608E-02  0.1130116E+00
         25   -1    0    0    0    0  0.00000000000E+00  0.00000000000E+00  0.99999998245E-14  0.12500000000E+03  0.12500000000E+03 0.  0.
        -11    1    3    3    0    0 -0.90531287839E+01  0.84124995028E+01  0.57931287978E+02  0.59234815908E+02  0.51100000000E-03 0.  1.
         23    2    1    0    0    0  0.26289532261E+01  0.16314738729E+02  0.25329272695E+02  0.94756750338E+02  0.89800821737E+02 0.  0.
         11    1    3    3    0    0  0.11682082010E+02  0.79022392262E+01 -0.32602015283E+02  0.35521934430E+02  0.51100000000E-03 0. -1.
         22    1    1    0    0    0 -0.26289532261E+01 -0.16314738729E+02 -0.25329272695E+02  0.30243249662E+02  0.00000000000E+00 0. -1.
</event>
<event>
 5    1  0.8875601E-005  0.9118800E+02  0.7818608E-02  0.1130116E+00
         25   -1    0    0    0    0  0.00000000000E+00  0.00000000000E+00  0.99999998245E-14  0.12500000000E+03  0.12500000000E+03 0.  0.
        -11    1    3    3    0    0  0.25001064863E+02  0.42006999452E+02  0.34160938039E+02  0.59637328372E+02  0.51100000000E-03 0. -1.
         23    2    1    0    0    0 -0.56339709063E+00  0.21604993615E+02  0.20912887034E+02  0.94926057633E+02  0.90036183883E+02 0.  0.
         11    1    3    3    0    0 -0.25564461954E+02 -0.20402005837E+02 -0.13248051005E+02  0.35288729261E+02  0.51100000000E-03 0.  1.
         22    1    1    0    0    0  0.56339709063E+00 -0.21604993615E+02 -0.20912887034E+02  0.30073942367E+02  0.00000000000E+00 0. -1.
</event>
<event>
 5    1  0.8875601E-005  0.9118800E+02  0.7818608E-02  0.1130116E+00
         25   -1    0    0    0    0  0.00000000000E+00  0.00000000000E+00  0.99999998245E-14  0.12500000000E+03  0.12500000000E+03 0.  0.
        -11    1    3    3    0    0 -0.40050591574E+02  0.41216982785E+02 -0.25545567913E+01  0.57527517902E+02  0.51100000000E-03 0.  1.
         23    2    1    0    0    0 -0.24727706308E+02  0.76214434004E+01 -0.13194037054E+02  0.95954716862E+02  0.91453153120E+02 0.  0.
         11    1    3    3    0    0  0.15322885266E+02 -0.33595539384E+02 -0.10639480263E+02  0.38427198960E+02  0.51100000000E-03 0. -1.
         22    1    1    0    0    0  0.24727706308E+02 -0.76214434004E+01  0.13194037054E+02  0.29045283138E+02  0.00000000000E+00 0.  1.
</event>
<event>
 5    1  0.8875601E-005  0.9118800E+02  0.7818608E-02  0.1130116E+00
         25   -1    0    0    0    0  0.00000000000E+00  0.00000000000E+00  0.99999998245E-14  0.12500000000E+03  0.12500000000E+03 0.  0.
        -11    1    3    3    0    0 -0.44454093820E+02 -0.16002964043E+02 -0.33936196261E+02  0.58171528538E+02  0.51100000000E-03 0.  1.
         23    2    1    0    0    0 -0.29644896809E+02  0.42950976370E+01 -0.86430224348E+01  0.93823572890E+02  0.88492334259E+02 0.  0.
         11    1    3    3    0    0  0.14809197011E+02  0.20298061680E+02  0.25293173826E+02  0.35652044353E+02  0.51100000000E-03 0. -1.
         22    1    1    0    0    0  0.29644896809E+02 -0.42950976370E+01  0.86430224348E+01  0.31176427110E+02  0.00000000000E+00 0.  1.
</event>
<event>
 5    1  0.8875601E-005  0.9118800E+02  0.7818608E-02  0.1130116E+00
         25   -1    0    0    0    0  0.00000000000E+00  0.00000000000E+00  0.99999998245E-14  0.12500000000E+03  0.12500000000E+03 0.  0.
        -11    1    3    3    0    0  0.22041607544E+02 -0.12294397019E+02 -0.49098442200E+02  0.55205449803E+02  0.51100000000E-03 0. -1.
         23    2    1    0    0    0  0.31232212431E+01  0.15240142957E+02 -0.21043827824E+02  0.98830186134E+02  0.95302395214E+02 0.  0.
         11    1    3    3    0    0 -0.18918386301E+02  0.27534539976E+02  0.28054614377E+02  0.43624736332E+02  0.51100000000E-03 0.  1.
         22    1    1    0    0    0 -0.31232212431E+01 -0.15240142957E+02  0.21043827824E+02  0.26169813866E+02  0.00000000000E+00 0. -1.
</event>
<event>
 5    1  0.8875601E-005  0.9118800E+02  0.7818608E-02  0.1130116E+00
         25   -1    0    0    0    0  0.00000000000E+00  0.00000000000E+00  0.99999998245E-14  0.12500000000E+03  0.12500000000E+03 0.  0.
        -11    1    3    3    0    0  0.41580977797E+02  0.17495183975E+02 -0.38501962408E+02  0.59308180603E+02  0.51100000000E-03 0. -1.
         23    2    1    0    0    0  0.28029952902E+02  0.48994961753E+01 -0.72333623989E+01  0.95640080823E+02  0.91022086363E+02 0.  0.
         11    1    3    3    0    0 -0.13551024895E+02 -0.12595687799E+02  0.31268600009E+02  0.36331900220E+02  0.51100000000E-03 0.  1.
         22    1    1    0    0    0 -0.28029952902E+02 -0.48994961753E+01  0.72333623989E+01  0.29359919177E+02  0.00000000000E+00 0. -1.
</event>
<event>
 5    1  0.8875601E-005  0.9118800E+02  0.7818608E-02  0.1130116E+00
         25   -1    0    0    0    0  0.00000000000E+00  0.00000000000E+00  0.99999998245E-14  0.12500000000E+03  0.12500000000E+03 0.  0.
        -11    1    3    3    0    0 -0.21260103316E+02 -0.28698780154E+02 -0.21493295528E+02  0.41684214377E+02  0.51100000000E-03 0. -1.
         23    2    1    0    0    0  0.12731599199E+02 -0.16634803208E+02  0.19565682987E+02  0.96335976440E+02  0.91972790052E+02 0.  0.
         11    1    3    3    0    0  0.33991702515E+02  0.12063976946E+02  0.41058978515E+02  0.54651762062E+02  0.51100000000E-03 0.  1.
         22    1    1    0    0    0 -0.12731599199E+02  0.16634803208E+02 -0.19565682987E+02  0.28664023560E+02  0.00000000000E+00 0.  1.
</event>
<event>
 5    1  0.8875601E-005  0.9118800E+02  0.7818608E-02  0.1130116E+00
         25   -1    0    0    0    0  0.00000000000E+00  0.00000000000E+00  0.99999998245E-14  0.12500000000E+03  0.12500000000E+03 0.  0.
        -11    1    3    3    0    0  0.20553502541E+02 -0.42436689573E+02  0.20424191812E+02  0.51385471683E+02  0.51100000000E-03 0.  1.
         23    2    1    0    0    0  0.20905747037E+02  0.10416925086E+01  0.21654499898E+02  0.94882683581E+02  0.89975946204E+02 0.  0.
         11    1    3    3    0    0  0.35224449536E+00  0.43478382082E+02  0.12303080863E+01  0.43497211898E+02  0.51100000000E-03 0. -1.
         22    1    1    0    0    0 -0.20905747037E+02 -0.10416925086E+01 -0.21654499898E+02  0.30117316419E+02  0.00000000000E+00 0.  1.
</event>
<event>
 5    1  0.8875601E-005  0.9118800E+02  0.7818608E-02  0.1130116E+00
         25   -1    0    0    0    0  0.00000000000E+00  0.00000000000E+00  0.99999998245E-14  0.12500000000E+03  0.12500000000E+03 0.  0.
        -11    1    3    3    0    0 -0.73695843179E+01 -0.33874264381E+02  0.48819086245E+01  0.35008707380E+02  0.51100000000E-03 0.  1.
         23    2    1    0    0    0  0.68983895556E+01  0.13824034468E+02 -0.26831866373E+02  0.94038075633E+02  0.88794813521E+02 0.  0.
         11    1    3    3    0    0  0.14267973873E+02  0.47698298848E+02 -0.31713774998E+02  0.59029368253E+02  0.51100000000E-03 0. -1.
         22    1    1    0    0    0 -0.68983895556E+01 -0.13824034468E+02  0.26831866373E+02  0.30961924367E+02  0.00000000000E+00 0. -1.
</event>
<event>
 5    1  0.8875601E-005  0.9118800E+02  0.7818608E-02  0.1130116E+00
         25   -1    0    0    0    0  0.00000000000E+00  0.00000000000E+00  0.99999998245E-14  0.12500000000E+03  0.12500000000E+03 0.  0.
        -11    1    3    3    0    0 -0.32737951566E+02 -0.15743449964E+02 -0.19980005894E+02  0.41458778628E+02  0.51100000000E-03 0.  1.
         23    2    1    0    0    0  0.17835820086E+02  0.10616224347E+02 -0.16300168340E+02  0.98608406917E+02  0.95011061089E+02 0.  0.
         11    1    3    3    0    0  0.50573771653E+02  0.26359674311E+02  0.36798375539E+01  0.57149628290E+02  0.51100000000E-03 0. -1.
         22    1    1    0    0    0 -0.17835820086E+02 -0.10616224347E+02  0.16300168340E+02  0.26391593083E+02  0.00000000000E+00 0. -1.
</event>
<event>
 5    1  0.8875601E-005  0.9118800E+02  0.7818608E-02  0.1130116E+00
         25   -1    0    0    0    0  0.00000000000E+00  0.00000000000E+00  0.99999998245E-14  0.12500000000E+03  0.12500000000E+03 0.  0.
        -11    1    3    3    0    0 -0.14172066937E+02 -0.35006803441E+02 -0.76911776026E+01  0.38541899040E+02  0.51100000000E-03 0. -1.
         23    2    1    0    0    0 -0.85886208923E+01  0.11443262097E+02  0.25400685125E+02  0.95846827599E+02  0.91305568832E+02 0.  0.
         11    1    3    3    0    0  0.55834460446E+01  0.46450065538E+02  0.33091862727E+02  0.57304928559E+02  0.51100000000E-03 0.  1.
         22    1    1    0    0    0  0.85886208923E+01 -0.11443262097E+02 -0.25400685125E+02  0.29153172401E+02  0.00000000000E+00 0.  1.
</event>
<event>
 5    1  0.8875601E-005  0.9118800E+02  0.7818608E-02  0.1130116E+00
         25   -1    0    0    0    0  0.00000000000E+00  0.00000000000E+00  0.99999998245E-14  0.12500000000E+03  0.12500000000E+03 0.  0.
        -11    1    3    3    0    0  0.13431816416E+02  0.61645204260E+01 -0.56891236503E+02  0.58779484477E+02  0.51100000000E-03 0.  1.
         23    2    1    0    0    0  0.20038975121E+02 -0.56096487387E+00 -0.20678511507E+02  0.96199374249E+02  0.91786946579E+02 0.  0.
         11    1    3    3    0    0  0.66071587053E+01 -0.67254852999E+01  0.36212724996E+02  0.37419889772E+02  0.51100000000E-03 0. -1.
         22    1    1    0    0    0 -0.20038975121E+02  0.56096487387E+00  0.20678511507E+02  0.28800625751E+02  0.00000000000E+00 0.  1.
</event>
<event>
 5    1  0.8875601E-005  0.9118800E+02  0.7818608E-02  0.1130116E+00
         25   -1    0    0    0    0  0.00000000000E+00  0.00000000000E+00  0.99999998245E-14  0.12500000000E+03  0.12500000000E+03 0.  0.
        -11    1    3    3    0    0  0.36554412489E+02  0.12454164929E+02 -0.13581530829E+02  0.40936405270E+02  0.51100000000E-03 0.  1.
         23    2    1    0    0    0 -0.11010080944E+02 -0.14826149063E+02 -0.21852751247E+02  0.96389174854E+02  0.92045063494E+02 0.  0.
         11    1    3    3    0    0 -0.47564493434E+02 -0.27280313992E+02 -0.82712204184E+01  0.55452769584E+02  0.51100000000E-03 0. -1.
         22    1    1    0    0    0  0.11010080944E+02  0.14826149063E+02  0.21852751247E+02  0.28610825146E+02  0.00000000000E+00 0. -1.
</event>
<event>
 5    1  0.8875601E-005  0.9118800E+02  0.7818608E-02  0.1130116E+00
         25   -1    0    0    0    0  0.00000000000E+00  0.00000000000E+00  0.99999998245E-14  0.12500000000E+03  0.12500000000E+03 0.  0.
        -11    1    3    3    0    0 -0.38839193597E+02  0.36959102747E+02  0.14464436872E+02  0.55530875821E+02  0.51100000000E-03 0. -1.
         23    2    1    0    0    0 -0.10129868249E+02  0.24232540444E+02 -0.11547990725E+02  0.96308775960E+02  0.91935814512E+02 0.  0.
         11    1    3    3    0    0  0.28709325348E+02 -0.12726562303E+02 -0.26012427598E+02  0.40777900139E+02  0.51100000000E-03 0.  1.
         22    1    1    0    0    0  0.10129868249E+02 -0.24232540444E+02  0.11547990725E+02  0.28691224040E+02  0.00000000000E+00 0. -1.
</event>
<event>
 5    1  0.8875601E-005  0.9118800E+02  0.7818608E-02  0.1130116E+00
         25   -1    0    0    0    0  0.00000000000E+00  0.00000000000E+00  0.99999998245E-14  0.12500000000E+03  0.12500000000E+03 0.  0.
        -11    1    3    3    0    0 -0.13723901865E+01 -0.37607331608E+02  0.13547172716E+02  0.39996509027E+02  0.51100000000E-03 0.  1.
         23    2    1    0    0    0 -0.31630548522E+02 -0.26138265432E+01 -0.97566696351E+01  0.91795839246E+02  0.85580136781E+02 0.  0.
         11    1    3    3    0    0 -0.30258158336E+02  0.34993505065E+02 -0.23303842351E+02  0.51799330219E+02  0.51100000000E-03 0. -1.
         22    1    1    0    0    0  0.31630548522E+02  0.26138265432E+01  0.97566696351E+01  0.33204160754E+02  0.00000000000E+00 0. -1.
</event>
<event>
 5    1  0.8875601E-005  0.9118800E+02  0.7818608E-02  0.1130116E+00
         25   -1    0    0    0    0  0.00000000000E+00  0.00000000000E+00  0.99999998245E-14  0.12500000000E+03  0.12500000000E+03 0.  0.
        -11    1    3    3    0    0  0.26340554829E+01 -0.18687064236E+02 -0.53171554160E+02  0.56421261862E+02  0.51100000000E-03 0. -1.
         23    2    1    0    0    0 -0.41343647283E+00  0.10755889801E+02 -0.27004451523E+02  0.95929387739E+02  0.91418526212E+02 0.  0.
         11    1    3    3    0    0 -0.30474919558E+01  0.29442954038E+02  0.26167102637E+02  0.39508125877E+02  0.51100000000E-03 0.  1.
         22    1    1    0    0    0  0.41343647283E+00 -0.10755889801E+02  0.27004451523E+02  0.29070612261E+02  0.00000000000E+00 0. -1.
</event>
<event>
 5    1  0.8875601E-005  0.9118800E+02  0.7818608E-02  0.1130116E+00
         25   -1    0    0    0    0  0.00000000000E+00  0.00000000000E+00  0.99999998245E-14  0.12500000000E+03  0.12500000000E+03 0.  0.
        -11    1    3    3    0    0  0.37011737902E+01  0.58933872079E+02 -0.16178854460E+02  0.61226263136E+02  0.51100000000E-03 0. -1.
         23    2    1    0    0    0  0.62907061279E+01  0.29074666778E+02 -0.69645823572E-01  0.95252494518E+02  0.90488251334E+02 0.  0.
         11    1    3    3    0    0  0.25895323378E+01 -0.29859205301E+02  0.16109208636E+02  0.34026231382E+02  0.51100000000E-03 0.  1.
         22    1    1    0    0    0 -0.62907061279E+01 -0.29074666778E+02  0.69645823572E-01  0.29747505482E+02  0.00000000000E+00 0. -1.
</event>
<event>
 5    1  0.8875601E-005  0.9118800E+02  0.7818608E-02  0.1130116E+00
         25   -1    0    0    0    0  0.00000000000E+00  0.00000000000E+00  0.99999998245E-14  0.12500000000E+03  0.12500000000E+03 0.  0.
        -11    1    3    3    0    0  0.18132042524E+02 -0.57079453232E+02 -0.92333849467E+01  0.60597775085E+02  0.51100000000E-03 0.  1.
         23    2    1    0    0    0  0.40955573577E+01 -0.28258996828E+02  0.55699976512E+01  0.95907572023E+02  0.91388691892E+02 0.  0.
         11    1    3    3    0    0 -0.14036485167E+02  0.28820456404E+02  0.14803382598E+02  0.35309796938E+02  0.51100000000E-03 0. -1.
         22    1    1    0    0    0 -0.40955573577E+01  0.28258996828E+02 -0.55699976512E+01  0.29092427977E+02  0.00000000000E+00 0.  1.
</event>
<event>
 5    1  0.8875601E-005  0.9118800E+02  0.7818608E-02  0.1130116E+00
         25   -1    0    0    0    0  0.00000000000E+00  0.00000000000E+00  0.99999998245E-14  0.12500000000E+03  0.12500000000E+03 0.  0.
        -11    1    3    3    0    0 -0.34309391321E+02 -0.35042392590E+02  0.13649326261E+02  0.50905871163E+02  0.51100000000E-03 0.  1.
         23    2    1    0    0    0 -0.19211327305E+02  0.70426263757E+01  0.20379637369E+02  0.96120884668E+02  0.91679993275E+02 0.  0.
         11    1    3    3    0    0  0.15098064016E+02  0.42085018965E+02  0.67303111080E+01  0.45215013505E+02  0.51100000000E-03 0. -1.
         22    1    1    0    0    0  0.19211327305E+02 -0.70426263757E+01 -0.20379637369E+02  0.28879115332E+02  0.00000000000E+00 0. -1.
</event>
<event>
 5    1  0.8875601E-005  0.9118800E+02  0.7818608E-02  0.1130116E+00
         25   -1    0    0    0    0  0.00000000000E+00  0.00000000000E+00  0.99999998245E-14  0.12500000000E+03  0.12500000000E+03 0.  0.
        -11    1    3    3    0    0  0.23667938736E+02  0.46050436366E+02 -0.20185118918E+02  0.55572052684E+02  0.51100000000E-03 0.  1.
         23    2    1    0    0    0  0.14247056891E+02  0.23881352818E+02  0.11101968652E+02  0.95057532660E+02  0.90218530053E+02 0.  0.
         11    1    3    3    0    0 -0.94208818448E+01 -0.22169083548E+02  0.31287087570E+02  0.39485479976E+02  0.51100000000E-03 0. -1.
         22    1    1    0    0    0 -0.14247056891E+02 -0.23881352818E+02 -0.11101968652E+02  0.29942467340E+02  0.00000000000E+00 0.  1.
</event>
<event>
 5    1  0.8875601E-005  0.9118800E+02  0.7818608E-02  0.1130116E+00
         25   -1    0    0    0    0  0.00000000000E+00  0.00000000000E+00  0.99999998245E-14  0.12500000000E+03  0.12500000000E+03 0.  0.
        -11    1    3    3    0    0  0.47908625489E+00  0.52366572091E+02  0.30107190171E+02  0.60406376289E+02  0.51100000000E-03 0.  1.
         23    2    1    0    0    0  0.44330507542E+01  0.28057086238E+02  0.39708880560E+01  0.96318647537E+02  0.91949235365E+02 0.  0.
         11    1    3    3    0    0  0.39539644993E+01 -0.24309485853E+02 -0.26136302115E+02  0.35912271248E+02  0.51100000000E-03 0. -1.
         22    1    1    0    0    0 -0.44330507542E+01 -0.28057086238E+02 -0.39708880560E+01  0.28681352463E+02  0.00000000000E+00 0.  1.
</event>
<event>
 4    1  0.8875601E-005  0.9118800E+02  0.7818608E-02  0.1130116E+00
         25   -1    0    0    0    0  0.00000000000E+00  0.00000000000E+00  0.99999998245E-14  0.12500000000E+03  0.12500000000E+03 0.  0.
        -11    1    1    0    0    0 -0.45706184397E+00 -0.96166572042E+01 -0.16557028028E+01  0.97688460600E+01  0.51100000000E-03 0.  1.
         11    1    1    0    0    0  0.55247581654E+02  0.18805320382E+02  0.94862466077E+01  0.59126341238E+02  0.51100000000E-03 0. -1.
         22    1    1    0    0    0 -0.54790519810E+02 -0.91886631775E+01 -0.78305438049E+01  0.56104812702E+02  0.00000000000E+00 0. -1.
</event>
<event>
 5    1  0.8875601E-005  0.9118800E+02  0.7818608E-02  0.1130116E+00
         25   -1    0    0    0    0  0.00000000000E+00  0.00000000000E+00  0.99999998245E-14  0.12500000000E+03  0.12500000000E+03 0.  0.
        -11    1    3    3    0    0  0.23046905229E+02 -0.21238690199E+02  0.13624752055E+02  0.34174195980E+02  0.51100000000E-03 0.  1.
         23    2    1    0    0    0 -0.18591760177E+02  0.70716712244E+01 -0.21609709261E+02  0.95629238778E+02  0.91007195839E+02 0.  0.
         11    1    3    3    0    0 -0.41638665407E+02  0.28310361424E+02 -0.35234461317E+02  0.61455042798E+02  0.51100000000E-03 0. -1.
         22    1    1    0    0    0  0.18591760177E+02 -0.70716712244E+01  0.21609709261E+02  0.29370761222E+02  0.00000000000E+00 0. -1.
</event>
<event>
 5    1  0.8875601E-005  0.9118800E+02  0.7818608E-02  0.1130116E+00
         25   -1    0    0    0    0  0.00000000000E+00  0.00000000000E+00  0.99999998245E-14  0.12500000000E+03  0.12500000000E+03 0.  0.
        -11    1    3    3    0    0  0.57296647420E+02 -0.57136652508E+01 -0.18694798458E+02  0.60539633843E+02  0.51100000000E-03 0. -1.
         23    2    1    0    0    0  0.31000107934E+02 -0.44992664843E+01  0.13791984861E+01  0.93644740804E+02  0.88239363104E+02 0.  0.
         11    1    3    3    0    0 -0.26296539487E+02  0.12143987665E+01  0.20073996944E+02  0.33105106961E+02  0.51100000000E-03 0.  1.
         22    1    1    0    0    0 -0.31000107934E+02  0.44992664843E+01 -0.13791984861E+01  0.31355259196E+02  0.00000000000E+00 0. -1.
</event>
<event>
 5    1  0.8875601E-005  0.9118800E+02  0.7818608E-02  0.1130116E+00
         25   -1    0    0    0    0  0.00000000000E+00  0.00000000000E+00  0.99999998245E-14  0.12500000000E+03  0.12500000000E+03 0.  0.
        -11    1    3    3    0    0 -0.14340824491E+01  0.28182801660E+02 -0.53500103087E+02  0.60486262345E+02  0.51100000000E-03 0.  1.
         23    2    1    0    0    0 -0.65525067090E+00  0.51484667009E+01 -0.33793933265E+02  0.90809855392E+02  0.84127663987E+02 0.  0.
         11    1    3    3    0    0  0.77883177817E+00 -0.23034334959E+02  0.19706169822E+02  0.30323593047E+02  0.51100000000E-03 0. -1.
         22    1    1    0    0    0  0.65525067090E+00 -0.51484667009E+01  0.33793933265E+02  0.34190144608E+02  0.00000000000E+00 0.  1.
</event>
<event>
 5    1  0.8875601E-005  0.9118800E+02  0.7818608E-02  0.1130116E+00
         25   -1    0    0    0    0  0.00000000000E+00  0.00000000000E+00  0.99999998245E-14  0.12500000000E+03  0.12500000000E+03 0.  0.
        -11    1    3    3    0    0  0.27069716617E+02  0.19569137824E+02 -0.74923568351E+01  0.34232384143E+02  0.51100000000E-03 0. -1.
         23    2    1    0    0    0 -0.14884477544E+02 -0.12158106212E+02  0.22996477100E+02  0.95029928638E+02  0.90180275890E+02 0.  0.
         11    1    3    3    0    0 -0.41954194160E+02 -0.31727244036E+02  0.30488833935E+02  0.60797544496E+02  0.51100000000E-03 0.  1.
         22    1    1    0    0    0  0.14884477544E+02  0.12158106212E+02 -0.22996477100E+02  0.29970071362E+02  0.00000000000E+00 0.  1.
</event>
<event>
 5    1  0.8875601E-005  0.9118800E+02  0.7818608E-02  0.1130116E+00
         25   -1    0    0    0    0  0.00000000000E+00  0.00000000000E+00  0.99999998245E-14  0.12500000000E+03  0.12500000000E+03 0.  0.
        -11    1    3    3    0    0 -0.38447862765E+01 -0.22082361342E+02  0.49438823535E+02  0.54282689107E+02  0.51100000000E-03 0.  1.
         23    2    1    0    0    0 -0.49032126128E+01 -0.22426440103E+02  0.17578992825E+01  0.10197660061E+03  0.99343596433E+02 0.  0.
         11    1    3    3    0    0 -0.10584263363E+01 -0.34407876101E+00 -0.47680924252E+02  0.47693911502E+02  0.51100000000E-03 0. -1.
         22    1    1    0    0    0  0.49032126128E+01  0.22426440103E+02 -0.17578992825E+01  0.23023399391E+02  0.00000000000E+00 0.  1.
</event>
<event>
 5    1  0.8875601E-005  0.9118800E+02  0.7818608E-02  0.1130116E+00
         25   -1    0    0    0    0  0.00000000000E+00  0.00000000000E+00  0.99999998245E-14  0.12500000000E+03  0.12500000000E+03 0.  0.
        -11    1    3    3    0    0  0.24785659854E+02  0.19649825588E+02  0.14894144262E+02  0.34961122889E+02  0.51100000000E-03 0.  1.
         23    2    1    0    0    0 -0.21208211721E+02  0.61245456306E+01 -0.20752030461E+02  0.94702391648E+02  0.89725124197E+02 0.  0.
         11    1    3    3    0    0 -0.45993871575E+02 -0.13525279958E+02 -0.35646174723E+02  0.59741268760E+02  0.51100000000E-03 0. -1.
         22    1    1    0    0    0  0.21208211721E+02 -0.61245456306E+01  0.20752030461E+02  0.30297608352E+02  0.00000000000E+00 0. -1.
</event>
<event>
 5    1  0.8875601E-005  0.9118800E+02  0.7818608E-02  0.1130116E+00
         25   -1    0    0    0    0  0.00000000000E+00  0.00000000000E+00  0.99999998245E-14  0.12500000000E+03  0.12500000000E+03 0.  0.
        -11    1    3    3    0    0  0.15373312432E+02 -0.18301148498E+01 -0.42798131164E+02  0.45512285011E+02  0.51100000000E-03 0.  1.
         23    2    1    0    0    0  0.27864939635E+02 -0.57346402408E+01  0.59062573244E+01  0.95944452593E+02  0.91439122635E+02 0.  0.
         11    1    3    3    0    0  0.12491627203E+02 -0.39045253910E+01  0.48704388489E+02  0.50432167582E+02  0.51100000000E-03 0. -1.
         22    1    1    0    0    0 -0.27864939635E+02  0.57346402408E+01 -0.59062573244E+01  0.29055547407E+02  0.00000000000E+00 0. -1.
</event>
<event>
 5    1  0.8875601E-005  0.9118800E+02  0.7818608E-02  0.1130116E+00
         25   -1    0    0    0    0  0.00000000000E+00  0.00000000000E+00  0.99999998245E-14  0.12500000000E+03  0.12500000000E+03 0.  0.
        -11    1    3    3    0    0 -0.56103622230E+02 -0.18856659165E+02 -0.19394923609E+02  0.62284452990E+02  0.51100000000E-03 0. -1.
         23    2    1    0    0    0 -0.25515382190E+02 -0.12379755849E+02 -0.85290593135E+01  0.95385173714E+02  0.90671348443E+02 0.  0.
         11    1    3    3    0    0  0.30588240040E+02  0.64769033154E+01  0.10865864296E+02  0.33100720724E+02  0.51100000000E-03 0.  1.
         22    1    1    0    0    0  0.25515382190E+02  0.12379755849E+02  0.85290593135E+01  0.29614826286E+02  0.00000000000E+00 0. -1.
</event>
<event>
 5    1  0.8875601E-005  0.9118800E+02  0.7818608E-02  0.1130116E+00
         25   -1    0    0    0    0  0.00000000000E+00  0.00000000000E+00  0.99999998245E-14  0.12500000000E+03  0.12500000000E+03 0.  0.
        -11    1    3    3    0    0 -0.30520278080E+02 -0.83603146262E+01 -0.27313835000E+02  0.41802246559E+02  0.51100000000E-03 0.  1.
         23    2    1    0    0    0 -0.71029736589E+01 -0.21146612950E+02  0.19293721266E+02  0.95506286189E+02  0.90838161294E+02 0.  0.
         11    1    3    3    0    0  0.23417304421E+02 -0.12786298324E+02  0.46607556266E+02  0.53704039630E+02  0.51100000000E-03 0. -1.
         22    1    1    0    0    0  0.71029736589E+01  0.21146612950E+02 -0.19293721266E+02  0.29493713811E+02  0.00000000000E+00 0. -1.
</event>
<event>
 5    1  0.8875601E-005  0.9118800E+02  0.7818608E-02  0.1130116E+00
         25   -1    0    0    0    0  0.00000000000E+00  0.00000000000E+00  0.99999998245E-14  0.12500000000E+03  0.12500000000E+03 0.  0.
        -11    1    3    3    0    0  0.16595675609E+02 -0.29514907279E+02  0.42744664138E+02  0.54531206782E+02  0.51100000000E-03 0.  1.
         23    2    1    0    0    0  0.71925641531E+01 -0.28345635933E+02  0.27567937528E+01  0.95626406973E+02  0.91003306221E+02 0.  0.
         11    1    3    3    0    0 -0.94031114558E+01  0.11692713458E+01 -0.39987870385E+02  0.41095200191E+02  0.51100000000E-03 0. -1.
         22    1    1    0    0    0 -0.71925641531E+01  0.28345635933E+02 -0.27567937528E+01  0.29373593027E+02  0.00000000000E+00 0.  1.
</event>
<event>
 5    1  0.8875601E-005  0.9118800E+02  0.7818608E-02  0.1130116E+00
         25   -1    0    0    0    0  0.00000000000E+00  0.00000000000E+00  0.99999998245E-14  0.12500000000E+03  0.12500000000E+03 0.  0.
        -11    1    3    3    0    0 -0.11090937376E+02 -0.56806856936E+01 -0.40880196112E+02  0.42737214652E+02  0.51100000000E-03 0. -1.
         23    2    1    0    0    0  0.25408664280E+01  0.29138533546E+02 -0.36149245041E+01  0.95528355686E+02  0.90868525472E+02 0.  0.
         11    1    3    3    0    0  0.13631803804E+02  0.34819219239E+02  0.37265271608E+02  0.52791141034E+02  0.51100000000E-03 0.  1.
         22    1    1    0    0    0 -0.25408664280E+01 -0.29138533546E+02  0.36149245041E+01  0.29471644314E+02  0.00000000000E+00 0.  1.
</event>
<event>
 5    1  0.8875601E-005  0.9118800E+02  0.7818608E-02  0.1130116E+00
         25   -1    0    0    0    0  0.00000000000E+00  0.00000000000E+00  0.99999998245E-14  0.12500000000E+03  0.12500000000E+03 0.  0.
        -11    1    3    3    0    0  0.27569803519E+02  0.57897528496E+01 -0.46805412724E+02  0.54629314151E+02  0.51100000000E-03 0.  1.
         23    2    1    0    0    0  0.15204733650E+02 -0.19228759127E+02 -0.19457952746E+02  0.93702379835E+02  0.88320976890E+02 0.  0.
         11    1    3    3    0    0 -0.12365069869E+02 -0.25018511977E+02  0.27347459978E+02  0.39073065684E+02  0.51100000000E-03 0. -1.
         22    1    1    0    0    0 -0.15204733650E+02  0.19228759127E+02  0.19457952746E+02  0.31297620165E+02  0.00000000000E+00 0.  1.
</event>
<event>
 5    1  0.8875601E-005  0.9118800E+02  0.7818608E-02  0.1130116E+00
         25   -1    0    0    0    0  0.00000000000E+00  0.00000000000E+00  0.99999998245E-14  0.12500000000E+03  0.12500000000E+03 0.  0.
        -11    1    3    3    0    0 -0.28164880295E+02 -0.16669747476E+02 -0.11241062229E+02  0.34604948248E+02  0.51100000000E-03 0.  1.
         23    2    1    0    0    0  0.81436362852E+01  0.19984049064E+02  0.20545883930E+02  0.95203785889E+02  0.90420940452E+02 0.  0.
         11    1    3    3    0    0  0.36308516580E+02  0.36653796540E+02  0.31786946159E+02  0.60598837641E+02  0.51100000000E-03 0. -1.
         22    1    1    0    0    0 -0.81436362852E+01 -0.19984049064E+02 -0.20545883930E+02  0.29796214111E+02  0.00000000000E+00 0. -1.
</event>
<event>
 5    1  0.8875601E-005  0.9118800E+02  0.7818608E-02  0.1130116E+00
         25   -1    0    0    0    0  0.00000000000E+00  0.00000000000E+00  0.99999998245E-14  0.12500000000E+03  0.12500000000E+03 0.  0.
        -11    1    3    3    0    0  0.10065288336E+02 -0.27304093392E+02  0.17924372651E+02  0.34177575695E+02  0.51100000000E-03 0.  1.
         23    2    1    0    0    0 -0.12218924164E+02  0.14833684355E+02 -0.21591567956E+02  0.96094358577E+02  0.91643819455E+02 0.  0.
         11    1    3    3    0    0 -0.22284212500E+02  0.42137777747E+02 -0.39515940607E+02  0.61916782882E+02  0.51100000000E-03 0. -1.
         22    1    1    0    0    0  0.12218924164E+02 -0.14833684355E+02  0.21591567956E+02  0.28905641423E+02  0.00000000000E+00 0. -1.
</event>
<event>
 5    1  0.8875601E-005  0.9118800E+02  0.7818608E-02  0.1130116E+00
         25   -1    0    0    0    0  0.00000000000E+00  0.00000000000E+00  0.99999998245E-14  0.12500000000E+03  0.12500000000E+03 0.  0.
        -11    1    3    3    0    0 -0.15518041040E+02  0.39293196613E+02 -0.25069908459E+00  0.42247221779E+02  0.51100000000E-03 0. -1.
         23    2    1    0    0    0 -0.26809904363E+02 -0.12536408399E+02  0.19632364071E+01  0.95338799676E+02  0.90607394394E+02 0.  0.
         11    1    3    3    0    0 -0.11291863322E+02 -0.51829605011E+02  0.22139354917E+01  0.53091577897E+02  0.51100000000E-03 0.  1.
         22    1    1    0    0    0  0.26809904363E+02  0.12536408399E+02 -0.19632364071E+01  0.29661200324E+02  0.00000000000E+00 0.  1.
</event>
<event>
 5    1  0.8875601E-005  0.9118800E+02  0.7818608E-02  0.1130116E+00
         25   -1    0    0    0    0  0.00000000000E+00  0.00000000000E+00  0.99999998245E-14  0.12500000000E+03  0.12500000000E+03 0.  0.
        -11    1    3    3    0    0 -0.52354475031E+02 -0.84989041237E+01  0.64643299343E+00  0.53043758379E+02  0.51100000000E-03 0.  1.
         23    2    1    0    0    0 -0.17123534922E+02 -0.15701957760E+01 -0.23181890740E+02  0.96136857044E+02  0.91701768037E+02 0.  0.
         11    1    3    3    0    0  0.35230940110E+02  0.69287083477E+01 -0.23828323733E+02  0.43093098665E+02  0.51100000000E-03 0. -1.
         22    1    1    0    0    0  0.17123534922E+02  0.15701957760E+01  0.23181890740E+02  0.28863142956E+02  0.00000000000E+00 0.  1.
</event>
<event>
 5    1  0.8875601E-005  0.9118800E+02  0.7818608E-02  0.1130116E+00
         25   -1    0    0    0    0  0.00000000000E+00  0.00000000000E+00  0.99999998245E-14  0.12500000000E+03  0.12500000000E+03 0.  0.
        -11    1    3    3    0    0 -0.10623501097E+02 -0.36422744791E+02  0.21660545117E+02  0.43688148607E+02  0.51100000000E-03 0.  1.
         23    2    1    0    0    0  0.23072479259E+02  0.22088428517E+01  0.19017703686E+02  0.95018483371E+02  0.90164410067E+02 0.  0.
         11    1    3    3    0    0  0.33695980356E+02  0.38631587642E+02 -0.26428414315E+01  0.51330334764E+02  0.51100000000E-03 0. -1.
         22    1    1    0    0    0 -0.23072479259E+02 -0.22088428517E+01 -0.19017703686E+02  0.29981516629E+02  0.00000000000E+00 0. -1.
</event>
<event>
 5    1  0.8875601E-005  0.9118800E+02  0.7818608E-02  0.1130116E+00
         25   -1    0    0    0    0  0.00000000000E+00  0.00000000000E+00  0.99999998245E-14  0.12500000000E+03  0.12500000000E+03 0.  0.
        -11    1    3    3    0    0 -0.41205071166E+02  0.11307523962E+02  0.56605641254E+01  0.43101739807E+02  0.51100000000E-03 0. -1.
         23    2    1    0    0    0 -0.23144932459E+01 -0.23550496161E+02  0.16123102505E+02  0.96365454730E+02  0.92012845204E+02 0.  0.
         11    1    3    3    0    0  0.38890577920E+02 -0.34858020123E+02  0.10462538380E+02  0.53263714923E+02  0.51100000000E-03 0.  1.
         22    1    1    0    0    0  0.23144932459E+01  0.23550496161E+02 -0.16123102505E+02  0.28634545270E+02  0.00000000000E+00 0.  1.
</event>
<event>
 5    1  0.8875601E-005  0.9118800E+02  0.7818608E-02  0.1130116E+00
         25   -1    0    0    0    0  0.00000000000E+00  0.00000000000E+00  0.99999998245E-14  0.12500000000E+03  0.12500000000E+03 0.  0.
        -11    1    3    3    0    0  0.33060635009E+02  0.90642656731E+01  0.46061699589E+02  0.57418173680E+02  0.51100000000E-03 0. -1.
         23    2    1    0    0    0  0.29418417991E+02  0.41624505181E+01  0.10519356580E+02  0.93481336096E+02  0.88007579356E+02 0.  0.
         11    1    3    3    0    0 -0.36422170179E+01 -0.49018151550E+01 -0.35542343009E+02  0.36063162416E+02  0.51100000000E-03 0.  1.
         22    1    1    0    0    0 -0.29418417991E+02 -0.41624505181E+01 -0.10519356580E+02  0.31518663904E+02  0.00000000000E+00 0. -1.
</event>
<event>
 5    1  0.8875601E-005  0.9118800E+02  0.7818608E-02  0.1130116E+00
         25   -1    0    0    0    0  0.00000000000E+00  0.00000000000E+00  0.99999998245E-14  0.12500000000E+03  0.12500000000E+03 0.  0.
        -11    1    3    3    0    0  0.46330435756E+02  0.24869724647E+02 -0.31449635451E+02  0.61270645922E+02  0.51100000000E-03 0. -1.
         23    2    1    0    0    0  0.20310130792E+02  0.18825353771E+02 -0.99054815480E+01  0.95588880978E+02  0.90951746792E+02 0.  0.
         11    1    3    3    0    0 -0.26020304964E+02 -0.60443708762E+01  0.21544153903E+02  0.34318235056E+02  0.51100000000E-03 0.  1.
         22    1    1    0    0    0 -0.20310130792E+02 -0.18825353771E+02  0.99054815480E+01  0.29411119022E+02  0.00000000000E+00 0. -1.
</event>
<event>
 5    1  0.8875601E-005  0.9118800E+02  0.7818608E-02  0.1130116E+00
         25   -1    0    0    0    0  0.00000000000E+00  0.00000000000E+00  0.99999998245E-14  0.12500000000E+03  0.12500000000E+03 0.  0.
        -11    1    3    3    0    0  0.70696332494E+01  0.33313925290E+02  0.22926173928E+02  0.41053706091E+02  0.51100000000E-03 0.  1.
         23    2    1    0    0    0  0.27641304492E+02 -0.78106793296E+01 -0.63731547031E+01  0.95577805546E+02  0.90936523941E+02 0.  0.
         11    1    3    3    0    0  0.20571671243E+02 -0.41124604620E+02 -0.29299328631E+02  0.54524099455E+02  0.51100000000E-03 0. -1.
         22    1    1    0    0    0 -0.27641304492E+02  0.78106793296E+01  0.63731547031E+01  0.29422194454E+02  0.00000000000E+00 0. -1.
</event>
<event>
 5    1  0.8875601E-005  0.9118800E+02  0.7818608E-02  0.1130116E+00
         25   -1    0    0    0    0  0.00000000000E+00  0.00000000000E+00  0.99999998245E-14  0.12500000000E+03  0.12500000000E+03 0.  0.
        -11    1    3    3    0    0  0.45272655403E+02 -0.93229278302E+01  0.33111472883E+02  0.56858596072E+02  0.51100000000E-03 0. -1.
         23    2    1    0    0    0  0.24767419970E+02 -0.13659070643E+02 -0.77773967803E+00  0.96705120926E+02  0.92473132485E+02 0.  0.
         11    1    3    3    0    0 -0.20505235433E+02 -0.43361428125E+01 -0.33889212561E+02  0.39846524854E+02  0.51100000000E-03 0.  1.
         22    1    1    0    0    0 -0.24767419970E+02  0.13659070643E+02  0.77773967803E+00  0.28294879074E+02  0.00000000000E+00 0. -1.
</event>
<event>
 5    1  0.8875601E-005  0.9118800E+02  0.7818608E-02  0.1130116E+00
         25   -1    0    0    0    0  0.00000000000E+00  0.00000000000E+00  0.99999998245E-14  0.12500000000E+03  0.12500000000E+03 0.  0.
        -11    1    3    3    0    0 -0.99024876966E+01 -0.11007569816E+02  0.31885536329E+02  0.35155558352E+02  0.51100000000E-03 0. -1.
         23    2    1    0    0    0 -0.18065471263E+02  0.92557626732E+01 -0.23056502333E+02  0.94281394979E+02  0.89136685740E+02 0.  0.
         11    1    3    3    0    0 -0.81629835661E+01  0.20263332489E+02 -0.54942038661E+02  0.59125836627E+02  0.51100000000E-03 0.  1.
         22    1    1    0    0    0  0.18065471263E+02 -0.92557626732E+01  0.23056502333E+02  0.30718605021E+02  0.00000000000E+00 0.  1.
</event>
<event>
 5    1  0.8875601E-005  0.9118800E+02  0.7818608E-02  0.1130116E+00
         25   -1    0    0    0    0  0.00000000000E+00  0.00000000000E+00  0.99999998245E-14  0.12500000000E+03  0.12500000000E+03 0.  0.
        -11    1    3    3    0    0 -0.25457138745E+00 -0.22144823017E+02  0.24577482684E+02  0.33083389312E+02  0.51100000000E-03 0.  1.
         23    2    1    0    0    0  0.28898989624E+02  0.17998023353E+02 -0.46091898165E+01  0.90644140578E+02  0.83881077392E+02 0.  0.
         11    1    3    3    0    0  0.29153561011E+02  0.40142846370E+02 -0.29186672500E+02  0.57560751265E+02  0.51100000000E-03 0. -1.
         22    1    1    0    0    0 -0.28898989624E+02 -0.17998023353E+02  0.46091898165E+01  0.34355859422E+02  0.00000000000E+00 0. -1.
</event>
<event>
 5    1  0.8875601E-005  0.9118800E+02  0.7818608E-02  0.1130116E+00
         25   -1    0    0    0    0  0.00000000000E+00  0.00000000000E+00  0.99999998245E-14  0.12500000000E+03  0.12500000000E+03 0.  0.
        -11    1    3    3    0    0  0.18006628187E+02 -0.26322534463E+02  0.20652703809E+02  0.37995376747E+02  0.51100000000E-03 0.  1.
         23    2    1    0    0    0  0.23056455634E+02  0.15931544504E+02 -0.14731050864E+02  0.93339012709E+02  0.87805200173E+02 0.  0.
         11    1    3    3    0    0  0.50498274471E+01  0.42254078967E+02 -0.35383754672E+02  0.55343635963E+02  0.51100000000E-03 0. -1.
         22    1    1    0    0    0 -0.23056455634E+02 -0.15931544504E+02  0.14731050864E+02  0.31660987291E+02  0.00000000000E+00 0. -1.
</event>
<event>
 5    1  0.8875601E-005  0.9118800E+02  0.7818608E-02  0.1130116E+00
         25   -1    0    0    0    0  0.00000000000E+00  0.00000000000E+00  0.99999998245E-14  0.12500000000E+03  0.12500000000E+03 0.  0.
        -11    1    3    3    0    0 -0.63379055678E+01  0.24101920205E+02  0.26049256846E+02  0.36050456128E+02  0.51100000000E-03 0.  1.
         23    2    1    0    0    0  0.22410953568E+02 -0.14348078113E+02 -0.10503908115E+02  0.96391430112E+02  0.92048126151E+02 0.  0.
         11    1    3    3    0    0  0.28748859136E+02 -0.38449998318E+02 -0.36553164961E+02  0.60340973983E+02  0.51100000000E-03 0. -1.
         22    1    1    0    0    0 -0.22410953568E+02  0.14348078113E+02  0.10503908115E+02  0.28608569888E+02  0.00000000000E+00 0. -1.
</event>
<event>
 5    1  0.8875601E-005  0.9118800E+02  0.7818608E-02  0.1130116E+00
         25   -1    0    0    0    0  0.00000000000E+00  0.00000000000E+00  0.99999998245E-14  0.12500000000E+03  0.12500000000E+03 0.  0.
        -11    1    3    3    0    0 -0.15948359388E+02 -0.26591442174E+02 -0.48938370268E+02  0.57934610112E+02  0.51100000000E-03 0.  1.
         23    2    1    0    0    0 -0.50468155873E+01  0.33057163384E+01 -0.28756637443E+02  0.95617312834E+02  0.90990813869E+02 0.  0.
         11    1    3    3    0    0  0.10901543800E+02  0.29897158512E+02  0.20181732826E+02  0.37682702722E+02  0.51100000000E-03 0. -1.
         22    1    1    0    0    0  0.50468155873E+01 -0.33057163384E+01  0.28756637443E+02  0.29382687166E+02  0.00000000000E+00 0.  1.
</event>
<event>
 5    1  0.8875601E-005  0.9118800E+02  0.7818608E-02  0.1130116E+00
         25   -1    0    0    0    0  0.00000000000E+00  0.00000000000E+00  0.99999998245E-14  0.12500000000E+03  0.12500000000E+03 0.  0.
        -11    1    3    3    0    0 -0.50862540772E+02 -0.23192454424E+02  0.19943489521E+02  0.59351754569E+02  0.51100000000E-03 0.  1.
         23    2    1    0    0    0 -0.22358782723E+02 -0.18107869708E+02 -0.26909548237E+01  0.96102744973E+02  0.91655257587E+02 0.  0.
         11    1    3    3    0    0  0.28503758049E+02  0.50845847158E+01 -0.22634444344E+02  0.36750990404E+02  0.51100000000E-03 0. -1.
         22    1    1    0    0    0  0.22358782723E+02  0.18107869708E+02  0.26909548237E+01  0.28897255027E+02  0.00000000000E+00 0.  1.
</event>
<event>
 5    1  0.8875601E-005  0.9118800E+02  0.7818608E-02  0.1130116E+00
         25   -1    0    0    0    0  0.00000000000E+00  0.00000000000E+00  0.99999998245E-14  0.12500000000E+03  0.12500000000E+03 0.  0.
        -11    1    3    3    0    0  0.49812612741E+02 -0.15136692539E+02  0.12077538082E+02  0.53444202450E+02  0.51100000000E-03 0. -1.
         23    2    1    0    0    0  0.22467596450E+02 -0.52597662469E+01 -0.18341846687E+02  0.95523206228E+02  0.90861441530E+02 0.  0.
         11    1    3    3    0    0 -0.27345016291E+02  0.98769262919E+01 -0.30419384769E+02  0.42079003778E+02  0.51100000000E-03 0.  1.
         22    1    1    0    0    0 -0.22467596450E+02  0.52597662469E+01  0.18341846687E+02  0.29476793772E+02  0.00000000000E+00 0. -1.
</event>
<event>
 5    1  0.8875601E-005  0.9118800E+02  0.7818608E-02  0.1130116E+00
         25   -1    0    0    0    0  0.00000000000E+00  0.00000000000E+00  0.99999998245E-14  0.12500000000E+03  0.12500000000E+03 0.  0.
        -11    1    3    3    0    0 -0.16224354093E+02 -0.26701605099E+02 -0.34827969866E+02  0.46788811332E+02  0.51100000000E-03 0. -1.
         23    2    1    0    0    0  0.16709419561E+02  0.67848950714E+01 -0.23983817844E+02  0.94992283967E+02  0.90128081038E+02 0.  0.
         11    1    3    3    0    0  0.32933773654E+02  0.33486500170E+02  0.10844152023E+02  0.48203472635E+02  0.51100000000E-03 0.  1.
         22    1    1    0    0    0 -0.16709419561E+02 -0.67848950714E+01  0.23983817844E+02  0.30007716033E+02  0.00000000000E+00 0.  1.
</event>
<event>
 5    1  0.8875601E-005  0.9118800E+02  0.7818608E-02  0.1130116E+00
         25   -1    0    0    0    0  0.00000000000E+00  0.00000000000E+00  0.99999998245E-14  0.12500000000E+03  0.12500000000E+03 0.  0.
        -11    1    3    3    0    0 -0.71565348637E+00  0.15488909160E+02 -0.57696809684E+02  0.59743956304E+02  0.51100000000E-03 0.  1.
         23    2    1    0    0    0 -0.39928388550E+01 -0.49401335320E+01 -0.30108569337E+02  0.94228688216E+02  0.89062742232E+02 0.  0.
         11    1    3    3    0    0 -0.32771853686E+01 -0.20429042692E+02  0.27588240348E+02  0.34484731911E+02  0.51100000000E-03 0. -1.
         22    1    1    0    0    0  0.39928388550E+01  0.49401335320E+01  0.30108569337E+02  0.30771311784E+02  0.00000000000E+00 0.  1.
</event>
<event>
 5    1  0.8875601E-005  0.9118800E+02  0.7818608E-02  0.1130116E+00
         25   -1    0    0    0    0  0.00000000000E+00  0.00000000000E+00  0.99999998245E-14  0.12500000000E+03  0.12500000000E+03 0.  0.
        -11    1    3    3    0    0 -0.12767904331E+02  0.41463715997E+02  0.29653836719E+02  0.52551014811E+02  0.51100000000E-03 0. -1.
         23    2    1    0    0    0 -0.72584658540E+01 -0.27658767750E+01  0.26669643688E+02  0.97222215796E+02  0.93169490440E+02 0.  0.
         11    1    3    3    0    0  0.55094384773E+01 -0.44229592771E+02 -0.29841930319E+01  0.44671200984E+02  0.51100000000E-03 0.  1.
         22    1    1    0    0    0  0.72584658540E+01  0.27658767750E+01 -0.26669643688E+02  0.27777784204E+02  0.00000000000E+00 0. -1.
</event>
<event>
 5    1  0.8875601E-005  0.9118800E+02  0.7818608E-02  0.1130116E+00
         25   -1    0    0    0    0  0.00000000000E+00  0.00000000000E+00  0.99999998245E-14  0.12500000000E+03  0.12500000000E+03 0.  0.
        -11    1    3    3    0    0  0.24923176802E+02 -0.16443888077E+02 -0.21642463207E+02  0.36877668187E+02  0.51100000000E-03 0. -1.
         23    2    1    0    0    0 -0.86009465093E+01 -0.84647984327E+01  0.26383306455E+02  0.95987796484E+02  0.91498355837E+02 0.  0.
         11    1    3    3    0    0 -0.33524123311E+02  0.79790896442E+01  0.48025769662E+02  0.59110128297E+02  0.51100000000E-03 0.  1.
         22    1    1    0    0    0  0.86009465093E+01  0.84647984327E+01 -0.26383306455E+02  0.29012203516E+02  0.00000000000E+00 0.  1.
</event>
<event>
 5    1  0.8875601E-005  0.9118800E+02  0.7818608E-02  0.1130116E+00
         25   -1    0    0    0    0  0.00000000000E+00  0.00000000000E+00  0.99999998245E-14  0.12500000000E+03  0.12500000000E+03 0.  0.
        -11    1    3    3    0    0  0.22092723767E+02  0.12101318255E+02 -0.20711765298E+02  0.32611463766E+02  0.51100000000E-03 0.  1.
         23    2    1    0    0    0 -0.26997339156E+02 -0.17711817928E+02 -0.37708129907E+01  0.92491788015E+02  0.86590686589E+02 0.  0.
         11    1    3    3    0    0 -0.49090062923E+02 -0.29813136183E+02  0.16940952308E+02  0.59880324249E+02  0.51100000000E-03 0. -1.
         22    1    1    0    0    0  0.26997339156E+02  0.17711817928E+02  0.37708129907E+01  0.32508211985E+02  0.00000000000E+00 0. -1.
</event>
<event>
 5    1  0.8875601E-005  0.9118800E+02  0.7818608E-02  0.1130116E+00
         25   -1    0    0    0    0  0.00000000000E+00  0.00000000000E+00  0.99999998245E-14  0.12500000000E+03  0.12500000000E+03 0.  0.
        -11    1    3    3    0    0 -0.46582318747E+02 -0.41497580665E+02  0.99731107489E+00  0.62393559367E+02  0.51100000000E-03 0.  1.
         23    2    1    0    0    0 -0.22873596257E+02 -0.18040994980E+02 -0.14272990393E+01  0.95832962301E+02  0.91286584859E+02 0.  0.
         11    1    3    3    0    0  0.23708722490E+02  0.23456585684E+02 -0.24246101142E+01  0.33439402933E+02  0.51100000000E-03 0. -1.
         22    1    1    0    0    0  0.22873596257E+02  0.18040994980E+02  0.14272990393E+01  0.29167037699E+02  0.00000000000E+00 0.  1.
</event>
<event>
 5    1  0.8875601E-005  0.9118800E+02  0.7818608E-02  0.1130116E+00
         25   -1    0    0    0    0  0.00000000000E+00  0.00000000000E+00  0.99999998245E-14  0.12500000000E+03  0.12500000000E+03 0.  0.
        -11    1    3    3    0    0  0.24144199460E+02  0.37769790708E+02 -0.15397984287E+02  0.47398284548E+02  0.51100000000E-03 0.  1.
         23    2    1    0    0    0  0.24639331157E+02 -0.81169507976E+01 -0.18101100910E+02  0.93367241912E+02  0.87845378239E+02 0.  0.
         11    1    3    3    0    0  0.49513169650E+00 -0.45886741506E+02 -0.27031166234E+01  0.45968957364E+02  0.51100000000E-03 0. -1.
         22    1    1    0    0    0 -0.24639331157E+02  0.81169507976E+01  0.18101100910E+02  0.31632758088E+02  0.00000000000E+00 0.  1.
</event>
<event>
 5    1  0.8875601E-005  0.9118800E+02  0.7818608E-02  0.1130116E+00
         25   -1    0    0    0    0  0.00000000000E+00  0.00000000000E+00  0.99999998245E-14  0.12500000000E+03  0.12500000000E+03 0.  0.
        -11    1    3    3    0    0 -0.16388002767E+02 -0.12230474862E+02  0.40309466373E+02  0.45199604308E+02  0.51100000000E-03 0.  1.
         23    2    1    0    0    0  0.18420879004E+02  0.36142415101E+01  0.36903474162E+02  0.83596401965E+02  0.72623002495E+02 0.  0.
         11    1    3    3    0    0  0.34808881772E+02  0.15844716372E+02 -0.34059922112E+01  0.38396797657E+02  0.51100000000E-03 0. -1.
         22    1    1    0    0    0 -0.18420879004E+02 -0.36142415101E+01 -0.36903474162E+02  0.41403598035E+02  0.00000000000E+00 0.  1.
</event>
<event>
 5    1  0.8875601E-005  0.9118800E+02  0.7818608E-02  0.1130116E+00
         25   -1    0    0    0    0  0.00000000000E+00  0.00000000000E+00  0.99999998245E-14  0.12500000000E+03  0.12500000000E+03 0.  0.
        -11    1    3    3    0    0  0.33082579820E+02 -0.15105837682E+01 -0.31752314905E+02  0.45879717228E+02  0.51100000000E-03 0.  1.
         23    2    1    0    0    0  0.24099087045E+02 -0.22064063302E+02  0.78526234770E+01  0.91395646394E+02  0.84993597397E+02 0.  0.
         11    1    3    3    0    0 -0.89834927744E+01 -0.20553479534E+02  0.39604938382E+02  0.45515929166E+02  0.51100000000E-03 0. -1.
         22    1    1    0    0    0 -0.24099087045E+02  0.22064063302E+02 -0.78526234770E+01  0.33604353606E+02  0.00000000000E+00 0.  1.
</event>
<event>
 5    1  0.8875601E-005  0.9118800E+02  0.7818608E-02  0.1130116E+00
         25   -1    0    0    0    0  0.00000000000E+00  0.00000000000E+00  0.99999998245E-14  0.12500000000E+03  0.12500000000E+03 0.  0.
        -11    1    3    3    0    0 -0.27075565755E+02 -0.12068393739E+02  0.16783259731E+02  0.34064794082E+02  0.51100000000E-03 0. -1.
         23    2    1    0    0    0  0.27690117974E+02  0.11175627312E+02  0.64817246406E+01  0.94444312583E+02  0.89364859681E+02 0.  0.
         11    1    3    3    0    0  0.54765683729E+02  0.23244021051E+02 -0.10301535090E+02  0.60379518501E+02  0.51100000000E-03 0.  1.
         22    1    1    0    0    0 -0.27690117974E+02 -0.11175627312E+02 -0.64817246406E+01  0.30555687417E+02  0.00000000000E+00 0.  1.
</event>
<event>
 5    1  0.8875601E-005  0.9118800E+02  0.7818608E-02  0.1130116E+00
         25   -1    0    0    0    0  0.00000000000E+00  0.00000000000E+00  0.99999998245E-14  0.12500000000E+03  0.12500000000E+03 0.  0.
        -11    1    3    3    0    0 -0.20695132272E+02  0.31298228290E+02 -0.17413165223E+02  0.41365274291E+02  0.51100000000E-03 0.  1.
         23    2    1    0    0    0 -0.70005997471E+01 -0.23883924437E+02 -0.67442699621E+01  0.99213658254E+02  0.95804042521E+02 0.  0.
         11    1    3    3    0    0  0.13694532525E+02 -0.55182152727E+02  0.10668895261E+02  0.57848383962E+02  0.51100000000E-03 0. -1.
         22    1    1    0    0    0  0.70005997471E+01  0.23883924437E+02  0.67442699621E+01  0.25786341746E+02  0.00000000000E+00 0. -1.
</event>
<event>
 5    1  0.8875601E-005  0.9118800E+02  0.7818608E-02  0.1130116E+00
         25   -1    0    0    0    0  0.00000000000E+00  0.00000000000E+00  0.99999998245E-14  0.12500000000E+03  0.12500000000E+03 0.  0.
        -11    1    3    3    0    0 -0.20146179622E+02 -0.44876664212E+01 -0.33871614694E+02  0.39664770080E+02  0.51100000000E-03 0.  1.
         23    2    1    0    0    0  0.20838012522E+02  0.19840349425E+02 -0.39048581611E+01  0.95963640923E+02  0.91465349891E+02 0.  0.
         11    1    3    3    0    0  0.40984192144E+02  0.24328015847E+02  0.29966756533E+02  0.56298870842E+02  0.51100000000E-03 0. -1.
         22    1    1    0    0    0 -0.20838012522E+02 -0.19840349425E+02  0.39048581611E+01  0.29036359077E+02  0.00000000000E+00 0. -1.
</event>
<event>
 5    1  0.8875601E-005  0.9118800E+02  0.7818608E-02  0.1130116E+00
         25   -1    0    0    0    0  0.00000000000E+00  0.00000000000E+00  0.99999998245E-14  0.12500000000E+03  0.12500000000E+03 0.  0.
        -11    1    3    3    0    0 -0.21601234498E+02 -0.16374484449E+02 -0.38084988761E+02  0.46746159650E+02  0.51100000000E-03 0. -1.
         23    2    1    0    0    0  0.85348430026E+01 -0.23837952054E+02  0.43330927249E+01  0.99312119672E+02  0.95932423705E+02 0.  0.
         11    1    3    3    0    0  0.30136077501E+02 -0.74634676046E+01  0.42418081486E+02  0.52565960022E+02  0.51100000000E-03 0.  1.
         22    1    1    0    0    0 -0.85348430026E+01  0.23837952054E+02 -0.43330927249E+01  0.25687880328E+02  0.00000000000E+00 0.  1.
</event>
<event>
 5    1  0.8875601E-005  0.9118800E+02  0.7818608E-02  0.1130116E+00
         25   -1    0    0    0    0  0.00000000000E+00  0.00000000000E+00  0.99999998245E-14  0.12500000000E+03  0.12500000000E+03 0.  0.
        -11    1    3    3    0    0 -0.40810246255E+02  0.19293170642E+02 -0.14423171648E+02  0.47389139193E+02  0.51100000000E-03 0.  1.
         23    2    1    0    0    0  0.69639471857E+01  0.26563572634E+02 -0.10983886395E+01  0.97516797692E+02  0.93563878837E+02 0.  0.
         11    1    3    3    0    0  0.47774193441E+02  0.72704019924E+01  0.13324783008E+02  0.50127658499E+02  0.51100000000E-03 0. -1.
         22    1    1    0    0    0 -0.69639471857E+01 -0.26563572634E+02  0.10983886395E+01  0.27483202308E+02  0.00000000000E+00 0.  1.
</event>
<event>
 5    1  0.8875601E-005  0.9118800E+02  0.7818608E-02  0.1130116E+00
         25   -1    0    0    0    0  0.00000000000E+00  0.00000000000E+00  0.99999998245E-14  0.12500000000E+03  0.12500000000E+03 0.  0.
        -11    1    3    3    0    0  0.46699582729E+02 -0.38443655840E+02  0.30245269979E+00  0.60488487990E+02  0.51100000000E-03 0.  1.
         23    2    1    0    0    0  0.14125972722E+02 -0.25206082281E+02  0.39455632541E+01  0.95837401373E+02  0.91292663140E+02 0.  0.
         11    1    3    3    0    0 -0.32573610007E+02  0.13237573559E+02  0.36431105543E+01  0.35348913383E+02  0.51100000000E-03 0. -1.
         22    1    1    0    0    0 -0.14125972722E+02  0.25206082281E+02 -0.39455632541E+01  0.29162598627E+02  0.00000000000E+00 0.  1.
</event>
<event>
 5    1  0.8875601E-005  0.9118800E+02  0.7818608E-02  0.1130116E+00
         25   -1    0    0    0    0  0.00000000000E+00  0.00000000000E+00  0.99999998245E-14  0.12500000000E+03  0.12500000000E+03 0.  0.
        -11    1    3    3    0    0 -0.23523149424E+02 -0.39598613058E+02  0.40558477434E+02  0.61370830261E+02  0.51100000000E-03 0.  1.
         23    2    1    0    0    0 -0.12433904168E+02 -0.22551671670E+02  0.11602537892E+02  0.96754668465E+02  0.92540083835E+02 0.  0.
         11    1    3    3    0    0  0.11089245256E+02  0.17046941388E+02 -0.28955939542E+02  0.35383838204E+02  0.51100000000E-03 0. -1.
         22    1    1    0    0    0  0.12433904168E+02  0.22551671670E+02 -0.11602537892E+02  0.28245331535E+02  0.00000000000E+00 0.  1.
</event>
<event>
 5    1  0.8875601E-005  0.9118800E+02  0.7818608E-02  0.1130116E+00
         25   -1    0    0    0    0  0.00000000000E+00  0.00000000000E+00  0.99999998245E-14  0.12500000000E+03  0.12500000000E+03 0.  0.
        -11    1    3    3    0    0  0.12919658978E+02 -0.26538256131E+02 -0.20990973041E+02  0.36219022296E+02  0.51100000000E-03 0.  1.
         23    2    1    0    0    0  0.24416545006E+01  0.29312853349E+02 -0.81529347245E+01  0.94476641849E+02  0.89410069133E+02 0.  0.
         11    1    3    3    0    0 -0.10478004478E+02  0.55851109480E+02  0.12838038316E+02  0.58257619554E+02  0.51100000000E-03 0. -1.
         22    1    1    0    0    0 -0.24416545006E+01 -0.29312853349E+02  0.81529347245E+01  0.30523358151E+02  0.00000000000E+00 0. -1.
</event>
<event>
 5    1  0.8875601E-005  0.9118800E+02  0.7818608E-02  0.1130116E+00
         25   -1    0    0    0    0  0.00000000000E+00  0.00000000000E+00  0.99999998245E-14  0.12500000000E+03  0.12500000000E+03 0.  0.
        -11    1    3    3    0    0 -0.11369063147E+02  0.10491355344E+02 -0.40249062210E+02  0.43119730320E+02  0.51100000000E-03 0. -1.
         23    2    1    0    0    0 -0.14924797753E+02  0.23561948909E+02  0.10159209059E+02  0.95316257765E+02  0.90576290724E+02 0.  0.
         11    1    3    3    0    0 -0.35557346058E+01  0.13070593564E+02  0.50408271269E+02  0.52196527445E+02  0.51100000000E-03 0.  1.
         22    1    1    0    0    0  0.14924797753E+02 -0.23561948909E+02 -0.10159209059E+02  0.29683742235E+02  0.00000000000E+00 0.  1.
</event>
<event>
 5    1  0.8875601E-005  0.9118800E+02  0.7818608E-02  0.1130116E+00
         25   -1    0    0    0    0  0.00000000000E+00  0.00000000000E+00  0.99999998245E-14  0.12500000000E+03  0.12500000000E+03 0.  0.
        -11    1    3    3    0    0 -0.53556542243E+02 -0.55989596483E+01 -0.22332224782E+02  0.58295624451E+02  0.51100000000E-03 0.  1.
         23    2    1    0    0    0 -0.28904222865E+02 -0.24130492747E+01  0.53560303414E+01  0.95504848411E+02  0.90836182784E+02 0.  0.
         11    1    3    3    0    0  0.24652319378E+02  0.31859103737E+01  0.27688255124E+02  0.37209223960E+02  0.51100000000E-03 0. -1.
         22    1    1    0    0    0  0.28904222865E+02  0.24130492747E+01 -0.53560303414E+01  0.29495151589E+02  0.00000000000E+00 0.  1.
</event>
<event>
 5    1  0.8875601E-005  0.9118800E+02  0.7818608E-02  0.1130116E+00
         25   -1    0    0    0    0  0.00000000000E+00  0.00000000000E+00  0.99999998245E-14  0.12500000000E+03  0.12500000000E+03 0.  0.
        -11    1    3    3    0    0  0.19720011891E+02  0.29911513529E+02  0.44063120733E+02  0.56790281911E+02  0.51100000000E-03 0. -1.
         23    2    1    0    0    0  0.58720558611E+01 -0.36390174492E+01  0.27425366283E+02  0.96717952624E+02  0.92490476028E+02 0.  0.
         11    1    3    3    0    0 -0.13847956030E+02 -0.33550530978E+02 -0.16637754450E+02  0.39927670712E+02  0.51100000000E-03 0.  1.
         22    1    1    0    0    0 -0.58720558611E+01  0.36390174492E+01 -0.27425366283E+02  0.28282047376E+02  0.00000000000E+00 0. -1.
</event>
<event>
 5    1  0.8875601E-005  0.9118800E+02  0.7818608E-02  0.1130116E+00
         25   -1    0    0    0    0  0.00000000000E+00  0.00000000000E+00  0.99999998245E-14  0.12500000000E+03  0.12500000000E+03 0.  0.
        -11    1    3    3    0    0  0.28264554051E+02 -0.18518156080E+02  0.27446756684E+02  0.43533108929E+02  0.51100000000E-03 0. -1.
         23    2    1    0    0    0  0.18223590451E+02  0.22657743957E+02 -0.30733755552E+01  0.95761014938E+02  0.91188013108E+02 0.  0.
         11    1    3    3    0    0 -0.10040963600E+02  0.41175900038E+02 -0.30520132239E+02  0.52227906009E+02  0.51100000000E-03 0.  1.
         22    1    1    0    0    0 -0.18223590451E+02 -0.22657743957E+02  0.30733755552E+01  0.29238985062E+02  0.00000000000E+00 0.  1.
</event>
<event>
 5    1  0.8875601E-005  0.9118800E+02  0.7818608E-02  0.1130116E+00
         25   -1    0    0    0    0  0.00000000000E+00  0.00000000000E+00  0.99999998245E-14  0.12500000000E+03  0.12500000000E+03 0.  0.
        -11    1    3    3    0    0 -0.28927696212E+02 -0.52338852956E+02  0.16940615737E+01  0.59825053128E+02  0.51100000000E-03 0. -1.
         23    2    1    0    0    0 -0.23953996395E+02 -0.16843139897E+02 -0.18177956091E+00  0.95716585775E+02  0.91127089516E+02 0.  0.
         11    1    3    3    0    0  0.49736998172E+01  0.35495713060E+02 -0.18758411347E+01  0.35891532646E+02  0.51100000000E-03 0.  1.
         22    1    1    0    0    0  0.23953996395E+02  0.16843139897E+02  0.18177956091E+00  0.29283414225E+02  0.00000000000E+00 0. -1.
</event>
<event>
 5    1  0.8875601E-005  0.9118800E+02  0.7818608E-02  0.1130116E+00
         25   -1    0    0    0    0  0.00000000000E+00  0.00000000000E+00  0.99999998245E-14  0.12500000000E+03  0.12500000000E+03 0.  0.
        -11    1    3    3    0    0 -0.78170261535E+00 -0.35785182599E+02  0.27860966199E+02  0.45358833654E+02  0.51100000000E-03 0.  1.
         23    2    1    0    0    0 -0.76430403478E+01 -0.14554588935E+02 -0.20561600945E+02  0.98674507446E+02  0.95097985580E+02 0.  0.
         11    1    3    3    0    0 -0.68613377324E+01  0.21230593665E+02 -0.48422567144E+02  0.53315673792E+02  0.51100000000E-03 0. -1.
         22    1    1    0    0    0  0.76430403478E+01  0.14554588935E+02  0.20561600945E+02  0.26325492554E+02  0.00000000000E+00 0. -1.
</event>
<event>
 5    1  0.8875601E-005  0.9118800E+02  0.7818608E-02  0.1130116E+00
         25   -1    0    0    0    0  0.00000000000E+00  0.00000000000E+00  0.99999998245E-14  0.12500000000E+03  0.12500000000E+03 0.  0.
        -11    1    3    3    0    0  0.75425640917E+01 -0.31530338760E+02  0.42007141496E+02  0.53062722059E+02  0.51100000000E-03 0.  1.
         23    2    1    0    0    0 -0.17536802364E+02 -0.22111879925E+02  0.94212487834E+01  0.95247107710E+02  0.90480809720E+02 0.  0.
         11    1    3    3    0    0 -0.25079366455E+02  0.94184588350E+01 -0.32585892713E+02  0.42184385651E+02  0.51100000000E-03 0. -1.
         22    1    1    0    0    0  0.17536802364E+02  0.22111879925E+02 -0.94212487834E+01  0.29752892290E+02  0.00000000000E+00 0.  1.
</event>
<event>
 5    1  0.8875601E-005  0.9118800E+02  0.7818608E-02  0.1130116E+00
         25   -1    0    0    0    0  0.00000000000E+00  0.00000000000E+00  0.99999998245E-14  0.12500000000E+03  0.12500000000E+03 0.  0.
        -11    1    3    3    0    0  0.43642540745E+02  0.95342610535E+01 -0.25954490418E+01  0.44747177033E+02  0.51100000000E-03 0.  1.
         23    2    1    0    0    0  0.72239185297E+00 -0.34322236828E+01 -0.28336678194E+02  0.96447078250E+02  0.92123664509E+02 0.  0.
         11    1    3    3    0    0 -0.42920148892E+02 -0.12966484736E+02 -0.25741229152E+02  0.51699901217E+02  0.51100000000E-03 0. -1.
         22    1    1    0    0    0 -0.72239185297E+00  0.34322236828E+01  0.28336678194E+02  0.28552921750E+02  0.00000000000E+00 0. -1.
</event>
<event>
 5    1  0.8875601E-005  0.9118800E+02  0.7818608E-02  0.1130116E+00
         25   -1    0    0    0    0  0.00000000000E+00  0.00000000000E+00  0.99999998245E-14  0.12500000000E+03  0.12500000000E+03 0.  0.
        -11    1    3    3    0    0 -0.30844297159E+02  0.41320746912E+01  0.47509719631E+02  0.56794525865E+02  0.51100000000E-03 0.  1.
         23    2    1    0    0    0 -0.28024247234E+01 -0.13670887104E+02  0.23088343386E+02  0.98021891489E+02  0.94236260921E+02 0.  0.
         11    1    3    3    0    0  0.28041872436E+02 -0.17802961795E+02 -0.24421376245E+02  0.41227365625E+02  0.51100000000E-03 0. -1.
         22    1    1    0    0    0  0.28024247234E+01  0.13670887104E+02 -0.23088343386E+02  0.26978108511E+02  0.00000000000E+00 0.  1.
</event>
<event>
 5    1  0.8875601E-005  0.9118800E+02  0.7818608E-02  0.1130116E+00
         25   -1    0    0    0    0  0.00000000000E+00  0.00000000000E+00  0.99999998245E-14  0.12500000000E+03  0.12500000000E+03 0.  0.
        -11    1    3    3    0    0  0.80950689865E+01  0.35397406577E+02  0.17538464143E+02  0.40324983063E+02  0.51100000000E-03 0.  1.
         23    2    1    0    0    0 -0.26459535172E+02 -0.74889673812E+01  0.26700022325E+01  0.97371743705E+02  0.93369887685E+02 0.  0.
         11    1    3    3    0    0 -0.34554604159E+02 -0.42886373958E+02 -0.14868461911E+02  0.57046760642E+02  0.51100000000E-03 0. -1.
         22    1    1    0    0    0  0.26459535172E+02  0.74889673812E+01 -0.26700022325E+01  0.27628256295E+02  0.00000000000E+00 0. -1.
</event>
<event>
 5    1  0.8875601E-005  0.9118800E+02  0.7818608E-02  0.1130116E+00
         25   -1    0    0    0    0  0.00000000000E+00  0.00000000000E+00  0.99999998245E-14  0.12500000000E+03  0.12500000000E+03 0.  0.
        -11    1    3    3    0    0  0.21446789127E+02  0.48255831602E+02 -0.16858866383E+02  0.55432945289E+02  0.51100000000E-03 0.  1.
         23    2    1    0    0    0 -0.87109297268E+01  0.22395117370E+02 -0.17677158098E+02  0.95168749655E+02  0.90372492572E+02 0.  0.
         11    1    3    3    0    0 -0.30157718853E+02 -0.25860714232E+02 -0.81829171523E+00  0.39735804366E+02  0.51100000000E-03 0. -1.
         22    1    1    0    0    0  0.87109297268E+01 -0.22395117370E+02  0.17677158098E+02  0.29831250345E+02  0.00000000000E+00 0.  1.
</event>
<event>
 5    1  0.8875601E-005  0.9118800E+02  0.7818608E-02  0.1130116E+00
         25   -1    0    0    0    0  0.00000000000E+00  0.00000000000E+00  0.99999998245E-14  0.12500000000E+03  0.12500000000E+03 0.  0.
        -11    1    3    3    0    0  0.37104683593E+02  0.11080286530E+02 -0.12049042636E+02  0.40555020932E+02  0.51100000000E-03 0. -1.
         23    2    1    0    0    0  0.14838730936E+02 -0.16350999546E+02 -0.35666107481E+02  0.83052242673E+02  0.71680266937E+02 0.  0.
         11    1    3    3    0    0 -0.22265952657E+02 -0.27431286075E+02 -0.23617064845E+02  0.42497221741E+02  0.51100000000E-03 0.  1.
         22    1    1    0    0    0 -0.14838730936E+02  0.16350999546E+02  0.35666107481E+02  0.41947757327E+02  0.00000000000E+00 0. -1.
</event>
<event>
 5    1  0.8875601E-005  0.9118800E+02  0.7818608E-02  0.1130116E+00
         25   -1    0    0    0    0  0.00000000000E+00  0.00000000000E+00  0.99999998245E-14  0.12500000000E+03  0.12500000000E+03 0.  0.
        -11    1    3    3    0    0 -0.50981663644E+01  0.61975672255E+02  0.10806942094E+01  0.62194398076E+02  0.51100000000E-03 0.  1.
         23    2    1    0    0    0 -0.22277470381E+01  0.34494339849E+02 -0.37020795424E+01  0.90236114552E+02  0.83270815044E+02 0.  0.
         11    1    3    3    0    0  0.28704193263E+01 -0.27481332406E+02 -0.47827737518E+01  0.28041716477E+02  0.51100000000E-03 0. -1.
         22    1    1    0    0    0  0.22277470381E+01 -0.34494339849E+02  0.37020795424E+01  0.34763885448E+02  0.00000000000E+00 0.  1.
</event>
<event>
 5    1  0.8875601E-005  0.9118800E+02  0.7818608E-02  0.1130116E+00
         25   -1    0    0    0    0  0.00000000000E+00  0.00000000000E+00  0.99999998245E-14  0.12500000000E+03  0.12500000000E+03 0.  0.
        -11    1    3    3    0    0 -0.32105890285E+02  0.15874602709E+02 -0.19301711492E+01  0.35868046546E+02  0.51100000000E-03 0. -1.
         23    2    1    0    0    0  0.55501602824E+01 -0.23175633604E+02  0.19511703340E+02  0.94200311051E+02  0.89022905832E+02 0.  0.
         11    1    3    3    0    0  0.37656050567E+02 -0.39050236313E+02  0.21441874490E+02  0.58332264505E+02  0.51100000000E-03 0.  1.
         22    1    1    0    0    0 -0.55501602824E+01  0.23175633604E+02 -0.19511703340E+02  0.30799688949E+02  0.00000000000E+00 0.  1.
</event>
<event>
 5    1  0.8875601E-005  0.9118800E+02  0.7818608E-02  0.1130116E+00
         25   -1    0    0    0    0  0.00000000000E+00  0.00000000000E+00  0.99999998245E-14  0.12500000000E+03  0.12500000000E+03 0.  0.
        -11    1    3    3    0    0 -0.50521952932E+02  0.19571106827E+02 -0.51431496494E+01  0.54423781006E+02  0.51100000000E-03 0. -1.
         23    2    1    0    0    0 -0.14495545971E+02  0.26277217043E+02  0.89469258998E+01  0.93684501096E+02  0.88295669622E+02 0.  0.
         11    1    3    3    0    0  0.36026406961E+02  0.67061102165E+01  0.14090075549E+02  0.39260720090E+02  0.51100000000E-03 0.  1.
         22    1    1    0    0    0  0.14495545971E+02 -0.26277217043E+02 -0.89469258998E+01  0.31315498904E+02  0.00000000000E+00 0. -1.
</event>
<event>
 5    1  0.8875601E-005  0.9118800E+02  0.7818608E-02  0.1130116E+00
         25   -1    0    0    0    0  0.00000000000E+00  0.00000000000E+00  0.99999998245E-14  0.12500000000E+03  0.12500000000E+03 0.  0.
        -11    1    3    3    0    0 -0.16043080077E+02  0.24597597766E+02 -0.21730238311E+00  0.29367830271E+02  0.51100000000E-03 0.  1.
         23    2    1    0    0    0  0.21558610516E+02 -0.87621606281E+01 -0.29409944477E+02  0.87496747069E+02  0.79051798002E+02 0.  0.
         11    1    3    3    0    0  0.37601690592E+02 -0.33359758394E+02 -0.29192642094E+02  0.58128916799E+02  0.51100000000E-03 0. -1.
         22    1    1    0    0    0 -0.21558610516E+02  0.87621606281E+01  0.29409944477E+02  0.37503252931E+02  0.00000000000E+00 0. -1.
</event>
<event>
 5    1  0.8875601E-005  0.9118800E+02  0.7818608E-02  0.1130116E+00
         25   -1    0    0    0    0  0.00000000000E+00  0.00000000000E+00  0.99999998245E-14  0.12500000000E+03  0.12500000000E+03 0.  0.
        -11    1    3    3    0    0 -0.14749322717E+02 -0.45519952227E+02  0.17408911436E+02  0.50918353950E+02  0.51100000000E-03 0. -1.
         23    2    1    0    0    0 -0.24645038833E+02  0.65139526876E+00  0.81228840889E+01  0.99042659983E+02  0.95580672710E+02 0.  0.
         11    1    3    3    0    0 -0.98957161158E+01  0.46171347495E+02 -0.92860273468E+01  0.48124306033E+02  0.51100000000E-03 0.  1.
         22    1    1    0    0    0  0.24645038833E+02 -0.65139526876E+00 -0.81228840889E+01  0.25957340017E+02  0.00000000000E+00 0. -1.
</event>
<event>
 5    1  0.8875601E-005  0.9118800E+02  0.7818608E-02  0.1130116E+00
         25   -1    0    0    0    0  0.00000000000E+00  0.00000000000E+00  0.99999998245E-14  0.12500000000E+03  0.12500000000E+03 0.  0.
        -11    1    3    3    0    0 -0.32324019118E+02  0.14390438453E+01 -0.24078955924E+02  0.40332482911E+02  0.51100000000E-03 0.  1.
         23    2    1    0    0    0 -0.16106176296E+02  0.43670603349E+01  0.26586137997E+02  0.93610465686E+02  0.88190795561E+02 0.  0.
         11    1    3    3    0    0  0.16217842822E+02  0.29280164896E+01  0.50665093920E+02  0.53277982775E+02  0.51100000000E-03 0. -1.
         22    1    1    0    0    0  0.16106176296E+02 -0.43670603349E+01 -0.26586137997E+02  0.31389534314E+02  0.00000000000E+00 0. -1.
</event>
<event>
 5    1  0.8875601E-005  0.9118800E+02  0.7818608E-02  0.1130116E+00
         25   -1    0    0    0    0  0.00000000000E+00  0.00000000000E+00  0.99999998245E-14  0.12500000000E+03  0.12500000000E+03 0.  0.
        -11    1    3    3    0    0  0.26933426055E+02  0.17936976508E+02  0.14737134485E+02  0.35557385990E+02  0.51100000000E-03 0.  1.
         23    2    1    0    0    0 -0.27468420250E+02  0.54816092818E+01 -0.80751913785E+01  0.95849170386E+02  0.91308776120E+02 0.  0.
         11    1    3    3    0    0 -0.54401846305E+02 -0.12455367226E+02 -0.22812325863E+02  0.60291784397E+02  0.51100000000E-03 0. -1.
         22    1    1    0    0    0  0.27468420250E+02 -0.54816092818E+01  0.80751913785E+01  0.29150829614E+02  0.00000000000E+00 0. -1.
</event>
<event>
 5    1  0.8875601E-005  0.9118800E+02  0.7818608E-02  0.1130116E+00
         25   -1    0    0    0    0  0.00000000000E+00  0.00000000000E+00  0.99999998245E-14  0.12500000000E+03  0.12500000000E+03 0.  0.
        -11    1    3    3    0    0 -0.21941849514E+02  0.21995188387E+02 -0.52805839660E+02  0.61267363047E+02  0.51100000000E-03 0.  1.
         23    2    1    0    0    0 -0.13967511097E+02  0.12440936561E+02 -0.15140311916E+02  0.10093555914E+03  0.98024944714E+02 0.  0.
         11    1    3    3    0    0  0.79743384164E+01 -0.95542518252E+01  0.37665527744E+02  0.39668196098E+02  0.51100000000E-03 0. -1.
         22    1    1    0    0    0  0.13967511097E+02 -0.12440936561E+02  0.15140311916E+02  0.24064440855E+02  0.00000000000E+00 0.  1.
</event>
<event>
 5    1  0.8875601E-005  0.9118800E+02  0.7818608E-02  0.1130116E+00
         25   -1    0    0    0    0  0.00000000000E+00  0.00000000000E+00  0.99999998245E-14  0.12500000000E+03  0.12500000000E+03 0.  0.
        -11    1    3    3    0    0 -0.36246618885E+02  0.81516476529E+01 -0.46397301383E+02  0.59438845177E+02  0.51100000000E-03 0. -1.
         23    2    1    0    0    0 -0.34250951249E+01  0.35012883196E+01 -0.26392889151E+02  0.98156473886E+02  0.94414609418E+02 0.  0.
         11    1    3    3    0    0  0.32821523760E+02 -0.46503593333E+01  0.20004412232E+02  0.38717628710E+02  0.51100000000E-03 0.  1.
         22    1    1    0    0    0  0.34250951249E+01 -0.35012883196E+01  0.26392889151E+02  0.26843526114E+02  0.00000000000E+00 0. -1.
</event>
<event>
 5    1  0.8875601E-005  0.9118800E+02  0.7818608E-02  0.1130116E+00
         25   -1    0    0    0    0  0.00000000000E+00  0.00000000000E+00  0.99999998245E-14  0.12500000000E+03  0.12500000000E+03 0.  0.
        -11    1    3    3    0    0  0.48083104810E+02 -0.22764602749E+01  0.14357908279E+02  0.50232626549E+02  0.51100000000E-03 0.  1.
         23    2    1    0    0    0  0.12693024023E+02  0.25187798308E+02  0.18926826344E+01  0.96731284253E+02  0.92508491844E+02 0.  0.
         11    1    3    3    0    0 -0.35390080788E+02  0.27464258583E+02 -0.12465225644E+02  0.46498657704E+02  0.51100000000E-03 0. -1.
         22    1    1    0    0    0 -0.12693024023E+02 -0.25187798308E+02 -0.18926826344E+01  0.28268715747E+02  0.00000000000E+00 0. -1.
</event>
<event>
 5    1  0.8875601E-005  0.9118800E+02  0.7818608E-02  0.1130116E+00
         25   -1    0    0    0    0  0.00000000000E+00  0.00000000000E+00  0.99999998245E-14  0.12500000000E+03  0.12500000000E+03 0.  0.
        -11    1    3    3    0    0  0.25230333381E+02 -0.35902122379E+02  0.33668367828E+02  0.55309050853E+02  0.51100000000E-03 0.  1.
         23    2    1    0    0    0  0.28995029771E+02 -0.85576688977E+01  0.64218112903E+01  0.94093930877E+02  0.88873408393E+02 0.  0.
         11    1    3    3    0    0  0.37646963897E+01  0.27344453481E+02 -0.27246556538E+02  0.38784880024E+02  0.51100000000E-03 0. -1.
         22    1    1    0    0    0 -0.28995029771E+02  0.85576688977E+01 -0.64218112903E+01  0.30906069123E+02  0.00000000000E+00 0.  1.
</event>
<event>
 5    1  0.8875601E-005  0.9118800E+02  0.7818608E-02  0.1130116E+00
         25   -1    0    0    0    0  0.00000000000E+00  0.00000000000E+00  0.99999998245E-14  0.12500000000E+03  0.12500000000E+03 0.  0.
        -11    1    3    3    0    0  0.29360038828E+02 -0.12054827835E+02 -0.10615482838E+02  0.33466688367E+02  0.51100000000E-03 0.  1.
         23    2    1    0    0    0 -0.16353337177E+02  0.13301787641E+02  0.21557446309E+02  0.94848836132E+02  0.89928910996E+02 0.  0.
         11    1    3    3    0    0 -0.45713376004E+02  0.25356615476E+02  0.32172929146E+02  0.61382147765E+02  0.51100000000E-03 0. -1.
         22    1    1    0    0    0  0.16353337177E+02 -0.13301787641E+02 -0.21557446309E+02  0.30151163868E+02  0.00000000000E+00 0. -1.
</event>
<event>
 5    1  0.8875601E-005  0.9118800E+02  0.7818608E-02  0.1130116E+00
         25   -1    0    0    0    0  0.00000000000E+00  0.00000000000E+00  0.99999998245E-14  0.12500000000E+03  0.12500000000E+03 0.  0.
        -11    1    3    3    0    0 -0.43947264564E+01  0.80179727098E+01 -0.45033670145E+02  0.45952507592E+02  0.51100000000E-03 0.  1.
         23    2    1    0    0    0  0.24911616790E+02 -0.12180411068E+02 -0.11094022985E+02  0.95133155324E+02  0.90323246349E+02 0.  0.
         11    1    3    3    0    0  0.29306343247E+02 -0.20198383778E+02  0.33939647160E+02  0.49180647732E+02  0.51100000000E-03 0. -1.
         22    1    1    0    0    0 -0.24911616790E+02  0.12180411068E+02  0.11094022985E+02  0.29866844676E+02  0.00000000000E+00 0.  1.
</event>
<event>
 5    1  0.8875601E-005  0.9118800E+02  0.7818608E-02  0.1130116E+00
         25   -1    0    0    0    0  0.00000000000E+00  0.00000000000E+00  0.99999998245E-14  0.12500000000E+03  0.12500000000E+03 0.  0.
        -11    1    3    3    0    0 -0.21431078041E+02  0.22538402171E+02 -0.61215536557E+01  0.31697698621E+02  0.51100000000E-03 0.  1.
         23    2    1    0    0    0  0.11477263835E+02 -0.28411007412E+02 -0.10750365792E+02  0.92527191499E+02  0.86641779038E+02 0.  0.
         11    1    3    3    0    0  0.32908341876E+02 -0.50949409582E+02 -0.46288121358E+01  0.60829492879E+02  0.51100000000E-03 0. -1.
         22    1    1    0    0    0 -0.11477263835E+02  0.28411007412E+02  0.10750365792E+02  0.32472808501E+02  0.00000000000E+00 0. -1.
</event>
<event>
 5    1  0.8875601E-005  0.9118800E+02  0.7818608E-02  0.1130116E+00
         25   -1    0    0    0    0  0.00000000000E+00  0.00000000000E+00  0.99999998245E-14  0.12500000000E+03  0.12500000000E+03 0.  0.
        -11    1    3    3    0    0 -0.22445729038E+02 -0.36201940246E+02 -0.16817301904E+02  0.45795336807E+02  0.51100000000E-03 0.  1.
         23    2    1    0    0    0 -0.19612942209E+02  0.54207669323E+01 -0.29286925919E+02  0.89338028012E+02  0.81911580397E+02 0.  0.
         11    1    3    3    0    0  0.28327868290E+01  0.41622707179E+02 -0.12469624015E+02  0.43542691206E+02  0.51100000000E-03 0. -1.
         22    1    1    0    0    0  0.19612942209E+02 -0.54207669323E+01  0.29286925919E+02  0.35661971988E+02  0.00000000000E+00 0.  1.
</event>
<event>
 5    1  0.8875601E-005  0.9118800E+02  0.7818608E-02  0.1130116E+00
         25   -1    0    0    0    0  0.00000000000E+00  0.00000000000E+00  0.99999998245E-14  0.12500000000E+03  0.12500000000E+03 0.  0.
        -11    1    3    3    0    0 -0.34596836859E+02 -0.71287212312E+01 -0.50738790063E+02  0.61823819070E+02  0.51100000000E-03 0. -1.
         23    2    1    0    0    0 -0.17721431957E+02  0.29310383921E+01 -0.22935132087E+02  0.95868223183E+02  0.91334855317E+02 0.  0.
         11    1    3    3    0    0  0.16875404902E+02  0.10059759623E+02  0.27803657976E+02  0.34044404113E+02  0.51100000000E-03 0.  1.
         22    1    1    0    0    0  0.17721431957E+02 -0.29310383921E+01  0.22935132087E+02  0.29131776817E+02  0.00000000000E+00 0. -1.
</event>
<event>
 5    1  0.8875601E-005  0.9118800E+02  0.7818608E-02  0.1130116E+00
         25   -1    0    0    0    0  0.00000000000E+00  0.00000000000E+00  0.99999998245E-14  0.12500000000E+03  0.12500000000E+03 0.  0.
        -11    1    3    3    0    0 -0.50576023587E+02 -0.32591406072E+02  0.20387689082E+01  0.60202080451E+02  0.51100000000E-03 0. -1.
         23    2    1    0    0    0 -0.15541872792E+02 -0.22087041972E+02  0.69696664093E+01  0.97108003248E+02  0.93016131999E+02 0.  0.
         11    1    3    3    0    0  0.35034150795E+02  0.10504364100E+02  0.49308975012E+01  0.36905922797E+02  0.51100000000E-03 0.  1.
         22    1    1    0    0    0  0.15541872792E+02  0.22087041972E+02 -0.69696664093E+01  0.27891996752E+02  0.00000000000E+00 0. -1.
</event>
<event>
 5    1  0.8875601E-005  0.9118800E+02  0.7818608E-02  0.1130116E+00
         25   -1    0    0    0    0  0.00000000000E+00  0.00000000000E+00  0.99999998245E-14  0.12500000000E+03  0.12500000000E+03 0.  0.
        -11    1    3    3    0    0  0.27781249523E+02 -0.42149529904E+02  0.68918420049E+01  0.50949761360E+02  0.51100000000E-03 0.  1.
         23    2    1    0    0    0 -0.12585146121E+02 -0.27800392507E+02 -0.78743863959E+00  0.94473490438E+02  0.89405663184E+02 0.  0.
         11    1    3    3    0    0 -0.40366395644E+02  0.14349137397E+02 -0.76792806445E+01  0.43523729077E+02  0.51100000000E-03 0. -1.
         22    1    1    0    0    0  0.12585146121E+02  0.27800392507E+02  0.78743863959E+00  0.30526509562E+02  0.00000000000E+00 0.  1.
</event>
<event>
 5    1  0.8875601E-005  0.9118800E+02  0.7818608E-02  0.1130116E+00
         25   -1    0    0    0    0  0.00000000000E+00  0.00000000000E+00  0.99999998245E-14  0.12500000000E+03  0.12500000000E+03 0.  0.
        -11    1    3    3    0    0  0.65145447036E+01  0.20467891254E+02  0.53210385114E+02  0.57382218059E+02  0.51100000000E-03 0. -1.
         23    2    1    0    0    0  0.13275725826E+02 -0.52986669728E+01  0.25137984411E+02  0.96082202225E+02  0.91627236979E+02 0.  0.
         11    1    3    3    0    0  0.67611811221E+01 -0.25766558227E+02 -0.28072400703E+02  0.38699984167E+02  0.51100000000E-03 0.  1.
         22    1    1    0    0    0 -0.13275725826E+02  0.52986669728E+01 -0.25137984411E+02  0.28917797775E+02  0.00000000000E+00 0. -1.
</event>
<event>
 5    1  0.8875601E-005  0.9118800E+02  0.7818608E-02  0.1130116E+00
         25   -1    0    0    0    0  0.00000000000E+00  0.00000000000E+00  0.99999998245E-14  0.12500000000E+03  0.12500000000E+03 0.  0.
        -11    1    3    3    0    0  0.32777325737E+02  0.22385664516E+02  0.78961413070E+01  0.40469990191E+02  0.51100000000E-03 0.  1.
         23    2    1    0    0    0  0.11302404389E+02 -0.27506960832E+02  0.78836035332E+00  0.95251071427E+02  0.90486285462E+02 0.  0.
         11    1    3    3    0    0 -0.21474921347E+02 -0.49892625348E+02 -0.71077809537E+01  0.54781081236E+02  0.51100000000E-03 0. -1.
         22    1    1    0    0    0 -0.11302404389E+02  0.27506960832E+02 -0.78836035332E+00  0.29748928573E+02  0.00000000000E+00 0. -1.
</event>
<event>
 5    1  0.8875601E-005  0.9118800E+02  0.7818608E-02  0.1130116E+00
         25   -1    0    0    0    0  0.00000000000E+00  0.00000000000E+00  0.99999998245E-14  0.12500000000E+03  0.12500000000E+03 0.  0.
        -11    1    3    3    0    0  0.43964725304E+02  0.20197741383E+02 -0.37694453100E+02  0.61332842937E+02  0.51100000000E-03 0.  1.
         23    2    1    0    0    0  0.23228575163E+02  0.14531453130E+01 -0.18929774983E+02  0.94999754730E+02  0.90138441757E+02 0.  0.
         11    1    3    3    0    0 -0.20736150141E+02 -0.18744596070E+02  0.18764678117E+02  0.33666911792E+02  0.51100000000E-03 0. -1.
         22    1    1    0    0    0 -0.23228575163E+02 -0.14531453130E+01  0.18929774983E+02  0.30000245270E+02  0.00000000000E+00 0.  1.
</event>
<event>
 5    1  0.8875601E-005  0.9118800E+02  0.7818608E-02  0.1130116E+00
         25   -1    0    0    0    0  0.00000000000E+00  0.00000000000E+00  0.99999998245E-14  0.12500000000E+03  0.12500000000E+03 0.  0.
        -11    1    3    3    0    0  0.40752620322E+02  0.31543284523E+02 -0.11722834831E+02  0.52850541325E+02  0.51100000000E-03 0. -1.
         23    2    1    0    0    0  0.49253303998E-01  0.19845183066E+02 -0.20894270296E+02  0.96183264445E+02  0.91765004829E+02 0.  0.
         11    1    3    3    0    0 -0.40703367018E+02 -0.11698101456E+02 -0.91714354654E+01  0.43332723121E+02  0.51100000000E-03 0.  1.
         22    1    1    0    0    0 -0.49253303998E-01 -0.19845183066E+02  0.20894270296E+02  0.28816735555E+02  0.00000000000E+00 0. -1.
</event>
<event>
 5    1  0.8875601E-005  0.9118800E+02  0.7818608E-02  0.1130116E+00
         25   -1    0    0    0    0  0.00000000000E+00  0.00000000000E+00  0.99999998245E-14  0.12500000000E+03  0.12500000000E+03 0.  0.
        -11    1    3    3    0    0 -0.45169716095E+02  0.20888103579E+00  0.33245172442E+02  0.56085545146E+02  0.51100000000E-03 0.  1.
         23    2    1    0    0    0 -0.39474754548E+02 -0.12012189442E+02  0.10669566713E+02  0.82380889314E+02  0.70499803748E+02 0.  0.
         11    1    3    3    0    0  0.56949615469E+01 -0.12221070478E+02 -0.22575605729E+02  0.26295344168E+02  0.51100000000E-03 0. -1.
         22    1    1    0    0    0  0.39474754548E+02  0.12012189442E+02 -0.10669566713E+02  0.42619110686E+02  0.00000000000E+00 0.  1.
</event>
<event>
 5    1  0.8875601E-005  0.9118800E+02  0.7818608E-02  0.1130116E+00
         25   -1    0    0    0    0  0.00000000000E+00  0.00000000000E+00  0.99999998245E-14  0.12500000000E+03  0.12500000000E+03 0.  0.
        -11    1    3    3    0    0  0.18757124125E+02 -0.31523809564E+02  0.11914794716E+02  0.38568673924E+02  0.51100000000E-03 0.  1.
         23    2    1    0    0    0 -0.43723157497E+01  0.19884369156E+02  0.21094637341E+02  0.95682957068E+02  0.91080948979E+02 0.  0.
         11    1    3    3    0    0 -0.23129439875E+02  0.51408178720E+02  0.91798426249E+01  0.57114283144E+02  0.51100000000E-03 0. -1.
         22    1    1    0    0    0  0.43723157497E+01 -0.19884369156E+02 -0.21094637341E+02  0.29317042932E+02  0.00000000000E+00 0. -1.
</event>
<event>
 5    1  0.8875601E-005  0.9118800E+02  0.7818608E-02  0.1130116E+00
         25   -1    0    0    0    0  0.00000000000E+00  0.00000000000E+00  0.99999998245E-14  0.12500000000E+03  0.12500000000E+03 0.  0.
        -11    1    3    3    0    0 -0.48139503343E+01  0.52755513083E+02  0.19322507395E+02  0.56388629800E+02  0.51100000000E-03 0.  1.
         23    2    1    0    0    0  0.12695201407E+02  0.25882117784E+02 -0.37918457571E+01  0.95923716640E+02  0.91410771576E+02 0.  0.
         11    1    3    3    0    0  0.17509151742E+02 -0.26873395299E+02 -0.23114353152E+02  0.39535086840E+02  0.51100000000E-03 0. -1.
         22    1    1    0    0    0 -0.12695201407E+02 -0.25882117784E+02  0.37918457571E+01  0.29076283360E+02  0.00000000000E+00 0.  1.
</event>
<event>
 5    1  0.8875601E-005  0.9118800E+02  0.7818608E-02  0.1130116E+00
         25   -1    0    0    0    0  0.00000000000E+00  0.00000000000E+00  0.99999998245E-14  0.12500000000E+03  0.12500000000E+03 0.  0.
        -11    1    3    3    0    0 -0.37037851543E+02  0.41688406453E+02  0.15242275025E+02  0.57810488908E+02  0.51100000000E-03 0. -1.
         23    2    1    0    0    0 -0.10421135030E+02  0.27088876485E+02 -0.66314508552E+01  0.95227807857E+02  0.90454142880E+02 0.  0.
         11    1    3    3    0    0  0.26616716513E+02 -0.14599529968E+02 -0.21873725880E+02  0.37417318949E+02  0.51100000000E-03 0.  1.
         22    1    1    0    0    0  0.10421135030E+02 -0.27088876485E+02  0.66314508552E+01  0.29772192143E+02  0.00000000000E+00 0. -1.
</event>
<event>
 5    1  0.8875601E-005  0.9118800E+02  0.7818608E-02  0.1130116E+00
         25   -1    0    0    0    0  0.00000000000E+00  0.00000000000E+00  0.99999998245E-14  0.12500000000E+03  0.12500000000E+03 0.  0.
        -11    1    3    3    0    0  0.56027745611E+02 -0.22920590133E+02 -0.55228766202E+01  0.60786214693E+02  0.51100000000E-03 0. -1.
         23    2    1    0    0    0  0.19765690758E+02 -0.19098933005E+02 -0.33056752457E+01  0.97316444197E+02  0.93295825465E+02 0.  0.
         11    1    3    3    0    0 -0.36262054853E+02  0.38216571281E+01  0.22172013745E+01  0.36530229503E+02  0.51100000000E-03 0.  1.
         22    1    1    0    0    0 -0.19765690758E+02  0.19098933005E+02  0.33056752457E+01  0.27683555803E+02  0.00000000000E+00 0. -1.
</event>
<event>
 5    1  0.8875601E-005  0.9118800E+02  0.7818608E-02  0.1130116E+00
         25   -1    0    0    0    0  0.00000000000E+00  0.00000000000E+00  0.99999998245E-14  0.12500000000E+03  0.12500000000E+03 0.  0.
        -11    1    3    3    0    0  0.12341933027E+02  0.10683900444E+02 -0.48280207285E+02  0.50965159230E+02  0.51100000000E-03 0. -1.
         23    2    1    0    0    0  0.41456311602E+01  0.27648276379E+02 -0.72445746532E+01  0.96119257171E+02  0.91677774257E+02 0.  0.
         11    1    3    3    0    0 -0.81963018670E+01  0.16964375935E+02  0.41035632632E+02  0.45154097941E+02  0.51100000000E-03 0.  1.
         22    1    1    0    0    0 -0.41456311602E+01 -0.27648276379E+02  0.72445746532E+01  0.28880742829E+02  0.00000000000E+00 0. -1.
</event>
<event>
 5    1  0.8875601E-005  0.9118800E+02  0.7818608E-02  0.1130116E+00
         25   -1    0    0    0    0  0.00000000000E+00  0.00000000000E+00  0.99999998245E-14  0.12500000000E+03  0.12500000000E+03 0.  0.
        -11    1    3    3    0    0  0.24441815968E+02 -0.25795570783E+02 -0.47603606288E+02  0.59404689812E+02  0.51100000000E-03 0. -1.
         23    2    1    0    0    0  0.23270166658E+02 -0.11453382579E+02 -0.15009654953E+02  0.95033846249E+02  0.90185705975E+02 0.  0.
         11    1    3    3    0    0 -0.11716493092E+01  0.14342188203E+02  0.32593951335E+02  0.35629156437E+02  0.51100000000E-03 0.  1.
         22    1    1    0    0    0 -0.23270166658E+02  0.11453382579E+02  0.15009654953E+02  0.29966153751E+02  0.00000000000E+00 0. -1.
</event>
<event>
 5    1  0.8875601E-005  0.9118800E+02  0.7818608E-02  0.1130116E+00
         25   -1    0    0    0    0  0.00000000000E+00  0.00000000000E+00  0.99999998245E-14  0.12500000000E+03  0.12500000000E+03 0.  0.
        -11    1    3    3    0    0  0.92840354836E+01  0.33694744050E+02  0.21593820959E+01  0.35017024756E+02  0.51100000000E-03 0. -1.
         23    2    1    0    0    0  0.13819343054E+02 -0.22420770562E+02  0.17512746082E+02  0.93371508567E+02  0.87851449287E+02 0.  0.
         11    1    3    3    0    0  0.45353075701E+01 -0.56115514612E+02  0.15353363986E+02  0.58354483811E+02  0.51100000000E-03 0.  1.
         22    1    1    0    0    0 -0.13819343054E+02  0.22420770562E+02 -0.17512746082E+02  0.31628491433E+02  0.00000000000E+00 0.  1.
</event>
<event>
 5    1  0.8875601E-005  0.9118800E+02  0.7818608E-02  0.1130116E+00
         25   -1    0    0    0    0  0.00000000000E+00  0.00000000000E+00  0.99999998245E-14  0.12500000000E+03  0.12500000000E+03 0.  0.
        -11    1    3    3    0    0 -0.15312124829E+02 -0.47778198809E+02  0.19488793033E+02  0.53824069916E+02  0.51100000000E-03 0.  1.
         23    2    1    0    0    0  0.12518395481E+02 -0.25900939666E+02 -0.34802375195E+01  0.96022751093E+02  0.91546096440E+02 0.  0.
         11    1    3    3    0    0  0.27830520310E+02  0.21877259143E+02 -0.22969030552E+02  0.42198681177E+02  0.51100000000E-03 0. -1.
         22    1    1    0    0    0 -0.12518395481E+02  0.25900939666E+02  0.34802375195E+01  0.28977248907E+02  0.00000000000E+00 0.  1.
</event>
<event>
 5    1  0.8875601E-005  0.9118800E+02  0.7818608E-02  0.1130116E+00
         25   -1    0    0    0    0  0.00000000000E+00  0.00000000000E+00  0.99999998245E-14  0.12500000000E+03  0.12500000000E+03 0.  0.
        -11    1    3    3    0    0  0.28863831313E+02  0.36168786144E+01  0.11261190280E+02  0.31193220029E+02  0.51100000000E-03 0.  1.
         23    2    1    0    0    0 -0.26636394169E+02 -0.12018615142E+02 -0.12053962504E+02  0.93389200954E+02  0.87876619408E+02 0.  0.
         11    1    3    3    0    0 -0.55500225483E+02 -0.15635493756E+02 -0.23315152784E+02  0.62195980925E+02  0.51100000000E-03 0. -1.
         22    1    1    0    0    0  0.26636394169E+02  0.12018615142E+02  0.12053962504E+02  0.31610799046E+02  0.00000000000E+00 0. -1.
</event>
<event>
 5    1  0.8875601E-005  0.9118800E+02  0.7818608E-02  0.1130116E+00
         25   -1    0    0    0    0  0.00000000000E+00  0.00000000000E+00  0.99999998245E-14  0.12500000000E+03  0.12500000000E+03 0.  0.
        -11    1    3    3    0    0 -0.48016600159E+02 -0.89270392983E+01 -0.18692754371E+02  0.52294406849E+02  0.51100000000E-03 0.  1.
         23    2    1    0    0    0 -0.28598773661E+02  0.33436627386E+01  0.14579721131E+02  0.92725579732E+02  0.86927526900E+02 0.  0.
         11    1    3    3    0    0  0.19417826498E+02  0.12270702037E+02  0.33272475502E+02  0.40431172883E+02  0.51100000000E-03 0. -1.
         22    1    1    0    0    0  0.28598773661E+02 -0.33436627386E+01 -0.14579721131E+02  0.32274420268E+02  0.00000000000E+00 0. -1.
</event>
<event>
 5    1  0.8875601E-005  0.9118800E+02  0.7818608E-02  0.1130116E+00
         25   -1    0    0    0    0  0.00000000000E+00  0.00000000000E+00  0.99999998245E-14  0.12500000000E+03  0.12500000000E+03 0.  0.
        -11    1    3    3    0    0  0.11994524776E+02  0.27042948222E+02  0.75451573517E+01  0.30530625164E+02  0.51100000000E-03 0.  1.
         23    2    1    0    0    0  0.10375213957E+02 -0.32419272979E+02 -0.25506794006E+01  0.90865555658E+02  0.84210384837E+02 0.  0.
         11    1    3    3    0    0 -0.16193108193E+01 -0.59462221201E+02 -0.10095836752E+02  0.60334930494E+02  0.51100000000E-03 0. -1.
         22    1    1    0    0    0 -0.10375213957E+02  0.32419272979E+02  0.25506794006E+01  0.34134444342E+02  0.00000000000E+00 0. -1.
</event>
<event>
 5    1  0.8875601E-005  0.9118800E+02  0.7818608E-02  0.1130116E+00
         25   -1    0    0    0    0  0.00000000000E+00  0.00000000000E+00  0.99999998245E-14  0.12500000000E+03  0.12500000000E+03 0.  0.
        -11    1    3    3    0    0  0.12761056672E+01  0.47754038493E+02 -0.90283045485E+01  0.48616734992E+02  0.51100000000E-03 0.  1.
         23    2    1    0    0    0  0.12651968723E+02  0.13984017807E+02  0.22110620454E+02  0.95939638622E+02  0.91432541556E+02 0.  0.
         11    1    3    3    0    0  0.11375863056E+02 -0.33770020686E+02  0.31138925002E+02  0.47322903629E+02  0.51100000000E-03 0. -1.
         22    1    1    0    0    0 -0.12651968723E+02 -0.13984017807E+02 -0.22110620454E+02  0.29060361378E+02  0.00000000000E+00 0.  1.
</event>
<event>
 5    1  0.8875601E-005  0.9118800E+02  0.7818608E-02  0.1130116E+00
         25   -1    0    0    0    0  0.00000000000E+00  0.00000000000E+00  0.99999998245E-14  0.12500000000E+03  0.12500000000E+03 0.  0.
        -11    1    3    3    0    0 -0.34680050712E+02 -0.22999744005E+02 -0.24471051254E+02  0.48275526837E+02  0.51100000000E-03 0.  1.
         23    2    1    0    0    0 -0.23065991142E+02 -0.87713821586E+01  0.17938615320E+02  0.94491460017E+02  0.89430783314E+02 0.  0.
         11    1    3    3    0    0  0.11614059570E+02  0.14228361846E+02  0.42409666574E+02  0.46215933180E+02  0.51100000000E-03 0. -1.
         22    1    1    0    0    0  0.23065991142E+02  0.87713821586E+01 -0.17938615320E+02  0.30508539983E+02  0.00000000000E+00 0.  1.
</event>
<event>
 5    1  0.8875601E-005  0.9118800E+02  0.7818608E-02  0.1130116E+00
         25   -1    0    0    0    0  0.00000000000E+00  0.00000000000E+00  0.99999998245E-14  0.12500000000E+03  0.12500000000E+03 0.  0.
        -11    1    3    3    0    0 -0.81470412685E+01  0.44503471386E+02  0.18002581360E+02  0.48693184150E+02  0.51100000000E-03 0.  1.
         23    2    1    0    0    0 -0.28300642166E+02  0.64472443298E+01 -0.14323796216E+01  0.95938943278E+02  0.91431590927E+02 0.  0.
         11    1    3    3    0    0 -0.20153600897E+02 -0.38056227056E+02 -0.19434960981E+02  0.47245759127E+02  0.51100000000E-03 0. -1.
         22    1    1    0    0    0  0.28300642166E+02 -0.64472443298E+01  0.14323796216E+01  0.29061056722E+02  0.00000000000E+00 0. -1.
</event>
<event>
 5    1  0.8875601E-005  0.9118800E+02  0.7818608E-02  0.1130116E+00
         25   -1    0    0    0    0  0.00000000000E+00  0.00000000000E+00  0.99999998245E-14  0.12500000000E+03  0.12500000000E+03 0.  0.
        -11    1    3    3    0    0  0.23997803394E+02 -0.19665433171E+02  0.51907452917E+02  0.60473196526E+02  0.51100000000E-03 0. -1.
         23    2    1    0    0    0  0.14636067107E+02  0.14262213764E+01  0.25683947060E+02  0.95404160691E+02  0.90697520213E+02 0.  0.
         11    1    3    3    0    0 -0.93617362870E+01  0.21091654547E+02 -0.26223505857E+02  0.34930964165E+02  0.51100000000E-03 0.  1.
         22    1    1    0    0    0 -0.14636067107E+02 -0.14262213764E+01 -0.25683947060E+02  0.29595839309E+02  0.00000000000E+00 0. -1.
</event>
<event>
 5    1  0.8875601E-005  0.9118800E+02  0.7818608E-02  0.1130116E+00
         25   -1    0    0    0    0  0.00000000000E+00  0.00000000000E+00  0.99999998245E-14  0.12500000000E+03  0.12500000000E+03 0.  0.
        -11    1    3    3    0    0  0.30230656165E+02 -0.11332601798E+02  0.21892038819E+02  0.39007458257E+02  0.51100000000E-03 0.  1.
         23    2    1    0    0    0 -0.24072887409E+02 -0.15515662358E+02  0.60631782760E+01  0.95725406622E+02  0.91139188363E+02 0.  0.
         11    1    3    3    0    0 -0.54303543575E+02 -0.41830605599E+01 -0.15828860543E+02  0.56717948366E+02  0.51100000000E-03 0. -1.
         22    1    1    0    0    0  0.24072887409E+02  0.15515662358E+02 -0.60631782760E+01  0.29274593378E+02  0.00000000000E+00 0. -1.
</event>
<event>
 5    1  0.8875601E-005  0.9118800E+02  0.7818608E-02  0.1130116E+00
         25   -1    0    0    0    0  0.00000000000E+00  0.00000000000E+00  0.99999998245E-14  0.12500000000E+03  0.12500000000E+03 0.  0.
        -11    1    3    3    0    0  0.38622460420E+02 -0.25585959054E+02  0.35324998451E+02  0.58259688168E+02  0.51100000000E-03 0. -1.
         23    2    1    0    0    0  0.46895320099E+01 -0.21844355139E+02  0.16322969888E+02  0.97330397403E+02  0.93314518435E+02 0.  0.
         11    1    3    3    0    0 -0.33932928410E+02  0.37416039153E+01 -0.19002028563E+02  0.39070709235E+02  0.51100000000E-03 0.  1.
         22    1    1    0    0    0 -0.46895320099E+01  0.21844355139E+02 -0.16322969888E+02  0.27669602597E+02  0.00000000000E+00 0. -1.
</event>
<event>
 5    1  0.8875601E-005  0.9118800E+02  0.7818608E-02  0.1130116E+00
         25   -1    0    0    0    0  0.00000000000E+00  0.00000000000E+00  0.99999998245E-14  0.12500000000E+03  0.12500000000E+03 0.  0.
        -11    1    3    3    0    0  0.36591938929E+01  0.27337938715E+01 -0.31891975257E+02  0.32217408570E+02  0.51100000000E-03 0.  1.
         23    2    1    0    0    0 -0.11938226202E+02  0.18029265988E+02  0.24279525054E+02  0.92487371473E+02  0.86584310751E+02 0.  0.
         11    1    3    3    0    0 -0.15597420095E+02  0.15295472117E+02  0.56171500311E+02  0.60269962903E+02  0.51100000000E-03 0. -1.
         22    1    1    0    0    0  0.11938226202E+02 -0.18029265988E+02 -0.24279525054E+02  0.32512628527E+02  0.00000000000E+00 0. -1.
</event>
<event>
 5    1  0.8875601E-005  0.9118800E+02  0.7818608E-02  0.1130116E+00
         25   -1    0    0    0    0  0.00000000000E+00  0.00000000000E+00  0.99999998245E-14  0.12500000000E+03  0.12500000000E+03 0.  0.
        -11    1    3    3    0    0  0.15109114530E+02  0.30153229253E+02  0.32562779247E+02  0.46881096071E+02  0.51100000000E-03 0.  1.
         23    2    1    0    0    0  0.21621591290E+02 -0.14380734788E+02  0.10757492668E+02  0.96892663032E+02  0.92726294857E+02 0.  0.
         11    1    3    3    0    0  0.65124767597E+01 -0.44533964041E+02 -0.21805286580E+02  0.50011566960E+02  0.51100000000E-03 0. -1.
         22    1    1    0    0    0 -0.21621591290E+02  0.14380734788E+02 -0.10757492668E+02  0.28107336968E+02  0.00000000000E+00 0.  1.
</event>
<event>
 5    1  0.8875601E-005  0.9118800E+02  0.7818608E-02  0.1130116E+00
         25   -1    0    0    0    0  0.00000000000E+00  0.00000000000E+00  0.99999998245E-14  0.12500000000E+03  0.12500000000E+03 0.  0.
        -11    1    3    3    0    0  0.40380243447E+02  0.23939706234E+02  0.42574291399E+01  0.47135966083E+02  0.51100000000E-03 0.  1.
         23    2    1    0    0    0  0.11791327979E+01  0.31797459543E+02  0.16773688551E+02  0.89030215248E+02  0.81440492459E+02 0.  0.
         11    1    3    3    0    0 -0.39201110649E+02  0.78577533081E+01  0.12516259411E+02  0.41894249165E+02  0.51100000000E-03 0. -1.
         22    1    1    0    0    0 -0.11791327979E+01 -0.31797459543E+02 -0.16773688551E+02  0.35969784752E+02  0.00000000000E+00 0.  1.
</event>
<event>
 5    1  0.8875601E-005  0.9118800E+02  0.7818608E-02  0.1130116E+00
         25   -1    0    0    0    0  0.00000000000E+00  0.00000000000E+00  0.99999998245E-14  0.12500000000E+03  0.12500000000E+03 0.  0.
        -11    1    3    3    0    0 -0.40139920991E+02 -0.14740506487E+02  0.11774551343E+02  0.44352405213E+02  0.51100000000E-03 0.  1.
         23    2    1    0    0    0  0.78561920433E+01 -0.28676870504E+02  0.60445766230E+01  0.94658286767E+02  0.89663658702E+02 0.  0.
         11    1    3    3    0    0  0.47996113034E+02 -0.13936364018E+02 -0.57299747200E+01  0.50305881554E+02  0.51100000000E-03 0. -1.
         22    1    1    0    0    0 -0.78561920433E+01  0.28676870504E+02 -0.60445766230E+01  0.30341713233E+02  0.00000000000E+00 0. -1.
</event>
<event>
 5    1  0.8875601E-005  0.9118800E+02  0.7818608E-02  0.1130116E+00
         25   -1    0    0    0    0  0.00000000000E+00  0.00000000000E+00  0.99999998245E-14  0.12500000000E+03  0.12500000000E+03 0.  0.
        -11    1    3    3    0    0  0.20775835248E+02 -0.26166069315E+02  0.19039395675E+02  0.38455131018E+02  0.51100000000E-03 0. -1.
         23    2    1    0    0    0  0.13181558550E+02  0.26202289994E+02  0.16304356883E+02  0.91441907979E+02  0.85061607054E+02 0.  0.
         11    1    3    3    0    0 -0.75942766985E+01  0.52368359309E+02 -0.27350387921E+01  0.52986776961E+02  0.51100000000E-03 0.  1.
         22    1    1    0    0    0 -0.13181558550E+02 -0.26202289994E+02 -0.16304356883E+02  0.33558092021E+02  0.00000000000E+00 0.  1.
</event>
<event>
 5    1  0.8875601E-005  0.9118800E+02  0.7818608E-02  0.1130116E+00
         25   -1    0    0    0    0  0.00000000000E+00  0.00000000000E+00  0.99999998245E-14  0.12500000000E+03  0.12500000000E+03 0.  0.
        -11    1    3    3    0    0  0.20911114535E+02 -0.29446756594E+02 -0.43984440099E+01  0.36383134760E+02  0.51100000000E-03 0. -1.
         23    2    1    0    0    0 -0.40159670331E+00  0.19175466404E+02  0.22117310940E+02  0.95724835868E+02  0.91138405555E+02 0.  0.
         11    1    3    3    0    0 -0.21312711239E+02  0.48622222998E+02  0.26515754949E+02  0.59341701108E+02  0.51100000000E-03 0.  1.
         22    1    1    0    0    0  0.40159670331E+00 -0.19175466404E+02 -0.22117310940E+02  0.29275164132E+02  0.00000000000E+00 0.  1.
</event>
<event>
 5    1  0.8875601E-005  0.9118800E+02  0.7818608E-02  0.1130116E+00
         25   -1    0    0    0    0  0.00000000000E+00  0.00000000000E+00  0.99999998245E-14  0.12500000000E+03  0.12500000000E+03 0.  0.
        -11    1    3    3    0    0  0.47085852328E+02 -0.28935457127E+02  0.27453874819E+02  0.61709427249E+02  0.51100000000E-03 0. -1.
         23    2    1    0    0    0  0.25608360364E+02 -0.97868638077E+01  0.80034390402E+01  0.96440835793E+02  0.92115193905E+02 0.  0.
         11    1    3    3    0    0 -0.21477491963E+02  0.19148593320E+02 -0.19450435779E+02  0.34731408543E+02  0.51100000000E-03 0.  1.
         22    1    1    0    0    0 -0.25608360364E+02  0.97868638077E+01 -0.80034390402E+01  0.28559164207E+02  0.00000000000E+00 0. -1.
</event>
<event>
 5    1  0.8875601E-005  0.9118800E+02  0.7818608E-02  0.1130116E+00
         25   -1    0    0    0    0  0.00000000000E+00  0.00000000000E+00  0.99999998245E-14  0.12500000000E+03  0.12500000000E+03 0.  0.
        -11    1    3    3    0    0 -0.19688940584E+02 -0.10388342372E+02  0.55302133824E+02  0.59614579126E+02  0.51100000000E-03 0.  1.
         23    2    1    0    0    0 -0.64711884358E+01 -0.17435107737E+02  0.21589965823E+02  0.96504633959E+02  0.92201727152E+02 0.  0.
         11    1    3    3    0    0  0.13217752148E+02 -0.70467653651E+01 -0.33712168002E+02  0.36890054833E+02  0.51100000000E-03 0. -1.
         22    1    1    0    0    0  0.64711884358E+01  0.17435107737E+02 -0.21589965823E+02  0.28495366041E+02  0.00000000000E+00 0.  1.
</event>
<event>
 5    1  0.8875601E-005  0.9118800E+02  0.7818608E-02  0.1130116E+00
         25   -1    0    0    0    0  0.00000000000E+00  0.00000000000E+00  0.99999998245E-14  0.12500000000E+03  0.12500000000E+03 0.  0.
        -11    1    3    3    0    0 -0.34590110889E+02 -0.48370150116E+02  0.28638998152E+01  0.59534436388E+02  0.51100000000E-03 0.  1.
         23    2    1    0    0    0 -0.26724163743E+02 -0.15905651166E+02 -0.40250390159E+01  0.93641243553E+02  0.88234408755E+02 0.  0.
         11    1    3    3    0    0  0.78659471455E+01  0.32464498950E+02 -0.68889388312E+01  0.34106807166E+02  0.51100000000E-03 0. -1.
         22    1    1    0    0    0  0.26724163743E+02  0.15905651166E+02  0.40250390159E+01  0.31358756447E+02  0.00000000000E+00 0.  1.
</event>
<event>
 5    1  0.8875601E-005  0.9118800E+02  0.7818608E-02  0.1130116E+00
         25   -1    0    0    0    0  0.00000000000E+00  0.00000000000E+00  0.99999998245E-14  0.12500000000E+03  0.12500000000E+03 0.  0.
        -11    1    3    3    0    0  0.91488120824E+01 -0.43313467280E+01 -0.56933537034E+02  0.57826369127E+02  0.51100000000E-03 0.  1.
         23    2    1    0    0    0 -0.12314849756E+02  0.15343730059E+01 -0.28375676501E+02  0.94029226003E+02  0.88782354671E+02 0.  0.
         11    1    3    3    0    0 -0.21463661839E+02  0.58657197339E+01  0.28557860533E+02  0.36202856876E+02  0.51100000000E-03 0. -1.
         22    1    1    0    0    0  0.12314849756E+02 -0.15343730059E+01  0.28375676501E+02  0.30970773997E+02  0.00000000000E+00 0. -1.
</event>
<event>
 5    1  0.8875601E-005  0.9118800E+02  0.7818608E-02  0.1130116E+00
         25   -1    0    0    0    0  0.00000000000E+00  0.00000000000E+00  0.99999998245E-14  0.12500000000E+03  0.12500000000E+03 0.  0.
        -11    1    3    3    0    0 -0.47952281009E+01  0.40737945345E+02 -0.24119956504E+02  0.47585152154E+02  0.51100000000E-03 0.  1.
         23    2    1    0    0    0 -0.13283081178E+02  0.18593958349E+02  0.17992277531E+02  0.95915681487E+02  0.91399783214E+02 0.  0.
         11    1    3    3    0    0 -0.84878530768E+01 -0.22143986997E+02  0.42112234034E+02  0.48330529333E+02  0.51100000000E-03 0. -1.
         22    1    1    0    0    0  0.13283081178E+02 -0.18593958349E+02 -0.17992277531E+02  0.29084318513E+02  0.00000000000E+00 0. -1.
</event>
<event>
 5    1  0.8875601E-005  0.9118800E+02  0.7818608E-02  0.1130116E+00
         25   -1    0    0    0    0  0.00000000000E+00  0.00000000000E+00  0.99999998245E-14  0.12500000000E+03  0.12500000000E+03 0.  0.
        -11    1    3    3    0    0 -0.38780830068E+01 -0.34992919271E+02  0.81039368904E+01  0.36127797058E+02  0.51100000000E-03 0.  1.
         23    2    1    0    0    0 -0.22627970162E+02  0.19035254768E+02 -0.55251404448E+01  0.94918558301E+02  0.90025771729E+02 0.  0.
         11    1    3    3    0    0 -0.18749887155E+02  0.54028174039E+02 -0.13629077335E+02  0.58790761243E+02  0.51100000000E-03 0. -1.
         22    1    1    0    0    0  0.22627970162E+02 -0.19035254768E+02  0.55251404448E+01  0.30081441699E+02  0.00000000000E+00 0. -1.
</event>
<event>
 5    1  0.8875601E-005  0.9118800E+02  0.7818608E-02  0.1130116E+00
         25   -1    0    0    0    0  0.00000000000E+00  0.00000000000E+00  0.99999998245E-14  0.12500000000E+03  0.12500000000E+03 0.  0.
        -11    1    3    3    0    0  0.18232532640E+02  0.25613456486E+02 -0.12381120977E+02  0.33790036350E+02  0.51100000000E-03 0.  1.
         23    2    1    0    0    0  0.22371409242E+01 -0.29968365228E+02  0.57502477034E+01  0.94403054685E+02  0.89307131133E+02 0.  0.
         11    1    3    3    0    0 -0.15995391716E+02 -0.55581821714E+02  0.18131368681E+02  0.60613018335E+02  0.51100000000E-03 0. -1.
         22    1    1    0    0    0 -0.22371409242E+01  0.29968365228E+02 -0.57502477034E+01  0.30596945315E+02  0.00000000000E+00 0. -1.
</event>
<event>
 5    1  0.8875601E-005  0.9118800E+02  0.7818608E-02  0.1130116E+00
         25   -1    0    0    0    0  0.00000000000E+00  0.00000000000E+00  0.99999998245E-14  0.12500000000E+03  0.12500000000E+03 0.  0.
        -11    1    3    3    0    0 -0.14938570973E+02  0.27491776736E+02  0.16675759827E+02  0.35454755067E+02  0.51100000000E-03 0.  1.
         23    2    1    0    0    0  0.23497993716E+02 -0.99119693312E+01 -0.12597016295E+02  0.96555533680E+02  0.92270707269E+02 0.  0.
         11    1    3    3    0    0  0.38436564689E+02 -0.37403746067E+02 -0.29272776122E+02  0.61100778613E+02  0.51100000000E-03 0. -1.
         22    1    1    0    0    0 -0.23497993716E+02  0.99119693312E+01  0.12597016295E+02  0.28444466320E+02  0.00000000000E+00 0. -1.
</event>
<event>
 5    1  0.8875601E-005  0.9118800E+02  0.7818608E-02  0.1130116E+00
         25   -1    0    0    0    0  0.00000000000E+00  0.00000000000E+00  0.99999998245E-14  0.12500000000E+03  0.12500000000E+03 0.  0.
        -11    1    3    3    0    0 -0.71255099441E+01  0.49904505404E+02  0.13697459165E+02  0.52238423976E+02  0.51100000000E-03 0. -1.
         23    2    1    0    0    0 -0.27640711670E+02  0.22877727269E+02  0.14799231007E+02  0.86187417181E+02  0.76953585331E+02 0.  0.
         11    1    3    3    0    0 -0.20515201726E+02 -0.27026778135E+02  0.11017718419E+01  0.33948993206E+02  0.51100000000E-03 0.  1.
         22    1    1    0    0    0  0.27640711670E+02 -0.22877727269E+02 -0.14799231007E+02  0.38812582819E+02  0.00000000000E+00 0. -1.
</event>
<event>
 5    1  0.8875601E-005  0.9118800E+02  0.7818608E-02  0.1130116E+00
         25   -1    0    0    0    0  0.00000000000E+00  0.00000000000E+00  0.99999998245E-14  0.12500000000E+03  0.12500000000E+03 0.  0.
        -11    1    3    3    0    0  0.12742603395E+02  0.52260597838E+02  0.13373014848E+02  0.55429067772E+02  0.51100000000E-03 0. -1.
         23    2    1    0    0    0 -0.46029581018E+01  0.22113088006E+02  0.24239161915E+02  0.91868250050E+02  0.85685836125E+02 0.  0.
         11    1    3    3    0    0 -0.17345561497E+02 -0.30147509832E+02  0.10866147066E+02  0.36439182277E+02  0.51100000000E-03 0.  1.
         22    1    1    0    0    0  0.46029581018E+01 -0.22113088006E+02 -0.24239161915E+02  0.33131749950E+02  0.00000000000E+00 0. -1.
</event>
<event>
 5    1  0.8875601E-005  0.9118800E+02  0.7818608E-02  0.1130116E+00
         25   -1    0    0    0    0  0.00000000000E+00  0.00000000000E+00  0.99999998245E-14  0.12500000000E+03  0.12500000000E+03 0.  0.
        -11    1    3    3    0    0 -0.98334952871E+01  0.39825354863E+01  0.11203994030E+02  0.15430090763E+02  0.51100000000E-03 0. -1.
         23    2    1    0    0    0  0.34203919981E+02 -0.12203351620E+02 -0.30017818822E+02  0.77884191829E+02  0.62016513584E+02 0.  0.
         11    1    3    3    0    0  0.44037415268E+02 -0.16185887107E+02 -0.41221812851E+02  0.62454101066E+02  0.51100000000E-03 0.  1.
         22    1    1    0    0    0 -0.34203919981E+02  0.12203351620E+02  0.30017818822E+02  0.47115808171E+02  0.00000000000E+00 0.  1.
</event>
<event>
 5    1  0.8875601E-005  0.9118800E+02  0.7818608E-02  0.1130116E+00
         25   -1    0    0    0    0  0.00000000000E+00  0.00000000000E+00  0.99999998245E-14  0.12500000000E+03  0.12500000000E+03 0.  0.
        -11    1    3    3    0    0  0.15793306793E+02 -0.56371924613E+02  0.98056878387E+01  0.59358014946E+02  0.51100000000E-03 0.  1.
         23    2    1    0    0    0  0.15081183884E+02 -0.21171769790E+02  0.15065005431E+02  0.94956026694E+02  0.90077781242E+02 0.  0.
         11    1    3    3    0    0 -0.71212290952E+00  0.35200154823E+02  0.52593175920E+01  0.35598011748E+02  0.51100000000E-03 0. -1.
         22    1    1    0    0    0 -0.15081183884E+02  0.21171769790E+02 -0.15065005431E+02  0.30043973306E+02  0.00000000000E+00 0.  1.
</event>
<event>
 5    1  0.8875601E-005  0.9118800E+02  0.7818608E-02  0.1130116E+00
         25   -1    0    0    0    0  0.00000000000E+00  0.00000000000E+00  0.99999998245E-14  0.12500000000E+03  0.12500000000E+03 0.  0.
        -11    1    3    3    0    0  0.23626100391E+02  0.13766159217E+02  0.30023665234E+02  0.40609361404E+02  0.51100000000E-03 0.  1.
         23    2    1    0    0    0 -0.12307432582E+02 -0.23185724270E+02  0.16844666809E+02  0.93810362192E+02  0.88473671497E+02 0.  0.
         11    1    3    3    0    0 -0.35933532973E+02 -0.36951883487E+02 -0.13178998425E+02  0.53201000789E+02  0.51100000000E-03 0. -1.
         22    1    1    0    0    0  0.12307432582E+02  0.23185724270E+02 -0.16844666809E+02  0.31189637808E+02  0.00000000000E+00 0. -1.
</event>
<event>
 5    1  0.8875601E-005  0.9118800E+02  0.7818608E-02  0.1130116E+00
         25   -1    0    0    0    0  0.00000000000E+00  0.00000000000E+00  0.99999998245E-14  0.12500000000E+03  0.12500000000E+03 0.  0.
        -11    1    3    3    0    0 -0.64675847888E+00 -0.25274403992E+02 -0.25475586391E+02  0.35891771980E+02  0.51100000000E-03 0. -1.
         23    2    1    0    0    0  0.17213377762E+02  0.23533712656E+02  0.38856321744E+01  0.95585137383E+02  0.90946601618E+02 0.  0.
         11    1    3    3    0    0  0.17860136241E+02  0.48808116648E+02  0.29361218565E+02  0.59693365403E+02  0.51100000000E-03 0.  1.
         22    1    1    0    0    0 -0.17213377762E+02 -0.23533712656E+02 -0.38856321744E+01  0.29414862617E+02  0.00000000000E+00 0.  1.
</event>
<event>
 5    1  0.8875601E-005  0.9118800E+02  0.7818608E-02  0.1130116E+00
         25   -1    0    0    0    0  0.00000000000E+00  0.00000000000E+00  0.99999998245E-14  0.12500000000E+03  0.12500000000E+03 0.  0.
        -11    1    3    3    0    0 -0.22690717826E+01 -0.26134028809E+02  0.27266461161E+02  0.37836438166E+02  0.51100000000E-03 0. -1.
         23    2    1    0    0    0 -0.25479215225E+02  0.10345820909E+01 -0.16719379478E+02  0.94507403870E+02  0.89453065725E+02 0.  0.
         11    1    3    3    0    0 -0.23210143443E+02  0.27168610900E+02 -0.43985840639E+02  0.56670965705E+02  0.51100000000E-03 0.  1.
         22    1    1    0    0    0  0.25479215225E+02 -0.10345820909E+01  0.16719379478E+02  0.30492596130E+02  0.00000000000E+00 0.  1.
</event>
<event>
 5    1  0.8875601E-005  0.9118800E+02  0.7818608E-02  0.1130116E+00
         25   -1    0    0    0    0  0.00000000000E+00  0.00000000000E+00  0.99999998245E-14  0.12500000000E+03  0.12500000000E+03 0.  0.
        -11    1    3    3    0    0  0.23332881246E+02 -0.30674102625E+02 -0.29996612680E+02  0.48837697444E+02  0.51100000000E-03 0. -1.
         23    2    1    0    0    0  0.27871637744E+02  0.66782812995E+01 -0.10338028678E+01  0.96320802312E+02  0.91952164619E+02 0.  0.
         11    1    3    3    0    0  0.45387564977E+01  0.37352383925E+02  0.28962809813E+02  0.47483104868E+02  0.51100000000E-03 0.  1.
         22    1    1    0    0    0 -0.27871637744E+02 -0.66782812995E+01  0.10338028678E+01  0.28679197688E+02  0.00000000000E+00 0. -1.
</event>
<event>
 5    1  0.8875601E-005  0.9118800E+02  0.7818608E-02  0.1130116E+00
         25   -1    0    0    0    0  0.00000000000E+00  0.00000000000E+00  0.99999998245E-14  0.12500000000E+03  0.12500000000E+03 0.  0.
        -11    1    3    3    0    0  0.19225415516E+02 -0.26654641065E+02 -0.33511257277E+01  0.33035080383E+02  0.51100000000E-03 0. -1.
         23    2    1    0    0    0 -0.18542672477E+02  0.19963757934E+02  0.12397953842E+02  0.95065210993E+02  0.90229167946E+02 0.  0.
         11    1    3    3    0    0 -0.37768087992E+02  0.46618398999E+02  0.15749079570E+02  0.62030130609E+02  0.51100000000E-03 0.  1.
         22    1    1    0    0    0  0.18542672477E+02 -0.19963757934E+02 -0.12397953842E+02  0.29934789007E+02  0.00000000000E+00 0.  1.
</event>
<event>
 5    1  0.8875601E-005  0.9118800E+02  0.7818608E-02  0.1130116E+00
         25   -1    0    0    0    0  0.00000000000E+00  0.00000000000E+00  0.99999998245E-14  0.12500000000E+03  0.12500000000E+03 0.  0.
        -11    1    3    3    0    0  0.27404619279E+02  0.45474467832E+02  0.20656026084E+01  0.53133860172E+02  0.51100000000E-03 0.  1.
         23    2    1    0    0    0  0.14424557426E+02  0.13032002216E+02 -0.22060591425E+02  0.95596418029E+02  0.90962104786E+02 0.  0.
         11    1    3    3    0    0 -0.12980061852E+02 -0.32442465616E+02 -0.24126194034E+02  0.42462557856E+02  0.51100000000E-03 0. -1.
         22    1    1    0    0    0 -0.14424557426E+02 -0.13032002216E+02  0.22060591425E+02  0.29403581971E+02  0.00000000000E+00 0.  1.
</event>
<event>
 5    1  0.8875601E-005  0.9118800E+02  0.7818608E-02  0.1130116E+00
         25   -1    0    0    0    0  0.00000000000E+00  0.00000000000E+00  0.99999998245E-14  0.12500000000E+03  0.12500000000E+03 0.  0.
        -11    1    3    3    0    0  0.20402618787E+02  0.20852491141E+02 -0.19742824206E+02  0.35226018056E+02  0.51100000000E-03 0.  1.
         23    2    1    0    0    0 -0.87486406730E+01  0.10846096634E+01  0.28618799323E+02  0.95054202859E+02  0.90213916414E+02 0.  0.
         11    1    3    3    0    0 -0.29151259460E+02 -0.19767881477E+02  0.48361623529E+02  0.59828184803E+02  0.51100000000E-03 0. -1.
         22    1    1    0    0    0  0.87486406730E+01 -0.10846096634E+01 -0.28618799323E+02  0.29945797141E+02  0.00000000000E+00 0. -1.
</event>
<event>
 5    1  0.8875601E-005  0.9118800E+02  0.7818608E-02  0.1130116E+00
         25   -1    0    0    0    0  0.00000000000E+00  0.00000000000E+00  0.99999998245E-14  0.12500000000E+03  0.12500000000E+03 0.  0.
        -11    1    3    3    0    0 -0.33375620944E+02 -0.34716454999E+01 -0.23275668064E+01  0.33636319112E+02  0.51100000000E-03 0. -1.
         23    2    1    0    0    0  0.22254976606E+02 -0.16417088553E+02  0.15278353663E+02  0.93405176517E+02  0.87899340892E+02 0.  0.
         11    1    3    3    0    0  0.55630597551E+02 -0.12945443053E+02  0.17605920469E+02  0.59768857405E+02  0.51100000000E-03 0.  1.
         22    1    1    0    0    0 -0.22254976606E+02  0.16417088553E+02 -0.15278353663E+02  0.31594823483E+02  0.00000000000E+00 0.  1.
</event>
<event>
 5    1  0.8875601E-005  0.9118800E+02  0.7818608E-02  0.1130116E+00
         25   -1    0    0    0    0  0.00000000000E+00  0.00000000000E+00  0.99999998245E-14  0.12500000000E+03  0.12500000000E+03 0.  0.
        -11    1    3    3    0    0 -0.19442893276E+02  0.40704963424E+02  0.35180551513E-01  0.45110102906E+02  0.51100000000E-03 0.  1.
         23    2    1    0    0    0 -0.16032550007E+02 -0.59360980660E+01  0.22296260285E+02  0.96903680976E+02  0.92741146446E+02 0.  0.
         11    1    3    3    0    0  0.34103432690E+01 -0.46641061490E+02  0.22261079734E+02  0.51793578070E+02  0.51100000000E-03 0. -1.
         22    1    1    0    0    0  0.16032550007E+02  0.59360980660E+01 -0.22296260285E+02  0.28096319024E+02  0.00000000000E+00 0. -1.
</event>
<event>
 5    1  0.8875601E-005  0.9118800E+02  0.7818608E-02  0.1130116E+00
         25   -1    0    0    0    0  0.00000000000E+00  0.00000000000E+00  0.99999998245E-14  0.12500000000E+03  0.12500000000E+03 0.  0.
        -11    1    3    3    0    0  0.32718673582E+02 -0.25841273772E+02 -0.40055536088E+02  0.57816338544E+02  0.51100000000E-03 0.  1.
         23    2    1    0    0    0  0.77693746004E+00 -0.21098745070E+02 -0.20522224705E+02  0.95556454320E+02  0.90907170125E+02 0.  0.
         11    1    3    3    0    0 -0.31941736122E+02  0.47425287018E+01  0.19533311383E+02  0.37740115776E+02  0.51100000000E-03 0. -1.
         22    1    1    0    0    0 -0.77693746004E+00  0.21098745070E+02  0.20522224705E+02  0.29443545680E+02  0.00000000000E+00 0.  1.
</event>
<event>
 5    1  0.8875601E-005  0.9118800E+02  0.7818608E-02  0.1130116E+00
         25   -1    0    0    0    0  0.00000000000E+00  0.00000000000E+00  0.99999998245E-14  0.12500000000E+03  0.12500000000E+03 0.  0.
        -11    1    3    3    0    0  0.23942519391E+02 -0.25644028292E+02  0.56932826460E+01  0.35542564474E+02  0.51100000000E-03 0.  1.
         23    2    1    0    0    0 -0.23037239547E+02  0.43877998026E+01 -0.17302126969E+02  0.95856719630E+02  0.91319110309E+02 0.  0.
         11    1    3    3    0    0 -0.46979758938E+02  0.30031828095E+02 -0.22995409615E+02  0.60314155156E+02  0.51100000000E-03 0. -1.
         22    1    1    0    0    0  0.23037239547E+02 -0.43877998026E+01  0.17302126969E+02  0.29143280370E+02  0.00000000000E+00 0. -1.
</event>
<event>
 5    1  0.8875601E-005  0.9118800E+02  0.7818608E-02  0.1130116E+00
         25   -1    0    0    0    0  0.00000000000E+00  0.00000000000E+00  0.99999998245E-14  0.12500000000E+03  0.12500000000E+03 0.  0.
        -11    1    3    3    0    0  0.28806118088E+02  0.26571866400E+02  0.43775925976E+02  0.58755325024E+02  0.51100000000E-03 0. -1.
         23    2    1    0    0    0  0.25317554249E+02  0.76442301124E+01  0.11880845215E+02  0.96007461474E+02  0.91525217118E+02 0.  0.
         11    1    3    3    0    0 -0.34885638393E+01 -0.18927636288E+02 -0.31895080761E+02  0.37252136450E+02  0.51100000000E-03 0.  1.
         22    1    1    0    0    0 -0.25317554249E+02 -0.76442301124E+01 -0.11880845215E+02  0.28992538526E+02  0.00000000000E+00 0. -1.
</event>
<event>
 5    1  0.8875601E-005  0.9118800E+02  0.7818608E-02  0.1130116E+00
         25   -1    0    0    0    0  0.00000000000E+00  0.00000000000E+00  0.99999998245E-14  0.12500000000E+03  0.12500000000E+03 0.  0.
        -11    1    3    3    0    0 -0.17262338431E+02  0.45809113316E+02  0.22542236537E+02  0.53894485982E+02  0.51100000000E-03 0. -1.
         23    2    1    0    0    0  0.10679626386E+02  0.96193606428E+01  0.20886433251E+02  0.99645915263E+02  0.96366378035E+02 0.  0.
         11    1    3    3    0    0  0.27941964817E+02 -0.36189752673E+02 -0.16558032858E+01  0.45751429280E+02  0.51100000000E-03 0.  1.
         22    1    1    0    0    0 -0.10679626386E+02 -0.96193606428E+01 -0.20886433251E+02  0.25354084737E+02  0.00000000000E+00 0. -1.
</event>
<event>
 5    1  0.8875601E-005  0.9118800E+02  0.7818608E-02  0.1130116E+00
         25   -1    0    0    0    0  0.00000000000E+00  0.00000000000E+00  0.99999998245E-14  0.12500000000E+03  0.12500000000E+03 0.  0.
        -11    1    3    3    0    0 -0.50145485903E+02  0.28319869495E+02  0.23846933424E+02  0.62331861826E+02  0.51100000000E-03 0. -1.
         23    2    1    0    0    0 -0.24983417558E+02  0.17129361176E+02  0.14532009420E+02  0.91402894991E+02  0.85004257233E+02 0.  0.
         11    1    3    3    0    0  0.25162068345E+02 -0.11190508319E+02 -0.93149240041E+01  0.29071033165E+02  0.51100000000E-03 0.  1.
         22    1    1    0    0    0  0.24983417558E+02 -0.17129361176E+02 -0.14532009420E+02  0.33597105009E+02  0.00000000000E+00 0. -1.
</event>
<event>
 5    1  0.8875601E-005  0.9118800E+02  0.7818608E-02  0.1130116E+00
         25   -1    0    0    0    0  0.00000000000E+00  0.00000000000E+00  0.99999998245E-14  0.12500000000E+03  0.12500000000E+03 0.  0.
        -11    1    3    3    0    0 -0.32883324922E+02 -0.16493552745E+01 -0.20186865011E+02  0.38620499091E+02  0.51100000000E-03 0. -1.
         23    2    1    0    0    0  0.23206389690E+02  0.42703656116E+01 -0.18447692473E+02  0.95048540896E+02  0.90206070882E+02 0.  0.
         11    1    3    3    0    0  0.56089714612E+02  0.59197208861E+01  0.17391725384E+01  0.56428041805E+02  0.51100000000E-03 0.  1.
         22    1    1    0    0    0 -0.23206389690E+02 -0.42703656116E+01  0.18447692473E+02  0.29951459104E+02  0.00000000000E+00 0.  1.
</event>
<event>
 5    1  0.8875601E-005  0.9118800E+02  0.7818608E-02  0.1130116E+00
         25   -1    0    0    0    0  0.00000000000E+00  0.00000000000E+00  0.99999998245E-14  0.12500000000E+03  0.12500000000E+03 0.  0.
        -11    1    3    3    0    0  0.60119073214E+02 -0.11324571200E+02  0.86764404423E+01  0.61788587101E+02  0.51100000000E-03 0.  1.
         23    2    1    0    0    0  0.25691690354E+02 -0.82320246652E+01  0.95934240722E+01  0.96366750643E+02  0.92014605692E+02 0.  0.
         11    1    3    3    0    0 -0.34427382860E+02  0.30925465349E+01  0.91698362993E+00  0.34578163542E+02  0.51100000000E-03 0. -1.
         22    1    1    0    0    0 -0.25691690354E+02  0.82320246652E+01 -0.95934240722E+01  0.28633249357E+02  0.00000000000E+00 0.  1.
</event>
<event>
 5    1  0.8875601E-005  0.9118800E+02  0.7818608E-02  0.1130116E+00
         25   -1    0    0    0    0  0.00000000000E+00  0.00000000000E+00  0.99999998245E-14  0.12500000000E+03  0.12500000000E+03 0.  0.
        -11    1    3    3    0    0  0.21767054538E+02  0.31950327866E+02 -0.47403561886E+02  0.61169647651E+02  0.51100000000E-03 0. -1.
         23    2    1    0    0    0  0.14998512655E+02  0.86670900504E+01 -0.27305021270E+02  0.92663673394E+02  0.86838461228E+02 0.  0.
         11    1    3    3    0    0 -0.67685418829E+01 -0.23283237816E+02  0.20098540615E+02  0.31494025743E+02  0.51100000000E-03 0.  1.
         22    1    1    0    0    0 -0.14998512655E+02 -0.86670900504E+01  0.27305021270E+02  0.32336326606E+02  0.00000000000E+00 0. -1.
</event>
<event>
 5    1  0.8875601E-005  0.9118800E+02  0.7818608E-02  0.1130116E+00
         25   -1    0    0    0    0  0.00000000000E+00  0.00000000000E+00  0.99999998245E-14  0.12500000000E+03  0.12500000000E+03 0.  0.
        -11    1    3    3    0    0  0.45077019162E+02  0.34593169048E+02  0.10954497880E+02  0.57867313964E+02  0.51100000000E-03 0. -1.
         23    2    1    0    0    0  0.17849200165E+02  0.16068654177E+02 -0.12139470945E+02  0.98089735259E+02  0.94326209586E+02 0.  0.
         11    1    3    3    0    0 -0.27227818997E+02 -0.18524514871E+02 -0.23093968825E+02  0.40222421296E+02  0.51100000000E-03 0.  1.
         22    1    1    0    0    0 -0.17849200165E+02 -0.16068654177E+02  0.12139470945E+02  0.26910264741E+02  0.00000000000E+00 0. -1.
</event>
<event>
 5    1  0.8875601E-005  0.9118800E+02  0.7818608E-02  0.1130116E+00
         25   -1    0    0    0    0  0.00000000000E+00  0.00000000000E+00  0.99999998245E-14  0.12500000000E+03  0.12500000000E+03 0.  0.
        -11    1    3    3    0    0  0.14484574688E+02  0.39505091328E+02 -0.23749719417E+02  0.48316708470E+02  0.51100000000E-03 0. -1.
         23    2    1    0    0    0 -0.23106709444E+02  0.11813159389E+02 -0.11679540546E+02  0.96541566743E+02  0.92251784187E+02 0.  0.
         11    1    3    3    0    0 -0.37591284132E+02 -0.27691931939E+02  0.12070178871E+02  0.48224858273E+02  0.51100000000E-03 0.  1.
         22    1    1    0    0    0  0.23106709444E+02 -0.11813159389E+02  0.11679540546E+02  0.28458433257E+02  0.00000000000E+00 0. -1.
</event>
<event>
 5    1  0.8875601E-005  0.9118800E+02  0.7818608E-02  0.1130116E+00
         25   -1    0    0    0    0  0.00000000000E+00  0.00000000000E+00  0.99999998245E-14  0.12500000000E+03  0.12500000000E+03 0.  0.
        -11    1    3    3    0    0  0.42613841152E+02 -0.40022126648E+02  0.72107250606E+01  0.58904198792E+02  0.51100000000E-03 0. -1.
         23    2    1    0    0    0  0.27660666205E+02 -0.11643275260E+02  0.14300510221E+02  0.91755708667E+02  0.85521501195E+02 0.  0.
         11    1    3    3    0    0 -0.14953174947E+02  0.28378851389E+02  0.70897851601E+01  0.32851509874E+02  0.51100000000E-03 0.  1.
         22    1    1    0    0    0 -0.27660666205E+02  0.11643275260E+02 -0.14300510221E+02  0.33244291333E+02  0.00000000000E+00 0. -1.
</event>
<event>
 5    1  0.8875601E-005  0.9118800E+02  0.7818608E-02  0.1130116E+00
         25   -1    0    0    0    0  0.00000000000E+00  0.00000000000E+00  0.99999998245E-14  0.12500000000E+03  0.12500000000E+03 0.  0.
        -11    1    3    3    0    0  0.53260967224E+02 -0.14496536059E+02  0.37751981203E+01  0.55327500472E+02  0.51100000000E-03 0. -1.
         23    2    1    0    0    0  0.17019535546E+02 -0.17865300610E+02 -0.14837306886E+02  0.96208000561E+02  0.91798693565E+02 0.  0.
         11    1    3    3    0    0 -0.36241431678E+02 -0.33687645513E+01 -0.18612505006E+02  0.40880500090E+02  0.51100000000E-03 0.  1.
         22    1    1    0    0    0 -0.17019535546E+02  0.17865300610E+02  0.14837306886E+02  0.28791999439E+02  0.00000000000E+00 0. -1.
</event>
<event>
 5    1  0.8875601E-005  0.9118800E+02  0.7818608E-02  0.1130116E+00
         25   -1    0    0    0    0  0.00000000000E+00  0.00000000000E+00  0.99999998245E-14  0.12500000000E+03  0.12500000000E+03 0.  0.
        -11    1    3    3    0    0 -0.20252370202E+02 -0.28618223495E+02  0.16692096322E+02  0.38830236862E+02  0.51100000000E-03 0. -1.
         23    2    1    0    0    0  0.67208412390E+01  0.20680316681E+02  0.20448182865E+02  0.95150822667E+02  0.90347693200E+02 0.  0.
         11    1    3    3    0    0  0.26973211441E+02  0.49298540177E+02  0.37560865428E+01  0.56320585805E+02  0.51100000000E-03 0.  1.
         22    1    1    0    0    0 -0.67208412390E+01 -0.20680316681E+02 -0.20448182865E+02  0.29849177333E+02  0.00000000000E+00 0.  1.
</event>
<event>
 5    1  0.8875601E-005  0.9118800E+02  0.7818608E-02  0.1130116E+00
         25   -1    0    0    0    0  0.00000000000E+00  0.00000000000E+00  0.99999998245E-14  0.12500000000E+03  0.12500000000E+03 0.  0.
        -11    1    3    3    0    0 -0.32474950650E+02 -0.11352530770E+02 -0.13170802652E+02  0.36837106528E+02  0.51100000000E-03 0.  1.
         23    2    1    0    0    0  0.59250628624E+01  0.28160307973E+02  0.67781420842E+01  0.95435620670E+02  0.90740868232E+02 0.  0.
         11    1    3    3    0    0  0.38400013512E+02  0.39512838743E+02  0.19948944737E+02  0.58598514142E+02  0.51100000000E-03 0. -1.
         22    1    1    0    0    0 -0.59250628624E+01 -0.28160307973E+02 -0.67781420842E+01  0.29564379330E+02  0.00000000000E+00 0. -1.
</event>
<event>
 5    1  0.8875601E-005  0.9118800E+02  0.7818608E-02  0.1130116E+00
         25   -1    0    0    0    0  0.00000000000E+00  0.00000000000E+00  0.99999998245E-14  0.12500000000E+03  0.12500000000E+03 0.  0.
        -11    1    3    3    0    0  0.10474093411E+02 -0.28162697270E+01  0.37782995799E+02  0.39308940202E+02  0.51100000000E-03 0.  1.
         23    2    1    0    0    0  0.19244152276E+02  0.19325609358E+02 -0.12539534340E+02  0.94982396909E+02  0.90114367485E+02 0.  0.
         11    1    3    3    0    0  0.87700588649E+01  0.22141879085E+02 -0.50322530139E+02  0.55673456707E+02  0.51100000000E-03 0. -1.
         22    1    1    0    0    0 -0.19244152276E+02 -0.19325609358E+02  0.12539534340E+02  0.30017603091E+02  0.00000000000E+00 0. -1.
</event>
<event>
 5    1  0.8875601E-005  0.9118800E+02  0.7818608E-02  0.1130116E+00
         25   -1    0    0    0    0  0.00000000000E+00  0.00000000000E+00  0.99999998245E-14  0.12500000000E+03  0.12500000000E+03 0.  0.
        -11    1    3    3    0    0  0.16913479188E+02  0.43667743802E+00  0.33201453469E+02  0.37263829354E+02  0.51100000000E-03 0.  1.
         23    2    1    0    0    0 -0.24273286960E+02  0.95289596007E+01 -0.94645160084E+01  0.97258864584E+02  0.93218646987E+02 0.  0.
         11    1    3    3    0    0 -0.41186766147E+02  0.90922821627E+01 -0.42665969477E+02  0.59995035230E+02  0.51100000000E-03 0. -1.
         22    1    1    0    0    0  0.24273286960E+02 -0.95289596007E+01  0.94645160084E+01  0.27741135416E+02  0.00000000000E+00 0. -1.
</event>
<event>
 5    1  0.8875601E-005  0.9118800E+02  0.7818608E-02  0.1130116E+00
         25   -1    0    0    0    0  0.00000000000E+00  0.00000000000E+00  0.99999998245E-14  0.12500000000E+03  0.12500000000E+03 0.  0.
        -11    1    3    3    0    0 -0.25440884216E+02 -0.18275530894E+02 -0.12779600146E+02  0.33831225211E+02  0.51100000000E-03 0.  1.
         23    2    1    0    0    0  0.17217705309E+02  0.22402595305E+02  0.67926481831E+01  0.95940307609E+02  0.91433456143E+02 0.  0.
         11    1    3    3    0    0  0.42658589525E+02  0.40678126199E+02  0.19572248329E+02  0.62109082398E+02  0.51100000000E-03 0. -1.
         22    1    1    0    0    0 -0.17217705309E+02 -0.22402595305E+02 -0.67926481831E+01  0.29059692391E+02  0.00000000000E+00 0. -1.
</event>
<event>
 5    1  0.8875601E-005  0.9118800E+02  0.7818608E-02  0.1130116E+00
         25   -1    0    0    0    0  0.00000000000E+00  0.00000000000E+00  0.99999998245E-14  0.12500000000E+03  0.12500000000E+03 0.  0.
        -11    1    3    3    0    0  0.22757408697E+02 -0.26359784842E+02 -0.21406094976E+02  0.40877363050E+02  0.51100000000E-03 0.  1.
         23    2    1    0    0    0 -0.17096159752E+02  0.10430274348E+02 -0.22173578265E+02  0.95121297312E+02  0.90306834337E+02 0.  0.
         11    1    3    3    0    0 -0.39853568449E+02  0.36790059191E+02 -0.76748328910E+00  0.54243934262E+02  0.51100000000E-03 0. -1.
         22    1    1    0    0    0  0.17096159752E+02 -0.10430274348E+02  0.22173578265E+02  0.29878702688E+02  0.00000000000E+00 0.  1.
</event>
<event>
 5    1  0.8875601E-005  0.9118800E+02  0.7818608E-02  0.1130116E+00
         25   -1    0    0    0    0  0.00000000000E+00  0.00000000000E+00  0.99999998245E-14  0.12500000000E+03  0.12500000000E+03 0.  0.
        -11    1    3    3    0    0 -0.31203036248E+02 -0.11827256592E+02 -0.12948743882E+02  0.35793622868E+02  0.51100000000E-03 0.  1.
         23    2    1    0    0    0  0.15444189730E+02 -0.14870363575E+02  0.22091977653E+02  0.94215163052E+02  0.89043757575E+02 0.  0.
         11    1    3    3    0    0  0.46647225978E+02 -0.30431069825E+01  0.35040721535E+02  0.58421540185E+02  0.51100000000E-03 0. -1.
         22    1    1    0    0    0 -0.15444189730E+02  0.14870363575E+02 -0.22091977653E+02  0.30784836948E+02  0.00000000000E+00 0. -1.
</event>
<event>
 5    1  0.8875601E-005  0.9118800E+02  0.7818608E-02  0.1130116E+00
         25   -1    0    0    0    0  0.00000000000E+00  0.00000000000E+00  0.99999998245E-14  0.12500000000E+03  0.12500000000E+03 0.  0.
        -11    1    3    3    0    0  0.45908901138E+02 -0.20428495893E+02 -0.26346164601E+02  0.56736857840E+02  0.51100000000E-03 0.  1.
         23    2    1    0    0    0  0.10450946789E+02 -0.25119568091E+02 -0.11482852334E+02  0.95469153626E+02  0.90787049773E+02 0.  0.
         11    1    3    3    0    0 -0.35457954349E+02 -0.46910721979E+01  0.14863312267E+02  0.38732295786E+02  0.51100000000E-03 0. -1.
         22    1    1    0    0    0 -0.10450946789E+02  0.25119568091E+02  0.11482852334E+02  0.29530846374E+02  0.00000000000E+00 0.  1.
</event>
<event>
 5    1  0.8875601E-005  0.9118800E+02  0.7818608E-02  0.1130116E+00
         25   -1    0    0    0    0  0.00000000000E+00  0.00000000000E+00  0.99999998245E-14  0.12500000000E+03  0.12500000000E+03 0.  0.
        -11    1    3    3    0    0 -0.21714701841E+02 -0.14485631671E+01  0.46539572264E+02  0.51376632802E+02  0.51100000000E-03 0.  1.
         23    2    1    0    0    0  0.10501270790E+02  0.16907318507E+02  0.14578515352E+02  0.10032881808E+03  0.97248159473E+02 0.  0.
         11    1    3    3    0    0  0.32215972631E+02  0.18355881674E+02 -0.31961056913E+02  0.48952185281E+02  0.51100000000E-03 0. -1.
         22    1    1    0    0    0 -0.10501270790E+02 -0.16907318507E+02 -0.14578515352E+02  0.24671181916E+02  0.00000000000E+00 0.  1.
</event>
<event>
 4    1  0.8875601E-005  0.9118800E+02  0.7818608E-02  0.1130116E+00
         25   -1    0    0    0    0  0.00000000000E+00  0.00000000000E+00  0.99999998245E-14  0.12500000000E+03  0.12500000000E+03 0.  0.
        -11    1    1    0    0    0  0.40793831297E+01 -0.16535977814E+02  0.13347123089E+01  0.17083951129E+02  0.51100000000E-03 0.  1.
         11    1    1    0    0    0 -0.48509426376E+02 -0.19142561165E+01 -0.24659685569E+02  0.54451160836E+02  0.51100000000E-03 0. -1.
         22    1    1    0    0    0  0.44430043246E+02  0.18450233930E+02  0.23324973260E+02  0.53464888034E+02  0.00000000000E+00 0. -1.
</event>
<event>
 5    1  0.8875601E-005  0.9118800E+02  0.7818608E-02  0.1130116E+00
         25   -1    0    0    0    0  0.00000000000E+00  0.00000000000E+00  0.99999998245E-14  0.12500000000E+03  0.12500000000E+03 0.  0.
        -11    1    3    3    0    0  0.21395370905E+02  0.22504831992E+02  0.13436589119E+02  0.33834468912E+02  0.51100000000E-03 0. -1.
         23    2    1    0    0    0 -0.71510990308E+01 -0.26347558467E+02 -0.11128333808E+02  0.95518279090E+02  0.90854662909E+02 0.  0.
         11    1    3    3    0    0 -0.28546469936E+02 -0.48852390458E+02 -0.24564922927E+02  0.61683810177E+02  0.51100000000E-03 0.  1.
         22    1    1    0    0    0  0.71510990308E+01  0.26347558467E+02  0.11128333808E+02  0.29481720910E+02  0.00000000000E+00 0.  1.
</event>
<event>
 5    1  0.8875601E-005  0.9118800E+02  0.7818608E-02  0.1130116E+00
         25   -1    0    0    0    0  0.00000000000E+00  0.00000000000E+00  0.99999998245E-14  0.12500000000E+03  0.12500000000E+03 0.  0.
        -11    1    3    3    0    0  0.27155211142E+02  0.27495757449E+02 -0.27841099288E+01  0.38744979522E+02  0.51100000000E-03 0.  1.
         23    2    1    0    0    0  0.55095921163E+01 -0.20166636847E+02  0.20212541970E+02  0.95920871748E+02  0.91406881235E+02 0.  0.
         11    1    3    3    0    0 -0.21645619026E+02 -0.47662394296E+02  0.22996651899E+02  0.57175892226E+02  0.51100000000E-03 0. -1.
         22    1    1    0    0    0 -0.55095921163E+01  0.20166636847E+02 -0.20212541970E+02  0.29079128252E+02  0.00000000000E+00 0. -1.
</event>
<event>
 5    1  0.8875601E-005  0.9118800E+02  0.7818608E-02  0.1130116E+00
         25   -1    0    0    0    0  0.00000000000E+00  0.00000000000E+00  0.99999998245E-14  0.12500000000E+03  0.12500000000E+03 0.  0.
        -11    1    3    3    0    0  0.17294223466E+02  0.63734768933E+01  0.27711161197E+02  0.33280922886E+02  0.51100000000E-03 0. -1.
         23    2    1    0    0    0 -0.13007928388E+02 -0.15540402801E+02 -0.21739501725E+02  0.95279363139E+02  0.90525359899E+02 0.  0.
         11    1    3    3    0    0 -0.30302151854E+02 -0.21913879694E+02 -0.49450662921E+02  0.61998440254E+02  0.51100000000E-03 0.  1.
         22    1    1    0    0    0  0.13007928388E+02  0.15540402801E+02  0.21739501725E+02  0.29720636861E+02  0.00000000000E+00 0.  1.
</event>
<event>
 5    1  0.8875601E-005  0.9118800E+02  0.7818608E-02  0.1130116E+00
         25   -1    0    0    0    0  0.00000000000E+00  0.00000000000E+00  0.99999998245E-14  0.12500000000E+03  0.12500000000E+03 0.  0.
        -11    1    3    3    0    0 -0.60643695399E+01 -0.75500466163E+01 -0.32465817745E+02  0.33879331516E+02  0.51100000000E-03 0.  1.
         23    2    1    0    0    0 -0.60278000449E+01  0.27574718948E+02  0.15084658052E+02  0.92996150122E+02  0.87315734725E+02 0.  0.
         11    1    3    3    0    0  0.36569495031E-01  0.35124765564E+02  0.47550475798E+02  0.59116818606E+02  0.51100000000E-03 0. -1.
         22    1    1    0    0    0  0.60278000449E+01 -0.27574718948E+02 -0.15084658052E+02  0.32003849878E+02  0.00000000000E+00 0. -1.
</event>
<event>
 5    1  0.8875601E-005  0.9118800E+02  0.7818608E-02  0.1130116E+00
         25   -1    0    0    0    0  0.00000000000E+00  0.00000000000E+00  0.99999998245E-14  0.12500000000E+03  0.12500000000E+03 0.  0.
        -11    1    3    3    0    0  0.17073017157E+02 -0.40993550761E+02  0.13457970685E+02  0.46401250997E+02  0.51100000000E-03 0. -1.
         23    2    1    0    0    0  0.49073801681E+01 -0.46003091133E+02 -0.13844865540E+02  0.76708726712E+02  0.59600181863E+02 0.  0.
         11    1    3    3    0    0 -0.12165636989E+02 -0.50095403720E+01 -0.27302836225E+02  0.30307475716E+02  0.51100000000E-03 0.  1.
         22    1    1    0    0    0 -0.49073801681E+01  0.46003091133E+02  0.13844865540E+02  0.48291273288E+02  0.00000000000E+00 0. -1.
</event>
<event>
 5    1  0.8875601E-005  0.9118800E+02  0.7818608E-02  0.1130116E+00
         25   -1    0    0    0    0  0.00000000000E+00  0.00000000000E+00  0.99999998245E-14  0.12500000000E+03  0.12500000000E+03 0.  0.
        -11    1    3    3    0    0 -0.33333512458E+02  0.36273233437E+01 -0.23451957151E+02  0.40917903440E+02  0.51100000000E-03 0.  1.
         23    2    1    0    0    0  0.20189752236E+02  0.12944193644E+02 -0.16946221442E+02  0.95634158183E+02  0.91013952478E+02 0.  0.
         11    1    3    3    0    0  0.53523264695E+02  0.93168703005E+01  0.65057357087E+01  0.54716254743E+02  0.51100000000E-03 0. -1.
         22    1    1    0    0    0 -0.20189752236E+02 -0.12944193644E+02  0.16946221442E+02  0.29365841817E+02  0.00000000000E+00 0. -1.
</event>
<event>
 5    1  0.8875601E-005  0.9118800E+02  0.7818608E-02  0.1130116E+00
         25   -1    0    0    0    0  0.00000000000E+00  0.00000000000E+00  0.99999998245E-14  0.12500000000E+03  0.12500000000E+03 0.  0.
        -11    1    3    3    0    0  0.16274498240E+02  0.42902067955E+02 -0.23771307790E+02  0.51677091657E+02  0.51100000000E-03 0.  1.
         23    2    1    0    0    0  0.19902285512E+02  0.18219625712E+02  0.12147033463E+02  0.95409357025E+02  0.90704681557E+02 0.  0.
         11    1    3    3    0    0  0.36277872722E+01 -0.24682442244E+02  0.35918341253E+02  0.43732265368E+02  0.51100000000E-03 0. -1.
         22    1    1    0    0    0 -0.19902285512E+02 -0.18219625712E+02 -0.12147033463E+02  0.29590642975E+02  0.00000000000E+00 0.  1.
</event>
<event>
 5    1  0.8875601E-005  0.9118800E+02  0.7818608E-02  0.1130116E+00
         25   -1    0    0    0    0  0.00000000000E+00  0.00000000000E+00  0.99999998245E-14  0.12500000000E+03  0.12500000000E+03 0.  0.
        -11    1    3    3    0    0  0.20312893425E+02  0.22600160091E+02 -0.52981630149E+02  0.61077278991E+02  0.51100000000E-03 0. -1.
         23    2    1    0    0    0  0.17375891170E+02  0.13725972708E+02 -0.20689098374E+02  0.94695500132E+02  0.89715522810E+02 0.  0.
         11    1    3    3    0    0 -0.29370022555E+01 -0.88741873826E+01  0.32292531776E+02  0.33618221141E+02  0.51100000000E-03 0.  1.
         22    1    1    0    0    0 -0.17375891170E+02 -0.13725972708E+02  0.20689098374E+02  0.30304499868E+02  0.00000000000E+00 0. -1.
</event>
<event>
 5    1  0.8875601E-005  0.9118800E+02  0.7818608E-02  0.1130116E+00
         25   -1    0    0    0    0  0.00000000000E+00  0.00000000000E+00  0.99999998245E-14  0.12500000000E+03  0.12500000000E+03 0.  0.
        -11    1    3    3    0    0  0.27143413348E+02  0.30618332925E+02  0.38536039451E+02  0.56207415313E+02  0.51100000000E-03 0.  1.
         23    2    1    0    0    0  0.27893088284E+02  0.11878097642E+02  0.55113184686E+01  0.94186233452E+02  0.89003136815E+02 0.  0.
         11    1    3    3    0    0  0.74967493677E+00 -0.18740235283E+02 -0.33024720983E+02  0.37978818139E+02  0.51100000000E-03 0. -1.
         22    1    1    0    0    0 -0.27893088284E+02 -0.11878097642E+02 -0.55113184686E+01  0.30813766548E+02  0.00000000000E+00 0.  1.
</event>
<event>
 5    1  0.8875601E-005  0.9118800E+02  0.7818608E-02  0.1130116E+00
         25   -1    0    0    0    0  0.00000000000E+00  0.00000000000E+00  0.99999998245E-14  0.12500000000E+03  0.12500000000E+03 0.  0.
        -11    1    3    3    0    0  0.18787655417E+02 -0.30412651132E+02  0.21535899072E+02  0.41733682968E+02  0.51100000000E-03 0.  1.
         23    2    1    0    0    0 -0.26453143196E+02 -0.14399857604E+01  0.10014260389E+02  0.96678139978E+02  0.92436653956E+02 0.  0.
         11    1    3    3    0    0 -0.45240798613E+02  0.28972665372E+02 -0.11521638683E+02  0.54944457010E+02  0.51100000000E-03 0. -1.
         22    1    1    0    0    0  0.26453143196E+02  0.14399857604E+01 -0.10014260389E+02  0.28321860022E+02  0.00000000000E+00 0.  1.
</event>
<event>
 5    1  0.8875601E-005  0.9118800E+02  0.7818608E-02  0.1130116E+00
         25   -1    0    0    0    0  0.00000000000E+00  0.00000000000E+00  0.99999998245E-14  0.12500000000E+03  0.12500000000E+03 0.  0.
        -11    1    3    3    0    0 -0.30137206784E+02  0.34705936446E+02  0.38272013488E+02  0.59812208403E+02  0.51100000000E-03 0.  1.
         23    2    1    0    0    0 -0.69976525240E+00  0.96790759787E+01  0.20453547180E+02  0.10236105622E+03  0.99826169190E+02 0.  0.
         11    1    3    3    0    0  0.29437441531E+02 -0.25026860468E+02 -0.17818466308E+02  0.42548847818E+02  0.51100000000E-03 0. -1.
         22    1    1    0    0    0  0.69976525240E+00 -0.96790759787E+01 -0.20453547180E+02  0.22638943780E+02  0.00000000000E+00 0.  1.
</event>
<event>
 5    1  0.8875601E-005  0.9118800E+02  0.7818608E-02  0.1130116E+00
         25   -1    0    0    0    0  0.00000000000E+00  0.00000000000E+00  0.99999998245E-14  0.12500000000E+03  0.12500000000E+03 0.  0.
        -11    1    3    3    0    0 -0.57038826058E+02  0.10036425648E+02  0.84450212159E+01  0.58527565313E+02  0.51100000000E-03 0. -1.
         23    2    1    0    0    0 -0.45898603259E+02  0.91315504417E+01 -0.70924226100E+01  0.77667458836E+02  0.61578118751E+02 0.  0.
         11    1    3    3    0    0  0.11140222799E+02 -0.90487520679E+00 -0.15537443826E+02  0.19139893523E+02  0.51100000000E-03 0.  1.
         22    1    1    0    0    0  0.45898603259E+02 -0.91315504417E+01  0.70924226100E+01  0.47332541164E+02  0.00000000000E+00 0. -1.
</event>
