<event>
 5    1  0.3183396E-003  0.9118800E+02  0.7818608E-02  0.1130116E+00
         25   -1    0    0    0    0  0.00000000000E+00  0.00000000000E+00  0.99999998245E-14  0.12500000000E+03  0.12500000000E+03 0.  0.
        -11    1    3    3    0    0  0.26450640497E+02 -0.20062090592E+02  0.13531196969E+02  0.35849925429E+02  0.51100000000E-03 0.  1.
         23    2    1    0    0    0 -0.17893793512E+02  0.93901872329E+01 -0.18183712123E+02  0.97815246018E+02  0.93961755541E+02 0.  0.
         11    1    3    3    0    0 -0.44344434009E+02  0.29452277824E+02 -0.31714909092E+02  0.61965320588E+02  0.51100000000E-03 0. -1.
         22    1    1    0    0    0  0.17893793512E+02 -0.93901872329E+01  0.18183712123E+02  0.27184753982E+02  0.00000000000E+00 0. -1.
</event>
<event>
 5    1  0.3183396E-003  0.9118800E+02  0.7818608E-02  0.1130116E+00
         25   -1    0    0    0    0  0.00000000000E+00  0.00000000000E+00  0.99999998245E-14  0.12500000000E+03  0.12500000000E+03 0.  0.
        -11    1    3    3    0    0  0.67490750408E+01  0.46444834639E+02 -0.13015777653E+02  0.48704036247E+02  0.51100000000E-03 0.  1.
         23    2    1    0    0    0 -0.18365578487E+02  0.26416353861E+02  0.13256732255E+02  0.90202598164E+02  0.83220487508E+02 0.  0.
         11    1    3    3    0    0 -0.25114653527E+02 -0.20028480778E+02  0.26272509908E+02  0.41498561917E+02  0.51100000000E-03 0. -1.
         22    1    1    0    0    0  0.18365578487E+02 -0.26416353861E+02 -0.13256732255E+02  0.34797401836E+02  0.00000000000E+00 0.  1.
</event>
<event>
 5    1  0.3183396E-003  0.9118800E+02  0.7818608E-02  0.1130116E+00
         25   -1    0    0    0    0  0.00000000000E+00  0.00000000000E+00  0.99999998245E-14  0.12500000000E+03  0.12500000000E+03 0.  0.
        -11    1    3    3    0    0  0.34641854546E+02  0.23631335166E+02  0.12589229476E+02  0.43783407669E+02  0.51100000000E-03 0.  1.
         23    2    1    0    0    0  0.19696901104E+02 -0.20965999197E+02 -0.80210098329E+01  0.95135679579E+02  0.90326739645E+02 0.  0.
         11    1    3    3    0    0 -0.14944953442E+02 -0.44597334363E+02 -0.20610239309E+02  0.51352271910E+02  0.51100000000E-03 0. -1.
         22    1    1    0    0    0 -0.19696901104E+02  0.20965999197E+02  0.80210098329E+01  0.29864320421E+02  0.00000000000E+00 0. -1.
</event>
<event>
 5    1  0.3183396E-003  0.9118800E+02  0.7818608E-02  0.1130116E+00
         25   -1    0    0    0    0  0.00000000000E+00  0.00000000000E+00  0.99999998245E-14  0.12500000000E+03  0.12500000000E+03 0.  0.
        -11    1    3    3    0    0 -0.12884031206E+00 -0.42243402633E+01 -0.45887145991E+02  0.46081360852E+02  0.51100000000E-03 0. -1.
         23    2    1    0    0    0  0.20991077093E+02 -0.20517055957E+02 -0.45219109108E+01  0.95301135022E+02  0.90555418146E+02 0.  0.
         11    1    3    3    0    0  0.21119917405E+02 -0.16292715694E+02  0.41365235080E+02  0.49219774170E+02  0.51100000000E-03 0.  1.
         22    1    1    0    0    0 -0.20991077093E+02  0.20517055957E+02  0.45219109108E+01  0.29698864978E+02  0.00000000000E+00 0.  1.
</event>
<event>
 5    1  0.3183396E-003  0.9118800E+02  0.7818608E-02  0.1130116E+00
         25   -1    0    0    0    0  0.00000000000E+00  0.00000000000E+00  0.99999998245E-14  0.12500000000E+03  0.12500000000E+03 0.  0.
        -11    1    3    3    0    0  0.35777652284E+02 -0.43670155035E+02 -0.16957992910E+01  0.56480072408E+02  0.51100000000E-03 0.  1.
         23    2    1    0    0    0  0.14466848790E+02 -0.37083453027E+02  0.12923143927E+02  0.83149314805E+02  0.71849347256E+02 0.  0.
         11    1    3    3    0    0 -0.21310803494E+02  0.65867020076E+01  0.14618943218E+02  0.26669242396E+02  0.51100000000E-03 0. -1.
         22    1    1    0    0    0 -0.14466848790E+02  0.37083453027E+02 -0.12923143927E+02  0.41850685195E+02  0.00000000000E+00 0.  1.
</event>
<event>
 5    1  0.3183396E-003  0.9118800E+02  0.7818608E-02  0.1130116E+00
         25   -1    0    0    0    0  0.00000000000E+00  0.00000000000E+00  0.99999998245E-14  0.12500000000E+03  0.12500000000E+03 0.  0.
        -11    1    3    3    0    0  0.42786884164E+02  0.10881337612E+02  0.25395842653E+02  0.50932011437E+02  0.51100000000E-03 0.  1.
         23    2    1    0    0    0  0.68604032221E+01 -0.15842481066E+02  0.23620357622E+02  0.95743024201E+02  0.91163348174E+02 0.  0.
         11    1    3    3    0    0 -0.35926480942E+02 -0.26723818678E+02 -0.17754850311E+01  0.44811012764E+02  0.51100000000E-03 0. -1.
         22    1    1    0    0    0 -0.68604032221E+01  0.15842481066E+02 -0.23620357622E+02  0.29256975799E+02  0.00000000000E+00 0. -1.
</event>
<event>
 5    1  0.3183396E-003  0.9118800E+02  0.7818608E-02  0.1130116E+00
         25   -1    0    0    0    0  0.00000000000E+00  0.00000000000E+00  0.99999998245E-14  0.12500000000E+03  0.12500000000E+03 0.  0.
        -11    1    3    3    0    0 -0.10701498780E+01 -0.31655811644E+02  0.30485185024E+02  0.43961143500E+02  0.51100000000E-03 0. -1.
         23    2    1    0    0    0 -0.24635743352E+02  0.64265394323E+01  0.25405930354E+02  0.89032215015E+02  0.81443561770E+02 0.  0.
         11    1    3    3    0    0 -0.23565593474E+02  0.38082351076E+02 -0.50792546700E+01  0.45071071515E+02  0.51100000000E-03 0.  1.
         22    1    1    0    0    0  0.24635743352E+02 -0.64265394323E+01 -0.25405930354E+02  0.35967784985E+02  0.00000000000E+00 0.  1.
</event>
<event>
 5    1  0.3183396E-003  0.9118800E+02  0.7818608E-02  0.1130116E+00
         25   -1    0    0    0    0  0.00000000000E+00  0.00000000000E+00  0.99999998245E-14  0.12500000000E+03  0.12500000000E+03 0.  0.
        -11    1    3    3    0    0  0.18783446937E+02 -0.50723644620E+02  0.31057637653E+02  0.62372132072E+02  0.51100000000E-03 0.  1.
         23    2    1    0    0    0  0.10533793406E+02 -0.23815972652E+02  0.12256002750E+02  0.96218565701E+02  0.91813078727E+02 0.  0.
         11    1    3    3    0    0 -0.82496535305E+01  0.26907671969E+02 -0.18801634903E+02  0.33846433629E+02  0.51100000000E-03 0. -1.
         22    1    1    0    0    0 -0.10533793406E+02  0.23815972652E+02 -0.12256002750E+02  0.28781434299E+02  0.00000000000E+00 0.  1.
</event>
<event>
 5    1  0.3183396E-003  0.9118800E+02  0.7818608E-02  0.1130116E+00
         25   -1    0    0    0    0  0.00000000000E+00  0.00000000000E+00  0.99999998245E-14  0.12500000000E+03  0.12500000000E+03 0.  0.
        -11    1    3    3    0    0  0.90768568336E+01 -0.40703993137E+02 -0.57451808367E+01  0.42097642337E+02  0.51100000000E-03 0. -1.
         23    2    1    0    0    0  0.15414146849E+02  0.93992327663E+01 -0.23264153993E+02  0.95552379371E+02  0.90901566778E+02 0.  0.
         11    1    3    3    0    0  0.63372900155E+01  0.50103225903E+02 -0.17518973157E+02  0.53454737034E+02  0.51100000000E-03 0.  1.
         22    1    1    0    0    0 -0.15414146849E+02 -0.93992327663E+01  0.23264153993E+02  0.29447620629E+02  0.00000000000E+00 0. -1.
</event>
<event>
 5    1  0.3183396E-003  0.9118800E+02  0.7818608E-02  0.1130116E+00
         25   -1    0    0    0    0  0.00000000000E+00  0.00000000000E+00  0.99999998245E-14  0.12500000000E+03  0.12500000000E+03 0.  0.
        -11    1    3    3    0    0  0.79793415553E+01 -0.32457288184E+02  0.36724251460E+02  0.49656984337E+02  0.51100000000E-03 0. -1.
         23    2    1    0    0    0 -0.24585361182E+02 -0.14182372691E+02  0.17482849862E+02  0.91664887598E+02  0.85388652053E+02 0.  0.
         11    1    3    3    0    0 -0.32564702737E+02  0.18274915493E+02 -0.19241401598E+02  0.42007903261E+02  0.51100000000E-03 0.  1.
         22    1    1    0    0    0  0.24585361182E+02  0.14182372691E+02 -0.17482849862E+02  0.33335112402E+02  0.00000000000E+00 0. -1.
</event>
<event>
 5    1  0.3183396E-003  0.9118800E+02  0.7818608E-02  0.1130116E+00
         25   -1    0    0    0    0  0.00000000000E+00  0.00000000000E+00  0.99999998245E-14  0.12500000000E+03  0.12500000000E+03 0.  0.
        -11    1    3    3    0    0 -0.41410808101E+00 -0.16869524806E+02  0.40729461325E+02  0.44086748267E+02  0.51100000000E-03 0. -1.
         23    2    1    0    0    0 -0.29195017473E+02  0.46275098730E+00  0.14629210753E+01  0.95764690496E+02  0.91193051402E+02 0.  0.
         11    1    3    3    0    0 -0.28780909392E+02  0.17332275794E+02 -0.39266540250E+02  0.51677942229E+02  0.51100000000E-03 0.  1.
         22    1    1    0    0    0  0.29195017473E+02 -0.46275098730E+00 -0.14629210753E+01  0.29235309504E+02  0.00000000000E+00 0.  1.
</event>
<event>
 5    1  0.3183396E-003  0.9118800E+02  0.7818608E-02  0.1130116E+00
         25   -1    0    0    0    0  0.00000000000E+00  0.00000000000E+00  0.99999998245E-14  0.12500000000E+03  0.12500000000E+03 0.  0.
        -11    1    3    3    0    0 -0.33637170669E+02 -0.43401426713E+02  0.15446491619E+02  0.57041539205E+02  0.51100000000E-03 0. -1.
         23    2    1    0    0    0 -0.28814751309E+02 -0.75563333277E+01  0.97532769913E+01  0.93654913010E+02  0.88253771888E+02 0.  0.
         11    1    3    3    0    0  0.48224193595E+01  0.35845093385E+02 -0.56932146280E+01  0.36613373804E+02  0.51100000000E-03 0.  1.
         22    1    1    0    0    0  0.28814751309E+02  0.75563333277E+01 -0.97532769913E+01  0.31345086990E+02  0.00000000000E+00 0. -1.
</event>
<event>
 5    1  0.3183396E-003  0.9118800E+02  0.7818608E-02  0.1130116E+00
         25   -1    0    0    0    0  0.00000000000E+00  0.00000000000E+00  0.99999998245E-14  0.12500000000E+03  0.12500000000E+03 0.  0.
        -11    1    3    3    0    0  0.42583465665E+01  0.25970531165E+02 -0.40247034554E+02  0.48087688602E+02  0.51100000000E-03 0. -1.
         23    2    1    0    0    0  0.16012568130E+02 -0.13863661462E+02 -0.24768309724E+02  0.92410544438E+02  0.86473326000E+02 0.  0.
         11    1    3    3    0    0  0.11754221563E+02 -0.39834192627E+02  0.15478724830E+02  0.44322855836E+02  0.51100000000E-03 0.  1.
         22    1    1    0    0    0 -0.16012568130E+02  0.13863661462E+02  0.24768309724E+02  0.32589455562E+02  0.00000000000E+00 0.  1.
</event>
<event>
 5    1  0.3183396E-003  0.9118800E+02  0.7818608E-02  0.1130116E+00
         25   -1    0    0    0    0  0.00000000000E+00  0.00000000000E+00  0.99999998245E-14  0.12500000000E+03  0.12500000000E+03 0.  0.
        -11    1    3    3    0    0 -0.16503128976E+02  0.26154851584E+02  0.16691900097E+02  0.35143264739E+02  0.51100000000E-03 0.  1.
         23    2    1    0    0    0  0.30229882826E+02 -0.59729396074E+01  0.26937422350E+00  0.94184510620E+02  0.89000717161E+02 0.  0.
         11    1    3    3    0    0  0.46733011802E+02 -0.32127791192E+02 -0.16422525874E+02  0.59041245882E+02  0.51100000000E-03 0. -1.
         22    1    1    0    0    0 -0.30229882826E+02  0.59729396074E+01 -0.26937422350E+00  0.30815489380E+02  0.00000000000E+00 0. -1.
</event>
<event>
 5    1  0.3183396E-003  0.9118800E+02  0.7818608E-02  0.1130116E+00
         25   -1    0    0    0    0  0.00000000000E+00  0.00000000000E+00  0.99999998245E-14  0.12500000000E+03  0.12500000000E+03 0.  0.
        -11    1    3    3    0    0 -0.47383022737E+02 -0.25509167968E+02  0.49076796515E+01  0.54036596987E+02  0.51100000000E-03 0.  1.
         23    2    1    0    0    0 -0.20243469629E+02 -0.27651055565E+02 -0.14826753859E+02  0.87660857449E+02  0.79310871652E+02 0.  0.
         11    1    3    3    0    0  0.27139553108E+02 -0.21418875968E+01 -0.19734433510E+02  0.33624260462E+02  0.51100000000E-03 0. -1.
         22    1    1    0    0    0  0.20243469629E+02  0.27651055565E+02  0.14826753859E+02  0.37339142551E+02  0.00000000000E+00 0.  1.
</event>
<event>
 5    1  0.3183396E-003  0.9118800E+02  0.7818608E-02  0.1130116E+00
         25   -1    0    0    0    0  0.00000000000E+00  0.00000000000E+00  0.99999998245E-14  0.12500000000E+03  0.12500000000E+03 0.  0.
        -11    1    3    3    0    0 -0.37217172274E+02  0.41772158555E+02 -0.61480939324E+01  0.56283480717E+02  0.51100000000E-03 0.  1.
         23    2    1    0    0    0 -0.26186326340E+02  0.21395446964E+01 -0.82081430471E+01  0.97474103994E+02  0.93506823272E+02 0.  0.
         11    1    3    3    0    0  0.11030845934E+02 -0.39632613858E+02 -0.20600491147E+01  0.41190623276E+02  0.51100000000E-03 0. -1.
         22    1    1    0    0    0  0.26186326340E+02 -0.21395446964E+01  0.82081430471E+01  0.27525896006E+02  0.00000000000E+00 0.  1.
</event>
<event>
 5    1  0.3183396E-003  0.9118800E+02  0.7818608E-02  0.1130116E+00
         25   -1    0    0    0    0  0.00000000000E+00  0.00000000000E+00  0.99999998245E-14  0.12500000000E+03  0.12500000000E+03 0.  0.
        -11    1    3    3    0    0 -0.88596007179E+01 -0.23713337547E+02  0.21352030811E+02  0.33116825369E+02  0.51100000000E-03 0.  1.
         23    2    1    0    0    0  0.21730827975E+02  0.12627268919E+02 -0.17409151084E+02  0.94426231075E+02  0.89339564409E+02 0.  0.
         11    1    3    3    0    0  0.30590428692E+02  0.36340606466E+02 -0.38761181895E+02  0.61309405706E+02  0.51100000000E-03 0. -1.
         22    1    1    0    0    0 -0.21730827975E+02 -0.12627268919E+02  0.17409151084E+02  0.30573768925E+02  0.00000000000E+00 0. -1.
</event>
<event>
 5    1  0.3183396E-003  0.9118800E+02  0.7818608E-02  0.1130116E+00
         25   -1    0    0    0    0  0.00000000000E+00  0.00000000000E+00  0.99999998245E-14  0.12500000000E+03  0.12500000000E+03 0.  0.
        -11    1    3    3    0    0  0.41487918102E+00 -0.33464616335E+02 -0.34386353541E+02  0.47984101339E+02  0.51100000000E-03 0.  1.
         23    2    1    0    0    0 -0.19366699856E+02  0.88026340696E+01 -0.16940188607E+02  0.97805783337E+02  0.93949166225E+02 0.  0.
         11    1    3    3    0    0 -0.19781579037E+02  0.42267250405E+02  0.17446164934E+02  0.49821681998E+02  0.51100000000E-03 0. -1.
         22    1    1    0    0    0  0.19366699856E+02 -0.88026340696E+01  0.16940188607E+02  0.27194216663E+02  0.00000000000E+00 0. -1.
</event>
<event>
 5    1  0.3183396E-003  0.9118800E+02  0.7818608E-02  0.1130116E+00
         25   -1    0    0    0    0  0.00000000000E+00  0.00000000000E+00  0.99999998245E-14  0.12500000000E+03  0.12500000000E+03 0.  0.
        -11    1    3    3    0    0  0.76567154258E+01 -0.26062790212E+02  0.27002910820E+02  0.38302108529E+02  0.51100000000E-03 0.  1.
         23    2    1    0    0    0 -0.11933244406E+02 -0.12557359388E+02 -0.24475947149E+02  0.95013976828E+02  0.90158162176E+02 0.  0.
         11    1    3    3    0    0 -0.19589959832E+02  0.13505430823E+02 -0.51478857969E+02  0.56711868299E+02  0.51100000000E-03 0. -1.
         22    1    1    0    0    0  0.11933244406E+02  0.12557359388E+02  0.24475947149E+02  0.29986023172E+02  0.00000000000E+00 0. -1.
</event>
<event>
 5    1  0.3183396E-003  0.9118800E+02  0.7818608E-02  0.1130116E+00
         25   -1    0    0    0    0  0.00000000000E+00  0.00000000000E+00  0.99999998245E-14  0.12500000000E+03  0.12500000000E+03 0.  0.
        -11    1    3    3    0    0 -0.19035944088E+02  0.30661131860E+02 -0.77609695219E+01  0.36914832012E+02  0.51100000000E-03 0.  1.
         23    2    1    0    0    0 -0.96978034943E+01 -0.26741486474E+02 -0.92412599061E+01  0.95090881389E+02  0.90264723714E+02 0.  0.
         11    1    3    3    0    0  0.93381405941E+01 -0.57402618333E+02 -0.14802903842E+01  0.58176049377E+02  0.51100000000E-03 0. -1.
         22    1    1    0    0    0  0.96978034943E+01  0.26741486474E+02  0.92412599061E+01  0.29909118611E+02  0.00000000000E+00 0. -1.
</event>
<event>
 5    1  0.3183396E-003  0.9118800E+02  0.7818608E-02  0.1130116E+00
         25   -1    0    0    0    0  0.00000000000E+00  0.00000000000E+00  0.99999998245E-14  0.12500000000E+03  0.12500000000E+03 0.  0.
        -11    1    3    3    0    0 -0.19011693178E+02  0.35094879754E+01  0.33971212527E+02  0.39087136812E+02  0.51100000000E-03 0.  1.
         23    2    1    0    0    0 -0.10980902984E+02  0.20352180658E+02 -0.18886820072E+02  0.95141944800E+02  0.90335409447E+02 0.  0.
         11    1    3    3    0    0  0.80307901936E+01  0.16842692683E+02 -0.52858032600E+02  0.56054807987E+02  0.51100000000E-03 0. -1.
         22    1    1    0    0    0  0.10980902984E+02 -0.20352180658E+02  0.18886820072E+02  0.29858055200E+02  0.00000000000E+00 0. -1.
</event>
<event>
 5    1  0.3183396E-003  0.9118800E+02  0.7818608E-02  0.1130116E+00
         25   -1    0    0    0    0  0.00000000000E+00  0.00000000000E+00  0.99999998245E-14  0.12500000000E+03  0.12500000000E+03 0.  0.
        -11    1    3    3    0    0  0.51724140628E+01 -0.31860877586E+02 -0.21647205978E+02  0.38864777302E+02  0.51100000000E-03 0.  1.
         23    2    1    0    0    0 -0.24125388338E+02 -0.27930124128E+01  0.16959290272E+02  0.95378170088E+02  0.90661692694E+02 0.  0.
         11    1    3    3    0    0 -0.29297802401E+02  0.29067865174E+02  0.38606496250E+02  0.56513392786E+02  0.51100000000E-03 0. -1.
         22    1    1    0    0    0  0.24125388338E+02  0.27930124128E+01 -0.16959290272E+02  0.29621829912E+02  0.00000000000E+00 0. -1.
</event>
<event>
 5    1  0.3183396E-003  0.9118800E+02  0.7818608E-02  0.1130116E+00
         25   -1    0    0    0    0  0.00000000000E+00  0.00000000000E+00  0.99999998245E-14  0.12500000000E+03  0.12500000000E+03 0.  0.
        -11    1    3    3    0    0 -0.33628913907E+02 -0.38115741115E+02  0.14697408144E+02  0.52912450120E+02  0.51100000000E-03 0.  1.
         23    2    1    0    0    0 -0.26034944936E+02 -0.89604369478E+01 -0.13639725199E+02  0.94272977827E+02  0.89124881244E+02 0.  0.
         11    1    3    3    0    0  0.75939689706E+01  0.29155304167E+02 -0.28337133343E+02  0.41360527707E+02  0.51100000000E-03 0. -1.
         22    1    1    0    0    0  0.26034944936E+02  0.89604369478E+01  0.13639725199E+02  0.30727022173E+02  0.00000000000E+00 0.  1.
</event>
<event>
 5    1  0.3183396E-003  0.9118800E+02  0.7818608E-02  0.1130116E+00
         25   -1    0    0    0    0  0.00000000000E+00  0.00000000000E+00  0.99999998245E-14  0.12500000000E+03  0.12500000000E+03 0.  0.
        -11    1    3    3    0    0 -0.29340380122E+02 -0.36083379238E+02  0.21809091498E+02  0.51366376504E+02  0.51100000000E-03 0. -1.
         23    2    1    0    0    0 -0.14292543211E+02 -0.18126452243E+02 -0.16746308417E+02  0.96481867033E+02  0.92170856339E+02 0.  0.
         11    1    3    3    0    0  0.15047836912E+02  0.17956926995E+02 -0.38555399915E+02  0.45115490529E+02  0.51100000000E-03 0.  1.
         22    1    1    0    0    0  0.14292543211E+02  0.18126452243E+02  0.16746308417E+02  0.28518132967E+02  0.00000000000E+00 0.  1.
</event>
<event>
 5    1  0.3183396E-003  0.9118800E+02  0.7818608E-02  0.1130116E+00
         25   -1    0    0    0    0  0.00000000000E+00  0.00000000000E+00  0.99999998245E-14  0.12500000000E+03  0.12500000000E+03 0.  0.
        -11    1    3    3    0    0  0.37960435202E+02 -0.64609310091E+01  0.27154399872E+02  0.47117933984E+02  0.51100000000E-03 0.  1.
         23    2    1    0    0    0  0.18786671769E+02  0.15621018649E+02 -0.13413149716E+02  0.97127650887E+02  0.93042531789E+02 0.  0.
         11    1    3    3    0    0 -0.19173763433E+02  0.22081949658E+02 -0.40567549588E+02  0.50009716903E+02  0.51100000000E-03 0. -1.
         22    1    1    0    0    0 -0.18786671769E+02 -0.15621018649E+02  0.13413149716E+02  0.27872349113E+02  0.00000000000E+00 0. -1.
</event>
<event>
 5    1  0.3183396E-003  0.9118800E+02  0.7818608E-02  0.1130116E+00
         25   -1    0    0    0    0  0.00000000000E+00  0.00000000000E+00  0.99999998245E-14  0.12500000000E+03  0.12500000000E+03 0.  0.
        -11    1    3    3    0    0 -0.18350314910E+02  0.78276922603E+01  0.12632115796E+02  0.23613072082E+02  0.51100000000E-03 0.  1.
         23    2    1    0    0    0  0.34599159042E+02 -0.20661035262E+02  0.21742246933E+01  0.84642752355E+02  0.74402204865E+02 0.  0.
         11    1    3    3    0    0  0.52949473952E+02 -0.28488727522E+02 -0.10457891102E+02  0.61029680273E+02  0.51100000000E-03 0. -1.
         22    1    1    0    0    0 -0.34599159042E+02  0.20661035262E+02 -0.21742246933E+01  0.40357247645E+02  0.00000000000E+00 0. -1.
</event>
<event>
 5    1  0.3183396E-003  0.9118800E+02  0.7818608E-02  0.1130116E+00
         25   -1    0    0    0    0  0.00000000000E+00  0.00000000000E+00  0.99999998245E-14  0.12500000000E+03  0.12500000000E+03 0.  0.
        -11    1    3    3    0    0 -0.29409474982E+02 -0.34127908445E+02  0.15606179737E+02  0.47677921513E+02  0.51100000000E-03 0.  1.
         23    2    1    0    0    0 -0.24559340438E+02  0.13353716966E+02  0.70824673028E+01  0.96161756249E+02  0.91735702223E+02 0.  0.
         11    1    3    3    0    0  0.48501345442E+01  0.47481625411E+02 -0.85237124347E+01  0.48483834736E+02  0.51100000000E-03 0. -1.
         22    1    1    0    0    0  0.24559340438E+02 -0.13353716966E+02 -0.70824673028E+01  0.28838243751E+02  0.00000000000E+00 0. -1.
</event>
<event>
 5    1  0.3183396E-003  0.9118800E+02  0.7818608E-02  0.1130116E+00
         25   -1    0    0    0    0  0.00000000000E+00  0.00000000000E+00  0.99999998245E-14  0.12500000000E+03  0.12500000000E+03 0.  0.
        -11    1    3    3    0    0 -0.34170948687E+02 -0.24621178841E+01  0.46820373390E+02  0.58016059184E+02  0.51100000000E-03 0. -1.
         23    2    1    0    0    0 -0.20391183277E+02  0.14467678066E+02  0.17896434455E+02  0.94252700439E+02  0.89096437133E+02 0.  0.
         11    1    3    3    0    0  0.13779765410E+02  0.16929795951E+02 -0.28923938935E+02  0.36236641255E+02  0.51100000000E-03 0.  1.
         22    1    1    0    0    0  0.20391183277E+02 -0.14467678066E+02 -0.17896434455E+02  0.30747299561E+02  0.00000000000E+00 0. -1.
</event>
<event>
 5    1  0.3183396E-003  0.9118800E+02  0.7818608E-02  0.1130116E+00
         25   -1    0    0    0    0  0.00000000000E+00  0.00000000000E+00  0.99999998245E-14  0.12500000000E+03  0.12500000000E+03 0.  0.
        -11    1    3    3    0    0 -0.70043921532E+01 -0.42182739727E+02  0.17180410656E+02  0.46082659980E+02  0.51100000000E-03 0. -1.
         23    2    1    0    0    0 -0.30050961496E+02 -0.42680171859E+01 -0.23417958582E+01  0.94557262519E+02  0.89522710133E+02 0.  0.
         11    1    3    3    0    0 -0.23046569343E+02  0.37914722541E+02 -0.19522206514E+02  0.48474602538E+02  0.51100000000E-03 0.  1.
         22    1    1    0    0    0  0.30050961496E+02  0.42680171859E+01  0.23417958582E+01  0.30442737481E+02  0.00000000000E+00 0. -1.
</event>
<event>
 5    1  0.3183396E-003  0.9118800E+02  0.7818608E-02  0.1130116E+00
         25   -1    0    0    0    0  0.00000000000E+00  0.00000000000E+00  0.99999998245E-14  0.12500000000E+03  0.12500000000E+03 0.  0.
        -11    1    3    3    0    0  0.32119393140E+02  0.16049251263E+02  0.21882375457E+02  0.42048451074E+02  0.51100000000E-03 0.  1.
         23    2    1    0    0    0  0.18109107162E+02 -0.92803535765E+01 -0.22263697428E+02  0.94838154104E+02  0.89914061892E+02 0.  0.
         11    1    3    3    0    0 -0.14010285978E+02 -0.25329604839E+02 -0.44146072886E+02  0.52789703030E+02  0.51100000000E-03 0. -1.
         22    1    1    0    0    0 -0.18109107162E+02  0.92803535765E+01  0.22263697428E+02  0.30161845896E+02  0.00000000000E+00 0. -1.
</event>
<event>
 4    1  0.3183396E-003  0.9118800E+02  0.7818608E-02  0.1130116E+00
         25   -1    0    0    0    0  0.00000000000E+00  0.00000000000E+00  0.99999998245E-14  0.12500000000E+03  0.12500000000E+03 0.  0.
        -11    1    1    0    0    0  0.11096880858E+02 -0.15139409435E+02  0.47689435743E+02  0.51250607455E+02  0.51100000000E-03 0. -1.
         11    1    1    0    0    0  0.13661893546E+02  0.13603287782E+02  0.78606808025E+00  0.19295457419E+02  0.51100000000E-03 0.  1.
         22    1    1    0    0    0 -0.24758774403E+02  0.15361216527E+01 -0.48475503823E+02  0.54453935125E+02  0.00000000000E+00 0. -1.
</event>
<event>
 5    1  0.3183396E-003  0.9118800E+02  0.7818608E-02  0.1130116E+00
         25   -1    0    0    0    0  0.00000000000E+00  0.00000000000E+00  0.99999998245E-14  0.12500000000E+03  0.12500000000E+03 0.  0.
        -11    1    3    3    0    0  0.29175481450E+02 -0.52720002574E+02 -0.44472474910E+01  0.60418419375E+02  0.51100000000E-03 0.  1.
         23    2    1    0    0    0  0.18826936522E+02 -0.21593854297E+02  0.75969948815E+01  0.95361133398E+02  0.90638200277E+02 0.  0.
         11    1    3    3    0    0 -0.10348544927E+02  0.31126148278E+02  0.12044242372E+02  0.34942714023E+02  0.51100000000E-03 0. -1.
         22    1    1    0    0    0 -0.18826936522E+02  0.21593854297E+02 -0.75969948815E+01  0.29638866602E+02  0.00000000000E+00 0.  1.
</event>
<event>
 5    1  0.3183396E-003  0.9118800E+02  0.7818608E-02  0.1130116E+00
         25   -1    0    0    0    0  0.00000000000E+00  0.00000000000E+00  0.99999998245E-14  0.12500000000E+03  0.12500000000E+03 0.  0.
        -11    1    3    3    0    0 -0.86894350072E+01  0.39800441505E+02  0.11344713670E+02  0.42288106522E+02  0.51100000000E-03 0.  1.
         23    2    1    0    0    0 -0.25473327557E+02 -0.10922288828E+02  0.93372394046E+01  0.95753276256E+02  0.91177404350E+02 0.  0.
         11    1    3    3    0    0 -0.16783892550E+02 -0.50722730332E+02 -0.20074742657E+01  0.53465169734E+02  0.51100000000E-03 0. -1.
         22    1    1    0    0    0  0.25473327557E+02  0.10922288828E+02 -0.93372394046E+01  0.29246723744E+02  0.00000000000E+00 0. -1.
</event>
<event>
 5    1  0.3183396E-003  0.9118800E+02  0.7818608E-02  0.1130116E+00
         25   -1    0    0    0    0  0.00000000000E+00  0.00000000000E+00  0.99999998245E-14  0.12500000000E+03  0.12500000000E+03 0.  0.
        -11    1    3    3    0    0  0.15973693131E+02 -0.25015122678E+02  0.23250794867E+02  0.37702979949E+02  0.51100000000E-03 0.  1.
         23    2    1    0    0    0  0.11735163421E+01  0.28532713202E+02  0.67675019333E+01  0.95652224178E+02  0.91038761220E+02 0.  0.
         11    1    3    3    0    0 -0.14800176789E+02  0.53547835880E+02 -0.16483292934E+02  0.57949244229E+02  0.51100000000E-03 0. -1.
         22    1    1    0    0    0 -0.11735163421E+01 -0.28532713202E+02 -0.67675019333E+01  0.29347775822E+02  0.00000000000E+00 0. -1.
</event>
<event>
 5    1  0.3183396E-003  0.9118800E+02  0.7818608E-02  0.1130116E+00
         25   -1    0    0    0    0  0.00000000000E+00  0.00000000000E+00  0.99999998245E-14  0.12500000000E+03  0.12500000000E+03 0.  0.
        -11    1    3    3    0    0  0.29456088384E+02  0.16291981209E+02  0.55562215203E+01  0.34116878410E+02  0.51100000000E-03 0.  1.
         23    2    1    0    0    0 -0.12510132372E+02 -0.21400924224E+02 -0.17078490807E+02  0.94897212458E+02  0.89996128330E+02 0.  0.
         11    1    3    3    0    0 -0.41966220756E+02 -0.37692905433E+02 -0.22634712327E+02  0.60780334047E+02  0.51100000000E-03 0. -1.
         22    1    1    0    0    0  0.12510132372E+02  0.21400924224E+02  0.17078490807E+02  0.30102787542E+02  0.00000000000E+00 0. -1.
</event>
<event>
 5    1  0.3183396E-003  0.9118800E+02  0.7818608E-02  0.1130116E+00
         25   -1    0    0    0    0  0.00000000000E+00  0.00000000000E+00  0.99999998245E-14  0.12500000000E+03  0.12500000000E+03 0.  0.
        -11    1    3    3    0    0 -0.39776370090E+02 -0.90622357699E+01  0.23478968287E+02  0.47069583457E+02  0.51100000000E-03 0.  1.
         23    2    1    0    0    0  0.60961518352E+01  0.83551795873E+01  0.26823776759E+02  0.96251311461E+02  0.91857650009E+02 0.  0.
         11    1    3    3    0    0  0.45872521925E+02  0.17417415357E+02  0.33448084715E+01  0.49181728004E+02  0.51100000000E-03 0. -1.
         22    1    1    0    0    0 -0.60961518352E+01 -0.83551795873E+01 -0.26823776759E+02  0.28748688539E+02  0.00000000000E+00 0. -1.
</event>
<event>
 5    1  0.3183396E-003  0.9118800E+02  0.7818608E-02  0.1130116E+00
         25   -1    0    0    0    0  0.00000000000E+00  0.00000000000E+00  0.99999998245E-14  0.12500000000E+03  0.12500000000E+03 0.  0.
        -11    1    3    3    0    0  0.15341709778E+02  0.53489117774E+02  0.16417814927E+02  0.58017225255E+02  0.51100000000E-03 0. -1.
         23    2    1    0    0    0  0.91807685528E+00  0.27817780517E+02 -0.77468406019E+01  0.96109078982E+02  0.91663895539E+02 0.  0.
         11    1    3    3    0    0 -0.14423632922E+02 -0.25671337257E+02 -0.24164655528E+02  0.38091853726E+02  0.51100000000E-03 0.  1.
         22    1    1    0    0    0 -0.91807685528E+00 -0.27817780517E+02  0.77468406019E+01  0.28890921018E+02  0.00000000000E+00 0. -1.
</event>
<event>
 5    1  0.3183396E-003  0.9118800E+02  0.7818608E-02  0.1130116E+00
         25   -1    0    0    0    0  0.00000000000E+00  0.00000000000E+00  0.99999998245E-14  0.12500000000E+03  0.12500000000E+03 0.  0.
        -11    1    3    3    0    0  0.32623687622E+02  0.14484819387E+02 -0.88199559082E+01  0.36768282652E+02  0.51100000000E-03 0. -1.
         23    2    1    0    0    0 -0.22954398064E+02  0.16609664376E+02  0.91627102646E+01  0.95221809985E+02  0.90445853948E+02 0.  0.
         11    1    3    3    0    0 -0.55578085686E+02  0.21248449890E+01  0.17982666173E+02  0.58453527333E+02  0.51100000000E-03 0.  1.
         22    1    1    0    0    0  0.22954398064E+02 -0.16609664376E+02 -0.91627102646E+01  0.29778190015E+02  0.00000000000E+00 0.  1.
</event>
<event>
 5    1  0.3183396E-003  0.9118800E+02  0.7818608E-02  0.1130116E+00
         25   -1    0    0    0    0  0.00000000000E+00  0.00000000000E+00  0.99999998245E-14  0.12500000000E+03  0.12500000000E+03 0.  0.
        -11    1    3    3    0    0  0.91424497509E+01  0.28232441870E+02 -0.16489175357E+02  0.33949198306E+02  0.51100000000E-03 0.  1.
         23    2    1    0    0    0 -0.11165904937E+02 -0.11286263567E+02  0.25421394677E+02  0.95028271894E+02  0.90177979426E+02 0.  0.
         11    1    3    3    0    0 -0.20308354688E+02 -0.39518705437E+02  0.41910570034E+02  0.61079073588E+02  0.51100000000E-03 0. -1.
         22    1    1    0    0    0  0.11165904937E+02  0.11286263567E+02 -0.25421394677E+02  0.29971728106E+02  0.00000000000E+00 0. -1.
</event>
<event>
 5    1  0.3183396E-003  0.9118800E+02  0.7818608E-02  0.1130116E+00
         25   -1    0    0    0    0  0.00000000000E+00  0.00000000000E+00  0.99999998245E-14  0.12500000000E+03  0.12500000000E+03 0.  0.
        -11    1    3    3    0    0 -0.63542694877E+01 -0.29290356159E+02  0.66412011900E+01  0.30698652383E+02  0.51100000000E-03 0.  1.
         23    2    1    0    0    0  0.12671236731E+02  0.28593464449E+02 -0.65633756892E+01  0.93043398961E+02  0.87383349331E+02 0.  0.
         11    1    3    3    0    0  0.19025506219E+02  0.57883820608E+02 -0.13204576879E+02  0.62344746578E+02  0.51100000000E-03 0. -1.
         22    1    1    0    0    0 -0.12671236731E+02 -0.28593464449E+02  0.65633756892E+01  0.31956601039E+02  0.00000000000E+00 0. -1.
</event>
<event>
 5    1  0.3183396E-003  0.9118800E+02  0.7818608E-02  0.1130116E+00
         25   -1    0    0    0    0  0.00000000000E+00  0.00000000000E+00  0.99999998245E-14  0.12500000000E+03  0.12500000000E+03 0.  0.
        -11    1    3    3    0    0 -0.53319152271E+02 -0.22745946609E+02  0.19218934709E+02  0.61071085937E+02  0.51100000000E-03 0.  1.
         23    2    1    0    0    0 -0.29040723032E+02 -0.23706298762E+01  0.70524256732E+01  0.95021337787E+02  0.90168367217E+02 0.  0.
         11    1    3    3    0    0  0.24278429239E+02  0.20375316733E+02 -0.12166509035E+02  0.33950251849E+02  0.51100000000E-03 0. -1.
         22    1    1    0    0    0  0.29040723032E+02  0.23706298762E+01 -0.70524256732E+01  0.29978662213E+02  0.00000000000E+00 0.  1.
</event>
<event>
 5    1  0.3183396E-003  0.9118800E+02  0.7818608E-02  0.1130116E+00
         25   -1    0    0    0    0  0.00000000000E+00  0.00000000000E+00  0.99999998245E-14  0.12500000000E+03  0.12500000000E+03 0.  0.
        -11    1    3    3    0    0  0.19184728018E+02 -0.52476552025E+02 -0.22242655074E+02  0.60137991374E+02  0.51100000000E-03 0. -1.
         23    2    1    0    0    0 -0.25597480621E+01 -0.27473591727E+02 -0.12732750984E+02  0.94611293214E+02  0.89598121094E+02 0.  0.
         11    1    3    3    0    0 -0.21744476080E+02  0.25002960298E+02  0.95099040902E+01  0.34473301840E+02  0.51100000000E-03 0.  1.
         22    1    1    0    0    0  0.25597480621E+01  0.27473591727E+02  0.12732750984E+02  0.30388706786E+02  0.00000000000E+00 0. -1.
</event>
<event>
 5    1  0.3183396E-003  0.9118800E+02  0.7818608E-02  0.1130116E+00
         25   -1    0    0    0    0  0.00000000000E+00  0.00000000000E+00  0.99999998245E-14  0.12500000000E+03  0.12500000000E+03 0.  0.
        -11    1    3    3    0    0  0.29564245143E+02 -0.18320190169E+02 -0.77760295564E+01  0.35639031899E+02  0.51100000000E-03 0.  1.
         23    2    1    0    0    0 -0.28447637095E+02 -0.11349546951E+01 -0.38573635308E+01  0.96269607872E+02  0.91882544414E+02 0.  0.
         11    1    3    3    0    0 -0.58011882238E+02  0.17185235474E+02  0.39186660255E+01  0.60630575973E+02  0.51100000000E-03 0. -1.
         22    1    1    0    0    0  0.28447637095E+02  0.11349546951E+01  0.38573635308E+01  0.28730392128E+02  0.00000000000E+00 0. -1.
</event>
<event>
 5    1  0.3183396E-003  0.9118800E+02  0.7818608E-02  0.1130116E+00
         25   -1    0    0    0    0  0.00000000000E+00  0.00000000000E+00  0.99999998245E-14  0.12500000000E+03  0.12500000000E+03 0.  0.
        -11    1    3    3    0    0  0.37768477794E+02  0.56443519701E+00  0.88827943401E+00  0.37783138337E+02  0.51100000000E-03 0.  1.
         23    2    1    0    0    0 -0.10828980627E+02 -0.19609192321E+02 -0.20549991985E+02  0.94601160952E+02  0.89583984272E+02 0.  0.
         11    1    3    3    0    0 -0.48597458421E+02 -0.20173627518E+02 -0.21438271419E+02  0.56818022615E+02  0.51100000000E-03 0. -1.
         22    1    1    0    0    0  0.10828980627E+02  0.19609192321E+02  0.20549991985E+02  0.30398839048E+02  0.00000000000E+00 0. -1.
</event>
<event>
 5    1  0.3183396E-003  0.9118800E+02  0.7818608E-02  0.1130116E+00
         25   -1    0    0    0    0  0.00000000000E+00  0.00000000000E+00  0.99999998245E-14  0.12500000000E+03  0.12500000000E+03 0.  0.
        -11    1    3    3    0    0  0.46932659540E+02 -0.22465501350E+02 -0.14762519329E+02  0.54086091185E+02  0.51100000000E-03 0.  1.
         23    2    1    0    0    0  0.13017842345E+02  0.78737186524E+00 -0.25300857550E+02  0.96535679060E+02  0.92243806107E+02 0.  0.
         11    1    3    3    0    0 -0.33914817195E+02  0.23252873215E+02 -0.10538338221E+02  0.42449587876E+02  0.51100000000E-03 0. -1.
         22    1    1    0    0    0 -0.13017842345E+02 -0.78737186524E+00  0.25300857550E+02  0.28464320940E+02  0.00000000000E+00 0.  1.
</event>
<event>
 5    1  0.3183396E-003  0.9118800E+02  0.7818608E-02  0.1130116E+00
         25   -1    0    0    0    0  0.00000000000E+00  0.00000000000E+00  0.99999998245E-14  0.12500000000E+03  0.12500000000E+03 0.  0.
        -11    1    3    3    0    0  0.28759202447E+00 -0.50270877361E+02 -0.15335433828E+02  0.52558722880E+02  0.51100000000E-03 0. -1.
         23    2    1    0    0    0 -0.23329478851E+02 -0.15343271482E+02 -0.11166802362E+02  0.94927121218E+02  0.90037660479E+02 0.  0.
         11    1    3    3    0    0 -0.23617070876E+02  0.34927605879E+02  0.41686314664E+01  0.42368398338E+02  0.51100000000E-03 0.  1.
         22    1    1    0    0    0  0.23329478851E+02  0.15343271482E+02  0.11166802362E+02  0.30072878782E+02  0.00000000000E+00 0.  1.
</event>
<event>
 5    1  0.3183396E-003  0.9118800E+02  0.7818608E-02  0.1130116E+00
         25   -1    0    0    0    0  0.00000000000E+00  0.00000000000E+00  0.99999998245E-14  0.12500000000E+03  0.12500000000E+03 0.  0.
        -11    1    3    3    0    0 -0.80525985069E+00 -0.14884598381E+02 -0.51131289794E+02  0.53259820772E+02  0.51100000000E-03 0.  1.
         23    2    1    0    0    0  0.16553665620E+02 -0.18558548153E+02 -0.97432366515E+01  0.98290933834E+02  0.94592459839E+02 0.  0.
         11    1    3    3    0    0  0.17358925471E+02 -0.36739497720E+01  0.41388053142E+02  0.45031113062E+02  0.51100000000E-03 0. -1.
         22    1    1    0    0    0 -0.16553665620E+02  0.18558548153E+02  0.97432366515E+01  0.26709066166E+02  0.00000000000E+00 0.  1.
</event>
<event>
 5    1  0.3183396E-003  0.9118800E+02  0.7818608E-02  0.1130116E+00
         25   -1    0    0    0    0  0.00000000000E+00  0.00000000000E+00  0.99999998245E-14  0.12500000000E+03  0.12500000000E+03 0.  0.
        -11    1    3    3    0    0  0.35094029714E+02  0.82780235617E+01 -0.40011099408E+02  0.53860975406E+02  0.51100000000E-03 0. -1.
         23    2    1    0    0    0  0.61403054784E+00 -0.10963220092E+02 -0.27671412667E+02  0.95229606867E+02  0.90456628927E+02 0.  0.
         11    1    3    3    0    0 -0.34479999166E+02 -0.19241243653E+02  0.12339686741E+02  0.41368631461E+02  0.51100000000E-03 0.  1.
         22    1    1    0    0    0 -0.61403054784E+00  0.10963220092E+02  0.27671412667E+02  0.29770393133E+02  0.00000000000E+00 0. -1.
</event>
<event>
 5    1  0.3183396E-003  0.9118800E+02  0.7818608E-02  0.1130116E+00
         25   -1    0    0    0    0  0.00000000000E+00  0.00000000000E+00  0.99999998245E-14  0.12500000000E+03  0.12500000000E+03 0.  0.
        -11    1    3    3    0    0  0.39601454862E+02  0.28118329687E+02 -0.38464744115E+02  0.61955243779E+02  0.51100000000E-03 0. -1.
         23    2    1    0    0    0  0.14707176576E+02  0.17392406925E+02 -0.15938503731E+02  0.97200130168E+02  0.93139854746E+02 0.  0.
         11    1    3    3    0    0 -0.24894278287E+02 -0.10725922762E+02  0.22526240384E+02  0.35244886389E+02  0.51100000000E-03 0.  1.
         22    1    1    0    0    0 -0.14707176576E+02 -0.17392406925E+02  0.15938503731E+02  0.27799869832E+02  0.00000000000E+00 0. -1.
</event>
<event>
 5    1  0.3183396E-003  0.9118800E+02  0.7818608E-02  0.1130116E+00
         25   -1    0    0    0    0  0.00000000000E+00  0.00000000000E+00  0.99999998245E-14  0.12500000000E+03  0.12500000000E+03 0.  0.
        -11    1    3    3    0    0 -0.30939790460E+02  0.28195575803E+01  0.30536599938E+02  0.43562649996E+02  0.51100000000E-03 0. -1.
         23    2    1    0    0    0 -0.65483502056E+01 -0.28402984187E+02  0.29978391412E+02  0.83187150865E+02  0.71915142468E+02 0.  0.
         11    1    3    3    0    0  0.24391440254E+02 -0.31222541767E+02 -0.55820852542E+00  0.39624500869E+02  0.51100000000E-03 0.  1.
         22    1    1    0    0    0  0.65483502056E+01  0.28402984187E+02 -0.29978391412E+02  0.41812849135E+02  0.00000000000E+00 0. -1.
</event>
<event>
 5    1  0.3183396E-003  0.9118800E+02  0.7818608E-02  0.1130116E+00
         25   -1    0    0    0    0  0.00000000000E+00  0.00000000000E+00  0.99999998245E-14  0.12500000000E+03  0.12500000000E+03 0.  0.
        -11    1    3    3    0    0 -0.57925050006E+02 -0.54801023005E+01  0.18073486498E+02  0.60926134407E+02  0.51100000000E-03 0.  1.
         23    2    1    0    0    0 -0.22864063752E+02 -0.89461239388E+01  0.14852925283E+02  0.96304914458E+02  0.91930564094E+02 0.  0.
         11    1    3    3    0    0  0.35060986254E+02 -0.34660216383E+01 -0.32205612147E+01  0.35378780051E+02  0.51100000000E-03 0. -1.
         22    1    1    0    0    0  0.22864063752E+02  0.89461239388E+01 -0.14852925283E+02  0.28695085542E+02  0.00000000000E+00 0.  1.
</event>
<event>
 5    1  0.3183396E-003  0.9118800E+02  0.7818608E-02  0.1130116E+00
         25   -1    0    0    0    0  0.00000000000E+00  0.00000000000E+00  0.99999998245E-14  0.12500000000E+03  0.12500000000E+03 0.  0.
        -11    1    3    3    0    0  0.25550474227E+02 -0.36937364941E+02  0.32637130150E+02  0.55519167201E+02  0.51100000000E-03 0.  1.
         23    2    1    0    0    0  0.30138919658E+02 -0.14582183586E+02  0.53460083437E+01  0.91094626362E+02  0.84549728507E+02 0.  0.
         11    1    3    3    0    0  0.45884454310E+01  0.22355181355E+02 -0.27291121806E+02  0.35575459161E+02  0.51100000000E-03 0. -1.
         22    1    1    0    0    0 -0.30138919658E+02  0.14582183586E+02 -0.53460083437E+01  0.33905373638E+02  0.00000000000E+00 0.  1.
</event>
<event>
 5    1  0.3183396E-003  0.9118800E+02  0.7818608E-02  0.1130116E+00
         25   -1    0    0    0    0  0.00000000000E+00  0.00000000000E+00  0.99999998245E-14  0.12500000000E+03  0.12500000000E+03 0.  0.
        -11    1    3    3    0    0  0.33403012198E+02  0.17269884128E+02  0.22354178372E+02  0.43746078826E+02  0.51100000000E-03 0.  1.
         23    2    1    0    0    0  0.17128738831E+02 -0.53608405528E+01 -0.22292689798E+02  0.96380141094E+02  0.92032794555E+02 0.  0.
         11    1    3    3    0    0 -0.16274273368E+02 -0.22630724681E+02 -0.44646868170E+02  0.52634062268E+02  0.51100000000E-03 0. -1.
         22    1    1    0    0    0 -0.17128738831E+02  0.53608405528E+01  0.22292689798E+02  0.28619858906E+02  0.00000000000E+00 0. -1.
</event>
<event>
 5    1  0.3183396E-003  0.9118800E+02  0.7818608E-02  0.1130116E+00
         25   -1    0    0    0    0  0.00000000000E+00  0.00000000000E+00  0.99999998245E-14  0.12500000000E+03  0.12500000000E+03 0.  0.
        -11    1    3    3    0    0  0.25536578638E+02  0.32690118479E+01 -0.54625909636E+02  0.60388685122E+02  0.51100000000E-03 0.  1.
         23    2    1    0    0    0  0.13827785037E+02  0.12245892079E+02 -0.21476507443E+02  0.96673159657E+02  0.92429918935E+02 0.  0.
         11    1    3    3    0    0 -0.11708793600E+02  0.89768802314E+01  0.33149402193E+02  0.36284474535E+02  0.51100000000E-03 0. -1.
         22    1    1    0    0    0 -0.13827785037E+02 -0.12245892079E+02  0.21476507443E+02  0.28326840343E+02  0.00000000000E+00 0.  1.
</event>
<event>
 5    1  0.3183396E-003  0.9118800E+02  0.7818608E-02  0.1130116E+00
         25   -1    0    0    0    0  0.00000000000E+00  0.00000000000E+00  0.99999998245E-14  0.12500000000E+03  0.12500000000E+03 0.  0.
        -11    1    3    3    0    0 -0.76461806233E+01 -0.87014698528E+01  0.44517049800E+02  0.45999428028E+02  0.51100000000E-03 0.  1.
         23    2    1    0    0    0 -0.29670930233E+02 -0.11889090699E+02  0.32675613832E+01  0.92869149778E+02  0.87133733104E+02 0.  0.
         11    1    3    3    0    0 -0.22024749610E+02 -0.31876208464E+01 -0.41249488417E+02  0.46869721751E+02  0.51100000000E-03 0. -1.
         22    1    1    0    0    0  0.29670930233E+02  0.11889090699E+02 -0.32675613832E+01  0.32130850222E+02  0.00000000000E+00 0.  1.
</event>
<event>
 5    1  0.3183396E-003  0.9118800E+02  0.7818608E-02  0.1130116E+00
         25   -1    0    0    0    0  0.00000000000E+00  0.00000000000E+00  0.99999998245E-14  0.12500000000E+03  0.12500000000E+03 0.  0.
        -11    1    3    3    0    0  0.10136294543E+02 -0.50152353039E+02  0.70570308961E+01  0.51650795422E+02  0.51100000000E-03 0.  1.
         23    2    1    0    0    0  0.10507468864E+02 -0.14293394008E+02 -0.21236111645E+02  0.97329068465E+02  0.93312738232E+02 0.  0.
         11    1    3    3    0    0  0.37117432103E+00  0.35858959030E+02 -0.28293142541E+02  0.45678273043E+02  0.51100000000E-03 0. -1.
         22    1    1    0    0    0 -0.10507468864E+02  0.14293394008E+02  0.21236111645E+02  0.27670931535E+02  0.00000000000E+00 0.  1.
</event>
<event>
 5    1  0.3183396E-003  0.9118800E+02  0.7818608E-02  0.1130116E+00
         25   -1    0    0    0    0  0.00000000000E+00  0.00000000000E+00  0.99999998245E-14  0.12500000000E+03  0.12500000000E+03 0.  0.
        -11    1    3    3    0    0 -0.39100040609E+02 -0.12845472851E+02 -0.37973612130E+02  0.55998344323E+02  0.51100000000E-03 0.  1.
         23    2    1    0    0    0 -0.58571372062E+01 -0.22171846958E+02 -0.17645068489E+02  0.96064808697E+02  0.91603505251E+02 0.  0.
         11    1    3    3    0    0  0.33242903403E+02 -0.93263741066E+01  0.20328543642E+02  0.40066464374E+02  0.51100000000E-03 0. -1.
         22    1    1    0    0    0  0.58571372062E+01  0.22171846958E+02  0.17645068489E+02  0.28935191303E+02  0.00000000000E+00 0. -1.
</event>
<event>
 5    1  0.3183396E-003  0.9118800E+02  0.7818608E-02  0.1130116E+00
         25   -1    0    0    0    0  0.00000000000E+00  0.00000000000E+00  0.99999998245E-14  0.12500000000E+03  0.12500000000E+03 0.  0.
        -11    1    3    3    0    0  0.28947798479E+02 -0.26966695135E+02  0.22455347217E+01  0.39626002949E+02  0.51100000000E-03 0. -1.
         23    2    1    0    0    0  0.13128510293E+02  0.26275238672E+02 -0.32912283491E+01  0.95443644781E+02  0.90751921166E+02 0.  0.
         11    1    3    3    0    0 -0.15819288186E+02  0.53241933807E+02 -0.55367630707E+01  0.55817641833E+02  0.51100000000E-03 0.  1.
         22    1    1    0    0    0 -0.13128510293E+02 -0.26275238672E+02  0.32912283491E+01  0.29556355219E+02  0.00000000000E+00 0.  1.
</event>
<event>
 5    1  0.3183396E-003  0.9118800E+02  0.7818608E-02  0.1130116E+00
         25   -1    0    0    0    0  0.00000000000E+00  0.00000000000E+00  0.99999998245E-14  0.12500000000E+03  0.12500000000E+03 0.  0.
        -11    1    3    3    0    0  0.26427446493E+01  0.72949948527E+01 -0.50458517114E+02  0.51051571952E+02  0.51100000000E-03 0. -1.
         23    2    1    0    0    0 -0.13119525139E+02  0.24138658278E+02 -0.14077731095E+02  0.94129637578E+02  0.88923615505E+02 0.  0.
         11    1    3    3    0    0 -0.15762269788E+02  0.16843663425E+02  0.36380786019E+02  0.43078065626E+02  0.51100000000E-03 0.  1.
         22    1    1    0    0    0  0.13119525139E+02 -0.24138658278E+02  0.14077731095E+02  0.30870362422E+02  0.00000000000E+00 0.  1.
</event>
<event>
 5    1  0.3183396E-003  0.9118800E+02  0.7818608E-02  0.1130116E+00
         25   -1    0    0    0    0  0.00000000000E+00  0.00000000000E+00  0.99999998245E-14  0.12500000000E+03  0.12500000000E+03 0.  0.
        -11    1    3    3    0    0  0.23832964852E+02 -0.20148057755E+02 -0.25321543288E+02  0.40188742202E+02  0.51100000000E-03 0. -1.
         23    2    1    0    0    0 -0.10482564944E+01 -0.94100293197E+01  0.25508230238E+02  0.97791227456E+02  0.93929797529E+02 0.  0.
         11    1    3    3    0    0 -0.24881221347E+02  0.10738028436E+02  0.50829773527E+02  0.57602485254E+02  0.51100000000E-03 0.  1.
         22    1    1    0    0    0  0.10482564944E+01  0.94100293197E+01 -0.25508230238E+02  0.27208772544E+02  0.00000000000E+00 0.  1.
</event>
<event>
 5    1  0.3183396E-003  0.9118800E+02  0.7818608E-02  0.1130116E+00
         25   -1    0    0    0    0  0.00000000000E+00  0.00000000000E+00  0.99999998245E-14  0.12500000000E+03  0.12500000000E+03 0.  0.
        -11    1    3    3    0    0 -0.12956780942E+02  0.23692831824E+02  0.26164471797E+02  0.37600638783E+02  0.51100000000E-03 0.  1.
         23    2    1    0    0    0 -0.57304297599E+01  0.53591453604E+01 -0.28358778788E+02  0.95575884064E+02  0.90933882663E+02 0.  0.
         11    1    3    3    0    0  0.72263511821E+01 -0.18333686463E+02 -0.54523250586E+02  0.57975245281E+02  0.51100000000E-03 0. -1.
         22    1    1    0    0    0  0.57304297599E+01 -0.53591453604E+01  0.28358778788E+02  0.29424115936E+02  0.00000000000E+00 0. -1.
</event>
<event>
 5    1  0.3183396E-003  0.9118800E+02  0.7818608E-02  0.1130116E+00
         25   -1    0    0    0    0  0.00000000000E+00  0.00000000000E+00  0.99999998245E-14  0.12500000000E+03  0.12500000000E+03 0.  0.
        -11    1    3    3    0    0  0.60901425605E+01  0.25271963618E+02  0.42707855111E+02  0.49997228623E+02  0.51100000000E-03 0.  1.
         23    2    1    0    0    0  0.10135469088E+01 -0.16240948127E+02  0.24447590083E+02  0.95631984502E+02  0.91010967062E+02 0.  0.
         11    1    3    3    0    0 -0.50765956517E+01 -0.41512911745E+02 -0.18260265028E+02  0.45634755879E+02  0.51100000000E-03 0. -1.
         22    1    1    0    0    0 -0.10135469088E+01  0.16240948127E+02 -0.24447590083E+02  0.29368015498E+02  0.00000000000E+00 0.  1.
</event>
<event>
 5    1  0.3183396E-003  0.9118800E+02  0.7818608E-02  0.1130116E+00
         25   -1    0    0    0    0  0.00000000000E+00  0.00000000000E+00  0.99999998245E-14  0.12500000000E+03  0.12500000000E+03 0.  0.
        -11    1    3    3    0    0  0.11180670820E+02 -0.15467855550E+02  0.27829088168E+02  0.33744927083E+02  0.51100000000E-03 0. -1.
         23    2    1    0    0    0 -0.14486030658E+02  0.16893305963E+02 -0.18678705297E+02  0.95946206751E+02  0.91441520590E+02 0.  0.
         11    1    3    3    0    0 -0.25666701478E+02  0.32361161512E+02 -0.46507793465E+02  0.62201279669E+02  0.51100000000E-03 0.  1.
         22    1    1    0    0    0  0.14486030658E+02 -0.16893305963E+02  0.18678705297E+02  0.29053793249E+02  0.00000000000E+00 0.  1.
</event>
<event>
 5    1  0.3183396E-003  0.9118800E+02  0.7818608E-02  0.1130116E+00
         25   -1    0    0    0    0  0.00000000000E+00  0.00000000000E+00  0.99999998245E-14  0.12500000000E+03  0.12500000000E+03 0.  0.
        -11    1    3    3    0    0  0.10062489289E+01  0.11486812033E+02  0.34969258165E+02  0.36821303677E+02  0.51100000000E-03 0. -1.
         23    2    1    0    0    0  0.22853075136E+02 -0.23642284564E+02 -0.16608162590E+01  0.92076164057E+02  0.85988609793E+02 0.  0.
         11    1    3    3    0    0  0.21846826207E+02 -0.35129096597E+02 -0.36630074424E+02  0.55254860380E+02  0.51100000000E-03 0.  1.
         22    1    1    0    0    0 -0.22853075136E+02  0.23642284564E+02  0.16608162590E+01  0.32923835943E+02  0.00000000000E+00 0.  1.
</event>
<event>
 5    1  0.3183396E-003  0.9118800E+02  0.7818608E-02  0.1130116E+00
         25   -1    0    0    0    0  0.00000000000E+00  0.00000000000E+00  0.99999998245E-14  0.12500000000E+03  0.12500000000E+03 0.  0.
        -11    1    3    3    0    0 -0.25242711744E+02 -0.86054910310E+01  0.22257774092E+02  0.34736975687E+02  0.51100000000E-03 0. -1.
         23    2    1    0    0    0  0.98068553987E+01 -0.53656886059E+01 -0.27286734179E+02  0.95512190838E+02  0.90846286163E+02 0.  0.
         11    1    3    3    0    0  0.35049567143E+02  0.32398024251E+01 -0.49544508271E+02  0.60775215151E+02  0.51100000000E-03 0.  1.
         22    1    1    0    0    0 -0.98068553987E+01  0.53656886059E+01  0.27286734179E+02  0.29487809162E+02  0.00000000000E+00 0.  1.
</event>
<event>
 5    1  0.3183396E-003  0.9118800E+02  0.7818608E-02  0.1130116E+00
         25   -1    0    0    0    0  0.00000000000E+00  0.00000000000E+00  0.99999998245E-14  0.12500000000E+03  0.12500000000E+03 0.  0.
        -11    1    3    3    0    0 -0.16630085209E+02 -0.29103902567E+02 -0.11980146841E+02  0.35596640253E+02  0.51100000000E-03 0.  1.
         23    2    1    0    0    0  0.60913287672E+00  0.27671698408E+02  0.39703016432E+01  0.97038289917E+02  0.92922400309E+02 0.  0.
         11    1    3    3    0    0  0.17239218086E+02  0.56775600975E+02  0.15950448484E+02  0.61441649664E+02  0.51100000000E-03 0. -1.
         22    1    1    0    0    0 -0.60913287672E+00 -0.27671698408E+02 -0.39703016432E+01  0.27961710083E+02  0.00000000000E+00 0. -1.
</event>
<event>
 5    1  0.3183396E-003  0.9118800E+02  0.7818608E-02  0.1130116E+00
         25   -1    0    0    0    0  0.00000000000E+00  0.00000000000E+00  0.99999998245E-14  0.12500000000E+03  0.12500000000E+03 0.  0.
        -11    1    3    3    0    0  0.34244658955E+02 -0.39170788581E+02  0.21643829158E+00  0.52029743328E+02  0.51100000000E-03 0. -1.
         23    2    1    0    0    0  0.34730511033E+01 -0.17113519240E+02 -0.22757094928E+02  0.96315160898E+02  0.91944495346E+02 0.  0.
         11    1    3    3    0    0 -0.30771607851E+02  0.22057269340E+02 -0.22973533220E+02  0.44285417570E+02  0.51100000000E-03 0.  1.
         22    1    1    0    0    0 -0.34730511033E+01  0.17113519240E+02  0.22757094928E+02  0.28684839102E+02  0.00000000000E+00 0. -1.
</event>
<event>
 5    1  0.3183396E-003  0.9118800E+02  0.7818608E-02  0.1130116E+00
         25   -1    0    0    0    0  0.00000000000E+00  0.00000000000E+00  0.99999998245E-14  0.12500000000E+03  0.12500000000E+03 0.  0.
        -11    1    3    3    0    0 -0.71910732670E+00  0.17492699575E+02 -0.29997082863E+02  0.34732357166E+02  0.51100000000E-03 0.  1.
         23    2    1    0    0    0  0.51297918279E+00  0.44415527248E+01  0.29248909346E+02  0.95411332639E+02  0.90707404107E+02 0.  0.
         11    1    3    3    0    0  0.12320865095E+01 -0.13051146850E+02  0.59245992210E+02  0.60678975473E+02  0.51100000000E-03 0. -1.
         22    1    1    0    0    0 -0.51297918279E+00 -0.44415527248E+01 -0.29248909346E+02  0.29588667361E+02  0.00000000000E+00 0. -1.
</event>
<event>
 5    1  0.3183396E-003  0.9118800E+02  0.7818608E-02  0.1130116E+00
         25   -1    0    0    0    0  0.00000000000E+00  0.00000000000E+00  0.99999998245E-14  0.12500000000E+03  0.12500000000E+03 0.  0.
        -11    1    3    3    0    0  0.15409538440E+01 -0.49040422715E+02 -0.75045476494E+01  0.49635227757E+02  0.51100000000E-03 0. -1.
         23    2    1    0    0    0 -0.14714700575E+02 -0.11144297092E+02 -0.24575395453E+02  0.94264550884E+02  0.89113061450E+02 0.  0.
         11    1    3    3    0    0 -0.16255654419E+02  0.37896125622E+02 -0.17070847804E+02  0.44629323127E+02  0.51100000000E-03 0.  1.
         22    1    1    0    0    0  0.14714700575E+02  0.11144297092E+02  0.24575395453E+02  0.30735449116E+02  0.00000000000E+00 0. -1.
</event>
<event>
 5    1  0.3183396E-003  0.9118800E+02  0.7818608E-02  0.1130116E+00
         25   -1    0    0    0    0  0.00000000000E+00  0.00000000000E+00  0.99999998245E-14  0.12500000000E+03  0.12500000000E+03 0.  0.
        -11    1    3    3    0    0 -0.58476038338E+02  0.11649518563E+01  0.67939142953E+01  0.58880908997E+02  0.51100000000E-03 0.  1.
         23    2    1    0    0    0 -0.23702220388E+02  0.49703864419E+01  0.17105436769E+02  0.95350447562E+02  0.90623462142E+02 0.  0.
         11    1    3    3    0    0  0.34773817950E+02  0.38054345856E+01  0.10311522473E+02  0.36469538565E+02  0.51100000000E-03 0. -1.
         22    1    1    0    0    0  0.23702220388E+02 -0.49703864419E+01 -0.17105436769E+02  0.29649552438E+02  0.00000000000E+00 0.  1.
</event>
<event>
 5    1  0.3183396E-003  0.9118800E+02  0.7818608E-02  0.1130116E+00
         25   -1    0    0    0    0  0.00000000000E+00  0.00000000000E+00  0.99999998245E-14  0.12500000000E+03  0.12500000000E+03 0.  0.
        -11    1    3    3    0    0  0.12888125016E+00  0.30145542917E+02  0.32309125061E+02  0.44188798701E+02  0.51100000000E-03 0.  1.
         23    2    1    0    0    0 -0.30228991761E+02 -0.39340750270E+00  0.76294094013E+01  0.93820606161E+02  0.88488143502E+02 0.  0.
         11    1    3    3    0    0 -0.30357873011E+02 -0.30538950420E+02 -0.24679715660E+02  0.49631807461E+02  0.51100000000E-03 0. -1.
         22    1    1    0    0    0  0.30228991761E+02  0.39340750270E+00 -0.76294094013E+01  0.31179393839E+02  0.00000000000E+00 0. -1.
</event>
<event>
 5    1  0.3183396E-003  0.9118800E+02  0.7818608E-02  0.1130116E+00
         25   -1    0    0    0    0  0.00000000000E+00  0.00000000000E+00  0.99999998245E-14  0.12500000000E+03  0.12500000000E+03 0.  0.
        -11    1    3    3    0    0  0.14573872759E+01 -0.22716711446E+02 -0.31958256124E+02  0.39236502027E+02  0.51100000000E-03 0. -1.
         23    2    1    0    0    0 -0.20426015469E+01  0.27894879061E+02 -0.17569419972E+02  0.91969998228E+02  0.85834139810E+02 0.  0.
         11    1    3    3    0    0 -0.34999888228E+01  0.50611590508E+02  0.14388836152E+02  0.52733496201E+02  0.51100000000E-03 0.  1.
         22    1    1    0    0    0  0.20426015469E+01 -0.27894879061E+02  0.17569419972E+02  0.33030001772E+02  0.00000000000E+00 0.  1.
</event>
<event>
 5    1  0.3183396E-003  0.9118800E+02  0.7818608E-02  0.1130116E+00
         25   -1    0    0    0    0  0.00000000000E+00  0.00000000000E+00  0.99999998245E-14  0.12500000000E+03  0.12500000000E+03 0.  0.
        -11    1    3    3    0    0 -0.14041430275E+02  0.57796569839E+02 -0.33054835869E+01  0.59569551545E+02  0.51100000000E-03 0.  1.
         23    2    1    0    0    0 -0.17226289870E+00  0.24387465699E+02 -0.13463749784E+02  0.97142313162E+02  0.93062228055E+02 0.  0.
         11    1    3    3    0    0  0.13869167376E+02 -0.33409104140E+02 -0.10158266197E+02  0.37572761617E+02  0.51100000000E-03 0. -1.
         22    1    1    0    0    0  0.17226289870E+00 -0.24387465699E+02  0.13463749784E+02  0.27857686838E+02  0.00000000000E+00 0.  1.
</event>
<event>
 5    1  0.3183396E-003  0.9118800E+02  0.7818608E-02  0.1130116E+00
         25   -1    0    0    0    0  0.00000000000E+00  0.00000000000E+00  0.99999998245E-14  0.12500000000E+03  0.12500000000E+03 0.  0.
        -11    1    3    3    0    0 -0.35626918471E+02  0.40136377415E+02  0.24584393207E+00  0.53668114847E+02  0.51100000000E-03 0. -1.
         23    2    1    0    0    0 -0.13321766817E+02  0.82195405373E+01  0.21790752990E+02  0.98169658339E+02  0.94432063330E+02 0.  0.
         11    1    3    3    0    0  0.22305151653E+02 -0.31916836878E+02  0.21544909058E+02  0.44501543492E+02  0.51100000000E-03 0.  1.
         22    1    1    0    0    0  0.13321766817E+02 -0.82195405373E+01 -0.21790752990E+02  0.26830341661E+02  0.00000000000E+00 0.  1.
</event>
<event>
 5    1  0.3183396E-003  0.9118800E+02  0.7818608E-02  0.1130116E+00
         25   -1    0    0    0    0  0.00000000000E+00  0.00000000000E+00  0.99999998245E-14  0.12500000000E+03  0.12500000000E+03 0.  0.
        -11    1    3    3    0    0 -0.17823039651E+02  0.43721348670E+01 -0.31102141234E+02  0.36112594691E+02  0.51100000000E-03 0.  1.
         23    2    1    0    0    0 -0.48801372946E+00 -0.16449282265E+02  0.23058283809E+02  0.96671542635E+02  0.92427732088E+02 0.  0.
         11    1    3    3    0    0  0.17335025921E+02 -0.20821417132E+02  0.54160425043E+02  0.60558947945E+02  0.51100000000E-03 0. -1.
         22    1    1    0    0    0  0.48801372946E+00  0.16449282265E+02 -0.23058283809E+02  0.28328457365E+02  0.00000000000E+00 0. -1.
</event>
<event>
 5    1  0.3183396E-003  0.9118800E+02  0.7818608E-02  0.1130116E+00
         25   -1    0    0    0    0  0.00000000000E+00  0.00000000000E+00  0.99999998245E-14  0.12500000000E+03  0.12500000000E+03 0.  0.
        -11    1    3    3    0    0 -0.73640056790E+01  0.14822559465E+02  0.23474490932E+02  0.28722614322E+02  0.51100000000E-03 0.  1.
         23    2    1    0    0    0  0.16501920474E+02 -0.18737332561E+02 -0.23165177531E+02  0.90940838811E+02  0.84322059408E+02 0.  0.
         11    1    3    3    0    0  0.23865926153E+02 -0.33559892026E+02 -0.46639668463E+02  0.62218224489E+02  0.51100000000E-03 0. -1.
         22    1    1    0    0    0 -0.16501920474E+02  0.18737332561E+02  0.23165177531E+02  0.34059161189E+02  0.00000000000E+00 0. -1.
</event>
<event>
 5    1  0.3183396E-003  0.9118800E+02  0.7818608E-02  0.1130116E+00
         25   -1    0    0    0    0  0.00000000000E+00  0.00000000000E+00  0.99999998245E-14  0.12500000000E+03  0.12500000000E+03 0.  0.
        -11    1    3    3    0    0 -0.19358721033E+02 -0.13052277036E+02  0.28766006758E+02  0.37048686359E+02  0.51100000000E-03 0. -1.
         23    2    1    0    0    0 -0.24129309223E+01  0.27681664007E+02 -0.96876484364E+01  0.95573017653E+02  0.90929942336E+02 0.  0.
         11    1    3    3    0    0  0.16945790111E+02  0.40733941043E+02 -0.38453655194E+02  0.58524331294E+02  0.51100000000E-03 0.  1.
         22    1    1    0    0    0  0.24129309223E+01 -0.27681664007E+02  0.96876484364E+01  0.29426982347E+02  0.00000000000E+00 0.  1.
</event>
<event>
 5    1  0.3183396E-003  0.9118800E+02  0.7818608E-02  0.1130116E+00
         25   -1    0    0    0    0  0.00000000000E+00  0.00000000000E+00  0.99999998245E-14  0.12500000000E+03  0.12500000000E+03 0.  0.
        -11    1    3    3    0    0  0.63384681307E+01 -0.42758721719E+02  0.22787434295E+02  0.48864625480E+02  0.51100000000E-03 0.  1.
         23    2    1    0    0    0  0.31479366847E+02 -0.26601334432E+02  0.20849280982E+02  0.78812620250E+02  0.63860434250E+02 0.  0.
         11    1    3    3    0    0  0.25140898717E+02  0.16157387287E+02 -0.19381533137E+01  0.29947994770E+02  0.51100000000E-03 0. -1.
         22    1    1    0    0    0 -0.31479366847E+02  0.26601334432E+02 -0.20849280982E+02  0.46187379750E+02  0.00000000000E+00 0.  1.
</event>
<event>
 5    1  0.3183396E-003  0.9118800E+02  0.7818608E-02  0.1130116E+00
         25   -1    0    0    0    0  0.00000000000E+00  0.00000000000E+00  0.99999998245E-14  0.12500000000E+03  0.12500000000E+03 0.  0.
        -11    1    3    3    0    0 -0.16855271448E+02 -0.25272023964E+02  0.24065685058E+02  0.38754774781E+02  0.51100000000E-03 0. -1.
         23    2    1    0    0    0 -0.31804453158E+02  0.86750191101E+01 -0.11443097771E+02  0.90104102192E+02  0.83072411473E+02 0.  0.
         11    1    3    3    0    0 -0.14949181710E+02  0.33947043074E+02 -0.35508782829E+02  0.51349327411E+02  0.51100000000E-03 0.  1.
         22    1    1    0    0    0  0.31804453158E+02 -0.86750191101E+01  0.11443097771E+02  0.34895897808E+02  0.00000000000E+00 0. -1.
</event>
<event>
 5    1  0.3183396E-003  0.9118800E+02  0.7818608E-02  0.1130116E+00
         25   -1    0    0    0    0  0.00000000000E+00  0.00000000000E+00  0.99999998245E-14  0.12500000000E+03  0.12500000000E+03 0.  0.
        -11    1    3    3    0    0 -0.85598674458E+01 -0.31768393393E+02 -0.13990198414E+02  0.35752311832E+02  0.51100000000E-03 0.  1.
         23    2    1    0    0    0  0.42146367855E+01  0.27286048590E+02 -0.65039756750E+01  0.96634645948E+02  0.92377819237E+02 0.  0.
         11    1    3    3    0    0  0.12774504231E+02  0.59054441983E+02  0.74862227389E+01  0.60882334116E+02  0.51100000000E-03 0. -1.
         22    1    1    0    0    0 -0.42146367855E+01 -0.27286048590E+02  0.65039756750E+01  0.28365354052E+02  0.00000000000E+00 0. -1.
</event>
<event>
 5    1  0.3183396E-003  0.9118800E+02  0.7818608E-02  0.1130116E+00
         25   -1    0    0    0    0  0.00000000000E+00  0.00000000000E+00  0.99999998245E-14  0.12500000000E+03  0.12500000000E+03 0.  0.
        -11    1    3    3    0    0 -0.38033213868E+02  0.24366830777E+02  0.42368816084E+02  0.61930480184E+02  0.51100000000E-03 0.  1.
         23    2    1    0    0    0 -0.13407712451E+02  0.10103566598E+02  0.23665488881E+02  0.95984414961E+02  0.91493736071E+02 0.  0.
         11    1    3    3    0    0  0.24625501417E+02 -0.14263264179E+02 -0.18703327203E+02  0.34053934777E+02  0.51100000000E-03 0. -1.
         22    1    1    0    0    0  0.13407712451E+02 -0.10103566598E+02 -0.23665488881E+02  0.29015585039E+02  0.00000000000E+00 0.  1.
</event>
<event>
 5    1  0.3183396E-003  0.9118800E+02  0.7818608E-02  0.1130116E+00
         25   -1    0    0    0    0  0.00000000000E+00  0.00000000000E+00  0.99999998245E-14  0.12500000000E+03  0.12500000000E+03 0.  0.
        -11    1    3    3    0    0  0.30913084923E+02 -0.29950315119E+02 -0.18321383156E+02  0.46779410815E+02  0.51100000000E-03 0.  1.
         23    2    1    0    0    0  0.25984222906E+01 -0.23344333043E+02  0.19490959928E+02  0.94477758887E+02  0.89411630797E+02 0.  0.
         11    1    3    3    0    0 -0.28314662632E+02  0.66059820757E+01  0.37812343083E+02  0.47698348073E+02  0.51100000000E-03 0. -1.
         22    1    1    0    0    0 -0.25984222906E+01  0.23344333043E+02 -0.19490959928E+02  0.30522241113E+02  0.00000000000E+00 0. -1.
</event>
<event>
 5    1  0.3183396E-003  0.9118800E+02  0.7818608E-02  0.1130116E+00
         25   -1    0    0    0    0  0.00000000000E+00  0.00000000000E+00  0.99999998245E-14  0.12500000000E+03  0.12500000000E+03 0.  0.
        -11    1    3    3    0    0 -0.52775263382E+00 -0.40036298283E+02 -0.21652208889E+02  0.45519247062E+02  0.51100000000E-03 0. -1.
         23    2    1    0    0    0 -0.58984331904E+01  0.92199341225E+01 -0.27490992820E+02  0.95410248640E+02  0.90705910282E+02 0.  0.
         11    1    3    3    0    0 -0.53706805566E+01  0.49256232405E+02 -0.58387839311E+01  0.49891001578E+02  0.51100000000E-03 0.  1.
         22    1    1    0    0    0  0.58984331904E+01 -0.92199341225E+01  0.27490992820E+02  0.29589751360E+02  0.00000000000E+00 0.  1.
</event>
<event>
 5    1  0.3183396E-003  0.9118800E+02  0.7818608E-02  0.1130116E+00
         25   -1    0    0    0    0  0.00000000000E+00  0.00000000000E+00  0.99999998245E-14  0.12500000000E+03  0.12500000000E+03 0.  0.
        -11    1    3    3    0    0 -0.32637153707E+02  0.15303633072E+02  0.22048897656E+02  0.42255637203E+02  0.51100000000E-03 0. -1.
         23    2    1    0    0    0  0.14326740480E+02  0.25241378021E+02 -0.19238127515E+01  0.95912481840E+02  0.91395407215E+02 0.  0.
         11    1    3    3    0    0  0.46963894187E+02  0.99377449485E+01 -0.23972710407E+02  0.53656844637E+02  0.51100000000E-03 0.  1.
         22    1    1    0    0    0 -0.14326740480E+02 -0.25241378021E+02  0.19238127515E+01  0.29087518160E+02  0.00000000000E+00 0.  1.
</event>
<event>
 5    1  0.3183396E-003  0.9118800E+02  0.7818608E-02  0.1130116E+00
         25   -1    0    0    0    0  0.00000000000E+00  0.00000000000E+00  0.99999998245E-14  0.12500000000E+03  0.12500000000E+03 0.  0.
        -11    1    3    3    0    0 -0.13003919928E+02 -0.20584204072E+02  0.21591057624E+02  0.32542052184E+02  0.51100000000E-03 0. -1.
         23    2    1    0    0    0 -0.52505092069E+00  0.27614937473E+02 -0.14280283639E+02  0.93906802176E+02  0.88609821939E+02 0.  0.
         11    1    3    3    0    0  0.12478869007E+02  0.48199141545E+02 -0.35871341263E+02  0.61364749992E+02  0.51100000000E-03 0.  1.
         22    1    1    0    0    0  0.52505092069E+00 -0.27614937473E+02  0.14280283639E+02  0.31093197824E+02  0.00000000000E+00 0.  1.
</event>
<event>
 5    1  0.3183396E-003  0.9118800E+02  0.7818608E-02  0.1130116E+00
         25   -1    0    0    0    0  0.00000000000E+00  0.00000000000E+00  0.99999998245E-14  0.12500000000E+03  0.12500000000E+03 0.  0.
        -11    1    3    3    0    0 -0.72599270254E+01 -0.47171333068E+02  0.22216290957E+02  0.52644133462E+02  0.51100000000E-03 0. -1.
         23    2    1    0    0    0 -0.91667404163E+01 -0.23260830583E+02 -0.14197541838E+02  0.96248207647E+02  0.91853426239E+02 0.  0.
         11    1    3    3    0    0 -0.19068133909E+01  0.23910502486E+02 -0.36413832795E+02  0.43604074185E+02  0.51100000000E-03 0.  1.
         22    1    1    0    0    0  0.91667404163E+01  0.23260830583E+02  0.14197541838E+02  0.28751792353E+02  0.00000000000E+00 0. -1.
</event>
<event>
 5    1  0.3183396E-003  0.9118800E+02  0.7818608E-02  0.1130116E+00
         25   -1    0    0    0    0  0.00000000000E+00  0.00000000000E+00  0.99999998245E-14  0.12500000000E+03  0.12500000000E+03 0.  0.
        -11    1    3    3    0    0  0.21269432811E+02 -0.30346954130E+02  0.37332601764E+02  0.52602752322E+02  0.51100000000E-03 0. -1.
         23    2    1    0    0    0  0.11257640768E+02  0.13198452557E+02  0.10553560906E+02  0.10469455065E+03  0.10270656095E+03 0.  0.
         11    1    3    3    0    0 -0.10011792044E+02  0.43545406687E+02 -0.26779040858E+02  0.52091798327E+02  0.51100000000E-03 0.  1.
         22    1    1    0    0    0 -0.11257640768E+02 -0.13198452557E+02 -0.10553560906E+02  0.20305449351E+02  0.00000000000E+00 0.  1.
</event>
<event>
 5    1  0.3183396E-003  0.9118800E+02  0.7818608E-02  0.1130116E+00
         25   -1    0    0    0    0  0.00000000000E+00  0.00000000000E+00  0.99999998245E-14  0.12500000000E+03  0.12500000000E+03 0.  0.
        -11    1    3    3    0    0  0.26266312998E+02  0.31657607393E+02 -0.14926403957E+02  0.43759808498E+02  0.51100000000E-03 0. -1.
         23    2    1    0    0    0 -0.69151816661E+00 -0.39886361782E+01 -0.32842306123E+02  0.91909147980E+02  0.85745477985E+02 0.  0.
         11    1    3    3    0    0 -0.26957831165E+02 -0.35646243572E+02 -0.17915902166E+02  0.48149339482E+02  0.51100000000E-03 0.  1.
         22    1    1    0    0    0  0.69151816661E+00  0.39886361782E+01  0.32842306123E+02  0.33090852020E+02  0.00000000000E+00 0.  1.
</event>
<event>
 5    1  0.3183396E-003  0.9118800E+02  0.7818608E-02  0.1130116E+00
         25   -1    0    0    0    0  0.00000000000E+00  0.00000000000E+00  0.99999998245E-14  0.12500000000E+03  0.12500000000E+03 0.  0.
        -11    1    3    3    0    0 -0.13850684310E+02  0.37232850677E+02 -0.43103266216E+02  0.58617558667E+02  0.51100000000E-03 0.  1.
         23    2    1    0    0    0  0.40375608434E+01  0.26243146667E+02 -0.12694873641E+02  0.95569327883E+02  0.90924869924E+02 0.  0.
         11    1    3    3    0    0  0.17888245153E+02 -0.10989704011E+02  0.30408392575E+02  0.36951769215E+02  0.51100000000E-03 0. -1.
         22    1    1    0    0    0 -0.40375608434E+01 -0.26243146667E+02  0.12694873641E+02  0.29430672117E+02  0.00000000000E+00 0.  1.
</event>
<event>
 5    1  0.3183396E-003  0.9118800E+02  0.7818608E-02  0.1130116E+00
         25   -1    0    0    0    0  0.00000000000E+00  0.00000000000E+00  0.99999998245E-14  0.12500000000E+03  0.12500000000E+03 0.  0.
        -11    1    3    3    0    0  0.18176903445E+01 -0.34749875530E+02  0.31278549834E+02  0.46788946638E+02  0.51100000000E-03 0.  1.
         23    2    1    0    0    0  0.27287571130E+02  0.14804528172E+01  0.13613448621E+02  0.94469207968E+02  0.89399675570E+02 0.  0.
         11    1    3    3    0    0  0.25469880786E+02  0.36230328347E+02 -0.17665101214E+02  0.47680261330E+02  0.51100000000E-03 0. -1.
         22    1    1    0    0    0 -0.27287571130E+02 -0.14804528172E+01 -0.13613448621E+02  0.30530792032E+02  0.00000000000E+00 0.  1.
</event>
<event>
 5    1  0.3183396E-003  0.9118800E+02  0.7818608E-02  0.1130116E+00
         25   -1    0    0    0    0  0.00000000000E+00  0.00000000000E+00  0.99999998245E-14  0.12500000000E+03  0.12500000000E+03 0.  0.
        -11    1    3    3    0    0 -0.41966234058E+02 -0.19978809849E+02  0.34200393005E+02  0.57706018109E+02  0.51100000000E-03 0.  1.
         23    2    1    0    0    0 -0.12470562668E+02  0.21227421577E+01  0.26892310917E+02  0.95281027037E+02  0.90527657427E+02 0.  0.
         11    1    3    3    0    0  0.29495671390E+02  0.22101552007E+02 -0.73080820884E+01  0.37575008928E+02  0.51100000000E-03 0. -1.
         22    1    1    0    0    0  0.12470562668E+02 -0.21227421577E+01 -0.26892310917E+02  0.29718972963E+02  0.00000000000E+00 0.  1.
</event>
<event>
 5    1  0.3183396E-003  0.9118800E+02  0.7818608E-02  0.1130116E+00
         25   -1    0    0    0    0  0.00000000000E+00  0.00000000000E+00  0.99999998245E-14  0.12500000000E+03  0.12500000000E+03 0.  0.
        -11    1    3    3    0    0  0.35115592011E+02 -0.62849493543E+01 -0.42969075842E+02  0.55847532351E+02  0.51100000000E-03 0. -1.
         23    2    1    0    0    0  0.14471676843E+02  0.17402280663E+02 -0.20355162572E+02  0.94559871120E+02  0.89526352433E+02 0.  0.
         11    1    3    3    0    0 -0.20643915168E+02  0.23687230017E+02  0.22613913270E+02  0.38712338769E+02  0.51100000000E-03 0.  1.
         22    1    1    0    0    0 -0.14471676843E+02 -0.17402280663E+02  0.20355162572E+02  0.30440128880E+02  0.00000000000E+00 0. -1.
</event>
<event>
 5    1  0.3183396E-003  0.9118800E+02  0.7818608E-02  0.1130116E+00
         25   -1    0    0    0    0  0.00000000000E+00  0.00000000000E+00  0.99999998245E-14  0.12500000000E+03  0.12500000000E+03 0.  0.
        -11    1    3    3    0    0  0.20626228965E+02  0.46637421042E+02 -0.26779741719E+02  0.57599001116E+02  0.51100000000E-03 0.  1.
         23    2    1    0    0    0  0.22964695818E+02  0.29604105193E+02 -0.23672105212E+01  0.87458236803E+02  0.78990880490E+02 0.  0.
         11    1    3    3    0    0  0.23384668532E+01 -0.17033315849E+02  0.24412531197E+02  0.29859235686E+02  0.51100000000E-03 0. -1.
         22    1    1    0    0    0 -0.22964695818E+02 -0.29604105193E+02  0.23672105212E+01  0.37541763197E+02  0.00000000000E+00 0.  1.
</event>
<event>
 5    1  0.3183396E-003  0.9118800E+02  0.7818608E-02  0.1130116E+00
         25   -1    0    0    0    0  0.00000000000E+00  0.00000000000E+00  0.99999998245E-14  0.12500000000E+03  0.12500000000E+03 0.  0.
        -11    1    3    3    0    0 -0.18545190789E+02  0.33232303690E+02 -0.34651730287E+02  0.51468947164E+02  0.51100000000E-03 0.  1.
         23    2    1    0    0    0 -0.34920522461E+01  0.27188286058E+02  0.74554610461E+01  0.96592584998E+02  0.92320887396E+02 0.  0.
         11    1    3    3    0    0  0.15053138543E+02 -0.60440176319E+01  0.42107191334E+02  0.45123637834E+02  0.51100000000E-03 0. -1.
         22    1    1    0    0    0  0.34920522461E+01 -0.27188286058E+02 -0.74554610461E+01  0.28407415002E+02  0.00000000000E+00 0.  1.
</event>
<event>
 5    1  0.3183396E-003  0.9118800E+02  0.7818608E-02  0.1130116E+00
         25   -1    0    0    0    0  0.00000000000E+00  0.00000000000E+00  0.99999998245E-14  0.12500000000E+03  0.12500000000E+03 0.  0.
        -11    1    3    3    0    0  0.52960507648E+02 -0.27625008739E+02  0.15181831157E+02  0.61631521770E+02  0.51100000000E-03 0.  1.
         23    2    1    0    0    0  0.22378716222E+02 -0.11237036734E+02  0.13918156332E+02  0.96350514665E+02  0.91992546797E+02 0.  0.
         11    1    3    3    0    0 -0.30581791427E+02  0.16387972005E+02 -0.12636748247E+01  0.34718992895E+02  0.51100000000E-03 0. -1.
         22    1    1    0    0    0 -0.22378716222E+02  0.11237036734E+02 -0.13918156332E+02  0.28649485335E+02  0.00000000000E+00 0.  1.
</event>
<event>
 5    1  0.3183396E-003  0.9118800E+02  0.7818608E-02  0.1130116E+00
         25   -1    0    0    0    0  0.00000000000E+00  0.00000000000E+00  0.99999998245E-14  0.12500000000E+03  0.12500000000E+03 0.  0.
        -11    1    3    3    0    0 -0.52657996447E+02  0.25744450486E+01  0.17402555225E+02  0.55518837215E+02  0.51100000000E-03 0.  1.
         23    2    1    0    0    0 -0.15631001644E+02  0.18190596967E+02  0.16815689927E+02  0.95708474636E+02  0.91115962702E+02 0.  0.
         11    1    3    3    0    0  0.37026994803E+02  0.15616151919E+02 -0.58686529773E+00  0.40189637421E+02  0.51100000000E-03 0. -1.
         22    1    1    0    0    0  0.15631001644E+02 -0.18190596967E+02 -0.16815689927E+02  0.29291525364E+02  0.00000000000E+00 0.  1.
</event>
<event>
 5    1  0.3183396E-003  0.9118800E+02  0.7818608E-02  0.1130116E+00
         25   -1    0    0    0    0  0.00000000000E+00  0.00000000000E+00  0.99999998245E-14  0.12500000000E+03  0.12500000000E+03 0.  0.
        -11    1    3    3    0    0 -0.37492029790E+02  0.68078654986E+01  0.23020269582E+02  0.44518896463E+02  0.51100000000E-03 0.  1.
         23    2    1    0    0    0 -0.14431286670E+02 -0.20073497141E+02 -0.14680985233E+02  0.96246936688E+02  0.91851696620E+02 0.  0.
         11    1    3    3    0    0  0.23060743120E+02 -0.26881362639E+02 -0.37701254815E+02  0.51728040225E+02  0.51100000000E-03 0. -1.
         22    1    1    0    0    0  0.14431286670E+02  0.20073497141E+02  0.14680985233E+02  0.28753063312E+02  0.00000000000E+00 0. -1.
</event>
<event>
 5    1  0.3183396E-003  0.9118800E+02  0.7818608E-02  0.1130116E+00
         25   -1    0    0    0    0  0.00000000000E+00  0.00000000000E+00  0.99999998245E-14  0.12500000000E+03  0.12500000000E+03 0.  0.
        -11    1    3    3    0    0 -0.49979067354E+02  0.26794056853E+02  0.21494609656E+02  0.60645254561E+02  0.51100000000E-03 0.  1.
         23    2    1    0    0    0 -0.19249226788E+02  0.17001588573E+02  0.19114149713E+02  0.92985355457E+02  0.87300279864E+02 0.  0.
         11    1    3    3    0    0  0.30729840565E+02 -0.97924682806E+01 -0.23804599429E+01  0.32340100896E+02  0.51100000000E-03 0. -1.
         22    1    1    0    0    0  0.19249226788E+02 -0.17001588573E+02 -0.19114149713E+02  0.32014644543E+02  0.00000000000E+00 0.  1.
</event>
<event>
 5    1  0.3183396E-003  0.9118800E+02  0.7818608E-02  0.1130116E+00
         25   -1    0    0    0    0  0.00000000000E+00  0.00000000000E+00  0.99999998245E-14  0.12500000000E+03  0.12500000000E+03 0.  0.
        -11    1    3    3    0    0 -0.54024264489E+02  0.17331808164E+02  0.18315074277E+02  0.59619247512E+02  0.51100000000E-03 0.  1.
         23    2    1    0    0    0 -0.21338145774E+02  0.61117916539E+00  0.19119448205E+02  0.96342657055E+02  0.91981869212E+02 0.  0.
         11    1    3    3    0    0  0.32686118715E+02 -0.16720628998E+02  0.80437392787E+00  0.36723409543E+02  0.51100000000E-03 0. -1.
         22    1    1    0    0    0  0.21338145774E+02 -0.61117916539E+00 -0.19119448205E+02  0.28657342945E+02  0.00000000000E+00 0.  1.
</event>
<event>
 5    1  0.3183396E-003  0.9118800E+02  0.7818608E-02  0.1130116E+00
         25   -1    0    0    0    0  0.00000000000E+00  0.00000000000E+00  0.99999998245E-14  0.12500000000E+03  0.12500000000E+03 0.  0.
        -11    1    3    3    0    0 -0.44655623416E+02 -0.27348945281E+02 -0.18644969321E+02  0.55585289348E+02  0.51100000000E-03 0. -1.
         23    2    1    0    0    0 -0.30150021030E+02  0.53907189587E+01 -0.47028258942E+01  0.94012902840E+02  0.88759369703E+02 0.  0.
         11    1    3    3    0    0  0.14505602386E+02  0.32739664240E+02  0.13942143427E+02  0.38427613492E+02  0.51100000000E-03 0.  1.
         22    1    1    0    0    0  0.30150021030E+02 -0.53907189587E+01  0.47028258942E+01  0.30987097160E+02  0.00000000000E+00 0. -1.
</event>
<event>
 5    1  0.3183396E-003  0.9118800E+02  0.7818608E-02  0.1130116E+00
         25   -1    0    0    0    0  0.00000000000E+00  0.00000000000E+00  0.99999998245E-14  0.12500000000E+03  0.12500000000E+03 0.  0.
        -11    1    3    3    0    0  0.27698715781E+02 -0.11742273179E+02  0.27182727934E+02  0.40546276445E+02  0.51100000000E-03 0. -1.
         23    2    1    0    0    0  0.71713083221E+01  0.30650133631E+02  0.33186681709E+01  0.93347639692E+02  0.87817480737E+02 0.  0.
         11    1    3    3    0    0 -0.20527407459E+02  0.42392406810E+02 -0.23864059763E+02  0.52801363247E+02  0.51100000000E-03 0.  1.
         22    1    1    0    0    0 -0.71713083221E+01 -0.30650133631E+02 -0.33186681709E+01  0.31652360308E+02  0.00000000000E+00 0.  1.
</event>
<event>
 5    1  0.3183396E-003  0.9118800E+02  0.7818608E-02  0.1130116E+00
         25   -1    0    0    0    0  0.00000000000E+00  0.00000000000E+00  0.99999998245E-14  0.12500000000E+03  0.12500000000E+03 0.  0.
        -11    1    3    3    0    0 -0.51112902475E+02  0.40023413805E+01  0.17989416361E+02  0.54333844307E+02  0.51100000000E-03 0.  1.
         23    2    1    0    0    0 -0.20132154139E+02 -0.19176601854E+02 -0.44466129882E+00  0.97192745324E+02  0.93129943256E+02 0.  0.
         11    1    3    3    0    0  0.30980748335E+02 -0.23178943234E+02 -0.18434077660E+02  0.42858901016E+02  0.51100000000E-03 0. -1.
         22    1    1    0    0    0  0.20132154139E+02  0.19176601854E+02  0.44466129882E+00  0.27807254676E+02  0.00000000000E+00 0.  1.
</event>
<event>
 5    1  0.3183396E-003  0.9118800E+02  0.7818608E-02  0.1130116E+00
         25   -1    0    0    0    0  0.00000000000E+00  0.00000000000E+00  0.99999998245E-14  0.12500000000E+03  0.12500000000E+03 0.  0.
        -11    1    3    3    0    0 -0.41215194687E+02  0.16265815828E+02 -0.43428728085E+02  0.62042916284E+02  0.51100000000E-03 0.  1.
         23    2    1    0    0    0 -0.17619007537E+02  0.36159987794E+01 -0.23438818923E+02  0.95455404788E+02  0.90768117734E+02 0.  0.
         11    1    3    3    0    0  0.23596187150E+02 -0.12649817049E+02  0.19989909162E+02  0.33412488503E+02  0.51100000000E-03 0. -1.
         22    1    1    0    0    0  0.17619007537E+02 -0.36159987794E+01  0.23438818923E+02  0.29544595212E+02  0.00000000000E+00 0.  1.
</event>
<event>
 5    1  0.3183396E-003  0.9118800E+02  0.7818608E-02  0.1130116E+00
         25   -1    0    0    0    0  0.00000000000E+00  0.00000000000E+00  0.99999998245E-14  0.12500000000E+03  0.12500000000E+03 0.  0.
        -11    1    3    3    0    0  0.31087186707E+02  0.67600146803E+01  0.18293781268E+02  0.36698411535E+02  0.51100000000E-03 0. -1.
         23    2    1    0    0    0 -0.23393195963E+02 -0.13659229511E+02  0.12495616898E+02  0.95167859449E+02  0.90371261263E+02 0.  0.
         11    1    3    3    0    0 -0.54480382669E+02 -0.20419244191E+02 -0.57981643701E+01  0.58469447915E+02  0.51100000000E-03 0.  1.
         22    1    1    0    0    0  0.23393195963E+02  0.13659229511E+02 -0.12495616898E+02  0.29832140551E+02  0.00000000000E+00 0.  1.
</event>
<event>
 5    1  0.3183396E-003  0.9118800E+02  0.7818608E-02  0.1130116E+00
         25   -1    0    0    0    0  0.00000000000E+00  0.00000000000E+00  0.99999998245E-14  0.12500000000E+03  0.12500000000E+03 0.  0.
        -11    1    3    3    0    0  0.27722742997E+02 -0.20624361806E+02  0.20265621446E+02  0.40057585949E+02  0.51100000000E-03 0.  1.
         23    2    1    0    0    0 -0.42513084097E+01  0.14717315967E+02 -0.18134103704E+02  0.10126145056E+03  0.98439639573E+02 0.  0.
         11    1    3    3    0    0 -0.31974051407E+02  0.35341677774E+02 -0.38399725150E+02  0.61203864609E+02  0.51100000000E-03 0. -1.
         22    1    1    0    0    0  0.42513084097E+01 -0.14717315967E+02  0.18134103704E+02  0.23738549443E+02  0.00000000000E+00 0. -1.
</event>
<event>
 5    1  0.3183396E-003  0.9118800E+02  0.7818608E-02  0.1130116E+00
         25   -1    0    0    0    0  0.00000000000E+00  0.00000000000E+00  0.99999998245E-14  0.12500000000E+03  0.12500000000E+03 0.  0.
        -11    1    3    3    0    0 -0.37763448324E+02  0.39377506488E+02 -0.29064756232E+02  0.61817684376E+02  0.51100000000E-03 0.  1.
         23    2    1    0    0    0 -0.14260608331E+02  0.23227069591E+02 -0.10798221587E+02  0.95683395470E+02  0.91081550643E+02 0.  0.
         11    1    3    3    0    0  0.23502839993E+02 -0.16150436897E+02  0.18266534645E+02  0.33865711094E+02  0.51100000000E-03 0. -1.
         22    1    1    0    0    0  0.14260608331E+02 -0.23227069591E+02  0.10798221587E+02  0.29316604530E+02  0.00000000000E+00 0.  1.
</event>
<event>
 5    1  0.3183396E-003  0.9118800E+02  0.7818608E-02  0.1130116E+00
         25   -1    0    0    0    0  0.00000000000E+00  0.00000000000E+00  0.99999998245E-14  0.12500000000E+03  0.12500000000E+03 0.  0.
        -11    1    3    3    0    0  0.13229660045E+02 -0.17732389849E+01  0.35630512786E+02  0.38048675707E+02  0.51100000000E-03 0. -1.
         23    2    1    0    0    0 -0.28868575136E+02  0.73428718476E+01 -0.18616692716E+01  0.95154092243E+02  0.90352216690E+02 0.  0.
         11    1    3    3    0    0 -0.42098235181E+02  0.91161108324E+01 -0.37492182057E+02  0.57105416536E+02  0.51100000000E-03 0.  1.
         22    1    1    0    0    0  0.28868575136E+02 -0.73428718476E+01  0.18616692716E+01  0.29845907757E+02  0.00000000000E+00 0.  1.
</event>
<event>
 5    1  0.3183396E-003  0.9118800E+02  0.7818608E-02  0.1130116E+00
         25   -1    0    0    0    0  0.00000000000E+00  0.00000000000E+00  0.99999998245E-14  0.12500000000E+03  0.12500000000E+03 0.  0.
        -11    1    3    3    0    0 -0.24525525911E+00 -0.43154027615E+02  0.30202171173E+02  0.52673535986E+02  0.51100000000E-03 0.  1.
         23    2    1    0    0    0 -0.22413045389E+02 -0.87235809801E+01  0.16413092703E+02  0.95882392255E+02  0.91354244913E+02 0.  0.
         11    1    3    3    0    0 -0.22167790130E+02  0.34430446634E+02 -0.13789078470E+02  0.43208856268E+02  0.51100000000E-03 0. -1.
         22    1    1    0    0    0  0.22413045389E+02  0.87235809801E+01 -0.16413092703E+02  0.29117607745E+02  0.00000000000E+00 0.  1.
</event>
<event>
 5    1  0.3183396E-003  0.9118800E+02  0.7818608E-02  0.1130116E+00
         25   -1    0    0    0    0  0.00000000000E+00  0.00000000000E+00  0.99999998245E-14  0.12500000000E+03  0.12500000000E+03 0.  0.
        -11    1    3    3    0    0 -0.47960020930E+02 -0.11233615699E+02 -0.22489512273E+01  0.49309385630E+02  0.51100000000E-03 0. -1.
         23    2    1    0    0    0 -0.33713339701E+01 -0.26893073966E+02  0.58904382850E+01  0.97263731626E+02  0.93225173138E+02 0.  0.
         11    1    3    3    0    0  0.44588686960E+02 -0.15659458267E+02  0.81393895123E+01  0.47954345996E+02  0.51100000000E-03 0.  1.
         22    1    1    0    0    0  0.33713339701E+01  0.26893073966E+02 -0.58904382850E+01  0.27736268374E+02  0.00000000000E+00 0. -1.
</event>
<event>
 5    1  0.3183396E-003  0.9118800E+02  0.7818608E-02  0.1130116E+00
         25   -1    0    0    0    0  0.00000000000E+00  0.00000000000E+00  0.99999998245E-14  0.12500000000E+03  0.12500000000E+03 0.  0.
        -11    1    3    3    0    0 -0.36401622669E+02 -0.19801052475E+02 -0.33577474921E+01  0.41574442637E+02  0.51100000000E-03 0.  1.
         23    2    1    0    0    0  0.20319495161E+02 -0.16078025865E+02  0.35928991199E+01  0.98840991544E+02  0.95316566692E+02 0.  0.
         11    1    3    3    0    0  0.56721117831E+02  0.37230266101E+01  0.69506466121E+01  0.57266548907E+02  0.51100000000E-03 0. -1.
         22    1    1    0    0    0 -0.20319495161E+02  0.16078025865E+02 -0.35928991199E+01  0.26159008456E+02  0.00000000000E+00 0. -1.
</event>
<event>
 5    1  0.3183396E-003  0.9118800E+02  0.7818608E-02  0.1130116E+00
         25   -1    0    0    0    0  0.00000000000E+00  0.00000000000E+00  0.99999998245E-14  0.12500000000E+03  0.12500000000E+03 0.  0.
        -11    1    3    3    0    0 -0.36139304131E+02 -0.14784558392E+01  0.76647751103E+01  0.36972745537E+02  0.51100000000E-03 0. -1.
         23    2    1    0    0    0  0.23708930195E+02  0.42540974564E+01  0.13516900127E+02  0.97379042284E+02  0.93379658229E+02 0.  0.
         11    1    3    3    0    0  0.59848234326E+02  0.57325532956E+01  0.58521250164E+01  0.60406296747E+02  0.51100000000E-03 0.  1.
         22    1    1    0    0    0 -0.23708930195E+02 -0.42540974564E+01 -0.13516900127E+02  0.27620957716E+02  0.00000000000E+00 0.  1.
</event>
<event>
 5    1  0.3183396E-003  0.9118800E+02  0.7818608E-02  0.1130116E+00
         25   -1    0    0    0    0  0.00000000000E+00  0.00000000000E+00  0.99999998245E-14  0.12500000000E+03  0.12500000000E+03 0.  0.
        -11    1    3    3    0    0 -0.20221372678E+02 -0.17739377617E+02 -0.19759532388E+02  0.33377066253E+02  0.51100000000E-03 0.  1.
         23    2    1    0    0    0  0.14873583655E+02  0.11783378941E+02  0.22379785832E+02  0.95658453963E+02  0.91047314572E+02 0.  0.
         11    1    3    3    0    0  0.35094956333E+02  0.29522756557E+02  0.42139318219E+02  0.62281387709E+02  0.51100000000E-03 0. -1.
         22    1    1    0    0    0 -0.14873583655E+02 -0.11783378941E+02 -0.22379785832E+02  0.29341546037E+02  0.00000000000E+00 0. -1.
</event>
<event>
 5    1  0.3183396E-003  0.9118800E+02  0.7818608E-02  0.1130116E+00
         25   -1    0    0    0    0  0.00000000000E+00  0.00000000000E+00  0.99999998245E-14  0.12500000000E+03  0.12500000000E+03 0.  0.
        -11    1    3    3    0    0 -0.93524974511E+01  0.51241059068E+02  0.46818022284E+01  0.52297558407E+02  0.51100000000E-03 0. -1.
         23    2    1    0    0    0  0.57167916120E+01  0.19324919649E+02  0.24894838718E+02  0.92970525753E+02  0.87279043523E+02 0.  0.
         11    1    3    3    0    0  0.15069289063E+02 -0.31916139420E+02  0.20213036489E+02  0.40672967346E+02  0.51100000000E-03 0.  1.
         22    1    1    0    0    0 -0.57167916120E+01 -0.19324919649E+02 -0.24894838718E+02  0.32029474247E+02  0.00000000000E+00 0. -1.
</event>
<event>
 5    1  0.3183396E-003  0.9118800E+02  0.7818608E-02  0.1130116E+00
         25   -1    0    0    0    0  0.00000000000E+00  0.00000000000E+00  0.99999998245E-14  0.12500000000E+03  0.12500000000E+03 0.  0.
        -11    1    3    3    0    0  0.22247280629E+02 -0.33908383703E+02 -0.13950084979E+02  0.42887350721E+02  0.51100000000E-03 0. -1.
         23    2    1    0    0    0 -0.21444880957E+02 -0.46331192461E+01 -0.19336089599E+02  0.95755631752E+02  0.91180633569E+02 0.  0.
         11    1    3    3    0    0 -0.43692161587E+02  0.29275264456E+02 -0.53860046205E+01  0.52868281031E+02  0.51100000000E-03 0.  1.
         22    1    1    0    0    0  0.21444880957E+02  0.46331192461E+01  0.19336089599E+02  0.29244368248E+02  0.00000000000E+00 0.  1.
</event>
<event>
 5    1  0.3183396E-003  0.9118800E+02  0.7818608E-02  0.1130116E+00
         25   -1    0    0    0    0  0.00000000000E+00  0.00000000000E+00  0.99999998245E-14  0.12500000000E+03  0.12500000000E+03 0.  0.
        -11    1    3    3    0    0 -0.48624897013E+02 -0.49471645791E+01  0.18897740505E+01  0.48912434954E+02  0.51100000000E-03 0.  1.
         23    2    1    0    0    0 -0.15465799342E+02  0.25882909787E+02  0.55676694239E+01  0.94338706630E+02  0.89217019999E+02 0.  0.
         11    1    3    3    0    0  0.33159097671E+02  0.30830074366E+02  0.36778953733E+01  0.45426271676E+02  0.51100000000E-03 0. -1.
         22    1    1    0    0    0  0.15465799342E+02 -0.25882909787E+02 -0.55676694239E+01  0.30661293370E+02  0.00000000000E+00 0. -1.
</event>
<event>
 5    1  0.3183396E-003  0.9118800E+02  0.7818608E-02  0.1130116E+00
         25   -1    0    0    0    0  0.00000000000E+00  0.00000000000E+00  0.99999998245E-14  0.12500000000E+03  0.12500000000E+03 0.  0.
        -11    1    3    3    0    0  0.10130527161E+02 -0.31278664599E+02  0.23255276684E+02  0.40271458051E+02  0.51100000000E-03 0. -1.
         23    2    1    0    0    0  0.83068612492E+01 -0.68289292431E+01 -0.26862581032E+02  0.96064961066E+02  0.91603713170E+02 0.  0.
         11    1    3    3    0    0 -0.18236659123E+01  0.24449735356E+02 -0.50117857716E+02  0.55793503015E+02  0.51100000000E-03 0.  1.
         22    1    1    0    0    0 -0.83068612492E+01  0.68289292431E+01  0.26862581032E+02  0.28935038934E+02  0.00000000000E+00 0. -1.
</event>
<event>
 5    1  0.3183396E-003  0.9118800E+02  0.7818608E-02  0.1130116E+00
         25   -1    0    0    0    0  0.00000000000E+00  0.00000000000E+00  0.99999998245E-14  0.12500000000E+03  0.12500000000E+03 0.  0.
        -11    1    3    3    0    0  0.26580956191E+02 -0.33413510506E+02  0.40233603651E+01  0.42885864166E+02  0.51100000000E-03 0. -1.
         23    2    1    0    0    0 -0.70156946852E+01 -0.94782063169E+01 -0.27680419165E+02  0.94912428279E+02  0.90017259844E+02 0.  0.
         11    1    3    3    0    0 -0.33596650876E+02  0.23935304189E+02 -0.31703779530E+02  0.52026564114E+02  0.51100000000E-03 0.  1.
         22    1    1    0    0    0  0.70156946852E+01  0.94782063169E+01  0.27680419165E+02  0.30087571721E+02  0.00000000000E+00 0.  1.
</event>
<event>
 5    1  0.3183396E-003  0.9118800E+02  0.7818608E-02  0.1130116E+00
         25   -1    0    0    0    0  0.00000000000E+00  0.00000000000E+00  0.99999998245E-14  0.12500000000E+03  0.12500000000E+03 0.  0.
        -11    1    3    3    0    0 -0.49589829399E+01 -0.31656111968E+02 -0.32723951759E+02  0.45799104311E+02  0.51100000000E-03 0.  1.
         23    2    1    0    0    0  0.13037826056E+01 -0.24849781152E+02  0.16014999787E+02  0.95407911690E+02  0.90702689720E+02 0.  0.
         11    1    3    3    0    0  0.62627655455E+01  0.68063308152E+01  0.48738951546E+02  0.49608807378E+02  0.51100000000E-03 0. -1.
         22    1    1    0    0    0 -0.13037826056E+01  0.24849781152E+02 -0.16014999787E+02  0.29592088310E+02  0.00000000000E+00 0.  1.
</event>
<event>
 5    1  0.3183396E-003  0.9118800E+02  0.7818608E-02  0.1130116E+00
         25   -1    0    0    0    0  0.00000000000E+00  0.00000000000E+00  0.99999998245E-14  0.12500000000E+03  0.12500000000E+03 0.  0.
        -11    1    3    3    0    0 -0.11761480847E+01  0.51080161756E+01  0.35378532088E+02  0.35764726848E+02  0.51100000000E-03 0.  1.
         23    2    1    0    0    0 -0.20670044088E+02 -0.79988546296E+01 -0.19512473498E+02  0.95470878442E+02  0.90789424552E+02 0.  0.
         11    1    3    3    0    0 -0.19493896003E+02 -0.13106870805E+02 -0.54891005586E+02  0.59706151594E+02  0.51100000000E-03 0. -1.
         22    1    1    0    0    0  0.20670044088E+02  0.79988546296E+01  0.19512473498E+02  0.29529121558E+02  0.00000000000E+00 0. -1.
</event>
<event>
 5    1  0.3183396E-003  0.9118800E+02  0.7818608E-02  0.1130116E+00
         25   -1    0    0    0    0  0.00000000000E+00  0.00000000000E+00  0.99999998245E-14  0.12500000000E+03  0.12500000000E+03 0.  0.
        -11    1    3    3    0    0 -0.19109270152E+02  0.10988913043E+02 -0.25650547998E+02  0.33821162436E+02  0.51100000000E-03 0.  1.
         23    2    1    0    0    0  0.28840114329E+02 -0.11906509706E+02 -0.21480196375E+02  0.87119714835E+02  0.78453353712E+02 0.  0.
         11    1    3    3    0    0  0.47949384481E+02 -0.22895422749E+02  0.41703516229E+01  0.53298552399E+02  0.51100000000E-03 0. -1.
         22    1    1    0    0    0 -0.28840114329E+02  0.11906509706E+02  0.21480196375E+02  0.37880285165E+02  0.00000000000E+00 0. -1.
</event>
<event>
 5    1  0.3183396E-003  0.9118800E+02  0.7818608E-02  0.1130116E+00
         25   -1    0    0    0    0  0.00000000000E+00  0.00000000000E+00  0.99999998245E-14  0.12500000000E+03  0.12500000000E+03 0.  0.
        -11    1    3    3    0    0  0.59799205517E+02 -0.10857266931E+01  0.15108393547E+02  0.61687821640E+02  0.51100000000E-03 0.  1.
         23    2    1    0    0    0  0.22998554883E+02  0.32131214834E+01  0.11978486936E+02  0.98870671160E+02  0.95355481174E+02 0.  0.
         11    1    3    3    0    0 -0.36800650634E+02  0.42988481765E+01 -0.31299066107E+01  0.37182849520E+02  0.51100000000E-03 0. -1.
         22    1    1    0    0    0 -0.22998554883E+02 -0.32131214834E+01 -0.11978486936E+02  0.26129328840E+02  0.00000000000E+00 0.  1.
</event>
<event>
 5    1  0.3183396E-003  0.9118800E+02  0.7818608E-02  0.1130116E+00
         25   -1    0    0    0    0  0.00000000000E+00  0.00000000000E+00  0.99999998245E-14  0.12500000000E+03  0.12500000000E+03 0.  0.
        -11    1    3    3    0    0 -0.34145719287E+02 -0.13976070317E+02 -0.12938058338E+02  0.39098005588E+02  0.51100000000E-03 0. -1.
         23    2    1    0    0    0  0.80185292627E+01 -0.35319593924E+02 -0.13465452520E+02  0.86359490971E+02  0.77232588605E+02 0.  0.
         11    1    3    3    0    0  0.42164248550E+02 -0.21343523607E+02 -0.52739418201E+00  0.47261485383E+02  0.51100000000E-03 0.  1.
         22    1    1    0    0    0 -0.80185292627E+01  0.35319593924E+02  0.13465452520E+02  0.38640509029E+02  0.00000000000E+00 0.  1.
</event>
<event>
 5    1  0.3183396E-003  0.9118800E+02  0.7818608E-02  0.1130116E+00
         25   -1    0    0    0    0  0.00000000000E+00  0.00000000000E+00  0.99999998245E-14  0.12500000000E+03  0.12500000000E+03 0.  0.
        -11    1    3    3    0    0 -0.17017598507E+02  0.25739713994E+01 -0.43238822965E+02  0.46538369109E+02  0.51100000000E-03 0.  1.
         23    2    1    0    0    0  0.21820382575E+02 -0.98746045593E+01 -0.21797429970E+02  0.92615360675E+02  0.86768889406E+02 0.  0.
         11    1    3    3    0    0  0.38837981082E+02 -0.12448575959E+02  0.21441392995E+02  0.46076991566E+02  0.51100000000E-03 0. -1.
         22    1    1    0    0    0 -0.21820382575E+02  0.98746045593E+01  0.21797429970E+02  0.32384639325E+02  0.00000000000E+00 0. -1.
</event>
<event>
 5    1  0.3183396E-003  0.9118800E+02  0.7818608E-02  0.1130116E+00
         25   -1    0    0    0    0  0.00000000000E+00  0.00000000000E+00  0.99999998245E-14  0.12500000000E+03  0.12500000000E+03 0.  0.
        -11    1    3    3    0    0  0.15753164153E+02 -0.16433940973E+02  0.52417873158E+02  0.57147791063E+02  0.51100000000E-03 0.  1.
         23    2    1    0    0    0  0.49751089443E+01  0.10393010278E+02  0.27002452950E+02  0.95641886352E+02  0.91024565849E+02 0.  0.
         11    1    3    3    0    0 -0.10778055208E+02  0.26826951251E+02 -0.25415420208E+02  0.38494095289E+02  0.51100000000E-03 0. -1.
         22    1    1    0    0    0 -0.49751089443E+01 -0.10393010278E+02 -0.27002452950E+02  0.29358113648E+02  0.00000000000E+00 0.  1.
</event>
<event>
 5    1  0.3183396E-003  0.9118800E+02  0.7818608E-02  0.1130116E+00
         25   -1    0    0    0    0  0.00000000000E+00  0.00000000000E+00  0.99999998245E-14  0.12500000000E+03  0.12500000000E+03 0.  0.
        -11    1    3    3    0    0 -0.17420964093E+01 -0.10243074272E+02  0.48300164429E+02  0.49405074178E+02  0.51100000000E-03 0. -1.
         23    2    1    0    0    0  0.20069312081E+02 -0.20098171333E+02  0.93935240760E+01  0.95084250421E+02  0.90255540579E+02 0.  0.
         11    1    3    3    0    0  0.21811408491E+02 -0.98550970607E+01 -0.38906640353E+02  0.45679176243E+02  0.51100000000E-03 0.  1.
         22    1    1    0    0    0 -0.20069312081E+02  0.20098171333E+02 -0.93935240760E+01  0.29915749579E+02  0.00000000000E+00 0.  1.
</event>
<event>
 5    1  0.3183396E-003  0.9118800E+02  0.7818608E-02  0.1130116E+00
         25   -1    0    0    0    0  0.00000000000E+00  0.00000000000E+00  0.99999998245E-14  0.12500000000E+03  0.12500000000E+03 0.  0.
        -11    1    3    3    0    0  0.31172823150E+02 -0.10499940443E+02 -0.14224335351E+02  0.35837485527E+02  0.51100000000E-03 0.  1.
         23    2    1    0    0    0 -0.33451775490E+01 -0.21297787529E+02  0.26850062731E+02  0.90565833318E+02  0.83764302238E+02 0.  0.
         11    1    3    3    0    0 -0.34518000699E+02 -0.10797847085E+02  0.41074398082E+02  0.54728347791E+02  0.51100000000E-03 0. -1.
         22    1    1    0    0    0  0.33451775490E+01  0.21297787529E+02 -0.26850062731E+02  0.34434166682E+02  0.00000000000E+00 0. -1.
</event>
<event>
 5    1  0.3183396E-003  0.9118800E+02  0.7818608E-02  0.1130116E+00
         25   -1    0    0    0    0  0.00000000000E+00  0.00000000000E+00  0.99999998245E-14  0.12500000000E+03  0.12500000000E+03 0.  0.
        -11    1    3    3    0    0  0.10595046162E+02 -0.22245720789E+00  0.21884975601E+02  0.24315769528E+02  0.51100000000E-03 0.  1.
         23    2    1    0    0    0  0.15236969019E+02  0.26152021702E+01 -0.37754485151E+02  0.84202871960E+02  0.73659473185E+02 0.  0.
         11    1    3    3    0    0  0.46419228568E+01  0.28376593781E+01 -0.59639460753E+02  0.59887102432E+02  0.51100000000E-03 0. -1.
         22    1    1    0    0    0 -0.15236969019E+02 -0.26152021702E+01  0.37754485151E+02  0.40797128040E+02  0.00000000000E+00 0. -1.
</event>
<event>
 5    1  0.3183396E-003  0.9118800E+02  0.7818608E-02  0.1130116E+00
         25   -1    0    0    0    0  0.00000000000E+00  0.00000000000E+00  0.99999998245E-14  0.12500000000E+03  0.12500000000E+03 0.  0.
        -11    1    3    3    0    0  0.37673568360E+02  0.88031100407E+01 -0.45854523913E+02  0.59995248669E+02  0.51100000000E-03 0. -1.
         23    2    1    0    0    0  0.11263587320E+02  0.14082095149E+02 -0.25565750216E+02  0.93714517948E+02  0.88338154198E+02 0.  0.
         11    1    3    3    0    0 -0.26409981040E+02  0.52789851087E+01  0.20288773697E+02  0.33719269279E+02  0.51100000000E-03 0.  1.
         22    1    1    0    0    0 -0.11263587320E+02 -0.14082095149E+02  0.25565750216E+02  0.31285482052E+02  0.00000000000E+00 0. -1.
</event>
<event>
 5    1  0.3183396E-003  0.9118800E+02  0.7818608E-02  0.1130116E+00
         25   -1    0    0    0    0  0.00000000000E+00  0.00000000000E+00  0.99999998245E-14  0.12500000000E+03  0.12500000000E+03 0.  0.
        -11    1    3    3    0    0 -0.35402955126E+02 -0.91037163020E+01  0.16883733646E+01  0.36593680971E+02  0.51100000000E-03 0.  1.
         23    2    1    0    0    0  0.22008662726E+02 -0.19795943746E+02  0.44904458873E+01  0.95059647163E+02  0.90221459702E+02 0.  0.
         11    1    3    3    0    0  0.57411617851E+02 -0.10692227444E+02  0.28020725227E+01  0.58465966192E+02  0.51100000000E-03 0. -1.
         22    1    1    0    0    0 -0.22008662726E+02  0.19795943746E+02 -0.44904458873E+01  0.29940352837E+02  0.00000000000E+00 0. -1.
</event>
<event>
 5    1  0.3183396E-003  0.9118800E+02  0.7818608E-02  0.1130116E+00
         25   -1    0    0    0    0  0.00000000000E+00  0.00000000000E+00  0.99999998245E-14  0.12500000000E+03  0.12500000000E+03 0.  0.
        -11    1    3    3    0    0  0.52169720049E+02  0.65479027123E+00  0.22130976262E+02  0.56673526015E+02  0.51100000000E-03 0.  1.
         23    2    1    0    0    0  0.27698167205E+02  0.13203465926E+02 -0.33100263884E+01  0.94137785989E+02  0.88935068996E+02 0.  0.
         11    1    3    3    0    0 -0.24471552845E+02  0.12548675655E+02 -0.25441002651E+02  0.37464259975E+02  0.51100000000E-03 0. -1.
         22    1    1    0    0    0 -0.27698167205E+02 -0.13203465926E+02  0.33100263884E+01  0.30862214011E+02  0.00000000000E+00 0.  1.
</event>
<event>
 5    1  0.3183396E-003  0.9118800E+02  0.7818608E-02  0.1130116E+00
         25   -1    0    0    0    0  0.00000000000E+00  0.00000000000E+00  0.99999998245E-14  0.12500000000E+03  0.12500000000E+03 0.  0.
        -11    1    3    3    0    0  0.14034340201E+01  0.36444564922E+02  0.31894565640E+02  0.48450379328E+02  0.51100000000E-03 0.  1.
         23    2    1    0    0    0 -0.47049540694E+01 -0.10666695110E+02  0.26234192517E+02  0.96292024900E+02  0.91913036208E+02 0.  0.
         11    1    3    3    0    0 -0.61083880896E+01 -0.47111260032E+02 -0.56603731228E+01  0.47841645572E+02  0.51100000000E-03 0. -1.
         22    1    1    0    0    0  0.47049540694E+01  0.10666695110E+02 -0.26234192517E+02  0.28707975100E+02  0.00000000000E+00 0. -1.
</event>
<event>
 5    1  0.3183396E-003  0.9118800E+02  0.7818608E-02  0.1130116E+00
         25   -1    0    0    0    0  0.00000000000E+00  0.00000000000E+00  0.99999998245E-14  0.12500000000E+03  0.12500000000E+03 0.  0.
        -11    1    3    3    0    0 -0.26237567543E+02 -0.16414632843E+02  0.33335324196E+02  0.45487294506E+02  0.51100000000E-03 0.  1.
         23    2    1    0    0    0  0.21962866327E+02 -0.67880978804E+01  0.92913119852E+01  0.10020535847E+03  0.97089338332E+02 0.  0.
         11    1    3    3    0    0  0.48200433870E+02  0.96265349628E+01 -0.24044012211E+02  0.54718063965E+02  0.51100000000E-03 0. -1.
         22    1    1    0    0    0 -0.21962866327E+02  0.67880978804E+01 -0.92913119852E+01  0.24794641529E+02  0.00000000000E+00 0. -1.
</event>
<event>
 5    1  0.3183396E-003  0.9118800E+02  0.7818608E-02  0.1130116E+00
         25   -1    0    0    0    0  0.00000000000E+00  0.00000000000E+00  0.99999998245E-14  0.12500000000E+03  0.12500000000E+03 0.  0.
        -11    1    3    3    0    0 -0.57710028488E+02 -0.13329403320E+02  0.14850240945E+02  0.61062673028E+02  0.51100000000E-03 0.  1.
         23    2    1    0    0    0 -0.29269179076E+02 -0.12155648108E+01 -0.76430713755E+00  0.95695621369E+02  0.91098327878E+02 0.  0.
         11    1    3    3    0    0  0.28440849412E+02  0.12113838509E+02 -0.15614548083E+02  0.34632948341E+02  0.51100000000E-03 0. -1.
         22    1    1    0    0    0  0.29269179076E+02  0.12155648108E+01  0.76430713755E+00  0.29304378631E+02  0.00000000000E+00 0.  1.
</event>
<event>
 5    1  0.3183396E-003  0.9118800E+02  0.7818608E-02  0.1130116E+00
         25   -1    0    0    0    0  0.00000000000E+00  0.00000000000E+00  0.99999998245E-14  0.12500000000E+03  0.12500000000E+03 0.  0.
        -11    1    3    3    0    0 -0.96286615777E+01 -0.27766111914E+02 -0.16912260727E+02  0.33907118098E+02  0.51100000000E-03 0. -1.
         23    2    1    0    0    0 -0.45816781267E+01  0.16809614368E+02  0.24484426284E+02  0.94949342102E+02  0.90068504625E+02 0.  0.
         11    1    3    3    0    0  0.50469834510E+01  0.44575726282E+02  0.41396687011E+02  0.61042224003E+02  0.51100000000E-03 0.  1.
         22    1    1    0    0    0  0.45816781267E+01 -0.16809614368E+02 -0.24484426284E+02  0.30050657898E+02  0.00000000000E+00 0.  1.
</event>
<event>
 5    1  0.3183396E-003  0.9118800E+02  0.7818608E-02  0.1130116E+00
         25   -1    0    0    0    0  0.00000000000E+00  0.00000000000E+00  0.99999998245E-14  0.12500000000E+03  0.12500000000E+03 0.  0.
        -11    1    3    3    0    0 -0.31897012503E+02  0.47428047286E+02  0.13707184582E+02  0.58776917114E+02  0.51100000000E-03 0. -1.
         23    2    1    0    0    0 -0.18442939726E+02  0.20055665458E+02 -0.84472230068E+01  0.96474093893E+02  0.92160313982E+02 0.  0.
         11    1    3    3    0    0  0.13454072777E+02 -0.27372381828E+02 -0.22154407589E+02  0.37697176779E+02  0.51100000000E-03 0.  1.
         22    1    1    0    0    0  0.18442939726E+02 -0.20055665458E+02  0.84472230068E+01  0.28525906107E+02  0.00000000000E+00 0. -1.
</event>
<event>
 5    1  0.3183396E-003  0.9118800E+02  0.7818608E-02  0.1130116E+00
         25   -1    0    0    0    0  0.00000000000E+00  0.00000000000E+00  0.99999998245E-14  0.12500000000E+03  0.12500000000E+03 0.  0.
        -11    1    3    3    0    0 -0.47437791233E+02 -0.23120917141E+02  0.20605401105E+01  0.52812561691E+02  0.51100000000E-03 0.  1.
         23    2    1    0    0    0 -0.12172530940E+02 -0.12465557384E+02  0.23735887232E+02  0.95555934841E+02  0.90906455823E+02 0.  0.
         11    1    3    3    0    0  0.35265260294E+02  0.10655359757E+02  0.21675347122E+02  0.42743373150E+02  0.51100000000E-03 0. -1.
         22    1    1    0    0    0  0.12172530940E+02  0.12465557384E+02 -0.23735887232E+02  0.29444065159E+02  0.00000000000E+00 0.  1.
</event>
<event>
 5    1  0.3183396E-003  0.9118800E+02  0.7818608E-02  0.1130116E+00
         25   -1    0    0    0    0  0.00000000000E+00  0.00000000000E+00  0.99999998245E-14  0.12500000000E+03  0.12500000000E+03 0.  0.
        -11    1    3    3    0    0  0.12595399505E+02  0.59361284248E+02  0.34994152550E+01  0.60783649640E+02  0.51100000000E-03 0.  1.
         23    2    1    0    0    0  0.79273645195E+01  0.26968071554E+02 -0.84873298915E+01  0.95637528029E+02  0.91018580561E+02 0.  0.
         11    1    3    3    0    0 -0.46680349858E+01 -0.32393212694E+02 -0.11986745146E+02  0.34853878389E+02  0.51100000000E-03 0. -1.
         22    1    1    0    0    0 -0.79273645195E+01 -0.26968071554E+02  0.84873298915E+01  0.29362471971E+02  0.00000000000E+00 0.  1.
</event>
<event>
 5    1  0.3183396E-003  0.9118800E+02  0.7818608E-02  0.1130116E+00
         25   -1    0    0    0    0  0.00000000000E+00  0.00000000000E+00  0.99999998245E-14  0.12500000000E+03  0.12500000000E+03 0.  0.
        -11    1    3    3    0    0 -0.16433554447E+02  0.50892965365E+01  0.31420279301E+02  0.35821733663E+02  0.51100000000E-03 0. -1.
         23    2    1    0    0    0  0.13776707462E+02  0.21512860917E+02 -0.16341806168E+02  0.94674177964E+02  0.89685809864E+02 0.  0.
         11    1    3    3    0    0  0.30210261909E+02  0.16423564381E+02 -0.47762085469E+02  0.58852444301E+02  0.51100000000E-03 0.  1.
         22    1    1    0    0    0 -0.13776707462E+02 -0.21512860917E+02  0.16341806168E+02  0.30325822036E+02  0.00000000000E+00 0.  1.
</event>
<event>
 5    1  0.3183396E-003  0.9118800E+02  0.7818608E-02  0.1130116E+00
         25   -1    0    0    0    0  0.00000000000E+00  0.00000000000E+00  0.99999998245E-14  0.12500000000E+03  0.12500000000E+03 0.  0.
        -11    1    3    3    0    0  0.44919554576E+02 -0.13027725097E+02 -0.11696094624E+02  0.48210855979E+02  0.51100000000E-03 0.  1.
         23    2    1    0    0    0  0.18704622428E+02  0.16603657546E+02  0.14904326388E+02  0.95884998898E+02  0.91357811514E+02 0.  0.
         11    1    3    3    0    0 -0.26214932148E+02  0.29631382643E+02  0.26600421012E+02  0.47674142919E+02  0.51100000000E-03 0. -1.
         22    1    1    0    0    0 -0.18704622428E+02 -0.16603657546E+02 -0.14904326388E+02  0.29115001102E+02  0.00000000000E+00 0.  1.
</event>
<event>
 5    1  0.3183396E-003  0.9118800E+02  0.7818608E-02  0.1130116E+00
         25   -1    0    0    0    0  0.00000000000E+00  0.00000000000E+00  0.99999998245E-14  0.12500000000E+03  0.12500000000E+03 0.  0.
        -11    1    3    3    0    0  0.63002747975E+01 -0.46036386410E+02 -0.36331320968E+02  0.58983109614E+02  0.51100000000E-03 0.  1.
         23    2    1    0    0    0  0.15232422393E+02 -0.19855980728E+02 -0.76485159591E+01  0.98831575152E+02  0.95304217053E+02 0.  0.
         11    1    3    3    0    0  0.89321475954E+01  0.26180405682E+02  0.28682805008E+02  0.39848465538E+02  0.51100000000E-03 0. -1.
         22    1    1    0    0    0 -0.15232422393E+02  0.19855980728E+02  0.76485159591E+01  0.26168424848E+02  0.00000000000E+00 0.  1.
</event>
<event>
 5    1  0.3183396E-003  0.9118800E+02  0.7818608E-02  0.1130116E+00
         25   -1    0    0    0    0  0.00000000000E+00  0.00000000000E+00  0.99999998245E-14  0.12500000000E+03  0.12500000000E+03 0.  0.
        -11    1    3    3    0    0  0.31119903258E+02  0.18629356377E+02 -0.50629872794E+02  0.62280697790E+02  0.51100000000E-03 0.  1.
         23    2    1    0    0    0  0.12661410700E+02  0.86205149897E+01 -0.27515006848E+02  0.93508728171E+02  0.88046476606E+02 0.  0.
         11    1    3    3    0    0 -0.18458492558E+02 -0.10008841388E+02  0.23114865947E+02  0.31228030380E+02  0.51100000000E-03 0. -1.
         22    1    1    0    0    0 -0.12661410700E+02 -0.86205149897E+01  0.27515006848E+02  0.31491271829E+02  0.00000000000E+00 0.  1.
</event>
<event>
 5    1  0.3183396E-003  0.9118800E+02  0.7818608E-02  0.1130116E+00
         25   -1    0    0    0    0  0.00000000000E+00  0.00000000000E+00  0.99999998245E-14  0.12500000000E+03  0.12500000000E+03 0.  0.
        -11    1    3    3    0    0 -0.18815589110E+02  0.22612706338E+02 -0.27179241800E+02  0.40050868487E+02  0.51100000000E-03 0. -1.
         23    2    1    0    0    0 -0.17651108565E+02 -0.25047390364E+02 -0.12220378871E+01  0.94333621437E+02  0.89209894962E+02 0.  0.
         11    1    3    3    0    0  0.11644805456E+01 -0.47660096702E+02  0.25957203913E+02  0.54282752950E+02  0.51100000000E-03 0.  1.
         22    1    1    0    0    0  0.17651108565E+02  0.25047390364E+02  0.12220378871E+01  0.30666378563E+02  0.00000000000E+00 0.  1.
</event>
<event>
 5    1  0.3183396E-003  0.9118800E+02  0.7818608E-02  0.1130116E+00
         25   -1    0    0    0    0  0.00000000000E+00  0.00000000000E+00  0.99999998245E-14  0.12500000000E+03  0.12500000000E+03 0.  0.
        -11    1    3    3    0    0  0.51231321152E+02 -0.20610690830E+02  0.27771783343E+02  0.61811979371E+02  0.51100000000E-03 0.  1.
         23    2    1    0    0    0  0.29680110838E+02 -0.72052574053E+01  0.97519677109E+01  0.92938721363E+02  0.87233481764E+02 0.  0.
         11    1    3    3    0    0 -0.21551210315E+02  0.13405433425E+02 -0.18019815632E+02  0.31126741991E+02  0.51100000000E-03 0. -1.
         22    1    1    0    0    0 -0.29680110838E+02  0.72052574053E+01 -0.97519677109E+01  0.32061278637E+02  0.00000000000E+00 0.  1.
</event>
<event>
 5    1  0.3183396E-003  0.9118800E+02  0.7818608E-02  0.1130116E+00
         25   -1    0    0    0    0  0.00000000000E+00  0.00000000000E+00  0.99999998245E-14  0.12500000000E+03  0.12500000000E+03 0.  0.
        -11    1    3    3    0    0 -0.24511280905E+02 -0.38574389008E+02 -0.38368710991E+02  0.59673648810E+02  0.51100000000E-03 0.  1.
         23    2    1    0    0    0 -0.16996644267E+02 -0.67771509814E+01 -0.22506958346E+02  0.95993468567E+02  0.91506104396E+02 0.  0.
         11    1    3    3    0    0  0.75146366386E+01  0.31797238027E+02  0.15861752645E+02  0.36319819757E+02  0.51100000000E-03 0. -1.
         22    1    1    0    0    0  0.16996644267E+02  0.67771509814E+01  0.22506958346E+02  0.29006531433E+02  0.00000000000E+00 0.  1.
</event>
<event>
 5    1  0.3183396E-003  0.9118800E+02  0.7818608E-02  0.1130116E+00
         25   -1    0    0    0    0  0.00000000000E+00  0.00000000000E+00  0.99999998245E-14  0.12500000000E+03  0.12500000000E+03 0.  0.
        -11    1    3    3    0    0  0.10391243974E+02  0.47551164955E+02 -0.20622865648E+02  0.52862026330E+02  0.51100000000E-03 0.  1.
         23    2    1    0    0    0  0.28346746716E+02  0.20587223102E+02 -0.27554859865E+01  0.89857938201E+02  0.82701176233E+02 0.  0.
         11    1    3    3    0    0  0.17955502742E+02 -0.26963941853E+02  0.17867379661E+02  0.36995911872E+02  0.51100000000E-03 0. -1.
         22    1    1    0    0    0 -0.28346746716E+02 -0.20587223102E+02  0.27554859865E+01  0.35142061799E+02  0.00000000000E+00 0.  1.
</event>
<event>
 5    1  0.3183396E-003  0.9118800E+02  0.7818608E-02  0.1130116E+00
         25   -1    0    0    0    0  0.00000000000E+00  0.00000000000E+00  0.99999998245E-14  0.12500000000E+03  0.12500000000E+03 0.  0.
        -11    1    3    3    0    0 -0.42328612750E+02 -0.17431038231E+02  0.41201468259E+02  0.61588258119E+02  0.51100000000E-03 0. -1.
         23    2    1    0    0    0 -0.23380776098E+02 -0.12401068320E+02  0.14172336381E+02  0.94978302764E+02  0.90108688210E+02 0.  0.
         11    1    3    3    0    0  0.18947836652E+02  0.50299699111E+01 -0.27029131877E+02  0.33390044645E+02  0.51100000000E-03 0.  1.
         22    1    1    0    0    0  0.23380776098E+02  0.12401068320E+02 -0.14172336381E+02  0.30021697236E+02  0.00000000000E+00 0. -1.
</event>
<event>
 5    1  0.3183396E-003  0.9118800E+02  0.7818608E-02  0.1130116E+00
         25   -1    0    0    0    0  0.00000000000E+00  0.00000000000E+00  0.99999998245E-14  0.12500000000E+03  0.12500000000E+03 0.  0.
        -11    1    3    3    0    0  0.13807983749E+01 -0.39041523134E+02  0.44453992669E+02  0.59180272027E+02  0.51100000000E-03 0.  1.
         23    2    1    0    0    0 -0.10071270214E+01 -0.27577714452E+02  0.98715861560E+01  0.95691420156E+02  0.91092563028E+02 0.  0.
         11    1    3    3    0    0 -0.23879253963E+01  0.11463808682E+02 -0.34582406513E+02  0.36511148129E+02  0.51100000000E-03 0. -1.
         22    1    1    0    0    0  0.10071270214E+01  0.27577714452E+02 -0.98715861560E+01  0.29308579844E+02  0.00000000000E+00 0.  1.
</event>
<event>
 5    1  0.3183396E-003  0.9118800E+02  0.7818608E-02  0.1130116E+00
         25   -1    0    0    0    0  0.00000000000E+00  0.00000000000E+00  0.99999998245E-14  0.12500000000E+03  0.12500000000E+03 0.  0.
        -11    1    3    3    0    0 -0.19038903337E+02 -0.57086450394E+02  0.30841622373E+01  0.60256574047E+02  0.51100000000E-03 0.  1.
         23    2    1    0    0    0 -0.81151024140E+01 -0.28851313308E+02  0.13303140379E+02  0.92209350255E+02  0.86182002551E+02 0.  0.
         11    1    3    3    0    0  0.10923800923E+02  0.28235137086E+02  0.10218978142E+02  0.31952776208E+02  0.51100000000E-03 0. -1.
         22    1    1    0    0    0  0.81151024140E+01  0.28851313308E+02 -0.13303140379E+02  0.32790649745E+02  0.00000000000E+00 0.  1.
</event>
<event>
 5    1  0.3183396E-003  0.9118800E+02  0.7818608E-02  0.1130116E+00
         25   -1    0    0    0    0  0.00000000000E+00  0.00000000000E+00  0.99999998245E-14  0.12500000000E+03  0.12500000000E+03 0.  0.
        -11    1    3    3    0    0  0.13905950628E+02 -0.53247260518E+02 -0.17390728781E+02  0.57715540917E+02  0.51100000000E-03 0.  1.
         23    2    1    0    0    0  0.34833009055E+01 -0.17368062436E+02 -0.23497339365E+02  0.95573686347E+02  0.90930861574E+02 0.  0.
         11    1    3    3    0    0 -0.10422649723E+02  0.35879198082E+02 -0.61066105839E+01  0.37858145429E+02  0.51100000000E-03 0. -1.
         22    1    1    0    0    0 -0.34833009055E+01  0.17368062436E+02  0.23497339365E+02  0.29426313653E+02  0.00000000000E+00 0.  1.
</event>
<event>
 5    1  0.3183396E-003  0.9118800E+02  0.7818608E-02  0.1130116E+00
         25   -1    0    0    0    0  0.00000000000E+00  0.00000000000E+00  0.99999998245E-14  0.12500000000E+03  0.12500000000E+03 0.  0.
        -11    1    3    3    0    0 -0.42657839436E+02  0.12618265845E+01  0.27148096116E+02  0.50579665822E+02  0.51100000000E-03 0.  1.
         23    2    1    0    0    0 -0.80751500211E+00 -0.14068247507E+02  0.26306202721E+02  0.95157346465E+02  0.90356718712E+02 0.  0.
         11    1    3    3    0    0  0.41850324433E+02 -0.15330074091E+02 -0.84189339489E+00  0.44577680644E+02  0.51100000000E-03 0. -1.
         22    1    1    0    0    0  0.80751500211E+00  0.14068247507E+02 -0.26306202721E+02  0.29842653535E+02  0.00000000000E+00 0.  1.
</event>
<event>
 5    1  0.3183396E-003  0.9118800E+02  0.7818608E-02  0.1130116E+00
         25   -1    0    0    0    0  0.00000000000E+00  0.00000000000E+00  0.99999998245E-14  0.12500000000E+03  0.12500000000E+03 0.  0.
        -11    1    3    3    0    0 -0.70305652415E+01 -0.30462730906E+02  0.12853165715E+02  0.33802524920E+02  0.51100000000E-03 0.  1.
         23    2    1    0    0    0 -0.43714560396E+01  0.28331006512E+02 -0.62139871858E+01  0.95667949362E+02  0.91060349991E+02 0.  0.
         11    1    3    3    0    0  0.26591092019E+01  0.58793737418E+02 -0.19067152901E+02  0.61865424441E+02  0.51100000000E-03 0. -1.
         22    1    1    0    0    0  0.43714560396E+01 -0.28331006512E+02  0.62139871858E+01  0.29332050638E+02  0.00000000000E+00 0. -1.
</event>
<event>
 5    1  0.3183396E-003  0.9118800E+02  0.7818608E-02  0.1130116E+00
         25   -1    0    0    0    0  0.00000000000E+00  0.00000000000E+00  0.99999998245E-14  0.12500000000E+03  0.12500000000E+03 0.  0.
        -11    1    3    3    0    0  0.21935447908E+02 -0.87353001392E+01 -0.29295374895E+02  0.37625634001E+02  0.51100000000E-03 0.  1.
         23    2    1    0    0    0 -0.23826210369E+02  0.42379513634E+01  0.94962151192E+01  0.99003334177E+02  0.95529228743E+02 0.  0.
         11    1    3    3    0    0 -0.45761658277E+02  0.12973251503E+02  0.38791590015E+02  0.61377700176E+02  0.51100000000E-03 0. -1.
         22    1    1    0    0    0  0.23826210369E+02 -0.42379513634E+01 -0.94962151192E+01  0.25996665823E+02  0.00000000000E+00 0. -1.
</event>
<event>
 5    1  0.3183396E-003  0.9118800E+02  0.7818608E-02  0.1130116E+00
         25   -1    0    0    0    0  0.00000000000E+00  0.00000000000E+00  0.99999998245E-14  0.12500000000E+03  0.12500000000E+03 0.  0.
        -11    1    3    3    0    0  0.71464308994E+01 -0.30048496941E+02 -0.18673675564E+02  0.36092794327E+02  0.51100000000E-03 0. -1.
         23    2    1    0    0    0  0.18108370597E+02  0.24828356490E+02 -0.97437715729E+01  0.92761801289E+02  0.86979597160E+02 0.  0.
         11    1    3    3    0    0  0.10961939698E+02  0.54876853431E+02  0.89299039907E+01  0.56669006962E+02  0.51100000000E-03 0.  1.
         22    1    1    0    0    0 -0.18108370597E+02 -0.24828356490E+02  0.97437715729E+01  0.32238198711E+02  0.00000000000E+00 0.  1.
</event>
<event>
 5    1  0.3183396E-003  0.9118800E+02  0.7818608E-02  0.1130116E+00
         25   -1    0    0    0    0  0.00000000000E+00  0.00000000000E+00  0.99999998245E-14  0.12500000000E+03  0.12500000000E+03 0.  0.
        -11    1    3    3    0    0  0.10340217693E+01 -0.33076070441E+02  0.10197947122E+02  0.34627933271E+02  0.51100000000E-03 0. -1.
         23    2    1    0    0    0  0.11244447605E+02  0.26713893857E+02  0.81752497223E+00  0.96004516317E+02  0.91521194700E+02 0.  0.
         11    1    3    3    0    0  0.10210425835E+02  0.59789964298E+02 -0.93804221493E+01  0.61376583046E+02  0.51100000000E-03 0.  1.
         22    1    1    0    0    0 -0.11244447605E+02 -0.26713893857E+02 -0.81752497223E+00  0.28995483683E+02  0.00000000000E+00 0.  1.
</event>
<event>
 5    1  0.3183396E-003  0.9118800E+02  0.7818608E-02  0.1130116E+00
         25   -1    0    0    0    0  0.00000000000E+00  0.00000000000E+00  0.99999998245E-14  0.12500000000E+03  0.12500000000E+03 0.  0.
        -11    1    3    3    0    0 -0.32880514779E+02 -0.21688820370E+02 -0.14320817967E+02  0.41912038947E+02  0.51100000000E-03 0.  1.
         23    2    1    0    0    0 -0.15660257829E+02  0.24369224248E+02  0.65032731395E+01  0.95311697131E+02  0.90569996592E+02 0.  0.
         11    1    3    3    0    0  0.17220256950E+02  0.46058044619E+02  0.20824091107E+02  0.53399658184E+02  0.51100000000E-03 0. -1.
         22    1    1    0    0    0  0.15660257829E+02 -0.24369224248E+02 -0.65032731395E+01  0.29688302869E+02  0.00000000000E+00 0. -1.
</event>
<event>
 5    1  0.3183396E-003  0.9118800E+02  0.7818608E-02  0.1130116E+00
         25   -1    0    0    0    0  0.00000000000E+00  0.00000000000E+00  0.99999998245E-14  0.12500000000E+03  0.12500000000E+03 0.  0.
        -11    1    3    3    0    0 -0.31728809697E+01  0.25147116361E+02 -0.21824117272E+02  0.33447522029E+02  0.51100000000E-03 0.  1.
         23    2    1    0    0    0 -0.43695021835E+01 -0.24278938253E+02 -0.32668677169E+02  0.84063441033E+02  0.73422477882E+02 0.  0.
         11    1    3    3    0    0 -0.11966212138E+01 -0.49426054614E+02 -0.10844559898E+02  0.50615919005E+02  0.51100000000E-03 0. -1.
         22    1    1    0    0    0  0.43695021835E+01  0.24278938253E+02  0.32668677169E+02  0.40936558967E+02  0.00000000000E+00 0. -1.
</event>
<event>
 5    1  0.3183396E-003  0.9118800E+02  0.7818608E-02  0.1130116E+00
         25   -1    0    0    0    0  0.00000000000E+00  0.00000000000E+00  0.99999998245E-14  0.12500000000E+03  0.12500000000E+03 0.  0.
        -11    1    3    3    0    0  0.26088920879E+02  0.55854953622E+02 -0.25833630842E+01  0.61701551049E+02  0.51100000000E-03 0. -1.
         23    2    1    0    0    0  0.74265026979E+01  0.32326381463E+02 -0.15131938128E+00  0.91831177616E+02  0.85631737130E+02 0.  0.
         11    1    3    3    0    0 -0.18662418181E+02 -0.23528572159E+02  0.24320437029E+01  0.30129626567E+02  0.51100000000E-03 0.  1.
         22    1    1    0    0    0 -0.74265026979E+01 -0.32326381463E+02  0.15131938128E+00  0.33168822384E+02  0.00000000000E+00 0. -1.
</event>
<event>
 5    1  0.3183396E-003  0.9118800E+02  0.7818608E-02  0.1130116E+00
         25   -1    0    0    0    0  0.00000000000E+00  0.00000000000E+00  0.99999998245E-14  0.12500000000E+03  0.12500000000E+03 0.  0.
        -11    1    3    3    0    0  0.28503512356E+02 -0.34279893033E+02  0.35055912546E+02  0.56714004334E+02  0.51100000000E-03 0.  1.
         23    2    1    0    0    0  0.14060142874E+02 -0.18633496275E+01  0.29002559130E+02  0.92715202872E+02  0.86912603908E+02 0.  0.
         11    1    3    3    0    0 -0.14443369482E+02  0.32416543405E+02 -0.60533534157E+01  0.36001198538E+02  0.51100000000E-03 0. -1.
         22    1    1    0    0    0 -0.14060142874E+02  0.18633496275E+01 -0.29002559130E+02  0.32284797128E+02  0.00000000000E+00 0.  1.
</event>
<event>
 5    1  0.3183396E-003  0.9118800E+02  0.7818608E-02  0.1130116E+00
         25   -1    0    0    0    0  0.00000000000E+00  0.00000000000E+00  0.99999998245E-14  0.12500000000E+03  0.12500000000E+03 0.  0.
        -11    1    3    3    0    0  0.16182618024E+02  0.19475068411E+02 -0.22613749818E+02  0.33949036758E+02  0.51100000000E-03 0.  1.
         23    2    1    0    0    0 -0.16968589016E+02 -0.88077071320E+01  0.21686586544E+02  0.96089504431E+02  0.91637198276E+02 0.  0.
         11    1    3    3    0    0 -0.33151207040E+02 -0.28282775543E+02  0.44300336361E+02  0.62140467673E+02  0.51100000000E-03 0. -1.
         22    1    1    0    0    0  0.16968589016E+02  0.88077071320E+01 -0.21686586544E+02  0.28910495569E+02  0.00000000000E+00 0. -1.
</event>
<event>
 5    1  0.3183396E-003  0.9118800E+02  0.7818608E-02  0.1130116E+00
         25   -1    0    0    0    0  0.00000000000E+00  0.00000000000E+00  0.99999998245E-14  0.12500000000E+03  0.12500000000E+03 0.  0.
        -11    1    3    3    0    0 -0.82767863431E+01 -0.55056756731E+02 -0.19991624514E+02  0.59155867882E+02  0.51100000000E-03 0. -1.
         23    2    1    0    0    0 -0.15641846563E+02 -0.19386063631E+02 -0.15008739251E+02  0.95918234564E+02  0.91403274782E+02 0.  0.
         11    1    3    3    0    0 -0.73650602195E+01  0.35670693100E+02  0.49828852633E+01  0.36762366682E+02  0.51100000000E-03 0.  1.
         22    1    1    0    0    0  0.15641846563E+02  0.19386063631E+02  0.15008739251E+02  0.29081765436E+02  0.00000000000E+00 0. -1.
</event>
<event>
 5    1  0.3183396E-003  0.9118800E+02  0.7818608E-02  0.1130116E+00
         25   -1    0    0    0    0  0.00000000000E+00  0.00000000000E+00  0.99999998245E-14  0.12500000000E+03  0.12500000000E+03 0.  0.
        -11    1    3    3    0    0 -0.39474708850E+02  0.20596547034E+02  0.34991148064E+02  0.56629063489E+02  0.51100000000E-03 0.  1.
         23    2    1    0    0    0 -0.28260121024E+02  0.10366960194E+02 -0.13866442990E+00  0.94898047708E+02  0.89997288442E+02 0.  0.
         11    1    3    3    0    0  0.11214587826E+02 -0.10229586840E+02 -0.35129812494E+02  0.38268984219E+02  0.51100000000E-03 0. -1.
         22    1    1    0    0    0  0.28260121024E+02 -0.10366960194E+02  0.13866442990E+00  0.30101952292E+02  0.00000000000E+00 0.  1.
</event>
<event>
 5    1  0.3183396E-003  0.9118800E+02  0.7818608E-02  0.1130116E+00
         25   -1    0    0    0    0  0.00000000000E+00  0.00000000000E+00  0.99999998245E-14  0.12500000000E+03  0.12500000000E+03 0.  0.
        -11    1    3    3    0    0 -0.12890756914E+02 -0.36701862827E+02  0.37735372096E+02  0.54195540926E+02  0.51100000000E-03 0. -1.
         23    2    1    0    0    0 -0.20648744440E+02  0.75648850784E+00  0.19561923337E+02  0.96546322444E+02  0.92258227877E+02 0.  0.
         11    1    3    3    0    0 -0.77579875258E+01  0.37458351334E+02 -0.18173448759E+02  0.42350781518E+02  0.51100000000E-03 0.  1.
         22    1    1    0    0    0  0.20648744440E+02 -0.75648850784E+00 -0.19561923337E+02  0.28453677556E+02  0.00000000000E+00 0. -1.
</event>
<event>
 5    1  0.3183396E-003  0.9118800E+02  0.7818608E-02  0.1130116E+00
         25   -1    0    0    0    0  0.00000000000E+00  0.00000000000E+00  0.99999998245E-14  0.12500000000E+03  0.12500000000E+03 0.  0.
        -11    1    3    3    0    0  0.69906908677E+01 -0.31927445961E+02  0.30870446828E+02  0.44957936475E+02  0.51100000000E-03 0.  1.
         23    2    1    0    0    0 -0.24128469073E+02  0.40576926052E+01  0.19082686295E+02  0.93971032803E+02  0.88700384446E+02 0.  0.
         11    1    3    3    0    0 -0.31119159940E+02  0.35985138567E+02 -0.11787760534E+02  0.49013096329E+02  0.51100000000E-03 0. -1.
         22    1    1    0    0    0  0.24128469073E+02 -0.40576926052E+01 -0.19082686295E+02  0.31028967197E+02  0.00000000000E+00 0.  1.
</event>
<event>
 5    1  0.3183396E-003  0.9118800E+02  0.7818608E-02  0.1130116E+00
         25   -1    0    0    0    0  0.00000000000E+00  0.00000000000E+00  0.99999998245E-14  0.12500000000E+03  0.12500000000E+03 0.  0.
        -11    1    3    3    0    0  0.24010097120E+02  0.32951511869E+02 -0.44425349298E+02  0.60298412572E+02  0.51100000000E-03 0.  1.
         23    2    1    0    0    0  0.60666497059E+01  0.21293744254E+02 -0.10293388157E+02  0.10058316927E+03  0.97574547492E+02 0.  0.
         11    1    3    3    0    0 -0.17943447414E+02 -0.11657767615E+02  0.34131961141E+02  0.40284756701E+02  0.51100000000E-03 0. -1.
         22    1    1    0    0    0 -0.60666497059E+01 -0.21293744254E+02  0.10293388157E+02  0.24416830727E+02  0.00000000000E+00 0.  1.
</event>
<event>
 5    1  0.3183396E-003  0.9118800E+02  0.7818608E-02  0.1130116E+00
         25   -1    0    0    0    0  0.00000000000E+00  0.00000000000E+00  0.99999998245E-14  0.12500000000E+03  0.12500000000E+03 0.  0.
        -11    1    3    3    0    0  0.22613490840E+01 -0.33522123666E+02 -0.60765408652E+01  0.34143386239E+02  0.51100000000E-03 0.  1.
         23    2    1    0    0    0  0.18784027663E+02  0.23860232764E+02  0.27619801591E+01  0.94507723319E+02  0.89453512115E+02 0.  0.
         11    1    3    3    0    0  0.16522678579E+02  0.57382356430E+02  0.88385210243E+01  0.60364337079E+02  0.51100000000E-03 0. -1.
         22    1    1    0    0    0 -0.18784027663E+02 -0.23860232764E+02 -0.27619801591E+01  0.30492276681E+02  0.00000000000E+00 0. -1.
</event>
<event>
 5    1  0.3183396E-003  0.9118800E+02  0.7818608E-02  0.1130116E+00
         25   -1    0    0    0    0  0.00000000000E+00  0.00000000000E+00  0.99999998245E-14  0.12500000000E+03  0.12500000000E+03 0.  0.
        -11    1    3    3    0    0  0.59056061339E+00 -0.17696277302E+02 -0.28715477470E+02  0.33735524878E+02  0.51100000000E-03 0. -1.
         23    2    1    0    0    0  0.13424499597E+01  0.31524412563E+02  0.45111253009E+01  0.93126170440E+02  0.87501672041E+02 0.  0.
         11    1    3    3    0    0  0.75188934632E+00  0.49220689864E+02  0.33226602771E+02  0.59390645562E+02  0.51100000000E-03 0.  1.
         22    1    1    0    0    0 -0.13424499597E+01 -0.31524412563E+02 -0.45111253009E+01  0.31873829560E+02  0.00000000000E+00 0.  1.
</event>
<event>
 5    1  0.3183396E-003  0.9118800E+02  0.7818608E-02  0.1130116E+00
         25   -1    0    0    0    0  0.00000000000E+00  0.00000000000E+00  0.99999998245E-14  0.12500000000E+03  0.12500000000E+03 0.  0.
        -11    1    3    3    0    0  0.46346087232E+02  0.20240325091E+02 -0.34018424000E+02  0.60949846047E+02  0.51100000000E-03 0. -1.
         23    2    1    0    0    0  0.17258419113E+02  0.55311560346E+01 -0.23751652424E+02  0.95123793577E+02  0.90310289526E+02 0.  0.
         11    1    3    3    0    0 -0.29087668119E+02 -0.14709169056E+02  0.10266771577E+02  0.34173947530E+02  0.51100000000E-03 0.  1.
         22    1    1    0    0    0 -0.17258419113E+02 -0.55311560346E+01  0.23751652424E+02  0.29876206423E+02  0.00000000000E+00 0. -1.
</event>
<event>
 5    1  0.3183396E-003  0.9118800E+02  0.7818608E-02  0.1130116E+00
         25   -1    0    0    0    0  0.00000000000E+00  0.00000000000E+00  0.99999998245E-14  0.12500000000E+03  0.12500000000E+03 0.  0.
        -11    1    3    3    0    0 -0.33670127488E+02  0.47678401057E+02  0.20079092945E+02  0.61725824305E+02  0.51100000000E-03 0.  1.
         23    2    1    0    0    0 -0.10794897020E+02  0.26851619396E+02  0.11767125382E+02  0.93758929186E+02  0.88400974523E+02 0.  0.
         11    1    3    3    0    0  0.22875230468E+02 -0.20826781661E+02 -0.83119675624E+01  0.32033104881E+02  0.51100000000E-03 0. -1.
         22    1    1    0    0    0  0.10794897020E+02 -0.26851619396E+02 -0.11767125382E+02  0.31241070814E+02  0.00000000000E+00 0.  1.
</event>
<event>
 5    1  0.3183396E-003  0.9118800E+02  0.7818608E-02  0.1130116E+00
         25   -1    0    0    0    0  0.00000000000E+00  0.00000000000E+00  0.99999998245E-14  0.12500000000E+03  0.12500000000E+03 0.  0.
        -11    1    3    3    0    0 -0.22657782240E+02 -0.10442117619E+02 -0.24214350724E+02  0.34767049022E+02  0.51100000000E-03 0.  1.
         23    2    1    0    0    0 -0.54948685724E+01  0.20975354276E+02  0.22586414034E+02  0.93690174601E+02  0.88303701226E+02 0.  0.
         11    1    3    3    0    0  0.17162913668E+02  0.31417471895E+02  0.46800764758E+02  0.58923125579E+02  0.51100000000E-03 0. -1.
         22    1    1    0    0    0  0.54948685724E+01 -0.20975354276E+02 -0.22586414034E+02  0.31309825399E+02  0.00000000000E+00 0. -1.
</event>
<event>
 5    1  0.3183396E-003  0.9118800E+02  0.7818608E-02  0.1130116E+00
         25   -1    0    0    0    0  0.00000000000E+00  0.00000000000E+00  0.99999998245E-14  0.12500000000E+03  0.12500000000E+03 0.  0.
        -11    1    3    3    0    0 -0.28610111944E+02  0.73344501428E+01 -0.32868853439E+02  0.44189299508E+02  0.51100000000E-03 0.  1.
         23    2    1    0    0    0 -0.14987121039E+02  0.22113279771E+02  0.13749194464E+02  0.94955844367E+02  0.90077528229E+02 0.  0.
         11    1    3    3    0    0  0.13622990905E+02  0.14778829628E+02  0.46618047903E+02  0.50766544859E+02  0.51100000000E-03 0. -1.
         22    1    1    0    0    0  0.14987121039E+02 -0.22113279771E+02 -0.13749194464E+02  0.30044155633E+02  0.00000000000E+00 0.  1.
</event>
<event>
 5    1  0.3183396E-003  0.9118800E+02  0.7818608E-02  0.1130116E+00
         25   -1    0    0    0    0  0.00000000000E+00  0.00000000000E+00  0.99999998245E-14  0.12500000000E+03  0.12500000000E+03 0.  0.
        -11    1    3    3    0    0 -0.33808571928E+02  0.14243521534E+02 -0.81203889555E+01  0.37574434907E+02  0.51100000000E-03 0. -1.
         23    2    1    0    0    0  0.13170623690E+02 -0.21455558664E+02 -0.12788114824E+02  0.96762751431E+02  0.92551001387E+02 0.  0.
         11    1    3    3    0    0  0.46979195618E+02 -0.35699080198E+02 -0.46677258689E+01  0.59188316524E+02  0.51100000000E-03 0.  1.
         22    1    1    0    0    0 -0.13170623690E+02  0.21455558664E+02  0.12788114824E+02  0.28237248569E+02  0.00000000000E+00 0.  1.
</event>
<event>
 5    1  0.3183396E-003  0.9118800E+02  0.7818608E-02  0.1130116E+00
         25   -1    0    0    0    0  0.00000000000E+00  0.00000000000E+00  0.99999998245E-14  0.12500000000E+03  0.12500000000E+03 0.  0.
        -11    1    3    3    0    0 -0.35344648746E+02  0.12440811863E+02 -0.82152492833E+01  0.38360243949E+02  0.51100000000E-03 0. -1.
         23    2    1    0    0    0  0.98393022049E+01  0.88561184766E+01  0.26449707658E+02  0.95422479186E+02  0.90722763386E+02 0.  0.
         11    1    3    3    0    0  0.45183950951E+02 -0.35846933861E+01  0.34664956941E+02  0.57062235237E+02  0.51100000000E-03 0.  1.
         22    1    1    0    0    0 -0.98393022049E+01 -0.88561184766E+01 -0.26449707658E+02  0.29577520814E+02  0.00000000000E+00 0.  1.
</event>
<event>
 5    1  0.3183396E-003  0.9118800E+02  0.7818608E-02  0.1130116E+00
         25   -1    0    0    0    0  0.00000000000E+00  0.00000000000E+00  0.99999998245E-14  0.12500000000E+03  0.12500000000E+03 0.  0.
        -11    1    3    3    0    0 -0.30017485313E+02  0.35877878005E+02 -0.25451168944E+02  0.53254422873E+02  0.51100000000E-03 0. -1.
         23    2    1    0    0    0  0.69715928790E+01  0.14600499179E+02 -0.24130790142E+02  0.95947070433E+02  0.91442701230E+02 0.  0.
         11    1    3    3    0    0  0.36989078192E+02 -0.21277378826E+02  0.13203788020E+01  0.42692647560E+02  0.51100000000E-03 0.  1.
         22    1    1    0    0    0 -0.69715928790E+01 -0.14600499179E+02  0.24130790142E+02  0.29052929567E+02  0.00000000000E+00 0. -1.
</event>
<event>
 5    1  0.3183396E-003  0.9118800E+02  0.7818608E-02  0.1130116E+00
         25   -1    0    0    0    0  0.00000000000E+00  0.00000000000E+00  0.99999998245E-14  0.12500000000E+03  0.12500000000E+03 0.  0.
        -11    1    3    3    0    0  0.63065382087E+01  0.55682715934E+01  0.42859453472E+02  0.43677349105E+02  0.51100000000E-03 0.  1.
         23    2    1    0    0    0  0.69808050462E+01 -0.28740002216E+02  0.46036460668E+01  0.95068195450E+02  0.90233302403E+02 0.  0.
         11    1    3    3    0    0  0.67426683750E+00 -0.34308273810E+02 -0.38255807405E+02  0.51390846345E+02  0.51100000000E-03 0. -1.
         22    1    1    0    0    0 -0.69808050462E+01  0.28740002216E+02 -0.46036460668E+01  0.29931804550E+02  0.00000000000E+00 0. -1.
</event>
<event>
 5    1  0.3183396E-003  0.9118800E+02  0.7818608E-02  0.1130116E+00
         25   -1    0    0    0    0  0.00000000000E+00  0.00000000000E+00  0.99999998245E-14  0.12500000000E+03  0.12500000000E+03 0.  0.
        -11    1    3    3    0    0 -0.46571789407E+02 -0.12966348903E+02  0.27853881203E+02  0.55793337154E+02  0.51100000000E-03 0. -1.
         23    2    1    0    0    0 -0.11575059948E+02 -0.23946341222E+02  0.10018453450E+02  0.96578552460E+02  0.92301885761E+02 0.  0.
         11    1    3    3    0    0  0.34996729459E+02 -0.10979992318E+02 -0.17835427753E+02  0.40785215306E+02  0.51100000000E-03 0.  1.
         22    1    1    0    0    0  0.11575059948E+02  0.23946341222E+02 -0.10018453450E+02  0.28421447540E+02  0.00000000000E+00 0.  1.
</event>
<event>
 5    1  0.3183396E-003  0.9118800E+02  0.7818608E-02  0.1130116E+00
         25   -1    0    0    0    0  0.00000000000E+00  0.00000000000E+00  0.99999998245E-14  0.12500000000E+03  0.12500000000E+03 0.  0.
        -11    1    3    3    0    0  0.65819172586E+01 -0.14917781437E+02  0.35525017582E+02  0.39088217052E+02  0.51100000000E-03 0. -1.
         23    2    1    0    0    0 -0.12058110357E+02 -0.21077172484E+02 -0.17129694265E+02  0.95283478485E+02  0.90531042308E+02 0.  0.
         11    1    3    3    0    0 -0.18640027616E+02 -0.61593910472E+01 -0.52654711847E+02  0.56195261433E+02  0.51100000000E-03 0.  1.
         22    1    1    0    0    0  0.12058110357E+02  0.21077172484E+02  0.17129694265E+02  0.29716521515E+02  0.00000000000E+00 0.  1.
</event>
<event>
 5    1  0.3183396E-003  0.9118800E+02  0.7818608E-02  0.1130116E+00
         25   -1    0    0    0    0  0.00000000000E+00  0.00000000000E+00  0.99999998245E-14  0.12500000000E+03  0.12500000000E+03 0.  0.
        -11    1    3    3    0    0  0.39151473148E+02  0.28286220567E+02 -0.10826389351E+02  0.49499079085E+02  0.51100000000E-03 0.  1.
         23    2    1    0    0    0 -0.18255415925E+01  0.22279409538E+02 -0.23259449164E+02  0.92740014462E+02  0.86948281269E+02 0.  0.
         11    1    3    3    0    0 -0.40977014740E+02 -0.60068110287E+01 -0.12433059813E+02  0.43240935377E+02  0.51100000000E-03 0. -1.
         22    1    1    0    0    0  0.18255415925E+01 -0.22279409538E+02  0.23259449164E+02  0.32259985538E+02  0.00000000000E+00 0.  1.
</event>
<event>
 5    1  0.3183396E-003  0.9118800E+02  0.7818608E-02  0.1130116E+00
         25   -1    0    0    0    0  0.00000000000E+00  0.00000000000E+00  0.99999998245E-14  0.12500000000E+03  0.12500000000E+03 0.  0.
        -11    1    3    3    0    0  0.13685175451E+02  0.15183184824E+02 -0.37012883382E+02  0.42281989842E+02  0.51100000000E-03 0.  1.
         23    2    1    0    0    0 -0.15286562563E+02  0.19758161198E+02  0.10324176651E+02  0.97969414501E+02  0.94166626919E+02 0.  0.
         11    1    3    3    0    0 -0.28971738014E+02  0.45749763735E+01  0.47337060033E+02  0.55687424659E+02  0.51100000000E-03 0. -1.
         22    1    1    0    0    0  0.15286562563E+02 -0.19758161198E+02 -0.10324176651E+02  0.27030585499E+02  0.00000000000E+00 0. -1.
</event>
<event>
 5    1  0.3183396E-003  0.9118800E+02  0.7818608E-02  0.1130116E+00
         25   -1    0    0    0    0  0.00000000000E+00  0.00000000000E+00  0.99999998245E-14  0.12500000000E+03  0.12500000000E+03 0.  0.
        -11    1    3    3    0    0  0.34818777611E+02 -0.15448866661E+02  0.75420428441E+01  0.38831651600E+02  0.51100000000E-03 0. -1.
         23    2    1    0    0    0 -0.16644575735E+01  0.24807460834E+02 -0.13035627863E+02  0.96926736459E+02  0.92772216287E+02 0.  0.
         11    1    3    3    0    0 -0.36483235184E+02  0.40256327495E+02 -0.20577670707E+02  0.58095084860E+02  0.51100000000E-03 0.  1.
         22    1    1    0    0    0  0.16644575735E+01 -0.24807460834E+02  0.13035627863E+02  0.28073263541E+02  0.00000000000E+00 0.  1.
</event>
<event>
 5    1  0.3183396E-003  0.9118800E+02  0.7818608E-02  0.1130116E+00
         25   -1    0    0    0    0  0.00000000000E+00  0.00000000000E+00  0.99999998245E-14  0.12500000000E+03  0.12500000000E+03 0.  0.
        -11    1    3    3    0    0  0.20467889446E+02 -0.25514810796E+02 -0.91413702293E+01  0.33963284857E+02  0.51100000000E-03 0. -1.
         23    2    1    0    0    0 -0.26364979100E+02  0.13500809040E+02 -0.28185979788E+01  0.95245530382E+02  0.90478630602E+02 0.  0.
         11    1    3    3    0    0 -0.46832868546E+02  0.39015619836E+02  0.63227722505E+01  0.61282245525E+02  0.51100000000E-03 0.  1.
         22    1    1    0    0    0  0.26364979100E+02 -0.13500809040E+02  0.28185979788E+01  0.29754469618E+02  0.00000000000E+00 0.  1.
</event>
<event>
 5    1  0.3183396E-003  0.9118800E+02  0.7818608E-02  0.1130116E+00
         25   -1    0    0    0    0  0.00000000000E+00  0.00000000000E+00  0.99999998245E-14  0.12500000000E+03  0.12500000000E+03 0.  0.
        -11    1    3    3    0    0  0.32165327505E+02  0.16329451682E+02  0.11251338645E+02  0.37786927730E+02  0.51100000000E-03 0.  1.
         23    2    1    0    0    0  0.87241308150E+01 -0.15094099929E+02 -0.27195122186E+02  0.92696486540E+02  0.86885681416E+02 0.  0.
         11    1    3    3    0    0 -0.23441196690E+02 -0.31423551611E+02 -0.38446460830E+02  0.54909558810E+02  0.51100000000E-03 0. -1.
         22    1    1    0    0    0 -0.87241308150E+01  0.15094099929E+02  0.27195122186E+02  0.32303513460E+02  0.00000000000E+00 0. -1.
</event>
<event>
 5    1  0.3183396E-003  0.9118800E+02  0.7818608E-02  0.1130116E+00
         25   -1    0    0    0    0  0.00000000000E+00  0.00000000000E+00  0.99999998245E-14  0.12500000000E+03  0.12500000000E+03 0.  0.
        -11    1    3    3    0    0 -0.32168700258E+02  0.43762695499E+01  0.32339417902E+02  0.45823737975E+02  0.51100000000E-03 0.  1.
         23    2    1    0    0    0 -0.23137689987E+02  0.65277495881E+01 -0.16695972198E+02  0.95730225483E+02  0.91145797329E+02 0.  0.
         11    1    3    3    0    0  0.90310102704E+01  0.21514800383E+01 -0.49035390100E+02  0.49906487508E+02  0.51100000000E-03 0. -1.
         22    1    1    0    0    0  0.23137689987E+02 -0.65277495881E+01  0.16695972198E+02  0.29269774517E+02  0.00000000000E+00 0. -1.
</event>
<event>
 5    1  0.3183396E-003  0.9118800E+02  0.7818608E-02  0.1130116E+00
         25   -1    0    0    0    0  0.00000000000E+00  0.00000000000E+00  0.99999998245E-14  0.12500000000E+03  0.12500000000E+03 0.  0.
        -11    1    3    3    0    0  0.83530831562E+01 -0.52837310171E+01 -0.58566707464E+02  0.59394873811E+02  0.51100000000E-03 0.  1.
         23    2    1    0    0    0  0.16095261809E+02  0.34114711151E+01 -0.23740369348E+02  0.96115735691E+02  0.91672972695E+02 0.  0.
         11    1    3    3    0    0  0.77421786528E+01  0.86952021322E+01  0.34826338115E+02  0.36720861880E+02  0.51100000000E-03 0. -1.
         22    1    1    0    0    0 -0.16095261809E+02 -0.34114711151E+01  0.23740369348E+02  0.28884264309E+02  0.00000000000E+00 0.  1.
</event>
<event>
 5    1  0.3183396E-003  0.9118800E+02  0.7818608E-02  0.1130116E+00
         25   -1    0    0    0    0  0.00000000000E+00  0.00000000000E+00  0.99999998245E-14  0.12500000000E+03  0.12500000000E+03 0.  0.
        -11    1    3    3    0    0  0.37532658598E+02 -0.68466092239E+01  0.80889719165E+01  0.39000102387E+02  0.51100000000E-03 0.  1.
         23    2    1    0    0    0 -0.17436805596E+02 -0.20665381022E+02  0.11126727589E+02  0.95761254661E+02  0.91188341718E+02 0.  0.
         11    1    3    3    0    0 -0.54969464193E+02 -0.13818771798E+02  0.30377556724E+01  0.56761152274E+02  0.51100000000E-03 0. -1.
         22    1    1    0    0    0  0.17436805596E+02  0.20665381022E+02 -0.11126727589E+02  0.29238745339E+02  0.00000000000E+00 0. -1.
</event>
<event>
 5    1  0.3183396E-003  0.9118800E+02  0.7818608E-02  0.1130116E+00
         25   -1    0    0    0    0  0.00000000000E+00  0.00000000000E+00  0.99999998245E-14  0.12500000000E+03  0.12500000000E+03 0.  0.
        -11    1    3    3    0    0 -0.87990368989E+01 -0.33544522767E+02  0.18840520053E+02  0.39466736047E+02  0.51100000000E-03 0.  1.
         23    2    1    0    0    0  0.26801128398E+02  0.81807819128E+01  0.11103777403E+02  0.94858341971E+02  0.89942123017E+02 0.  0.
         11    1    3    3    0    0  0.35600165297E+02  0.41725304680E+02 -0.77367426506E+01  0.55391605925E+02  0.51100000000E-03 0. -1.
         22    1    1    0    0    0 -0.26801128398E+02 -0.81807819128E+01 -0.11103777403E+02  0.30141658029E+02  0.00000000000E+00 0. -1.
</event>
<event>
 5    1  0.3183396E-003  0.9118800E+02  0.7818608E-02  0.1130116E+00
         25   -1    0    0    0    0  0.00000000000E+00  0.00000000000E+00  0.99999998245E-14  0.12500000000E+03  0.12500000000E+03 0.  0.
        -11    1    3    3    0    0 -0.31555694102E+02 -0.40930242945E+01  0.98344577587E+01  0.33305123297E+02  0.51100000000E-03 0. -1.
         23    2    1    0    0    0  0.16718934994E+02  0.98529094261E+01 -0.24188711928E+02  0.93988769837E+02  0.88725376636E+02 0.  0.
         11    1    3    3    0    0  0.48274629096E+02  0.13945933721E+02 -0.34023169687E+02  0.60683646540E+02  0.51100000000E-03 0.  1.
         22    1    1    0    0    0 -0.16718934994E+02 -0.98529094261E+01  0.24188711928E+02  0.31011230163E+02  0.00000000000E+00 0.  1.
</event>
<event>
 5    1  0.3183396E-003  0.9118800E+02  0.7818608E-02  0.1130116E+00
         25   -1    0    0    0    0  0.00000000000E+00  0.00000000000E+00  0.99999998245E-14  0.12500000000E+03  0.12500000000E+03 0.  0.
        -11    1    3    3    0    0  0.35252376516E+02  0.76222286998E+01 -0.16877298218E+02  0.39820492410E+02  0.51100000000E-03 0. -1.
         23    2    1    0    0    0 -0.23319751378E+02 -0.16851847804E+01  0.47739366943E+00  0.10161456529E+03  0.98887012905E+02 0.  0.
         11    1    3    3    0    0 -0.58572127894E+02 -0.93074134801E+01  0.17354691888E+02  0.61794072875E+02  0.51100000000E-03 0.  1.
         22    1    1    0    0    0  0.23319751378E+02  0.16851847804E+01 -0.47739366943E+00  0.23385434715E+02  0.00000000000E+00 0.  1.
</event>
<event>
 5    1  0.3183396E-003  0.9118800E+02  0.7818608E-02  0.1130116E+00
         25   -1    0    0    0    0  0.00000000000E+00  0.00000000000E+00  0.99999998245E-14  0.12500000000E+03  0.12500000000E+03 0.  0.
        -11    1    3    3    0    0 -0.90036385754E+01  0.25869570039E+02 -0.22010001959E+02  0.35138872323E+02  0.51100000000E-03 0.  1.
         23    2    1    0    0    0  0.77144389483E+01 -0.26868802718E+02 -0.20232235510E+02  0.90492196802E+02  0.83654343585E+02 0.  0.
         11    1    3    3    0    0  0.16718077524E+02 -0.52738372757E+02  0.17777664498E+01  0.55353324480E+02  0.51100000000E-03 0. -1.
         22    1    1    0    0    0 -0.77144389483E+01  0.26868802718E+02  0.20232235510E+02  0.34507803198E+02  0.00000000000E+00 0. -1.
</event>
<event>
 5    1  0.3183396E-003  0.9118800E+02  0.7818608E-02  0.1130116E+00
         25   -1    0    0    0    0  0.00000000000E+00  0.00000000000E+00  0.99999998245E-14  0.12500000000E+03  0.12500000000E+03 0.  0.
        -11    1    3    3    0    0  0.43316306911E+02  0.10391643846E+01  0.10630682820E+02  0.44613828848E+02  0.51100000000E-03 0. -1.
         23    2    1    0    0    0  0.36953869848E+01 -0.28915872067E+02 -0.17260022791E+01  0.95797900311E+02  0.91238561353E+02 0.  0.
         11    1    3    3    0    0 -0.39620919926E+02 -0.29955036452E+02 -0.12356685099E+02  0.51184071463E+02  0.51100000000E-03 0.  1.
         22    1    1    0    0    0 -0.36953869848E+01  0.28915872067E+02  0.17260022791E+01  0.29202099689E+02  0.00000000000E+00 0. -1.
</event>
<event>
 5    1  0.3183396E-003  0.9118800E+02  0.7818608E-02  0.1130116E+00
         25   -1    0    0    0    0  0.00000000000E+00  0.00000000000E+00  0.99999998245E-14  0.12500000000E+03  0.12500000000E+03 0.  0.
        -11    1    3    3    0    0 -0.15697694004E+02  0.45557341182E+01  0.32170988285E+02  0.36085243492E+02  0.51100000000E-03 0.  1.
         23    2    1    0    0    0 -0.42043576514E+01  0.13724167174E+02 -0.25574404193E+02  0.95672887328E+02  0.91067128163E+02 0.  0.
         11    1    3    3    0    0  0.11493336352E+02  0.91684330555E+01 -0.57745392478E+02  0.59587643836E+02  0.51100000000E-03 0. -1.
         22    1    1    0    0    0  0.42043576514E+01 -0.13724167174E+02  0.25574404193E+02  0.29327112672E+02  0.00000000000E+00 0. -1.
</event>
<event>
 5    1  0.3183396E-003  0.9118800E+02  0.7818608E-02  0.1130116E+00
         25   -1    0    0    0    0  0.00000000000E+00  0.00000000000E+00  0.99999998245E-14  0.12500000000E+03  0.12500000000E+03 0.  0.
        -11    1    3    3    0    0  0.46321263580E+02 -0.18582555884E+02  0.23436532414E+02  0.55138388575E+02  0.51100000000E-03 0.  1.
         23    2    1    0    0    0  0.26125832868E+02  0.28338464723E+01 -0.73289171113E+01  0.97718085571E+02  0.93832411207E+02 0.  0.
         11    1    3    3    0    0 -0.20195430712E+02  0.21416402356E+02 -0.30765449526E+02  0.42579696996E+02  0.51100000000E-03 0. -1.
         22    1    1    0    0    0 -0.26125832868E+02 -0.28338464723E+01  0.73289171113E+01  0.27281914429E+02  0.00000000000E+00 0.  1.
</event>
<event>
 5    1  0.3183396E-003  0.9118800E+02  0.7818608E-02  0.1130116E+00
         25   -1    0    0    0    0  0.00000000000E+00  0.00000000000E+00  0.99999998245E-14  0.12500000000E+03  0.12500000000E+03 0.  0.
        -11    1    3    3    0    0 -0.19760088997E+02  0.40017876115E+02  0.24218239345E+02  0.50778092157E+02  0.51100000000E-03 0.  1.
         23    2    1    0    0    0  0.15664747791E+02  0.11258650151E+02  0.20945641957E+02  0.96524371060E+02  0.92228481311E+02 0.  0.
         11    1    3    3    0    0  0.35424836788E+02 -0.28759225964E+02 -0.32725973879E+01  0.45746278902E+02  0.51100000000E-03 0. -1.
         22    1    1    0    0    0 -0.15664747791E+02 -0.11258650151E+02 -0.20945641957E+02  0.28475628940E+02  0.00000000000E+00 0. -1.
</event>
<event>
 5    1  0.3183396E-003  0.9118800E+02  0.7818608E-02  0.1130116E+00
         25   -1    0    0    0    0  0.00000000000E+00  0.00000000000E+00  0.99999998245E-14  0.12500000000E+03  0.12500000000E+03 0.  0.
        -11    1    3    3    0    0 -0.49142008965E+02  0.26252283069E+02 -0.20612092991E+02  0.59405200018E+02  0.51100000000E-03 0. -1.
         23    2    1    0    0    0 -0.24395658280E+02  0.16314173331E+02  0.36098667758E+01  0.95430902406E+02  0.90734368358E+02 0.  0.
         11    1    3    3    0    0  0.24746350684E+02 -0.99381097374E+01  0.24221959767E+02  0.36025702388E+02  0.51100000000E-03 0.  1.
         22    1    1    0    0    0  0.24395658280E+02 -0.16314173331E+02 -0.36098667758E+01  0.29569097594E+02  0.00000000000E+00 0. -1.
</event>
<event>
 5    1  0.3183396E-003  0.9118800E+02  0.7818608E-02  0.1130116E+00
         25   -1    0    0    0    0  0.00000000000E+00  0.00000000000E+00  0.99999998245E-14  0.12500000000E+03  0.12500000000E+03 0.  0.
        -11    1    3    3    0    0  0.88831531880E+01 -0.42460510954E+02  0.10705475625E+02  0.44681233305E+02  0.51100000000E-03 0.  1.
         23    2    1    0    0    0 -0.27855884362E+02 -0.76566708049E+01  0.18996858970E+01  0.96048597479E+02  0.91581381131E+02 0.  0.
         11    1    3    3    0    0 -0.36739037550E+02  0.34803840149E+02 -0.88057897278E+01  0.51367364174E+02  0.51100000000E-03 0. -1.
         22    1    1    0    0    0  0.27855884362E+02  0.76566708049E+01 -0.18996858970E+01  0.28951402521E+02  0.00000000000E+00 0.  1.
</event>
<event>
 5    1  0.3183396E-003  0.9118800E+02  0.7818608E-02  0.1130116E+00
         25   -1    0    0    0    0  0.00000000000E+00  0.00000000000E+00  0.99999998245E-14  0.12500000000E+03  0.12500000000E+03 0.  0.
        -11    1    3    3    0    0 -0.32099813743E+01 -0.13085422341E+02  0.32046821318E+02  0.34763932676E+02  0.51100000000E-03 0.  1.
         23    2    1    0    0    0 -0.66728949061E+01 -0.30738469466E+01 -0.28160902220E+02  0.95896521251E+02  0.91373575571E+02 0.  0.
         11    1    3    3    0    0 -0.34629135317E+01  0.10011575394E+02 -0.60207723538E+02  0.61132588575E+02  0.51100000000E-03 0. -1.
         22    1    1    0    0    0  0.66728949061E+01  0.30738469466E+01  0.28160902220E+02  0.29103478749E+02  0.00000000000E+00 0. -1.
</event>
<event>
 5    1  0.3183396E-003  0.9118800E+02  0.7818608E-02  0.1130116E+00
         25   -1    0    0    0    0  0.00000000000E+00  0.00000000000E+00  0.99999998245E-14  0.12500000000E+03  0.12500000000E+03 0.  0.
        -11    1    3    3    0    0 -0.31224991699E+01 -0.15277935361E+02 -0.40031033527E+02  0.42961016695E+02  0.51100000000E-03 0.  1.
         23    2    1    0    0    0 -0.28300091412E+02 -0.36635898882E+01  0.51801708305E+01  0.95997392624E+02  0.91511464615E+02 0.  0.
         11    1    3    3    0    0 -0.25177592242E+02  0.11614345473E+02  0.45211204358E+02  0.53036375928E+02  0.51100000000E-03 0. -1.
         22    1    1    0    0    0  0.28300091412E+02  0.36635898882E+01 -0.51801708305E+01  0.29002607376E+02  0.00000000000E+00 0. -1.
</event>
<event>
 5    1  0.3183396E-003  0.9118800E+02  0.7818608E-02  0.1130116E+00
         25   -1    0    0    0    0  0.00000000000E+00  0.00000000000E+00  0.99999998245E-14  0.12500000000E+03  0.12500000000E+03 0.  0.
        -11    1    3    3    0    0 -0.53397214063E+02  0.16703291357E+02 -0.13617641329E+02  0.57582137573E+02  0.51100000000E-03 0. -1.
         23    2    1    0    0    0 -0.22803595062E+02 -0.73164154663E+01 -0.15413869780E+02  0.96519809260E+02  0.92222298361E+02 0.  0.
         11    1    3    3    0    0  0.30593619001E+02 -0.24019706824E+02 -0.17962284506E+01  0.38937671687E+02  0.51100000000E-03 0.  1.
         22    1    1    0    0    0  0.22803595062E+02  0.73164154663E+01  0.15413869780E+02  0.28480190740E+02  0.00000000000E+00 0. -1.
</event>
<event>
 5    1  0.3183396E-003  0.9118800E+02  0.7818608E-02  0.1130116E+00
         25   -1    0    0    0    0  0.00000000000E+00  0.00000000000E+00  0.99999998245E-14  0.12500000000E+03  0.12500000000E+03 0.  0.
        -11    1    3    3    0    0 -0.18838186327E+02  0.58035947385E+01  0.27061045725E+02  0.33479234937E+02  0.51100000000E-03 0. -1.
         23    2    1    0    0    0  0.24147513579E+02  0.25910250656E+02 -0.26737870596E+01  0.89481094635E+02  0.82129614992E+02 0.  0.
         11    1    3    3    0    0  0.42985699906E+02  0.20106655917E+02 -0.29734832785E+02  0.56001859698E+02  0.51100000000E-03 0.  1.
         22    1    1    0    0    0 -0.24147513579E+02 -0.25910250656E+02  0.26737870596E+01  0.35518905365E+02  0.00000000000E+00 0. -1.
</event>
<event>
 5    1  0.3183396E-003  0.9118800E+02  0.7818608E-02  0.1130116E+00
         25   -1    0    0    0    0  0.00000000000E+00  0.00000000000E+00  0.99999998245E-14  0.12500000000E+03  0.12500000000E+03 0.  0.
        -11    1    3    3    0    0  0.44860110546E+01  0.10080410062E+02 -0.37915384832E+02  0.39488167461E+02  0.51100000000E-03 0.  1.
         23    2    1    0    0    0  0.24414267909E+02 -0.13289495642E+02  0.91914559188E+01  0.95722875246E+02  0.91135716442E+02 0.  0.
         11    1    3    3    0    0  0.19928256855E+02 -0.23369905704E+02  0.47106840751E+02  0.56234707785E+02  0.51100000000E-03 0. -1.
         22    1    1    0    0    0 -0.24414267909E+02  0.13289495642E+02 -0.91914559188E+01  0.29277124754E+02  0.00000000000E+00 0. -1.
</event>
<event>
 5    1  0.3183396E-003  0.9118800E+02  0.7818608E-02  0.1130116E+00
         25   -1    0    0    0    0  0.00000000000E+00  0.00000000000E+00  0.99999998245E-14  0.12500000000E+03  0.12500000000E+03 0.  0.
        -11    1    3    3    0    0  0.53591649825E+02 -0.35421312812E+01  0.20966059415E+02  0.57655765303E+02  0.51100000000E-03 0.  1.
         23    2    1    0    0    0  0.18935614630E+02  0.12205141427E+02  0.18583248244E+02  0.95796231511E+02  0.91236275010E+02 0.  0.
         11    1    3    3    0    0 -0.34656035195E+02  0.15747272708E+02 -0.23828111709E+01  0.38140466208E+02  0.51100000000E-03 0. -1.
         22    1    1    0    0    0 -0.18935614630E+02 -0.12205141427E+02 -0.18583248244E+02  0.29203768489E+02  0.00000000000E+00 0.  1.
</event>
<event>
 5    1  0.3183396E-003  0.9118800E+02  0.7818608E-02  0.1130116E+00
         25   -1    0    0    0    0  0.00000000000E+00  0.00000000000E+00  0.99999998245E-14  0.12500000000E+03  0.12500000000E+03 0.  0.
        -11    1    3    3    0    0 -0.52797482928E+02 -0.23500965296E+02 -0.20105934173E+02  0.61189199722E+02  0.51100000000E-03 0.  1.
         23    2    1    0    0    0 -0.23956112874E+02 -0.20434022417E+02 -0.11989007652E+02  0.91307553953E+02  0.84863941036E+02 0.  0.
         11    1    3    3    0    0  0.28841370053E+02  0.30669428795E+01  0.81169265207E+01  0.30118354231E+02  0.51100000000E-03 0. -1.
         22    1    1    0    0    0  0.23956112874E+02  0.20434022417E+02  0.11989007652E+02  0.33692446047E+02  0.00000000000E+00 0.  1.
</event>
<event>
 5    1  0.3183396E-003  0.9118800E+02  0.7818608E-02  0.1130116E+00
         25   -1    0    0    0    0  0.00000000000E+00  0.00000000000E+00  0.99999998245E-14  0.12500000000E+03  0.12500000000E+03 0.  0.
        -11    1    3    3    0    0  0.58226605605E+02  0.13025521920E+02  0.12364877267E+02  0.60933504836E+02  0.51100000000E-03 0. -1.
         23    2    1    0    0    0  0.24586631934E+02  0.15608205900E+02  0.58573227258E+01  0.95294330662E+02  0.90546025123E+02 0.  0.
         11    1    3    3    0    0 -0.33639973671E+02  0.25826839801E+01 -0.65075545408E+01  0.34360825826E+02  0.51100000000E-03 0.  1.
         22    1    1    0    0    0 -0.24586631934E+02 -0.15608205900E+02 -0.58573227258E+01  0.29705669338E+02  0.00000000000E+00 0. -1.
</event>
<event>
 5    1  0.3183396E-003  0.9118800E+02  0.7818608E-02  0.1130116E+00
         25   -1    0    0    0    0  0.00000000000E+00  0.00000000000E+00  0.99999998245E-14  0.12500000000E+03  0.12500000000E+03 0.  0.
        -11    1    3    3    0    0 -0.19078812806E+02 -0.19464346657E+02 -0.27006017764E+02  0.38369087618E+02  0.51100000000E-03 0. -1.
         23    2    1    0    0    0  0.10254770397E+02 -0.15930017925E+02  0.22231461674E+02  0.95791034336E+02  0.91229154244E+02 0.  0.
         11    1    3    3    0    0  0.29333583203E+02  0.35343287327E+01  0.49237479439E+02  0.57421946718E+02  0.51100000000E-03 0.  1.
         22    1    1    0    0    0 -0.10254770397E+02  0.15930017925E+02 -0.22231461674E+02  0.29208965664E+02  0.00000000000E+00 0.  1.
</event>
<event>
 5    1  0.3183396E-003  0.9118800E+02  0.7818608E-02  0.1130116E+00
         25   -1    0    0    0    0  0.00000000000E+00  0.00000000000E+00  0.99999998245E-14  0.12500000000E+03  0.12500000000E+03 0.  0.
        -11    1    3    3    0    0  0.27557315958E+02  0.16988359374E+02 -0.10686566512E+02  0.34091241121E+02  0.51100000000E-03 0.  1.
         23    2    1    0    0    0 -0.98542637996E+01 -0.24757398537E+02 -0.20980572505E+02  0.91085110644E+02  0.84535659110E+02 0.  0.
         11    1    3    3    0    0 -0.37411579758E+02 -0.41745757912E+02 -0.10294005992E+02  0.56993869524E+02  0.51100000000E-03 0. -1.
         22    1    1    0    0    0  0.98542637996E+01  0.24757398537E+02  0.20980572505E+02  0.33914889356E+02  0.00000000000E+00 0. -1.
</event>
<event>
 5    1  0.3183396E-003  0.9118800E+02  0.7818608E-02  0.1130116E+00
         25   -1    0    0    0    0  0.00000000000E+00  0.00000000000E+00  0.99999998245E-14  0.12500000000E+03  0.12500000000E+03 0.  0.
        -11    1    3    3    0    0  0.44887942343E+02  0.10296536464E+02  0.10953469078E+02  0.47338404241E+02  0.51100000000E-03 0. -1.
         23    2    1    0    0    0  0.18686732165E+02 -0.18967258447E+02 -0.15020851067E+02  0.94429150833E+02  0.89343649513E+02 0.  0.
         11    1    3    3    0    0 -0.26201210178E+02 -0.29263794911E+02 -0.25974320145E+02  0.47090746592E+02  0.51100000000E-03 0.  1.
         22    1    1    0    0    0 -0.18686732165E+02  0.18967258447E+02  0.15020851067E+02  0.30570849167E+02  0.00000000000E+00 0.  1.
</event>
<event>
 5    1  0.3183396E-003  0.9118800E+02  0.7818608E-02  0.1130116E+00
         25   -1    0    0    0    0  0.00000000000E+00  0.00000000000E+00  0.99999998245E-14  0.12500000000E+03  0.12500000000E+03 0.  0.
        -11    1    3    3    0    0 -0.14647932827E+01 -0.40908446569E+02 -0.10471589526E+02  0.42252820113E+02  0.51100000000E-03 0. -1.
         23    2    1    0    0    0 -0.26443031624E+02  0.73935790442E+00  0.12224712875E+02  0.95858548828E+02  0.91321614128E+02 0.  0.
         11    1    3    3    0    0 -0.24978238341E+02  0.41647804474E+02  0.22696302401E+02  0.53605728714E+02  0.51100000000E-03 0.  1.
         22    1    1    0    0    0  0.26443031624E+02 -0.73935790442E+00 -0.12224712875E+02  0.29141451172E+02  0.00000000000E+00 0.  1.
</event>
<event>
 5    1  0.3183396E-003  0.9118800E+02  0.7818608E-02  0.1130116E+00
         25   -1    0    0    0    0  0.00000000000E+00  0.00000000000E+00  0.99999998245E-14  0.12500000000E+03  0.12500000000E+03 0.  0.
        -11    1    3    3    0    0 -0.16474529540E+02  0.12803695892E+02  0.43413697972E+02  0.48167353300E+02  0.51100000000E-03 0. -1.
         23    2    1    0    0    0  0.21501825142E+02  0.11250793789E+02  0.10077971596E+02  0.98723121251E+02  0.95161863752E+02 0.  0.
         11    1    3    3    0    0  0.37976354681E+02 -0.15529021030E+01 -0.33335726376E+02  0.50555767951E+02  0.51100000000E-03 0.  1.
         22    1    1    0    0    0 -0.21501825142E+02 -0.11250793789E+02 -0.10077971596E+02  0.26276878749E+02  0.00000000000E+00 0.  1.
</event>
<event>
 5    1  0.3183396E-003  0.9118800E+02  0.7818608E-02  0.1130116E+00
         25   -1    0    0    0    0  0.00000000000E+00  0.00000000000E+00  0.99999998245E-14  0.12500000000E+03  0.12500000000E+03 0.  0.
        -11    1    3    3    0    0  0.31528889901E+02 -0.35089059064E+02  0.20865727145E+02  0.51581891531E+02  0.51100000000E-03 0.  1.
         23    2    1    0    0    0  0.25609691371E+01 -0.27109001285E+02 -0.11228348828E+02  0.95546098204E+02  0.90892929049E+02 0.  0.
         11    1    3    3    0    0 -0.28967920764E+02  0.79800577789E+01 -0.32094075973E+02  0.43964206673E+02  0.51100000000E-03 0. -1.
         22    1    1    0    0    0 -0.25609691371E+01  0.27109001285E+02  0.11228348828E+02  0.29453901796E+02  0.00000000000E+00 0.  1.
</event>
<event>
 5    1  0.3183396E-003  0.9118800E+02  0.7818608E-02  0.1130116E+00
         25   -1    0    0    0    0  0.00000000000E+00  0.00000000000E+00  0.99999998245E-14  0.12500000000E+03  0.12500000000E+03 0.  0.
        -11    1    3    3    0    0  0.14145675006E+02  0.31253960561E+02  0.11015640776E+02  0.36031299089E+02  0.51100000000E-03 0.  1.
         23    2    1    0    0    0 -0.12026727492E+02 -0.23343656441E+02  0.10873645452E+02  0.96578095848E+02  0.92301267391E+02 0.  0.
         11    1    3    3    0    0 -0.26172402498E+02 -0.54597617002E+02 -0.14199532393E+00  0.60546796759E+02  0.51100000000E-03 0. -1.
         22    1    1    0    0    0  0.12026727492E+02  0.23343656441E+02 -0.10873645452E+02  0.28421904152E+02  0.00000000000E+00 0. -1.
</event>
<event>
 5    1  0.3183396E-003  0.9118800E+02  0.7818608E-02  0.1130116E+00
         25   -1    0    0    0    0  0.00000000000E+00  0.00000000000E+00  0.99999998245E-14  0.12500000000E+03  0.12500000000E+03 0.  0.
        -11    1    3    3    0    0 -0.30053297230E+02  0.27124136629E+02  0.38789189660E+02  0.56067108870E+02  0.51100000000E-03 0.  1.
         23    2    1    0    0    0 -0.17943778304E+01  0.26447886273E+02  0.93224505905E+01  0.96899847596E+02  0.92735979528E+02 0.  0.
         11    1    3    3    0    0  0.28258919400E+02 -0.67625035615E+00 -0.29466739070E+02  0.40832738726E+02  0.51100000000E-03 0. -1.
         22    1    1    0    0    0  0.17943778304E+01 -0.26447886273E+02 -0.93224505905E+01  0.28100152404E+02  0.00000000000E+00 0.  1.
</event>
<event>
 5    1  0.3183396E-003  0.9118800E+02  0.7818608E-02  0.1130116E+00
         25   -1    0    0    0    0  0.00000000000E+00  0.00000000000E+00  0.99999998245E-14  0.12500000000E+03  0.12500000000E+03 0.  0.
        -11    1    3    3    0    0  0.47438267884E+02  0.24193749614E+02 -0.24518014543E+02  0.58624737249E+02  0.51100000000E-03 0.  1.
         23    2    1    0    0    0  0.29524857682E+02  0.16120481421E+01 -0.17087954684E+01  0.95381831550E+02  0.90666740802E+02 0.  0.
         11    1    3    3    0    0 -0.17913410202E+02 -0.22581701472E+02  0.22809219074E+02  0.36757094301E+02  0.51100000000E-03 0. -1.
         22    1    1    0    0    0 -0.29524857682E+02 -0.16120481421E+01  0.17087954684E+01  0.29618168450E+02  0.00000000000E+00 0.  1.
</event>
<event>
 5    1  0.3183396E-003  0.9118800E+02  0.7818608E-02  0.1130116E+00
         25   -1    0    0    0    0  0.00000000000E+00  0.00000000000E+00  0.99999998245E-14  0.12500000000E+03  0.12500000000E+03 0.  0.
        -11    1    3    3    0    0 -0.12577925863E+02  0.24701953976E+01 -0.59068390473E+02  0.60443203403E+02  0.51100000000E-03 0. -1.
         23    2    1    0    0    0 -0.15095378253E+02  0.85531866827E+01 -0.29150403374E+02  0.91076947898E+02  0.84523588273E+02 0.  0.
         11    1    3    3    0    0 -0.25174523898E+01  0.60829912851E+01  0.29917987098E+02  0.30633744495E+02  0.51100000000E-03 0.  1.
         22    1    1    0    0    0  0.15095378253E+02 -0.85531866827E+01  0.29150403374E+02  0.33923052102E+02  0.00000000000E+00 0. -1.
</event>
<event>
 5    1  0.3183396E-003  0.9118800E+02  0.7818608E-02  0.1130116E+00
         25   -1    0    0    0    0  0.00000000000E+00  0.00000000000E+00  0.99999998245E-14  0.12500000000E+03  0.12500000000E+03 0.  0.
        -11    1    3    3    0    0  0.15549979292E+02  0.35608405695E+02  0.65252012928E+00  0.38861114175E+02  0.51100000000E-03 0.  1.
         23    2    1    0    0    0 -0.28259185196E+02  0.16146779717E+00 -0.74010448742E+01  0.95787278712E+02  0.91224008233E+02 0.  0.
         11    1    3    3    0    0 -0.43809164488E+02 -0.35446937898E+02 -0.80535650035E+01  0.56926164538E+02  0.51100000000E-03 0. -1.
         22    1    1    0    0    0  0.28259185196E+02 -0.16146779717E+00  0.74010448742E+01  0.29212721288E+02  0.00000000000E+00 0. -1.
</event>
<event>
 5    1  0.3183396E-003  0.9118800E+02  0.7818608E-02  0.1130116E+00
         25   -1    0    0    0    0  0.00000000000E+00  0.00000000000E+00  0.99999998245E-14  0.12500000000E+03  0.12500000000E+03 0.  0.
        -11    1    3    3    0    0 -0.12436494553E+02  0.13154607575E+02 -0.57889007729E+02  0.60653502070E+02  0.51100000000E-03 0.  1.
         23    2    1    0    0    0 -0.31154698218E+00 -0.26046434089E+01 -0.29892685887E+02  0.94992435981E+02  0.90128291870E+02 0.  0.
         11    1    3    3    0    0  0.12124947571E+02 -0.15759250984E+02  0.27996321843E+02  0.34338933911E+02  0.51100000000E-03 0. -1.
         22    1    1    0    0    0  0.31154698218E+00  0.26046434089E+01  0.29892685887E+02  0.30007564019E+02  0.00000000000E+00 0.  1.
</event>
<event>
 5    1  0.3183396E-003  0.9118800E+02  0.7818608E-02  0.1130116E+00
         25   -1    0    0    0    0  0.00000000000E+00  0.00000000000E+00  0.99999998245E-14  0.12500000000E+03  0.12500000000E+03 0.  0.
        -11    1    3    3    0    0 -0.25039831293E+02 -0.15759435466E+02  0.24891549037E+02  0.38664482036E+02  0.51100000000E-03 0.  1.
         23    2    1    0    0    0  0.40650315662E+00  0.15006131113E+02 -0.20804323306E+02  0.99345193744E+02  0.95975509563E+02 0.  0.
         11    1    3    3    0    0  0.25446334450E+02  0.30765566579E+02 -0.45695872344E+02  0.60680711708E+02  0.51100000000E-03 0. -1.
         22    1    1    0    0    0 -0.40650315662E+00 -0.15006131113E+02  0.20804323306E+02  0.25654806256E+02  0.00000000000E+00 0. -1.
</event>
<event>
 5    1  0.3183396E-003  0.9118800E+02  0.7818608E-02  0.1130116E+00
         25   -1    0    0    0    0  0.00000000000E+00  0.00000000000E+00  0.99999998245E-14  0.12500000000E+03  0.12500000000E+03 0.  0.
        -11    1    3    3    0    0  0.44887680978E+01  0.22286143648E+02  0.28762294724E+02  0.36661844413E+02  0.51100000000E-03 0.  1.
         23    2    1    0    0    0  0.15182638300E+02 -0.34652897479E+00 -0.24876633034E+02  0.95854169095E+02  0.91315619002E+02 0.  0.
         11    1    3    3    0    0  0.10693870202E+02 -0.22632672623E+02 -0.53638927758E+02  0.59192324681E+02  0.51100000000E-03 0. -1.
         22    1    1    0    0    0 -0.15182638300E+02  0.34652897479E+00  0.24876633034E+02  0.29145830905E+02  0.00000000000E+00 0. -1.
</event>
<event>
 5    1  0.3183396E-003  0.9118800E+02  0.7818608E-02  0.1130116E+00
         25   -1    0    0    0    0  0.00000000000E+00  0.00000000000E+00  0.99999998245E-14  0.12500000000E+03  0.12500000000E+03 0.  0.
        -11    1    3    3    0    0 -0.14156988477E+02  0.43165371294E+02  0.23525047167E+01  0.45488502728E+02  0.51100000000E-03 0.  1.
         23    2    1    0    0    0  0.12082570087E+02  0.98689254955E+01 -0.24705779385E+02  0.95780832911E+02  0.91215175425E+02 0.  0.
         11    1    3    3    0    0  0.26239558564E+02 -0.33296445799E+02 -0.27058284102E+02  0.50292330183E+02  0.51100000000E-03 0. -1.
         22    1    1    0    0    0 -0.12082570087E+02 -0.98689254955E+01  0.24705779385E+02  0.29219167089E+02  0.00000000000E+00 0.  1.
</event>
<event>
 5    1  0.3183396E-003  0.9118800E+02  0.7818608E-02  0.1130116E+00
         25   -1    0    0    0    0  0.00000000000E+00  0.00000000000E+00  0.99999998245E-14  0.12500000000E+03  0.12500000000E+03 0.  0.
        -11    1    3    3    0    0 -0.17134617373E+02  0.14873490350E+02  0.17235479717E+02  0.28493465725E+02  0.51100000000E-03 0.  1.
         23    2    1    0    0    0  0.24092774412E+02 -0.19648865724E+02 -0.14244313584E+02  0.90802921578E+02  0.84117360839E+02 0.  0.
         11    1    3    3    0    0  0.41227391784E+02 -0.34522356074E+02 -0.31479793301E+02  0.62309455853E+02  0.51100000000E-03 0. -1.
         22    1    1    0    0    0 -0.24092774412E+02  0.19648865724E+02  0.14244313584E+02  0.34197078422E+02  0.00000000000E+00 0. -1.
</event>
<event>
 5    1  0.3183396E-003  0.9118800E+02  0.7818608E-02  0.1130116E+00
         25   -1    0    0    0    0  0.00000000000E+00  0.00000000000E+00  0.99999998245E-14  0.12500000000E+03  0.12500000000E+03 0.  0.
        -11    1    3    3    0    0  0.29358718605E+01 -0.37878486293E+02 -0.31312195315E+02  0.49232637987E+02  0.51100000000E-03 0.  1.
         23    2    1    0    0    0  0.23696859465E+02 -0.57506521682E+01 -0.28359584830E+02  0.87598433180E+02  0.79212425130E+02 0.  0.
         11    1    3    3    0    0  0.20760987605E+02  0.32127834125E+02  0.29526104849E+01  0.38365795193E+02  0.51100000000E-03 0. -1.
         22    1    1    0    0    0 -0.23696859465E+02  0.57506521682E+01  0.28359584830E+02  0.37401566820E+02  0.00000000000E+00 0. -1.
</event>
<event>
 5    1  0.3183396E-003  0.9118800E+02  0.7818608E-02  0.1130116E+00
         25   -1    0    0    0    0  0.00000000000E+00  0.00000000000E+00  0.99999998245E-14  0.12500000000E+03  0.12500000000E+03 0.  0.
        -11    1    3    3    0    0 -0.33183569051E+02 -0.30125617448E+02 -0.39572793121E+02  0.59788862150E+02  0.51100000000E-03 0.  1.
         23    2    1    0    0    0 -0.25271728231E+02 -0.74211091007E+01 -0.12989939294E+02  0.95632132679E+02  0.91011170577E+02 0.  0.
         11    1    3    3    0    0  0.79118408196E+01  0.22704508347E+02  0.26582853826E+02  0.35843270529E+02  0.51100000000E-03 0. -1.
         22    1    1    0    0    0  0.25271728231E+02  0.74211091007E+01  0.12989939294E+02  0.29367867321E+02  0.00000000000E+00 0.  1.
</event>
<event>
 5    1  0.3183396E-003  0.9118800E+02  0.7818608E-02  0.1130116E+00
         25   -1    0    0    0    0  0.00000000000E+00  0.00000000000E+00  0.99999998245E-14  0.12500000000E+03  0.12500000000E+03 0.  0.
        -11    1    3    3    0    0 -0.31326764515E+02  0.46386728598E+02  0.44096326643E+00  0.55975791320E+02  0.51100000000E-03 0.  1.
         23    2    1    0    0    0  0.11227574539E+01  0.25838010318E+02 -0.12191034089E+02  0.96408311108E+02  0.92071047442E+02 0.  0.
         11    1    3    3    0    0  0.32449521969E+02 -0.20548718280E+02 -0.12631997355E+02  0.40432519788E+02  0.51100000000E-03 0. -1.
         22    1    1    0    0    0 -0.11227574539E+01 -0.25838010318E+02  0.12191034089E+02  0.28591688892E+02  0.00000000000E+00 0.  1.
</event>
<event>
 5    1  0.3183396E-003  0.9118800E+02  0.7818608E-02  0.1130116E+00
         25   -1    0    0    0    0  0.00000000000E+00  0.00000000000E+00  0.99999998245E-14  0.12500000000E+03  0.12500000000E+03 0.  0.
        -11    1    3    3    0    0 -0.23581575105E+02 -0.73540815225E+01  0.52599748320E+02  0.58111158335E+02  0.51100000000E-03 0. -1.
         23    2    1    0    0    0 -0.90150644914E+01  0.12913452912E+02  0.26117341480E+02  0.94501734806E+02  0.89445143532E+02 0.  0.
         11    1    3    3    0    0  0.14566510613E+02  0.20267534434E+02 -0.26482406841E+02  0.36390576470E+02  0.51100000000E-03 0.  1.
         22    1    1    0    0    0  0.90150644914E+01 -0.12913452912E+02 -0.26117341480E+02  0.30498265194E+02  0.00000000000E+00 0. -1.
</event>
<event>
 5    1  0.3183396E-003  0.9118800E+02  0.7818608E-02  0.1130116E+00
         25   -1    0    0    0    0  0.00000000000E+00  0.00000000000E+00  0.99999998245E-14  0.12500000000E+03  0.12500000000E+03 0.  0.
        -11    1    3    3    0    0 -0.48590589888E+01 -0.18099707449E+02 -0.38589469902E+02  0.42899382881E+02  0.51100000000E-03 0.  1.
         23    2    1    0    0    0 -0.26697435757E+02 -0.83870496276E+01  0.85392867167E+01  0.95742264355E+02  0.91162306294E+02 0.  0.
         11    1    3    3    0    0 -0.21838376768E+02  0.97126578216E+01  0.47128756619E+02  0.52842881474E+02  0.51100000000E-03 0. -1.
         22    1    1    0    0    0  0.26697435757E+02  0.83870496276E+01 -0.85392867167E+01  0.29257735645E+02  0.00000000000E+00 0. -1.
</event>
<event>
 5    1  0.3183396E-003  0.9118800E+02  0.7818608E-02  0.1130116E+00
         25   -1    0    0    0    0  0.00000000000E+00  0.00000000000E+00  0.99999998245E-14  0.12500000000E+03  0.12500000000E+03 0.  0.
        -11    1    3    3    0    0  0.49274493681E+01  0.27108775208E+02  0.26256751139E+02  0.38060247387E+02  0.51100000000E-03 0.  1.
         23    2    1    0    0    0 -0.28543570025E+02  0.25765273549E+01 -0.11456414056E+02  0.94135403680E+02  0.88931720550E+02 0.  0.
         11    1    3    3    0    0 -0.33471019393E+02 -0.24532247853E+02 -0.37713165195E+02  0.56075156293E+02  0.51100000000E-03 0. -1.
         22    1    1    0    0    0  0.28543570025E+02 -0.25765273549E+01  0.11456414056E+02  0.30864596320E+02  0.00000000000E+00 0. -1.
</event>
<event>
 5    1  0.3183396E-003  0.9118800E+02  0.7818608E-02  0.1130116E+00
         25   -1    0    0    0    0  0.00000000000E+00  0.00000000000E+00  0.99999998245E-14  0.12500000000E+03  0.12500000000E+03 0.  0.
        -11    1    3    3    0    0  0.85426401865E+01 -0.29006355151E+02  0.50073108945E+02  0.58494970555E+02  0.51100000000E-03 0.  1.
         23    2    1    0    0    0 -0.11006895712E+02 -0.18513699704E+02  0.23215257926E+02  0.93332081999E+02  0.87795333018E+02 0.  0.
         11    1    3    3    0    0 -0.19549535898E+02  0.10492655446E+02 -0.26857851019E+02  0.34837111445E+02  0.51100000000E-03 0. -1.
         22    1    1    0    0    0  0.11006895712E+02  0.18513699704E+02 -0.23215257926E+02  0.31667918001E+02  0.00000000000E+00 0.  1.
</event>
<event>
 5    1  0.3183396E-003  0.9118800E+02  0.7818608E-02  0.1130116E+00
         25   -1    0    0    0    0  0.00000000000E+00  0.00000000000E+00  0.99999998245E-14  0.12500000000E+03  0.12500000000E+03 0.  0.
        -11    1    3    3    0    0 -0.17418624960E+02 -0.74967517083E+01 -0.37606924887E+02  0.42117580431E+02  0.51100000000E-03 0.  1.
         23    2    1    0    0    0  0.25257622631E+02  0.99615676054E+01 -0.89246682685E+01  0.96419761480E+02  0.92086591696E+02 0.  0.
         11    1    3    3    0    0  0.42676247591E+02  0.17458319314E+02  0.28682256618E+02  0.54302181049E+02  0.51100000000E-03 0. -1.
         22    1    1    0    0    0 -0.25257622631E+02 -0.99615676054E+01  0.89246682685E+01  0.28580238520E+02  0.00000000000E+00 0. -1.
</event>
<event>
 5    1  0.3183396E-003  0.9118800E+02  0.7818608E-02  0.1130116E+00
         25   -1    0    0    0    0  0.00000000000E+00  0.00000000000E+00  0.99999998245E-14  0.12500000000E+03  0.12500000000E+03 0.  0.
        -11    1    3    3    0    0 -0.50493682792E+02  0.10133659353E+02 -0.22697222079E+02  0.56280253590E+02  0.51100000000E-03 0.  1.
         23    2    1    0    0    0 -0.12395868344E+02  0.52128875676E+00 -0.26483895518E+02  0.95754042744E+02  0.91178455164E+02 0.  0.
         11    1    3    3    0    0  0.38097814448E+02 -0.96123705964E+01 -0.37866734390E+01  0.39473789154E+02  0.51100000000E-03 0. -1.
         22    1    1    0    0    0  0.12395868344E+02 -0.52128875676E+00  0.26483895518E+02  0.29245957256E+02  0.00000000000E+00 0.  1.
</event>
<event>
 5    1  0.3183396E-003  0.9118800E+02  0.7818608E-02  0.1130116E+00
         25   -1    0    0    0    0  0.00000000000E+00  0.00000000000E+00  0.99999998245E-14  0.12500000000E+03  0.12500000000E+03 0.  0.
        -11    1    3    3    0    0 -0.16893211261E+02  0.52774049894E+01  0.33531002334E+02  0.37915164616E+02  0.51100000000E-03 0.  1.
         23    2    1    0    0    0  0.40855484450E+01 -0.24625996774E+02 -0.12826417500E+02  0.96934925457E+02  0.92783249374E+02 0.  0.
         11    1    3    3    0    0  0.20978759706E+02 -0.29903401763E+02 -0.46357419834E+02  0.59019760841E+02  0.51100000000E-03 0. -1.
         22    1    1    0    0    0 -0.40855484450E+01  0.24625996774E+02  0.12826417500E+02  0.28065074543E+02  0.00000000000E+00 0. -1.
</event>
<event>
 5    1  0.3183396E-003  0.9118800E+02  0.7818608E-02  0.1130116E+00
         25   -1    0    0    0    0  0.00000000000E+00  0.00000000000E+00  0.99999998245E-14  0.12500000000E+03  0.12500000000E+03 0.  0.
        -11    1    3    3    0    0 -0.34038196267E+02  0.48011232888E+02 -0.97926265150E+01  0.59662155701E+02  0.51100000000E-03 0.  1.
         23    2    1    0    0    0 -0.51193798588E+01  0.26502613313E+02 -0.11308050196E+02  0.95734515862E+02  0.91151681090E+02 0.  0.
         11    1    3    3    0    0  0.28918816408E+02 -0.21508619574E+02 -0.15154236808E+01  0.36072360162E+02  0.51100000000E-03 0. -1.
         22    1    1    0    0    0  0.51193798588E+01 -0.26502613313E+02  0.11308050196E+02  0.29265484138E+02  0.00000000000E+00 0.  1.
</event>
<event>
 5    1  0.3183396E-003  0.9118800E+02  0.7818608E-02  0.1130116E+00
         25   -1    0    0    0    0  0.00000000000E+00  0.00000000000E+00  0.99999998245E-14  0.12500000000E+03  0.12500000000E+03 0.  0.
        -11    1    3    3    0    0 -0.13791385428E+02  0.42209629929E+02 -0.81124409826E+01  0.45140523588E+02  0.51100000000E-03 0.  1.
         23    2    1    0    0    0 -0.18933965666E+02  0.18985247700E+01  0.22142674459E+02  0.95804152961E+02  0.91247127299E+02 0.  0.
         11    1    3    3    0    0 -0.51425802375E+01 -0.40311105159E+02  0.30255115441E+02  0.50663629374E+02  0.51100000000E-03 0. -1.
         22    1    1    0    0    0  0.18933965666E+02 -0.18985247700E+01 -0.22142674459E+02  0.29195847039E+02  0.00000000000E+00 0.  1.
</event>
<event>
 5    1  0.3183396E-003  0.9118800E+02  0.7818608E-02  0.1130116E+00
         25   -1    0    0    0    0  0.00000000000E+00  0.00000000000E+00  0.99999998245E-14  0.12500000000E+03  0.12500000000E+03 0.  0.
        -11    1    3    3    0    0 -0.90206554910E+01  0.35971913061E+02  0.26490007548E+01  0.37180209252E+02  0.51100000000E-03 0.  1.
         23    2    1    0    0    0  0.26138310568E+02 -0.10226457630E+02 -0.70992795625E+01  0.96048463161E+02  0.91581197799E+02 0.  0.
         11    1    3    3    0    0  0.35158966059E+02 -0.46198370692E+02 -0.97482803174E+01  0.58868253909E+02  0.51100000000E-03 0. -1.
         22    1    1    0    0    0 -0.26138310568E+02  0.10226457630E+02  0.70992795625E+01  0.28951536839E+02  0.00000000000E+00 0. -1.
</event>
<event>
 5    1  0.3183396E-003  0.9118800E+02  0.7818608E-02  0.1130116E+00
         25   -1    0    0    0    0  0.00000000000E+00  0.00000000000E+00  0.99999998245E-14  0.12500000000E+03  0.12500000000E+03 0.  0.
        -11    1    3    3    0    0  0.30688672870E+02  0.26571414935E+02  0.23176722580E+02  0.46743932269E+02  0.51100000000E-03 0.  1.
         23    2    1    0    0    0  0.22780717721E+02  0.85975575713E+01 -0.19554373111E+02  0.93770965371E+02  0.88417992189E+02 0.  0.
         11    1    3    3    0    0 -0.79079551484E+01 -0.17973857364E+02 -0.42731095691E+02  0.47027033102E+02  0.51100000000E-03 0. -1.
         22    1    1    0    0    0 -0.22780717721E+02 -0.85975575713E+01  0.19554373111E+02  0.31229034629E+02  0.00000000000E+00 0.  1.
</event>
<event>
 5    1  0.3183396E-003  0.9118800E+02  0.7818608E-02  0.1130116E+00
         25   -1    0    0    0    0  0.00000000000E+00  0.00000000000E+00  0.99999998245E-14  0.12500000000E+03  0.12500000000E+03 0.  0.
        -11    1    3    3    0    0  0.12666074511E+02 -0.45933863437E+02  0.32378359455E+02  0.57608223502E+02  0.51100000000E-03 0. -1.
         23    2    1    0    0    0  0.69593685249E+01 -0.28112938360E+02 -0.11618001653E+01  0.96015178229E+02  0.91535755621E+02 0.  0.
         11    1    3    3    0    0 -0.57067059864E+01  0.17820925077E+02 -0.33540159620E+02  0.38406954727E+02  0.51100000000E-03 0.  1.
         22    1    1    0    0    0 -0.69593685249E+01  0.28112938360E+02  0.11618001653E+01  0.28984821771E+02  0.00000000000E+00 0. -1.
</event>
<event>
 5    1  0.3183396E-003  0.9118800E+02  0.7818608E-02  0.1130116E+00
         25   -1    0    0    0    0  0.00000000000E+00  0.00000000000E+00  0.99999998245E-14  0.12500000000E+03  0.12500000000E+03 0.  0.
        -11    1    3    3    0    0 -0.22966079180E+02 -0.15654811915E+02 -0.36351256647E+02  0.45759455734E+02  0.51100000000E-03 0.  1.
         23    2    1    0    0    0 -0.22636319734E+02  0.18490931979E+02  0.18752748226E+00  0.95770687605E+02  0.91201271379E+02 0.  0.
         11    1    3    3    0    0  0.32975944597E+00  0.34145743894E+02  0.36538784129E+02  0.50011231871E+02  0.51100000000E-03 0. -1.
         22    1    1    0    0    0  0.22636319734E+02 -0.18490931979E+02 -0.18752748226E+00  0.29229312395E+02  0.00000000000E+00 0.  1.
</event>
<event>
 5    1  0.3183396E-003  0.9118800E+02  0.7818608E-02  0.1130116E+00
         25   -1    0    0    0    0  0.00000000000E+00  0.00000000000E+00  0.99999998245E-14  0.12500000000E+03  0.12500000000E+03 0.  0.
        -11    1    3    3    0    0  0.29865825510E+02 -0.16504190089E+02  0.11802170895E+02  0.36106052982E+02  0.51100000000E-03 0.  1.
         23    2    1    0    0    0 -0.81148597706E+01  0.27674699273E+02 -0.23611935542E+01  0.96063601400E+02  0.91601857787E+02 0.  0.
         11    1    3    3    0    0 -0.37980685280E+02  0.44178889361E+02 -0.14163364449E+02  0.59957548418E+02  0.51100000000E-03 0. -1.
         22    1    1    0    0    0  0.81148597706E+01 -0.27674699273E+02  0.23611935542E+01  0.28936398600E+02  0.00000000000E+00 0. -1.
</event>
<event>
 5    1  0.3183396E-003  0.9118800E+02  0.7818608E-02  0.1130116E+00
         25   -1    0    0    0    0  0.00000000000E+00  0.00000000000E+00  0.99999998245E-14  0.12500000000E+03  0.12500000000E+03 0.  0.
        -11    1    3    3    0    0 -0.20990870142E+02  0.25882654743E+02 -0.33790386110E+01  0.33495467575E+02  0.51100000000E-03 0. -1.
         23    2    1    0    0    0  0.18822017014E+02 -0.14409156816E+02  0.19221967276E+02  0.94481544099E+02  0.89416922474E+02 0.  0.
         11    1    3    3    0    0  0.39812887156E+02 -0.40291811559E+02  0.22601005887E+02  0.60986076524E+02  0.51100000000E-03 0.  1.
         22    1    1    0    0    0 -0.18822017014E+02  0.14409156816E+02 -0.19221967276E+02  0.30518455901E+02  0.00000000000E+00 0.  1.
</event>
<event>
 5    1  0.3183396E-003  0.9118800E+02  0.7818608E-02  0.1130116E+00
         25   -1    0    0    0    0  0.00000000000E+00  0.00000000000E+00  0.99999998245E-14  0.12500000000E+03  0.12500000000E+03 0.  0.
        -11    1    3    3    0    0  0.44291837785E+01 -0.36457560237E+02  0.10697002499E+02  0.38251761137E+02  0.51100000000E-03 0.  1.
         23    2    1    0    0    0 -0.20676665834E+02  0.12242502914E+02 -0.12691066719E+02  0.97825258749E+02  0.93975074818E+02 0.  0.
         11    1    3    3    0    0 -0.25105849612E+02  0.48700063151E+02 -0.23388069218E+02  0.59573497612E+02  0.51100000000E-03 0. -1.
         22    1    1    0    0    0  0.20676665834E+02 -0.12242502914E+02  0.12691066719E+02  0.27174741251E+02  0.00000000000E+00 0. -1.
</event>
<event>
 5    1  0.3183396E-003  0.9118800E+02  0.7818608E-02  0.1130116E+00
         25   -1    0    0    0    0  0.00000000000E+00  0.00000000000E+00  0.99999998245E-14  0.12500000000E+03  0.12500000000E+03 0.  0.
        -11    1    3    3    0    0  0.87536264506E+01 -0.89537837130E+01 -0.50171848126E+02  0.51710836035E+02  0.51100000000E-03 0. -1.
         23    2    1    0    0    0  0.27420923467E+02 -0.36204837816E+01 -0.11376387429E+02  0.95092858085E+02  0.90267461032E+02 0.  0.
         11    1    3    3    0    0  0.18667297017E+02  0.53332999313E+01  0.38795460698E+02  0.43382022049E+02  0.51100000000E-03 0.  1.
         22    1    1    0    0    0 -0.27420923467E+02  0.36204837816E+01  0.11376387429E+02  0.29907141915E+02  0.00000000000E+00 0. -1.
</event>
<event>
 5    1  0.3183396E-003  0.9118800E+02  0.7818608E-02  0.1130116E+00
         25   -1    0    0    0    0  0.00000000000E+00  0.00000000000E+00  0.99999998245E-14  0.12500000000E+03  0.12500000000E+03 0.  0.
        -11    1    3    3    0    0  0.11992560189E+02  0.29570523750E+02  0.17917627700E+02  0.36596157686E+02  0.51100000000E-03 0. -1.
         23    2    1    0    0    0 -0.18221339417E+02 -0.20833114412E+02  0.35213673774E+01  0.97099535946E+02  0.93004752494E+02 0.  0.
         11    1    3    3    0    0 -0.30213899606E+02 -0.50403638162E+02 -0.14396260323E+02  0.60503378260E+02  0.51100000000E-03 0.  1.
         22    1    1    0    0    0  0.18221339417E+02  0.20833114412E+02 -0.35213673774E+01  0.27900464054E+02  0.00000000000E+00 0.  1.
</event>
<event>
 5    1  0.3183396E-003  0.9118800E+02  0.7818608E-02  0.1130116E+00
         25   -1    0    0    0    0  0.00000000000E+00  0.00000000000E+00  0.99999998245E-14  0.12500000000E+03  0.12500000000E+03 0.  0.
        -11    1    3    3    0    0 -0.17155486973E+02  0.81239669708E+00  0.36115643309E+02  0.39991379241E+02  0.51100000000E-03 0.  1.
         23    2    1    0    0    0 -0.24502979696E+01  0.27646127338E+02 -0.10139348005E+02  0.95451418056E+02  0.90762627298E+02 0.  0.
         11    1    3    3    0    0  0.14705189003E+02  0.26833730641E+02 -0.46254991314E+02  0.55460038816E+02  0.51100000000E-03 0. -1.
         22    1    1    0    0    0  0.24502979696E+01 -0.27646127338E+02  0.10139348005E+02  0.29548581944E+02  0.00000000000E+00 0. -1.
</event>
<event>
 5    1  0.3183396E-003  0.9118800E+02  0.7818608E-02  0.1130116E+00
         25   -1    0    0    0    0  0.00000000000E+00  0.00000000000E+00  0.99999998245E-14  0.12500000000E+03  0.12500000000E+03 0.  0.
        -11    1    3    3    0    0 -0.21663584154E+02  0.38953260322E+02  0.55418407414E+01  0.44915246489E+02  0.51100000000E-03 0.  1.
         23    2    1    0    0    0 -0.25532654617E+02 -0.11773143613E+02  0.77445146215E+01  0.95836651957E+02  0.91291637018E+02 0.  0.
         11    1    3    3    0    0 -0.38690704634E+01 -0.50726403935E+02  0.22026738802E+01  0.50921405469E+02  0.51100000000E-03 0. -1.
         22    1    1    0    0    0  0.25532654617E+02  0.11773143613E+02 -0.77445146215E+01  0.29163348043E+02  0.00000000000E+00 0.  1.
</event>
<event>
 5    1  0.3183396E-003  0.9118800E+02  0.7818608E-02  0.1130116E+00
         25   -1    0    0    0    0  0.00000000000E+00  0.00000000000E+00  0.99999998245E-14  0.12500000000E+03  0.12500000000E+03 0.  0.
        -11    1    3    3    0    0  0.16441714038E+02 -0.11398623681E+02 -0.43273058916E+02  0.47674062241E+02  0.51100000000E-03 0. -1.
         23    2    1    0    0    0 -0.19689193744E+02 -0.16527110006E+02 -0.89271058991E+01  0.97787816421E+02  0.93925258079E+02 0.  0.
         11    1    3    3    0    0 -0.36130907782E+02 -0.51284863253E+01  0.34345953017E+02  0.50113754180E+02  0.51100000000E-03 0.  1.
         22    1    1    0    0    0  0.19689193744E+02  0.16527110006E+02  0.89271058991E+01  0.27212183579E+02  0.00000000000E+00 0. -1.
</event>
<event>
 5    1  0.3183396E-003  0.9118800E+02  0.7818608E-02  0.1130116E+00
         25   -1    0    0    0    0  0.00000000000E+00  0.00000000000E+00  0.99999998245E-14  0.12500000000E+03  0.12500000000E+03 0.  0.
        -11    1    3    3    0    0  0.92515196446E+01  0.19016521383E+02  0.24258318373E+02  0.32182055742E+02  0.51100000000E-03 0. -1.
         23    2    1    0    0    0  0.90884380688E+01 -0.11033749992E+01 -0.31887511667E+02  0.91824247662E+02  0.85621620607E+02 0.  0.
         11    1    3    3    0    0 -0.16308157582E+00 -0.20119896382E+02 -0.56145830039E+02  0.59642191920E+02  0.51100000000E-03 0.  1.
         22    1    1    0    0    0 -0.90884380688E+01  0.11033749992E+01  0.31887511667E+02  0.33175752338E+02  0.00000000000E+00 0.  1.
</event>
<event>
 5    1  0.3183396E-003  0.9118800E+02  0.7818608E-02  0.1130116E+00
         25   -1    0    0    0    0  0.00000000000E+00  0.00000000000E+00  0.99999998245E-14  0.12500000000E+03  0.12500000000E+03 0.  0.
        -11    1    3    3    0    0  0.22615780553E+02 -0.35227010166E+02 -0.46228641884E+02  0.62365880945E+02  0.51100000000E-03 0. -1.
         23    2    1    0    0    0  0.11444662709E+02 -0.13583090494E+02 -0.22051969324E+02  0.96684456513E+02  0.92445195269E+02 0.  0.
         11    1    3    3    0    0 -0.11171117845E+02  0.21643919672E+02  0.24176672561E+02  0.34318575568E+02  0.51100000000E-03 0.  1.
         22    1    1    0    0    0 -0.11444662709E+02  0.13583090494E+02  0.22051969324E+02  0.28315543487E+02  0.00000000000E+00 0. -1.
</event>
<event>
 5    1  0.3183396E-003  0.9118800E+02  0.7818608E-02  0.1130116E+00
         25   -1    0    0    0    0  0.00000000000E+00  0.00000000000E+00  0.99999998245E-14  0.12500000000E+03  0.12500000000E+03 0.  0.
        -11    1    3    3    0    0  0.48477818633E+02 -0.11008329041E+02  0.16044540528E+02  0.52237050919E+02  0.51100000000E-03 0.  1.
         23    2    1    0    0    0  0.53884736447E+01 -0.12903248048E+02  0.25062353562E+02  0.96300679024E+02  0.91924804901E+02 0.  0.
         11    1    3    3    0    0 -0.43089344988E+02 -0.18949190069E+01  0.90178130339E+01  0.44063628105E+02  0.51100000000E-03 0. -1.
         22    1    1    0    0    0 -0.53884736447E+01  0.12903248048E+02 -0.25062353562E+02  0.28699320976E+02  0.00000000000E+00 0.  1.
</event>
<event>
 5    1  0.3183396E-003  0.9118800E+02  0.7818608E-02  0.1130116E+00
         25   -1    0    0    0    0  0.00000000000E+00  0.00000000000E+00  0.99999998245E-14  0.12500000000E+03  0.12500000000E+03 0.  0.
        -11    1    3    3    0    0  0.29992496214E+02  0.33322833603E+00 -0.36680921424E+02  0.47383022983E+02  0.51100000000E-03 0.  1.
         23    2    1    0    0    0  0.30410370766E+02  0.99146200516E+01  0.71281561001E+01  0.92229572015E+02  0.86211327584E+02 0.  0.
         11    1    3    3    0    0  0.41787455261E+00  0.95813917156E+01  0.43809077524E+02  0.44846549032E+02  0.51100000000E-03 0. -1.
         22    1    1    0    0    0 -0.30410370766E+02 -0.99146200516E+01 -0.71281561001E+01  0.32770427985E+02  0.00000000000E+00 0.  1.
</event>
<event>
 5    1  0.3183396E-003  0.9118800E+02  0.7818608E-02  0.1130116E+00
         25   -1    0    0    0    0  0.00000000000E+00  0.00000000000E+00  0.99999998245E-14  0.12500000000E+03  0.12500000000E+03 0.  0.
        -11    1    3    3    0    0  0.30665757609E+02 -0.24925710853E+02  0.26089691762E+02  0.47353476829E+02  0.51100000000E-03 0. -1.
         23    2    1    0    0    0  0.20827747608E+02 -0.16126286334E+02 -0.17815610821E+02  0.93199871537E+02  0.87606894045E+02 0.  0.
         11    1    3    3    0    0 -0.98380100015E+01  0.87994245192E+01 -0.43905302582E+02  0.45846394708E+02  0.51100000000E-03 0.  1.
         22    1    1    0    0    0 -0.20827747608E+02  0.16126286334E+02  0.17815610821E+02  0.31800128463E+02  0.00000000000E+00 0. -1.
</event>
<event>
 5    1  0.3183396E-003  0.9118800E+02  0.7818608E-02  0.1130116E+00
         25   -1    0    0    0    0  0.00000000000E+00  0.00000000000E+00  0.99999998245E-14  0.12500000000E+03  0.12500000000E+03 0.  0.
        -11    1    3    3    0    0 -0.51949521819E+02 -0.29928411853E+02 -0.13309814661E+02  0.61413466112E+02  0.51100000000E-03 0. -1.
         23    2    1    0    0    0 -0.13584023044E+02 -0.16831124602E+02 -0.41025034304E+01  0.10298539185E+03  0.10060491024E+03 0.  0.
         11    1    3    3    0    0  0.38365498775E+02  0.13097287251E+02  0.92073112309E+01  0.41571925743E+02  0.51100000000E-03 0.  1.
         22    1    1    0    0    0  0.13584023044E+02  0.16831124602E+02  0.41025034304E+01  0.22014608146E+02  0.00000000000E+00 0. -1.
</event>
<event>
 5    1  0.3183396E-003  0.9118800E+02  0.7818608E-02  0.1130116E+00
         25   -1    0    0    0    0  0.00000000000E+00  0.00000000000E+00  0.99999998245E-14  0.12500000000E+03  0.12500000000E+03 0.  0.
        -11    1    3    3    0    0 -0.20173074273E+02  0.17952905565E+02 -0.19416862514E+01  0.27074524735E+02  0.51100000000E-03 0.  1.
         23    2    1    0    0    0  0.45531678910E+01 -0.31741612410E+02  0.20494476750E+02  0.86943661849E+02  0.78172344613E+02 0.  0.
         11    1    3    3    0    0  0.24726242164E+02 -0.49694517975E+02  0.22436163001E+02  0.59869137114E+02  0.51100000000E-03 0. -1.
         22    1    1    0    0    0 -0.45531678910E+01  0.31741612410E+02 -0.20494476750E+02  0.38056338151E+02  0.00000000000E+00 0. -1.
</event>
<event>
 5    1  0.3183396E-003  0.9118800E+02  0.7818608E-02  0.1130116E+00
         25   -1    0    0    0    0  0.00000000000E+00  0.00000000000E+00  0.99999998245E-14  0.12500000000E+03  0.12500000000E+03 0.  0.
        -11    1    3    3    0    0 -0.48479858967E+01  0.33756171717E+02 -0.20116366400E+02  0.39593563790E+02  0.51100000000E-03 0.  1.
         23    2    1    0    0    0 -0.10456935131E+02  0.34231938645E+01  0.26962814654E+02  0.95878545321E+02  0.91348981003E+02 0.  0.
         11    1    3    3    0    0 -0.56089492345E+01 -0.30332977852E+02  0.47079181054E+02  0.56284981530E+02  0.51100000000E-03 0. -1.
         22    1    1    0    0    0  0.10456935131E+02 -0.34231938645E+01 -0.26962814654E+02  0.29121454679E+02  0.00000000000E+00 0.  1.
</event>
<event>
 5    1  0.3183396E-003  0.9118800E+02  0.7818608E-02  0.1130116E+00
         25   -1    0    0    0    0  0.00000000000E+00  0.00000000000E+00  0.99999998245E-14  0.12500000000E+03  0.12500000000E+03 0.  0.
        -11    1    3    3    0    0 -0.11698601868E+02 -0.46770062179E+02 -0.39698148997E+02  0.62451893774E+02  0.51100000000E-03 0.  1.
         23    2    1    0    0    0 -0.41110927825E+01 -0.21294274228E+02 -0.19471624292E+02  0.95853965084E+02  0.91315339736E+02 0.  0.
         11    1    3    3    0    0  0.75875090853E+01  0.25475787952E+02  0.20226524705E+02  0.33402071310E+02  0.51100000000E-03 0. -1.
         22    1    1    0    0    0  0.41110927825E+01  0.21294274228E+02  0.19471624292E+02  0.29146034916E+02  0.00000000000E+00 0.  1.
</event>
<event>
 5    1  0.3183396E-003  0.9118800E+02  0.7818608E-02  0.1130116E+00
         25   -1    0    0    0    0  0.00000000000E+00  0.00000000000E+00  0.99999998245E-14  0.12500000000E+03  0.12500000000E+03 0.  0.
        -11    1    3    3    0    0  0.13405185649E+02 -0.19326545019E+02 -0.44372657802E+02  0.50220982719E+02  0.51100000000E-03 0. -1.
         23    2    1    0    0    0  0.28889385588E+02  0.23367036566E+01 -0.86949496381E+01  0.94740143212E+02  0.89777702148E+02 0.  0.
         11    1    3    3    0    0  0.15484199939E+02  0.21663248675E+02  0.35677708164E+02  0.44519160493E+02  0.51100000000E-03 0.  1.
         22    1    1    0    0    0 -0.28889385588E+02 -0.23367036566E+01  0.86949496381E+01  0.30259856788E+02  0.00000000000E+00 0.  1.
</event>
<event>
 5    1  0.3183396E-003  0.9118800E+02  0.7818608E-02  0.1130116E+00
         25   -1    0    0    0    0  0.00000000000E+00  0.00000000000E+00  0.99999998245E-14  0.12500000000E+03  0.12500000000E+03 0.  0.
        -11    1    3    3    0    0 -0.82394277307E+01  0.28905174400E+00  0.56854422300E+02  0.57449082287E+02  0.51100000000E-03 0. -1.
         23    2    1    0    0    0  0.13768678182E+02 -0.15181460568E+01  0.27773293481E+02  0.93963938763E+02  0.88690386687E+02 0.  0.
         11    1    3    3    0    0  0.22008105913E+02 -0.18071978008E+01 -0.29081128820E+02  0.36514856476E+02  0.51100000000E-03 0.  1.
         22    1    1    0    0    0 -0.13768678182E+02  0.15181460568E+01 -0.27773293481E+02  0.31036061237E+02  0.00000000000E+00 0. -1.
</event>
<event>
 5    1  0.3183396E-003  0.9118800E+02  0.7818608E-02  0.1130116E+00
         25   -1    0    0    0    0  0.00000000000E+00  0.00000000000E+00  0.99999998245E-14  0.12500000000E+03  0.12500000000E+03 0.  0.
        -11    1    3    3    0    0  0.94594060942E+01 -0.31487457000E+02  0.49262733352E+02  0.59226321932E+02  0.51100000000E-03 0. -1.
         23    2    1    0    0    0  0.58080107381E+01 -0.27638579047E+02  0.16760104263E+02  0.92159093567E+02  0.86109078451E+02 0.  0.
         11    1    3    3    0    0 -0.36513953561E+01  0.38488779539E+01 -0.32502629089E+02  0.32932771634E+02  0.51100000000E-03 0.  1.
         22    1    1    0    0    0 -0.58080107381E+01  0.27638579047E+02 -0.16760104263E+02  0.32840906433E+02  0.00000000000E+00 0. -1.
</event>
<event>
 5    1  0.3183396E-003  0.9118800E+02  0.7818608E-02  0.1130116E+00
         25   -1    0    0    0    0  0.00000000000E+00  0.00000000000E+00  0.99999998245E-14  0.12500000000E+03  0.12500000000E+03 0.  0.
        -11    1    3    3    0    0  0.26449501634E+02 -0.32612818257E+02  0.36836693841E+02  0.55857981209E+02  0.51100000000E-03 0.  1.
         23    2    1    0    0    0  0.18172291596E+02  0.27501910159E+01  0.24825663435E+02  0.94111340310E+02  0.88897891299E+02 0.  0.
         11    1    3    3    0    0 -0.82772100388E+01  0.35363009272E+02 -0.12011030405E+02  0.38253359101E+02  0.51100000000E-03 0. -1.
         22    1    1    0    0    0 -0.18172291596E+02 -0.27501910159E+01 -0.24825663435E+02  0.30888659690E+02  0.00000000000E+00 0.  1.
</event>
<event>
 5    1  0.3183396E-003  0.9118800E+02  0.7818608E-02  0.1130116E+00
         25   -1    0    0    0    0  0.00000000000E+00  0.00000000000E+00  0.99999998245E-14  0.12500000000E+03  0.12500000000E+03 0.  0.
        -11    1    3    3    0    0  0.30829230281E+02  0.16986151367E+02  0.38311649027E-01  0.35199037572E+02  0.51100000000E-03 0. -1.
         23    2    1    0    0    0 -0.66090115017E+01 -0.25030985473E+02 -0.17035940693E+02  0.94008831224E+02  0.88753635452E+02 0.  0.
         11    1    3    3    0    0 -0.37438241782E+02 -0.42017136841E+02 -0.17074252342E+02  0.58809793652E+02  0.51100000000E-03 0.  1.
         22    1    1    0    0    0  0.66090115017E+01  0.25030985473E+02  0.17035940693E+02  0.30991168776E+02  0.00000000000E+00 0.  1.
</event>
<event>
 5    1  0.3183396E-003  0.9118800E+02  0.7818608E-02  0.1130116E+00
         25   -1    0    0    0    0  0.00000000000E+00  0.00000000000E+00  0.99999998245E-14  0.12500000000E+03  0.12500000000E+03 0.  0.
        -11    1    3    3    0    0 -0.51502067290E+02  0.28729063883E+02 -0.88712399087E+01  0.59636573883E+02  0.51100000000E-03 0. -1.
         23    2    1    0    0    0 -0.19083538866E+02  0.15624477028E+02 -0.16369118176E+02  0.95398416125E+02  0.90689602664E+02 0.  0.
         11    1    3    3    0    0  0.32418528424E+02 -0.13104586854E+02 -0.74978782670E+01  0.35761842242E+02  0.51100000000E-03 0.  1.
         22    1    1    0    0    0  0.19083538866E+02 -0.15624477028E+02  0.16369118176E+02  0.29601583875E+02  0.00000000000E+00 0. -1.
</event>
<event>
 5    1  0.3183396E-003  0.9118800E+02  0.7818608E-02  0.1130116E+00
         25   -1    0    0    0    0  0.00000000000E+00  0.00000000000E+00  0.99999998245E-14  0.12500000000E+03  0.12500000000E+03 0.  0.
        -11    1    3    3    0    0  0.49602611458E+02 -0.16825114997E+02 -0.19363686796E+02  0.55843136773E+02  0.51100000000E-03 0. -1.
         23    2    1    0    0    0  0.20460910396E+02  0.98219496315E+01 -0.19106813712E+02  0.95332005814E+02  0.90598021245E+02 0.  0.
         11    1    3    3    0    0 -0.29141701061E+02  0.26647064629E+02  0.25687308390E+00  0.39488869041E+02  0.51100000000E-03 0.  1.
         22    1    1    0    0    0 -0.20460910396E+02 -0.98219496315E+01  0.19106813712E+02  0.29667994186E+02  0.00000000000E+00 0. -1.
</event>
<event>
 5    1  0.3183396E-003  0.9118800E+02  0.7818608E-02  0.1130116E+00
         25   -1    0    0    0    0  0.00000000000E+00  0.00000000000E+00  0.99999998245E-14  0.12500000000E+03  0.12500000000E+03 0.  0.
        -11    1    3    3    0    0  0.13587477467E+02  0.72761789909E+01  0.52914627695E+02  0.55113702007E+02  0.51100000000E-03 0. -1.
         23    2    1    0    0    0  0.67271951756E+01  0.23322339093E+02  0.16049727987E+02  0.95900508181E+02  0.91379029570E+02 0.  0.
         11    1    3    3    0    0 -0.68602822914E+01  0.16046160102E+02 -0.36864899708E+02  0.40786806174E+02  0.51100000000E-03 0.  1.
         22    1    1    0    0    0 -0.67271951756E+01 -0.23322339093E+02 -0.16049727987E+02  0.29099491819E+02  0.00000000000E+00 0. -1.
</event>
<event>
 5    1  0.3183396E-003  0.9118800E+02  0.7818608E-02  0.1130116E+00
         25   -1    0    0    0    0  0.00000000000E+00  0.00000000000E+00  0.99999998245E-14  0.12500000000E+03  0.12500000000E+03 0.  0.
        -11    1    3    3    0    0  0.29932186216E+02  0.27103296603E+01  0.19457672382E+02  0.35803389132E+02  0.51100000000E-03 0.  1.
         23    2    1    0    0    0 -0.21576613882E+02  0.17020580626E+02 -0.86331504156E+01  0.96194068015E+02  0.91779720002E+02 0.  0.
         11    1    3    3    0    0 -0.51508800098E+02  0.14310250965E+02 -0.28090822797E+02  0.60390678883E+02  0.51100000000E-03 0. -1.
         22    1    1    0    0    0  0.21576613882E+02 -0.17020580626E+02  0.86331504156E+01  0.28805931985E+02  0.00000000000E+00 0. -1.
</event>
<event>
 5    1  0.3183396E-003  0.9118800E+02  0.7818608E-02  0.1130116E+00
         25   -1    0    0    0    0  0.00000000000E+00  0.00000000000E+00  0.99999998245E-14  0.12500000000E+03  0.12500000000E+03 0.  0.
        -11    1    3    3    0    0 -0.63393872449E+01 -0.17132015338E+02  0.32244548896E+02  0.37059475360E+02  0.51100000000E-03 0. -1.
         23    2    1    0    0    0  0.25377378606E+02 -0.71195283459E+01 -0.14875144031E+02  0.94735021250E+02  0.89770570414E+02 0.  0.
         11    1    3    3    0    0  0.31716765851E+02  0.10012486993E+02 -0.47119692927E+02  0.57675545890E+02  0.51100000000E-03 0.  1.
         22    1    1    0    0    0 -0.25377378606E+02  0.71195283459E+01  0.14875144031E+02  0.30264978750E+02  0.00000000000E+00 0.  1.
</event>
<event>
 5    1  0.3183396E-003  0.9118800E+02  0.7818608E-02  0.1130116E+00
         25   -1    0    0    0    0  0.00000000000E+00  0.00000000000E+00  0.99999998245E-14  0.12500000000E+03  0.12500000000E+03 0.  0.
        -11    1    3    3    0    0 -0.40725654544E+02 -0.93223905223E+01  0.35526085722E+02  0.54841486760E+02  0.51100000000E-03 0.  1.
         23    2    1    0    0    0 -0.11072237896E+02  0.15244173459E+02  0.22854805284E+02  0.95380388237E+02  0.90664750919E+02 0.  0.
         11    1    3    3    0    0  0.29653416648E+02  0.24566563981E+02 -0.12671280438E+02  0.40538901477E+02  0.51100000000E-03 0. -1.
         22    1    1    0    0    0  0.11072237896E+02 -0.15244173459E+02 -0.22854805284E+02  0.29619611763E+02  0.00000000000E+00 0.  1.
</event>
<event>
 5    1  0.3183396E-003  0.9118800E+02  0.7818608E-02  0.1130116E+00
         25   -1    0    0    0    0  0.00000000000E+00  0.00000000000E+00  0.99999998245E-14  0.12500000000E+03  0.12500000000E+03 0.  0.
        -11    1    3    3    0    0 -0.12160308800E+02  0.23948032573E+02  0.42300099740E+02  0.50106684309E+02  0.51100000000E-03 0. -1.
         23    2    1    0    0    0 -0.17910693919E+02 -0.13787217138E+02  0.93218740543E+01  0.10055050821E+03  0.97532697346E+02 0.  0.
         11    1    3    3    0    0 -0.57503851185E+01 -0.37735249711E+02 -0.32978225685E+02  0.50443823897E+02  0.51100000000E-03 0.  1.
         22    1    1    0    0    0  0.17910693919E+02  0.13787217138E+02 -0.93218740543E+01  0.24449491793E+02  0.00000000000E+00 0. -1.
</event>
<event>
 5    1  0.3183396E-003  0.9118800E+02  0.7818608E-02  0.1130116E+00
         25   -1    0    0    0    0  0.00000000000E+00  0.00000000000E+00  0.99999998245E-14  0.12500000000E+03  0.12500000000E+03 0.  0.
        -11    1    3    3    0    0  0.30494626304E+02 -0.36100717561E+02  0.11466730688E+02  0.48627872200E+02  0.51100000000E-03 0. -1.
         23    2    1    0    0    0 -0.86358407558E+01 -0.25149914766E+02 -0.12299785784E+02  0.95701865441E+02  0.91106895240E+02 0.  0.
         11    1    3    3    0    0 -0.39130467060E+02  0.10950802794E+02 -0.23766516472E+02  0.47073993241E+02  0.51100000000E-03 0.  1.
         22    1    1    0    0    0  0.86358407558E+01  0.25149914766E+02  0.12299785784E+02  0.29298134559E+02  0.00000000000E+00 0.  1.
</event>
<event>
 5    1  0.3183396E-003  0.9118800E+02  0.7818608E-02  0.1130116E+00
         25   -1    0    0    0    0  0.00000000000E+00  0.00000000000E+00  0.99999998245E-14  0.12500000000E+03  0.12500000000E+03 0.  0.
        -11    1    3    3    0    0 -0.26924725473E+01 -0.13676423059E+02  0.30774819224E+02  0.33784367016E+02  0.51100000000E-03 0. -1.
         23    2    1    0    0    0  0.80019648691E+01  0.14191071594E+02 -0.23899427385E+02  0.96075951458E+02  0.91618709140E+02 0.  0.
         11    1    3    3    0    0  0.10694437416E+02  0.27867494652E+02 -0.54674246609E+02  0.62291584443E+02  0.51100000000E-03 0.  1.
         22    1    1    0    0    0 -0.80019648691E+01 -0.14191071594E+02  0.23899427385E+02  0.28924048542E+02  0.00000000000E+00 0.  1.
</event>
<event>
 5    1  0.3183396E-003  0.9118800E+02  0.7818608E-02  0.1130116E+00
         25   -1    0    0    0    0  0.00000000000E+00  0.00000000000E+00  0.99999998245E-14  0.12500000000E+03  0.12500000000E+03 0.  0.
        -11    1    3    3    0    0 -0.37271385159E+02  0.55879975096E+01  0.13780829585E+02  0.40128457884E+02  0.51100000000E-03 0.  1.
         23    2    1    0    0    0  0.55773958524E-01  0.88762168602E+01 -0.27631684282E+02  0.95977589474E+02  0.91484410521E+02 0.  0.
         11    1    3    3    0    0  0.37327159117E+02  0.32882193506E+01 -0.41412513868E+02  0.55849131590E+02  0.51100000000E-03 0. -1.
         22    1    1    0    0    0 -0.55773958524E-01 -0.88762168602E+01  0.27631684282E+02  0.29022410526E+02  0.00000000000E+00 0. -1.
</event>
<event>
 5    1  0.3183396E-003  0.9118800E+02  0.7818608E-02  0.1130116E+00
         25   -1    0    0    0    0  0.00000000000E+00  0.00000000000E+00  0.99999998245E-14  0.12500000000E+03  0.12500000000E+03 0.  0.
        -11    1    3    3    0    0  0.29035897575E+02  0.11237181675E+02  0.26034581375E+02  0.40585182366E+02  0.51100000000E-03 0. -1.
         23    2    1    0    0    0 -0.14607412667E+02 -0.18862750761E+02  0.19856399025E+02  0.93960405072E+02  0.88685406172E+02 0.  0.
         11    1    3    3    0    0 -0.43643310242E+02 -0.30099932436E+02 -0.61781823508E+01  0.53375222706E+02  0.51100000000E-03 0.  1.
         22    1    1    0    0    0  0.14607412667E+02  0.18862750761E+02 -0.19856399025E+02  0.31039594928E+02  0.00000000000E+00 0. -1.
</event>
<event>
 5    1  0.3183396E-003  0.9118800E+02  0.7818608E-02  0.1130116E+00
         25   -1    0    0    0    0  0.00000000000E+00  0.00000000000E+00  0.99999998245E-14  0.12500000000E+03  0.12500000000E+03 0.  0.
        -11    1    3    3    0    0  0.32707589360E+02  0.35994440151E+02  0.10481220200E+02  0.49751804999E+02  0.51100000000E-03 0.  1.
         23    2    1    0    0    0  0.29714048665E+02 -0.71036348819E+01 -0.92686075432E+00  0.94434572022E+02  0.89351233934E+02 0.  0.
         11    1    3    3    0    0 -0.29935406947E+01 -0.43098075033E+02 -0.11408080954E+02  0.44682767022E+02  0.51100000000E-03 0. -1.
         22    1    1    0    0    0 -0.29714048665E+02  0.71036348819E+01  0.92686075432E+00  0.30565427978E+02  0.00000000000E+00 0. -1.
</event>
<event>
 5    1  0.3183396E-003  0.9118800E+02  0.7818608E-02  0.1130116E+00
         25   -1    0    0    0    0  0.00000000000E+00  0.00000000000E+00  0.99999998245E-14  0.12500000000E+03  0.12500000000E+03 0.  0.
        -11    1    3    3    0    0 -0.42853940536E+02 -0.44857065031E+02 -0.61216146312E+01  0.62338516734E+02  0.51100000000E-03 0. -1.
         23    2    1    0    0    0 -0.17565980859E+02 -0.21240583187E+02 -0.51937365381E+01  0.96951810096E+02  0.92805994009E+02 0.  0.
         11    1    3    3    0    0  0.25287959677E+02  0.23616481844E+02  0.92787809313E+00  0.34613293362E+02  0.51100000000E-03 0.  1.
         22    1    1    0    0    0  0.17565980859E+02  0.21240583187E+02  0.51937365381E+01  0.28048189904E+02  0.00000000000E+00 0. -1.
</event>
<event>
 5    1  0.3183396E-003  0.9118800E+02  0.7818608E-02  0.1130116E+00
         25   -1    0    0    0    0  0.00000000000E+00  0.00000000000E+00  0.99999998245E-14  0.12500000000E+03  0.12500000000E+03 0.  0.
        -11    1    3    3    0    0  0.17063317038E+01 -0.35201891656E+02 -0.15430462284E+02  0.38473158314E+02  0.51100000000E-03 0.  1.
         23    2    1    0    0    0 -0.22999322018E+02  0.15698927054E+02 -0.10395377929E+02  0.95276457038E+02  0.90521346982E+02 0.  0.
         11    1    3    3    0    0 -0.24705653722E+02  0.50900818710E+02  0.50350843547E+01  0.56803298724E+02  0.51100000000E-03 0. -1.
         22    1    1    0    0    0  0.22999322018E+02 -0.15698927054E+02  0.10395377929E+02  0.29723542962E+02  0.00000000000E+00 0. -1.
</event>
<event>
 5    1  0.3183396E-003  0.9118800E+02  0.7818608E-02  0.1130116E+00
         25   -1    0    0    0    0  0.00000000000E+00  0.00000000000E+00  0.99999998245E-14  0.12500000000E+03  0.12500000000E+03 0.  0.
        -11    1    3    3    0    0 -0.25864999951E+02  0.12268686298E+02 -0.54314130113E+02  0.61396609158E+02  0.51100000000E-03 0.  1.
         23    2    1    0    0    0 -0.12680760541E+02 -0.25009035071E+01 -0.26239445999E+02  0.95749961836E+02  0.91172860320E+02 0.  0.
         11    1    3    3    0    0  0.13184239410E+02 -0.14769589805E+02  0.28074684114E+02  0.34353352677E+02  0.51100000000E-03 0. -1.
         22    1    1    0    0    0  0.12680760541E+02  0.25009035071E+01  0.26239445999E+02  0.29250038164E+02  0.00000000000E+00 0.  1.
</event>
<event>
 5    1  0.3183396E-003  0.9118800E+02  0.7818608E-02  0.1130116E+00
         25   -1    0    0    0    0  0.00000000000E+00  0.00000000000E+00  0.99999998245E-14  0.12500000000E+03  0.12500000000E+03 0.  0.
        -11    1    3    3    0    0  0.39158837272E+01 -0.39938755484E+02 -0.33771915766E+02  0.52449791513E+02  0.51100000000E-03 0. -1.
         23    2    1    0    0    0 -0.11230829186E+02 -0.26125679360E+02  0.48283386098E+01  0.96155667802E+02  0.91727405667E+02 0.  0.
         11    1    3    3    0    0 -0.15146712913E+02  0.13813076124E+02  0.38600254375E+02  0.43705876289E+02  0.51100000000E-03 0.  1.
         22    1    1    0    0    0  0.11230829186E+02  0.26125679360E+02 -0.48283386098E+01  0.28844332198E+02  0.00000000000E+00 0. -1.
</event>
<event>
 5    1  0.3183396E-003  0.9118800E+02  0.7818608E-02  0.1130116E+00
         25   -1    0    0    0    0  0.00000000000E+00  0.00000000000E+00  0.99999998245E-14  0.12500000000E+03  0.12500000000E+03 0.  0.
        -11    1    3    3    0    0  0.15111996307E+02  0.10804072045E+02  0.27854847759E+02  0.33481232789E+02  0.51100000000E-03 0.  1.
         23    2    1    0    0    0 -0.29516885502E+01  0.20955060316E+02 -0.26170649758E+02  0.91343946654E+02  0.84917528599E+02 0.  0.
         11    1    3    3    0    0 -0.18063684857E+02  0.10150988271E+02 -0.54025497517E+02  0.57862713864E+02  0.51100000000E-03 0. -1.
         22    1    1    0    0    0  0.29516885502E+01 -0.20955060316E+02  0.26170649758E+02  0.33656053346E+02  0.00000000000E+00 0. -1.
</event>
<event>
 5    1  0.3183396E-003  0.9118800E+02  0.7818608E-02  0.1130116E+00
         25   -1    0    0    0    0  0.00000000000E+00  0.00000000000E+00  0.99999998245E-14  0.12500000000E+03  0.12500000000E+03 0.  0.
        -11    1    3    3    0    0  0.21633099414E+02  0.19105813689E+02 -0.42407278254E+02  0.51297176883E+02  0.51100000000E-03 0.  1.
         23    2    1    0    0    0 -0.16514508044E+02  0.14272953975E+02 -0.15254082236E+02  0.98370444690E+02  0.94697471839E+02 0.  0.
         11    1    3    3    0    0 -0.38147607459E+02 -0.48328597135E+01  0.27153196018E+02  0.47073267808E+02  0.51100000000E-03 0. -1.
         22    1    1    0    0    0  0.16514508044E+02 -0.14272953975E+02  0.15254082236E+02  0.26629555310E+02  0.00000000000E+00 0. -1.
</event>
<event>
 5    1  0.3183396E-003  0.9118800E+02  0.7818608E-02  0.1130116E+00
         25   -1    0    0    0    0  0.00000000000E+00  0.00000000000E+00  0.99999998245E-14  0.12500000000E+03  0.12500000000E+03 0.  0.
        -11    1    3    3    0    0  0.33126360525E+02 -0.25265469576E+02 -0.15832537142E+02  0.44568699186E+02  0.51100000000E-03 0. -1.
         23    2    1    0    0    0  0.81371653869E+01 -0.10619164613E+02  0.26180826346E+02  0.95599051277E+02  0.90965723321E+02 0.  0.
         11    1    3    3    0    0 -0.24989195138E+02  0.14646304963E+02  0.42013363488E+02  0.51030352092E+02  0.51100000000E-03 0.  1.
         22    1    1    0    0    0 -0.81371653869E+01  0.10619164613E+02 -0.26180826346E+02  0.29400948723E+02  0.00000000000E+00 0.  1.
</event>
<event>
 5    1  0.3183396E-003  0.9118800E+02  0.7818608E-02  0.1130116E+00
         25   -1    0    0    0    0  0.00000000000E+00  0.00000000000E+00  0.99999998245E-14  0.12500000000E+03  0.12500000000E+03 0.  0.
        -11    1    3    3    0    0  0.31136810556E+01  0.24335591720E+02  0.17234804801E+01  0.24594438788E+02  0.51100000000E-03 0. -1.
         23    2    1    0    0    0  0.29056546136E+02 -0.69266286272E+01  0.36334153355E+02  0.77963506109E+02  0.62176173308E+02 0.  0.
         11    1    3    3    0    0  0.25942865080E+02 -0.31262220347E+02  0.34610672875E+02  0.53369067321E+02  0.51100000000E-03 0.  1.
         22    1    1    0    0    0 -0.29056546136E+02  0.69266286272E+01 -0.36334153355E+02  0.47036493891E+02  0.00000000000E+00 0. -1.
</event>
<event>
 5    1  0.3183396E-003  0.9118800E+02  0.7818608E-02  0.1130116E+00
         25   -1    0    0    0    0  0.00000000000E+00  0.00000000000E+00  0.99999998245E-14  0.12500000000E+03  0.12500000000E+03 0.  0.
        -11    1    3    3    0    0  0.48798205530E+02 -0.63014915029E+01 -0.35592021237E+02  0.60726976165E+02  0.51100000000E-03 0.  1.
         23    2    1    0    0    0  0.22468488202E+02  0.37313383338E+01 -0.63053492906E+01  0.10136711449E+03  0.98573721765E+02 0.  0.
         11    1    3    3    0    0 -0.26329717328E+02  0.10032829837E+02  0.29286671947E+02  0.40640138325E+02  0.51100000000E-03 0. -1.
         22    1    1    0    0    0 -0.22468488202E+02 -0.37313383338E+01  0.63053492906E+01  0.23632885510E+02  0.00000000000E+00 0.  1.
</event>
<event>
 5    1  0.3183396E-003  0.9118800E+02  0.7818608E-02  0.1130116E+00
         25   -1    0    0    0    0  0.00000000000E+00  0.00000000000E+00  0.99999998245E-14  0.12500000000E+03  0.12500000000E+03 0.  0.
        -11    1    3    3    0    0  0.44296151063E+02 -0.24818087633E+02  0.50012842570E+01  0.51020577390E+02  0.51100000000E-03 0. -1.
         23    2    1    0    0    0  0.43334054372E+01 -0.27450322347E+02 -0.12252733408E+02  0.94628498957E+02  0.89622121930E+02 0.  0.
         11    1    3    3    0    0 -0.39962745625E+02 -0.26322347137E+01 -0.17254017666E+02  0.43607921567E+02  0.51100000000E-03 0.  1.
         22    1    1    0    0    0 -0.43334054372E+01  0.27450322347E+02  0.12252733408E+02  0.30371501043E+02  0.00000000000E+00 0. -1.
</event>
<event>
 5    1  0.3183396E-003  0.9118800E+02  0.7818608E-02  0.1130116E+00
         25   -1    0    0    0    0  0.00000000000E+00  0.00000000000E+00  0.99999998245E-14  0.12500000000E+03  0.12500000000E+03 0.  0.
        -11    1    3    3    0    0 -0.18350226099E+02  0.41690083076E+02 -0.18291535785E+02  0.49085375688E+02  0.51100000000E-03 0.  1.
         23    2    1    0    0    0  0.14105226788E+02  0.22704406202E+02  0.10334263074E+02  0.96342636601E+02  0.91981841416E+02 0.  0.
         11    1    3    3    0    0  0.32455452887E+02 -0.18985676874E+02  0.28625798859E+02  0.47257260913E+02  0.51100000000E-03 0. -1.
         22    1    1    0    0    0 -0.14105226788E+02 -0.22704406202E+02 -0.10334263074E+02  0.28657363399E+02  0.00000000000E+00 0.  1.
</event>
<event>
 5    1  0.3183396E-003  0.9118800E+02  0.7818608E-02  0.1130116E+00
         25   -1    0    0    0    0  0.00000000000E+00  0.00000000000E+00  0.99999998245E-14  0.12500000000E+03  0.12500000000E+03 0.  0.
        -11    1    3    3    0    0 -0.26000522301E+02  0.33868369782E+02  0.12839729855E+02  0.44586458647E+02  0.51100000000E-03 0. -1.
         23    2    1    0    0    0 -0.18111774933E+01 -0.10452947488E+02  0.26129743701E+02  0.96798794690E+02  0.92599668857E+02 0.  0.
         11    1    3    3    0    0  0.24189344808E+02 -0.44321317270E+02  0.13290013845E+02  0.52212336043E+02  0.51100000000E-03 0.  1.
         22    1    1    0    0    0  0.18111774933E+01  0.10452947488E+02 -0.26129743701E+02  0.28201205310E+02  0.00000000000E+00 0.  1.
</event>
<event>
 5    1  0.3183396E-003  0.9118800E+02  0.7818608E-02  0.1130116E+00
         25   -1    0    0    0    0  0.00000000000E+00  0.00000000000E+00  0.99999998245E-14  0.12500000000E+03  0.12500000000E+03 0.  0.
        -11    1    3    3    0    0  0.13498983198E+02 -0.36598354086E+02 -0.42719919500E+02  0.57850268725E+02  0.51100000000E-03 0.  1.
         23    2    1    0    0    0  0.13905332070E+01 -0.28689932370E+01 -0.28366753304E+02  0.96454643148E+02  0.92133928533E+02 0.  0.
         11    1    3    3    0    0 -0.12108449991E+02  0.33729360849E+02  0.14353166195E+02  0.38604374423E+02  0.51100000000E-03 0. -1.
         22    1    1    0    0    0 -0.13905332070E+01  0.28689932370E+01  0.28366753304E+02  0.28545356852E+02  0.00000000000E+00 0.  1.
</event>
<event>
 5    1  0.3183396E-003  0.9118800E+02  0.7818608E-02  0.1130116E+00
         25   -1    0    0    0    0  0.00000000000E+00  0.00000000000E+00  0.99999998245E-14  0.12500000000E+03  0.12500000000E+03 0.  0.
        -11    1    3    3    0    0 -0.13323071916E+02 -0.42114467699E+02  0.81819466610E+01  0.44923010654E+02  0.51100000000E-03 0.  1.
         23    2    1    0    0    0  0.11108371896E+02 -0.15497124583E+02 -0.24714217950E+02  0.93785430239E+02  0.88438439378E+02 0.  0.
         11    1    3    3    0    0  0.24431443812E+02  0.26617343116E+02 -0.32896164611E+02  0.48862419584E+02  0.51100000000E-03 0. -1.
         22    1    1    0    0    0 -0.11108371896E+02  0.15497124583E+02  0.24714217950E+02  0.31214569761E+02  0.00000000000E+00 0. -1.
</event>
<event>
 5    1  0.3183396E-003  0.9118800E+02  0.7818608E-02  0.1130116E+00
         25   -1    0    0    0    0  0.00000000000E+00  0.00000000000E+00  0.99999998245E-14  0.12500000000E+03  0.12500000000E+03 0.  0.
        -11    1    3    3    0    0  0.20317493031E+01 -0.11527869192E+02  0.31620466058E+02  0.33717556960E+02  0.51100000000E-03 0.  1.
         23    2    1    0    0    0  0.39692249929E+01 -0.96438847473E+01 -0.28888444909E+02  0.94286786080E+02  0.89144245579E+02 0.  0.
         11    1    3    3    0    0  0.19374756898E+01  0.18839844450E+01 -0.60508910967E+02  0.60569229120E+02  0.51100000000E-03 0. -1.
         22    1    1    0    0    0 -0.39692249929E+01  0.96438847473E+01  0.28888444909E+02  0.30713213920E+02  0.00000000000E+00 0. -1.
</event>
<event>
 5    1  0.3183396E-003  0.9118800E+02  0.7818608E-02  0.1130116E+00
         25   -1    0    0    0    0  0.00000000000E+00  0.00000000000E+00  0.99999998245E-14  0.12500000000E+03  0.12500000000E+03 0.  0.
        -11    1    3    3    0    0  0.17504521888E+02  0.30028159915E+02 -0.39732670210E+02  0.52789996749E+02  0.51100000000E-03 0. -1.
         23    2    1    0    0    0 -0.16164923610E+02  0.10782630529E+02 -0.22621471274E+02  0.95178852486E+02  0.90386465367E+02 0.  0.
         11    1    3    3    0    0 -0.33669445497E+02 -0.19245529386E+02  0.17111198937E+02  0.42388855738E+02  0.51100000000E-03 0.  1.
         22    1    1    0    0    0  0.16164923610E+02 -0.10782630529E+02  0.22621471274E+02  0.29821147514E+02  0.00000000000E+00 0. -1.
</event>
<event>
 5    1  0.3183396E-003  0.9118800E+02  0.7818608E-02  0.1130116E+00
         25   -1    0    0    0    0  0.00000000000E+00  0.00000000000E+00  0.99999998245E-14  0.12500000000E+03  0.12500000000E+03 0.  0.
        -11    1    3    3    0    0 -0.21301266026E+02 -0.30090069425E+02  0.18045556588E+02  0.41046294901E+02  0.51100000000E-03 0.  1.
         23    2    1    0    0    0  0.80757219353E+01  0.10702682152E+02  0.29492455135E+02  0.92602938406E+02  0.86750991934E+02 0.  0.
         11    1    3    3    0    0  0.29376987961E+02  0.40792751577E+02  0.11446898547E+02  0.51556643505E+02  0.51100000000E-03 0. -1.
         22    1    1    0    0    0 -0.80757219353E+01 -0.10702682152E+02 -0.29492455135E+02  0.32397061594E+02  0.00000000000E+00 0. -1.
</event>
<event>
 5    1  0.3183396E-003  0.9118800E+02  0.7818608E-02  0.1130116E+00
         25   -1    0    0    0    0  0.00000000000E+00  0.00000000000E+00  0.99999998245E-14  0.12500000000E+03  0.12500000000E+03 0.  0.
        -11    1    3    3    0    0 -0.43475045758E+02  0.49441251259E+01  0.16472736352E+02  0.46753342341E+02  0.51100000000E-03 0. -1.
         23    2    1    0    0    0 -0.10634375532E+02  0.24190762236E+02 -0.13615128560E+02  0.95273670825E+02  0.90517499447E+02 0.  0.
         11    1    3    3    0    0  0.32840670225E+02  0.19246637111E+02 -0.30087864912E+02  0.48520328483E+02  0.51100000000E-03 0.  1.
         22    1    1    0    0    0  0.10634375532E+02 -0.24190762236E+02  0.13615128560E+02  0.29726329175E+02  0.00000000000E+00 0. -1.
</event>
<event>
 5    1  0.3183396E-003  0.9118800E+02  0.7818608E-02  0.1130116E+00
         25   -1    0    0    0    0  0.00000000000E+00  0.00000000000E+00  0.99999998245E-14  0.12500000000E+03  0.12500000000E+03 0.  0.
        -11    1    3    3    0    0 -0.52005950094E+02  0.28046960043E+02  0.14616602712E+02  0.60867855950E+02  0.51100000000E-03 0. -1.
         23    2    1    0    0    0 -0.21994693723E+02  0.20235230817E+02  0.89941332621E-01  0.95112892284E+02  0.90295199601E+02 0.  0.
         11    1    3    3    0    0  0.30011256370E+02 -0.78117292260E+01 -0.14526661380E+02  0.34245036334E+02  0.51100000000E-03 0.  1.
         22    1    1    0    0    0  0.21994693723E+02 -0.20235230817E+02 -0.89941332621E-01  0.29887107716E+02  0.00000000000E+00 0. -1.
</event>
<event>
 5    1  0.3183396E-003  0.9118800E+02  0.7818608E-02  0.1130116E+00
         25   -1    0    0    0    0  0.00000000000E+00  0.00000000000E+00  0.99999998245E-14  0.12500000000E+03  0.12500000000E+03 0.  0.
        -11    1    3    3    0    0 -0.60096196627E+01 -0.32498519291E+02  0.36684919142E+02  0.49376639996E+02  0.51100000000E-03 0.  1.
         23    2    1    0    0    0  0.19142679907E+02  0.21751889129E+01  0.61817186444E-01  0.10573403358E+03  0.10396397643E+03 0.  0.
         11    1    3    3    0    0  0.25152299569E+02  0.34673708204E+02 -0.36623101956E+02  0.56357393582E+02  0.51100000000E-03 0. -1.
         22    1    1    0    0    0 -0.19142679907E+02 -0.21751889129E+01 -0.61817186444E-01  0.19265966422E+02  0.00000000000E+00 0. -1.
</event>
<event>
 5    1  0.3183396E-003  0.9118800E+02  0.7818608E-02  0.1130116E+00
         25   -1    0    0    0    0  0.00000000000E+00  0.00000000000E+00  0.99999998245E-14  0.12500000000E+03  0.12500000000E+03 0.  0.
        -11    1    3    3    0    0 -0.13041636773E+01 -0.72719030312E+01 -0.47332903801E+02  0.47906003789E+02  0.51100000000E-03 0. -1.
         23    2    1    0    0    0  0.20424218606E+02  0.17359656486E+02 -0.13776577182E+02  0.94861976544E+02  0.89947174141E+02 0.  0.
         11    1    3    3    0    0  0.21728382284E+02  0.24631559517E+02  0.33556326618E+02  0.46955972754E+02  0.51100000000E-03 0.  1.
         22    1    1    0    0    0 -0.20424218606E+02 -0.17359656486E+02  0.13776577182E+02  0.30138023456E+02  0.00000000000E+00 0.  1.
</event>
<event>
 5    1  0.3183396E-003  0.9118800E+02  0.7818608E-02  0.1130116E+00
         25   -1    0    0    0    0  0.00000000000E+00  0.00000000000E+00  0.99999998245E-14  0.12500000000E+03  0.12500000000E+03 0.  0.
        -11    1    3    3    0    0 -0.28495799452E+02 -0.17503737747E+02 -0.30484639254E+02  0.45251570715E+02  0.51100000000E-03 0.  1.
         23    2    1    0    0    0  0.11689111988E+02 -0.20304147730E+02  0.72786341591E+01  0.10046691480E+03  0.97425503337E+02 0.  0.
         11    1    3    3    0    0  0.40184911440E+02 -0.28004099829E+01  0.37763273413E+02  0.55215344087E+02  0.51100000000E-03 0. -1.
         22    1    1    0    0    0 -0.11689111988E+02  0.20304147730E+02 -0.72786341591E+01  0.24533085198E+02  0.00000000000E+00 0.  1.
</event>
<event>
 5    1  0.3183396E-003  0.9118800E+02  0.7818608E-02  0.1130116E+00
         25   -1    0    0    0    0  0.00000000000E+00  0.00000000000E+00  0.99999998245E-14  0.12500000000E+03  0.12500000000E+03 0.  0.
        -11    1    3    3    0    0 -0.23117453621E+02 -0.56395280402E+02 -0.67366214833E+01  0.61320684788E+02  0.51100000000E-03 0. -1.
         23    2    1    0    0    0 -0.13755747205E+02 -0.22770131100E+02  0.45644339185E+01  0.98008640114E+02  0.94218681951E+02 0.  0.
         11    1    3    3    0    0  0.93617064153E+01  0.33625149302E+02  0.11301055402E+02  0.36687955327E+02  0.51100000000E-03 0.  1.
         22    1    1    0    0    0  0.13755747205E+02  0.22770131100E+02 -0.45644339185E+01  0.26991359886E+02  0.00000000000E+00 0. -1.
</event>
<event>
 5    1  0.3183396E-003  0.9118800E+02  0.7818608E-02  0.1130116E+00
         25   -1    0    0    0    0  0.00000000000E+00  0.00000000000E+00  0.99999998245E-14  0.12500000000E+03  0.12500000000E+03 0.  0.
        -11    1    3    3    0    0  0.16704393476E+02  0.31925050021E+02 -0.12771522784E+02  0.38227704283E+02  0.51100000000E-03 0.  1.
         23    2    1    0    0    0 -0.24824735734E+02  0.43235303853E+01  0.15368444425E+02  0.95484758119E+02  0.90808532252E+02 0.  0.
         11    1    3    3    0    0 -0.41529129210E+02 -0.27601519636E+02  0.28139967209E+02  0.57257053836E+02  0.51100000000E-03 0. -1.
         22    1    1    0    0    0  0.24824735734E+02 -0.43235303853E+01 -0.15368444425E+02  0.29515241881E+02  0.00000000000E+00 0. -1.
</event>
<event>
 5    1  0.3183396E-003  0.9118800E+02  0.7818608E-02  0.1130116E+00
         25   -1    0    0    0    0  0.00000000000E+00  0.00000000000E+00  0.99999998245E-14  0.12500000000E+03  0.12500000000E+03 0.  0.
        -11    1    3    3    0    0  0.49549248592E+01  0.13312431368E+01  0.42710264258E+02  0.43017323974E+02  0.51100000000E-03 0. -1.
         23    2    1    0    0    0  0.20200191386E+02 -0.18940413164E+02 -0.48206491441E+01  0.96892605225E+02  0.92726216930E+02 0.  0.
         11    1    3    3    0    0  0.15245266527E+02 -0.20271656301E+02 -0.47530913402E+02  0.53875281250E+02  0.51100000000E-03 0.  1.
         22    1    1    0    0    0 -0.20200191386E+02  0.18940413164E+02  0.48206491441E+01  0.28107394775E+02  0.00000000000E+00 0.  1.
</event>
<event>
 5    1  0.3183396E-003  0.9118800E+02  0.7818608E-02  0.1130116E+00
         25   -1    0    0    0    0  0.00000000000E+00  0.00000000000E+00  0.99999998245E-14  0.12500000000E+03  0.12500000000E+03 0.  0.
        -11    1    3    3    0    0 -0.22240819615E+02 -0.32649412935E+02 -0.32647215701E+01  0.39639584122E+02  0.51100000000E-03 0.  1.
         23    2    1    0    0    0  0.64109078767E+01  0.66641862178E+01  0.26679445317E+02  0.96763429384E+02  0.92551917030E+02 0.  0.
         11    1    3    3    0    0  0.28651727492E+02  0.39313599153E+02  0.29944166887E+02  0.57123845262E+02  0.51100000000E-03 0. -1.
         22    1    1    0    0    0 -0.64109078767E+01 -0.66641862178E+01 -0.26679445317E+02  0.28236570616E+02  0.00000000000E+00 0. -1.
</event>
<event>
 5    1  0.3183396E-003  0.9118800E+02  0.7818608E-02  0.1130116E+00
         25   -1    0    0    0    0  0.00000000000E+00  0.00000000000E+00  0.99999998245E-14  0.12500000000E+03  0.12500000000E+03 0.  0.
        -11    1    3    3    0    0  0.36831083021E+02  0.18652242329E+02 -0.41484703750E+01  0.41492705709E+02  0.51100000000E-03 0. -1.
         23    2    1    0    0    0 -0.13030821634E+01 -0.16234827001E+02 -0.23265874483E+02  0.96599849536E+02  0.92330722861E+02 0.  0.
         11    1    3    3    0    0 -0.38134165184E+02 -0.34887069330E+02 -0.19117404108E+02  0.55107143827E+02  0.51100000000E-03 0.  1.
         22    1    1    0    0    0  0.13030821634E+01  0.16234827001E+02  0.23265874483E+02  0.28400150464E+02  0.00000000000E+00 0.  1.
</event>
<event>
 5    1  0.3183396E-003  0.9118800E+02  0.7818608E-02  0.1130116E+00
         25   -1    0    0    0    0  0.00000000000E+00  0.00000000000E+00  0.99999998245E-14  0.12500000000E+03  0.12500000000E+03 0.  0.
        -11    1    3    3    0    0 -0.35342617599E+02  0.44778136222E+02 -0.17283579498E+02  0.59606243153E+02  0.51100000000E-03 0.  1.
         23    2    1    0    0    0 -0.19555809855E+02  0.12812724176E+02 -0.18359116837E+02  0.95273702367E+02  0.90517543006E+02 0.  0.
         11    1    3    3    0    0  0.15786807744E+02 -0.31965412046E+02 -0.10755373394E+01  0.35667459215E+02  0.51100000000E-03 0. -1.
         22    1    1    0    0    0  0.19555809855E+02 -0.12812724176E+02  0.18359116837E+02  0.29726297633E+02  0.00000000000E+00 0.  1.
</event>
<event>
 5    1  0.3183396E-003  0.9118800E+02  0.7818608E-02  0.1130116E+00
         25   -1    0    0    0    0  0.00000000000E+00  0.00000000000E+00  0.99999998245E-14  0.12500000000E+03  0.12500000000E+03 0.  0.
        -11    1    3    3    0    0 -0.29178091060E+02  0.14896423908E+02  0.37225870706E+02  0.49588606487E+02  0.51100000000E-03 0. -1.
         23    2    1    0    0    0 -0.82773342513E+01  0.28064897131E+02 -0.16990055631E+01  0.95690627213E+02  0.91091474921E+02 0.  0.
         11    1    3    3    0    0  0.20900756809E+02  0.13168473222E+02 -0.38924876269E+02  0.46102020726E+02  0.51100000000E-03 0.  1.
         22    1    1    0    0    0  0.82773342513E+01 -0.28064897131E+02  0.16990055631E+01  0.29309372787E+02  0.00000000000E+00 0. -1.
</event>
<event>
 5    1  0.3183396E-003  0.9118800E+02  0.7818608E-02  0.1130116E+00
         25   -1    0    0    0    0  0.00000000000E+00  0.00000000000E+00  0.99999998245E-14  0.12500000000E+03  0.12500000000E+03 0.  0.
        -11    1    3    3    0    0  0.53511966401E+01 -0.23404635914E+02 -0.24190986320E+02  0.34082489744E+02  0.51100000000E-03 0.  1.
         23    2    1    0    0    0 -0.16729640356E+00  0.27113161028E+02  0.10834333066E+02  0.95801810639E+02  0.91243918480E+02 0.  0.
         11    1    3    3    0    0 -0.55184930436E+01  0.50517796942E+02  0.35025319386E+02  0.61719320894E+02  0.51100000000E-03 0. -1.
         22    1    1    0    0    0  0.16729640356E+00 -0.27113161028E+02 -0.10834333066E+02  0.29198189361E+02  0.00000000000E+00 0. -1.
</event>
<event>
 5    1  0.3183396E-003  0.9118800E+02  0.7818608E-02  0.1130116E+00
         25   -1    0    0    0    0  0.00000000000E+00  0.00000000000E+00  0.99999998245E-14  0.12500000000E+03  0.12500000000E+03 0.  0.
        -11    1    3    3    0    0  0.36550006465E+02  0.29714983947E+02  0.17451305959E+01  0.47137338964E+02  0.51100000000E-03 0.  1.
         23    2    1    0    0    0  0.15699146121E+02 -0.19036646330E+02  0.27649962309E+01  0.10017053572E+03  0.97044494585E+02 0.  0.
         11    1    3    3    0    0 -0.20850860345E+02 -0.48751630276E+02  0.10198656351E+01  0.53033196753E+02  0.51100000000E-03 0. -1.
         22    1    1    0    0    0 -0.15699146121E+02  0.19036646330E+02 -0.27649962309E+01  0.24829464283E+02  0.00000000000E+00 0.  1.
</event>
<event>
 5    1  0.3183396E-003  0.9118800E+02  0.7818608E-02  0.1130116E+00
         25   -1    0    0    0    0  0.00000000000E+00  0.00000000000E+00  0.99999998245E-14  0.12500000000E+03  0.12500000000E+03 0.  0.
        -11    1    3    3    0    0 -0.36377095198E+02  0.18172787650E+01 -0.58301635637E+01  0.36886126994E+02  0.51100000000E-03 0.  1.
         23    2    1    0    0    0  0.14964089648E+02 -0.24942038798E+02 -0.80338200511E+01  0.94824321996E+02  0.89894830213E+02 0.  0.
         11    1    3    3    0    0  0.51341184847E+02 -0.26759317563E+02 -0.22036564874E+01  0.57938195002E+02  0.51100000000E-03 0. -1.
         22    1    1    0    0    0 -0.14964089648E+02  0.24942038798E+02  0.80338200511E+01  0.30175678004E+02  0.00000000000E+00 0. -1.
</event>
<event>
 5    1  0.3183396E-003  0.9118800E+02  0.7818608E-02  0.1130116E+00
         25   -1    0    0    0    0  0.00000000000E+00  0.00000000000E+00  0.99999998245E-14  0.12500000000E+03  0.12500000000E+03 0.  0.
        -11    1    3    3    0    0  0.30391805501E+02 -0.31848692145E+02 -0.16321232646E+02  0.46950864404E+02  0.51100000000E-03 0.  1.
         23    2    1    0    0    0 -0.10000597304E+02 -0.33329859940E+02 -0.96636713652E+00  0.90188717698E+02  0.83199635964E+02 0.  0.
         11    1    3    3    0    0 -0.40392402805E+02 -0.14811677955E+01  0.15354865510E+02  0.43237853294E+02  0.51100000000E-03 0. -1.
         22    1    1    0    0    0  0.10000597304E+02  0.33329859940E+02  0.96636713652E+00  0.34811282302E+02  0.00000000000E+00 0.  1.
</event>
<event>
 5    1  0.3183396E-003  0.9118800E+02  0.7818608E-02  0.1130116E+00
         25   -1    0    0    0    0  0.00000000000E+00  0.00000000000E+00  0.99999998245E-14  0.12500000000E+03  0.12500000000E+03 0.  0.
        -11    1    3    3    0    0  0.14390140832E+01 -0.30792179589E+02  0.34468875437E+02  0.46242106997E+02  0.51100000000E-03 0.  1.
         23    2    1    0    0    0 -0.24178731412E+02 -0.15658365913E+02 -0.50960903446E+01  0.95746528196E+02  0.91168152603E+02 0.  0.
         11    1    3    3    0    0 -0.25617745495E+02  0.15133813676E+02 -0.39564965782E+02  0.49504421199E+02  0.51100000000E-03 0. -1.
         22    1    1    0    0    0  0.24178731412E+02  0.15658365913E+02  0.50960903446E+01  0.29253471804E+02  0.00000000000E+00 0. -1.
</event>
<event>
 5    1  0.3183396E-003  0.9118800E+02  0.7818608E-02  0.1130116E+00
         25   -1    0    0    0    0  0.00000000000E+00  0.00000000000E+00  0.99999998245E-14  0.12500000000E+03  0.12500000000E+03 0.  0.
        -11    1    3    3    0    0 -0.28139846954E+02  0.11291667631E+02 -0.15166935689E+02  0.33902635339E+02  0.51100000000E-03 0. -1.
         23    2    1    0    0    0  0.26343625886E+02 -0.25966457199E+01  0.11508337815E+02  0.96135297801E+02  0.91699642585E+02 0.  0.
         11    1    3    3    0    0  0.54483472839E+02 -0.13888313351E+02  0.26675273503E+02  0.62232662462E+02  0.51100000000E-03 0.  1.
         22    1    1    0    0    0 -0.26343625886E+02  0.25966457199E+01 -0.11508337815E+02  0.28864702199E+02  0.00000000000E+00 0.  1.
</event>
<event>
 5    1  0.3183396E-003  0.9118800E+02  0.7818608E-02  0.1130116E+00
         25   -1    0    0    0    0  0.00000000000E+00  0.00000000000E+00  0.99999998245E-14  0.12500000000E+03  0.12500000000E+03 0.  0.
        -11    1    3    3    0    0  0.25031439503E+02  0.26372560812E+02 -0.90479252088E+01  0.37469319159E+02  0.51100000000E-03 0.  1.
         23    2    1    0    0    0 -0.28893685446E+02  0.94006212415E+01 -0.55710462205E+01  0.94109009495E+02  0.88894613863E+02 0.  0.
         11    1    3    3    0    0 -0.53925124950E+02 -0.16971939571E+02  0.34768789883E+01  0.56639690336E+02  0.51100000000E-03 0. -1.
         22    1    1    0    0    0  0.28893685446E+02 -0.94006212415E+01  0.55710462205E+01  0.30890990505E+02  0.00000000000E+00 0. -1.
</event>
<event>
 5    1  0.3183396E-003  0.9118800E+02  0.7818608E-02  0.1130116E+00
         25   -1    0    0    0    0  0.00000000000E+00  0.00000000000E+00  0.99999998245E-14  0.12500000000E+03  0.12500000000E+03 0.  0.
        -11    1    3    3    0    0 -0.91350366496E+01  0.31754895835E+02 -0.36584357215E+02  0.49297439053E+02  0.51100000000E-03 0.  1.
         23    2    1    0    0    0 -0.28668554615E+02  0.71562207420E+01 -0.29713228032E+01  0.95302756387E+02  0.90557656202E+02 0.  0.
         11    1    3    3    0    0 -0.19533517965E+02 -0.24598675093E+02  0.33613034412E+02  0.46005317334E+02  0.51100000000E-03 0. -1.
         22    1    1    0    0    0  0.28668554615E+02 -0.71562207420E+01  0.29713228032E+01  0.29697243613E+02  0.00000000000E+00 0. -1.
</event>
<event>
 5    1  0.3183396E-003  0.9118800E+02  0.7818608E-02  0.1130116E+00
         25   -1    0    0    0    0  0.00000000000E+00  0.00000000000E+00  0.99999998245E-14  0.12500000000E+03  0.12500000000E+03 0.  0.
        -11    1    3    3    0    0 -0.10105276670E+02  0.30158189637E+02  0.99251344930E+00  0.31821660893E+02  0.51100000000E-03 0. -1.
         23    2    1    0    0    0  0.94117236929E+01 -0.29039782210E+02  0.39190139859E+01  0.94222603029E+02  0.89054201234E+02 0.  0.
         11    1    3    3    0    0  0.19517000362E+02 -0.59197971847E+02  0.29265005366E+01  0.62400942137E+02  0.51100000000E-03 0.  1.
         22    1    1    0    0    0 -0.94117236929E+01  0.29039782210E+02 -0.39190139859E+01  0.30777396971E+02  0.00000000000E+00 0.  1.
</event>
<event>
 5    1  0.3183396E-003  0.9118800E+02  0.7818608E-02  0.1130116E+00
         25   -1    0    0    0    0  0.00000000000E+00  0.00000000000E+00  0.99999998245E-14  0.12500000000E+03  0.12500000000E+03 0.  0.
        -11    1    3    3    0    0  0.51854804391E+02 -0.11289752622E+02  0.17987390495E+02  0.56035037876E+02  0.51100000000E-03 0. -1.
         23    2    1    0    0    0  0.13636218274E+02 -0.21194519985E+02  0.15096985932E+02  0.95621894029E+02  0.90997107137E+02 0.  0.
         11    1    3    3    0    0 -0.38218586117E+02 -0.99047673629E+01 -0.28904045628E+01  0.39586856153E+02  0.51100000000E-03 0.  1.
         22    1    1    0    0    0 -0.13636218274E+02  0.21194519985E+02 -0.15096985932E+02  0.29378105971E+02  0.00000000000E+00 0. -1.
</event>
<event>
 5    1  0.3183396E-003  0.9118800E+02  0.7818608E-02  0.1130116E+00
         25   -1    0    0    0    0  0.00000000000E+00  0.00000000000E+00  0.99999998245E-14  0.12500000000E+03  0.12500000000E+03 0.  0.
        -11    1    3    3    0    0  0.32349786789E+02  0.58249963154E+01 -0.31080573248E+02  0.45237609586E+02  0.51100000000E-03 0.  1.
         23    2    1    0    0    0  0.20241237009E+02 -0.14855783963E+02  0.13971235712E+02  0.96266788900E+02  0.91878709313E+02 0.  0.
         11    1    3    3    0    0 -0.12108549779E+02 -0.20680780278E+02  0.45051808960E+02  0.51029179314E+02  0.51100000000E-03 0. -1.
         22    1    1    0    0    0 -0.20241237009E+02  0.14855783963E+02 -0.13971235712E+02  0.28733211100E+02  0.00000000000E+00 0. -1.
</event>
<event>
 5    1  0.3183396E-003  0.9118800E+02  0.7818608E-02  0.1130116E+00
         25   -1    0    0    0    0  0.00000000000E+00  0.00000000000E+00  0.99999998245E-14  0.12500000000E+03  0.12500000000E+03 0.  0.
        -11    1    3    3    0    0  0.12477846762E+02  0.22855760501E+02  0.28683547874E+02  0.38740526155E+02  0.51100000000E-03 0.  1.
         23    2    1    0    0    0 -0.27225281164E+02 -0.90825545575E+01  0.20743735601E+01  0.96224806561E+02  0.91821575026E+02 0.  0.
         11    1    3    3    0    0 -0.39703127927E+02 -0.31938315058E+02 -0.26609174313E+02  0.57484280406E+02  0.51100000000E-03 0. -1.
         22    1    1    0    0    0  0.27225281164E+02  0.90825545575E+01 -0.20743735601E+01  0.28775193439E+02  0.00000000000E+00 0. -1.
</event>
<event>
 5    1  0.3183396E-003  0.9118800E+02  0.7818608E-02  0.1130116E+00
         25   -1    0    0    0    0  0.00000000000E+00  0.00000000000E+00  0.99999998245E-14  0.12500000000E+03  0.12500000000E+03 0.  0.
        -11    1    3    3    0    0 -0.23715473685E+02  0.58824997782E+01 -0.26660178279E+02  0.36163415241E+02  0.51100000000E-03 0.  1.
         23    2    1    0    0    0  0.48129994240E+01  0.12285276662E+02  0.25686929817E+02  0.96122476742E+02  0.91682163944E+02 0.  0.
         11    1    3    3    0    0  0.28528473109E+02  0.64027768837E+01  0.52347108096E+02  0.59959061501E+02  0.51100000000E-03 0. -1.
         22    1    1    0    0    0 -0.48129994240E+01 -0.12285276662E+02 -0.25686929817E+02  0.28877523258E+02  0.00000000000E+00 0. -1.
</event>
<event>
 5    1  0.3183396E-003  0.9118800E+02  0.7818608E-02  0.1130116E+00
         25   -1    0    0    0    0  0.00000000000E+00  0.00000000000E+00  0.99999998245E-14  0.12500000000E+03  0.12500000000E+03 0.  0.
        -11    1    3    3    0    0  0.94297067052E+01  0.18809675266E+02  0.52001721581E+02  0.56097257507E+02  0.51100000000E-03 0. -1.
         23    2    1    0    0    0 -0.12736266450E+02  0.18464561542E+02  0.20535203270E+02  0.94588701288E+02  0.89566597133E+02 0.  0.
         11    1    3    3    0    0 -0.22165973155E+02 -0.34511372453E+00 -0.31466518312E+02  0.38491443781E+02  0.51100000000E-03 0.  1.
         22    1    1    0    0    0  0.12736266450E+02 -0.18464561542E+02 -0.20535203270E+02  0.30411298712E+02  0.00000000000E+00 0.  1.
</event>
<event>
 5    1  0.3183396E-003  0.9118800E+02  0.7818608E-02  0.1130116E+00
         25   -1    0    0    0    0  0.00000000000E+00  0.00000000000E+00  0.99999998245E-14  0.12500000000E+03  0.12500000000E+03 0.  0.
        -11    1    3    3    0    0  0.68937914659E+01  0.21356609298E+02 -0.28499124085E+02  0.36274360027E+02  0.51100000000E-03 0.  1.
         23    2    1    0    0    0 -0.15446347384E+02 -0.22609822849E+02  0.66337217452E+01  0.96825543466E+02  0.92635769909E+02 0.  0.
         11    1    3    3    0    0 -0.22340138850E+02 -0.43966432147E+02  0.35132845830E+02  0.60551183440E+02  0.51100000000E-03 0. -1.
         22    1    1    0    0    0  0.15446347384E+02  0.22609822849E+02 -0.66337217452E+01  0.28174456534E+02  0.00000000000E+00 0. -1.
</event>
<event>
 5    1  0.3183396E-003  0.9118800E+02  0.7818608E-02  0.1130116E+00
         25   -1    0    0    0    0  0.00000000000E+00  0.00000000000E+00  0.99999998245E-14  0.12500000000E+03  0.12500000000E+03 0.  0.
        -11    1    3    3    0    0  0.80435621989E+01  0.15285355712E+02  0.28594664442E+02  0.33406523718E+02  0.51100000000E-03 0.  1.
         23    2    1    0    0    0  0.35152924483E+01  0.29102502902E+00 -0.30374979617E+02  0.94420899894E+02  0.89332104943E+02 0.  0.
         11    1    3    3    0    0 -0.45282697506E+01 -0.14994330683E+02 -0.58969644059E+02  0.61014376177E+02  0.51100000000E-03 0. -1.
         22    1    1    0    0    0 -0.35152924483E+01 -0.29102502902E+00  0.30374979617E+02  0.30579100106E+02  0.00000000000E+00 0. -1.
</event>
<event>
 5    1  0.3183396E-003  0.9118800E+02  0.7818608E-02  0.1130116E+00
         25   -1    0    0    0    0  0.00000000000E+00  0.00000000000E+00  0.99999998245E-14  0.12500000000E+03  0.12500000000E+03 0.  0.
        -11    1    3    3    0    0 -0.40689523686E+01  0.30729800835E+02  0.23228856846E+02  0.38735730577E+02  0.51100000000E-03 0.  1.
         23    2    1    0    0    0  0.15511170208E+02 -0.21259700232E+02  0.14442761400E+02  0.94980596074E+02  0.90111869466E+02 0.  0.
         11    1    3    3    0    0  0.19580122577E+02 -0.51989501067E+02 -0.87860954457E+01  0.56244865497E+02  0.51100000000E-03 0. -1.
         22    1    1    0    0    0 -0.15511170208E+02  0.21259700232E+02 -0.14442761400E+02  0.30019403926E+02  0.00000000000E+00 0. -1.
</event>
<event>
 5    1  0.3183396E-003  0.9118800E+02  0.7818608E-02  0.1130116E+00
         25   -1    0    0    0    0  0.00000000000E+00  0.00000000000E+00  0.99999998245E-14  0.12500000000E+03  0.12500000000E+03 0.  0.
        -11    1    3    3    0    0 -0.26427767426E+02  0.52620962403E+02  0.20674336367E+01  0.58920852484E+02  0.51100000000E-03 0. -1.
         23    2    1    0    0    0 -0.10976854262E+02  0.22185241607E+02  0.15714194277E+02  0.95680856485E+02  0.91078066082E+02 0.  0.
         11    1    3    3    0    0  0.15450913164E+02 -0.30435720796E+02  0.13646760641E+02  0.36760004002E+02  0.51100000000E-03 0.  1.
         22    1    1    0    0    0  0.10976854262E+02 -0.22185241607E+02 -0.15714194277E+02  0.29319143515E+02  0.00000000000E+00 0.  1.
</event>
<event>
 5    1  0.3183396E-003  0.9118800E+02  0.7818608E-02  0.1130116E+00
         25   -1    0    0    0    0  0.00000000000E+00  0.00000000000E+00  0.99999998245E-14  0.12500000000E+03  0.12500000000E+03 0.  0.
        -11    1    3    3    0    0 -0.43899754303E+02  0.40160477168E+02  0.13913498725E+01  0.59514605006E+02  0.51100000000E-03 0. -1.
         23    2    1    0    0    0 -0.32189655654E+02  0.13157230449E+02 -0.56271859342E+01  0.89772853284E+02  0.82572473144E+02 0.  0.
         11    1    3    3    0    0  0.11710098649E+02 -0.27003246719E+02 -0.70185358067E+01  0.30258248279E+02  0.51100000000E-03 0.  1.
         22    1    1    0    0    0  0.32189655654E+02 -0.13157230449E+02  0.56271859342E+01  0.35227146716E+02  0.00000000000E+00 0. -1.
</event>
<event>
 5    1  0.3183396E-003  0.9118800E+02  0.7818608E-02  0.1130116E+00
         25   -1    0    0    0    0  0.00000000000E+00  0.00000000000E+00  0.99999998245E-14  0.12500000000E+03  0.12500000000E+03 0.  0.
        -11    1    3    3    0    0 -0.83325258867E+01 -0.21125002849E+02  0.32074960702E+02  0.39300125157E+02  0.51100000000E-03 0.  1.
         23    2    1    0    0    0 -0.95385354474E+01 -0.12008995689E+02 -0.24215443973E+02  0.96336654718E+02  0.91973711894E+02 0.  0.
         11    1    3    3    0    0 -0.12060095606E+01  0.91160071606E+01 -0.56290404675E+02  0.57036529561E+02  0.51100000000E-03 0. -1.
         22    1    1    0    0    0  0.95385354474E+01  0.12008995689E+02  0.24215443973E+02  0.28663345282E+02  0.00000000000E+00 0. -1.
</event>
<event>
 5    1  0.3183396E-003  0.9118800E+02  0.7818608E-02  0.1130116E+00
         25   -1    0    0    0    0  0.00000000000E+00  0.00000000000E+00  0.99999998245E-14  0.12500000000E+03  0.12500000000E+03 0.  0.
        -11    1    3    3    0    0  0.42995837591E+02  0.11660169518E+02  0.22543101314E+02  0.49927878189E+02  0.51100000000E-03 0. -1.
         23    2    1    0    0    0  0.26489237177E+02 -0.18647872710E+02 -0.24103281723E+01  0.92515657237E+02  0.86625136706E+02 0.  0.
         11    1    3    3    0    0 -0.16506600413E+02 -0.30308042228E+02 -0.24953429486E+02  0.42587779049E+02  0.51100000000E-03 0.  1.
         22    1    1    0    0    0 -0.26489237177E+02  0.18647872710E+02  0.24103281723E+01  0.32484342763E+02  0.00000000000E+00 0. -1.
</event>
<event>
 5    1  0.3183396E-003  0.9118800E+02  0.7818608E-02  0.1130116E+00
         25   -1    0    0    0    0  0.00000000000E+00  0.00000000000E+00  0.99999998245E-14  0.12500000000E+03  0.12500000000E+03 0.  0.
        -11    1    3    3    0    0 -0.38744608588E+02  0.20908621951E+02  0.35159560595E+02  0.56342788962E+02  0.51100000000E-03 0.  1.
         23    2    1    0    0    0 -0.28053934876E+02  0.77113417080E+01 -0.56600983072E+00  0.95900027146E+02  0.91378371547E+02 0.  0.
         11    1    3    3    0    0  0.10690673712E+02 -0.13197280243E+02 -0.35725570426E+02  0.39557238184E+02  0.51100000000E-03 0. -1.
         22    1    1    0    0    0  0.28053934876E+02 -0.77113417080E+01  0.56600983072E+00  0.29099972854E+02  0.00000000000E+00 0.  1.
</event>
<event>
 5    1  0.3183396E-003  0.9118800E+02  0.7818608E-02  0.1130116E+00
         25   -1    0    0    0    0  0.00000000000E+00  0.00000000000E+00  0.99999998245E-14  0.12500000000E+03  0.12500000000E+03 0.  0.
        -11    1    3    3    0    0 -0.38928868193E+02  0.40636005001E+01 -0.43436996149E+02  0.58470011652E+02  0.51100000000E-03 0. -1.
         23    2    1    0    0    0 -0.23218877562E+02 -0.12872449415E+02 -0.17499961435E+02  0.93202753587E+02  0.87611006140E+02 0.  0.
         11    1    3    3    0    0  0.15709990631E+02 -0.16936049915E+02  0.25937034714E+02  0.34732741936E+02  0.51100000000E-03 0.  1.
         22    1    1    0    0    0  0.23218877562E+02  0.12872449415E+02  0.17499961435E+02  0.31797246413E+02  0.00000000000E+00 0. -1.
</event>
<event>
 5    1  0.3183396E-003  0.9118800E+02  0.7818608E-02  0.1130116E+00
         25   -1    0    0    0    0  0.00000000000E+00  0.00000000000E+00  0.99999998245E-14  0.12500000000E+03  0.12500000000E+03 0.  0.
        -11    1    3    3    0    0 -0.14487669464E+01 -0.36699738876E+02  0.42958520955E+02  0.56519061229E+02  0.51100000000E-03 0.  1.
         23    2    1    0    0    0  0.87284123178E+01 -0.27908265999E+02  0.69683987264E+01  0.94939809158E+02  0.90055273524E+02 0.  0.
         11    1    3    3    0    0  0.10177179264E+02  0.87914728779E+01 -0.35990122229E+02  0.38420747929E+02  0.51100000000E-03 0. -1.
         22    1    1    0    0    0 -0.87284123178E+01  0.27908265999E+02 -0.69683987264E+01  0.30060190842E+02  0.00000000000E+00 0.  1.
</event>
<event>
 5    1  0.3183396E-003  0.9118800E+02  0.7818608E-02  0.1130116E+00
         25   -1    0    0    0    0  0.00000000000E+00  0.00000000000E+00  0.99999998245E-14  0.12500000000E+03  0.12500000000E+03 0.  0.
        -11    1    3    3    0    0  0.30333484183E+02 -0.39550274149E+02  0.36877224937E+02  0.62002210987E+02  0.51100000000E-03 0.  1.
         23    2    1    0    0    0  0.11047719164E+02 -0.16453624231E+02  0.21376354772E+02  0.95850001846E+02  0.91309914365E+02 0.  0.
         11    1    3    3    0    0 -0.19285765019E+02  0.23096649918E+02 -0.15500870165E+02  0.33847790858E+02  0.51100000000E-03 0. -1.
         22    1    1    0    0    0 -0.11047719164E+02  0.16453624231E+02 -0.21376354772E+02  0.29149998154E+02  0.00000000000E+00 0.  1.
</event>
<event>
 5    1  0.3183396E-003  0.9118800E+02  0.7818608E-02  0.1130116E+00
         25   -1    0    0    0    0  0.00000000000E+00  0.00000000000E+00  0.99999998245E-14  0.12500000000E+03  0.12500000000E+03 0.  0.
        -11    1    3    3    0    0 -0.36409777777E+02 -0.19872978120E+02 -0.20799223596E+01  0.41532315784E+02  0.51100000000E-03 0.  1.
         23    2    1    0    0    0  0.67238351696E+01  0.95608011353E+01  0.22802095085E+02  0.99376682143E+02  0.96016511787E+02 0.  0.
         11    1    3    3    0    0  0.43133612946E+02  0.29433779255E+02  0.24882017445E+02  0.57844366359E+02  0.51100000000E-03 0. -1.
         22    1    1    0    0    0 -0.67238351696E+01 -0.95608011353E+01 -0.22802095085E+02  0.25623317857E+02  0.00000000000E+00 0. -1.
</event>
<event>
 5    1  0.3183396E-003  0.9118800E+02  0.7818608E-02  0.1130116E+00
         25   -1    0    0    0    0  0.00000000000E+00  0.00000000000E+00  0.99999998245E-14  0.12500000000E+03  0.12500000000E+03 0.  0.
        -11    1    3    3    0    0 -0.18806529628E+02 -0.56657071090E+01  0.30781283711E+02  0.36514014034E+02  0.51100000000E-03 0. -1.
         23    2    1    0    0    0  0.49182430357E+01  0.16535599661E+02 -0.21109191784E+02  0.97738064110E+02  0.93859022089E+02 0.  0.
         11    1    3    3    0    0  0.23724772664E+02  0.22201306770E+02 -0.51890475495E+02  0.61224050076E+02  0.51100000000E-03 0.  1.
         22    1    1    0    0    0 -0.49182430357E+01 -0.16535599661E+02  0.21109191784E+02  0.27261935890E+02  0.00000000000E+00 0.  1.
</event>
<event>
 5    1  0.3183396E-003  0.9118800E+02  0.7818608E-02  0.1130116E+00
         25   -1    0    0    0    0  0.00000000000E+00  0.00000000000E+00  0.99999998245E-14  0.12500000000E+03  0.12500000000E+03 0.  0.
        -11    1    3    3    0    0 -0.35121258354E+02  0.42852621110E+02 -0.27322365615E+02  0.61776707483E+02  0.51100000000E-03 0. -1.
         23    2    1    0    0    0 -0.17070149421E+02  0.21511447897E+02 -0.61071510706E+01  0.96867639877E+02  0.92692556170E+02 0.  0.
         11    1    3    3    0    0  0.18051108933E+02 -0.21341173214E+02  0.21215214545E+02  0.35090932394E+02  0.51100000000E-03 0.  1.
         22    1    1    0    0    0  0.17070149421E+02 -0.21511447897E+02  0.61071510706E+01  0.28132360123E+02  0.00000000000E+00 0. -1.
</event>
<event>
 5    1  0.3183396E-003  0.9118800E+02  0.7818608E-02  0.1130116E+00
         25   -1    0    0    0    0  0.00000000000E+00  0.00000000000E+00  0.99999998245E-14  0.12500000000E+03  0.12500000000E+03 0.  0.
        -11    1    3    3    0    0  0.15980277692E+01 -0.52543123600E+02 -0.18571669394E+01  0.52600214826E+02  0.51100000000E-03 0. -1.
         23    2    1    0    0    0 -0.23980337410E+01 -0.15966834260E+02 -0.24393264165E+02  0.95747278780E+02  0.91169181718E+02 0.  0.
         11    1    3    3    0    0 -0.39960615101E+01  0.36576289340E+02 -0.22536097226E+02  0.43147063955E+02  0.51100000000E-03 0.  1.
         22    1    1    0    0    0  0.23980337410E+01  0.15966834260E+02  0.24393264165E+02  0.29252721220E+02  0.00000000000E+00 0.  1.
</event>
<event>
 5    1  0.3183396E-003  0.9118800E+02  0.7818608E-02  0.1130116E+00
         25   -1    0    0    0    0  0.00000000000E+00  0.00000000000E+00  0.99999998245E-14  0.12500000000E+03  0.12500000000E+03 0.  0.
        -11    1    3    3    0    0 -0.29590497912E+02 -0.13746378613E+02  0.41485582303E+02  0.52778916538E+02  0.51100000000E-03 0. -1.
         23    2    1    0    0    0 -0.29596648147E+02  0.25838152253E+01  0.23345266839E+01  0.95199199717E+02  0.90414600200E+02 0.  0.
         11    1    3    3    0    0 -0.61502344877E-02  0.16330193838E+02 -0.39151055619E+02  0.42420283179E+02  0.51100000000E-03 0.  1.
         22    1    1    0    0    0  0.29596648147E+02 -0.25838152253E+01 -0.23345266839E+01  0.29800800283E+02  0.00000000000E+00 0. -1.
</event>
<event>
 5    1  0.3183396E-003  0.9118800E+02  0.7818608E-02  0.1130116E+00
         25   -1    0    0    0    0  0.00000000000E+00  0.00000000000E+00  0.99999998245E-14  0.12500000000E+03  0.12500000000E+03 0.  0.
        -11    1    3    3    0    0 -0.54593800229E+02  0.77297788140E+01  0.15128109783E+02  0.57175975810E+02  0.51100000000E-03 0. -1.
         23    2    1    0    0    0 -0.24152242712E+02  0.20150012454E+02 -0.41627850638E+00  0.93543250045E+02  0.88095473841E+02 0.  0.
         11    1    3    3    0    0  0.30441557517E+02  0.12420233640E+02 -0.15544388289E+02  0.36367274235E+02  0.51100000000E-03 0.  1.
         22    1    1    0    0    0  0.24152242712E+02 -0.20150012454E+02  0.41627850638E+00  0.31456749955E+02  0.00000000000E+00 0. -1.
</event>
<event>
 5    1  0.3183396E-003  0.9118800E+02  0.7818608E-02  0.1130116E+00
         25   -1    0    0    0    0  0.00000000000E+00  0.00000000000E+00  0.99999998245E-14  0.12500000000E+03  0.12500000000E+03 0.  0.
        -11    1    3    3    0    0 -0.27956537971E+02  0.85243595911E+01  0.22722225158E+02  0.37020700130E+02  0.51100000000E-03 0.  1.
         23    2    1    0    0    0  0.10175473401E+02  0.20144554657E+02 -0.19562300323E+02  0.95133180029E+02  0.90323280539E+02 0.  0.
         11    1    3    3    0    0  0.38132011372E+02  0.11620195066E+02 -0.42284525481E+02  0.58112479899E+02  0.51100000000E-03 0. -1.
         22    1    1    0    0    0 -0.10175473401E+02 -0.20144554657E+02  0.19562300323E+02  0.29866819971E+02  0.00000000000E+00 0. -1.
</event>
<event>
 5    1  0.3183396E-003  0.9118800E+02  0.7818608E-02  0.1130116E+00
         25   -1    0    0    0    0  0.00000000000E+00  0.00000000000E+00  0.99999998245E-14  0.12500000000E+03  0.12500000000E+03 0.  0.
        -11    1    3    3    0    0 -0.37807693500E+02  0.19147518217E+02 -0.11620721334E+02  0.43944172608E+02  0.51100000000E-03 0. -1.
         23    2    1    0    0    0  0.27525577603E+01  0.13974950990E+02  0.23283942676E+02  0.97704985511E+02  0.93814958177E+02 0.  0.
         11    1    3    3    0    0  0.40560251260E+02 -0.51725672267E+01  0.34904664011E+02  0.53760812902E+02  0.51100000000E-03 0.  1.
         22    1    1    0    0    0 -0.27525577603E+01 -0.13974950990E+02 -0.23283942676E+02  0.27295014489E+02  0.00000000000E+00 0.  1.
</event>
<event>
 5    1  0.3183396E-003  0.9118800E+02  0.7818608E-02  0.1130116E+00
         25   -1    0    0    0    0  0.00000000000E+00  0.00000000000E+00  0.99999998245E-14  0.12500000000E+03  0.12500000000E+03 0.  0.
        -11    1    3    3    0    0 -0.24126548082E+02 -0.40056968323E+02 -0.10921607718E+02  0.48020126499E+02  0.51100000000E-03 0.  1.
         23    2    1    0    0    0 -0.27297344170E+02  0.73859890157E+01 -0.40437164212E+00  0.96718179887E+02  0.92490783172E+02 0.  0.
         11    1    3    3    0    0 -0.31707960879E+01  0.47442957339E+02  0.10517236076E+02  0.48698053388E+02  0.51100000000E-03 0. -1.
         22    1    1    0    0    0  0.27297344170E+02 -0.73859890157E+01  0.40437164212E+00  0.28281820113E+02  0.00000000000E+00 0.  1.
</event>
<event>
 5    1  0.3183396E-003  0.9118800E+02  0.7818608E-02  0.1130116E+00
         25   -1    0    0    0    0  0.00000000000E+00  0.00000000000E+00  0.99999998245E-14  0.12500000000E+03  0.12500000000E+03 0.  0.
        -11    1    3    3    0    0  0.13410663008E+02 -0.19602788122E+02  0.26755104386E+02  0.35776399979E+02  0.51100000000E-03 0.  1.
         23    2    1    0    0    0  0.69995648492E+01  0.27913238437E+02 -0.81592674886E+01  0.95088189054E+02  0.90260995250E+02 0.  0.
         11    1    3    3    0    0 -0.64110981592E+01  0.47516026559E+02 -0.34914371875E+02  0.59311789075E+02  0.51100000000E-03 0. -1.
         22    1    1    0    0    0 -0.69995648492E+01 -0.27913238437E+02  0.81592674886E+01  0.29911810946E+02  0.00000000000E+00 0. -1.
</event>
<event>
 5    1  0.3183396E-003  0.9118800E+02  0.7818608E-02  0.1130116E+00
         25   -1    0    0    0    0  0.00000000000E+00  0.00000000000E+00  0.99999998245E-14  0.12500000000E+03  0.12500000000E+03 0.  0.
        -11    1    3    3    0    0  0.51995755083E+02 -0.21911654231E+01  0.71360297175E+00  0.52046796078E+02  0.51100000000E-03 0.  1.
         23    2    1    0    0    0  0.15952105750E+02 -0.16700696396E+02  0.19098214194E+02  0.95031270908E+02  0.90182136407E+02 0.  0.
         11    1    3    3    0    0 -0.36043649333E+02 -0.14509530973E+02  0.18384611223E+02  0.42984474830E+02  0.51100000000E-03 0. -1.
         22    1    1    0    0    0 -0.15952105750E+02  0.16700696396E+02 -0.19098214194E+02  0.29968729092E+02  0.00000000000E+00 0.  1.
</event>
<event>
 5    1  0.3183396E-003  0.9118800E+02  0.7818608E-02  0.1130116E+00
         25   -1    0    0    0    0  0.00000000000E+00  0.00000000000E+00  0.99999998245E-14  0.12500000000E+03  0.12500000000E+03 0.  0.
        -11    1    3    3    0    0 -0.43229972429E+01 -0.29903255517E+02 -0.53889149677E+02  0.61781335764E+02  0.51100000000E-03 0. -1.
         23    2    1    0    0    0 -0.67822580442E+01 -0.17687442764E+02 -0.22294967019E+02  0.95744056841E+02  0.91164764083E+02 0.  0.
         11    1    3    3    0    0 -0.24592608013E+01  0.12215812753E+02  0.31594182658E+02  0.33962721077E+02  0.51100000000E-03 0.  1.
         22    1    1    0    0    0  0.67822580442E+01  0.17687442764E+02  0.22294967019E+02  0.29255943159E+02  0.00000000000E+00 0. -1.
</event>
<event>
 5    1  0.3183396E-003  0.9118800E+02  0.7818608E-02  0.1130116E+00
         25   -1    0    0    0    0  0.00000000000E+00  0.00000000000E+00  0.99999998245E-14  0.12500000000E+03  0.12500000000E+03 0.  0.
        -11    1    3    3    0    0 -0.49991317599E+01 -0.37472994584E+02 -0.40997007136E+02  0.55767116080E+02  0.51100000000E-03 0.  1.
         23    2    1    0    0    0 -0.53283047885E+01 -0.26115655079E+02  0.38213998579E-01  0.98346299836E+02  0.94665595435E+02 0.  0.
         11    1    3    3    0    0 -0.32917302867E+00  0.11357339505E+02  0.41035221135E+02  0.42579183756E+02  0.51100000000E-03 0. -1.
         22    1    1    0    0    0  0.53283047885E+01  0.26115655079E+02 -0.38213998579E-01  0.26653700164E+02  0.00000000000E+00 0.  1.
</event>
<event>
 5    1  0.3183396E-003  0.9118800E+02  0.7818608E-02  0.1130116E+00
         25   -1    0    0    0    0  0.00000000000E+00  0.00000000000E+00  0.99999998245E-14  0.12500000000E+03  0.12500000000E+03 0.  0.
        -11    1    3    3    0    0 -0.30082326177E+02 -0.12465004422E+02  0.12331688988E+01  0.32585938521E+02  0.51100000000E-03 0. -1.
         23    2    1    0    0    0  0.24734444047E+02  0.57008315847E+01  0.19320432705E+02  0.93100606229E+02  0.87465144813E+02 0.  0.
         11    1    3    3    0    0  0.54816770224E+02  0.18165836007E+02  0.18087263806E+02  0.60514667708E+02  0.51100000000E-03 0.  1.
         22    1    1    0    0    0 -0.24734444047E+02 -0.57008315847E+01 -0.19320432705E+02  0.31899393771E+02  0.00000000000E+00 0.  1.
</event>
<event>
 5    1  0.3183396E-003  0.9118800E+02  0.7818608E-02  0.1130116E+00
         25   -1    0    0    0    0  0.00000000000E+00  0.00000000000E+00  0.99999998245E-14  0.12500000000E+03  0.12500000000E+03 0.  0.
        -11    1    3    3    0    0 -0.43411558191E+02  0.18427451859E+02 -0.16862934214E+02  0.50084857164E+02  0.51100000000E-03 0.  1.
         23    2    1    0    0    0 -0.28920943186E+02 -0.13420978116E+02  0.68967281427E+01  0.92379324541E+02  0.86428184843E+02 0.  0.
         11    1    3    3    0    0  0.14490615005E+02 -0.31848429975E+02  0.23759662357E+02  0.42294467376E+02  0.51100000000E-03 0. -1.
         22    1    1    0    0    0  0.28920943186E+02  0.13420978116E+02 -0.68967281427E+01  0.32620675459E+02  0.00000000000E+00 0. -1.
</event>
<event>
 5    1  0.3183396E-003  0.9118800E+02  0.7818608E-02  0.1130116E+00
         25   -1    0    0    0    0  0.00000000000E+00  0.00000000000E+00  0.99999998245E-14  0.12500000000E+03  0.12500000000E+03 0.  0.
        -11    1    3    3    0    0  0.45762879032E+02  0.16123826913E+02 -0.14432989144E+02  0.50621438812E+02  0.51100000000E-03 0. -1.
         23    2    1    0    0    0  0.10555542000E+02  0.21824468588E+02  0.14678200127E+02  0.96659632059E+02  0.92411622726E+02 0.  0.
         11    1    3    3    0    0 -0.35207337032E+02  0.57006416754E+01  0.29111189271E+02  0.46038193247E+02  0.51100000000E-03 0.  1.
         22    1    1    0    0    0 -0.10555542000E+02 -0.21824468588E+02 -0.14678200127E+02  0.28340367941E+02  0.00000000000E+00 0. -1.
</event>
<event>
 5    1  0.3183396E-003  0.9118800E+02  0.7818608E-02  0.1130116E+00
         25   -1    0    0    0    0  0.00000000000E+00  0.00000000000E+00  0.99999998245E-14  0.12500000000E+03  0.12500000000E+03 0.  0.
        -11    1    3    3    0    0 -0.12040194072E+02 -0.38352657266E+02  0.22054992439E+02  0.45851011814E+02  0.51100000000E-03 0.  1.
         23    2    1    0    0    0  0.86638426632E+01  0.54387821038E+01  0.28502572369E+02  0.94717345689E+02  0.89745954908E+02 0.  0.
         11    1    3    3    0    0  0.20704036735E+02  0.43791439370E+02  0.64475799295E+01  0.48866333875E+02  0.51100000000E-03 0. -1.
         22    1    1    0    0    0 -0.86638426632E+01 -0.54387821038E+01 -0.28502572369E+02  0.30282654311E+02  0.00000000000E+00 0.  1.
</event>
<event>
 5    1  0.3183396E-003  0.9118800E+02  0.7818608E-02  0.1130116E+00
         25   -1    0    0    0    0  0.00000000000E+00  0.00000000000E+00  0.99999998245E-14  0.12500000000E+03  0.12500000000E+03 0.  0.
        -11    1    3    3    0    0  0.31435763909E+02  0.13591999011E+02 -0.13121528751E+01  0.34273480055E+02  0.51100000000E-03 0. -1.
         23    2    1    0    0    0 -0.22482734659E+02 -0.91492914874E+01  0.16741691899E+02  0.95513271797E+02  0.90847773497E+02 0.  0.
         11    1    3    3    0    0 -0.53918498567E+02 -0.22741290498E+02  0.18053844774E+02  0.61239791743E+02  0.51100000000E-03 0.  1.
         22    1    1    0    0    0  0.22482734659E+02  0.91492914874E+01 -0.16741691899E+02  0.29486728203E+02  0.00000000000E+00 0.  1.
</event>
<event>
 5    1  0.3183396E-003  0.9118800E+02  0.7818608E-02  0.1130116E+00
         25   -1    0    0    0    0  0.00000000000E+00  0.00000000000E+00  0.99999998245E-14  0.12500000000E+03  0.12500000000E+03 0.  0.
        -11    1    3    3    0    0 -0.52766875597E+02 -0.16958114002E+02  0.26958924853E+02  0.61633630595E+02  0.51100000000E-03 0.  1.
         23    2    1    0    0    0 -0.20711648230E+02 -0.86784536501E+01  0.18754175915E+02  0.95742401937E+02  0.91162494943E+02 0.  0.
         11    1    3    3    0    0  0.32055227367E+02  0.82796603517E+01 -0.82047489378E+01  0.34108771342E+02  0.51100000000E-03 0. -1.
         22    1    1    0    0    0  0.20711648230E+02  0.86784536501E+01 -0.18754175915E+02  0.29257598063E+02  0.00000000000E+00 0.  1.
</event>
<event>
 5    1  0.3183396E-003  0.9118800E+02  0.7818608E-02  0.1130116E+00
         25   -1    0    0    0    0  0.00000000000E+00  0.00000000000E+00  0.99999998245E-14  0.12500000000E+03  0.12500000000E+03 0.  0.
        -11    1    3    3    0    0 -0.22926553217E+02  0.39972560847E+02  0.35513966921E+02  0.58177953813E+02  0.51100000000E-03 0.  1.
         23    2    1    0    0    0 -0.24411982506E+02  0.97140171751E+01  0.15329223344E+02  0.94581385503E+02  0.89556386572E+02 0.  0.
         11    1    3    3    0    0 -0.14854292892E+01 -0.30258543672E+02 -0.20184743576E+02  0.36403431690E+02  0.51100000000E-03 0. -1.
         22    1    1    0    0    0  0.24411982506E+02 -0.97140171751E+01 -0.15329223344E+02  0.30418614497E+02  0.00000000000E+00 0.  1.
</event>
<event>
 5    1  0.3183396E-003  0.9118800E+02  0.7818608E-02  0.1130116E+00
         25   -1    0    0    0    0  0.00000000000E+00  0.00000000000E+00  0.99999998245E-14  0.12500000000E+03  0.12500000000E+03 0.  0.
        -11    1    3    3    0    0 -0.13300234327E+02  0.47667168397E+02 -0.33668162939E+02  0.59854827475E+02  0.51100000000E-03 0. -1.
         23    2    1    0    0    0 -0.17400095953E+02  0.16270737925E+02 -0.17736996264E+02  0.95299809962E+02  0.90553589054E+02 0.  0.
         11    1    3    3    0    0 -0.40998616258E+01 -0.31396430471E+02  0.15931166675E+02  0.35444982488E+02  0.51100000000E-03 0.  1.
         22    1    1    0    0    0  0.17400095953E+02 -0.16270737925E+02  0.17736996264E+02  0.29700190038E+02  0.00000000000E+00 0. -1.
</event>
<event>
 5    1  0.3183396E-003  0.9118800E+02  0.7818608E-02  0.1130116E+00
         25   -1    0    0    0    0  0.00000000000E+00  0.00000000000E+00  0.99999998245E-14  0.12500000000E+03  0.12500000000E+03 0.  0.
        -11    1    3    3    0    0 -0.14605717909E+02 -0.19754132941E+02 -0.23208373347E+02  0.33796173712E+02  0.51100000000E-03 0.  1.
         23    2    1    0    0    0  0.58857958707E+01  0.20928735628E+02  0.19171373518E+02  0.96013863131E+02  0.91533959724E+02 0.  0.
         11    1    3    3    0    0  0.20491513780E+02  0.40682868569E+02  0.42379746865E+02  0.62217689419E+02  0.51100000000E-03 0. -1.
         22    1    1    0    0    0 -0.58857958707E+01 -0.20928735628E+02 -0.19171373518E+02  0.28986136869E+02  0.00000000000E+00 0. -1.
</event>
<event>
 5    1  0.3183396E-003  0.9118800E+02  0.7818608E-02  0.1130116E+00
         25   -1    0    0    0    0  0.00000000000E+00  0.00000000000E+00  0.99999998245E-14  0.12500000000E+03  0.12500000000E+03 0.  0.
        -11    1    3    3    0    0  0.43766044857E+02 -0.24191515258E+02 -0.30538528304E+02  0.58594349592E+02  0.51100000000E-03 0. -1.
         23    2    1    0    0    0  0.19304495840E+02 -0.14987299441E+02  0.21724064589E+01  0.10046426985E+03  0.97422109722E+02 0.  0.
         11    1    3    3    0    0 -0.24461549017E+02  0.92042158173E+01  0.32710934763E+02  0.41869920258E+02  0.51100000000E-03 0.  1.
         22    1    1    0    0    0 -0.19304495840E+02  0.14987299441E+02 -0.21724064589E+01  0.24535730150E+02  0.00000000000E+00 0. -1.
</event>
<event>
 5    1  0.3183396E-003  0.9118800E+02  0.7818608E-02  0.1130116E+00
         25   -1    0    0    0    0  0.00000000000E+00  0.00000000000E+00  0.99999998245E-14  0.12500000000E+03  0.12500000000E+03 0.  0.
        -11    1    3    3    0    0 -0.17821030395E+02 -0.20718229413E+02  0.22176767737E+02  0.35194362928E+02  0.51100000000E-03 0.  1.
         23    2    1    0    0    0  0.21309610085E+02 -0.11707958757E+01 -0.19850156255E+02  0.95853834758E+02  0.91315161335E+02 0.  0.
         11    1    3    3    0    0  0.39130640480E+02  0.19547433537E+02 -0.42026923992E+02  0.60659471831E+02  0.51100000000E-03 0. -1.
         22    1    1    0    0    0 -0.21309610085E+02  0.11707958757E+01  0.19850156255E+02  0.29146165242E+02  0.00000000000E+00 0. -1.
</event>
<event>
 5    1  0.3183396E-003  0.9118800E+02  0.7818608E-02  0.1130116E+00
         25   -1    0    0    0    0  0.00000000000E+00  0.00000000000E+00  0.99999998245E-14  0.12500000000E+03  0.12500000000E+03 0.  0.
        -11    1    3    3    0    0 -0.30567741861E+02 -0.76067908199E+01  0.32175736389E+02  0.45028081477E+02  0.51100000000E-03 0.  1.
         23    2    1    0    0    0  0.12723303515E+02 -0.23793941411E+02  0.11131721474E+02  0.95811829054E+02  0.91257642220E+02 0.  0.
         11    1    3    3    0    0  0.43291045376E+02 -0.16187150591E+02 -0.21044014915E+02  0.50783747577E+02  0.51100000000E-03 0. -1.
         22    1    1    0    0    0 -0.12723303515E+02  0.23793941411E+02 -0.11131721474E+02  0.29188170946E+02  0.00000000000E+00 0. -1.
</event>
<event>
 5    1  0.3183396E-003  0.9118800E+02  0.7818608E-02  0.1130116E+00
         25   -1    0    0    0    0  0.00000000000E+00  0.00000000000E+00  0.99999998245E-14  0.12500000000E+03  0.12500000000E+03 0.  0.
        -11    1    3    3    0    0  0.14711985056E+02 -0.25560096277E+02 -0.17659814928E+02  0.34374846757E+02  0.51100000000E-03 0.  1.
         23    2    1    0    0    0  0.16299760743E+01  0.10681049054E+02  0.28510878107E+02  0.94510464069E+02  0.89457341885E+02 0.  0.
         11    1    3    3    0    0 -0.13082008982E+02  0.36241145331E+02  0.46170693035E+02  0.60135617312E+02  0.51100000000E-03 0. -1.
         22    1    1    0    0    0 -0.16299760743E+01 -0.10681049054E+02 -0.28510878107E+02  0.30489535931E+02  0.00000000000E+00 0. -1.
</event>
<event>
 5    1  0.3183396E-003  0.9118800E+02  0.7818608E-02  0.1130116E+00
         25   -1    0    0    0    0  0.00000000000E+00  0.00000000000E+00  0.99999998245E-14  0.12500000000E+03  0.12500000000E+03 0.  0.
        -11    1    3    3    0    0  0.49712713170E+01 -0.17671745687E+01 -0.29171124393E+02  0.29644408294E+02  0.51100000000E-03 0.  1.
         23    2    1    0    0    0  0.36422299282E+02 -0.58540413259E+01  0.15960663457E+02  0.84805517010E+02  0.74675158202E+02 0.  0.
         11    1    3    3    0    0  0.31451027965E+02 -0.40868667572E+01  0.45131787851E+02  0.55161108716E+02  0.51100000000E-03 0. -1.
         22    1    1    0    0    0 -0.36422299282E+02  0.58540413259E+01 -0.15960663457E+02  0.40194482990E+02  0.00000000000E+00 0. -1.
</event>
<event>
 5    1  0.3183396E-003  0.9118800E+02  0.7818608E-02  0.1130116E+00
         25   -1    0    0    0    0  0.00000000000E+00  0.00000000000E+00  0.99999998245E-14  0.12500000000E+03  0.12500000000E+03 0.  0.
        -11    1    3    3    0    0  0.31942111932E+02  0.25821278274E+02  0.10506386456E+02  0.42396003149E+02  0.51100000000E-03 0.  1.
         23    2    1    0    0    0  0.19385549321E+02 -0.17979152972E+02 -0.14987574972E+02  0.94607947295E+02  0.89593453018E+02 0.  0.
         11    1    3    3    0    0 -0.12556562610E+02 -0.43800431246E+02 -0.25493961429E+02  0.52211944146E+02  0.51100000000E-03 0. -1.
         22    1    1    0    0    0 -0.19385549321E+02  0.17979152972E+02  0.14987574972E+02  0.30392052705E+02  0.00000000000E+00 0. -1.
</event>
<event>
 5    1  0.3183396E-003  0.9118800E+02  0.7818608E-02  0.1130116E+00
         25   -1    0    0    0    0  0.00000000000E+00  0.00000000000E+00  0.99999998245E-14  0.12500000000E+03  0.12500000000E+03 0.  0.
        -11    1    3    3    0    0  0.23461044890E+02  0.21438766641E+02 -0.20323386107E+02  0.37723750683E+02  0.51100000000E-03 0. -1.
         23    2    1    0    0    0 -0.33206551352E+01  0.65494506888E+01  0.28611691653E+02  0.95461026523E+02  0.90775859294E+02 0.  0.
         11    1    3    3    0    0 -0.26781700025E+02 -0.14889315953E+02  0.48935077760E+02  0.57737275840E+02  0.51100000000E-03 0.  1.
         22    1    1    0    0    0  0.33206551352E+01 -0.65494506888E+01 -0.28611691653E+02  0.29538973477E+02  0.00000000000E+00 0.  1.
</event>
<event>
 5    1  0.3183396E-003  0.9118800E+02  0.7818608E-02  0.1130116E+00
         25   -1    0    0    0    0  0.00000000000E+00  0.00000000000E+00  0.99999998245E-14  0.12500000000E+03  0.12500000000E+03 0.  0.
        -11    1    3    3    0    0 -0.31164584629E+01  0.28713427870E+01  0.36495893522E+02  0.36741082823E+02  0.51100000000E-03 0. -1.
         23    2    1    0    0    0 -0.16881816809E+02  0.11879871775E+02 -0.20406136264E+02  0.95973503667E+02  0.91478827696E+02 0.  0.
         11    1    3    3    0    0 -0.13765358346E+02  0.90085289878E+01 -0.56902029787E+02  0.59232420844E+02  0.51100000000E-03 0.  1.
         22    1    1    0    0    0  0.16881816809E+02 -0.11879871775E+02  0.20406136264E+02  0.29026496333E+02  0.00000000000E+00 0.  1.
</event>
<event>
 5    1  0.3183396E-003  0.9118800E+02  0.7818608E-02  0.1130116E+00
         25   -1    0    0    0    0  0.00000000000E+00  0.00000000000E+00  0.99999998245E-14  0.12500000000E+03  0.12500000000E+03 0.  0.
        -11    1    3    3    0    0 -0.18299232642E+02  0.33421465895E+02 -0.81606776966E+01  0.38967331941E+02  0.51100000000E-03 0. -1.
         23    2    1    0    0    0 -0.42247180806E+00 -0.11358378401E+02  0.25034779462E+02  0.97505792882E+02  0.93549175413E+02 0.  0.
         11    1    3    3    0    0  0.17876760834E+02 -0.44779844296E+02  0.33195457159E+02  0.58538460941E+02  0.51100000000E-03 0.  1.
         22    1    1    0    0    0  0.42247180806E+00  0.11358378401E+02 -0.25034779462E+02  0.27494207118E+02  0.00000000000E+00 0.  1.
</event>
<event>
 5    1  0.3183396E-003  0.9118800E+02  0.7818608E-02  0.1130116E+00
         25   -1    0    0    0    0  0.00000000000E+00  0.00000000000E+00  0.99999998245E-14  0.12500000000E+03  0.12500000000E+03 0.  0.
        -11    1    3    3    0    0 -0.25484432174E+02  0.11644838892E+02 -0.52527350025E+02  0.59533024927E+02  0.51100000000E-03 0.  1.
         23    2    1    0    0    0 -0.20673659114E+02 -0.33088062486E+01 -0.18300273967E+02  0.97192655516E+02  0.93129822716E+02 0.  0.
         11    1    3    3    0    0  0.48107730602E+01 -0.14953645141E+02  0.34227076057E+02  0.37659630590E+02  0.51100000000E-03 0. -1.
         22    1    1    0    0    0  0.20673659114E+02  0.33088062486E+01  0.18300273967E+02  0.27807344484E+02  0.00000000000E+00 0.  1.
</event>
<event>
 5    1  0.3183396E-003  0.9118800E+02  0.7818608E-02  0.1130116E+00
         25   -1    0    0    0    0  0.00000000000E+00  0.00000000000E+00  0.99999998245E-14  0.12500000000E+03  0.12500000000E+03 0.  0.
        -11    1    3    3    0    0  0.15710141901E+02  0.49346033157E+02  0.22085436994E+02  0.56299254653E+02  0.51100000000E-03 0.  1.
         23    2    1    0    0    0  0.23072276532E+02  0.10739367036E+02  0.11934566201E+02  0.96891321285E+02  0.92724486093E+02 0.  0.
         11    1    3    3    0    0  0.73621346307E+01 -0.38606666122E+02 -0.10150870794E+02  0.40592066632E+02  0.51100000000E-03 0. -1.
         22    1    1    0    0    0 -0.23072276532E+02 -0.10739367036E+02 -0.11934566201E+02  0.28108678715E+02  0.00000000000E+00 0.  1.
</event>
<event>
 5    1  0.3183396E-003  0.9118800E+02  0.7818608E-02  0.1130116E+00
         25   -1    0    0    0    0  0.00000000000E+00  0.00000000000E+00  0.99999998245E-14  0.12500000000E+03  0.12500000000E+03 0.  0.
        -11    1    3    3    0    0  0.43433592992E+02  0.14316923215E+02  0.23411221430E+02  0.51376420464E+02  0.51100000000E-03 0.  1.
         23    2    1    0    0    0  0.23346632986E+02  0.10631613088E+02 -0.15290134564E+02  0.95135561555E+02  0.90326576315E+02 0.  0.
         11    1    3    3    0    0 -0.20086960007E+02 -0.36853101271E+01 -0.38701355994E+02  0.43759141091E+02  0.51100000000E-03 0. -1.
         22    1    1    0    0    0 -0.23346632986E+02 -0.10631613088E+02  0.15290134564E+02  0.29864438445E+02  0.00000000000E+00 0.  1.
</event>
<event>
 5    1  0.3183396E-003  0.9118800E+02  0.7818608E-02  0.1130116E+00
         25   -1    0    0    0    0  0.00000000000E+00  0.00000000000E+00  0.99999998245E-14  0.12500000000E+03  0.12500000000E+03 0.  0.
        -11    1    3    3    0    0 -0.22940767550E+02 -0.35186845871E+02  0.65967852204E+01  0.42519530967E+02  0.51100000000E-03 0. -1.
         23    2    1    0    0    0 -0.15485331955E+02 -0.23024067527E+02  0.38544104764E+02  0.77507356324E+02  0.61252257763E+02 0.  0.
         11    1    3    3    0    0  0.74554355947E+01  0.12162778345E+02  0.31947319544E+02  0.34987825357E+02  0.51100000000E-03 0.  1.
         22    1    1    0    0    0  0.15485331955E+02  0.23024067527E+02 -0.38544104764E+02  0.47492643676E+02  0.00000000000E+00 0.  1.
</event>
<event>
 5    1  0.3183396E-003  0.9118800E+02  0.7818608E-02  0.1130116E+00
         25   -1    0    0    0    0  0.00000000000E+00  0.00000000000E+00  0.99999998245E-14  0.12500000000E+03  0.12500000000E+03 0.  0.
        -11    1    3    3    0    0 -0.91767396880E+01  0.53279772136E+02  0.98582796551E+00  0.54073269988E+02  0.51100000000E-03 0.  1.
         23    2    1    0    0    0  0.18813925719E+02  0.21761418945E+02  0.34916525887E+00  0.96231178825E+02  0.91830249407E+02 0.  0.
         11    1    3    3    0    0  0.27990665407E+02 -0.31518353191E+02 -0.63666270665E+00  0.42157908837E+02  0.51100000000E-03 0. -1.
         22    1    1    0    0    0 -0.18813925719E+02 -0.21761418945E+02 -0.34916525887E+00  0.28768821175E+02  0.00000000000E+00 0.  1.
</event>
<event>
 5    1  0.3183396E-003  0.9118800E+02  0.7818608E-02  0.1130116E+00
         25   -1    0    0    0    0  0.00000000000E+00  0.00000000000E+00  0.99999998245E-14  0.12500000000E+03  0.12500000000E+03 0.  0.
        -11    1    3    3    0    0  0.12823421110E+01  0.22930703753E+02 -0.56916457299E+02  0.61375440427E+02  0.51100000000E-03 0. -1.
         23    2    1    0    0    0  0.54940912204E+01  0.16244696419E+02 -0.22374666393E+02  0.96809560197E+02  0.92614200041E+02 0.  0.
         11    1    3    3    0    0  0.42117491094E+01 -0.66860073339E+01  0.34541790906E+02  0.35434119770E+02  0.51100000000E-03 0.  1.
         22    1    1    0    0    0 -0.54940912204E+01 -0.16244696419E+02  0.22374666393E+02  0.28190439803E+02  0.00000000000E+00 0. -1.
</event>
<event>
 5    1  0.3183396E-003  0.9118800E+02  0.7818608E-02  0.1130116E+00
         25   -1    0    0    0    0  0.00000000000E+00  0.00000000000E+00  0.99999998245E-14  0.12500000000E+03  0.12500000000E+03 0.  0.
        -11    1    3    3    0    0 -0.16470467840E+02 -0.36929632394E+02  0.45325770086E+02  0.60741250347E+02  0.51100000000E-03 0.  1.
         23    2    1    0    0    0 -0.16663089954E+02 -0.13781212323E+02  0.16011975715E+02  0.98093425595E+02  0.94331099850E+02 0.  0.
         11    1    3    3    0    0 -0.19262211381E+00  0.23148420072E+02 -0.29313794371E+02  0.37352175248E+02  0.51100000000E-03 0. -1.
         22    1    1    0    0    0  0.16663089954E+02  0.13781212323E+02 -0.16011975715E+02  0.26906574405E+02  0.00000000000E+00 0.  1.
</event>
<event>
 5    1  0.3183396E-003  0.9118800E+02  0.7818608E-02  0.1130116E+00
         25   -1    0    0    0    0  0.00000000000E+00  0.00000000000E+00  0.99999998245E-14  0.12500000000E+03  0.12500000000E+03 0.  0.
        -11    1    3    3    0    0 -0.47497169295E+02 -0.28623984230E+02 -0.28670007262E+02  0.62428221830E+02  0.51100000000E-03 0. -1.
         23    2    1    0    0    0 -0.23046583333E+02 -0.11649128782E+02 -0.14315231374E+02  0.95474196810E+02  0.90793993207E+02 0.  0.
         11    1    3    3    0    0  0.24450585962E+02  0.16974855447E+02  0.14354775887E+02  0.33045974980E+02  0.51100000000E-03 0.  1.
         22    1    1    0    0    0  0.23046583333E+02  0.11649128782E+02  0.14315231374E+02  0.29525803190E+02  0.00000000000E+00 0. -1.
</event>
<event>
 5    1  0.3183396E-003  0.9118800E+02  0.7818608E-02  0.1130116E+00
         25   -1    0    0    0    0  0.00000000000E+00  0.00000000000E+00  0.99999998245E-14  0.12500000000E+03  0.12500000000E+03 0.  0.
        -11    1    3    3    0    0  0.34586573321E+02 -0.12048580482E+02 -0.39970263300E+02  0.54212741069E+02  0.51100000000E-03 0. -1.
         23    2    1    0    0    0  0.17354584956E+02  0.17177746212E+02 -0.14953277292E+02  0.96366853374E+02  0.92014745251E+02 0.  0.
         11    1    3    3    0    0 -0.17231988365E+02  0.29226326694E+02  0.25016986008E+02  0.42154112305E+02  0.51100000000E-03 0.  1.
         22    1    1    0    0    0 -0.17354584956E+02 -0.17177746212E+02  0.14953277292E+02  0.28633146626E+02  0.00000000000E+00 0. -1.
</event>
<event>
 5    1  0.3183396E-003  0.9118800E+02  0.7818608E-02  0.1130116E+00
         25   -1    0    0    0    0  0.00000000000E+00  0.00000000000E+00  0.99999998245E-14  0.12500000000E+03  0.12500000000E+03 0.  0.
        -11    1    3    3    0    0  0.14526035491E+02  0.20809490370E+02  0.32105154475E+02  0.40924094867E+02  0.51100000000E-03 0.  1.
         23    2    1    0    0    0 -0.25228169802E+02 -0.10251505130E+02  0.10273219169E+02  0.95895138875E+02  0.91371684448E+02 0.  0.
         11    1    3    3    0    0 -0.39754205293E+02 -0.31060995500E+02 -0.21831935306E+02  0.54971044008E+02  0.51100000000E-03 0. -1.
         22    1    1    0    0    0  0.25228169802E+02  0.10251505130E+02 -0.10273219169E+02  0.29104861125E+02  0.00000000000E+00 0. -1.
</event>
<event>
 5    1  0.3183396E-003  0.9118800E+02  0.7818608E-02  0.1130116E+00
         25   -1    0    0    0    0  0.00000000000E+00  0.00000000000E+00  0.99999998245E-14  0.12500000000E+03  0.12500000000E+03 0.  0.
        -11    1    3    3    0    0  0.33838942154E+02 -0.97992847459E+01  0.10077080908E+02  0.36642155334E+02  0.51100000000E-03 0.  1.
         23    2    1    0    0    0 -0.15875340079E+02 -0.12173604284E+02 -0.21537139515E+02  0.95604907852E+02  0.90973770742E+02 0.  0.
         11    1    3    3    0    0 -0.49714282233E+02 -0.23743195380E+01 -0.31614220423E+02  0.58962752518E+02  0.51100000000E-03 0. -1.
         22    1    1    0    0    0  0.15875340079E+02  0.12173604284E+02  0.21537139515E+02  0.29395092148E+02  0.00000000000E+00 0. -1.
</event>
<event>
 5    1  0.3183396E-003  0.9118800E+02  0.7818608E-02  0.1130116E+00
         25   -1    0    0    0    0  0.00000000000E+00  0.00000000000E+00  0.99999998245E-14  0.12500000000E+03  0.12500000000E+03 0.  0.
        -11    1    3    3    0    0  0.17561468321E+02  0.33226065862E+02 -0.22209180532E+02  0.43653457165E+02  0.51100000000E-03 0.  1.
         23    2    1    0    0    0  0.13716029975E+02 -0.18859816358E+02 -0.17002254790E+02  0.96140013526E+02  0.91706070582E+02 0.  0.
         11    1    3    3    0    0 -0.38454383460E+01 -0.52085882220E+02  0.52069257424E+01  0.52486556361E+02  0.51100000000E-03 0. -1.
         22    1    1    0    0    0 -0.13716029975E+02  0.18859816358E+02  0.17002254790E+02  0.28859986474E+02  0.00000000000E+00 0. -1.
</event>
<event>
 5    1  0.3183396E-003  0.9118800E+02  0.7818608E-02  0.1130116E+00
         25   -1    0    0    0    0  0.00000000000E+00  0.00000000000E+00  0.99999998245E-14  0.12500000000E+03  0.12500000000E+03 0.  0.
        -11    1    3    3    0    0  0.30424538067E+02 -0.37662794577E+02 -0.34848909056E+02  0.59653877281E+02  0.51100000000E-03 0.  1.
         23    2    1    0    0    0  0.82684480894E+01 -0.10975273027E+02 -0.26220591334E+02  0.95396904525E+02  0.90687519159E+02 0.  0.
         11    1    3    3    0    0 -0.22156089977E+02  0.26687521551E+02  0.86283177218E+01  0.35743027244E+02  0.51100000000E-03 0. -1.
         22    1    1    0    0    0 -0.82684480894E+01  0.10975273027E+02  0.26220591334E+02  0.29603095475E+02  0.00000000000E+00 0.  1.
</event>
<event>
 5    1  0.3183396E-003  0.9118800E+02  0.7818608E-02  0.1130116E+00
         25   -1    0    0    0    0  0.00000000000E+00  0.00000000000E+00  0.99999998245E-14  0.12500000000E+03  0.12500000000E+03 0.  0.
        -11    1    3    3    0    0 -0.31910650780E+02 -0.22923641827E+02  0.29770238360E+01  0.39403624947E+02  0.51100000000E-03 0.  1.
         23    2    1    0    0    0  0.22327300390E+02 -0.21487312925E+02 -0.23629231406E+01  0.93922735558E+02  0.88632295973E+02 0.  0.
         11    1    3    3    0    0  0.54237951170E+02  0.14363289017E+01 -0.53399469766E+01  0.54519110611E+02  0.51100000000E-03 0. -1.
         22    1    1    0    0    0 -0.22327300390E+02  0.21487312925E+02  0.23629231406E+01  0.31077264442E+02  0.00000000000E+00 0. -1.
</event>
<event>
 5    1  0.3183396E-003  0.9118800E+02  0.7818608E-02  0.1130116E+00
         25   -1    0    0    0    0  0.00000000000E+00  0.00000000000E+00  0.99999998245E-14  0.12500000000E+03  0.12500000000E+03 0.  0.
        -11    1    3    3    0    0 -0.10089414422E+01 -0.46790131813E+02 -0.91196702271E+01  0.47681262391E+02  0.51100000000E-03 0. -1.
         23    2    1    0    0    0  0.20744091306E+02 -0.29872320242E+01 -0.17982281595E+02  0.97384726497E+02  0.93387266928E+02 0.  0.
         11    1    3    3    0    0  0.21753032748E+02  0.43802899788E+02 -0.88626113679E+01  0.49703464106E+02  0.51100000000E-03 0.  1.
         22    1    1    0    0    0 -0.20744091306E+02  0.29872320242E+01  0.17982281595E+02  0.27615273503E+02  0.00000000000E+00 0. -1.
</event>
<event>
 5    1  0.3183396E-003  0.9118800E+02  0.7818608E-02  0.1130116E+00
         25   -1    0    0    0    0  0.00000000000E+00  0.00000000000E+00  0.99999998245E-14  0.12500000000E+03  0.12500000000E+03 0.  0.
        -11    1    3    3    0    0  0.29363724934E+02 -0.25011900740E+02 -0.31415667736E+02  0.49747037099E+02  0.51100000000E-03 0. -1.
         23    2    1    0    0    0 -0.14534019439E+01  0.70486206354E+01 -0.29903504070E+02  0.94242643389E+02  0.89082326233E+02 0.  0.
         11    1    3    3    0    0 -0.30817126877E+02  0.32060521375E+02  0.15121636663E+01  0.44495606289E+02  0.51100000000E-03 0.  1.
         22    1    1    0    0    0  0.14534019439E+01 -0.70486206354E+01  0.29903504070E+02  0.30757356611E+02  0.00000000000E+00 0. -1.
</event>
<event>
 5    1  0.3183396E-003  0.9118800E+02  0.7818608E-02  0.1130116E+00
         25   -1    0    0    0    0  0.00000000000E+00  0.00000000000E+00  0.99999998245E-14  0.12500000000E+03  0.12500000000E+03 0.  0.
        -11    1    3    3    0    0 -0.15521655437E+02 -0.18943521668E+02  0.23640367333E+02  0.34038886124E+02  0.51100000000E-03 0.  1.
         23    2    1    0    0    0 -0.10880957342E+02  0.24840811740E+02 -0.16193746495E+02  0.93413632907E+02  0.87911365743E+02 0.  0.
         11    1    3    3    0    0  0.46406980957E+01  0.43784333408E+02 -0.39834113828E+02  0.59374746783E+02  0.51100000000E-03 0. -1.
         22    1    1    0    0    0  0.10880957342E+02 -0.24840811740E+02  0.16193746495E+02  0.31586367093E+02  0.00000000000E+00 0. -1.
</event>
<event>
 5    1  0.3183396E-003  0.9118800E+02  0.7818608E-02  0.1130116E+00
         25   -1    0    0    0    0  0.00000000000E+00  0.00000000000E+00  0.99999998245E-14  0.12500000000E+03  0.12500000000E+03 0.  0.
        -11    1    3    3    0    0 -0.24794250925E+02  0.23898819216E+02  0.76276672120E+01  0.35271656414E+02  0.51100000000E-03 0. -1.
         23    2    1    0    0    0  0.24249032081E+02 -0.11970955911E+02 -0.54239966124E+01  0.97418501100E+02  0.93432463711E+02 0.  0.
         11    1    3    3    0    0  0.49043283006E+02 -0.35869775127E+02 -0.13051663824E+02  0.62146844686E+02  0.51100000000E-03 0.  1.
         22    1    1    0    0    0 -0.24249032081E+02  0.11970955911E+02  0.54239966124E+01  0.27581498900E+02  0.00000000000E+00 0.  1.
</event>
<event>
 5    1  0.3183396E-003  0.9118800E+02  0.7818608E-02  0.1130116E+00
         25   -1    0    0    0    0  0.00000000000E+00  0.00000000000E+00  0.99999998245E-14  0.12500000000E+03  0.12500000000E+03 0.  0.
        -11    1    3    3    0    0 -0.18931019031E+02  0.29705237122E+02 -0.14889953343E+02  0.38242584966E+02  0.51100000000E-03 0.  1.
         23    2    1    0    0    0  0.23303639921E+02  0.71301404695E+01  0.16560196557E+02  0.95535807381E+02  0.90878775549E+02 0.  0.
         11    1    3    3    0    0  0.42234658953E+02 -0.22575096653E+02  0.31450149900E+02  0.57293222415E+02  0.51100000000E-03 0. -1.
         22    1    1    0    0    0 -0.23303639921E+02 -0.71301404695E+01 -0.16560196557E+02  0.29464192619E+02  0.00000000000E+00 0. -1.
</event>
<event>
 5    1  0.3183396E-003  0.9118800E+02  0.7818608E-02  0.1130116E+00
         25   -1    0    0    0    0  0.00000000000E+00  0.00000000000E+00  0.99999998245E-14  0.12500000000E+03  0.12500000000E+03 0.  0.
        -11    1    3    3    0    0 -0.19057134092E+02 -0.20969329496E+02 -0.26235276379E+02  0.38615759299E+02  0.51100000000E-03 0.  1.
         23    2    1    0    0    0 -0.19729453778E+01 -0.86098938841E+01  0.27381056789E+02  0.96229441141E+02  0.91827884029E+02 0.  0.
         11    1    3    3    0    0  0.17084188714E+02  0.12359435611E+02  0.53616333169E+02  0.57613681842E+02  0.51100000000E-03 0. -1.
         22    1    1    0    0    0  0.19729453778E+01  0.86098938841E+01 -0.27381056789E+02  0.28770558859E+02  0.00000000000E+00 0. -1.
</event>
<event>
 5    1  0.3183396E-003  0.9118800E+02  0.7818608E-02  0.1130116E+00
         25   -1    0    0    0    0  0.00000000000E+00  0.00000000000E+00  0.99999998245E-14  0.12500000000E+03  0.12500000000E+03 0.  0.
        -11    1    3    3    0    0  0.33688156619E+02  0.12046845337E+02 -0.27389252477E+02  0.45057624554E+02  0.51100000000E-03 0.  1.
         23    2    1    0    0    0 -0.13357291271E+02  0.23051766107E+02 -0.73614018818E+01  0.97359605856E+02  0.93353636587E+02 0.  0.
         11    1    3    3    0    0 -0.47045447890E+02  0.11004920770E+02  0.20027850595E+02  0.52301981302E+02  0.51100000000E-03 0. -1.
         22    1    1    0    0    0  0.13357291271E+02 -0.23051766107E+02  0.73614018818E+01  0.27640394144E+02  0.00000000000E+00 0. -1.
</event>
<event>
 5    1  0.3183396E-003  0.9118800E+02  0.7818608E-02  0.1130116E+00
         25   -1    0    0    0    0  0.00000000000E+00  0.00000000000E+00  0.99999998245E-14  0.12500000000E+03  0.12500000000E+03 0.  0.
        -11    1    3    3    0    0  0.26634412651E+02 -0.47678268342E+02 -0.27315533291E+02  0.61063471639E+02  0.51100000000E-03 0. -1.
         23    2    1    0    0    0  0.54627655437E+01 -0.28175345375E+02 -0.10266630737E+02  0.94518930447E+02  0.89469171292E+02 0.  0.
         11    1    3    3    0    0 -0.21171647108E+02  0.19502922966E+02  0.17048902554E+02  0.33455458808E+02  0.51100000000E-03 0.  1.
         22    1    1    0    0    0 -0.54627655437E+01  0.28175345375E+02  0.10266630737E+02  0.30481069553E+02  0.00000000000E+00 0. -1.
</event>
<event>
 5    1  0.3183396E-003  0.9118800E+02  0.7818608E-02  0.1130116E+00
         25   -1    0    0    0    0  0.00000000000E+00  0.00000000000E+00  0.99999998245E-14  0.12500000000E+03  0.12500000000E+03 0.  0.
        -11    1    3    3    0    0 -0.36215947359E+02 -0.32815351456E+01  0.25348730539E+02  0.44327434578E+02  0.51100000000E-03 0. -1.
         23    2    1    0    0    0  0.91939344757E+01 -0.23727707105E+02  0.15835068870E+02  0.95028648317E+02  0.90178501203E+02 0.  0.
         11    1    3    3    0    0  0.45409881835E+02 -0.20446171959E+02 -0.95136616684E+01  0.50701213739E+02  0.51100000000E-03 0.  1.
         22    1    1    0    0    0 -0.91939344757E+01  0.23727707105E+02 -0.15835068870E+02  0.29971351683E+02  0.00000000000E+00 0.  1.
</event>
<event>
 5    1  0.3183396E-003  0.9118800E+02  0.7818608E-02  0.1130116E+00
         25   -1    0    0    0    0  0.00000000000E+00  0.00000000000E+00  0.99999998245E-14  0.12500000000E+03  0.12500000000E+03 0.  0.
        -11    1    3    3    0    0  0.43547089924E+02  0.10886878310E+02 -0.29093046521E+02  0.53490919943E+02  0.51100000000E-03 0. -1.
         23    2    1    0    0    0  0.19362797612E+01  0.55980336806E+01 -0.28963801552E+02  0.95436695707E+02  0.90742349136E+02 0.  0.
         11    1    3    3    0    0 -0.41610810163E+02 -0.52888446297E+01  0.12924496932E+00  0.41945775764E+02  0.51100000000E-03 0.  1.
         22    1    1    0    0    0 -0.19362797612E+01 -0.55980336806E+01  0.28963801552E+02  0.29563304293E+02  0.00000000000E+00 0. -1.
</event>
<event>
 5    1  0.3183396E-003  0.9118800E+02  0.7818608E-02  0.1130116E+00
         25   -1    0    0    0    0  0.00000000000E+00  0.00000000000E+00  0.99999998245E-14  0.12500000000E+03  0.12500000000E+03 0.  0.
        -11    1    3    3    0    0  0.22426675844E+02 -0.22566089260E+01 -0.24297710392E+02  0.33142522593E+02  0.51100000000E-03 0.  1.
         23    2    1    0    0    0 -0.26438068389E+02 -0.41231553833E+01  0.13576803259E+02  0.94994976135E+02  0.90131814770E+02 0.  0.
         11    1    3    3    0    0 -0.48864744233E+02 -0.18665464573E+01  0.37874513651E+02  0.61852453542E+02  0.51100000000E-03 0. -1.
         22    1    1    0    0    0  0.26438068389E+02  0.41231553833E+01 -0.13576803259E+02  0.30005023865E+02  0.00000000000E+00 0. -1.
</event>
<event>
 5    1  0.3183396E-003  0.9118800E+02  0.7818608E-02  0.1130116E+00
         25   -1    0    0    0    0  0.00000000000E+00  0.00000000000E+00  0.99999998245E-14  0.12500000000E+03  0.12500000000E+03 0.  0.
        -11    1    3    3    0    0  0.75136633026E+01  0.48713379405E+02  0.35275958676E+02  0.60612224263E+02  0.51100000000E-03 0. -1.
         23    2    1    0    0    0  0.30363190759E+00  0.16231607116E+02  0.24544292454E+02  0.95572469455E+02  0.90929188734E+02 0.  0.
         11    1    3    3    0    0 -0.72100313950E+01 -0.32481772289E+02 -0.10731666222E+02  0.34960245193E+02  0.51100000000E-03 0.  1.
         22    1    1    0    0    0 -0.30363190759E+00 -0.16231607116E+02 -0.24544292454E+02  0.29427530545E+02  0.00000000000E+00 0. -1.
</event>
<event>
 5    1  0.3183396E-003  0.9118800E+02  0.7818608E-02  0.1130116E+00
         25   -1    0    0    0    0  0.00000000000E+00  0.00000000000E+00  0.99999998245E-14  0.12500000000E+03  0.12500000000E+03 0.  0.
        -11    1    3    3    0    0 -0.68650889964E+01 -0.23197059663E+02  0.52011207893E+02  0.57361997618E+02  0.51100000000E-03 0. -1.
         23    2    1    0    0    0  0.29019168851E+01  0.36820538676E+01  0.32921067778E+02  0.91746799463E+02  0.85508478327E+02 0.  0.
         11    1    3    3    0    0  0.97670058814E+01  0.26879113531E+02 -0.19090140114E+02  0.34384801845E+02  0.51100000000E-03 0.  1.
         22    1    1    0    0    0 -0.29019168851E+01 -0.36820538676E+01 -0.32921067778E+02  0.33253200537E+02  0.00000000000E+00 0. -1.
</event>
<event>
 5    1  0.3183396E-003  0.9118800E+02  0.7818608E-02  0.1130116E+00
         25   -1    0    0    0    0  0.00000000000E+00  0.00000000000E+00  0.99999998245E-14  0.12500000000E+03  0.12500000000E+03 0.  0.
        -11    1    3    3    0    0  0.45364933045E+02 -0.16511301275E+02  0.65001342757E+01  0.48711928373E+02  0.51100000000E-03 0.  1.
         23    2    1    0    0    0  0.17933564496E+02  0.17636836647E+02 -0.13032495051E+02  0.96671274831E+02  0.92427369907E+02 0.  0.
         11    1    3    3    0    0 -0.27431368549E+02  0.34148137922E+02 -0.19532629326E+02  0.47959346458E+02  0.51100000000E-03 0. -1.
         22    1    1    0    0    0 -0.17933564496E+02 -0.17636836647E+02  0.13032495051E+02  0.28328725169E+02  0.00000000000E+00 0.  1.
</event>
<event>
 5    1  0.3183396E-003  0.9118800E+02  0.7818608E-02  0.1130116E+00
         25   -1    0    0    0    0  0.00000000000E+00  0.00000000000E+00  0.99999998245E-14  0.12500000000E+03  0.12500000000E+03 0.  0.
        -11    1    3    3    0    0 -0.13353211205E+02  0.63418852184E+01 -0.30331210073E+02  0.33741814746E+02  0.51100000000E-03 0.  1.
         23    2    1    0    0    0  0.44302454429E+01  0.11273185216E+02  0.27769972757E+02  0.94703413286E+02  0.89726547473E+02 0.  0.
         11    1    3    3    0    0  0.17783456648E+02  0.49312999976E+01  0.58101182830E+02  0.60961598540E+02  0.51100000000E-03 0. -1.
         22    1    1    0    0    0 -0.44302454429E+01 -0.11273185216E+02 -0.27769972757E+02  0.30296586714E+02  0.00000000000E+00 0. -1.
</event>
<event>
 5    1  0.3183396E-003  0.9118800E+02  0.7818608E-02  0.1130116E+00
         25   -1    0    0    0    0  0.00000000000E+00  0.00000000000E+00  0.99999998245E-14  0.12500000000E+03  0.12500000000E+03 0.  0.
        -11    1    3    3    0    0  0.34606190943E+02  0.29153715599E+01 -0.15031621682E+02  0.37842271252E+02  0.51100000000E-03 0. -1.
         23    2    1    0    0    0 -0.85050695047E+01 -0.29087116210E+02  0.31578312927E+01  0.94530860938E+02  0.89485838179E+02 0.  0.
         11    1    3    3    0    0 -0.43111260447E+02 -0.32002487770E+02  0.18189452974E+02  0.56688589686E+02  0.51100000000E-03 0.  1.
         22    1    1    0    0    0  0.85050695047E+01  0.29087116210E+02 -0.31578312927E+01  0.30469139062E+02  0.00000000000E+00 0.  1.
</event>
<event>
 5    1  0.3183396E-003  0.9118800E+02  0.7818608E-02  0.1130116E+00
         25   -1    0    0    0    0  0.00000000000E+00  0.00000000000E+00  0.99999998245E-14  0.12500000000E+03  0.12500000000E+03 0.  0.
        -11    1    3    3    0    0 -0.19130206480E+02 -0.28729330127E+02  0.18910590999E+02  0.39356697800E+02  0.51100000000E-03 0. -1.
         23    2    1    0    0    0 -0.13784533765E+02  0.95580484625E+01 -0.23102842507E+02  0.96449851254E+02  0.92127427043E+02 0.  0.
         11    1    3    3    0    0  0.53456727150E+01  0.38287378590E+02 -0.42013433506E+02  0.57093153454E+02  0.51100000000E-03 0.  1.
         22    1    1    0    0    0  0.13784533765E+02 -0.95580484625E+01  0.23102842507E+02  0.28550148746E+02  0.00000000000E+00 0.  1.
</event>
<event>
 5    1  0.3183396E-003  0.9118800E+02  0.7818608E-02  0.1130116E+00
         25   -1    0    0    0    0  0.00000000000E+00  0.00000000000E+00  0.99999998245E-14  0.12500000000E+03  0.12500000000E+03 0.  0.
        -11    1    3    3    0    0 -0.34009282417E+02 -0.82239553941E+00  0.89489222582E+01  0.35176566558E+02  0.51100000000E-03 0. -1.
         23    2    1    0    0    0  0.23002104820E+02 -0.16565575345E+02  0.11578512190E+02  0.94380119902E+02  0.89275024366E+02 0.  0.
         11    1    3    3    0    0  0.57011387237E+02 -0.15743179806E+02  0.26295899317E+01  0.59203553344E+02  0.51100000000E-03 0.  1.
         22    1    1    0    0    0 -0.23002104820E+02  0.16565575345E+02 -0.11578512190E+02  0.30619880098E+02  0.00000000000E+00 0.  1.
</event>
<event>
 5    1  0.3183396E-003  0.9118800E+02  0.7818608E-02  0.1130116E+00
         25   -1    0    0    0    0  0.00000000000E+00  0.00000000000E+00  0.99999998245E-14  0.12500000000E+03  0.12500000000E+03 0.  0.
        -11    1    3    3    0    0 -0.32067836734E+02  0.26098568672E+02 -0.22547529456E+02  0.47094293968E+02  0.51100000000E-03 0.  1.
         23    2    1    0    0    0  0.13127994213E+01  0.24424221721E+02  0.14159432116E+02  0.96737735992E+02  0.92517209200E+02 0.  0.
         11    1    3    3    0    0  0.33380636155E+02 -0.16743469515E+01  0.36706961572E+02  0.49643442024E+02  0.51100000000E-03 0. -1.
         22    1    1    0    0    0 -0.13127994213E+01 -0.24424221721E+02 -0.14159432116E+02  0.28262264008E+02  0.00000000000E+00 0. -1.
</event>
<event>
 5    1  0.3183396E-003  0.9118800E+02  0.7818608E-02  0.1130116E+00
         25   -1    0    0    0    0  0.00000000000E+00  0.00000000000E+00  0.99999998245E-14  0.12500000000E+03  0.12500000000E+03 0.  0.
        -11    1    3    3    0    0  0.37681635074E+02  0.15044579359E+02 -0.12570467463E+01  0.40593412726E+02  0.51100000000E-03 0.  1.
         23    2    1    0    0    0  0.78127165290E+01 -0.27771561876E+02 -0.11761807318E+02  0.93844931392E+02  0.88522499106E+02 0.  0.
         11    1    3    3    0    0 -0.29868918545E+02 -0.42816141235E+02 -0.10504760572E+02  0.53251518666E+02  0.51100000000E-03 0. -1.
         22    1    1    0    0    0 -0.78127165290E+01  0.27771561876E+02  0.11761807318E+02  0.31155068608E+02  0.00000000000E+00 0. -1.
</event>
<event>
 5    1  0.3183396E-003  0.9118800E+02  0.7818608E-02  0.1130116E+00
         25   -1    0    0    0    0  0.00000000000E+00  0.00000000000E+00  0.99999998245E-14  0.12500000000E+03  0.12500000000E+03 0.  0.
        -11    1    3    3    0    0  0.39494358627E+02  0.24737193915E+02 -0.11501634489E+02  0.48000215857E+02  0.51100000000E-03 0. -1.
         23    2    1    0    0    0  0.97256303694E+01 -0.75527276856E+01 -0.27601300520E+02  0.94776443426E+02  0.89828229731E+02 0.  0.
         11    1    3    3    0    0 -0.29768728257E+02 -0.32289921601E+02 -0.16099666031E+02  0.46776227569E+02  0.51100000000E-03 0.  1.
         22    1    1    0    0    0 -0.97256303694E+01  0.75527276856E+01  0.27601300520E+02  0.30223556574E+02  0.00000000000E+00 0. -1.
</event>
<event>
 5    1  0.3183396E-003  0.9118800E+02  0.7818608E-02  0.1130116E+00
         25   -1    0    0    0    0  0.00000000000E+00  0.00000000000E+00  0.99999998245E-14  0.12500000000E+03  0.12500000000E+03 0.  0.
        -11    1    3    3    0    0  0.63267364417E+01  0.57954817455E+02 -0.54232354265E+01  0.58550832129E+02  0.51100000000E-03 0. -1.
         23    2    1    0    0    0  0.91137278506E+01  0.25864722763E+02  0.11878669400E+02  0.95114439847E+02  0.90297341942E+02 0.  0.
         11    1    3    3    0    0  0.27869914088E+01 -0.32090094692E+02  0.17301904826E+02  0.36563607718E+02  0.51100000000E-03 0.  1.
         22    1    1    0    0    0 -0.91137278506E+01 -0.25864722763E+02 -0.11878669400E+02  0.29885560153E+02  0.00000000000E+00 0. -1.
</event>
<event>
 5    1  0.3183396E-003  0.9118800E+02  0.7818608E-02  0.1130116E+00
         25   -1    0    0    0    0  0.00000000000E+00  0.00000000000E+00  0.99999998245E-14  0.12500000000E+03  0.12500000000E+03 0.  0.
        -11    1    3    3    0    0  0.18780455241E+02 -0.12572230356E+02  0.49093730876E+02  0.54045914617E+02  0.51100000000E-03 0. -1.
         23    2    1    0    0    0  0.25805994396E+02 -0.76754114334E+01  0.67546801742E+01  0.97242352555E+02  0.93196502825E+02 0.  0.
         11    1    3    3    0    0  0.70255391545E+01  0.48968189227E+01 -0.42339050702E+02  0.43196437938E+02  0.51100000000E-03 0.  1.
         22    1    1    0    0    0 -0.25805994396E+02  0.76754114334E+01 -0.67546801742E+01  0.27757647445E+02  0.00000000000E+00 0. -1.
</event>
<event>
 5    1  0.3183396E-003  0.9118800E+02  0.7818608E-02  0.1130116E+00
         25   -1    0    0    0    0  0.00000000000E+00  0.00000000000E+00  0.99999998245E-14  0.12500000000E+03  0.12500000000E+03 0.  0.
        -11    1    3    3    0    0  0.20020066954E+02 -0.45536914422E+02 -0.11306844135E+02  0.51012335571E+02  0.51100000000E-03 0.  1.
         23    2    1    0    0    0  0.25061929680E+02 -0.76502821933E+01  0.12423374627E+02  0.96000562522E+02  0.91515794432E+02 0.  0.
         11    1    3    3    0    0  0.50418627267E+01  0.37886632229E+02  0.23730218762E+02  0.44988226950E+02  0.51100000000E-03 0. -1.
         22    1    1    0    0    0 -0.25061929680E+02  0.76502821933E+01 -0.12423374627E+02  0.28999437478E+02  0.00000000000E+00 0.  1.
</event>
<event>
 5    1  0.3183396E-003  0.9118800E+02  0.7818608E-02  0.1130116E+00
         25   -1    0    0    0    0  0.00000000000E+00  0.00000000000E+00  0.99999998245E-14  0.12500000000E+03  0.12500000000E+03 0.  0.
        -11    1    3    3    0    0 -0.45142447334E+02  0.27507616747E+02  0.20493837095E+02  0.56696621500E+02  0.51100000000E-03 0.  1.
         23    2    1    0    0    0 -0.24075064455E+02 -0.19231666733E+01  0.21150011425E+02  0.92896569002E+02  0.87173059202E+02 0.  0.
         11    1    3    3    0    0  0.21067382879E+02 -0.29430783421E+02  0.65617433014E+00  0.36199947502E+02  0.51100000000E-03 0. -1.
         22    1    1    0    0    0  0.24075064455E+02  0.19231666733E+01 -0.21150011425E+02  0.32103430998E+02  0.00000000000E+00 0.  1.
</event>
<event>
 5    1  0.3183396E-003  0.9118800E+02  0.7818608E-02  0.1130116E+00
         25   -1    0    0    0    0  0.00000000000E+00  0.00000000000E+00  0.99999998245E-14  0.12500000000E+03  0.12500000000E+03 0.  0.
        -11    1    3    3    0    0  0.36077716751E+01 -0.22146847328E+02  0.23625128412E+02  0.32582902813E+02  0.51100000000E-03 0. -1.
         23    2    1    0    0    0 -0.10973775968E+01  0.22214532432E+02 -0.20080388368E+02  0.95034825451E+02  0.90187063167E+02 0.  0.
         11    1    3    3    0    0 -0.47051492719E+01  0.44361379759E+02 -0.43705516780E+02  0.62451922637E+02  0.51100000000E-03 0.  1.
         22    1    1    0    0    0  0.10973775968E+01 -0.22214532432E+02  0.20080388368E+02  0.29965174549E+02  0.00000000000E+00 0.  1.
</event>
<event>
 5    1  0.3183396E-003  0.9118800E+02  0.7818608E-02  0.1130116E+00
         25   -1    0    0    0    0  0.00000000000E+00  0.00000000000E+00  0.99999998245E-14  0.12500000000E+03  0.12500000000E+03 0.  0.
        -11    1    3    3    0    0  0.16172579450E+02 -0.11175563958E+02  0.35896000396E+02  0.40926377809E+02  0.51100000000E-03 0.  1.
         23    2    1    0    0    0  0.23616240247E+02 -0.21010567482E+01 -0.17458233101E+02  0.95556305500E+02  0.90906965492E+02 0.  0.
         11    1    3    3    0    0  0.74436607964E+01  0.90745072097E+01 -0.53354233497E+02  0.54629927691E+02  0.51100000000E-03 0. -1.
         22    1    1    0    0    0 -0.23616240247E+02  0.21010567482E+01  0.17458233101E+02  0.29443694500E+02  0.00000000000E+00 0. -1.
</event>
<event>
 5    1  0.3183396E-003  0.9118800E+02  0.7818608E-02  0.1130116E+00
         25   -1    0    0    0    0  0.00000000000E+00  0.00000000000E+00  0.99999998245E-14  0.12500000000E+03  0.12500000000E+03 0.  0.
        -11    1    3    3    0    0 -0.63547048776E+01 -0.49908076211E+01 -0.40593100635E+02  0.41389494491E+02  0.51100000000E-03 0.  1.
         23    2    1    0    0    0  0.21354508216E+02  0.17320203037E+02  0.26403267800E+01  0.97377983783E+02  0.93378241287E+02 0.  0.
         11    1    3    3    0    0  0.27709213093E+02  0.22311010658E+02  0.43233427415E+02  0.55988489292E+02  0.51100000000E-03 0. -1.
         22    1    1    0    0    0 -0.21354508216E+02 -0.17320203037E+02 -0.26403267800E+01  0.27622016217E+02  0.00000000000E+00 0. -1.
</event>
<event>
 5    1  0.3183396E-003  0.9118800E+02  0.7818608E-02  0.1130116E+00
         25   -1    0    0    0    0  0.00000000000E+00  0.00000000000E+00  0.99999998245E-14  0.12500000000E+03  0.12500000000E+03 0.  0.
        -11    1    3    3    0    0  0.53791110531E+02  0.23810260963E+02  0.84842331298E+01  0.59433949148E+02  0.51100000000E-03 0. -1.
         23    2    1    0    0    0  0.25827956744E+02  0.12888518677E+02 -0.97195742637E+01  0.94542367343E+02  0.89501909676E+02 0.  0.
         11    1    3    3    0    0 -0.27963153787E+02 -0.10921742286E+02 -0.18203807393E+02  0.35108418195E+02  0.51100000000E-03 0.  1.
         22    1    1    0    0    0 -0.25827956744E+02 -0.12888518677E+02  0.97195742637E+01  0.30457632657E+02  0.00000000000E+00 0. -1.
</event>
<event>
 5    1  0.3183396E-003  0.9118800E+02  0.7818608E-02  0.1130116E+00
         25   -1    0    0    0    0  0.00000000000E+00  0.00000000000E+00  0.99999998245E-14  0.12500000000E+03  0.12500000000E+03 0.  0.
        -11    1    3    3    0    0  0.39992855823E+01 -0.57459154837E+02  0.11993342342E+02  0.58833570524E+02  0.51100000000E-03 0.  1.
         23    2    1    0    0    0 -0.11521434146E+02 -0.25162909280E+02  0.12413929850E+02  0.94668150361E+02  0.89677408472E+02 0.  0.
         11    1    3    3    0    0 -0.15520719729E+02  0.32296245557E+02  0.42058750849E+00  0.35834579837E+02  0.51100000000E-03 0. -1.
         22    1    1    0    0    0  0.11521434146E+02  0.25162909280E+02 -0.12413929850E+02  0.30331849639E+02  0.00000000000E+00 0.  1.
</event>
<event>
 5    1  0.3183396E-003  0.9118800E+02  0.7818608E-02  0.1130116E+00
         25   -1    0    0    0    0  0.00000000000E+00  0.00000000000E+00  0.99999998245E-14  0.12500000000E+03  0.12500000000E+03 0.  0.
        -11    1    3    3    0    0 -0.38173245334E+02  0.34757545205E+02 -0.17473901703E+02  0.54503402178E+02  0.51100000000E-03 0.  1.
         23    2    1    0    0    0 -0.11099833022E+02  0.25297120616E+02  0.11322483276E+02  0.95144527602E+02  0.90338983283E+02 0.  0.
         11    1    3    3    0    0  0.27073412312E+02 -0.94604245896E+01  0.28796384978E+02  0.40641125424E+02  0.51100000000E-03 0. -1.
         22    1    1    0    0    0  0.11099833022E+02 -0.25297120616E+02 -0.11322483276E+02  0.29855472398E+02  0.00000000000E+00 0.  1.
</event>
<event>
 5    1  0.3183396E-003  0.9118800E+02  0.7818608E-02  0.1130116E+00
         25   -1    0    0    0    0  0.00000000000E+00  0.00000000000E+00  0.99999998245E-14  0.12500000000E+03  0.12500000000E+03 0.  0.
        -11    1    3    3    0    0 -0.52575156996E+02 -0.18598236743E+01 -0.18061271385E+02  0.55622078364E+02  0.51100000000E-03 0.  1.
         23    2    1    0    0    0 -0.21790172861E+02  0.19036405301E+02 -0.24812640271E+01  0.95959458833E+02  0.91459634310E+02 0.  0.
         11    1    3    3    0    0  0.30784984135E+02  0.20896228975E+02  0.15580007358E+02  0.40337380469E+02  0.51100000000E-03 0. -1.
         22    1    1    0    0    0  0.21790172861E+02 -0.19036405301E+02  0.24812640271E+01  0.29040541167E+02  0.00000000000E+00 0.  1.
</event>
<event>
 5    1  0.3183396E-003  0.9118800E+02  0.7818608E-02  0.1130116E+00
         25   -1    0    0    0    0  0.00000000000E+00  0.00000000000E+00  0.99999998245E-14  0.12500000000E+03  0.12500000000E+03 0.  0.
        -11    1    3    3    0    0  0.17346294189E+02  0.18805265836E+02  0.49680011175E+02  0.55880546310E+02  0.51100000000E-03 0.  1.
         23    2    1    0    0    0  0.19454663384E+02  0.19235599897E+02  0.96184116985E+01  0.95999895269E+02  0.91514883038E+02 0.  0.
         11    1    3    3    0    0  0.21083691949E+01  0.43033406056E+00 -0.40061599477E+02  0.40119348960E+02  0.51100000000E-03 0. -1.
         22    1    1    0    0    0 -0.19454663384E+02 -0.19235599897E+02 -0.96184116985E+01  0.29000104731E+02  0.00000000000E+00 0.  1.
</event>
<event>
 5    1  0.3183396E-003  0.9118800E+02  0.7818608E-02  0.1130116E+00
         25   -1    0    0    0    0  0.00000000000E+00  0.00000000000E+00  0.99999998245E-14  0.12500000000E+03  0.12500000000E+03 0.  0.
        -11    1    3    3    0    0  0.51996793049E+02  0.20206192753E+02 -0.23099501730E+02  0.60378337948E+02  0.51100000000E-03 0. -1.
         23    2    1    0    0    0  0.26822323355E+02  0.32492217679E+01 -0.92947662353E+00  0.97965607108E+02  0.94161572720E+02 0.  0.
         11    1    3    3    0    0 -0.25174469694E+02 -0.16956970985E+02  0.22170025107E+02  0.37587269160E+02  0.51100000000E-03 0.  1.
         22    1    1    0    0    0 -0.26822323355E+02 -0.32492217679E+01  0.92947662353E+00  0.27034392892E+02  0.00000000000E+00 0. -1.
</event>
<event>
 5    1  0.3183396E-003  0.9118800E+02  0.7818608E-02  0.1130116E+00
         25   -1    0    0    0    0  0.00000000000E+00  0.00000000000E+00  0.99999998245E-14  0.12500000000E+03  0.12500000000E+03 0.  0.
        -11    1    3    3    0    0 -0.20678311913E+01 -0.34001852717E+02 -0.34611193241E+01  0.34240053465E+02  0.51100000000E-03 0.  1.
         23    2    1    0    0    0 -0.69964282409E+01  0.27805024922E+02 -0.22855545501E+00  0.96327336074E+02  0.91961046202E+02 0.  0.
         11    1    3    3    0    0 -0.49285970496E+01  0.61806877639E+02  0.32325638691E+01  0.62087282609E+02  0.51100000000E-03 0. -1.
         22    1    1    0    0    0  0.69964282409E+01 -0.27805024922E+02  0.22855545501E+00  0.28672663926E+02  0.00000000000E+00 0. -1.
</event>
<event>
 5    1  0.3183396E-003  0.9118800E+02  0.7818608E-02  0.1130116E+00
         25   -1    0    0    0    0  0.00000000000E+00  0.00000000000E+00  0.99999998245E-14  0.12500000000E+03  0.12500000000E+03 0.  0.
        -11    1    3    3    0    0  0.38748446217E+02  0.46593038707E+02 -0.17776226514E+01  0.60626011602E+02  0.51100000000E-03 0.  1.
         23    2    1    0    0    0  0.14031980793E+02  0.17826590128E+02  0.98101436226E+01  0.10028314910E+03  0.97189440140E+02 0.  0.
         11    1    3    3    0    0 -0.24716465424E+02 -0.28766448580E+02  0.11587766274E+02  0.39657137497E+02  0.51100000000E-03 0. -1.
         22    1    1    0    0    0 -0.14031980793E+02 -0.17826590128E+02 -0.98101436226E+01  0.24716850901E+02  0.00000000000E+00 0.  1.
</event>
<event>
 5    1  0.3183396E-003  0.9118800E+02  0.7818608E-02  0.1130116E+00
         25   -1    0    0    0    0  0.00000000000E+00  0.00000000000E+00  0.99999998245E-14  0.12500000000E+03  0.12500000000E+03 0.  0.
        -11    1    3    3    0    0  0.49844301903E+02  0.21963166567E+02  0.77515472616E+01  0.55017466345E+02  0.51100000000E-03 0. -1.
         23    2    1    0    0    0  0.19448573450E+02  0.16331556634E+02 -0.16847649051E+02  0.94523615210E+02  0.89475716272E+02 0.  0.
         11    1    3    3    0    0 -0.30395728453E+02 -0.56316099335E+01 -0.24599196313E+02  0.39506148865E+02  0.51100000000E-03 0.  1.
         22    1    1    0    0    0 -0.19448573450E+02 -0.16331556634E+02  0.16847649051E+02  0.30476384790E+02  0.00000000000E+00 0. -1.
</event>
<event>
 5    1  0.3183396E-003  0.9118800E+02  0.7818608E-02  0.1130116E+00
         25   -1    0    0    0    0  0.00000000000E+00  0.00000000000E+00  0.99999998245E-14  0.12500000000E+03  0.12500000000E+03 0.  0.
        -11    1    3    3    0    0 -0.45412204643E+02 -0.24365519542E+02  0.23255479486E+02  0.56539934555E+02  0.51100000000E-03 0.  1.
         23    2    1    0    0    0 -0.18433167417E+02 -0.21543716015E+02  0.29188583919E+02  0.84307411093E+02  0.73836662798E+02 0.  0.
         11    1    3    3    0    0  0.26979037226E+02  0.28218035263E+01  0.59331044331E+01  0.27767476538E+02  0.51100000000E-03 0. -1.
         22    1    1    0    0    0  0.18433167417E+02  0.21543716015E+02 -0.29188583919E+02  0.40692588907E+02  0.00000000000E+00 0.  1.
</event>
<event>
 5    1  0.3183396E-003  0.9118800E+02  0.7818608E-02  0.1130116E+00
         25   -1    0    0    0    0  0.00000000000E+00  0.00000000000E+00  0.99999998245E-14  0.12500000000E+03  0.12500000000E+03 0.  0.
        -11    1    3    3    0    0  0.12545181031E+02  0.25235797959E+02  0.40758548261E+02  0.49552863916E+02  0.51100000000E-03 0.  1.
         23    2    1    0    0    0  0.34276592911E+01  0.30877549340E+02 -0.22247473523E+01  0.93853228061E+02  0.88534213811E+02 0.  0.
         11    1    3    3    0    0 -0.91175217395E+01  0.56417513812E+01 -0.42983295613E+02  0.44300364145E+02  0.51100000000E-03 0. -1.
         22    1    1    0    0    0 -0.34276592911E+01 -0.30877549340E+02  0.22247473523E+01  0.31146771939E+02  0.00000000000E+00 0.  1.
</event>
<event>
 5    1  0.3183396E-003  0.9118800E+02  0.7818608E-02  0.1130116E+00
         25   -1    0    0    0    0  0.00000000000E+00  0.00000000000E+00  0.99999998245E-14  0.12500000000E+03  0.12500000000E+03 0.  0.
        -11    1    3    3    0    0 -0.33026943501E+02 -0.41597298082E+01  0.17778954044E+02  0.37738224074E+02  0.51100000000E-03 0.  1.
         23    2    1    0    0    0  0.11754580158E+02 -0.22742351399E+02 -0.14109301929E+02  0.95768901786E+02  0.91198823713E+02 0.  0.
         11    1    3    3    0    0  0.44781523659E+02 -0.18582621591E+02 -0.31888255973E+02  0.58030677712E+02  0.51100000000E-03 0. -1.
         22    1    1    0    0    0 -0.11754580158E+02  0.22742351399E+02  0.14109301929E+02  0.29231098214E+02  0.00000000000E+00 0. -1.
</event>
<event>
 5    1  0.3183396E-003  0.9118800E+02  0.7818608E-02  0.1130116E+00
         25   -1    0    0    0    0  0.00000000000E+00  0.00000000000E+00  0.99999998245E-14  0.12500000000E+03  0.12500000000E+03 0.  0.
        -11    1    3    3    0    0 -0.86443797857E+01 -0.35842938912E+02 -0.28927134128E+02  0.46863852390E+02  0.51100000000E-03 0.  1.
         23    2    1    0    0    0  0.14306182705E+02  0.64900341247E+01 -0.25384100964E+02  0.95148032087E+02  0.90343832229E+02 0.  0.
         11    1    3    3    0    0  0.22950562490E+02  0.42332973037E+02  0.35430331637E+01  0.48284179697E+02  0.51100000000E-03 0. -1.
         22    1    1    0    0    0 -0.14306182705E+02 -0.64900341247E+01  0.25384100964E+02  0.29851967913E+02  0.00000000000E+00 0.  1.
</event>
<event>
 5    1  0.3183396E-003  0.9118800E+02  0.7818608E-02  0.1130116E+00
         25   -1    0    0    0    0  0.00000000000E+00  0.00000000000E+00  0.99999998245E-14  0.12500000000E+03  0.12500000000E+03 0.  0.
        -11    1    3    3    0    0 -0.11976854777E+02 -0.94096168914E+01 -0.58916840715E+02  0.60853759625E+02  0.51100000000E-03 0.  1.
         23    2    1    0    0    0 -0.19256231934E+01  0.45884122383E+01 -0.30569040262E+02  0.94028597480E+02  0.88781469744E+02 0.  0.
         11    1    3    3    0    0  0.10051231584E+02  0.13998029130E+02  0.28347800453E+02  0.33174837855E+02  0.51100000000E-03 0. -1.
         22    1    1    0    0    0  0.19256231934E+01 -0.45884122383E+01  0.30569040262E+02  0.30971402520E+02  0.00000000000E+00 0.  1.
</event>
<event>
 5    1  0.3183396E-003  0.9118800E+02  0.7818608E-02  0.1130116E+00
         25   -1    0    0    0    0  0.00000000000E+00  0.00000000000E+00  0.99999998245E-14  0.12500000000E+03  0.12500000000E+03 0.  0.
        -11    1    3    3    0    0  0.36482660162E+02 -0.33559199873E+02  0.32355674431E+02  0.59195388813E+02  0.51100000000E-03 0. -1.
         23    2    1    0    0    0  0.23016138125E+02 -0.15079813628E+02  0.17109713026E+01  0.97430618142E+02  0.93448673268E+02 0.  0.
         11    1    3    3    0    0 -0.13466522037E+02  0.18479386244E+02 -0.30644703128E+02  0.38235229329E+02  0.51100000000E-03 0.  1.
         22    1    1    0    0    0 -0.23016138125E+02  0.15079813628E+02 -0.17109713026E+01  0.27569381858E+02  0.00000000000E+00 0. -1.
</event>
<event>
 5    1  0.3183396E-003  0.9118800E+02  0.7818608E-02  0.1130116E+00
         25   -1    0    0    0    0  0.00000000000E+00  0.00000000000E+00  0.99999998245E-14  0.12500000000E+03  0.12500000000E+03 0.  0.
        -11    1    3    3    0    0  0.11085040094E+02  0.40325639125E+02 -0.20668510906E+02  0.46650001372E+02  0.51100000000E-03 0.  1.
         23    2    1    0    0    0  0.52487890233E+01  0.21435357905E+02 -0.43116743079E+02  0.76563671811E+02  0.59295176470E+02 0.  0.
         11    1    3    3    0    0 -0.58362510712E+01 -0.18890281220E+02 -0.22448232173E+02  0.29913670438E+02  0.51100000000E-03 0. -1.
         22    1    1    0    0    0 -0.52487890233E+01 -0.21435357905E+02  0.43116743079E+02  0.48436328189E+02  0.00000000000E+00 0.  1.
</event>
<event>
 5    1  0.3183396E-003  0.9118800E+02  0.7818608E-02  0.1130116E+00
         25   -1    0    0    0    0  0.00000000000E+00  0.00000000000E+00  0.99999998245E-14  0.12500000000E+03  0.12500000000E+03 0.  0.
        -11    1    3    3    0    0  0.34743202185E+02  0.27224097352E+02 -0.30044592473E+02  0.53393998837E+02  0.51100000000E-03 0.  1.
         23    2    1    0    0    0  0.11215477366E+02  0.24257818853E+02  0.69951617002E+01  0.97374631310E+02  0.93373753418E+02 0.  0.
         11    1    3    3    0    0 -0.23527724818E+02 -0.29662784987E+01  0.37039754173E+02  0.43980632473E+02  0.51100000000E-03 0. -1.
         22    1    1    0    0    0 -0.11215477366E+02 -0.24257818853E+02 -0.69951617002E+01  0.27625368690E+02  0.00000000000E+00 0.  1.
</event>
<event>
 5    1  0.3183396E-003  0.9118800E+02  0.7818608E-02  0.1130116E+00
         25   -1    0    0    0    0  0.00000000000E+00  0.00000000000E+00  0.99999998245E-14  0.12500000000E+03  0.12500000000E+03 0.  0.
        -11    1    3    3    0    0 -0.71644599921E+01 -0.28295012056E+02 -0.40700165112E+02  0.50084335222E+02  0.51100000000E-03 0.  1.
         23    2    1    0    0    0 -0.14896979501E+02 -0.19436235941E+02  0.72544297048E+01  0.99459561160E+02  0.96124348060E+02 0.  0.
         11    1    3    3    0    0 -0.77325195085E+01  0.88587761155E+01  0.47954594816E+02  0.49375225938E+02  0.51100000000E-03 0. -1.
         22    1    1    0    0    0  0.14896979501E+02  0.19436235941E+02 -0.72544297048E+01  0.25540438840E+02  0.00000000000E+00 0. -1.
</event>
<event>
 5    1  0.3183396E-003  0.9118800E+02  0.7818608E-02  0.1130116E+00
         25   -1    0    0    0    0  0.00000000000E+00  0.00000000000E+00  0.99999998245E-14  0.12500000000E+03  0.12500000000E+03 0.  0.
        -11    1    3    3    0    0 -0.18659969609E+00 -0.35141186610E+02 -0.45086569407E+02  0.57164119490E+02  0.51100000000E-03 0.  1.
         23    2    1    0    0    0  0.17083730776E+02 -0.10854178857E+02 -0.23632548251E+02  0.93884659849E+02  0.88578580719E+02 0.  0.
         11    1    3    3    0    0  0.17270330472E+02  0.24287007753E+02  0.21454021157E+02  0.36720540360E+02  0.51100000000E-03 0. -1.
         22    1    1    0    0    0 -0.17083730776E+02  0.10854178857E+02  0.23632548251E+02  0.31115340151E+02  0.00000000000E+00 0.  1.
</event>
<event>
 5    1  0.3183396E-003  0.9118800E+02  0.7818608E-02  0.1130116E+00
         25   -1    0    0    0    0  0.00000000000E+00  0.00000000000E+00  0.99999998245E-14  0.12500000000E+03  0.12500000000E+03 0.  0.
        -11    1    3    3    0    0  0.47677407762E+02 -0.27947725764E+02  0.32779139873E+01  0.55362038498E+02  0.51100000000E-03 0. -1.
         23    2    1    0    0    0  0.29748103598E+02  0.65984266433E+01 -0.96011040275E+00  0.94513761895E+02  0.89461949865E+02 0.  0.
         11    1    3    3    0    0 -0.17929304164E+02  0.34546152407E+02 -0.42380243900E+01  0.39151723397E+02  0.51100000000E-03 0.  1.
         22    1    1    0    0    0 -0.29748103598E+02 -0.65984266433E+01  0.96011040275E+00  0.30486238105E+02  0.00000000000E+00 0. -1.
</event>
<event>
 5    1  0.3183396E-003  0.9118800E+02  0.7818608E-02  0.1130116E+00
         25   -1    0    0    0    0  0.00000000000E+00  0.00000000000E+00  0.99999998245E-14  0.12500000000E+03  0.12500000000E+03 0.  0.
        -11    1    3    3    0    0  0.96450145173E+01 -0.12525826911E+02  0.31765297791E+02  0.35481781084E+02  0.51100000000E-03 0. -1.
         23    2    1    0    0    0  0.10272306243E+02  0.33648377716E+02  0.34506872964E+01  0.89649740576E+02  0.82385891657E+02 0.  0.
         11    1    3    3    0    0  0.62729172584E+00  0.46174204627E+02 -0.28314610495E+02  0.54167959493E+02  0.51100000000E-03 0.  1.
         22    1    1    0    0    0 -0.10272306243E+02 -0.33648377716E+02 -0.34506872964E+01  0.35350259424E+02  0.00000000000E+00 0.  1.
</event>
<event>
 5    1  0.3183396E-003  0.9118800E+02  0.7818608E-02  0.1130116E+00
         25   -1    0    0    0    0  0.00000000000E+00  0.00000000000E+00  0.99999998245E-14  0.12500000000E+03  0.12500000000E+03 0.  0.
        -11    1    3    3    0    0  0.13719098828E+02  0.35157900889E+02  0.55730821408E+01  0.38149061750E+02  0.51100000000E-03 0.  1.
         23    2    1    0    0    0 -0.34908747726E+01 -0.19907735410E+02  0.18864508017E+02  0.97352689126E+02  0.93344374664E+02 0.  0.
         11    1    3    3    0    0 -0.17209973601E+02 -0.55065636299E+02  0.13291425876E+02  0.59203627376E+02  0.51100000000E-03 0. -1.
         22    1    1    0    0    0  0.34908747726E+01  0.19907735410E+02 -0.18864508017E+02  0.27647310874E+02  0.00000000000E+00 0. -1.
</event>
<event>
 5    1  0.3183396E-003  0.9118800E+02  0.7818608E-02  0.1130116E+00
         25   -1    0    0    0    0  0.00000000000E+00  0.00000000000E+00  0.99999998245E-14  0.12500000000E+03  0.12500000000E+03 0.  0.
        -11    1    3    3    0    0  0.23771127639E+02  0.23094284261E+02  0.11641367059E+02  0.35127395321E+02  0.51100000000E-03 0. -1.
         23    2    1    0    0    0 -0.59941205063E+00 -0.24856259904E+02 -0.15830033334E+02  0.95524876479E+02  0.90863739302E+02 0.  0.
         11    1    3    3    0    0 -0.24370539690E+02 -0.47950544165E+02 -0.27471400392E+02  0.60397481158E+02  0.51100000000E-03 0.  1.
         22    1    1    0    0    0  0.59941205063E+00  0.24856259904E+02  0.15830033334E+02  0.29475123521E+02  0.00000000000E+00 0.  1.
</event>
<event>
 5    1  0.3183396E-003  0.9118800E+02  0.7818608E-02  0.1130116E+00
         25   -1    0    0    0    0  0.00000000000E+00  0.00000000000E+00  0.99999998245E-14  0.12500000000E+03  0.12500000000E+03 0.  0.
        -11    1    3    3    0    0  0.57221602206E+02  0.95311512177E+01 -0.19552873290E+02  0.61216578283E+02  0.51100000000E-03 0. -1.
         23    2    1    0    0    0  0.26136390479E+02  0.11347944985E+02 -0.33734953841E+01  0.96307366211E+02  0.91933897735E+02 0.  0.
         11    1    3    3    0    0 -0.31085211727E+02  0.18167937676E+01  0.16179377905E+02  0.35090787928E+02  0.51100000000E-03 0.  1.
         22    1    1    0    0    0 -0.26136390479E+02 -0.11347944985E+02  0.33734953841E+01  0.28692633789E+02  0.00000000000E+00 0. -1.
</event>
<event>
 5    1  0.3183396E-003  0.9118800E+02  0.7818608E-02  0.1130116E+00
         25   -1    0    0    0    0  0.00000000000E+00  0.00000000000E+00  0.99999998245E-14  0.12500000000E+03  0.12500000000E+03 0.  0.
        -11    1    3    3    0    0  0.22249531438E+02 -0.11038341793E+02  0.32667671861E+02  0.41037341822E+02  0.51100000000E-03 0. -1.
         23    2    1    0    0    0 -0.60210768555E+01 -0.20313643287E+02 -0.16253968205E+02  0.98296274558E+02  0.94599517121E+02 0.  0.
         11    1    3    3    0    0 -0.28270608294E+02 -0.92753014938E+01 -0.48921640066E+02  0.57258932736E+02  0.51100000000E-03 0.  1.
         22    1    1    0    0    0  0.60210768555E+01  0.20313643287E+02  0.16253968205E+02  0.26703725442E+02  0.00000000000E+00 0.  1.
</event>
<event>
 5    1  0.3183396E-003  0.9118800E+02  0.7818608E-02  0.1130116E+00
         25   -1    0    0    0    0  0.00000000000E+00  0.00000000000E+00  0.99999998245E-14  0.12500000000E+03  0.12500000000E+03 0.  0.
        -11    1    3    3    0    0 -0.54724125364E+02 -0.13550810434E+02  0.14673800920E+02  0.58255255505E+02  0.51100000000E-03 0.  1.
         23    2    1    0    0    0 -0.29365687171E+02  0.68550187981E+01 -0.19075412340E+01  0.94784547343E+02  0.89839505985E+02 0.  0.
         11    1    3    3    0    0  0.25358438194E+02  0.20405829232E+02 -0.16581342154E+02  0.36529291837E+02  0.51100000000E-03 0. -1.
         22    1    1    0    0    0  0.29365687171E+02 -0.68550187981E+01  0.19075412340E+01  0.30215452657E+02  0.00000000000E+00 0.  1.
</event>
<event>
 5    1  0.3183396E-003  0.9118800E+02  0.7818608E-02  0.1130116E+00
         25   -1    0    0    0    0  0.00000000000E+00  0.00000000000E+00  0.99999998245E-14  0.12500000000E+03  0.12500000000E+03 0.  0.
        -11    1    3    3    0    0 -0.16979240500E+01 -0.24036567142E+02  0.44163706068E+02  0.50309764857E+02  0.51100000000E-03 0.  1.
         23    2    1    0    0    0 -0.19856336567E+02 -0.20606496503E+02  0.20373467587E+01  0.96311106996E+02  0.91938983837E+02 0.  0.
         11    1    3    3    0    0 -0.18158412517E+02  0.34300706394E+01 -0.42126359309E+02  0.46001342139E+02  0.51100000000E-03 0. -1.
         22    1    1    0    0    0  0.19856336567E+02  0.20606496503E+02 -0.20373467587E+01  0.28688893004E+02  0.00000000000E+00 0.  1.
</event>
<event>
 5    1  0.3183396E-003  0.9118800E+02  0.7818608E-02  0.1130116E+00
         25   -1    0    0    0    0  0.00000000000E+00  0.00000000000E+00  0.99999998245E-14  0.12500000000E+03  0.12500000000E+03 0.  0.
        -11    1    3    3    0    0 -0.87483923380E+00  0.28178799170E+02  0.37844669216E+02  0.47191408695E+02  0.51100000000E-03 0. -1.
         23    2    1    0    0    0  0.21817928307E+02 -0.96618202410E+01  0.13236676888E+02  0.97712963132E+02  0.93825587038E+02 0.  0.
         11    1    3    3    0    0  0.22692767541E+02 -0.37840619410E+02 -0.24607992328E+02  0.50521554437E+02  0.51100000000E-03 0.  1.
         22    1    1    0    0    0 -0.21817928307E+02  0.96618202410E+01 -0.13236676888E+02  0.27287036868E+02  0.00000000000E+00 0. -1.
</event>
<event>
 5    1  0.3183396E-003  0.9118800E+02  0.7818608E-02  0.1130116E+00
         25   -1    0    0    0    0  0.00000000000E+00  0.00000000000E+00  0.99999998245E-14  0.12500000000E+03  0.12500000000E+03 0.  0.
        -11    1    3    3    0    0 -0.35392691944E+00 -0.49562408776E+02  0.23923165216E+01  0.49621374493E+02  0.51100000000E-03 0. -1.
         23    2    1    0    0    0  0.24026222766E+02 -0.14482494644E+02  0.13653055652E+02  0.93800513464E+02  0.88459755629E+02 0.  0.
         11    1    3    3    0    0  0.24380149685E+02  0.35079914132E+02  0.11260739130E+02  0.44179138971E+02  0.51100000000E-03 0.  1.
         22    1    1    0    0    0 -0.24026222766E+02  0.14482494644E+02 -0.13653055652E+02  0.31199486536E+02  0.00000000000E+00 0. -1.
</event>
<event>
 5    1  0.3183396E-003  0.9118800E+02  0.7818608E-02  0.1130116E+00
         25   -1    0    0    0    0  0.00000000000E+00  0.00000000000E+00  0.99999998245E-14  0.12500000000E+03  0.12500000000E+03 0.  0.
        -11    1    3    3    0    0  0.48296201440E+02  0.15642652509E+02 -0.33518955447E+02  0.60833675095E+02  0.51100000000E-03 0. -1.
         23    2    1    0    0    0  0.17673766050E+02  0.16234134475E+02 -0.16551219710E+02  0.95847778773E+02  0.91306871009E+02 0.  0.
         11    1    3    3    0    0 -0.30622435390E+02  0.59148196646E+00  0.16967735737E+02  0.35014103679E+02  0.51100000000E-03 0.  1.
         22    1    1    0    0    0 -0.17673766050E+02 -0.16234134475E+02  0.16551219710E+02  0.29152221227E+02  0.00000000000E+00 0. -1.
</event>
<event>
 5    1  0.3183396E-003  0.9118800E+02  0.7818608E-02  0.1130116E+00
         25   -1    0    0    0    0  0.00000000000E+00  0.00000000000E+00  0.99999998245E-14  0.12500000000E+03  0.12500000000E+03 0.  0.
        -11    1    3    3    0    0  0.15943155330E+02  0.25344399887E+02  0.15708180038E+02  0.33812271853E+02  0.51100000000E-03 0.  1.
         23    2    1    0    0    0 -0.38426765560E+01 -0.19876921864E+02 -0.21381706357E+02  0.95554532562E+02  0.90904527613E+02 0.  0.
         11    1    3    3    0    0 -0.19785831886E+02 -0.45221321752E+02 -0.37089886395E+02  0.61742260709E+02  0.51100000000E-03 0. -1.
         22    1    1    0    0    0  0.38426765560E+01  0.19876921864E+02  0.21381706357E+02  0.29445467438E+02  0.00000000000E+00 0. -1.
</event>
<event>
 5    1  0.3183396E-003  0.9118800E+02  0.7818608E-02  0.1130116E+00
         25   -1    0    0    0    0  0.00000000000E+00  0.00000000000E+00  0.99999998245E-14  0.12500000000E+03  0.12500000000E+03 0.  0.
        -11    1    3    3    0    0  0.39217329989E+02  0.21029169939E+02 -0.35106815173E+02  0.56680803025E+02  0.51100000000E-03 0.  1.
         23    2    1    0    0    0  0.15376974070E+02 -0.84084684447E+01 -0.22234567399E+02  0.96688700832E+02  0.92450934057E+02 0.  0.
         11    1    3    3    0    0 -0.23840355919E+02 -0.29437638383E+02  0.12872247773E+02  0.40007897807E+02  0.51100000000E-03 0. -1.
         22    1    1    0    0    0 -0.15376974070E+02  0.84084684447E+01  0.22234567399E+02  0.28311299168E+02  0.00000000000E+00 0.  1.
</event>
<event>
 5    1  0.3183396E-003  0.9118800E+02  0.7818608E-02  0.1130116E+00
         25   -1    0    0    0    0  0.00000000000E+00  0.00000000000E+00  0.99999998245E-14  0.12500000000E+03  0.12500000000E+03 0.  0.
        -11    1    3    3    0    0 -0.25262520020E+02 -0.68799873123E+01 -0.48397121058E+02  0.55025543797E+02  0.51100000000E-03 0. -1.
         23    2    1    0    0    0 -0.26828733422E+02  0.59596578045E+01 -0.96537420039E+01  0.95871093518E+02  0.91338783545E+02 0.  0.
         11    1    3    3    0    0 -0.15662134018E+01  0.12839645117E+02  0.38743379055E+02  0.40845549721E+02  0.51100000000E-03 0.  1.
         22    1    1    0    0    0  0.26828733422E+02 -0.59596578045E+01  0.96537420039E+01  0.29128906482E+02  0.00000000000E+00 0. -1.
</event>
<event>
 5    1  0.3183396E-003  0.9118800E+02  0.7818608E-02  0.1130116E+00
         25   -1    0    0    0    0  0.00000000000E+00  0.00000000000E+00  0.99999998245E-14  0.12500000000E+03  0.12500000000E+03 0.  0.
        -11    1    3    3    0    0  0.14710470394E+02  0.35951155790E+02 -0.14473982368E+02  0.41453343746E+02  0.51100000000E-03 0.  1.
         23    2    1    0    0    0 -0.13577682543E+02  0.19176361063E+02  0.23554170513E+02  0.91730115188E+02  0.85484085050E+02 0.  0.
         11    1    3    3    0    0 -0.28288152938E+02 -0.16774794727E+02  0.38028152881E+02  0.50276771441E+02  0.51100000000E-03 0. -1.
         22    1    1    0    0    0  0.13577682543E+02 -0.19176361063E+02 -0.23554170513E+02  0.33269884812E+02  0.00000000000E+00 0.  1.
</event>
<event>
 5    1  0.3183396E-003  0.9118800E+02  0.7818608E-02  0.1130116E+00
         25   -1    0    0    0    0  0.00000000000E+00  0.00000000000E+00  0.99999998245E-14  0.12500000000E+03  0.12500000000E+03 0.  0.
        -11    1    3    3    0    0  0.16590830932E+02  0.18260599793E+02 -0.21105819741E+02  0.32467842599E+02  0.51100000000E-03 0.  1.
         23    2    1    0    0    0 -0.28004289788E+01 -0.32484936699E+02 -0.19891964234E+02  0.86805710428E+02  0.77951443906E+02 0.  0.
         11    1    3    3    0    0 -0.19391259910E+02 -0.50745536492E+02  0.12138555071E+01  0.54337867829E+02  0.51100000000E-03 0. -1.
         22    1    1    0    0    0  0.28004289788E+01  0.32484936699E+02  0.19891964234E+02  0.38194289572E+02  0.00000000000E+00 0. -1.
</event>
<event>
 5    1  0.3183396E-003  0.9118800E+02  0.7818608E-02  0.1130116E+00
         25   -1    0    0    0    0  0.00000000000E+00  0.00000000000E+00  0.99999998245E-14  0.12500000000E+03  0.12500000000E+03 0.  0.
        -11    1    3    3    0    0 -0.37071797595E+02 -0.27716670571E+01 -0.34693122973E+02  0.50848924247E+02  0.51100000000E-03 0.  1.
         23    2    1    0    0    0 -0.39535957910E+02  0.80161878832E+01 -0.28510953632E+01  0.84558932002E+02  0.74261248310E+02 0.  0.
         11    1    3    3    0    0 -0.24641603150E+01  0.10787854940E+02  0.31842027610E+02  0.33710007755E+02  0.51100000000E-03 0. -1.
         22    1    1    0    0    0  0.39535957910E+02 -0.80161878832E+01  0.28510953632E+01  0.40441067998E+02  0.00000000000E+00 0.  1.
</event>
<event>
 5    1  0.3183396E-003  0.9118800E+02  0.7818608E-02  0.1130116E+00
         25   -1    0    0    0    0  0.00000000000E+00  0.00000000000E+00  0.99999998245E-14  0.12500000000E+03  0.12500000000E+03 0.  0.
        -11    1    3    3    0    0  0.19651540203E+02  0.31810635809E+02  0.10309707455E+02  0.38786462213E+02  0.51100000000E-03 0. -1.
         23    2    1    0    0    0  0.13277897836E+02 -0.23894937341E+02  0.12594394835E+02  0.94902003676E+02  0.90002782840E+02 0.  0.
         11    1    3    3    0    0 -0.63736423678E+01 -0.55705573150E+02  0.22846873806E+01  0.56115541463E+02  0.51100000000E-03 0.  1.
         22    1    1    0    0    0 -0.13277897836E+02  0.23894937341E+02 -0.12594394835E+02  0.30097996324E+02  0.00000000000E+00 0.  1.
</event>
<event>
 5    1  0.3183396E-003  0.9118800E+02  0.7818608E-02  0.1130116E+00
         25   -1    0    0    0    0  0.00000000000E+00  0.00000000000E+00  0.99999998245E-14  0.12500000000E+03  0.12500000000E+03 0.  0.
        -11    1    3    3    0    0 -0.31508069874E+02 -0.11834158682E+02 -0.49925061711E+02  0.60210610079E+02  0.51100000000E-03 0.  1.
         23    2    1    0    0    0 -0.22896365889E+02  0.21332510392E+01 -0.19199912081E+02  0.95042848018E+02  0.90198181825E+02 0.  0.
         11    1    3    3    0    0  0.86117039852E+01  0.13967409721E+02  0.30725149630E+02  0.34832237940E+02  0.51100000000E-03 0. -1.
         22    1    1    0    0    0  0.22896365889E+02 -0.21332510392E+01  0.19199912081E+02  0.29957151982E+02  0.00000000000E+00 0.  1.
</event>
<event>
 5    1  0.3183396E-003  0.9118800E+02  0.7818608E-02  0.1130116E+00
         25   -1    0    0    0    0  0.00000000000E+00  0.00000000000E+00  0.99999998245E-14  0.12500000000E+03  0.12500000000E+03 0.  0.
        -11    1    3    3    0    0  0.10415134515E+02 -0.46517908301E+02 -0.21367436024E+02  0.52239430914E+02  0.51100000000E-03 0. -1.
         23    2    1    0    0    0  0.26868787607E+02 -0.13621913517E+02  0.19428614307E+00  0.94874827429E+02  0.89965031302E+02 0.  0.
         11    1    3    3    0    0  0.16453653092E+02  0.32895994784E+02  0.21561722167E+02  0.42635396515E+02  0.51100000000E-03 0.  1.
         22    1    1    0    0    0 -0.26868787607E+02  0.13621913517E+02 -0.19428614307E+00  0.30125172571E+02  0.00000000000E+00 0. -1.
</event>
<event>
 5    1  0.3183396E-003  0.9118800E+02  0.7818608E-02  0.1130116E+00
         25   -1    0    0    0    0  0.00000000000E+00  0.00000000000E+00  0.99999998245E-14  0.12500000000E+03  0.12500000000E+03 0.  0.
        -11    1    3    3    0    0  0.28371497458E+02  0.98257844579E+01  0.20977923760E+02  0.36627328510E+02  0.51100000000E-03 0.  1.
         23    2    1    0    0    0 -0.27998214687E+02  0.75466600693E+01  0.29532813292E+01  0.95852547719E+02  0.91313399508E+02 0.  0.
         11    1    3    3    0    0 -0.56369712145E+02 -0.22791243886E+01 -0.18024642431E+02  0.59225219209E+02  0.51100000000E-03 0. -1.
         22    1    1    0    0    0  0.27998214687E+02 -0.75466600693E+01 -0.29532813292E+01  0.29147452281E+02  0.00000000000E+00 0. -1.
</event>
<event>
 5    1  0.3183396E-003  0.9118800E+02  0.7818608E-02  0.1130116E+00
         25   -1    0    0    0    0  0.00000000000E+00  0.00000000000E+00  0.99999998245E-14  0.12500000000E+03  0.12500000000E+03 0.  0.
        -11    1    3    3    0    0 -0.68176266207E+01 -0.29911066183E+02 -0.13027716130E+02  0.33329765987E+02  0.51100000000E-03 0.  1.
         23    2    1    0    0    0 -0.19387145757E+02  0.24945385661E+02  0.62044391810E+01  0.92803280416E+02  0.87039187174E+02 0.  0.
         11    1    3    3    0    0 -0.12569519137E+02  0.54856451845E+02  0.19232155311E+02  0.59473514429E+02  0.51100000000E-03 0. -1.
         22    1    1    0    0    0  0.19387145757E+02 -0.24945385661E+02 -0.62044391810E+01  0.32196719584E+02  0.00000000000E+00 0. -1.
</event>
<event>
 5    1  0.3183396E-003  0.9118800E+02  0.7818608E-02  0.1130116E+00
         25   -1    0    0    0    0  0.00000000000E+00  0.00000000000E+00  0.99999998245E-14  0.12500000000E+03  0.12500000000E+03 0.  0.
        -11    1    3    3    0    0  0.23631781239E+02  0.27684694432E+02 -0.16333739194E+02  0.39896045251E+02  0.51100000000E-03 0. -1.
         23    2    1    0    0    0  0.11602107219E+02 -0.25690793925E+02 -0.69153019237E+00  0.96802411478E+02  0.92604551019E+02 0.  0.
         11    1    3    3    0    0 -0.12029674019E+02 -0.53375488358E+02  0.15642209002E+02  0.56906366227E+02  0.51100000000E-03 0.  1.
         22    1    1    0    0    0 -0.11602107219E+02  0.25690793925E+02  0.69153019237E+00  0.28197588522E+02  0.00000000000E+00 0.  1.
</event>
<event>
 5    1  0.3183396E-003  0.9118800E+02  0.7818608E-02  0.1130116E+00
         25   -1    0    0    0    0  0.00000000000E+00  0.00000000000E+00  0.99999998245E-14  0.12500000000E+03  0.12500000000E+03 0.  0.
        -11    1    3    3    0    0  0.19213809793E+02 -0.27466912192E+02 -0.36230805854E+02  0.49358616727E+02  0.51100000000E-03 0. -1.
         23    2    1    0    0    0  0.86868066883E+00  0.13198028873E+02 -0.27027750106E+02  0.94909439220E+02  0.90013109073E+02 0.  0.
         11    1    3    3    0    0 -0.18345129124E+02  0.40664941065E+02  0.92030557474E+01  0.45550822493E+02  0.51100000000E-03 0.  1.
         22    1    1    0    0    0 -0.86868066883E+00 -0.13198028873E+02  0.27027750106E+02  0.30090560780E+02  0.00000000000E+00 0. -1.
</event>
<event>
 5    1  0.3183396E-003  0.9118800E+02  0.7818608E-02  0.1130116E+00
         25   -1    0    0    0    0  0.00000000000E+00  0.00000000000E+00  0.99999998245E-14  0.12500000000E+03  0.12500000000E+03 0.  0.
        -11    1    3    3    0    0  0.31966523846E+00 -0.50650203369E+02 -0.22314188269E+02  0.55348606898E+02  0.51100000000E-03 0. -1.
         23    2    1    0    0    0 -0.15569314033E+02 -0.23325191895E+02  0.42478053889E+01  0.96636079837E+02  0.92379759468E+02 0.  0.
         11    1    3    3    0    0 -0.15888979271E+02  0.27325011475E+02  0.26561993658E+02  0.41287472939E+02  0.51100000000E-03 0.  1.
         22    1    1    0    0    0  0.15569314033E+02  0.23325191895E+02 -0.42478053889E+01  0.28363920163E+02  0.00000000000E+00 0. -1.
</event>
<event>
 5    1  0.3183396E-003  0.9118800E+02  0.7818608E-02  0.1130116E+00
         25   -1    0    0    0    0  0.00000000000E+00  0.00000000000E+00  0.99999998245E-14  0.12500000000E+03  0.12500000000E+03 0.  0.
        -11    1    3    3    0    0 -0.15445134788E+02  0.23120483880E+01 -0.44699665006E+02  0.47349316872E+02  0.51100000000E-03 0.  1.
         23    2    1    0    0    0  0.65092677022E+01  0.27376089606E+02 -0.10865145250E+02  0.94835911593E+02  0.89910944262E+02 0.  0.
         11    1    3    3    0    0  0.21954402490E+02  0.25064041218E+02  0.33834519755E+02  0.47486594721E+02  0.51100000000E-03 0. -1.
         22    1    1    0    0    0 -0.65092677022E+01 -0.27376089606E+02  0.10865145250E+02  0.30164088407E+02  0.00000000000E+00 0.  1.
</event>
<event>
 5    1  0.3183396E-003  0.9118800E+02  0.7818608E-02  0.1130116E+00
         25   -1    0    0    0    0  0.00000000000E+00  0.00000000000E+00  0.99999998245E-14  0.12500000000E+03  0.12500000000E+03 0.  0.
        -11    1    3    3    0    0 -0.16195390067E+02  0.38234137084E+02  0.10416217763E+02  0.42809315467E+02  0.51100000000E-03 0.  1.
         23    2    1    0    0    0  0.26911351336E+02  0.65417746015E+01  0.70682815233E+01  0.96417203612E+02  0.92083119534E+02 0.  0.
         11    1    3    3    0    0  0.43106741403E+02 -0.31692362482E+02 -0.33479362393E+01  0.53607888146E+02  0.51100000000E-03 0. -1.
         22    1    1    0    0    0 -0.26911351336E+02 -0.65417746015E+01 -0.70682815233E+01  0.28582796388E+02  0.00000000000E+00 0. -1.
</event>
<event>
 5    1  0.3183396E-003  0.9118800E+02  0.7818608E-02  0.1130116E+00
         25   -1    0    0    0    0  0.00000000000E+00  0.00000000000E+00  0.99999998245E-14  0.12500000000E+03  0.12500000000E+03 0.  0.
        -11    1    3    3    0    0  0.93029611610E+01 -0.23562945387E+02 -0.39440675631E+02  0.46875626675E+02  0.51100000000E-03 0.  1.
         23    2    1    0    0    0 -0.26240435811E+02 -0.69961652948E+01 -0.94437178453E+01  0.96247772137E+02  0.91852833566E+02 0.  0.
         11    1    3    3    0    0 -0.35543396972E+02  0.16566780092E+02  0.29996957786E+02  0.49372145462E+02  0.51100000000E-03 0. -1.
         22    1    1    0    0    0  0.26240435811E+02  0.69961652948E+01  0.94437178453E+01  0.28752227863E+02  0.00000000000E+00 0.  1.
</event>
<event>
 5    1  0.3183396E-003  0.9118800E+02  0.7818608E-02  0.1130116E+00
         25   -1    0    0    0    0  0.00000000000E+00  0.00000000000E+00  0.99999998245E-14  0.12500000000E+03  0.12500000000E+03 0.  0.
        -11    1    3    3    0    0  0.40766483080E+02 -0.62258922893E+01 -0.39535360170E+02  0.57128911958E+02  0.51100000000E-03 0. -1.
         23    2    1    0    0    0  0.58245710135E+01  0.60095310280E+01 -0.27801618955E+02  0.95966052504E+02  0.91468645590E+02 0.  0.
         11    1    3    3    0    0 -0.34941912066E+02  0.12235423317E+02  0.11733741215E+02  0.38837140546E+02  0.51100000000E-03 0.  1.
         22    1    1    0    0    0 -0.58245710135E+01 -0.60095310280E+01  0.27801618955E+02  0.29033947496E+02  0.00000000000E+00 0. -1.
</event>
<event>
 5    1  0.3183396E-003  0.9118800E+02  0.7818608E-02  0.1130116E+00
         25   -1    0    0    0    0  0.00000000000E+00  0.00000000000E+00  0.99999998245E-14  0.12500000000E+03  0.12500000000E+03 0.  0.
        -11    1    3    3    0    0 -0.18492691927E+02 -0.45687931485E+02  0.35019348473E+02  0.60462562845E+02  0.51100000000E-03 0. -1.
         23    2    1    0    0    0 -0.11094141494E+02 -0.22353619946E+02  0.44072996091E+01  0.99658559827E+02  0.96382778320E+02 0.  0.
         11    1    3    3    0    0  0.73985504329E+01  0.23334311538E+02 -0.30612048864E+02  0.39195996982E+02  0.51100000000E-03 0.  1.
         22    1    1    0    0    0  0.11094141494E+02  0.22353619946E+02 -0.44072996091E+01  0.25341440173E+02  0.00000000000E+00 0. -1.
</event>
<event>
 5    1  0.3183396E-003  0.9118800E+02  0.7818608E-02  0.1130116E+00
         25   -1    0    0    0    0  0.00000000000E+00  0.00000000000E+00  0.99999998245E-14  0.12500000000E+03  0.12500000000E+03 0.  0.
        -11    1    3    3    0    0 -0.27003613055E+02 -0.36913357011E+02 -0.26286711469E+02  0.52752082840E+02  0.51100000000E-03 0. -1.
         23    2    1    0    0    0  0.14149839105E+01  0.52158200194E+01 -0.20383828063E+02  0.10391191321E+03  0.10174958625E+03 0.  0.
         11    1    3    3    0    0  0.28418596965E+02  0.42129177031E+02  0.59028834059E+01  0.51159830370E+02  0.51100000000E-03 0.  1.
         22    1    1    0    0    0 -0.14149839105E+01 -0.52158200194E+01  0.20383828063E+02  0.21088086790E+02  0.00000000000E+00 0.  1.
</event>
<event>
 5    1  0.3183396E-003  0.9118800E+02  0.7818608E-02  0.1130116E+00
         25   -1    0    0    0    0  0.00000000000E+00  0.00000000000E+00  0.99999998245E-14  0.12500000000E+03  0.12500000000E+03 0.  0.
        -11    1    3    3    0    0 -0.47579188108E+02  0.16172870472E+02  0.24618336063E+02  0.55958943441E+02  0.51100000000E-03 0.  1.
         23    2    1    0    0    0 -0.85945552377E+01  0.21186024583E+02  0.18183389384E+02  0.95787850697E+02  0.91224791994E+02 0.  0.
         11    1    3    3    0    0  0.38984632870E+02  0.50131541119E+01 -0.64349466782E+01  0.39828907256E+02  0.51100000000E-03 0. -1.
         22    1    1    0    0    0  0.85945552377E+01 -0.21186024583E+02 -0.18183389384E+02  0.29212149303E+02  0.00000000000E+00 0.  1.
</event>
<event>
 5    1  0.3183396E-003  0.9118800E+02  0.7818608E-02  0.1130116E+00
         25   -1    0    0    0    0  0.00000000000E+00  0.00000000000E+00  0.99999998245E-14  0.12500000000E+03  0.12500000000E+03 0.  0.
        -11    1    3    3    0    0 -0.10667717676E+02  0.22574171801E+02  0.44564243946E+02  0.51081946631E+02  0.51100000000E-03 0. -1.
         23    2    1    0    0    0  0.13043027475E+02 -0.86822560682E+01  0.26366718000E+02  0.94329069883E+02  0.89203517144E+02 0.  0.
         11    1    3    3    0    0  0.23710745151E+02 -0.31256427869E+02 -0.18197525946E+02  0.43247123252E+02  0.51100000000E-03 0.  1.
         22    1    1    0    0    0 -0.13043027475E+02  0.86822560682E+01 -0.26366718000E+02  0.30670930117E+02  0.00000000000E+00 0. -1.
</event>
<event>
 5    1  0.3183396E-003  0.9118800E+02  0.7818608E-02  0.1130116E+00
         25   -1    0    0    0    0  0.00000000000E+00  0.00000000000E+00  0.99999998245E-14  0.12500000000E+03  0.12500000000E+03 0.  0.
        -11    1    3    3    0    0  0.31587209579E+02  0.20474257974E+02  0.22297653519E+02  0.43750798865E+02  0.51100000000E-03 0.  1.
         23    2    1    0    0    0 -0.10929223091E+02  0.16367273498E+02  0.31887145792E+02  0.87528335693E+02  0.79101731481E+02 0.  0.
         11    1    3    3    0    0 -0.42516432670E+02 -0.41069844765E+01  0.95894922734E+01  0.43777536829E+02  0.51100000000E-03 0. -1.
         22    1    1    0    0    0  0.10929223091E+02 -0.16367273498E+02 -0.31887145792E+02  0.37471664307E+02  0.00000000000E+00 0. -1.
</event>
<event>
 5    1  0.3183396E-003  0.9118800E+02  0.7818608E-02  0.1130116E+00
         25   -1    0    0    0    0  0.00000000000E+00  0.00000000000E+00  0.99999998245E-14  0.12500000000E+03  0.12500000000E+03 0.  0.
        -11    1    3    3    0    0  0.41305435503E+01  0.51102487701E+02 -0.23784848315E+02  0.56517649003E+02  0.51100000000E-03 0. -1.
         23    2    1    0    0    0  0.13637664615E+02  0.16311360614E+02 -0.24460516937E+02  0.92590691614E+02  0.86733343666E+02 0.  0.
         11    1    3    3    0    0  0.95071210645E+01 -0.34791127086E+02 -0.67566862246E+00  0.36073042611E+02  0.51100000000E-03 0.  1.
         22    1    1    0    0    0 -0.13637664615E+02 -0.16311360614E+02  0.24460516937E+02  0.32409308386E+02  0.00000000000E+00 0. -1.
</event>
<event>
 5    1  0.3183396E-003  0.9118800E+02  0.7818608E-02  0.1130116E+00
         25   -1    0    0    0    0  0.00000000000E+00  0.00000000000E+00  0.99999998245E-14  0.12500000000E+03  0.12500000000E+03 0.  0.
        -11    1    3    3    0    0  0.47303350949E+01  0.37200735279E+01  0.28480084796E+02  0.29108937587E+02  0.51100000000E-03 0.  1.
         23    2    1    0    0    0  0.45976318946E+01 -0.24617570257E+02 -0.24988119357E+02  0.89622477568E+02  0.82344516466E+02 0.  0.
         11    1    3    3    0    0 -0.13270320023E+00 -0.28337643785E+02 -0.53468204154E+02  0.60513539982E+02  0.51100000000E-03 0. -1.
         22    1    1    0    0    0 -0.45976318946E+01  0.24617570257E+02  0.24988119357E+02  0.35377522432E+02  0.00000000000E+00 0. -1.
</event>
<event>
 5    1  0.3183396E-003  0.9118800E+02  0.7818608E-02  0.1130116E+00
         25   -1    0    0    0    0  0.00000000000E+00  0.00000000000E+00  0.99999998245E-14  0.12500000000E+03  0.12500000000E+03 0.  0.
        -11    1    3    3    0    0  0.22331102716E+02  0.27552825128E+02 -0.87412270062E+01  0.36527323621E+02  0.51100000000E-03 0.  1.
         23    2    1    0    0    0 -0.25746208001E+02 -0.55589250373E+01  0.83745184557E+01  0.97361233143E+02  0.93355815490E+02 0.  0.
         11    1    3    3    0    0 -0.48077310717E+02 -0.33111750166E+02  0.17115745462E+02  0.60833909522E+02  0.51100000000E-03 0. -1.
         22    1    1    0    0    0  0.25746208001E+02  0.55589250373E+01 -0.83745184557E+01  0.27638766857E+02  0.00000000000E+00 0. -1.
</event>
<event>
 5    1  0.3183396E-003  0.9118800E+02  0.7818608E-02  0.1130116E+00
         25   -1    0    0    0    0  0.00000000000E+00  0.00000000000E+00  0.99999998245E-14  0.12500000000E+03  0.12500000000E+03 0.  0.
        -11    1    3    3    0    0 -0.42887400234E+02  0.79431627378E+01 -0.20556112523E+02  0.48218012148E+02  0.51100000000E-03 0.  1.
         23    2    1    0    0    0 -0.72098853970E+01 -0.23272064447E+02 -0.16023584475E+02  0.95839638369E+02  0.91295726035E+02 0.  0.
         11    1    3    3    0    0  0.35677514837E+02 -0.31215227184E+02  0.45325280484E+01  0.47621626221E+02  0.51100000000E-03 0. -1.
         22    1    1    0    0    0  0.72098853970E+01  0.23272064447E+02  0.16023584475E+02  0.29160361631E+02  0.00000000000E+00 0. -1.
</event>
<event>
 5    1  0.3183396E-003  0.9118800E+02  0.7818608E-02  0.1130116E+00
         25   -1    0    0    0    0  0.00000000000E+00  0.00000000000E+00  0.99999998245E-14  0.12500000000E+03  0.12500000000E+03 0.  0.
        -11    1    3    3    0    0  0.16419115444E+02 -0.36757809402E+01 -0.55351400237E+02  0.57852192923E+02  0.51100000000E-03 0. -1.
         23    2    1    0    0    0  0.10589460649E+02  0.15021212390E+02 -0.28527101187E+02  0.91065224317E+02  0.84506248759E+02 0.  0.
         11    1    3    3    0    0 -0.58296547953E+01  0.18696993330E+02  0.26824299050E+02  0.33213031394E+02  0.51100000000E-03 0.  1.
         22    1    1    0    0    0 -0.10589460649E+02 -0.15021212390E+02  0.28527101187E+02  0.33934775683E+02  0.00000000000E+00 0. -1.
</event>
<event>
 5    1  0.3183396E-003  0.9118800E+02  0.7818608E-02  0.1130116E+00
         25   -1    0    0    0    0  0.00000000000E+00  0.00000000000E+00  0.99999998245E-14  0.12500000000E+03  0.12500000000E+03 0.  0.
        -11    1    3    3    0    0 -0.44893267420E+02  0.20957554083E+02 -0.17364279533E+02  0.52498978435E+02  0.51100000000E-03 0. -1.
         23    2    1    0    0    0 -0.25986675035E+02 -0.64580970309E+01  0.10812294917E+02  0.96122326652E+02  0.91681959311E+02 0.  0.
         11    1    3    3    0    0  0.18906592385E+02 -0.27415651114E+02  0.28176574451E+02  0.43623348217E+02  0.51100000000E-03 0.  1.
         22    1    1    0    0    0  0.25986675035E+02  0.64580970309E+01 -0.10812294917E+02  0.28877673348E+02  0.00000000000E+00 0. -1.
</event>
<event>
 5    1  0.3183396E-003  0.9118800E+02  0.7818608E-02  0.1130116E+00
         25   -1    0    0    0    0  0.00000000000E+00  0.00000000000E+00  0.99999998245E-14  0.12500000000E+03  0.12500000000E+03 0.  0.
        -11    1    3    3    0    0 -0.40158492294E+02  0.32911401259E+01 -0.13144127052E+02  0.42382828868E+02  0.51100000000E-03 0.  1.
         23    2    1    0    0    0 -0.19052279152E+01  0.13801226420E+02  0.24335605079E+02  0.96958505413E+02  0.92815011465E+02 0.  0.
         11    1    3    3    0    0  0.38253264379E+02  0.10510086294E+02  0.37479732131E+02  0.54575676545E+02  0.51100000000E-03 0. -1.
         22    1    1    0    0    0  0.19052279152E+01 -0.13801226420E+02 -0.24335605079E+02  0.28041494587E+02  0.00000000000E+00 0. -1.
</event>
<event>
 5    1  0.3183396E-003  0.9118800E+02  0.7818608E-02  0.1130116E+00
         25   -1    0    0    0    0  0.00000000000E+00  0.00000000000E+00  0.99999998245E-14  0.12500000000E+03  0.12500000000E+03 0.  0.
        -11    1    3    3    0    0  0.14877815182E+01  0.48749586471E+02 -0.17239880042E+02  0.51729577024E+02  0.51100000000E-03 0. -1.
         23    2    1    0    0    0 -0.24548644495E+02  0.16815303343E+02 -0.10295038271E+02  0.93513841358E+02  0.88053735522E+02 0.  0.
         11    1    3    3    0    0 -0.26036426013E+02 -0.31934283128E+02  0.69448417707E+01  0.41784264334E+02  0.51100000000E-03 0.  1.
         22    1    1    0    0    0  0.24548644495E+02 -0.16815303343E+02  0.10295038271E+02  0.31486158642E+02  0.00000000000E+00 0.  1.
</event>
<event>
 5    1  0.3183396E-003  0.9118800E+02  0.7818608E-02  0.1130116E+00
         25   -1    0    0    0    0  0.00000000000E+00  0.00000000000E+00  0.99999998245E-14  0.12500000000E+03  0.12500000000E+03 0.  0.
        -11    1    3    3    0    0  0.11259886956E+02  0.60246116699E+02  0.69727231931E+01  0.61684669899E+02  0.51100000000E-03 0. -1.
         23    2    1    0    0    0  0.12869321489E+01  0.29984746756E+02 -0.23857532947E+01  0.94892973392E+02  0.89990240293E+02 0.  0.
         11    1    3    3    0    0 -0.99729548071E+01 -0.30261369943E+02 -0.93584764878E+01  0.33208303492E+02  0.51100000000E-03 0.  1.
         22    1    1    0    0    0 -0.12869321489E+01 -0.29984746756E+02  0.23857532947E+01  0.30107026608E+02  0.00000000000E+00 0. -1.
</event>
<event>
 5    1  0.3183396E-003  0.9118800E+02  0.7818608E-02  0.1130116E+00
         25   -1    0    0    0    0  0.00000000000E+00  0.00000000000E+00  0.99999998245E-14  0.12500000000E+03  0.12500000000E+03 0.  0.
        -11    1    3    3    0    0  0.30448377379E+02 -0.59881246208E+01  0.36779145553E+02  0.48121376428E+02  0.51100000000E-03 0.  1.
         23    2    1    0    0    0  0.47991250493E+01 -0.28422609892E+02  0.31397153683E+01  0.96004583691E+02  0.91521286720E+02 0.  0.
         11    1    3    3    0    0 -0.25649252330E+02 -0.22434485271E+02 -0.33639430184E+02  0.47883207263E+02  0.51100000000E-03 0. -1.
         22    1    1    0    0    0 -0.47991250493E+01  0.28422609892E+02 -0.31397153683E+01  0.28995416309E+02  0.00000000000E+00 0.  1.
</event>
<event>
 5    1  0.3183396E-003  0.9118800E+02  0.7818608E-02  0.1130116E+00
         25   -1    0    0    0    0  0.00000000000E+00  0.00000000000E+00  0.99999998245E-14  0.12500000000E+03  0.12500000000E+03 0.  0.
        -11    1    3    3    0    0  0.83075599961E+01 -0.34587424525E+02  0.74724779736E+01  0.36347536583E+02  0.51100000000E-03 0. -1.
         23    2    1    0    0    0 -0.11893197142E+02 -0.16486953357E+02 -0.33695153381E+02  0.85647349129E+02  0.76071264497E+02 0.  0.
         11    1    3    3    0    0 -0.20200757138E+02  0.18100471168E+02 -0.41167631354E+02  0.49299812546E+02  0.51100000000E-03 0.  1.
         22    1    1    0    0    0  0.11893197142E+02  0.16486953357E+02  0.33695153381E+02  0.39352650871E+02  0.00000000000E+00 0.  1.
</event>
<event>
 5    1  0.3183396E-003  0.9118800E+02  0.7818608E-02  0.1130116E+00
         25   -1    0    0    0    0  0.00000000000E+00  0.00000000000E+00  0.99999998245E-14  0.12500000000E+03  0.12500000000E+03 0.  0.
        -11    1    3    3    0    0 -0.32200785435E+02 -0.28134618399E+02 -0.18762909266E+02  0.46695761044E+02  0.51100000000E-03 0. -1.
         23    2    1    0    0    0  0.16161757891E+02 -0.21775350739E+02 -0.45483574224E+01  0.97503529806E+02  0.93546151452E+02 0.  0.
         11    1    3    3    0    0  0.48362543326E+02  0.63592676608E+01  0.14214551843E+02  0.50807768761E+02  0.51100000000E-03 0.  1.
         22    1    1    0    0    0 -0.16161757891E+02  0.21775350739E+02  0.45483574224E+01  0.27496470194E+02  0.00000000000E+00 0.  1.
</event>
<event>
 5    1  0.3183396E-003  0.9118800E+02  0.7818608E-02  0.1130116E+00
         25   -1    0    0    0    0  0.00000000000E+00  0.00000000000E+00  0.99999998245E-14  0.12500000000E+03  0.12500000000E+03 0.  0.
        -11    1    3    3    0    0  0.22533181525E+02 -0.13488706351E+02 -0.27389997089E+02  0.37946032855E+02  0.51100000000E-03 0. -1.
         23    2    1    0    0    0 -0.20018280298E+02  0.20130554630E+02 -0.10154555839E+02  0.94848950597E+02  0.89929070102E+02 0.  0.
         11    1    3    3    0    0 -0.42551461823E+02  0.33619260981E+02  0.17235441250E+02  0.56902917742E+02  0.51100000000E-03 0.  1.
         22    1    1    0    0    0  0.20018280298E+02 -0.20130554630E+02  0.10154555839E+02  0.30151049403E+02  0.00000000000E+00 0.  1.
</event>
<event>
 5    1  0.3183396E-003  0.9118800E+02  0.7818608E-02  0.1130116E+00
         25   -1    0    0    0    0  0.00000000000E+00  0.00000000000E+00  0.99999998245E-14  0.12500000000E+03  0.12500000000E+03 0.  0.
        -11    1    3    3    0    0 -0.29046367185E+02 -0.18635719309E+02 -0.16524325955E+02  0.38262708076E+02  0.51100000000E-03 0.  1.
         23    2    1    0    0    0  0.18264978287E+02 -0.14262682113E+02  0.16868728357E+02  0.96336651814E+02  0.91973707946E+02 0.  0.
         11    1    3    3    0    0  0.47311345472E+02  0.43730371963E+01  0.33393054312E+02  0.58073943737E+02  0.51100000000E-03 0. -1.
         22    1    1    0    0    0 -0.18264978287E+02  0.14262682113E+02 -0.16868728357E+02  0.28663348186E+02  0.00000000000E+00 0. -1.
</event>
<event>
 5    1  0.3183396E-003  0.9118800E+02  0.7818608E-02  0.1130116E+00
         25   -1    0    0    0    0  0.00000000000E+00  0.00000000000E+00  0.99999998245E-14  0.12500000000E+03  0.12500000000E+03 0.  0.
        -11    1    3    3    0    0  0.34925728491E+02 -0.64444310712E+01 -0.52887906235E+01  0.35906942350E+02  0.51100000000E-03 0. -1.
         23    2    1    0    0    0 -0.26102176580E+02 -0.96284821032E+01 -0.12822847833E+01  0.97149047699E+02  0.93071273360E+02 0.  0.
         11    1    3    3    0    0 -0.61027905070E+02 -0.31840510320E+01  0.40065058402E+01  0.61242105349E+02  0.51100000000E-03 0.  1.
         22    1    1    0    0    0  0.26102176580E+02  0.96284821032E+01  0.12822847833E+01  0.27850952301E+02  0.00000000000E+00 0.  1.
</event>
<event>
 5    1  0.3183396E-003  0.9118800E+02  0.7818608E-02  0.1130116E+00
         25   -1    0    0    0    0  0.00000000000E+00  0.00000000000E+00  0.99999998245E-14  0.12500000000E+03  0.12500000000E+03 0.  0.
        -11    1    3    3    0    0 -0.36853451905E+02 -0.82451146870E+01 -0.80388883777E+01  0.38610653454E+02  0.51100000000E-03 0.  1.
         23    2    1    0    0    0  0.20021565746E+02 -0.12428436802E+02  0.11348066840E+02  0.98844546319E+02  0.95321228379E+02 0.  0.
         11    1    3    3    0    0  0.56875017651E+02 -0.41833221149E+01  0.19386955218E+02  0.60233892865E+02  0.51100000000E-03 0. -1.
         22    1    1    0    0    0 -0.20021565746E+02  0.12428436802E+02 -0.11348066840E+02  0.26155453681E+02  0.00000000000E+00 0. -1.
</event>
<event>
 5    1  0.3183396E-003  0.9118800E+02  0.7818608E-02  0.1130116E+00
         25   -1    0    0    0    0  0.00000000000E+00  0.00000000000E+00  0.99999998245E-14  0.12500000000E+03  0.12500000000E+03 0.  0.
        -11    1    3    3    0    0 -0.49529149559E+01 -0.30496994918E+02 -0.10768738743E+02  0.32719471267E+02  0.51100000000E-03 0.  1.
         23    2    1    0    0    0 -0.12375733665E+01  0.29998307792E+02  0.28539773847E+01  0.94840834807E+02  0.89917788572E+02 0.  0.
         11    1    3    3    0    0  0.37153415894E+01  0.60495302710E+02  0.13622716128E+02  0.62121363540E+02  0.51100000000E-03 0. -1.
         22    1    1    0    0    0  0.12375733665E+01 -0.29998307792E+02 -0.28539773847E+01  0.30159165193E+02  0.00000000000E+00 0. -1.
</event>
<event>
 5    1  0.3183396E-003  0.9118800E+02  0.7818608E-02  0.1130116E+00
         25   -1    0    0    0    0  0.00000000000E+00  0.00000000000E+00  0.99999998245E-14  0.12500000000E+03  0.12500000000E+03 0.  0.
        -11    1    3    3    0    0 -0.25977564479E+02  0.28482296234E+02  0.13792335252E+02  0.40942686368E+02  0.51100000000E-03 0.  1.
         23    2    1    0    0    0  0.23609644768E+02  0.95753612467E+01 -0.79760503304E+01  0.98303179067E+02  0.94608640021E+02 0.  0.
         11    1    3    3    0    0  0.49587209247E+02 -0.18906934988E+02 -0.21768385582E+02  0.57360492699E+02  0.51100000000E-03 0. -1.
         22    1    1    0    0    0 -0.23609644768E+02 -0.95753612467E+01  0.79760503304E+01  0.26696820933E+02  0.00000000000E+00 0. -1.
</event>
<event>
 5    1  0.3183396E-003  0.9118800E+02  0.7818608E-02  0.1130116E+00
         25   -1    0    0    0    0  0.00000000000E+00  0.00000000000E+00  0.99999998245E-14  0.12500000000E+03  0.12500000000E+03 0.  0.
        -11    1    3    3    0    0 -0.19257302633E+02  0.23813160603E+02  0.17561823795E+02  0.35303370630E+02  0.51100000000E-03 0.  1.
         23    2    1    0    0    0 -0.38621204281E+01 -0.25436596586E+02 -0.13918751671E+02  0.95748195472E+02  0.91170438564E+02 0.  0.
         11    1    3    3    0    0  0.15395182205E+02 -0.49249757188E+02 -0.31480575466E+02  0.60444824842E+02  0.51100000000E-03 0. -1.
         22    1    1    0    0    0  0.38621204281E+01  0.25436596586E+02  0.13918751671E+02  0.29251804528E+02  0.00000000000E+00 0. -1.
</event>
<event>
 5    1  0.3183396E-003  0.9118800E+02  0.7818608E-02  0.1130116E+00
         25   -1    0    0    0    0  0.00000000000E+00  0.00000000000E+00  0.99999998245E-14  0.12500000000E+03  0.12500000000E+03 0.  0.
        -11    1    3    3    0    0 -0.24536816699E+02  0.11816023200E+02 -0.52780400554E+02  0.59392292942E+02  0.51100000000E-03 0.  1.
         23    2    1    0    0    0 -0.15554411010E+02 -0.76509449784E+01 -0.26888451109E+02  0.93008353216E+02  0.87333202758E+02 0.  0.
         11    1    3    3    0    0  0.89824056889E+01 -0.19466968178E+02  0.25891949445E+02  0.33616060274E+02  0.51100000000E-03 0. -1.
         22    1    1    0    0    0  0.15554411010E+02  0.76509449784E+01  0.26888451109E+02  0.31991646784E+02  0.00000000000E+00 0.  1.
</event>
<event>
 5    1  0.3183396E-003  0.9118800E+02  0.7818608E-02  0.1130116E+00
         25   -1    0    0    0    0  0.00000000000E+00  0.00000000000E+00  0.99999998245E-14  0.12500000000E+03  0.12500000000E+03 0.  0.
        -11    1    3    3    0    0  0.24184338428E+02  0.42744469270E+01  0.43783105041E+02  0.50200731160E+02  0.51100000000E-03 0.  1.
         23    2    1    0    0    0  0.22651061461E+02 -0.16613704408E+02  0.21231868585E+01  0.96829205160E+02  0.92640710760E+02 0.  0.
         11    1    3    3    0    0 -0.15332769664E+01 -0.20888151335E+02 -0.41659918182E+02  0.46628474001E+02  0.51100000000E-03 0. -1.
         22    1    1    0    0    0 -0.22651061461E+02  0.16613704408E+02 -0.21231868585E+01  0.28170794840E+02  0.00000000000E+00 0.  1.
</event>
<event>
 5    1  0.3183396E-003  0.9118800E+02  0.7818608E-02  0.1130116E+00
         25   -1    0    0    0    0  0.00000000000E+00  0.00000000000E+00  0.99999998245E-14  0.12500000000E+03  0.12500000000E+03 0.  0.
        -11    1    3    3    0    0  0.29677172530E+02  0.10748008855E+02  0.17328783618E+02  0.36007513183E+02  0.51100000000E-03 0. -1.
         23    2    1    0    0    0 -0.23747740448E+02  0.17411514593E+02  0.19144450330E+02  0.89876987668E+02  0.82729963840E+02 0.  0.
         11    1    3    3    0    0 -0.53424912978E+02  0.66635057388E+01  0.18156667127E+01  0.53869474485E+02  0.51100000000E-03 0.  1.
         22    1    1    0    0    0  0.23747740448E+02 -0.17411514593E+02 -0.19144450330E+02  0.35123012332E+02  0.00000000000E+00 0.  1.
</event>
<event>
 5    1  0.3183396E-003  0.9118800E+02  0.7818608E-02  0.1130116E+00
         25   -1    0    0    0    0  0.00000000000E+00  0.00000000000E+00  0.99999998245E-14  0.12500000000E+03  0.12500000000E+03 0.  0.
        -11    1    3    3    0    0 -0.28288566562E+02  0.27545197083E+01  0.20997708264E+02  0.35337432414E+02  0.51100000000E-03 0.  1.
         23    2    1    0    0    0  0.67907826189E+01 -0.81798764814E+01 -0.27114418876E+02  0.95875837887E+02  0.91345276132E+02 0.  0.
         11    1    3    3    0    0  0.35079349181E+02 -0.10934396190E+02 -0.48112127140E+02  0.60538405473E+02  0.51100000000E-03 0. -1.
         22    1    1    0    0    0 -0.67907826189E+01  0.81798764814E+01  0.27114418876E+02  0.29124162113E+02  0.00000000000E+00 0. -1.
</event>
<event>
 5    1  0.3183396E-003  0.9118800E+02  0.7818608E-02  0.1130116E+00
         25   -1    0    0    0    0  0.00000000000E+00  0.00000000000E+00  0.99999998245E-14  0.12500000000E+03  0.12500000000E+03 0.  0.
        -11    1    3    3    0    0  0.18758949001E+02 -0.57544789544E+02  0.54802601346E+01  0.60772808251E+02  0.51100000000E-03 0.  1.
         23    2    1    0    0    0  0.83373916497E+01 -0.30501706039E+02  0.13152856234E+02  0.90752900883E+02  0.84042996262E+02 0.  0.
         11    1    3    3    0    0 -0.10421557352E+02  0.27043083504E+02  0.76725960995E+01  0.29980092632E+02  0.51100000000E-03 0. -1.
         22    1    1    0    0    0 -0.83373916497E+01  0.30501706039E+02 -0.13152856234E+02  0.34247099117E+02  0.00000000000E+00 0.  1.
</event>
<event>
 5    1  0.3183396E-003  0.9118800E+02  0.7818608E-02  0.1130116E+00
         25   -1    0    0    0    0  0.00000000000E+00  0.00000000000E+00  0.99999998245E-14  0.12500000000E+03  0.12500000000E+03 0.  0.
        -11    1    3    3    0    0  0.36023035449E+02 -0.84583677401E+01 -0.16534831518E+02  0.40529047871E+02  0.51100000000E-03 0. -1.
         23    2    1    0    0    0 -0.84750379040E+00  0.28828215233E+02 -0.13772589966E+02  0.93039579312E+02  0.87377885235E+02 0.  0.
         11    1    3    3    0    0 -0.36870539239E+02  0.37286582973E+02  0.27622415526E+01  0.52510531441E+02  0.51100000000E-03 0.  1.
         22    1    1    0    0    0  0.84750379040E+00 -0.28828215233E+02  0.13772589966E+02  0.31960420688E+02  0.00000000000E+00 0.  1.
</event>
<event>
 5    1  0.3183396E-003  0.9118800E+02  0.7818608E-02  0.1130116E+00
         25   -1    0    0    0    0  0.00000000000E+00  0.00000000000E+00  0.99999998245E-14  0.12500000000E+03  0.12500000000E+03 0.  0.
        -11    1    3    3    0    0  0.37460025953E+02  0.47606334157E+01  0.26654398451E+02  0.46220927425E+02  0.51100000000E-03 0. -1.
         23    2    1    0    0    0  0.12057927427E+02  0.23780093076E+02 -0.11599432965E+02  0.95923664508E+02  0.91410700287E+02 0.  0.
         11    1    3    3    0    0 -0.25402098526E+02  0.19019459660E+02 -0.38253831416E+02  0.49702737083E+02  0.51100000000E-03 0.  1.
         22    1    1    0    0    0 -0.12057927427E+02 -0.23780093076E+02  0.11599432965E+02  0.29076335492E+02  0.00000000000E+00 0.  1.
</event>
<event>
 5    1  0.3183396E-003  0.9118800E+02  0.7818608E-02  0.1130116E+00
         25   -1    0    0    0    0  0.00000000000E+00  0.00000000000E+00  0.99999998245E-14  0.12500000000E+03  0.12500000000E+03 0.  0.
        -11    1    3    3    0    0  0.18507621783E+02 -0.57549350776E+02  0.11294900700E+01  0.60462679290E+02  0.51100000000E-03 0. -1.
         23    2    1    0    0    0  0.18469889251E+02 -0.23121926401E+02 -0.35020049199E+01  0.95200262955E+02  0.90416070136E+02 0.  0.
         11    1    3    3    0    0 -0.37732531950E-01  0.34427424375E+02 -0.46314949899E+01  0.34737583666E+02  0.51100000000E-03 0.  1.
         22    1    1    0    0    0 -0.18469889251E+02  0.23121926401E+02  0.35020049199E+01  0.29799737045E+02  0.00000000000E+00 0. -1.
</event>
<event>
 5    1  0.3183396E-003  0.9118800E+02  0.7818608E-02  0.1130116E+00
         25   -1    0    0    0    0  0.00000000000E+00  0.00000000000E+00  0.99999998245E-14  0.12500000000E+03  0.12500000000E+03 0.  0.
        -11    1    3    3    0    0  0.54582150772E+01 -0.45399551607E+01  0.61594184728E+02  0.62001991075E+02  0.51100000000E-03 0.  1.
         23    2    1    0    0    0  0.75436151149E+01  0.32476929949E+00  0.28499964100E+02  0.95516791935E+02  0.90852616824E+02 0.  0.
         11    1    3    3    0    0  0.20854000377E+01  0.48647244602E+01 -0.33094220628E+02  0.33514800860E+02  0.51100000000E-03 0. -1.
         22    1    1    0    0    0 -0.75436151149E+01 -0.32476929949E+00 -0.28499964100E+02  0.29483208065E+02  0.00000000000E+00 0.  1.
</event>
<event>
 5    1  0.3183396E-003  0.9118800E+02  0.7818608E-02  0.1130116E+00
         25   -1    0    0    0    0  0.00000000000E+00  0.00000000000E+00  0.99999998245E-14  0.12500000000E+03  0.12500000000E+03 0.  0.
        -11    1    3    3    0    0 -0.36830906102E+02  0.21512676353E+02  0.18878447237E+02  0.46644470825E+02  0.51100000000E-03 0. -1.
         23    2    1    0    0    0 -0.10197259583E+02 -0.17558960574E+02 -0.10324143367E+02  0.10222086183E+03  0.99650466421E+02 0.  0.
         11    1    3    3    0    0  0.26633646519E+02 -0.39071636927E+02 -0.29202590605E+02  0.55576391006E+02  0.51100000000E-03 0.  1.
         22    1    1    0    0    0  0.10197259583E+02  0.17558960574E+02  0.10324143367E+02  0.22779138169E+02  0.00000000000E+00 0. -1.
</event>
<event>
 5    1  0.3183396E-003  0.9118800E+02  0.7818608E-02  0.1130116E+00
         25   -1    0    0    0    0  0.00000000000E+00  0.00000000000E+00  0.99999998245E-14  0.12500000000E+03  0.12500000000E+03 0.  0.
        -11    1    3    3    0    0 -0.24328830073E+02  0.44819396299E+02 -0.17209486536E+02  0.53822269410E+02  0.51100000000E-03 0.  1.
         23    2    1    0    0    0 -0.50565585993E+01  0.25288506342E+02  0.14225219901E+02  0.95547763767E+02  0.90895219576E+02 0.  0.
         11    1    3    3    0    0  0.19272271474E+02 -0.19530889957E+02  0.31434706437E+02  0.41725494357E+02  0.51100000000E-03 0. -1.
         22    1    1    0    0    0  0.50565585993E+01 -0.25288506342E+02 -0.14225219901E+02  0.29452236233E+02  0.00000000000E+00 0.  1.
</event>
<event>
 5    1  0.3183396E-003  0.9118800E+02  0.7818608E-02  0.1130116E+00
         25   -1    0    0    0    0  0.00000000000E+00  0.00000000000E+00  0.99999998245E-14  0.12500000000E+03  0.12500000000E+03 0.  0.
        -11    1    3    3    0    0 -0.22803068198E+02 -0.24528211580E+02  0.16276205888E-01  0.33490496380E+02  0.51100000000E-03 0.  1.
         23    2    1    0    0    0  0.88633314344E+01  0.27166840633E+02 -0.95642605051E+01  0.94865784346E+02  0.89952465705E+02 0.  0.
         11    1    3    3    0    0  0.31666399633E+02  0.51695052213E+02 -0.95805367110E+01  0.61375287966E+02  0.51100000000E-03 0. -1.
         22    1    1    0    0    0 -0.88633314344E+01 -0.27166840633E+02  0.95642605051E+01  0.30134215654E+02  0.00000000000E+00 0. -1.
</event>
<event>
 5    1  0.3183396E-003  0.9118800E+02  0.7818608E-02  0.1130116E+00
         25   -1    0    0    0    0  0.00000000000E+00  0.00000000000E+00  0.99999998245E-14  0.12500000000E+03  0.12500000000E+03 0.  0.
        -11    1    3    3    0    0  0.16267644297E+02  0.14461203083E+02 -0.42347841796E+02  0.47614098234E+02  0.51100000000E-03 0.  1.
         23    2    1    0    0    0 -0.10596044331E+02 -0.18550245582E+02 -0.20227482028E+02  0.95579959283E+02  0.90939484388E+02 0.  0.
         11    1    3    3    0    0 -0.26863688628E+02 -0.33011448665E+02  0.22120359768E+02  0.47965861049E+02  0.51100000000E-03 0. -1.
         22    1    1    0    0    0  0.10596044331E+02  0.18550245582E+02  0.20227482028E+02  0.29420040717E+02  0.00000000000E+00 0. -1.
</event>
<event>
 5    1  0.3183396E-003  0.9118800E+02  0.7818608E-02  0.1130116E+00
         25   -1    0    0    0    0  0.00000000000E+00  0.00000000000E+00  0.99999998245E-14  0.12500000000E+03  0.12500000000E+03 0.  0.
        -11    1    3    3    0    0 -0.17880881139E+02  0.44599249319E+02 -0.17230151272E+02  0.51046028868E+02  0.51100000000E-03 0.  1.
         23    2    1    0    0    0 -0.23058142252E+02  0.10624079889E+02  0.12693948243E+02  0.96615403480E+02  0.92351777839E+02 0.  0.
         11    1    3    3    0    0 -0.51772611135E+01 -0.33975169430E+02  0.29924099515E+02  0.45569374611E+02  0.51100000000E-03 0. -1.
         22    1    1    0    0    0  0.23058142252E+02 -0.10624079889E+02 -0.12693948243E+02  0.28384596520E+02  0.00000000000E+00 0.  1.
</event>
<event>
 5    1  0.3183396E-003  0.9118800E+02  0.7818608E-02  0.1130116E+00
         25   -1    0    0    0    0  0.00000000000E+00  0.00000000000E+00  0.99999998245E-14  0.12500000000E+03  0.12500000000E+03 0.  0.
        -11    1    3    3    0    0 -0.55512459330E+02  0.19505102563E+02  0.10467001937E+02  0.59763201861E+02  0.51100000000E-03 0. -1.
         23    2    1    0    0    0 -0.19266450706E+02  0.14652498791E+02  0.14862829801E+02  0.96595853237E+02  0.92325312397E+02 0.  0.
         11    1    3    3    0    0  0.36246008624E+02 -0.48526037719E+01  0.43958278636E+01  0.36832651376E+02  0.51100000000E-03 0.  1.
         22    1    1    0    0    0  0.19266450706E+02 -0.14652498791E+02 -0.14862829801E+02  0.28404146763E+02  0.00000000000E+00 0. -1.
</event>
<event>
 5    1  0.3183396E-003  0.9118800E+02  0.7818608E-02  0.1130116E+00
         25   -1    0    0    0    0  0.00000000000E+00  0.00000000000E+00  0.99999998245E-14  0.12500000000E+03  0.12500000000E+03 0.  0.
        -11    1    3    3    0    0  0.35168840351E+02  0.72131739896E+01  0.28124520848E+02  0.45605546634E+02  0.51100000000E-03 0. -1.
         23    2    1    0    0    0 -0.15571469928E+02  0.93469158834E+01  0.21555150441E+02  0.96813832775E+02  0.92619966497E+02 0.  0.
         11    1    3    3    0    0 -0.50740310279E+02  0.21337418938E+01 -0.65693704068E+01  0.51208286141E+02  0.51100000000E-03 0.  1.
         22    1    1    0    0    0  0.15571469928E+02 -0.93469158834E+01 -0.21555150441E+02  0.28186167225E+02  0.00000000000E+00 0.  1.
</event>
<event>
 5    1  0.3183396E-003  0.9118800E+02  0.7818608E-02  0.1130116E+00
         25   -1    0    0    0    0  0.00000000000E+00  0.00000000000E+00  0.99999998245E-14  0.12500000000E+03  0.12500000000E+03 0.  0.
        -11    1    3    3    0    0  0.27828175072E+01  0.17425573020E+02  0.53373074507E+02  0.56214586638E+02  0.51100000000E-03 0.  1.
         23    2    1    0    0    0 -0.14566604920E+00 -0.12179750920E+02  0.24334115526E+02  0.97787562963E+02  0.93924920765E+02 0.  0.
         11    1    3    3    0    0 -0.29284835564E+01 -0.29605323940E+02 -0.29038958980E+02  0.41572976324E+02  0.51100000000E-03 0. -1.
         22    1    1    0    0    0  0.14566604920E+00  0.12179750920E+02 -0.24334115526E+02  0.27212437037E+02  0.00000000000E+00 0.  1.
</event>
<event>
 5    1  0.3183396E-003  0.9118800E+02  0.7818608E-02  0.1130116E+00
         25   -1    0    0    0    0  0.00000000000E+00  0.00000000000E+00  0.99999998245E-14  0.12500000000E+03  0.12500000000E+03 0.  0.
        -11    1    3    3    0    0  0.22462806300E+02  0.27393631942E+02 -0.73774238024E+01  0.36185841431E+02  0.51100000000E-03 0. -1.
         23    2    1    0    0    0  0.12986142343E+01 -0.23168586261E+02  0.17059147174E+02  0.96199231077E+02  0.91786751599E+02 0.  0.
         11    1    3    3    0    0 -0.21164192066E+02 -0.50562218203E+02  0.24436570977E+02  0.60013389646E+02  0.51100000000E-03 0.  1.
         22    1    1    0    0    0 -0.12986142343E+01  0.23168586261E+02 -0.17059147174E+02  0.28800768923E+02  0.00000000000E+00 0.  1.
</event>
<event>
 5    1  0.3183396E-003  0.9118800E+02  0.7818608E-02  0.1130116E+00
         25   -1    0    0    0    0  0.00000000000E+00  0.00000000000E+00  0.99999998245E-14  0.12500000000E+03  0.12500000000E+03 0.  0.
        -11    1    3    3    0    0 -0.32261351851E+02  0.12328072173E+02 -0.49675675446E+02  0.60501643928E+02  0.51100000000E-03 0.  1.
         23    2    1    0    0    0 -0.24257688498E+02  0.37143739687E+01 -0.17222469435E+02  0.95019248197E+02  0.90165470382E+02 0.  0.
         11    1    3    3    0    0  0.80036633535E+01 -0.86136982042E+01  0.32453206011E+02  0.34517604269E+02  0.51100000000E-03 0. -1.
         22    1    1    0    0    0  0.24257688498E+02 -0.37143739687E+01  0.17222469435E+02  0.29980751803E+02  0.00000000000E+00 0.  1.
</event>
<event>
 5    1  0.3183396E-003  0.9118800E+02  0.7818608E-02  0.1130116E+00
         25   -1    0    0    0    0  0.00000000000E+00  0.00000000000E+00  0.99999998245E-14  0.12500000000E+03  0.12500000000E+03 0.  0.
        -11    1    3    3    0    0  0.39078010597E+01  0.49652818284E+02 -0.25990020105E+02  0.56179661960E+02  0.51100000000E-03 0.  1.
         23    2    1    0    0    0 -0.16848837132E+02  0.18598623764E+02 -0.17269302454E+02  0.94536564116E+02  0.89493804416E+02 0.  0.
         11    1    3    3    0    0 -0.20756638192E+02 -0.31054194520E+02  0.87207176507E+01  0.38356902155E+02  0.51100000000E-03 0. -1.
         22    1    1    0    0    0  0.16848837132E+02 -0.18598623764E+02  0.17269302454E+02  0.30463435884E+02  0.00000000000E+00 0.  1.
</event>
<event>
 5    1  0.3183396E-003  0.9118800E+02  0.7818608E-02  0.1130116E+00
         25   -1    0    0    0    0  0.00000000000E+00  0.00000000000E+00  0.99999998245E-14  0.12500000000E+03  0.12500000000E+03 0.  0.
        -11    1    3    3    0    0  0.39518073398E+02  0.10765711868E+02 -0.47196931218E+01  0.41229287898E+02  0.51100000000E-03 0. -1.
         23    2    1    0    0    0 -0.11056048832E+02  0.25927992942E+02 -0.11689455431E+02  0.94485406736E+02  0.89422322068E+02 0.  0.
         11    1    3    3    0    0 -0.50574122231E+02  0.15162281075E+02 -0.69697623089E+01  0.53256118838E+02  0.51100000000E-03 0.  1.
         22    1    1    0    0    0  0.11056048832E+02 -0.25927992942E+02  0.11689455431E+02  0.30514593264E+02  0.00000000000E+00 0.  1.
</event>
<event>
 5    1  0.3183396E-003  0.9118800E+02  0.7818608E-02  0.1130116E+00
         25   -1    0    0    0    0  0.00000000000E+00  0.00000000000E+00  0.99999998245E-14  0.12500000000E+03  0.12500000000E+03 0.  0.
        -11    1    3    3    0    0 -0.81223797667E+01  0.50513937199E+02  0.24534115512E+02  0.56741111451E+02  0.51100000000E-03 0.  1.
         23    2    1    0    0    0 -0.20350839104E+02  0.14891059048E+02  0.15244540147E+02  0.95533132231E+02  0.90875095916E+02 0.  0.
         11    1    3    3    0    0 -0.12228459337E+02 -0.35622878151E+02 -0.92895753651E+01  0.38792020781E+02  0.51100000000E-03 0. -1.
         22    1    1    0    0    0  0.20350839104E+02 -0.14891059048E+02 -0.15244540147E+02  0.29466867769E+02  0.00000000000E+00 0.  1.
</event>
<event>
 5    1  0.3183396E-003  0.9118800E+02  0.7818608E-02  0.1130116E+00
         25   -1    0    0    0    0  0.00000000000E+00  0.00000000000E+00  0.99999998245E-14  0.12500000000E+03  0.12500000000E+03 0.  0.
        -11    1    3    3    0    0  0.50964510489E+02  0.73063079250E+01 -0.21888050036E+02  0.55945064121E+02  0.51100000000E-03 0.  1.
         23    2    1    0    0    0  0.16556233435E+02  0.22435406539E+02 -0.10244696313E+02  0.95294611016E+02  0.90546412155E+02 0.  0.
         11    1    3    3    0    0 -0.34408277054E+02  0.15129098614E+02  0.11643353723E+02  0.39349546895E+02  0.51100000000E-03 0. -1.
         22    1    1    0    0    0 -0.16556233435E+02 -0.22435406539E+02  0.10244696313E+02  0.29705388984E+02  0.00000000000E+00 0.  1.
</event>
<event>
 5    1  0.3183396E-003  0.9118800E+02  0.7818608E-02  0.1130116E+00
         25   -1    0    0    0    0  0.00000000000E+00  0.00000000000E+00  0.99999998245E-14  0.12500000000E+03  0.12500000000E+03 0.  0.
        -11    1    3    3    0    0 -0.44504902354E+02 -0.19234928994E+02  0.39185626527E+02  0.62339250505E+02  0.51100000000E-03 0.  1.
         23    2    1    0    0    0 -0.23571263341E+02 -0.12837010997E+02  0.18997949580E+02  0.92116639542E+02  0.86047428116E+02 0.  0.
         11    1    3    3    0    0  0.20933639014E+02  0.63979179975E+01 -0.20187676947E+02  0.29777389036E+02  0.51100000000E-03 0. -1.
         22    1    1    0    0    0  0.23571263341E+02  0.12837010997E+02 -0.18997949580E+02  0.32883360458E+02  0.00000000000E+00 0.  1.
</event>
<event>
 5    1  0.3183396E-003  0.9118800E+02  0.7818608E-02  0.1130116E+00
         25   -1    0    0    0    0  0.00000000000E+00  0.00000000000E+00  0.99999998245E-14  0.12500000000E+03  0.12500000000E+03 0.  0.
        -11    1    3    3    0    0 -0.35151760204E+02  0.32710670896E+02 -0.28878523758E+02  0.56032163715E+02  0.51100000000E-03 0.  1.
         23    2    1    0    0    0 -0.27383462609E+02  0.91285363973E+01  0.24786289402E+01  0.96028845335E+02  0.91554417336E+02 0.  0.
         11    1    3    3    0    0  0.77682975946E+01 -0.23582134499E+02  0.31357152698E+02  0.39996681620E+02  0.51100000000E-03 0. -1.
         22    1    1    0    0    0  0.27383462609E+02 -0.91285363973E+01 -0.24786289402E+01  0.28971154665E+02  0.00000000000E+00 0.  1.
</event>
<event>
 5    1  0.3183396E-003  0.9118800E+02  0.7818608E-02  0.1130116E+00
         25   -1    0    0    0    0  0.00000000000E+00  0.00000000000E+00  0.99999998245E-14  0.12500000000E+03  0.12500000000E+03 0.  0.
        -11    1    3    3    0    0  0.10119488443E+02 -0.56039979004E+02 -0.12707171517E+02  0.58346855111E+02  0.51100000000E-03 0.  1.
         23    2    1    0    0    0  0.19255701910E+02 -0.24396078135E+02  0.71219334699E+00  0.93912093931E+02  0.88617286590E+02 0.  0.
         11    1    3    3    0    0  0.91362134672E+01  0.31643900869E+02  0.13419364864E+02  0.35565238820E+02  0.51100000000E-03 0. -1.
         22    1    1    0    0    0 -0.19255701910E+02  0.24396078135E+02 -0.71219334699E+00  0.31087906069E+02  0.00000000000E+00 0.  1.
</event>
<event>
 5    1  0.3183396E-003  0.9118800E+02  0.7818608E-02  0.1130116E+00
         25   -1    0    0    0    0  0.00000000000E+00  0.00000000000E+00  0.99999998245E-14  0.12500000000E+03  0.12500000000E+03 0.  0.
        -11    1    3    3    0    0 -0.59897874654E+00  0.38114865147E+01  0.38760389699E+02  0.38951944943E+02  0.51100000000E-03 0.  1.
         23    2    1    0    0    0  0.36008199121E+02  0.85706289684E+00  0.53784699673E+01  0.88582244716E+02  0.80749991821E+02 0.  0.
         11    1    3    3    0    0  0.36607177867E+02 -0.29544236179E+01 -0.33381919731E+02  0.49630299773E+02  0.51100000000E-03 0. -1.
         22    1    1    0    0    0 -0.36008199121E+02 -0.85706289684E+00 -0.53784699673E+01  0.36417755284E+02  0.00000000000E+00 0. -1.
</event>
<event>
 5    1  0.3183396E-003  0.9118800E+02  0.7818608E-02  0.1130116E+00
         25   -1    0    0    0    0  0.00000000000E+00  0.00000000000E+00  0.99999998245E-14  0.12500000000E+03  0.12500000000E+03 0.  0.
        -11    1    3    3    0    0 -0.16984765034E+02  0.43937900774E+02  0.16075075798E+02  0.49773782555E+02  0.51100000000E-03 0.  1.
         23    2    1    0    0    0 -0.22399950467E+02  0.10146606040E+02 -0.15163526183E+02  0.96109795408E+02  0.91664872509E+02 0.  0.
         11    1    3    3    0    0 -0.54151854330E+01 -0.33791294735E+02 -0.31238601981E+02  0.46336012853E+02  0.51100000000E-03 0. -1.
         22    1    1    0    0    0  0.22399950467E+02 -0.10146606040E+02  0.15163526183E+02  0.28890204592E+02  0.00000000000E+00 0.  1.
</event>
<event>
 5    1  0.3183396E-003  0.9118800E+02  0.7818608E-02  0.1130116E+00
         25   -1    0    0    0    0  0.00000000000E+00  0.00000000000E+00  0.99999998245E-14  0.12500000000E+03  0.12500000000E+03 0.  0.
        -11    1    3    3    0    0 -0.13363427576E+01 -0.38480672794E+01  0.35079866539E+02  0.35315583959E+02  0.51100000000E-03 0.  1.
         23    2    1    0    0    0  0.17909115575E+02 -0.67581914439E+01 -0.22126536051E+02  0.95742639047E+02  0.91162820063E+02 0.  0.
         11    1    3    3    0    0  0.19245458333E+02 -0.29101241645E+01 -0.57206402590E+02  0.60427055088E+02  0.51100000000E-03 0. -1.
         22    1    1    0    0    0 -0.17909115575E+02  0.67581914439E+01  0.22126536051E+02  0.29257360953E+02  0.00000000000E+00 0. -1.
</event>
<event>
 5    1  0.3183396E-003  0.9118800E+02  0.7818608E-02  0.1130116E+00
         25   -1    0    0    0    0  0.00000000000E+00  0.00000000000E+00  0.99999998245E-14  0.12500000000E+03  0.12500000000E+03 0.  0.
        -11    1    3    3    0    0 -0.25429618565E+02 -0.16717619689E+02 -0.18060467495E+02  0.35388201351E+02  0.51100000000E-03 0.  1.
         23    2    1    0    0    0  0.12701782588E+02  0.24485658926E+02  0.64916087698E+01  0.96662326165E+02  0.92415266819E+02 0.  0.
         11    1    3    3    0    0  0.38131401153E+02  0.41203278616E+02  0.24552076265E+02  0.61274124814E+02  0.51100000000E-03 0. -1.
         22    1    1    0    0    0 -0.12701782588E+02 -0.24485658926E+02 -0.64916087698E+01  0.28337673835E+02  0.00000000000E+00 0. -1.
</event>
<event>
 5    1  0.3183396E-003  0.9118800E+02  0.7818608E-02  0.1130116E+00
         25   -1    0    0    0    0  0.00000000000E+00  0.00000000000E+00  0.99999998245E-14  0.12500000000E+03  0.12500000000E+03 0.  0.
        -11    1    3    3    0    0 -0.36430589090E+02 -0.35343491071E+02  0.27610088297E+02  0.57781200736E+02  0.51100000000E-03 0. -1.
         23    2    1    0    0    0 -0.21022639817E+02  0.16227071994E+01  0.11798521906E+02  0.10083825994E+03  0.97900791546E+02 0.  0.
         11    1    3    3    0    0  0.15407949273E+02  0.36966198270E+02 -0.15811566391E+02  0.43057059205E+02  0.51100000000E-03 0.  1.
         22    1    1    0    0    0  0.21022639817E+02 -0.16227071994E+01 -0.11798521906E+02  0.24161740059E+02  0.00000000000E+00 0. -1.
</event>
<event>
 5    1  0.3183396E-003  0.9118800E+02  0.7818608E-02  0.1130116E+00
         25   -1    0    0    0    0  0.00000000000E+00  0.00000000000E+00  0.99999998245E-14  0.12500000000E+03  0.12500000000E+03 0.  0.
        -11    1    3    3    0    0 -0.20597040001E+02  0.26452205291E+02 -0.81977099275E+01  0.34513181103E+02  0.51100000000E-03 0. -1.
         23    2    1    0    0    0  0.16139926379E+02 -0.39039637746E+01  0.26684033356E+02  0.93571099402E+02  0.88134980856E+02 0.  0.
         11    1    3    3    0    0  0.36736966379E+02 -0.30356169065E+02  0.34881743283E+02  0.59057918299E+02  0.51100000000E-03 0.  1.
         22    1    1    0    0    0 -0.16139926379E+02  0.39039637746E+01 -0.26684033356E+02  0.31428900598E+02  0.00000000000E+00 0.  1.
</event>
<event>
 5    1  0.3183396E-003  0.9118800E+02  0.7818608E-02  0.1130116E+00
         25   -1    0    0    0    0  0.00000000000E+00  0.00000000000E+00  0.99999998245E-14  0.12500000000E+03  0.12500000000E+03 0.  0.
        -11    1    3    3    0    0  0.18553637833E+02  0.26136460190E+02  0.32959214256E+02  0.45974578113E+02  0.51100000000E-03 0. -1.
         23    2    1    0    0    0  0.28495901363E+02  0.59083613813E+01 -0.97847292316E+01  0.94297132791E+02  0.89158752783E+02 0.  0.
         11    1    3    3    0    0  0.99422635302E+01 -0.20228098808E+02 -0.42743943487E+02  0.48322554678E+02  0.51100000000E-03 0.  1.
         22    1    1    0    0    0 -0.28495901363E+02 -0.59083613813E+01  0.97847292316E+01  0.30702867209E+02  0.00000000000E+00 0.  1.
</event>
<event>
 5    1  0.3183396E-003  0.9118800E+02  0.7818608E-02  0.1130116E+00
         25   -1    0    0    0    0  0.00000000000E+00  0.00000000000E+00  0.99999998245E-14  0.12500000000E+03  0.12500000000E+03 0.  0.
        -11    1    3    3    0    0  0.39619396626E+02  0.41259176712E+02 -0.70457990481E+01  0.57633840202E+02  0.51100000000E-03 0.  1.
         23    2    1    0    0    0  0.15343701591E+02  0.16410031434E+02 -0.20208122887E+02  0.94782678133E+02  0.89836905185E+02 0.  0.
         11    1    3    3    0    0 -0.24275695035E+02 -0.24849145278E+02 -0.13162323839E+02  0.37148837931E+02  0.51100000000E-03 0. -1.
         22    1    1    0    0    0 -0.15343701591E+02 -0.16410031434E+02  0.20208122887E+02  0.30217321867E+02  0.00000000000E+00 0.  1.
</event>
<event>
 5    1  0.3183396E-003  0.9118800E+02  0.7818608E-02  0.1130116E+00
         25   -1    0    0    0    0  0.00000000000E+00  0.00000000000E+00  0.99999998245E-14  0.12500000000E+03  0.12500000000E+03 0.  0.
        -11    1    3    3    0    0 -0.30472769281E+02  0.18347475497E+02 -0.33865629514E+01  0.35730775721E+02  0.51100000000E-03 0. -1.
         23    2    1    0    0    0  0.11788492483E+02 -0.25627295010E+02 -0.58108606783E+00  0.96785385603E+02  0.92581566204E+02 0.  0.
         11    1    3    3    0    0  0.42261261764E+02 -0.43974770507E+02  0.28054768835E+01  0.61054609882E+02  0.51100000000E-03 0.  1.
         22    1    1    0    0    0 -0.11788492483E+02  0.25627295010E+02  0.58108606783E+00  0.28214614397E+02  0.00000000000E+00 0.  1.
</event>
<event>
 5    1  0.3183396E-003  0.9118800E+02  0.7818608E-02  0.1130116E+00
         25   -1    0    0    0    0  0.00000000000E+00  0.00000000000E+00  0.99999998245E-14  0.12500000000E+03  0.12500000000E+03 0.  0.
        -11    1    3    3    0    0 -0.29164418169E+02  0.17152876399E+02 -0.12096406085E+02  0.35931984308E+02  0.51100000000E-03 0.  1.
         23    2    1    0    0    0  0.90248308249E+01 -0.22709508650E+02  0.13830318193E+02  0.96920700581E+02  0.92764083272E+02 0.  0.
         11    1    3    3    0    0  0.38189248994E+02 -0.39862385049E+02  0.25926724279E+02  0.60988716273E+02  0.51100000000E-03 0. -1.
         22    1    1    0    0    0 -0.90248308249E+01  0.22709508650E+02 -0.13830318193E+02  0.28079299419E+02  0.00000000000E+00 0. -1.
</event>
<event>
 5    1  0.3183396E-003  0.9118800E+02  0.7818608E-02  0.1130116E+00
         25   -1    0    0    0    0  0.00000000000E+00  0.00000000000E+00  0.99999998245E-14  0.12500000000E+03  0.12500000000E+03 0.  0.
        -11    1    3    3    0    0 -0.70923017605E+01 -0.33099930965E+02 -0.46656723693E+02  0.57643352090E+02  0.51100000000E-03 0.  1.
         23    2    1    0    0    0 -0.15082665784E+02 -0.23494197434E+01 -0.23576445090E+02  0.96913431264E+02  0.92754287318E+02 0.  0.
         11    1    3    3    0    0 -0.79903640238E+01  0.30750511222E+02  0.23080278603E+02  0.39270079173E+02  0.51100000000E-03 0. -1.
         22    1    1    0    0    0  0.15082665784E+02  0.23494197434E+01  0.23576445090E+02  0.28086568736E+02  0.00000000000E+00 0.  1.
</event>
<event>
 5    1  0.3183396E-003  0.9118800E+02  0.7818608E-02  0.1130116E+00
         25   -1    0    0    0    0  0.00000000000E+00  0.00000000000E+00  0.99999998245E-14  0.12500000000E+03  0.12500000000E+03 0.  0.
        -11    1    3    3    0    0 -0.15186864997E+02 -0.32796181982E+02  0.24979674434E+01  0.36228031449E+02  0.51100000000E-03 0. -1.
         23    2    1    0    0    0  0.16729169904E+02  0.14152703391E+02 -0.18058365106E+02  0.96605129174E+02  0.92337870310E+02 0.  0.
         11    1    3    3    0    0  0.31916034901E+02  0.46948885373E+02 -0.20556332549E+02  0.60377097725E+02  0.51100000000E-03 0.  1.
         22    1    1    0    0    0 -0.16729169904E+02 -0.14152703391E+02  0.18058365106E+02  0.28394870826E+02  0.00000000000E+00 0.  1.
</event>
<event>
 5    1  0.3183396E-003  0.9118800E+02  0.7818608E-02  0.1130116E+00
         25   -1    0    0    0    0  0.00000000000E+00  0.00000000000E+00  0.99999998245E-14  0.12500000000E+03  0.12500000000E+03 0.  0.
        -11    1    3    3    0    0 -0.36800563647E+02 -0.20108546774E+02  0.35749551878E+02  0.55105948842E+02  0.51100000000E-03 0. -1.
         23    2    1    0    0    0  0.14898512815E+01 -0.31102277668E+01  0.26843297472E+02  0.97936079501E+02  0.94122366499E+02 0.  0.
         11    1    3    3    0    0  0.38290414928E+02  0.16998319008E+02 -0.89062544062E+01  0.42830130659E+02  0.51100000000E-03 0.  1.
         22    1    1    0    0    0 -0.14898512815E+01  0.31102277668E+01 -0.26843297472E+02  0.27063920499E+02  0.00000000000E+00 0. -1.
</event>
<event>
 5    1  0.3183396E-003  0.9118800E+02  0.7818608E-02  0.1130116E+00
         25   -1    0    0    0    0  0.00000000000E+00  0.00000000000E+00  0.99999998245E-14  0.12500000000E+03  0.12500000000E+03 0.  0.
        -11    1    3    3    0    0  0.43982083057E+01 -0.13792278989E+02  0.36260202210E+02  0.39043225540E+02  0.51100000000E-03 0.  1.
         23    2    1    0    0    0 -0.24871003413E+02 -0.72108905683E+01 -0.12463010120E+02  0.96261691511E+02  0.91871774108E+02 0.  0.
         11    1    3    3    0    0 -0.29269211719E+02  0.65813884205E+01 -0.48723212329E+02  0.57218465971E+02  0.51100000000E-03 0. -1.
         22    1    1    0    0    0  0.24871003413E+02  0.72108905683E+01  0.12463010120E+02  0.28738308489E+02  0.00000000000E+00 0. -1.
</event>
<event>
 5    1  0.3183396E-003  0.9118800E+02  0.7818608E-02  0.1130116E+00
         25   -1    0    0    0    0  0.00000000000E+00  0.00000000000E+00  0.99999998245E-14  0.12500000000E+03  0.12500000000E+03 0.  0.
        -11    1    3    3    0    0 -0.25381653898E+01 -0.39692965302E+02 -0.10129486032E+01  0.39786930557E+02  0.51100000000E-03 0. -1.
         23    2    1    0    0    0  0.23632502793E+02  0.69050444539E+01  0.15719373807E+02  0.95789153725E+02  0.91226577440E+02 0.  0.
         11    1    3    3    0    0  0.26170668183E+02  0.46598009756E+02  0.16732322410E+02  0.56002223169E+02  0.51100000000E-03 0.  1.
         22    1    1    0    0    0 -0.23632502793E+02 -0.69050444539E+01 -0.15719373807E+02  0.29210846275E+02  0.00000000000E+00 0.  1.
</event>
<event>
 5    1  0.3183396E-003  0.9118800E+02  0.7818608E-02  0.1130116E+00
         25   -1    0    0    0    0  0.00000000000E+00  0.00000000000E+00  0.99999998245E-14  0.12500000000E+03  0.12500000000E+03 0.  0.
        -11    1    3    3    0    0  0.16725061701E+02 -0.37741904217E+02 -0.44638627529E+02  0.60801201393E+02  0.51100000000E-03 0. -1.
         23    2    1    0    0    0 -0.76599070520E+00 -0.10563961128E+02 -0.22949789730E+02  0.99723986368E+02  0.96467593481E+02 0.  0.
         11    1    3    3    0    0 -0.17491052406E+02  0.27177943090E+02  0.21688837800E+02  0.38922784975E+02  0.51100000000E-03 0.  1.
         22    1    1    0    0    0  0.76599070520E+00  0.10563961128E+02  0.22949789730E+02  0.25276013632E+02  0.00000000000E+00 0. -1.
</event>
<event>
 5    1  0.3183396E-003  0.9118800E+02  0.7818608E-02  0.1130116E+00
         25   -1    0    0    0    0  0.00000000000E+00  0.00000000000E+00  0.99999998245E-14  0.12500000000E+03  0.12500000000E+03 0.  0.
        -11    1    3    3    0    0 -0.34134106291E+01  0.31397623210E+02  0.49166455735E+02  0.58436311358E+02  0.51100000000E-03 0.  1.
         23    2    1    0    0    0  0.14149575729E+02  0.15826972325E+02  0.20472148675E+02  0.95507417582E+02  0.90839718161E+02 0.  0.
         11    1    3    3    0    0  0.17562986358E+02 -0.15570650885E+02 -0.28694307059E+02  0.37071106224E+02  0.51100000000E-03 0. -1.
         22    1    1    0    0    0 -0.14149575729E+02 -0.15826972325E+02 -0.20472148675E+02  0.29492582418E+02  0.00000000000E+00 0.  1.
</event>
<event>
 5    1  0.3183396E-003  0.9118800E+02  0.7818608E-02  0.1130116E+00
         25   -1    0    0    0    0  0.00000000000E+00  0.00000000000E+00  0.99999998245E-14  0.12500000000E+03  0.12500000000E+03 0.  0.
        -11    1    3    3    0    0  0.22063256502E+02 -0.50908791743E+02  0.53272942955E+01  0.55739325696E+02  0.51100000000E-03 0.  1.
         23    2    1    0    0    0 -0.37825721366E+01 -0.27724600892E+02 -0.12012671653E+02  0.94548963452E+02  0.89511121449E+02 0.  0.
         11    1    3    3    0    0 -0.25845828639E+02  0.23184190851E+02 -0.17339965948E+02  0.38809637757E+02  0.51100000000E-03 0. -1.
         22    1    1    0    0    0  0.37825721366E+01  0.27724600892E+02  0.12012671653E+02  0.30451036548E+02  0.00000000000E+00 0. -1.
</event>
<event>
 5    1  0.3183396E-003  0.9118800E+02  0.7818608E-02  0.1130116E+00
         25   -1    0    0    0    0  0.00000000000E+00  0.00000000000E+00  0.99999998245E-14  0.12500000000E+03  0.12500000000E+03 0.  0.
        -11    1    3    3    0    0 -0.45952033105E+02 -0.59111431624E+01 -0.16539905659E+02  0.49194506191E+02  0.51100000000E-03 0.  1.
         23    2    1    0    0    0 -0.22746605938E+02  0.16472783246E+02  0.14013171945E+02  0.93613224799E+02  0.88194706188E+02 0.  0.
         11    1    3    3    0    0  0.23205427166E+02  0.22383926409E+02  0.30553077603E+02  0.44418718608E+02  0.51100000000E-03 0. -1.
         22    1    1    0    0    0  0.22746605938E+02 -0.16472783246E+02 -0.14013171945E+02  0.31386775201E+02  0.00000000000E+00 0.  1.
</event>
<event>
 5    1  0.3183396E-003  0.9118800E+02  0.7818608E-02  0.1130116E+00
         25   -1    0    0    0    0  0.00000000000E+00  0.00000000000E+00  0.99999998245E-14  0.12500000000E+03  0.12500000000E+03 0.  0.
        -11    1    3    3    0    0 -0.33800929536E+02  0.18116513725E+02  0.16754054112E+02  0.41849841535E+02  0.51100000000E-03 0.  1.
         23    2    1    0    0    0 -0.17595969669E+01 -0.26001880291E+02  0.11117654142E+02  0.96666341681E+02  0.92420698007E+02 0.  0.
         11    1    3    3    0    0  0.32041332569E+02 -0.44118394016E+02 -0.56363999706E+01  0.54816500146E+02  0.51100000000E-03 0. -1.
         22    1    1    0    0    0  0.17595969669E+01  0.26001880291E+02 -0.11117654142E+02  0.28333658319E+02  0.00000000000E+00 0. -1.
</event>
<event>
 5    1  0.3183396E-003  0.9118800E+02  0.7818608E-02  0.1130116E+00
         25   -1    0    0    0    0  0.00000000000E+00  0.00000000000E+00  0.99999998245E-14  0.12500000000E+03  0.12500000000E+03 0.  0.
        -11    1    3    3    0    0 -0.27787986887E+02  0.97618894543E+01  0.23071688774E+02  0.37413493878E+02  0.51100000000E-03 0. -1.
         23    2    1    0    0    0  0.29082209566E+01 -0.22909455265E+02 -0.16020747439E+02  0.96893679747E+02  0.92727665434E+02 0.  0.
         11    1    3    3    0    0  0.30696207844E+02 -0.32671344719E+02 -0.39092436213E+02  0.59480185870E+02  0.51100000000E-03 0.  1.
         22    1    1    0    0    0 -0.29082209566E+01  0.22909455265E+02  0.16020747439E+02  0.28106320253E+02  0.00000000000E+00 0.  1.
</event>
<event>
 5    1  0.3183396E-003  0.9118800E+02  0.7818608E-02  0.1130116E+00
         25   -1    0    0    0    0  0.00000000000E+00  0.00000000000E+00  0.99999998245E-14  0.12500000000E+03  0.12500000000E+03 0.  0.
        -11    1    3    3    0    0 -0.11491417750E+02 -0.31097332942E+02  0.12738596400E+02  0.35515751949E+02  0.51100000000E-03 0. -1.
         23    2    1    0    0    0  0.63907026761E+01  0.26723325780E+02  0.87239198209E+01  0.96171472489E+02  0.91748940714E+02 0.  0.
         11    1    3    3    0    0  0.17882120427E+02  0.57820658721E+02 -0.40146765793E+01  0.60655720540E+02  0.51100000000E-03 0.  1.
         22    1    1    0    0    0 -0.63907026761E+01 -0.26723325780E+02 -0.87239198209E+01  0.28828527511E+02  0.00000000000E+00 0.  1.
</event>
<event>
 5    1  0.3183396E-003  0.9118800E+02  0.7818608E-02  0.1130116E+00
         25   -1    0    0    0    0  0.00000000000E+00  0.00000000000E+00  0.99999998245E-14  0.12500000000E+03  0.12500000000E+03 0.  0.
        -11    1    3    3    0    0  0.38764491670E+02  0.28038341916E+02 -0.15034404298E+02  0.50148457052E+02  0.51100000000E-03 0. -1.
         23    2    1    0    0    0  0.67871489266E+01  0.23192190914E+02  0.16830817780E+02  0.95551408572E+02  0.90900231810E+02 0.  0.
         11    1    3    3    0    0 -0.31977342744E+02 -0.48461510021E+01  0.31865222077E+02  0.45402951521E+02  0.51100000000E-03 0.  1.
         22    1    1    0    0    0 -0.67871489266E+01 -0.23192190914E+02 -0.16830817780E+02  0.29448591428E+02  0.00000000000E+00 0. -1.
</event>
<event>
 5    1  0.3183396E-003  0.9118800E+02  0.7818608E-02  0.1130116E+00
         25   -1    0    0    0    0  0.00000000000E+00  0.00000000000E+00  0.99999998245E-14  0.12500000000E+03  0.12500000000E+03 0.  0.
        -11    1    3    3    0    0  0.18653915578E+01  0.32676550789E+02 -0.18229751430E+02  0.37464122765E+02  0.51100000000E-03 0. -1.
         23    2    1    0    0    0 -0.98122945444E+01 -0.24515095150E+02 -0.11415607741E+02  0.96232186136E+02  0.91831620556E+02 0.  0.
         11    1    3    3    0    0 -0.11677686102E+02 -0.57191645938E+02  0.68141436890E+01  0.58768063370E+02  0.51100000000E-03 0.  1.
         22    1    1    0    0    0  0.98122945444E+01  0.24515095150E+02  0.11415607741E+02  0.28767813864E+02  0.00000000000E+00 0.  1.
</event>
<event>
 5    1  0.3183396E-003  0.9118800E+02  0.7818608E-02  0.1130116E+00
         25   -1    0    0    0    0  0.00000000000E+00  0.00000000000E+00  0.99999998245E-14  0.12500000000E+03  0.12500000000E+03 0.  0.
        -11    1    3    3    0    0 -0.38201413641E+02  0.21572866765E+02 -0.40609051664E+01  0.44059363768E+02  0.51100000000E-03 0. -1.
         23    2    1    0    0    0  0.22852659895E+01  0.27674218045E+02  0.19285351169E+02  0.91191575684E+02  0.84692939026E+02 0.  0.
         11    1    3    3    0    0  0.40486679630E+02  0.61013512801E+01  0.23346256335E+02  0.47132211916E+02  0.51100000000E-03 0.  1.
         22    1    1    0    0    0 -0.22852659895E+01 -0.27674218045E+02 -0.19285351169E+02  0.33808424316E+02  0.00000000000E+00 0. -1.
</event>
<event>
 5    1  0.3183396E-003  0.9118800E+02  0.7818608E-02  0.1130116E+00
         25   -1    0    0    0    0  0.00000000000E+00  0.00000000000E+00  0.99999998245E-14  0.12500000000E+03  0.12500000000E+03 0.  0.
        -11    1    3    3    0    0  0.80255246328E+01  0.24714081735E+00 -0.41260026218E+02  0.42034032498E+02  0.51100000000E-03 0. -1.
         23    2    1    0    0    0  0.19008338335E+02  0.19410768499E+02  0.85473456300E+01  0.96519270071E+02  0.92221567530E+02 0.  0.
         11    1    3    3    0    0  0.10982813703E+02  0.19163627681E+02  0.49807371848E+02  0.54485237573E+02  0.51100000000E-03 0.  1.
         22    1    1    0    0    0 -0.19008338335E+02 -0.19410768499E+02 -0.85473456300E+01  0.28480729929E+02  0.00000000000E+00 0. -1.
</event>
<event>
 5    1  0.3183396E-003  0.9118800E+02  0.7818608E-02  0.1130116E+00
         25   -1    0    0    0    0  0.00000000000E+00  0.00000000000E+00  0.99999998245E-14  0.12500000000E+03  0.12500000000E+03 0.  0.
        -11    1    3    3    0    0 -0.11375713502E+01  0.35010482183E+02  0.11471069652E+02  0.36859372898E+02  0.51100000000E-03 0. -1.
         23    2    1    0    0    0 -0.19381590976E+02 -0.18550954467E+02 -0.84893385823E+01  0.96860119937E+02  0.92682414644E+02 0.  0.
         11    1    3    3    0    0 -0.18244019625E+02 -0.53561436650E+02 -0.19960408234E+02  0.60000747039E+02  0.51100000000E-03 0.  1.
         22    1    1    0    0    0  0.19381590976E+02  0.18550954467E+02  0.84893385823E+01  0.28139880063E+02  0.00000000000E+00 0.  1.
</event>
<event>
 5    1  0.3183396E-003  0.9118800E+02  0.7818608E-02  0.1130116E+00
         25   -1    0    0    0    0  0.00000000000E+00  0.00000000000E+00  0.99999998245E-14  0.12500000000E+03  0.12500000000E+03 0.  0.
        -11    1    3    3    0    0 -0.88143609678E+01 -0.32881151752E+02  0.14140583301E+02  0.36862164833E+02  0.51100000000E-03 0.  1.
         23    2    1    0    0    0 -0.15840153565E+02  0.20091321067E+02 -0.12447854256E+02  0.96547922347E+02  0.92260395549E+02 0.  0.
         11    1    3    3    0    0 -0.70257925971E+01  0.52972472819E+02 -0.26588437557E+02  0.59685757515E+02  0.51100000000E-03 0. -1.
         22    1    1    0    0    0  0.15840153565E+02 -0.20091321067E+02  0.12447854256E+02  0.28452077653E+02  0.00000000000E+00 0. -1.
</event>
<event>
 5    1  0.3183396E-003  0.9118800E+02  0.7818608E-02  0.1130116E+00
         25   -1    0    0    0    0  0.00000000000E+00  0.00000000000E+00  0.99999998245E-14  0.12500000000E+03  0.12500000000E+03 0.  0.
        -11    1    3    3    0    0 -0.36300940995E+02  0.51029181486E+01 -0.97676535456E+01  0.37936857366E+02  0.51100000000E-03 0.  1.
         23    2    1    0    0    0 -0.11238456790E+01 -0.94683379969E+01  0.30314762313E+02  0.93221119157E+02  0.87637205508E+02 0.  0.
         11    1    3    3    0    0  0.35177095316E+02 -0.14571256145E+02  0.40082415858E+02  0.55284261791E+02  0.51100000000E-03 0. -1.
         22    1    1    0    0    0  0.11238456790E+01  0.94683379969E+01 -0.30314762313E+02  0.31778880843E+02  0.00000000000E+00 0. -1.
</event>
<event>
 5    1  0.3183396E-003  0.9118800E+02  0.7818608E-02  0.1130116E+00
         25   -1    0    0    0    0  0.00000000000E+00  0.00000000000E+00  0.99999998245E-14  0.12500000000E+03  0.12500000000E+03 0.  0.
        -11    1    3    3    0    0 -0.17129522183E+02  0.35561580991E+02  0.24122690771E+02  0.46259602064E+02  0.51100000000E-03 0. -1.
         23    2    1    0    0    0  0.19839741524E+02  0.21675137173E+02 -0.48226081033E+01  0.95222752576E+02  0.90447156639E+02 0.  0.
         11    1    3    3    0    0  0.36969263707E+02 -0.13886443818E+02 -0.28945298874E+02  0.48963150513E+02  0.51100000000E-03 0.  1.
         22    1    1    0    0    0 -0.19839741524E+02 -0.21675137173E+02  0.48226081033E+01  0.29777247424E+02  0.00000000000E+00 0.  1.
</event>
<event>
 5    1  0.3183396E-003  0.9118800E+02  0.7818608E-02  0.1130116E+00
         25   -1    0    0    0    0  0.00000000000E+00  0.00000000000E+00  0.99999998245E-14  0.12500000000E+03  0.12500000000E+03 0.  0.
        -11    1    3    3    0    0 -0.22939602979E+02 -0.42075387503E+02 -0.20137202359E+02  0.51981444165E+02  0.51100000000E-03 0. -1.
         23    2    1    0    0    0 -0.31038390894E+02 -0.46759231902E+01 -0.46244979080E+01  0.93272536378E+02  0.87710513022E+02 0.  0.
         11    1    3    3    0    0 -0.80987879146E+01  0.37399464312E+02  0.15512704451E+02  0.41291092214E+02  0.51100000000E-03 0.  1.
         22    1    1    0    0    0  0.31038390894E+02  0.46759231902E+01  0.46244979080E+01  0.31727463622E+02  0.00000000000E+00 0.  1.
</event>
<event>
 5    1  0.3183396E-003  0.9118800E+02  0.7818608E-02  0.1130116E+00
         25   -1    0    0    0    0  0.00000000000E+00  0.00000000000E+00  0.99999998245E-14  0.12500000000E+03  0.12500000000E+03 0.  0.
        -11    1    3    3    0    0 -0.27632015635E+02 -0.23216878157E+02 -0.58243590414E+01  0.36557829229E+02  0.51100000000E-03 0.  1.
         23    2    1    0    0    0  0.26860004638E+02 -0.15652660951E+02  0.71913226586E+01  0.93091055085E+02  0.87451493820E+02 0.  0.
         11    1    3    3    0    0  0.54492020273E+02  0.75642172062E+01  0.13015681700E+02  0.56533225857E+02  0.51100000000E-03 0. -1.
         22    1    1    0    0    0 -0.26860004638E+02  0.15652660951E+02 -0.71913226586E+01  0.31908944915E+02  0.00000000000E+00 0. -1.
</event>
<event>
 5    1  0.3183396E-003  0.9118800E+02  0.7818608E-02  0.1130116E+00
         25   -1    0    0    0    0  0.00000000000E+00  0.00000000000E+00  0.99999998245E-14  0.12500000000E+03  0.12500000000E+03 0.  0.
        -11    1    3    3    0    0 -0.10719096290E+02  0.32087643672E+02 -0.13000759780E+02  0.36242732469E+02  0.51100000000E-03 0.  1.
         23    2    1    0    0    0  0.82978076106E+01 -0.22716500770E+02 -0.18554578739E+02  0.94517785341E+02  0.89467571416E+02 0.  0.
         11    1    3    3    0    0  0.19016903901E+02 -0.54804144441E+02 -0.55538189590E+01  0.58275052872E+02  0.51100000000E-03 0. -1.
         22    1    1    0    0    0 -0.82978076106E+01  0.22716500770E+02  0.18554578739E+02  0.30482214659E+02  0.00000000000E+00 0. -1.
</event>
<event>
 5    1  0.3183396E-003  0.9118800E+02  0.7818608E-02  0.1130116E+00
         25   -1    0    0    0    0  0.00000000000E+00  0.00000000000E+00  0.99999998245E-14  0.12500000000E+03  0.12500000000E+03 0.  0.
        -11    1    3    3    0    0  0.12073223132E+02  0.45659702656E+02  0.99710883796E+01  0.48270008983E+02  0.51100000000E-03 0. -1.
         23    2    1    0    0    0 -0.66354196818E+01  0.85816457883E+01  0.29062777691E+02  0.93978741388E+02  0.88711247015E+02 0.  0.
         11    1    3    3    0    0 -0.18708642814E+02 -0.37078056868E+02  0.19091689311E+02  0.45708732405E+02  0.51100000000E-03 0.  1.
         22    1    1    0    0    0  0.66354196818E+01 -0.85816457883E+01 -0.29062777691E+02  0.31021258612E+02  0.00000000000E+00 0.  1.
</event>
<event>
 5    1  0.3183396E-003  0.9118800E+02  0.7818608E-02  0.1130116E+00
         25   -1    0    0    0    0  0.00000000000E+00  0.00000000000E+00  0.99999998245E-14  0.12500000000E+03  0.12500000000E+03 0.  0.
        -11    1    3    3    0    0  0.28585985275E+02  0.44087661357E+02 -0.94047710852E+01  0.53379117241E+02  0.51100000000E-03 0. -1.
         23    2    1    0    0    0  0.40694198560E+01  0.21583463867E+02  0.18088907142E+02  0.96546271737E+02  0.92258159175E+02 0.  0.
         11    1    3    3    0    0 -0.24516565419E+02 -0.22504197490E+02  0.27493678227E+02  0.43167154496E+02  0.51100000000E-03 0.  1.
         22    1    1    0    0    0 -0.40694198560E+01 -0.21583463867E+02 -0.18088907142E+02  0.28453728263E+02  0.00000000000E+00 0. -1.
</event>
<event>
 5    1  0.3183396E-003  0.9118800E+02  0.7818608E-02  0.1130116E+00
         25   -1    0    0    0    0  0.00000000000E+00  0.00000000000E+00  0.99999998245E-14  0.12500000000E+03  0.12500000000E+03 0.  0.
        -11    1    3    3    0    0 -0.38282709940E+02 -0.13602897423E+01  0.32669469746E+02  0.50345908695E+02  0.51100000000E-03 0.  1.
         23    2    1    0    0    0 -0.18178928135E+02 -0.22486612049E+02 -0.24328934721E+01  0.95982072434E+02  0.91490535623E+02 0.  0.
         11    1    3    3    0    0  0.20103781805E+02 -0.21126322306E+02 -0.35102363218E+02  0.45636163739E+02  0.51100000000E-03 0. -1.
         22    1    1    0    0    0  0.18178928135E+02  0.22486612049E+02  0.24328934721E+01  0.29017927566E+02  0.00000000000E+00 0. -1.
</event>
<event>
 5    1  0.3183396E-003  0.9118800E+02  0.7818608E-02  0.1130116E+00
         25   -1    0    0    0    0  0.00000000000E+00  0.00000000000E+00  0.99999998245E-14  0.12500000000E+03  0.12500000000E+03 0.  0.
        -11    1    3    3    0    0 -0.31926706168E+02 -0.31741860059E+02 -0.22618510150E+02  0.50383104791E+02  0.51100000000E-03 0. -1.
         23    2    1    0    0    0 -0.25490584384E+02 -0.40543781203E+01  0.13118455601E+02  0.96046558899E+02  0.91578598618E+02 0.  0.
         11    1    3    3    0    0  0.64361217837E+01  0.27687481939E+02  0.35736965751E+02  0.45663454108E+02  0.51100000000E-03 0.  1.
         22    1    1    0    0    0  0.25490584384E+02  0.40543781203E+01 -0.13118455601E+02  0.28953441101E+02  0.00000000000E+00 0. -1.
</event>
<event>
 5    1  0.3183396E-003  0.9118800E+02  0.7818608E-02  0.1130116E+00
         25   -1    0    0    0    0  0.00000000000E+00  0.00000000000E+00  0.99999998245E-14  0.12500000000E+03  0.12500000000E+03 0.  0.
        -11    1    3    3    0    0 -0.11683169464E+02 -0.25734269161E+02  0.21850360394E+02  0.35723763906E+02  0.51100000000E-03 0.  1.
         23    2    1    0    0    0 -0.37971087296E+01  0.29265014832E+02 -0.16772922869E+00  0.95489200945E+02  0.90814647696E+02 0.  0.
         11    1    3    3    0    0  0.78860607339E+01  0.54999283992E+02 -0.22018089623E+02  0.59765437039E+02  0.51100000000E-03 0. -1.
         22    1    1    0    0    0  0.37971087296E+01 -0.29265014832E+02  0.16772922869E+00  0.29510799055E+02  0.00000000000E+00 0. -1.
</event>
<event>
 5    1  0.3183396E-003  0.9118800E+02  0.7818608E-02  0.1130116E+00
         25   -1    0    0    0    0  0.00000000000E+00  0.00000000000E+00  0.99999998245E-14  0.12500000000E+03  0.12500000000E+03 0.  0.
        -11    1    3    3    0    0 -0.36423696493E+02 -0.11838032163E+01 -0.48455699980E+02  0.60630371244E+02  0.51100000000E-03 0. -1.
         23    2    1    0    0    0 -0.24538604814E+02 -0.22793968488E+01 -0.15003857251E+02  0.96147712247E+02  0.91716563726E+02 0.  0.
         11    1    3    3    0    0  0.11885091680E+02 -0.10955936324E+01  0.33451842730E+02  0.35517341003E+02  0.51100000000E-03 0.  1.
         22    1    1    0    0    0  0.24538604814E+02  0.22793968488E+01  0.15003857251E+02  0.28852287753E+02  0.00000000000E+00 0. -1.
</event>
<event>
 5    1  0.3183396E-003  0.9118800E+02  0.7818608E-02  0.1130116E+00
         25   -1    0    0    0    0  0.00000000000E+00  0.00000000000E+00  0.99999998245E-14  0.12500000000E+03  0.12500000000E+03 0.  0.
        -11    1    3    3    0    0  0.28408879588E+02  0.50846486669E+01  0.15944460958E+02  0.32971865689E+02  0.51100000000E-03 0. -1.
         23    2    1    0    0    0 -0.12971256886E+02 -0.20436454411E+02 -0.20135481525E+02  0.93514451088E+02  0.88054601083E+02 0.  0.
         11    1    3    3    0    0 -0.41380136474E+02 -0.25521103078E+02 -0.36079942483E+02  0.60542585398E+02  0.51100000000E-03 0.  1.
         22    1    1    0    0    0  0.12971256886E+02  0.20436454411E+02  0.20135481525E+02  0.31485548912E+02  0.00000000000E+00 0.  1.
</event>
<event>
 5    1  0.3183396E-003  0.9118800E+02  0.7818608E-02  0.1130116E+00
         25   -1    0    0    0    0  0.00000000000E+00  0.00000000000E+00  0.99999998245E-14  0.12500000000E+03  0.12500000000E+03 0.  0.
        -11    1    3    3    0    0  0.26870837052E+02  0.54131205410E+02 -0.63969654327E+01  0.60771296268E+02  0.51100000000E-03 0. -1.
         23    2    1    0    0    0  0.17390869476E+02  0.20418747289E+02 -0.10838466815E+02  0.96071814006E+02  0.91613064032E+02 0.  0.
         11    1    3    3    0    0 -0.94799675756E+01 -0.33712458121E+02 -0.44415013828E+01  0.35300517738E+02  0.51100000000E-03 0.  1.
         22    1    1    0    0    0 -0.17390869476E+02 -0.20418747289E+02  0.10838466815E+02  0.28928185994E+02  0.00000000000E+00 0. -1.
</event>
<event>
 5    1  0.3183396E-003  0.9118800E+02  0.7818608E-02  0.1130116E+00
         25   -1    0    0    0    0  0.00000000000E+00  0.00000000000E+00  0.99999998245E-14  0.12500000000E+03  0.12500000000E+03 0.  0.
        -11    1    3    3    0    0  0.15075861448E+02  0.34963678347E+02  0.39394917929E+02  0.54787772001E+02  0.51100000000E-03 0.  1.
         23    2    1    0    0    0  0.18561622882E+02  0.21029920308E+02 -0.24445890460E+00  0.96949132770E+02  0.92802387860E+02 0.  0.
         11    1    3    3    0    0  0.34857614341E+01 -0.13933758039E+02 -0.39639376834E+02  0.42161360769E+02  0.51100000000E-03 0. -1.
         22    1    1    0    0    0 -0.18561622882E+02 -0.21029920308E+02  0.24445890460E+00  0.28050867230E+02  0.00000000000E+00 0.  1.
</event>
<event>
 5    1  0.3183396E-003  0.9118800E+02  0.7818608E-02  0.1130116E+00
         25   -1    0    0    0    0  0.00000000000E+00  0.00000000000E+00  0.99999998245E-14  0.12500000000E+03  0.12500000000E+03 0.  0.
        -11    1    3    3    0    0 -0.51229366101E+02 -0.16237600949E+02  0.57403227349E+01  0.54046821747E+02  0.51100000000E-03 0. -1.
         23    2    1    0    0    0 -0.11809621700E+02 -0.26789913704E+02 -0.22753705284E+01  0.95634306546E+02  0.91014156243E+02 0.  0.
         11    1    3    3    0    0  0.39419744401E+02 -0.10552312756E+02 -0.80156932633E+01  0.41587484799E+02  0.51100000000E-03 0.  1.
         22    1    1    0    0    0  0.11809621700E+02  0.26789913704E+02  0.22753705284E+01  0.29365693454E+02  0.00000000000E+00 0. -1.
</event>
<event>
 5    1  0.3183396E-003  0.9118800E+02  0.7818608E-02  0.1130116E+00
         25   -1    0    0    0    0  0.00000000000E+00  0.00000000000E+00  0.99999998245E-14  0.12500000000E+03  0.12500000000E+03 0.  0.
        -11    1    3    3    0    0 -0.11061940147E+02 -0.37094800591E+02  0.15205508314E+02  0.41588438706E+02  0.51100000000E-03 0.  1.
         23    2    1    0    0    0  0.29069932891E+02 -0.29663858035E+01  0.75163993657E+01  0.94827882036E+02  0.89899780361E+02 0.  0.
         11    1    3    3    0    0  0.40131873037E+02  0.34128414787E+02 -0.76891089485E+01  0.53239443330E+02  0.51100000000E-03 0. -1.
         22    1    1    0    0    0 -0.29069932891E+02  0.29663858035E+01 -0.75163993657E+01  0.30172117964E+02  0.00000000000E+00 0. -1.
</event>
<event>
 5    1  0.3183396E-003  0.9118800E+02  0.7818608E-02  0.1130116E+00
         25   -1    0    0    0    0  0.00000000000E+00  0.00000000000E+00  0.99999998245E-14  0.12500000000E+03  0.12500000000E+03 0.  0.
        -11    1    3    3    0    0  0.48654980700E+02  0.24117193626E+02  0.17759419599E+02  0.57134430601E+02  0.51100000000E-03 0.  1.
         23    2    1    0    0    0  0.34357553541E+02 -0.74638534021E+00  0.45543805305E+00  0.90631322396E+02  0.83861973499E+02 0.  0.
         11    1    3    3    0    0 -0.14297427159E+02 -0.24863578966E+02 -0.17303981546E+02  0.33496891796E+02  0.51100000000E-03 0. -1.
         22    1    1    0    0    0 -0.34357553541E+02  0.74638534021E+00 -0.45543805305E+00  0.34368677604E+02  0.00000000000E+00 0.  1.
</event>
<event>
 5    1  0.3183396E-003  0.9118800E+02  0.7818608E-02  0.1130116E+00
         25   -1    0    0    0    0  0.00000000000E+00  0.00000000000E+00  0.99999998245E-14  0.12500000000E+03  0.12500000000E+03 0.  0.
        -11    1    3    3    0    0  0.36815145707E+02 -0.57154631875E+01 -0.33076693469E+02  0.49820569286E+02  0.51100000000E-03 0. -1.
         23    2    1    0    0    0  0.14162770503E+02 -0.29902685652E+02 -0.23829646083E+02  0.84224925384E+02  0.73696888306E+02 0.  0.
         11    1    3    3    0    0 -0.22652375204E+02 -0.24187222464E+02  0.92470473860E+01  0.34404356098E+02  0.51100000000E-03 0.  1.
         22    1    1    0    0    0 -0.14162770503E+02  0.29902685652E+02  0.23829646083E+02  0.40775074616E+02  0.00000000000E+00 0. -1.
</event>
<event>
 5    1  0.3183396E-003  0.9118800E+02  0.7818608E-02  0.1130116E+00
         25   -1    0    0    0    0  0.00000000000E+00  0.00000000000E+00  0.99999998245E-14  0.12500000000E+03  0.12500000000E+03 0.  0.
        -11    1    3    3    0    0  0.29913105348E+02 -0.21052208248E+02 -0.23481010800E+02  0.43466621816E+02  0.51100000000E-03 0.  1.
         23    2    1    0    0    0  0.90558130623E+01  0.65856251667E+01  0.21814075609E+02  0.10047996526E+03  0.97442246047E+02 0.  0.
         11    1    3    3    0    0 -0.20857292285E+02  0.27637833415E+02  0.45295086409E+02  0.57013343442E+02  0.51100000000E-03 0. -1.
         22    1    1    0    0    0 -0.90558130623E+01 -0.65856251667E+01 -0.21814075609E+02  0.24520034742E+02  0.00000000000E+00 0. -1.
</event>
<event>
 5    1  0.3183396E-003  0.9118800E+02  0.7818608E-02  0.1130116E+00
         25   -1    0    0    0    0  0.00000000000E+00  0.00000000000E+00  0.99999998245E-14  0.12500000000E+03  0.12500000000E+03 0.  0.
        -11    1    3    3    0    0  0.20959853438E+01  0.55077812929E+02 -0.26234495576E+02  0.61042668601E+02  0.51100000000E-03 0.  1.
         23    2    1    0    0    0 -0.15864808767E+01  0.29009134401E+02 -0.36702566161E+01  0.95716598833E+02  0.91127107429E+02 0.  0.
         11    1    3    3    0    0 -0.36824662205E+01 -0.26068678528E+02  0.22564238960E+02  0.34673930232E+02  0.51100000000E-03 0. -1.
         22    1    1    0    0    0  0.15864808767E+01 -0.29009134401E+02  0.36702566161E+01  0.29283401167E+02  0.00000000000E+00 0.  1.
</event>
<event>
 5    1  0.3183396E-003  0.9118800E+02  0.7818608E-02  0.1130116E+00
         25   -1    0    0    0    0  0.00000000000E+00  0.00000000000E+00  0.99999998245E-14  0.12500000000E+03  0.12500000000E+03 0.  0.
        -11    1    3    3    0    0 -0.43521288098E+02  0.35164336293E+02  0.21195017246E+02  0.59831946492E+02  0.51100000000E-03 0.  1.
         23    2    1    0    0    0 -0.14092072075E+02  0.26976032830E+02  0.58842251855E+01  0.94001339567E+02  0.88743083627E+02 0.  0.
         11    1    3    3    0    0  0.29429216023E+02 -0.81883034631E+01 -0.15310792060E+02  0.34169393075E+02  0.51100000000E-03 0. -1.
         22    1    1    0    0    0  0.14092072075E+02 -0.26976032830E+02 -0.58842251855E+01  0.30998660433E+02  0.00000000000E+00 0.  1.
</event>
<event>
 5    1  0.3183396E-003  0.9118800E+02  0.7818608E-02  0.1130116E+00
         25   -1    0    0    0    0  0.00000000000E+00  0.00000000000E+00  0.99999998245E-14  0.12500000000E+03  0.12500000000E+03 0.  0.
        -11    1    3    3    0    0 -0.26380832835E+02 -0.48916606926E+01 -0.44207664759E+02  0.51712612670E+02  0.51100000000E-03 0.  1.
         23    2    1    0    0    0  0.10290301366E+02 -0.13868237167E+02 -0.26395391483E+02  0.93457409811E+02  0.87973589518E+02 0.  0.
         11    1    3    3    0    0  0.36671134201E+02 -0.89765764739E+01  0.17812273276E+02  0.41744797141E+02  0.51100000000E-03 0. -1.
         22    1    1    0    0    0 -0.10290301366E+02  0.13868237167E+02  0.26395391483E+02  0.31542590189E+02  0.00000000000E+00 0. -1.
</event>
<event>
 5    1  0.3183396E-003  0.9118800E+02  0.7818608E-02  0.1130116E+00
         25   -1    0    0    0    0  0.00000000000E+00  0.00000000000E+00  0.99999998245E-14  0.12500000000E+03  0.12500000000E+03 0.  0.
        -11    1    3    3    0    0  0.13634915330E+02 -0.38582627609E+02 -0.55445949350E+01  0.41294946452E+02  0.51100000000E-03 0.  1.
         23    2    1    0    0    0  0.11156688604E+02  0.51590798603E+01  0.26642085528E+02  0.95659098055E+02  0.91048198850E+02 0.  0.
         11    1    3    3    0    0 -0.24782267253E+01  0.43741707469E+02  0.32186680463E+02  0.54364151603E+02  0.51100000000E-03 0. -1.
         22    1    1    0    0    0 -0.11156688604E+02 -0.51590798603E+01 -0.26642085528E+02  0.29340901945E+02  0.00000000000E+00 0. -1.
</event>
<event>
 5    1  0.3183396E-003  0.9118800E+02  0.7818608E-02  0.1130116E+00
         25   -1    0    0    0    0  0.00000000000E+00  0.00000000000E+00  0.99999998245E-14  0.12500000000E+03  0.12500000000E+03 0.  0.
        -11    1    3    3    0    0 -0.54368883318E+02 -0.99353883431E+01  0.16903806046E+02  0.57796419213E+02  0.51100000000E-03 0.  1.
         23    2    1    0    0    0 -0.21123449111E+02  0.11835125695E+02  0.12418482880E+02  0.97788072108E+02  0.93925598358E+02 0.  0.
         11    1    3    3    0    0  0.33245434206E+02  0.21770514038E+02 -0.44853231668E+01  0.39991652894E+02  0.51100000000E-03 0. -1.
         22    1    1    0    0    0  0.21123449111E+02 -0.11835125695E+02 -0.12418482880E+02  0.27211927892E+02  0.00000000000E+00 0.  1.
</event>
<event>
 5    1  0.3183396E-003  0.9118800E+02  0.7818608E-02  0.1130116E+00
         25   -1    0    0    0    0  0.00000000000E+00  0.00000000000E+00  0.99999998245E-14  0.12500000000E+03  0.12500000000E+03 0.  0.
        -11    1    3    3    0    0 -0.74077093423E+01 -0.23178293657E+02  0.42476538226E+02  0.48952668512E+02  0.51100000000E-03 0. -1.
         23    2    1    0    0    0  0.35308625774E+01 -0.30308639844E+02 -0.11232722832E+01  0.94465717949E+02  0.89394795639E+02 0.  0.
         11    1    3    3    0    0  0.10938571920E+02 -0.71303461866E+01 -0.43599810509E+02  0.45513049437E+02  0.51100000000E-03 0.  1.
         22    1    1    0    0    0 -0.35308625774E+01  0.30308639844E+02  0.11232722832E+01  0.30534282051E+02  0.00000000000E+00 0.  1.
</event>
<event>
 5    1  0.3183396E-003  0.9118800E+02  0.7818608E-02  0.1130116E+00
         25   -1    0    0    0    0  0.00000000000E+00  0.00000000000E+00  0.99999998245E-14  0.12500000000E+03  0.12500000000E+03 0.  0.
        -11    1    3    3    0    0  0.42450528769E+01 -0.23995643020E+01  0.59427630435E+02  0.59627356491E+02  0.51100000000E-03 0.  1.
         23    2    1    0    0    0  0.14954314620E+02 -0.46789977365E+01  0.27915252937E+02  0.92987722791E+02  0.87303669440E+02 0.  0.
         11    1    3    3    0    0  0.10709261743E+02 -0.22794334345E+01 -0.31512377497E+02  0.33360366300E+02  0.51100000000E-03 0. -1.
         22    1    1    0    0    0 -0.14954314620E+02  0.46789977365E+01 -0.27915252937E+02  0.32012277209E+02  0.00000000000E+00 0.  1.
</event>
<event>
 5    1  0.3183396E-003  0.9118800E+02  0.7818608E-02  0.1130116E+00
         25   -1    0    0    0    0  0.00000000000E+00  0.00000000000E+00  0.99999998245E-14  0.12500000000E+03  0.12500000000E+03 0.  0.
        -11    1    3    3    0    0 -0.12124735459E+02  0.35173995528E+02  0.12290473147E+02  0.39182584164E+02  0.51100000000E-03 0.  1.
         23    2    1    0    0    0  0.24565568014E+01 -0.19289583977E+02  0.21164952887E+02  0.96258428157E+02  0.91867333907E+02 0.  0.
         11    1    3    3    0    0  0.14581292261E+02 -0.54463579505E+02  0.88744797391E+01  0.57075843992E+02  0.51100000000E-03 0. -1.
         22    1    1    0    0    0 -0.24565568014E+01  0.19289583977E+02 -0.21164952887E+02  0.28741571843E+02  0.00000000000E+00 0. -1.
</event>
<event>
 5    1  0.3183396E-003  0.9118800E+02  0.7818608E-02  0.1130116E+00
         25   -1    0    0    0    0  0.00000000000E+00  0.00000000000E+00  0.99999998245E-14  0.12500000000E+03  0.12500000000E+03 0.  0.
        -11    1    3    3    0    0  0.71480586592E+01  0.35205446373E+02 -0.36853266941E+02  0.51465342527E+02  0.51100000000E-03 0. -1.
         23    2    1    0    0    0 -0.13425413543E+02 -0.22011674299E+01 -0.26219914109E+02  0.95460691228E+02  0.90775397587E+02 0.  0.
         11    1    3    3    0    0 -0.20573472202E+02 -0.37406613802E+02  0.10633352833E+02  0.43995348701E+02  0.51100000000E-03 0.  1.
         22    1    1    0    0    0  0.13425413543E+02  0.22011674299E+01  0.26219914109E+02  0.29539308772E+02  0.00000000000E+00 0.  1.
</event>
<event>
 5    1  0.3183396E-003  0.9118800E+02  0.7818608E-02  0.1130116E+00
         25   -1    0    0    0    0  0.00000000000E+00  0.00000000000E+00  0.99999998245E-14  0.12500000000E+03  0.12500000000E+03 0.  0.
        -11    1    3    3    0    0  0.24209097207E+02 -0.21633850720E+02 -0.26680742091E+02  0.42023396856E+02  0.51100000000E-03 0. -1.
         23    2    1    0    0    0 -0.23164109978E+02 -0.15286372485E+02  0.94732476630E+00  0.97230473554E+02  0.93180568728E+02 0.  0.
         11    1    3    3    0    0 -0.47373207185E+02  0.63474782346E+01  0.27628066857E+02  0.55207076697E+02  0.51100000000E-03 0.  1.
         22    1    1    0    0    0  0.23164109978E+02  0.15286372485E+02 -0.94732476630E+00  0.27769526446E+02  0.00000000000E+00 0.  1.
</event>
<event>
 5    1  0.3183396E-003  0.9118800E+02  0.7818608E-02  0.1130116E+00
         25   -1    0    0    0    0  0.00000000000E+00  0.00000000000E+00  0.99999998245E-14  0.12500000000E+03  0.12500000000E+03 0.  0.
        -11    1    3    3    0    0  0.27044394946E+02 -0.47139595097E+02  0.20161714748E+02  0.57965812905E+02  0.51100000000E-03 0.  1.
         23    2    1    0    0    0  0.20057329613E+02 -0.19844812206E+02 -0.57046669588E+01  0.96213609678E+02  0.91806331042E+02 0.  0.
         11    1    3    3    0    0 -0.69870653339E+01  0.27294782891E+02 -0.25866381707E+02  0.38247796772E+02  0.51100000000E-03 0. -1.
         22    1    1    0    0    0 -0.20057329613E+02  0.19844812206E+02  0.57046669588E+01  0.28786390322E+02  0.00000000000E+00 0.  1.
</event>
<event>
 5    1  0.3183396E-003  0.9118800E+02  0.7818608E-02  0.1130116E+00
         25   -1    0    0    0    0  0.00000000000E+00  0.00000000000E+00  0.99999998245E-14  0.12500000000E+03  0.12500000000E+03 0.  0.
        -11    1    3    3    0    0 -0.29054627315E+02  0.53509879608E+01  0.34825580964E+02  0.45668649315E+02  0.51100000000E-03 0. -1.
         23    2    1    0    0    0  0.19041960812E+02  0.52513225461E+01  0.21974408786E+02  0.95452626148E+02  0.90764291090E+02 0.  0.
         11    1    3    3    0    0  0.48096588127E+02 -0.99665414759E-01 -0.12851172178E+02  0.49783976833E+02  0.51100000000E-03 0.  1.
         22    1    1    0    0    0 -0.19041960812E+02 -0.52513225461E+01 -0.21974408786E+02  0.29547373852E+02  0.00000000000E+00 0.  1.
</event>
<event>
 5    1  0.3183396E-003  0.9118800E+02  0.7818608E-02  0.1130116E+00
         25   -1    0    0    0    0  0.00000000000E+00  0.00000000000E+00  0.99999998245E-14  0.12500000000E+03  0.12500000000E+03 0.  0.
        -11    1    3    3    0    0  0.13997099084E+01 -0.23145384892E+02 -0.30273587251E+02  0.38133425167E+02  0.51100000000E-03 0.  1.
         23    2    1    0    0    0  0.29584153362E+02  0.15291482131E+01  0.10563950279E+02  0.93549126087E+02  0.88103811052E+02 0.  0.
         11    1    3    3    0    0  0.28184443453E+02  0.24674533105E+02  0.40837537530E+02  0.55415700921E+02  0.51100000000E-03 0. -1.
         22    1    1    0    0    0 -0.29584153362E+02 -0.15291482131E+01 -0.10563950279E+02  0.31450873913E+02  0.00000000000E+00 0. -1.
</event>
<event>
 5    1  0.3183396E-003  0.9118800E+02  0.7818608E-02  0.1130116E+00
         25   -1    0    0    0    0  0.00000000000E+00  0.00000000000E+00  0.99999998245E-14  0.12500000000E+03  0.12500000000E+03 0.  0.
        -11    1    3    3    0    0 -0.16001221325E+01 -0.28972372916E+02  0.40989022298E+02  0.50220102872E+02  0.51100000000E-03 0. -1.
         23    2    1    0    0    0 -0.31996793166E+00 -0.26720179752E+02 -0.62717079209E+01  0.97551781375E+02  0.93610604867E+02 0.  0.
         11    1    3    3    0    0  0.12801542008E+01  0.22521931641E+01 -0.47260730219E+02  0.47331678503E+02  0.51100000000E-03 0.  1.
         22    1    1    0    0    0  0.31996793166E+00  0.26720179752E+02  0.62717079209E+01  0.27448218625E+02  0.00000000000E+00 0.  1.
</event>
<event>
 5    1  0.3183396E-003  0.9118800E+02  0.7818608E-02  0.1130116E+00
         25   -1    0    0    0    0  0.00000000000E+00  0.00000000000E+00  0.99999998245E-14  0.12500000000E+03  0.12500000000E+03 0.  0.
        -11    1    3    3    0    0  0.30294277808E+01 -0.30115987406E+02 -0.17164234476E+02  0.34795992233E+02  0.51100000000E-03 0. -1.
         23    2    1    0    0    0 -0.10684712845E+02  0.27146276921E+02 -0.12062785744E+01  0.95801737256E+02  0.91243817950E+02 0.  0.
         11    1    3    3    0    0 -0.13714140626E+02  0.57262264327E+02  0.15957955901E+02  0.61005745023E+02  0.51100000000E-03 0.  1.
         22    1    1    0    0    0  0.10684712845E+02 -0.27146276921E+02  0.12062785744E+01  0.29198262744E+02  0.00000000000E+00 0.  1.
</event>
<event>
 5    1  0.3183396E-003  0.9118800E+02  0.7818608E-02  0.1130116E+00
         25   -1    0    0    0    0  0.00000000000E+00  0.00000000000E+00  0.99999998245E-14  0.12500000000E+03  0.12500000000E+03 0.  0.
        -11    1    3    3    0    0 -0.37599995377E+02 -0.20572318672E+02  0.94093230472E+01  0.43880694027E+02  0.51100000000E-03 0.  1.
         23    2    1    0    0    0 -0.30866393097E+01 -0.10926866376E+02 -0.27453240347E+02  0.95291345426E+02  0.90541903871E+02 0.  0.
         11    1    3    3    0    0  0.34513356067E+02  0.96454522959E+01 -0.36862563394E+02  0.51410651399E+02  0.51100000000E-03 0. -1.
         22    1    1    0    0    0  0.30866393097E+01  0.10926866376E+02  0.27453240347E+02  0.29708654574E+02  0.00000000000E+00 0. -1.
</event>
<event>
 5    1  0.3183396E-003  0.9118800E+02  0.7818608E-02  0.1130116E+00
         25   -1    0    0    0    0  0.00000000000E+00  0.00000000000E+00  0.99999998245E-14  0.12500000000E+03  0.12500000000E+03 0.  0.
        -11    1    3    3    0    0  0.31670178033E+02 -0.50526693720E+02 -0.14062454706E+02  0.61267443129E+02  0.51100000000E-03 0.  1.
         23    2    1    0    0    0  0.10619534209E+02 -0.25260131353E+02 -0.14163840270E+02  0.94154204274E+02  0.88958142227E+02 0.  0.
         11    1    3    3    0    0 -0.21050643825E+02  0.25266562367E+02 -0.10138556431E+00  0.32886761145E+02  0.51100000000E-03 0. -1.
         22    1    1    0    0    0 -0.10619534209E+02  0.25260131353E+02  0.14163840270E+02  0.30845795726E+02  0.00000000000E+00 0.  1.
</event>
<event>
 5    1  0.3183396E-003  0.9118800E+02  0.7818608E-02  0.1130116E+00
         25   -1    0    0    0    0  0.00000000000E+00  0.00000000000E+00  0.99999998245E-14  0.12500000000E+03  0.12500000000E+03 0.  0.
        -11    1    3    3    0    0  0.42421319944E+02  0.25881006188E+02  0.19421688719E+02  0.53353508414E+02  0.51100000000E-03 0.  1.
         23    2    1    0    0    0  0.19474208709E+02 -0.80764448678E+01  0.22140584333E+02  0.94427475715E+02  0.89341305838E+02 0.  0.
         11    1    3    3    0    0 -0.22947111235E+02 -0.33957451056E+02  0.27188956142E+01  0.41073967301E+02  0.51100000000E-03 0. -1.
         22    1    1    0    0    0 -0.19474208709E+02  0.80764448678E+01 -0.22140584333E+02  0.30572524285E+02  0.00000000000E+00 0.  1.
</event>
<event>
 5    1  0.3183396E-003  0.9118800E+02  0.7818608E-02  0.1130116E+00
         25   -1    0    0    0    0  0.00000000000E+00  0.00000000000E+00  0.99999998245E-14  0.12500000000E+03  0.12500000000E+03 0.  0.
        -11    1    3    3    0    0 -0.31748912372E+02 -0.32053149298E+02  0.30917710972E+02  0.54692802714E+02  0.51100000000E-03 0.  1.
         23    2    1    0    0    0 -0.29381867971E+02 -0.25346485248E+01  0.30586034568E+01  0.95350823557E+02  0.90623980763E+02 0.  0.
         11    1    3    3    0    0  0.23670444005E+01  0.29518500774E+02 -0.27859107515E+02  0.40658020843E+02  0.51100000000E-03 0. -1.
         22    1    1    0    0    0  0.29381867971E+02  0.25346485248E+01 -0.30586034568E+01  0.29649176443E+02  0.00000000000E+00 0.  1.
</event>
<event>
 5    1  0.3183396E-003  0.9118800E+02  0.7818608E-02  0.1130116E+00
         25   -1    0    0    0    0  0.00000000000E+00  0.00000000000E+00  0.99999998245E-14  0.12500000000E+03  0.12500000000E+03 0.  0.
        -11    1    3    3    0    0  0.50849785768E+01  0.31256795212E+02  0.23424814367E+02  0.39389924884E+02  0.51100000000E-03 0.  1.
         23    2    1    0    0    0 -0.27307250040E+02 -0.68081814080E+01 -0.42745489549E+01  0.96534072866E+02  0.92241629520E+02 0.  0.
         11    1    3    3    0    0 -0.32392228617E+02 -0.38064976620E+02 -0.27699363322E+02  0.57144147981E+02  0.51100000000E-03 0. -1.
         22    1    1    0    0    0  0.27307250040E+02  0.68081814080E+01  0.42745489549E+01  0.28465927134E+02  0.00000000000E+00 0. -1.
</event>
<event>
 5    1  0.3183396E-003  0.9118800E+02  0.7818608E-02  0.1130116E+00
         25   -1    0    0    0    0  0.00000000000E+00  0.00000000000E+00  0.99999998245E-14  0.12500000000E+03  0.12500000000E+03 0.  0.
        -11    1    3    3    0    0  0.24153670006E+01 -0.36209027220E+02  0.19061162567E+02  0.40990920563E+02  0.51100000000E-03 0. -1.
         23    2    1    0    0    0  0.15643190376E+02  0.16666810350E+02  0.18651792255E+02  0.95497774208E+02  0.90826447425E+02 0.  0.
         11    1    3    3    0    0  0.13227823375E+02  0.52875837569E+02 -0.40937031176E+00  0.54506853644E+02  0.51100000000E-03 0.  1.
         22    1    1    0    0    0 -0.15643190376E+02 -0.16666810350E+02 -0.18651792255E+02  0.29502225792E+02  0.00000000000E+00 0.  1.
</event>
<event>
 5    1  0.3183396E-003  0.9118800E+02  0.7818608E-02  0.1130116E+00
         25   -1    0    0    0    0  0.00000000000E+00  0.00000000000E+00  0.99999998245E-14  0.12500000000E+03  0.12500000000E+03 0.  0.
        -11    1    3    3    0    0  0.21109260357E+02 -0.24220147285E+02  0.13463253954E+02  0.34834976886E+02  0.51100000000E-03 0.  1.
         23    2    1    0    0    0 -0.11447990551E+02  0.26078897516E+02  0.98637536051E+01  0.94859346084E+02  0.89943518505E+02 0.  0.
         11    1    3    3    0    0 -0.32557250908E+02  0.50299044801E+02 -0.35995003485E+01  0.60024369198E+02  0.51100000000E-03 0. -1.
         22    1    1    0    0    0  0.11447990551E+02 -0.26078897516E+02 -0.98637536051E+01  0.30140653916E+02  0.00000000000E+00 0. -1.
</event>
<event>
 5    1  0.3183396E-003  0.9118800E+02  0.7818608E-02  0.1130116E+00
         25   -1    0    0    0    0  0.00000000000E+00  0.00000000000E+00  0.99999998245E-14  0.12500000000E+03  0.12500000000E+03 0.  0.
        -11    1    3    3    0    0  0.38406774858E+02 -0.73600123258E+01 -0.19162571745E+02  0.43548298388E+02  0.51100000000E-03 0.  1.
         23    2    1    0    0    0  0.93987488830E+01 -0.10739082595E+02  0.24835288504E+02  0.96356398085E+02  0.92000540875E+02 0.  0.
         11    1    3    3    0    0 -0.29008025975E+02 -0.33790702690E+01  0.43997860249E+02  0.52808099697E+02  0.51100000000E-03 0. -1.
         22    1    1    0    0    0 -0.93987488830E+01  0.10739082595E+02 -0.24835288504E+02  0.28643601915E+02  0.00000000000E+00 0. -1.
</event>
<event>
 5    1  0.3183396E-003  0.9118800E+02  0.7818608E-02  0.1130116E+00
         25   -1    0    0    0    0  0.00000000000E+00  0.00000000000E+00  0.99999998245E-14  0.12500000000E+03  0.12500000000E+03 0.  0.
        -11    1    3    3    0    0  0.10373979752E+02 -0.24428521488E+02  0.37659139048E+02  0.46071497393E+02  0.51100000000E-03 0.  1.
         23    2    1    0    0    0 -0.11073583091E+01 -0.31386707710E+02 -0.71004416112E+01  0.92801119051E+02  0.87036083107E+02 0.  0.
         11    1    3    3    0    0 -0.11481338061E+02 -0.69581862225E+01 -0.44759580659E+02  0.46729621657E+02  0.51100000000E-03 0. -1.
         22    1    1    0    0    0  0.11073583091E+01  0.31386707710E+02  0.71004416112E+01  0.32198880949E+02  0.00000000000E+00 0. -1.
</event>
<event>
 5    1  0.3183396E-003  0.9118800E+02  0.7818608E-02  0.1130116E+00
         25   -1    0    0    0    0  0.00000000000E+00  0.00000000000E+00  0.99999998245E-14  0.12500000000E+03  0.12500000000E+03 0.  0.
        -11    1    3    3    0    0  0.48242396608E+00 -0.11961436676E+02  0.34827846213E+02  0.36827809769E+02  0.51100000000E-03 0. -1.
         23    2    1    0    0    0  0.89272091074E+01  0.23237285955E+02 -0.13085272444E+02  0.96877217848E+02  0.92705471587E+02 0.  0.
         11    1    3    3    0    0  0.84447851413E+01  0.35198722631E+02 -0.47913118657E+02  0.60049408080E+02  0.51100000000E-03 0.  1.
         22    1    1    0    0    0 -0.89272091074E+01 -0.23237285955E+02  0.13085272444E+02  0.28122782152E+02  0.00000000000E+00 0.  1.
</event>
<event>
 5    1  0.3183396E-003  0.9118800E+02  0.7818608E-02  0.1130116E+00
         25   -1    0    0    0    0  0.00000000000E+00  0.00000000000E+00  0.99999998245E-14  0.12500000000E+03  0.12500000000E+03 0.  0.
        -11    1    3    3    0    0  0.54428836756E+02 -0.18281837584E+02 -0.24311999851E+02  0.62352202792E+02  0.51100000000E-03 0.  1.
         23    2    1    0    0    0  0.27952808443E+02 -0.95162300320E+01 -0.92053193265E+01  0.94070143263E+02  0.88839944934E+02 0.  0.
         11    1    3    3    0    0 -0.26476028313E+02  0.87656075523E+01  0.15106680524E+02  0.31717940471E+02  0.51100000000E-03 0. -1.
         22    1    1    0    0    0 -0.27952808443E+02  0.95162300320E+01  0.92053193265E+01  0.30929856737E+02  0.00000000000E+00 0.  1.
</event>
<event>
 5    1  0.3183396E-003  0.9118800E+02  0.7818608E-02  0.1130116E+00
         25   -1    0    0    0    0  0.00000000000E+00  0.00000000000E+00  0.99999998245E-14  0.12500000000E+03  0.12500000000E+03 0.  0.
        -11    1    3    3    0    0  0.15466057275E+02  0.33427358857E+02 -0.16992511467E+02  0.40562700773E+02  0.51100000000E-03 0. -1.
         23    2    1    0    0    0  0.96729663709E+01 -0.22588913132E+02 -0.13445122121E+02  0.96989348744E+02  0.92856540890E+02 0.  0.
         11    1    3    3    0    0 -0.57930909046E+01 -0.56016271990E+02  0.35473893455E+01  0.56426647971E+02  0.51100000000E-03 0.  1.
         22    1    1    0    0    0 -0.96729663709E+01  0.22588913132E+02  0.13445122121E+02  0.28010651256E+02  0.00000000000E+00 0. -1.
</event>
<event>
 5    1  0.3183396E-003  0.9118800E+02  0.7818608E-02  0.1130116E+00
         25   -1    0    0    0    0  0.00000000000E+00  0.00000000000E+00  0.99999998245E-14  0.12500000000E+03  0.12500000000E+03 0.  0.
        -11    1    3    3    0    0 -0.43247778133E+02 -0.43974487928E+01  0.58144035002E+01  0.43857897323E+02  0.51100000000E-03 0.  1.
         23    2    1    0    0    0 -0.66356394276E+01  0.51770266783E+01 -0.28709024080E+02  0.95082757823E+02  0.90253473373E+02 0.  0.
         11    1    3    3    0    0  0.36612138705E+02  0.95744754711E+01 -0.34523427580E+02  0.51224860500E+02  0.51100000000E-03 0. -1.
         22    1    1    0    0    0  0.66356394276E+01 -0.51770266783E+01  0.28709024080E+02  0.29917242177E+02  0.00000000000E+00 0.  1.
</event>
<event>
 5    1  0.3183396E-003  0.9118800E+02  0.7818608E-02  0.1130116E+00
         25   -1    0    0    0    0  0.00000000000E+00  0.00000000000E+00  0.99999998245E-14  0.12500000000E+03  0.12500000000E+03 0.  0.
        -11    1    3    3    0    0 -0.45348313688E+02  0.40127683371E+02 -0.12375902196E+02  0.61805044151E+02  0.51100000000E-03 0. -1.
         23    2    1    0    0    0 -0.18890283304E+02  0.16680701772E+02 -0.11827314151E+02  0.97161645613E+02  0.93088191536E+02 0.  0.
         11    1    3    3    0    0  0.26458030384E+02 -0.23446981599E+02  0.54858804496E+00  0.35356601463E+02  0.51100000000E-03 0.  1.
         22    1    1    0    0    0  0.18890283304E+02 -0.16680701772E+02  0.11827314151E+02  0.27838354387E+02  0.00000000000E+00 0. -1.
</event>
<event>
 5    1  0.3183396E-003  0.9118800E+02  0.7818608E-02  0.1130116E+00
         25   -1    0    0    0    0  0.00000000000E+00  0.00000000000E+00  0.99999998245E-14  0.12500000000E+03  0.12500000000E+03 0.  0.
        -11    1    3    3    0    0 -0.18343970012E+02  0.39200381381E+02 -0.73948645358E+01  0.43907347426E+02  0.51100000000E-03 0.  1.
         23    2    1    0    0    0 -0.10783845392E+02 -0.72173982305E+01 -0.27142973748E+02  0.94914734794E+02  0.90020462665E+02 0.  0.
         11    1    3    3    0    0  0.75601246200E+01 -0.46417779612E+02 -0.19748109212E+02  0.51007387367E+02  0.51100000000E-03 0. -1.
         22    1    1    0    0    0  0.10783845392E+02  0.72173982305E+01  0.27142973748E+02  0.30085265206E+02  0.00000000000E+00 0.  1.
</event>
<event>
 5    1  0.3183396E-003  0.9118800E+02  0.7818608E-02  0.1130116E+00
         25   -1    0    0    0    0  0.00000000000E+00  0.00000000000E+00  0.99999998245E-14  0.12500000000E+03  0.12500000000E+03 0.  0.
        -11    1    3    3    0    0  0.23570993724E+02 -0.51499102029E+02  0.74041352544E+01  0.57118915204E+02  0.51100000000E-03 0.  1.
         23    2    1    0    0    0 -0.61966451653E+01 -0.29808633435E+02  0.76442412494E+00  0.94544501600E+02  0.89504890369E+02 0.  0.
         11    1    3    3    0    0 -0.29767638889E+02  0.21690468595E+02 -0.66397111294E+01  0.37425586396E+02  0.51100000000E-03 0. -1.
         22    1    1    0    0    0  0.61966451653E+01  0.29808633435E+02 -0.76442412494E+00  0.30455498400E+02  0.00000000000E+00 0. -1.
</event>
<event>
 5    1  0.3183396E-003  0.9118800E+02  0.7818608E-02  0.1130116E+00
         25   -1    0    0    0    0  0.00000000000E+00  0.00000000000E+00  0.99999998245E-14  0.12500000000E+03  0.12500000000E+03 0.  0.
        -11    1    3    3    0    0 -0.18888359865E+01 -0.93293310530E+01  0.43944874803E+02  0.44963942677E+02  0.51100000000E-03 0.  1.
         23    2    1    0    0    0 -0.22790107622E+02 -0.18843443846E+02 -0.97380922793E+00  0.95412626243E+02  0.90709186750E+02 0.  0.
         11    1    3    3    0    0 -0.20901271636E+02 -0.95141127929E+01 -0.44918684031E+02  0.50448683567E+02  0.51100000000E-03 0. -1.
         22    1    1    0    0    0  0.22790107622E+02  0.18843443846E+02  0.97380922793E+00  0.29587373757E+02  0.00000000000E+00 0. -1.
</event>
<event>
 5    1  0.3183396E-003  0.9118800E+02  0.7818608E-02  0.1130116E+00
         25   -1    0    0    0    0  0.00000000000E+00  0.00000000000E+00  0.99999998245E-14  0.12500000000E+03  0.12500000000E+03 0.  0.
        -11    1    3    3    0    0  0.29288895888E+02  0.54212699346E+02 -0.35322271713E+01  0.61719792788E+02  0.51100000000E-03 0.  1.
         23    2    1    0    0    0  0.91281631804E+01  0.27646206314E+02 -0.63921302300E+01  0.95192359780E+02  0.90405143355E+02 0.  0.
         11    1    3    3    0    0 -0.20160732707E+02 -0.26566493032E+02 -0.28599030587E+01  0.33472566993E+02  0.51100000000E-03 0. -1.
         22    1    1    0    0    0 -0.91281631804E+01 -0.27646206314E+02  0.63921302300E+01  0.29807640220E+02  0.00000000000E+00 0.  1.
</event>
<event>
 5    1  0.3183396E-003  0.9118800E+02  0.7818608E-02  0.1130116E+00
         25   -1    0    0    0    0  0.00000000000E+00  0.00000000000E+00  0.99999998245E-14  0.12500000000E+03  0.12500000000E+03 0.  0.
        -11    1    3    3    0    0  0.17883434916E+02  0.20682587709E+02  0.20519932683E+02  0.34185586383E+02  0.51100000000E-03 0. -1.
         23    2    1    0    0    0 -0.50944528670E+01 -0.29952331692E+02 -0.28134270752E+01  0.94487527211E+02  0.89425286148E+02 0.  0.
         11    1    3    3    0    0 -0.22977887783E+02 -0.50634919401E+02 -0.23333359759E+02  0.60301940828E+02  0.51100000000E-03 0.  1.
         22    1    1    0    0    0  0.50944528670E+01  0.29952331692E+02  0.28134270752E+01  0.30512472789E+02  0.00000000000E+00 0.  1.
</event>
<event>
 5    1  0.3183396E-003  0.9118800E+02  0.7818608E-02  0.1130116E+00
         25   -1    0    0    0    0  0.00000000000E+00  0.00000000000E+00  0.99999998245E-14  0.12500000000E+03  0.12500000000E+03 0.  0.
        -11    1    3    3    0    0 -0.34475072736E+02  0.47712397717E+02 -0.16765786749E+02  0.61205352231E+02  0.51100000000E-03 0.  1.
         23    2    1    0    0    0 -0.22493604236E+02  0.19112314409E+02 -0.23825830028E+01  0.95387173465E+02  0.90674105269E+02 0.  0.
         11    1    3    3    0    0  0.11981468500E+02 -0.28600083309E+02  0.14383203746E+02  0.34181821235E+02  0.51100000000E-03 0. -1.
         22    1    1    0    0    0  0.22493604236E+02 -0.19112314409E+02  0.23825830028E+01  0.29612826535E+02  0.00000000000E+00 0.  1.
</event>
<event>
 5    1  0.3183396E-003  0.9118800E+02  0.7818608E-02  0.1130116E+00
         25   -1    0    0    0    0  0.00000000000E+00  0.00000000000E+00  0.99999998245E-14  0.12500000000E+03  0.12500000000E+03 0.  0.
        -11    1    3    3    0    0 -0.38657070180E+02 -0.20644002579E+02 -0.40283073956E+02  0.59525372447E+02  0.51100000000E-03 0. -1.
         23    2    1    0    0    0 -0.26394648127E+02 -0.81082160344E+01 -0.80188334958E+01  0.96247220871E+02  0.91852083360E+02 0.  0.
         11    1    3    3    0    0  0.12262422053E+02  0.12535786545E+02  0.32264240460E+02  0.36721848423E+02  0.51100000000E-03 0.  1.
         22    1    1    0    0    0  0.26394648127E+02  0.81082160344E+01  0.80188334958E+01  0.28752779129E+02  0.00000000000E+00 0. -1.
</event>
<event>
 5    1  0.3183396E-003  0.9118800E+02  0.7818608E-02  0.1130116E+00
         25   -1    0    0    0    0  0.00000000000E+00  0.00000000000E+00  0.99999998245E-14  0.12500000000E+03  0.12500000000E+03 0.  0.
        -11    1    3    3    0    0 -0.35858776423E+01  0.17977052889E+02  0.30641486438E+02  0.35706212910E+02  0.51100000000E-03 0.  1.
         23    2    1    0    0    0 -0.15300634485E+00 -0.28637408359E+02 -0.67670856159E+01  0.95573515055E+02  0.90930626105E+02 0.  0.
         11    1    3    3    0    0  0.34328712975E+01 -0.46614461248E+02 -0.37408572054E+02  0.59867302145E+02  0.51100000000E-03 0. -1.
         22    1    1    0    0    0  0.15300634485E+00  0.28637408359E+02  0.67670856159E+01  0.29426484945E+02  0.00000000000E+00 0. -1.
</event>
<event>
 5    1  0.3183396E-003  0.9118800E+02  0.7818608E-02  0.1130116E+00
         25   -1    0    0    0    0  0.00000000000E+00  0.00000000000E+00  0.99999998245E-14  0.12500000000E+03  0.12500000000E+03 0.  0.
        -11    1    3    3    0    0 -0.24072341684E+02 -0.19085863304E+02 -0.14435403198E+02  0.33943021049E+02  0.51100000000E-03 0. -1.
         23    2    1    0    0    0  0.18041186290E+02  0.80745291484E+01  0.21641455889E+02  0.95690700508E+02  0.91091575499E+02 0.  0.
         11    1    3    3    0    0  0.42113527975E+02  0.27160392452E+02  0.36076859087E+02  0.61747679458E+02  0.51100000000E-03 0.  1.
         22    1    1    0    0    0 -0.18041186290E+02 -0.80745291484E+01 -0.21641455889E+02  0.29309299492E+02  0.00000000000E+00 0.  1.
</event>
<event>
 4    1  0.3183396E-003  0.9118800E+02  0.7818608E-02  0.1130116E+00
         25   -1    0    0    0    0  0.00000000000E+00  0.00000000000E+00  0.99999998245E-14  0.12500000000E+03  0.12500000000E+03 0.  0.
        -11    1    1    0    0    0  0.58574024615E+00 -0.74028483349E+01  0.16207558809E+02  0.17827793411E+02  0.51100000000E-03 0. -1.
         11    1    1    0    0    0 -0.67889021411E+01  0.55766149406E+02 -0.13304494481E+01  0.56193618035E+02  0.51100000000E-03 0.  1.
         22    1    1    0    0    0  0.62031618949E+01 -0.48363301071E+02 -0.14877109361E+02  0.50978588554E+02  0.00000000000E+00 0.  1.
</event>
<event>
 5    1  0.3183396E-003  0.9118800E+02  0.7818608E-02  0.1130116E+00
         25   -1    0    0    0    0  0.00000000000E+00  0.00000000000E+00  0.99999998245E-14  0.12500000000E+03  0.12500000000E+03 0.  0.
        -11    1    3    3    0    0  0.37279555287E+02 -0.11528651516E+02  0.34307856027E+02  0.51958676211E+02  0.51100000000E-03 0. -1.
         23    2    1    0    0    0  0.16127765783E+02 -0.27970858117E+02  0.39111705545E+01  0.92476608601E+02  0.86568771219E+02 0.  0.
         11    1    3    3    0    0 -0.21151789504E+02 -0.16442206602E+02 -0.30396685473E+02  0.40517932390E+02  0.51100000000E-03 0.  1.
         22    1    1    0    0    0 -0.16127765783E+02  0.27970858117E+02 -0.39111705545E+01  0.32523391399E+02  0.00000000000E+00 0. -1.
</event>
<event>
 5    1  0.3183396E-003  0.9118800E+02  0.7818608E-02  0.1130116E+00
         25   -1    0    0    0    0  0.00000000000E+00  0.00000000000E+00  0.99999998245E-14  0.12500000000E+03  0.12500000000E+03 0.  0.
        -11    1    3    3    0    0 -0.40156097811E+02 -0.24690751642E+02  0.41188074900E+01  0.47319234815E+02  0.51100000000E-03 0.  1.
         23    2    1    0    0    0 -0.17904063974E+02 -0.37286165099E+02  0.21643200226E+02  0.78317650759E+02  0.62884121126E+02 0.  0.
         11    1    3    3    0    0  0.22252033837E+02 -0.12595413457E+02  0.17524392736E+02  0.30998415945E+02  0.51100000000E-03 0. -1.
         22    1    1    0    0    0  0.17904063974E+02  0.37286165099E+02 -0.21643200226E+02  0.46682349241E+02  0.00000000000E+00 0.  1.
</event>
<event>
 5    1  0.3183396E-003  0.9118800E+02  0.7818608E-02  0.1130116E+00
         25   -1    0    0    0    0  0.00000000000E+00  0.00000000000E+00  0.99999998245E-14  0.12500000000E+03  0.12500000000E+03 0.  0.
        -11    1    3    3    0    0  0.78559923394E+01  0.35232094617E+02 -0.19791211791E+02  0.41166845533E+02  0.51100000000E-03 0.  1.
         23    2    1    0    0    0  0.18430196958E+02  0.27515502702E+01  0.22664825260E+02  0.95658263636E+02  0.91047053269E+02 0.  0.
         11    1    3    3    0    0  0.10574204618E+02 -0.32480544347E+02  0.42456037052E+02  0.54491418102E+02  0.51100000000E-03 0. -1.
         22    1    1    0    0    0 -0.18430196958E+02 -0.27515502702E+01 -0.22664825260E+02  0.29341736364E+02  0.00000000000E+00 0. -1.
</event>
<event>
 5    1  0.3183396E-003  0.9118800E+02  0.7818608E-02  0.1130116E+00
         25   -1    0    0    0    0  0.00000000000E+00  0.00000000000E+00  0.99999998245E-14  0.12500000000E+03  0.12500000000E+03 0.  0.
        -11    1    3    3    0    0 -0.52664917084E+02 -0.11948177770E+02 -0.13305499377E+02  0.55618241229E+02  0.51100000000E-03 0.  1.
         23    2    1    0    0    0 -0.21737412731E+02  0.13693794685E+01 -0.25530018012E+02  0.91441511773E+02  0.85061024820E+02 0.  0.
         11    1    3    3    0    0  0.30927504354E+02  0.13317557239E+02 -0.12224518636E+02  0.35823270544E+02  0.51100000000E-03 0. -1.
         22    1    1    0    0    0  0.21737412731E+02 -0.13693794685E+01  0.25530018012E+02  0.33558488227E+02  0.00000000000E+00 0.  1.
</event>
<event>
 5    1  0.3183396E-003  0.9118800E+02  0.7818608E-02  0.1130116E+00
         25   -1    0    0    0    0  0.00000000000E+00  0.00000000000E+00  0.99999998245E-14  0.12500000000E+03  0.12500000000E+03 0.  0.
        -11    1    3    3    0    0  0.50882460430E+02 -0.48709790491E+01  0.10522462203E+02  0.52186908582E+02  0.51100000000E-03 0. -1.
         23    2    1    0    0    0  0.12424196337E+02  0.10391218562E+01  0.27626879723E+02  0.94690184559E+02  0.89708116354E+02 0.  0.
         11    1    3    3    0    0 -0.38458264093E+02  0.59101009053E+01  0.17104417520E+02  0.42503275976E+02  0.51100000000E-03 0.  1.
         22    1    1    0    0    0 -0.12424196337E+02 -0.10391218562E+01 -0.27626879723E+02  0.30309815441E+02  0.00000000000E+00 0. -1.
</event>
<event>
 5    1  0.3183396E-003  0.9118800E+02  0.7818608E-02  0.1130116E+00
         25   -1    0    0    0    0  0.00000000000E+00  0.00000000000E+00  0.99999998245E-14  0.12500000000E+03  0.12500000000E+03 0.  0.
        -11    1    3    3    0    0 -0.52430083162E+02 -0.92718290627E+01 -0.18217253664E+02  0.56273872853E+02  0.51100000000E-03 0.  1.
         23    2    1    0    0    0 -0.22481487222E+02 -0.12929176227E+02  0.96335969435E+01  0.97334370499E+02  0.93319840467E+02 0.  0.
         11    1    3    3    0    0  0.29948595941E+02 -0.36573471641E+01  0.27850850608E+02  0.41060497646E+02  0.51100000000E-03 0. -1.
         22    1    1    0    0    0  0.22481487222E+02  0.12929176227E+02 -0.96335969435E+01  0.27665629501E+02  0.00000000000E+00 0.  1.
</event>
<event>
 5    1  0.3183396E-003  0.9118800E+02  0.7818608E-02  0.1130116E+00
         25   -1    0    0    0    0  0.00000000000E+00  0.00000000000E+00  0.99999998245E-14  0.12500000000E+03  0.12500000000E+03 0.  0.
        -11    1    3    3    0    0 -0.11110550877E+02  0.26901518634E+02  0.20747719406E+02  0.35743585528E+02  0.51100000000E-03 0. -1.
         23    2    1    0    0    0 -0.63166973303E+01 -0.28790417802E+02 -0.43786779792E+00  0.95521523944E+02  0.90859127148E+02 0.  0.
         11    1    3    3    0    0  0.47938535462E+01 -0.55691936436E+02 -0.21185587204E+02  0.59777938416E+02  0.51100000000E-03 0.  1.
         22    1    1    0    0    0  0.63166973303E+01  0.28790417802E+02  0.43786779792E+00  0.29478476056E+02  0.00000000000E+00 0.  1.
</event>
<event>
 5    1  0.3183396E-003  0.9118800E+02  0.7818608E-02  0.1130116E+00
         25   -1    0    0    0    0  0.00000000000E+00  0.00000000000E+00  0.99999998245E-14  0.12500000000E+03  0.12500000000E+03 0.  0.
        -11    1    3    3    0    0 -0.12277418190E+02 -0.26109710375E+02  0.38054286886E+02  0.47755426120E+02  0.51100000000E-03 0.  1.
         23    2    1    0    0    0  0.17520142314E+02  0.68986655200E+01  0.24210992381E+02  0.94328855177E+02  0.89203216278E+02 0.  0.
         11    1    3    3    0    0  0.29797560504E+02  0.33008375895E+02 -0.13843294504E+02  0.46573429057E+02  0.51100000000E-03 0. -1.
         22    1    1    0    0    0 -0.17520142314E+02 -0.68986655200E+01 -0.24210992381E+02  0.30671144823E+02  0.00000000000E+00 0. -1.
</event>
<event>
 5    1  0.3183396E-003  0.9118800E+02  0.7818608E-02  0.1130116E+00
         25   -1    0    0    0    0  0.00000000000E+00  0.00000000000E+00  0.99999998245E-14  0.12500000000E+03  0.12500000000E+03 0.  0.
        -11    1    3    3    0    0 -0.12790037035E+02 -0.36204687684E+00 -0.20904890703E+02  0.24509805810E+02  0.51100000000E-03 0. -1.
         23    2    1    0    0    0  0.41705377570E+01 -0.48248672351E+01  0.38256302164E+02  0.86215758558E+02  0.76999608047E+02 0.  0.
         11    1    3    3    0    0  0.16960574792E+02 -0.44628203583E+01  0.59161192866E+02  0.61705952747E+02  0.51100000000E-03 0.  1.
         22    1    1    0    0    0 -0.41705377570E+01  0.48248672351E+01 -0.38256302164E+02  0.38784241442E+02  0.00000000000E+00 0.  1.
</event>
<event>
 5    1  0.3183396E-003  0.9118800E+02  0.7818608E-02  0.1130116E+00
         25   -1    0    0    0    0  0.00000000000E+00  0.00000000000E+00  0.99999998245E-14  0.12500000000E+03  0.12500000000E+03 0.  0.
        -11    1    3    3    0    0 -0.66856293429E+01  0.36288061562E+02  0.73100113940E+01  0.37615918418E+02  0.51100000000E-03 0. -1.
         23    2    1    0    0    0  0.87529428456E+01 -0.22074302162E+02 -0.80801658787E+01  0.99916581074E+02  0.96716830327E+02 0.  0.
         11    1    3    3    0    0  0.15438572188E+02 -0.58362363723E+02 -0.15390177273E+02  0.62300662656E+02  0.51100000000E-03 0.  1.
         22    1    1    0    0    0 -0.87529428456E+01  0.22074302162E+02  0.80801658787E+01  0.25083418926E+02  0.00000000000E+00 0.  1.
</event>
<event>
 5    1  0.3183396E-003  0.9118800E+02  0.7818608E-02  0.1130116E+00
         25   -1    0    0    0    0  0.00000000000E+00  0.00000000000E+00  0.99999998245E-14  0.12500000000E+03  0.12500000000E+03 0.  0.
        -11    1    3    3    0    0  0.10105526044E+02 -0.38500649150E+02  0.14329307545E+02  0.42305445235E+02  0.51100000000E-03 0.  1.
         23    2    1    0    0    0 -0.55703981704E+01 -0.95994765541E+01 -0.27403690928E+02  0.95434114889E+02  0.90738793922E+02 0.  0.
         11    1    3    3    0    0 -0.15675924215E+02  0.28901172596E+02 -0.41732998473E+02  0.53128669654E+02  0.51100000000E-03 0. -1.
         22    1    1    0    0    0  0.55703981704E+01  0.95994765541E+01  0.27403690928E+02  0.29565885111E+02  0.00000000000E+00 0.  1.
</event>
<event>
 5    1  0.3183396E-003  0.9118800E+02  0.7818608E-02  0.1130116E+00
         25   -1    0    0    0    0  0.00000000000E+00  0.00000000000E+00  0.99999998245E-14  0.12500000000E+03  0.12500000000E+03 0.  0.
        -11    1    3    3    0    0  0.45231311409E+02  0.33625950892E+02  0.15824844087E+02  0.58540599552E+02  0.51100000000E-03 0. -1.
         23    2    1    0    0    0  0.17038405967E+02  0.84180100421E+01  0.20960402587E+02  0.96706738478E+02  0.92475318975E+02 0.  0.
         11    1    3    3    0    0 -0.28192905442E+02 -0.25207940850E+02  0.51355584994E+01  0.38166138926E+02  0.51100000000E-03 0.  1.
         22    1    1    0    0    0 -0.17038405967E+02 -0.84180100421E+01 -0.20960402587E+02  0.28293261522E+02  0.00000000000E+00 0. -1.
</event>
<event>
 5    1  0.3183396E-003  0.9118800E+02  0.7818608E-02  0.1130116E+00
         25   -1    0    0    0    0  0.00000000000E+00  0.00000000000E+00  0.99999998245E-14  0.12500000000E+03  0.12500000000E+03 0.  0.
        -11    1    3    3    0    0  0.21107792745E+02  0.41490188496E+01  0.29809879400E+02  0.36761150446E+02  0.51100000000E-03 0. -1.
         23    2    1    0    0    0  0.10702009927E+02  0.81601412869E+01 -0.27094051244E+02  0.94747586293E+02  0.89788064759E+02 0.  0.
         11    1    3    3    0    0 -0.10405782817E+02  0.40111224373E+01 -0.56903930644E+02  0.57986435847E+02  0.51100000000E-03 0.  1.
         22    1    1    0    0    0 -0.10702009927E+02 -0.81601412869E+01  0.27094051244E+02  0.30252413707E+02  0.00000000000E+00 0.  1.
</event>
<event>
 5    1  0.3183396E-003  0.9118800E+02  0.7818608E-02  0.1130116E+00
         25   -1    0    0    0    0  0.00000000000E+00  0.00000000000E+00  0.99999998245E-14  0.12500000000E+03  0.12500000000E+03 0.  0.
        -11    1    3    3    0    0 -0.23195362295E+02 -0.29785086711E+02  0.17659449409E+02  0.41677720380E+02  0.51100000000E-03 0.  1.
         23    2    1    0    0    0 -0.16880079022E+02 -0.23307711584E+02 -0.25970650363E+02  0.86235826239E+02  0.77032178729E+02 0.  0.
         11    1    3    3    0    0  0.63152832731E+01  0.64773751270E+01 -0.43630099772E+02  0.44558105859E+02  0.51100000000E-03 0. -1.
         22    1    1    0    0    0  0.16880079022E+02  0.23307711584E+02  0.25970650363E+02  0.38764173761E+02  0.00000000000E+00 0.  1.
</event>
<event>
 5    1  0.3183396E-003  0.9118800E+02  0.7818608E-02  0.1130116E+00
         25   -1    0    0    0    0  0.00000000000E+00  0.00000000000E+00  0.99999998245E-14  0.12500000000E+03  0.12500000000E+03 0.  0.
        -11    1    3    3    0    0 -0.11411723585E+02 -0.20901529426E+02  0.18830438933E+02  0.30359295088E+02  0.51100000000E-03 0. -1.
         23    2    1    0    0    0  0.35425572775E+02  0.94595414728E+01  0.39808265214E+01  0.88117739886E+02  0.80027713771E+02 0.  0.
         11    1    3    3    0    0  0.46837296360E+02  0.30361070899E+02 -0.14849612412E+02  0.57758444798E+02  0.51100000000E-03 0.  1.
         22    1    1    0    0    0 -0.35425572775E+02 -0.94595414728E+01 -0.39808265214E+01  0.36882260114E+02  0.00000000000E+00 0.  1.
</event>
<event>
 5    1  0.3183396E-003  0.9118800E+02  0.7818608E-02  0.1130116E+00
         25   -1    0    0    0    0  0.00000000000E+00  0.00000000000E+00  0.99999998245E-14  0.12500000000E+03  0.12500000000E+03 0.  0.
        -11    1    3    3    0    0  0.38971699516E+02 -0.21725457735E+02 -0.13952057926E+01  0.44640065820E+02  0.51100000000E-03 0.  1.
         23    2    1    0    0    0 -0.87851463168E+01 -0.24846222095E+02 -0.15362896379E+02  0.94495375214E+02  0.89436255531E+02 0.  0.
         11    1    3    3    0    0 -0.47756845833E+02 -0.31207643603E+01 -0.13967690586E+02  0.49855309393E+02  0.51100000000E-03 0. -1.
         22    1    1    0    0    0  0.87851463168E+01  0.24846222095E+02  0.15362896379E+02  0.30504624786E+02  0.00000000000E+00 0. -1.
</event>
<event>
 5    1  0.3183396E-003  0.9118800E+02  0.7818608E-02  0.1130116E+00
         25   -1    0    0    0    0  0.00000000000E+00  0.00000000000E+00  0.99999998245E-14  0.12500000000E+03  0.12500000000E+03 0.  0.
        -11    1    3    3    0    0  0.63561701503E+01  0.37489026150E+02  0.38651758038E+02  0.54219796941E+02  0.51100000000E-03 0.  1.
         23    2    1    0    0    0  0.24107742592E+02  0.10050034986E+02  0.12666915925E+02  0.95971785878E+02  0.91476480417E+02 0.  0.
         11    1    3    3    0    0  0.17751572441E+02 -0.27438991165E+02 -0.25984842112E+02  0.41751988936E+02  0.51100000000E-03 0. -1.
         22    1    1    0    0    0 -0.24107742592E+02 -0.10050034986E+02 -0.12666915925E+02  0.29028214122E+02  0.00000000000E+00 0. -1.
</event>
<event>
 5    1  0.3183396E-003  0.9118800E+02  0.7818608E-02  0.1130116E+00
         25   -1    0    0    0    0  0.00000000000E+00  0.00000000000E+00  0.99999998245E-14  0.12500000000E+03  0.12500000000E+03 0.  0.
        -11    1    3    3    0    0  0.10291884895E+02  0.18827888977E+02 -0.13763521840E+02  0.25492093514E+02  0.51100000000E-03 0.  1.
         23    2    1    0    0    0  0.82703964458E+01  0.78722615358E+01  0.41546571881E+02  0.81912999708E+02  0.69665270595E+02 0.  0.
         11    1    3    3    0    0 -0.20214884490E+01 -0.10955627441E+02  0.55310093721E+02  0.56420906195E+02  0.51100000000E-03 0. -1.
         22    1    1    0    0    0 -0.82703964458E+01 -0.78722615358E+01 -0.41546571881E+02  0.43087000292E+02  0.00000000000E+00 0. -1.
</event>
<event>
 5    1  0.3183396E-003  0.9118800E+02  0.7818608E-02  0.1130116E+00
         25   -1    0    0    0    0  0.00000000000E+00  0.00000000000E+00  0.99999998245E-14  0.12500000000E+03  0.12500000000E+03 0.  0.
        -11    1    3    3    0    0 -0.51146586949E+01  0.47341369004E+02  0.29182191630E+02  0.55847697010E+02  0.51100000000E-03 0.  1.
         23    2    1    0    0    0 -0.20106035013E+02  0.22275440393E+02  0.34102927026E+01  0.94799371116E+02  0.89860128973E+02 0.  0.
         11    1    3    3    0    0 -0.14991376318E+02 -0.25065928610E+02 -0.25771898928E+02  0.38951674106E+02  0.51100000000E-03 0. -1.
         22    1    1    0    0    0  0.20106035013E+02 -0.22275440393E+02 -0.34102927026E+01  0.30200628884E+02  0.00000000000E+00 0.  1.
</event>
<event>
 5    1  0.3183396E-003  0.9118800E+02  0.7818608E-02  0.1130116E+00
         25   -1    0    0    0    0  0.00000000000E+00  0.00000000000E+00  0.99999998245E-14  0.12500000000E+03  0.12500000000E+03 0.  0.
        -11    1    3    3    0    0  0.33337241635E+02  0.24955401721E+02 -0.35742970997E+02  0.54878991707E+02  0.51100000000E-03 0.  1.
         23    2    1    0    0    0  0.28195623635E+02  0.47326234476E+01  0.16502257881E+00  0.96409474484E+02  0.92072626882E+02 0.  0.
         11    1    3    3    0    0 -0.51416180001E+01 -0.20222778273E+02  0.35907993576E+02  0.41530482776E+02  0.51100000000E-03 0. -1.
         22    1    1    0    0    0 -0.28195623635E+02 -0.47326234476E+01 -0.16502257881E+00  0.28590525516E+02  0.00000000000E+00 0.  1.
</event>
<event>
 5    1  0.3183396E-003  0.9118800E+02  0.7818608E-02  0.1130116E+00
         25   -1    0    0    0    0  0.00000000000E+00  0.00000000000E+00  0.99999998245E-14  0.12500000000E+03  0.12500000000E+03 0.  0.
        -11    1    3    3    0    0  0.46677909246E+02 -0.19518240485E+00 -0.36599384868E+02  0.59315936144E+02  0.51100000000E-03 0.  1.
         23    2    1    0    0    0  0.18709681173E+02  0.13588136784E+02 -0.18645622363E+02  0.95295642338E+02  0.90547835891E+02 0.  0.
         11    1    3    3    0    0 -0.27968228073E+02  0.13783319188E+02  0.17953762505E+02  0.35979706193E+02  0.51100000000E-03 0. -1.
         22    1    1    0    0    0 -0.18709681173E+02 -0.13588136784E+02  0.18645622363E+02  0.29704357662E+02  0.00000000000E+00 0.  1.
</event>
<event>
 5    1  0.3183396E-003  0.9118800E+02  0.7818608E-02  0.1130116E+00
         25   -1    0    0    0    0  0.00000000000E+00  0.00000000000E+00  0.99999998245E-14  0.12500000000E+03  0.12500000000E+03 0.  0.
        -11    1    3    3    0    0  0.37062156898E+02 -0.11087009484E+02 -0.90420575447E+01  0.39727623364E+02  0.51100000000E-03 0. -1.
         23    2    1    0    0    0 -0.12701057988E+02 -0.12540025854E+02  0.20658992878E+02  0.97698661037E+02  0.93806531005E+02 0.  0.
         11    1    3    3    0    0 -0.49763214887E+02 -0.14530163697E+01  0.29701050423E+02  0.57971037673E+02  0.51100000000E-03 0.  1.
         22    1    1    0    0    0  0.12701057988E+02  0.12540025854E+02 -0.20658992878E+02  0.27301338963E+02  0.00000000000E+00 0.  1.
</event>
<event>
 5    1  0.3183396E-003  0.9118800E+02  0.7818608E-02  0.1130116E+00
         25   -1    0    0    0    0  0.00000000000E+00  0.00000000000E+00  0.99999998245E-14  0.12500000000E+03  0.12500000000E+03 0.  0.
        -11    1    3    3    0    0  0.21865252897E+00 -0.16338021561E+02  0.37852626958E+02  0.41228632349E+02  0.51100000000E-03 0. -1.
         23    2    1    0    0    0 -0.27025963106E+02  0.10278166312E+02 -0.15674053569E+01  0.96043133040E+02  0.91573922380E+02 0.  0.
         11    1    3    3    0    0 -0.27244615635E+02  0.26616187873E+02 -0.39420032315E+02  0.54814500691E+02  0.51100000000E-03 0.  1.
         22    1    1    0    0    0  0.27025963106E+02 -0.10278166312E+02  0.15674053569E+01  0.28956866960E+02  0.00000000000E+00 0.  1.
</event>
<event>
 5    1  0.3183396E-003  0.9118800E+02  0.7818608E-02  0.1130116E+00
         25   -1    0    0    0    0  0.00000000000E+00  0.00000000000E+00  0.99999998245E-14  0.12500000000E+03  0.12500000000E+03 0.  0.
        -11    1    3    3    0    0 -0.42468177008E+02 -0.22266751863E+02 -0.15947222786E+02  0.50533832348E+02  0.51100000000E-03 0.  1.
         23    2    1    0    0    0 -0.83093469325E+01  0.22915036552E+01 -0.29130030847E+02  0.94621472508E+02  0.89612321290E+02 0.  0.
         11    1    3    3    0    0  0.34158830076E+02  0.24558255518E+02 -0.13182808061E+02  0.44087640160E+02  0.51100000000E-03 0. -1.
         22    1    1    0    0    0  0.83093469325E+01 -0.22915036552E+01  0.29130030847E+02  0.30378527492E+02  0.00000000000E+00 0. -1.
</event>
<event>
 5    1  0.3183396E-003  0.9118800E+02  0.7818608E-02  0.1130116E+00
         25   -1    0    0    0    0  0.00000000000E+00  0.00000000000E+00  0.99999998245E-14  0.12500000000E+03  0.12500000000E+03 0.  0.
        -11    1    3    3    0    0  0.13238872341E+02 -0.26399912754E+02 -0.22770698021E+02  0.37292463353E+02  0.51100000000E-03 0. -1.
         23    2    1    0    0    0 -0.25198931759E+02 -0.42163115896E+01  0.14829355480E+02  0.95458956871E+02  0.90773009302E+02 0.  0.
         11    1    3    3    0    0 -0.38437804100E+02  0.22183601165E+02  0.37600053501E+02  0.58166493518E+02  0.51100000000E-03 0.  1.
         22    1    1    0    0    0  0.25198931759E+02  0.42163115896E+01 -0.14829355480E+02  0.29541043129E+02  0.00000000000E+00 0.  1.
</event>
<event>
 5    1  0.3183396E-003  0.9118800E+02  0.7818608E-02  0.1130116E+00
         25   -1    0    0    0    0  0.00000000000E+00  0.00000000000E+00  0.99999998245E-14  0.12500000000E+03  0.12500000000E+03 0.  0.
        -11    1    3    3    0    0 -0.23752492386E+02 -0.42498135966E+02 -0.18732726789E+02  0.52165002716E+02  0.51100000000E-03 0.  1.
         23    2    1    0    0    0  0.48184966890E+01 -0.98526221911E+01 -0.26575162376E+02  0.96250542097E+02  0.91856603053E+02 0.  0.
         11    1    3    3    0    0  0.28570989075E+02  0.32645513775E+02 -0.78424355870E+01  0.44085539382E+02  0.51100000000E-03 0. -1.
         22    1    1    0    0    0 -0.48184966890E+01  0.98526221911E+01  0.26575162376E+02  0.28749457903E+02  0.00000000000E+00 0.  1.
</event>
<event>
 5    1  0.3183396E-003  0.9118800E+02  0.7818608E-02  0.1130116E+00
         25   -1    0    0    0    0  0.00000000000E+00  0.00000000000E+00  0.99999998245E-14  0.12500000000E+03  0.12500000000E+03 0.  0.
        -11    1    3    3    0    0 -0.54917487876E+02 -0.98212198314E+01 -0.14033397069E+01  0.55806417160E+02  0.51100000000E-03 0.  1.
         23    2    1    0    0    0 -0.24276510613E+02  0.11071115843E+02  0.12657269799E+02  0.95468236553E+02  0.90785787093E+02 0.  0.
         11    1    3    3    0    0  0.30640977263E+02  0.20892335675E+02  0.14060609506E+02  0.39661819393E+02  0.51100000000E-03 0. -1.
         22    1    1    0    0    0  0.24276510613E+02 -0.11071115843E+02 -0.12657269799E+02  0.29531763447E+02  0.00000000000E+00 0.  1.
</event>
<event>
 5    1  0.3183396E-003  0.9118800E+02  0.7818608E-02  0.1130116E+00
         25   -1    0    0    0    0  0.00000000000E+00  0.00000000000E+00  0.99999998245E-14  0.12500000000E+03  0.12500000000E+03 0.  0.
        -11    1    3    3    0    0  0.18096845710E+02 -0.13006719545E+02 -0.26318654331E+02  0.34486840157E+02  0.51100000000E-03 0.  1.
         23    2    1    0    0    0 -0.24802672315E+02  0.93806834631E+01  0.11691100830E+02  0.96019806508E+02  0.91542075719E+02 0.  0.
         11    1    3    3    0    0 -0.42899518026E+02  0.22387403008E+02  0.38009755161E+02  0.61532966351E+02  0.51100000000E-03 0. -1.
         22    1    1    0    0    0  0.24802672315E+02 -0.93806834631E+01 -0.11691100830E+02  0.28980193492E+02  0.00000000000E+00 0. -1.
</event>
<event>
 5    1  0.3183396E-003  0.9118800E+02  0.7818608E-02  0.1130116E+00
         25   -1    0    0    0    0  0.00000000000E+00  0.00000000000E+00  0.99999998245E-14  0.12500000000E+03  0.12500000000E+03 0.  0.
        -11    1    3    3    0    0 -0.44058430876E+02 -0.16119096467E+02  0.90608536699E+01  0.47781478333E+02  0.51100000000E-03 0. -1.
         23    2    1    0    0    0 -0.15507474613E+02  0.20751644578E+02 -0.86857063924E+01  0.97676859312E+02  0.93777475056E+02 0.  0.
         11    1    3    3    0    0  0.28550956263E+02  0.36870741044E+02 -0.17746560062E+02  0.49895380979E+02  0.51100000000E-03 0.  1.
         22    1    1    0    0    0  0.15507474613E+02 -0.20751644578E+02  0.86857063924E+01  0.27323140688E+02  0.00000000000E+00 0.  1.
</event>
<event>
 5    1  0.3183396E-003  0.9118800E+02  0.7818608E-02  0.1130116E+00
         25   -1    0    0    0    0  0.00000000000E+00  0.00000000000E+00  0.99999998245E-14  0.12500000000E+03  0.12500000000E+03 0.  0.
        -11    1    3    3    0    0  0.11026407921E+02  0.26138800361E+02 -0.44396721496E+02  0.52686691258E+02  0.51100000000E-03 0. -1.
         23    2    1    0    0    0  0.27985813182E+02  0.65789407436E+01 -0.12811488747E+02  0.93525844814E+02  0.88070773832E+02 0.  0.
         11    1    3    3    0    0  0.16959405261E+02 -0.19559859617E+02  0.31585232749E+02  0.40839153555E+02  0.51100000000E-03 0.  1.
         22    1    1    0    0    0 -0.27985813182E+02 -0.65789407436E+01  0.12811488747E+02  0.31474155186E+02  0.00000000000E+00 0. -1.
</event>
<event>
 5    1  0.3183396E-003  0.9118800E+02  0.7818608E-02  0.1130116E+00
         25   -1    0    0    0    0  0.00000000000E+00  0.00000000000E+00  0.99999998245E-14  0.12500000000E+03  0.12500000000E+03 0.  0.
        -11    1    3    3    0    0  0.38935420224E+02  0.24372071790E+02  0.34076889698E+01  0.46060581583E+02  0.51100000000E-03 0.  1.
         23    2    1    0    0    0 -0.43936882753E+01  0.19355603982E+02  0.23631238684E+02  0.94139356068E+02  0.88937275745E+02 0.  0.
         11    1    3    3    0    0 -0.43329108499E+02 -0.50164678086E+01  0.20223549715E+02  0.48078774485E+02  0.51100000000E-03 0. -1.
         22    1    1    0    0    0  0.43936882753E+01 -0.19355603982E+02 -0.23631238684E+02  0.30860643932E+02  0.00000000000E+00 0.  1.
</event>
<event>
 5    1  0.3183396E-003  0.9118800E+02  0.7818608E-02  0.1130116E+00
         25   -1    0    0    0    0  0.00000000000E+00  0.00000000000E+00  0.99999998245E-14  0.12500000000E+03  0.12500000000E+03 0.  0.
        -11    1    3    3    0    0  0.42591527402E+02  0.36358811381E+02  0.26466127676E+02  0.61939141792E+02  0.51100000000E-03 0. -1.
         23    2    1    0    0    0  0.11411288639E+02  0.15440146776E+02  0.51216307750E+01  0.10512924907E+03  0.10323425917E+03 0.  0.
         11    1    3    3    0    0 -0.31180238764E+02 -0.20918664604E+02 -0.21344496901E+02  0.43190107275E+02  0.51100000000E-03 0.  1.
         22    1    1    0    0    0 -0.11411288639E+02 -0.15440146776E+02 -0.51216307750E+01  0.19870750934E+02  0.00000000000E+00 0. -1.
</event>
<event>
 5    1  0.3183396E-003  0.9118800E+02  0.7818608E-02  0.1130116E+00
         25   -1    0    0    0    0  0.00000000000E+00  0.00000000000E+00  0.99999998245E-14  0.12500000000E+03  0.12500000000E+03 0.  0.
        -11    1    3    3    0    0 -0.13102328947E+02 -0.44075725817E+02  0.30080450105E+02  0.54947011828E+02  0.51100000000E-03 0.  1.
         23    2    1    0    0    0 -0.21782698534E+02 -0.76945367397E+01  0.21760081761E+02  0.93263695720E+02  0.87697912918E+02 0.  0.
         11    1    3    3    0    0 -0.86803695876E+01  0.36381189077E+02 -0.83203683437E+01  0.38316683892E+02  0.51100000000E-03 0. -1.
         22    1    1    0    0    0  0.21782698534E+02  0.76945367397E+01 -0.21760081761E+02  0.31736304280E+02  0.00000000000E+00 0.  1.
</event>
<event>
 5    1  0.3183396E-003  0.9118800E+02  0.7818608E-02  0.1130116E+00
         25   -1    0    0    0    0  0.00000000000E+00  0.00000000000E+00  0.99999998245E-14  0.12500000000E+03  0.12500000000E+03 0.  0.
        -11    1    3    3    0    0  0.26542966408E+01  0.58227030408E+02  0.43437835645E+01  0.58449130162E+02  0.51100000000E-03 0. -1.
         23    2    1    0    0    0  0.14124850012E+02  0.30869790930E+02  0.11840707106E+02  0.89046450458E+02  0.81465407472E+02 0.  0.
         11    1    3    3    0    0  0.11470553371E+02 -0.27357239478E+02  0.74969235412E+01  0.30597320296E+02  0.51100000000E-03 0.  1.
         22    1    1    0    0    0 -0.14124850012E+02 -0.30869790930E+02 -0.11840707106E+02  0.35953549542E+02  0.00000000000E+00 0. -1.
</event>
<event>
 5    1  0.3183396E-003  0.9118800E+02  0.7818608E-02  0.1130116E+00
         25   -1    0    0    0    0  0.00000000000E+00  0.00000000000E+00  0.99999998245E-14  0.12500000000E+03  0.12500000000E+03 0.  0.
        -11    1    3    3    0    0  0.12135942543E+02 -0.16605742583E+02 -0.32454768993E+02  0.38423219787E+02  0.51100000000E-03 0.  1.
         23    2    1    0    0    0 -0.87149002002E+01 -0.19840522048E+02  0.20340661076E+02  0.95278992385E+02  0.90524847950E+02 0.  0.
         11    1    3    3    0    0 -0.20850842744E+02 -0.32347794648E+01  0.52795430069E+02  0.56855772598E+02  0.51100000000E-03 0. -1.
         22    1    1    0    0    0  0.87149002002E+01  0.19840522048E+02 -0.20340661076E+02  0.29721007615E+02  0.00000000000E+00 0. -1.
</event>
<event>
 5    1  0.3183396E-003  0.9118800E+02  0.7818608E-02  0.1130116E+00
         25   -1    0    0    0    0  0.00000000000E+00  0.00000000000E+00  0.99999998245E-14  0.12500000000E+03  0.12500000000E+03 0.  0.
        -11    1    3    3    0    0 -0.19890538704E+02 -0.54747332703E+01  0.29638789883E+02  0.36111827707E+02  0.51100000000E-03 0.  1.
         23    2    1    0    0    0  0.20223237994E+02 -0.42734050220E+01 -0.17426727696E+02  0.97964242500E+02  0.94159761177E+02 0.  0.
         11    1    3    3    0    0  0.40113776698E+02  0.12013282483E+01 -0.47065517579E+02  0.61852414793E+02  0.51100000000E-03 0. -1.
         22    1    1    0    0    0 -0.20223237994E+02  0.42734050220E+01  0.17426727696E+02  0.27035757500E+02  0.00000000000E+00 0. -1.
</event>
<event>
 5    1  0.3183396E-003  0.9118800E+02  0.7818608E-02  0.1130116E+00
         25   -1    0    0    0    0  0.00000000000E+00  0.00000000000E+00  0.99999998245E-14  0.12500000000E+03  0.12500000000E+03 0.  0.
        -11    1    3    3    0    0  0.38882412870E+02  0.72648795216E+00 -0.86208103658E+01  0.39833254788E+02  0.51100000000E-03 0.  1.
         23    2    1    0    0    0 -0.12850065034E+01  0.12745366793E+02  0.27171629027E+02  0.94960142471E+02  0.90083492482E+02 0.  0.
         11    1    3    3    0    0 -0.40167419374E+02  0.12018878841E+02  0.35792439392E+02  0.55126887683E+02  0.51100000000E-03 0. -1.
         22    1    1    0    0    0  0.12850065034E+01 -0.12745366793E+02 -0.27171629027E+02  0.30039857529E+02  0.00000000000E+00 0. -1.
</event>
<event>
 5    1  0.3183396E-003  0.9118800E+02  0.7818608E-02  0.1130116E+00
         25   -1    0    0    0    0  0.00000000000E+00  0.00000000000E+00  0.99999998245E-14  0.12500000000E+03  0.12500000000E+03 0.  0.
        -11    1    3    3    0    0 -0.29952020186E+02  0.17824293185E+02  0.89019520302E+01  0.35973235759E+02  0.51100000000E-03 0.  1.
         23    2    1    0    0    0  0.11335142118E+02  0.15979993965E+02 -0.27627021878E+02  0.91131164888E+02  0.84603730545E+02 0.  0.
         11    1    3    3    0    0  0.41287162304E+02 -0.18442992203E+01 -0.36528973909E+02  0.55157929129E+02  0.51100000000E-03 0. -1.
         22    1    1    0    0    0 -0.11335142118E+02 -0.15979993965E+02  0.27627021878E+02  0.33868835112E+02  0.00000000000E+00 0. -1.
</event>
<event>
 5    1  0.3183396E-003  0.9118800E+02  0.7818608E-02  0.1130116E+00
         25   -1    0    0    0    0  0.00000000000E+00  0.00000000000E+00  0.99999998245E-14  0.12500000000E+03  0.12500000000E+03 0.  0.
        -11    1    3    3    0    0  0.29467092932E+02  0.20538588578E+01  0.38984190242E+02  0.48911092721E+02  0.51100000000E-03 0.  1.
         23    2    1    0    0    0 -0.10092587959E+02 -0.15625229855E+02  0.23730579331E+02  0.94847909938E+02  0.89927623590E+02 0.  0.
         11    1    3    3    0    0 -0.39559680891E+02 -0.17679088713E+02 -0.15253610912E+02  0.45936817217E+02  0.51100000000E-03 0. -1.
         22    1    1    0    0    0  0.10092587959E+02  0.15625229855E+02 -0.23730579331E+02  0.30152090062E+02  0.00000000000E+00 0. -1.
</event>
<event>
 5    1  0.3183396E-003  0.9118800E+02  0.7818608E-02  0.1130116E+00
         25   -1    0    0    0    0  0.00000000000E+00  0.00000000000E+00  0.99999998245E-14  0.12500000000E+03  0.12500000000E+03 0.  0.
        -11    1    3    3    0    0 -0.23639141934E+02 -0.12819392313E+02  0.26491825401E+02  0.37748677646E+02  0.51100000000E-03 0. -1.
         23    2    1    0    0    0  0.15734600150E+02 -0.17881356881E+02 -0.16314954867E+02  0.96129629062E+02  0.91691914940E+02 0.  0.
         11    1    3    3    0    0  0.39373742085E+02 -0.50619645687E+01 -0.42806780268E+02  0.58380951416E+02  0.51100000000E-03 0.  1.
         22    1    1    0    0    0 -0.15734600150E+02  0.17881356881E+02  0.16314954867E+02  0.28870370938E+02  0.00000000000E+00 0.  1.
</event>
<event>
 5    1  0.3183396E-003  0.9118800E+02  0.7818608E-02  0.1130116E+00
         25   -1    0    0    0    0  0.00000000000E+00  0.00000000000E+00  0.99999998245E-14  0.12500000000E+03  0.12500000000E+03 0.  0.
        -11    1    3    3    0    0  0.27357502519E+02  0.98832737648E+01 -0.19218295522E+02  0.34863375158E+02  0.51100000000E-03 0.  1.
         23    2    1    0    0    0 -0.58341741942E+01  0.30189196211E+01  0.29814391776E+02  0.94470515543E+02  0.89401503823E+02 0.  0.
         11    1    3    3    0    0 -0.33191676713E+02 -0.68643541436E+01  0.49032687299E+02  0.59607140385E+02  0.51100000000E-03 0. -1.
         22    1    1    0    0    0  0.58341741942E+01 -0.30189196211E+01 -0.29814391776E+02  0.30529484457E+02  0.00000000000E+00 0. -1.
</event>
<event>
 5    1  0.3183396E-003  0.9118800E+02  0.7818608E-02  0.1130116E+00
         25   -1    0    0    0    0  0.00000000000E+00  0.00000000000E+00  0.99999998245E-14  0.12500000000E+03  0.12500000000E+03 0.  0.
        -11    1    3    3    0    0  0.53086018403E+01  0.22729051659E+02 -0.37986139737E+02  0.44584053822E+02  0.51100000000E-03 0. -1.
         23    2    1    0    0    0  0.94346542868E+00 -0.23883314771E+02 -0.15424659484E+02  0.96553155330E+02  0.92267485240E+02 0.  0.
         11    1    3    3    0    0 -0.43651364116E+01 -0.46612366430E+02  0.22561480253E+02  0.51969101508E+02  0.51100000000E-03 0.  1.
         22    1    1    0    0    0 -0.94346542868E+00  0.23883314771E+02  0.15424659484E+02  0.28446844670E+02  0.00000000000E+00 0.  1.
</event>
<event>
 5    1  0.3183396E-003  0.9118800E+02  0.7818608E-02  0.1130116E+00
         25   -1    0    0    0    0  0.00000000000E+00  0.00000000000E+00  0.99999998245E-14  0.12500000000E+03  0.12500000000E+03 0.  0.
        -11    1    3    3    0    0 -0.32935029552E+02  0.39535991696E+02  0.26825920681E+01  0.51526761119E+02  0.51100000000E-03 0. -1.
         23    2    1    0    0    0  0.77397192062E+01  0.26793122639E+02 -0.89513152581E+01  0.95710057716E+02  0.91118134469E+02 0.  0.
         11    1    3    3    0    0  0.40674748758E+02 -0.12742869057E+02 -0.11633907326E+02  0.44183296598E+02  0.51100000000E-03 0.  1.
         22    1    1    0    0    0 -0.77397192062E+01 -0.26793122639E+02  0.89513152581E+01  0.29289942284E+02  0.00000000000E+00 0.  1.
</event>
<event>
 5    1  0.3183396E-003  0.9118800E+02  0.7818608E-02  0.1130116E+00
         25   -1    0    0    0    0  0.00000000000E+00  0.00000000000E+00  0.99999998245E-14  0.12500000000E+03  0.12500000000E+03 0.  0.
        -11    1    3    3    0    0 -0.23418002254E+02  0.29322060972E+02 -0.11309947535E+02  0.39193124432E+02  0.51100000000E-03 0. -1.
         23    2    1    0    0    0  0.65254575646E+01  0.54204976558E+01  0.28987389312E+02  0.94796819201E+02  0.89856579060E+02 0.  0.
         11    1    3    3    0    0  0.29943459818E+02 -0.23901563317E+02  0.40297336846E+02  0.55603694770E+02  0.51100000000E-03 0.  1.
         22    1    1    0    0    0 -0.65254575646E+01 -0.54204976558E+01 -0.28987389312E+02  0.30203180799E+02  0.00000000000E+00 0. -1.
</event>
<event>
 5    1  0.3183396E-003  0.9118800E+02  0.7818608E-02  0.1130116E+00
         25   -1    0    0    0    0  0.00000000000E+00  0.00000000000E+00  0.99999998245E-14  0.12500000000E+03  0.12500000000E+03 0.  0.
        -11    1    3    3    0    0  0.12288251677E+02  0.16993029389E+02 -0.58364244544E+02  0.62017329985E+02  0.51100000000E-03 0.  1.
         23    2    1    0    0    0  0.35332569935E+01  0.12649209392E+02 -0.25320996917E+02  0.96475636938E+02  0.92162406840E+02 0.  0.
         11    1    3    3    0    0 -0.87549946840E+01 -0.43438199971E+01  0.33043247627E+02  0.34458306953E+02  0.51100000000E-03 0. -1.
         22    1    1    0    0    0 -0.35332569935E+01 -0.12649209392E+02  0.25320996917E+02  0.28524363062E+02  0.00000000000E+00 0.  1.
</event>
<event>
 5    1  0.3183396E-003  0.9118800E+02  0.7818608E-02  0.1130116E+00
         25   -1    0    0    0    0  0.00000000000E+00  0.00000000000E+00  0.99999998245E-14  0.12500000000E+03  0.12500000000E+03 0.  0.
        -11    1    3    3    0    0  0.26428011623E+02  0.41385182095E+01  0.19043130374E+02  0.32836076898E+02  0.51100000000E-03 0. -1.
         23    2    1    0    0    0 -0.24987179602E+02 -0.11986336557E+01 -0.16016969483E+02  0.95295805371E+02  0.90548060956E+02 0.  0.
         11    1    3    3    0    0 -0.51415191225E+02 -0.53371518652E+01 -0.35060099857E+02  0.62459728474E+02  0.51100000000E-03 0.  1.
         22    1    1    0    0    0  0.24987179602E+02  0.11986336557E+01  0.16016969483E+02  0.29704194629E+02  0.00000000000E+00 0.  1.
</event>
<event>
 5    1  0.3183396E-003  0.9118800E+02  0.7818608E-02  0.1130116E+00
         25   -1    0    0    0    0  0.00000000000E+00  0.00000000000E+00  0.99999998245E-14  0.12500000000E+03  0.12500000000E+03 0.  0.
        -11    1    3    3    0    0 -0.44299122666E+02  0.29847030204E+02 -0.28554373954E+01  0.53492158341E+02  0.51100000000E-03 0. -1.
         23    2    1    0    0    0 -0.27932862447E+02 -0.47664479772E+01 -0.14034268578E+02  0.93378416780E+02  0.87861278132E+02 0.  0.
         11    1    3    3    0    0  0.16366260219E+02 -0.34613478182E+02 -0.11178831183E+02  0.39886258439E+02  0.51100000000E-03 0.  1.
         22    1    1    0    0    0  0.27932862447E+02  0.47664479772E+01  0.14034268578E+02  0.31621583220E+02  0.00000000000E+00 0. -1.
</event>
<event>
 5    1  0.3183396E-003  0.9118800E+02  0.7818608E-02  0.1130116E+00
         25   -1    0    0    0    0  0.00000000000E+00  0.00000000000E+00  0.99999998245E-14  0.12500000000E+03  0.12500000000E+03 0.  0.
        -11    1    3    3    0    0 -0.40108834529E+02  0.41963932414E+02  0.72851681050E+01  0.58504392189E+02  0.51100000000E-03 0. -1.
         23    2    1    0    0    0 -0.16447204549E+02  0.13338077366E+02  0.18053353244E+02  0.97173063254E+02  0.93103522026E+02 0.  0.
         11    1    3    3    0    0  0.23661629980E+02 -0.28625855047E+02  0.10768185139E+02  0.38668671065E+02  0.51100000000E-03 0.  1.
         22    1    1    0    0    0  0.16447204549E+02 -0.13338077366E+02 -0.18053353244E+02  0.27826936746E+02  0.00000000000E+00 0. -1.
</event>
<event>
 5    1  0.3183396E-003  0.9118800E+02  0.7818608E-02  0.1130116E+00
         25   -1    0    0    0    0  0.00000000000E+00  0.00000000000E+00  0.99999998245E-14  0.12500000000E+03  0.12500000000E+03 0.  0.
        -11    1    3    3    0    0 -0.14317088886E+02  0.20391140214E+02  0.35744731025E+02  0.43571360201E+02  0.51100000000E-03 0.  1.
         23    2    1    0    0    0  0.21009827344E+02 -0.92078019559E+01  0.25340656315E+02  0.90818933247E+02  0.84141151120E+02 0.  0.
         11    1    3    3    0    0  0.35326916230E+02 -0.29598942170E+02 -0.10404074710E+02  0.47247573046E+02  0.51100000000E-03 0. -1.
         22    1    1    0    0    0 -0.21009827344E+02  0.92078019559E+01 -0.25340656315E+02  0.34181066753E+02  0.00000000000E+00 0. -1.
</event>
<event>
 5    1  0.3183396E-003  0.9118800E+02  0.7818608E-02  0.1130116E+00
         25   -1    0    0    0    0  0.00000000000E+00  0.00000000000E+00  0.99999998245E-14  0.12500000000E+03  0.12500000000E+03 0.  0.
        -11    1    3    3    0    0 -0.17055150934E+02  0.42529165387E+02 -0.74521814506E+01  0.46423518722E+02  0.51100000000E-03 0.  1.
         23    2    1    0    0    0 -0.18488711752E+02 -0.81964608821E+01 -0.17618680046E+02  0.98177764451E+02  0.94442792805E+02 0.  0.
         11    1    3    3    0    0 -0.14335608188E+01 -0.50725626269E+02 -0.10166498595E+02  0.51754245729E+02  0.51100000000E-03 0. -1.
         22    1    1    0    0    0  0.18488711752E+02  0.81964608821E+01  0.17618680046E+02  0.26822235549E+02  0.00000000000E+00 0. -1.
</event>
<event>
 5    1  0.3183396E-003  0.9118800E+02  0.7818608E-02  0.1130116E+00
         25   -1    0    0    0    0  0.00000000000E+00  0.00000000000E+00  0.99999998245E-14  0.12500000000E+03  0.12500000000E+03 0.  0.
        -11    1    3    3    0    0 -0.18775835919E+02  0.37084761373E+02 -0.32781720874E+02  0.52938197592E+02  0.51100000000E-03 0. -1.
         23    2    1    0    0    0  0.82842873401E+01  0.28166842591E+02 -0.99758992651E+00  0.95623212838E+02  0.90998918727E+02 0.  0.
         11    1    3    3    0    0  0.27060123259E+02 -0.89179187814E+01  0.31784130948E+02  0.42685015246E+02  0.51100000000E-03 0.  1.
         22    1    1    0    0    0 -0.82842873401E+01 -0.28166842591E+02  0.99758992651E+00  0.29376787162E+02  0.00000000000E+00 0.  1.
</event>
<event>
 5    1  0.3183396E-003  0.9118800E+02  0.7818608E-02  0.1130116E+00
         25   -1    0    0    0    0  0.00000000000E+00  0.00000000000E+00  0.99999998245E-14  0.12500000000E+03  0.12500000000E+03 0.  0.
        -11    1    3    3    0    0  0.14461414470E+02  0.24460222892E+02 -0.19837923011E+02  0.34655132405E+02  0.51100000000E-03 0. -1.
         23    2    1    0    0    0 -0.23334123336E+02 -0.17565627381E+02  0.30490814309E+01  0.95634553047E+02  0.91014494790E+02 0.  0.
         11    1    3    3    0    0 -0.37795537806E+02 -0.42025850273E+02  0.22887004442E+02  0.60979420642E+02  0.51100000000E-03 0.  1.
         22    1    1    0    0    0  0.23334123336E+02  0.17565627381E+02 -0.30490814309E+01  0.29365446953E+02  0.00000000000E+00 0.  1.
</event>
<event>
 5    1  0.3183396E-003  0.9118800E+02  0.7818608E-02  0.1130116E+00
         25   -1    0    0    0    0  0.00000000000E+00  0.00000000000E+00  0.99999998245E-14  0.12500000000E+03  0.12500000000E+03 0.  0.
        -11    1    3    3    0    0 -0.17801541499E+02 -0.40472446695E+02 -0.35459779267E+02  0.56677242057E+02  0.51100000000E-03 0.  1.
         23    2    1    0    0    0 -0.42019460107E+01 -0.28771549302E+02 -0.56043964228E+00  0.95917832060E+02  0.91402724330E+02 0.  0.
         11    1    3    3    0    0  0.13599595488E+02  0.11700897393E+02  0.34899339625E+02  0.39240590003E+02  0.51100000000E-03 0. -1.
         22    1    1    0    0    0  0.42019460107E+01  0.28771549302E+02  0.56043964228E+00  0.29082167940E+02  0.00000000000E+00 0.  1.
</event>
<event>
 5    1  0.3183396E-003  0.9118800E+02  0.7818608E-02  0.1130116E+00
         25   -1    0    0    0    0  0.00000000000E+00  0.00000000000E+00  0.99999998245E-14  0.12500000000E+03  0.12500000000E+03 0.  0.
        -11    1    3    3    0    0 -0.38122530759E+02  0.44385746221E+02 -0.24848374061E+01  0.58562754685E+02  0.51100000000E-03 0. -1.
         23    2    1    0    0    0 -0.19779029725E+02  0.16574670015E+02  0.13899248224E+02  0.95689271518E+02  0.91089614553E+02 0.  0.
         11    1    3    3    0    0  0.18343501034E+02 -0.27811076206E+02  0.16384085630E+02  0.37126516833E+02  0.51100000000E-03 0.  1.
         22    1    1    0    0    0  0.19779029725E+02 -0.16574670015E+02 -0.13899248224E+02  0.29310728482E+02  0.00000000000E+00 0. -1.
</event>
<event>
 5    1  0.3183396E-003  0.9118800E+02  0.7818608E-02  0.1130116E+00
         25   -1    0    0    0    0  0.00000000000E+00  0.00000000000E+00  0.99999998245E-14  0.12500000000E+03  0.12500000000E+03 0.  0.
        -11    1    3    3    0    0  0.30119688380E+02  0.51391381844E+01  0.15914433814E+02  0.34451060554E+02  0.51100000000E-03 0.  1.
         23    2    1    0    0    0 -0.16573687067E+02 -0.20783761354E+02 -0.13245617168E+02  0.95299861731E+02  0.90553660516E+02 0.  0.
         11    1    3    3    0    0 -0.46693375447E+02 -0.25922899539E+02 -0.29160050982E+02  0.60848801177E+02  0.51100000000E-03 0. -1.
         22    1    1    0    0    0  0.16573687067E+02  0.20783761354E+02  0.13245617168E+02  0.29700138269E+02  0.00000000000E+00 0. -1.
</event>
<event>
 5    1  0.3183396E-003  0.9118800E+02  0.7818608E-02  0.1130116E+00
         25   -1    0    0    0    0  0.00000000000E+00  0.00000000000E+00  0.99999998245E-14  0.12500000000E+03  0.12500000000E+03 0.  0.
        -11    1    3    3    0    0 -0.42865995513E+02 -0.32920881196E+01  0.35029383222E+02  0.55456190860E+02  0.51100000000E-03 0.  1.
         23    2    1    0    0    0 -0.24625712179E+02  0.15432103256E+02  0.45917677170E+01  0.95577902148E+02  0.90936656729E+02 0.  0.
         11    1    3    3    0    0  0.18240283334E+02  0.18724191376E+02 -0.30437615505E+02  0.40121711288E+02  0.51100000000E-03 0. -1.
         22    1    1    0    0    0  0.24625712179E+02 -0.15432103256E+02 -0.45917677170E+01  0.29422097852E+02  0.00000000000E+00 0.  1.
</event>
<event>
 5    1  0.3183396E-003  0.9118800E+02  0.7818608E-02  0.1130116E+00
         25   -1    0    0    0    0  0.00000000000E+00  0.00000000000E+00  0.99999998245E-14  0.12500000000E+03  0.12500000000E+03 0.  0.
        -11    1    3    3    0    0  0.16551188985E+02 -0.25064112473E+02  0.39814407044E+02  0.49873225276E+02  0.51100000000E-03 0.  1.
         23    2    1    0    0    0 -0.58213724667E+01 -0.28951254238E+02  0.27656929854E+00  0.95467983647E+02  0.90785438875E+02 0.  0.
         11    1    3    3    0    0 -0.22372561452E+02 -0.38871417643E+01 -0.39537837746E+02  0.45594758371E+02  0.51100000000E-03 0. -1.
         22    1    1    0    0    0  0.58213724667E+01  0.28951254238E+02 -0.27656929854E+00  0.29532016353E+02  0.00000000000E+00 0.  1.
</event>
<event>
 5    1  0.3183396E-003  0.9118800E+02  0.7818608E-02  0.1130116E+00
         25   -1    0    0    0    0  0.00000000000E+00  0.00000000000E+00  0.99999998245E-14  0.12500000000E+03  0.12500000000E+03 0.  0.
        -11    1    3    3    0    0 -0.25639444703E+02  0.60982540964E+01  0.23677604360E+02  0.35428784571E+02  0.51100000000E-03 0.  1.
         23    2    1    0    0    0  0.13924464432E+01 -0.84086507050E+01 -0.28112774525E+02  0.95623608029E+02  0.90999461576E+02 0.  0.
         11    1    3    3    0    0  0.27031891146E+02 -0.14506904801E+02 -0.51790378884E+02  0.60194823458E+02  0.51100000000E-03 0. -1.
         22    1    1    0    0    0 -0.13924464432E+01  0.84086507050E+01  0.28112774525E+02  0.29376391971E+02  0.00000000000E+00 0. -1.
</event>
<event>
 5    1  0.3183396E-003  0.9118800E+02  0.7818608E-02  0.1130116E+00
         25   -1    0    0    0    0  0.00000000000E+00  0.00000000000E+00  0.99999998245E-14  0.12500000000E+03  0.12500000000E+03 0.  0.
        -11    1    3    3    0    0 -0.26471971049E+02  0.27212244406E+02  0.13496602593E+02  0.40291807836E+02  0.51100000000E-03 0.  1.
         23    2    1    0    0    0  0.63796674830E+01  0.42800228541E+01 -0.26803070644E+02  0.97117687528E+02  0.93029145337E+02 0.  0.
         11    1    3    3    0    0  0.32851638532E+02 -0.22932221552E+02 -0.40299673237E+02  0.56825879693E+02  0.51100000000E-03 0. -1.
         22    1    1    0    0    0 -0.63796674830E+01 -0.42800228541E+01  0.26803070644E+02  0.27882312472E+02  0.00000000000E+00 0. -1.
</event>
<event>
 5    1  0.3183396E-003  0.9118800E+02  0.7818608E-02  0.1130116E+00
         25   -1    0    0    0    0  0.00000000000E+00  0.00000000000E+00  0.99999998245E-14  0.12500000000E+03  0.12500000000E+03 0.  0.
        -11    1    3    3    0    0 -0.34984935951E+02  0.34773446689E+02 -0.29876203556E+02  0.57669106784E+02  0.51100000000E-03 0.  1.
         23    2    1    0    0    0  0.43955687394E-01  0.22060117010E+02 -0.17187096823E+02  0.97034896893E+02  0.92917835872E+02 0.  0.
         11    1    3    3    0    0  0.35028891638E+02 -0.12713329679E+02  0.12689106732E+02  0.39365790109E+02  0.51100000000E-03 0. -1.
         22    1    1    0    0    0 -0.43955687394E-01 -0.22060117010E+02  0.17187096823E+02  0.27965103107E+02  0.00000000000E+00 0.  1.
</event>
<event>
 5    1  0.3183396E-003  0.9118800E+02  0.7818608E-02  0.1130116E+00
         25   -1    0    0    0    0  0.00000000000E+00  0.00000000000E+00  0.99999998245E-14  0.12500000000E+03  0.12500000000E+03 0.  0.
        -11    1    3    3    0    0  0.10500841817E+02  0.39568061155E+02  0.41117704273E+02  0.58022105678E+02  0.51100000000E-03 0.  1.
         23    2    1    0    0    0 -0.10146531783E+02  0.23750690408E+02  0.13897528611E+02  0.95671026210E+02  0.91064573531E+02 0.  0.
         11    1    3    3    0    0 -0.20647373599E+02 -0.15817370747E+02 -0.27220175661E+02  0.37648920532E+02  0.51100000000E-03 0. -1.
         22    1    1    0    0    0  0.10146531783E+02 -0.23750690408E+02 -0.13897528611E+02  0.29328973790E+02  0.00000000000E+00 0.  1.
</event>
<event>
 5    1  0.3183396E-003  0.9118800E+02  0.7818608E-02  0.1130116E+00
         25   -1    0    0    0    0  0.00000000000E+00  0.00000000000E+00  0.99999998245E-14  0.12500000000E+03  0.12500000000E+03 0.  0.
        -11    1    3    3    0    0  0.22607048813E+02  0.13963900401E+02 -0.20409928515E+02  0.33505736117E+02  0.51100000000E-03 0.  1.
         23    2    1    0    0    0 -0.20887988617E+02 -0.19885614855E+02  0.73809897792E+01  0.95230472682E+02  0.90457825369E+02 0.  0.
         11    1    3    3    0    0 -0.43495037430E+02 -0.33849515257E+02  0.27790918294E+02  0.61724736565E+02  0.51100000000E-03 0. -1.
         22    1    1    0    0    0  0.20887988617E+02  0.19885614855E+02 -0.73809897792E+01  0.29769527318E+02  0.00000000000E+00 0. -1.
</event>
<event>
 5    1  0.3183396E-003  0.9118800E+02  0.7818608E-02  0.1130116E+00
         25   -1    0    0    0    0  0.00000000000E+00  0.00000000000E+00  0.99999998245E-14  0.12500000000E+03  0.12500000000E+03 0.  0.
        -11    1    3    3    0    0 -0.41266036772E+02  0.40230629366E+02  0.15125047759E+02  0.59583188904E+02  0.51100000000E-03 0. -1.
         23    2    1    0    0    0 -0.28457122974E+02  0.95343734868E+01  0.10700001398E+02  0.93137762859E+02  0.87518230756E+02 0.  0.
         11    1    3    3    0    0  0.12808913798E+02 -0.30696255879E+02 -0.44250463607E+01  0.33554573954E+02  0.51100000000E-03 0.  1.
         22    1    1    0    0    0  0.28457122974E+02 -0.95343734868E+01 -0.10700001398E+02  0.31862237141E+02  0.00000000000E+00 0. -1.
</event>
<event>
 5    1  0.3183396E-003  0.9118800E+02  0.7818608E-02  0.1130116E+00
         25   -1    0    0    0    0  0.00000000000E+00  0.00000000000E+00  0.99999998245E-14  0.12500000000E+03  0.12500000000E+03 0.  0.
        -11    1    3    3    0    0  0.19025108924E+01  0.38027325866E+02  0.71333450166E+01  0.38737342082E+02  0.51100000000E-03 0. -1.
         23    2    1    0    0    0 -0.26859601896E+02 -0.11069724607E+02  0.16635181697E+01  0.95901128723E+02  0.91379878424E+02 0.  0.
         11    1    3    3    0    0 -0.28762112788E+02 -0.49097050473E+02 -0.54698268469E+01  0.57163786641E+02  0.51100000000E-03 0.  1.
         22    1    1    0    0    0  0.26859601896E+02  0.11069724607E+02 -0.16635181697E+01  0.29098871277E+02  0.00000000000E+00 0.  1.
</event>
<event>
 5    1  0.3183396E-003  0.9118800E+02  0.7818608E-02  0.1130116E+00
         25   -1    0    0    0    0  0.00000000000E+00  0.00000000000E+00  0.99999998245E-14  0.12500000000E+03  0.12500000000E+03 0.  0.
        -11    1    3    3    0    0  0.15126459545E+01  0.16198914868E+02 -0.37650053483E+02  0.41014868867E+02  0.51100000000E-03 0.  1.
         23    2    1    0    0    0  0.27918717405E+02  0.10181471648E+01  0.80418534186E+01  0.95928315982E+02  0.91417060747E+02 0.  0.
         11    1    3    3    0    0  0.26406071451E+02 -0.15180767703E+02  0.45691906901E+02  0.54913447115E+02  0.51100000000E-03 0. -1.
         22    1    1    0    0    0 -0.27918717405E+02 -0.10181471648E+01 -0.80418534186E+01  0.29071684018E+02  0.00000000000E+00 0. -1.
</event>
<event>
 5    1  0.3183396E-003  0.9118800E+02  0.7818608E-02  0.1130116E+00
         25   -1    0    0    0    0  0.00000000000E+00  0.00000000000E+00  0.99999998245E-14  0.12500000000E+03  0.12500000000E+03 0.  0.
        -11    1    3    3    0    0 -0.18252465090E+02  0.30845084601E+02  0.27819801094E+01  0.35948729317E+02  0.51100000000E-03 0.  1.
         23    2    1    0    0    0  0.15498593325E+02 -0.11387789440E+02 -0.22305040043E+02  0.95548294536E+02  0.90895949492E+02 0.  0.
         11    1    3    3    0    0  0.33751058415E+02 -0.42232874041E+02 -0.25087020153E+02  0.59599565219E+02  0.51100000000E-03 0. -1.
         22    1    1    0    0    0 -0.15498593325E+02  0.11387789440E+02  0.22305040043E+02  0.29451705464E+02  0.00000000000E+00 0. -1.
</event>
<event>
 5    1  0.3183396E-003  0.9118800E+02  0.7818608E-02  0.1130116E+00
         25   -1    0    0    0    0  0.00000000000E+00  0.00000000000E+00  0.99999998245E-14  0.12500000000E+03  0.12500000000E+03 0.  0.
        -11    1    3    3    0    0 -0.69267015773E+01 -0.36861862536E+02  0.74267635553E+00  0.37514366219E+02  0.51100000000E-03 0.  1.
         23    2    1    0    0    0 -0.21502220945E+02  0.32484617473E+01  0.29040151892E+02  0.88720137387E+02  0.80963166606E+02 0.  0.
         11    1    3    3    0    0 -0.14575519368E+02  0.40110324283E+02  0.28297475536E+02  0.51205771168E+02  0.51100000000E-03 0. -1.
         22    1    1    0    0    0  0.21502220945E+02 -0.32484617473E+01 -0.29040151892E+02  0.36279862613E+02  0.00000000000E+00 0. -1.
</event>
<event>
 5    1  0.3183396E-003  0.9118800E+02  0.7818608E-02  0.1130116E+00
         25   -1    0    0    0    0  0.00000000000E+00  0.00000000000E+00  0.99999998245E-14  0.12500000000E+03  0.12500000000E+03 0.  0.
        -11    1    3    3    0    0  0.20958145227E+02  0.27742159581E+02 -0.22711630084E+02  0.41529380093E+02  0.51100000000E-03 0. -1.
         23    2    1    0    0    0  0.22043966056E+02 -0.19315641405E+02  0.36262510667E+01  0.95467303896E+02  0.90784502940E+02 0.  0.
         11    1    3    3    0    0  0.10858208291E+01 -0.47057800986E+02  0.26337881150E+02  0.53937923803E+02  0.51100000000E-03 0.  1.
         22    1    1    0    0    0 -0.22043966056E+02  0.19315641405E+02 -0.36262510667E+01  0.29532696104E+02  0.00000000000E+00 0. -1.
</event>
<event>
 5    1  0.3183396E-003  0.9118800E+02  0.7818608E-02  0.1130116E+00
         25   -1    0    0    0    0  0.00000000000E+00  0.00000000000E+00  0.99999998245E-14  0.12500000000E+03  0.12500000000E+03 0.  0.
        -11    1    3    3    0    0  0.17161652290E+02  0.13295365469E+02 -0.36220233352E+01  0.22009273173E+02  0.51100000000E-03 0.  1.
         23    2    1    0    0    0 -0.39634705442E+02 -0.10137862120E+02  0.38779897383E+01  0.83905901540E+02  0.73153779021E+02 0.  0.
         11    1    3    3    0    0 -0.56796357732E+02 -0.23433227590E+02  0.75000130735E+01  0.61896628367E+02  0.51100000000E-03 0. -1.
         22    1    1    0    0    0  0.39634705442E+02  0.10137862120E+02 -0.38779897383E+01  0.41094098460E+02  0.00000000000E+00 0. -1.
</event>
<event>
 5    1  0.3183396E-003  0.9118800E+02  0.7818608E-02  0.1130116E+00
         25   -1    0    0    0    0  0.00000000000E+00  0.00000000000E+00  0.99999998245E-14  0.12500000000E+03  0.12500000000E+03 0.  0.
        -11    1    3    3    0    0 -0.91250520961E+01 -0.10303862327E+02 -0.31245528203E+02  0.34142630062E+02  0.51100000000E-03 0. -1.
         23    2    1    0    0    0 -0.18917818034E+01  0.84224833837E+01  0.27475519197E+02  0.96200326046E+02  0.91788242773E+02 0.  0.
         11    1    3    3    0    0  0.72332702927E+01  0.18726345711E+02  0.58721047400E+02  0.62057695984E+02  0.51100000000E-03 0.  1.
         22    1    1    0    0    0  0.18917818034E+01 -0.84224833837E+01 -0.27475519197E+02  0.28799673954E+02  0.00000000000E+00 0.  1.
</event>
<event>
 5    1  0.3183396E-003  0.9118800E+02  0.7818608E-02  0.1130116E+00
         25   -1    0    0    0    0  0.00000000000E+00  0.00000000000E+00  0.99999998245E-14  0.12500000000E+03  0.12500000000E+03 0.  0.
        -11    1    3    3    0    0 -0.49621167066E+01 -0.28419500497E+02  0.28637659180E+02  0.40649798699E+02  0.51100000000E-03 0.  1.
         23    2    1    0    0    0  0.21451842720E+02  0.16412322768E+02  0.13269935969E+02  0.94906195067E+02  0.90008603848E+02 0.  0.
         11    1    3    3    0    0  0.26413959427E+02  0.44831823265E+02 -0.15367723211E+02  0.54256396368E+02  0.51100000000E-03 0. -1.
         22    1    1    0    0    0 -0.21451842720E+02 -0.16412322768E+02 -0.13269935969E+02  0.30093804933E+02  0.00000000000E+00 0. -1.
</event>
<event>
 5    1  0.3183396E-003  0.9118800E+02  0.7818608E-02  0.1130116E+00
         25   -1    0    0    0    0  0.00000000000E+00  0.00000000000E+00  0.99999998245E-14  0.12500000000E+03  0.12500000000E+03 0.  0.
        -11    1    3    3    0    0  0.15739905619E+02  0.85544692912E+01 -0.49455684350E+02  0.52600268902E+02  0.51100000000E-03 0.  1.
         23    2    1    0    0    0 -0.13219914562E+02  0.13218849063E+02 -0.35041106556E+02  0.85283715428E+02  0.75471377733E+02 0.  0.
         11    1    3    3    0    0 -0.28959820181E+02  0.46643797716E+01  0.14414577795E+02  0.32683446526E+02  0.51100000000E-03 0. -1.
         22    1    1    0    0    0  0.13219914562E+02 -0.13218849063E+02  0.35041106556E+02  0.39716284572E+02  0.00000000000E+00 0.  1.
</event>
<event>
 5    1  0.3183396E-003  0.9118800E+02  0.7818608E-02  0.1130116E+00
         25   -1    0    0    0    0  0.00000000000E+00  0.00000000000E+00  0.99999998245E-14  0.12500000000E+03  0.12500000000E+03 0.  0.
        -11    1    3    3    0    0  0.32438713801E+02  0.40736868642E+01 -0.20229405716E+02  0.38445987224E+02  0.51100000000E-03 0. -1.
         23    2    1    0    0    0 -0.18267324295E+02 -0.20675115732E+02 -0.90350671474E+01  0.95969189026E+02  0.91472931825E+02 0.  0.
         11    1    3    3    0    0 -0.50706038096E+02 -0.24748802596E+02  0.11194338569E+02  0.57523201802E+02  0.51100000000E-03 0.  1.
         22    1    1    0    0    0  0.18267324295E+02  0.20675115732E+02  0.90350671474E+01  0.29030810974E+02  0.00000000000E+00 0.  1.
</event>
<event>
 4    1  0.3183396E-003  0.9118800E+02  0.7818608E-02  0.1130116E+00
         25   -1    0    0    0    0  0.00000000000E+00  0.00000000000E+00  0.99999998245E-14  0.12500000000E+03  0.12500000000E+03 0.  0.
        -11    1    1    0    0    0  0.55044532367E+01  0.15664691992E+01 -0.18894633429E+02  0.19742340385E+02  0.51100000000E-03 0. -1.
         11    1    1    0    0    0  0.46926524779E+02  0.13790964219E+02  0.85246075532E+01  0.49648346963E+02  0.51100000000E-03 0.  1.
         22    1    1    0    0    0 -0.52430978016E+02 -0.15357433418E+02  0.10370025876E+02  0.55609312652E+02  0.00000000000E+00 0.  1.
</event>
<event>
 5    1  0.3183396E-003  0.9118800E+02  0.7818608E-02  0.1130116E+00
         25   -1    0    0    0    0  0.00000000000E+00  0.00000000000E+00  0.99999998245E-14  0.12500000000E+03  0.12500000000E+03 0.  0.
        -11    1    3    3    0    0  0.20729087967E+02 -0.17639870233E+02 -0.32021449994E+02  0.42026579325E+02  0.51100000000E-03 0. -1.
         23    2    1    0    0    0  0.17528573245E+02  0.24668492994E+02 -0.76042610102E+00  0.94728500624E+02  0.89761490384E+02 0.  0.
         11    1    3    3    0    0 -0.32005147216E+01  0.42308363228E+02  0.31261023893E+02  0.52701921299E+02  0.51100000000E-03 0.  1.
         22    1    1    0    0    0 -0.17528573245E+02 -0.24668492994E+02  0.76042610102E+00  0.30271499376E+02  0.00000000000E+00 0.  1.
</event>
<event>
 5    1  0.3183396E-003  0.9118800E+02  0.7818608E-02  0.1130116E+00
         25   -1    0    0    0    0  0.00000000000E+00  0.00000000000E+00  0.99999998245E-14  0.12500000000E+03  0.12500000000E+03 0.  0.
        -11    1    3    3    0    0 -0.36566686319E+02 -0.38922924786E+02 -0.22089945261E+02  0.57793445166E+02  0.51100000000E-03 0.  1.
         23    2    1    0    0    0 -0.17245745526E+02 -0.74211189929E+01 -0.23677310582E+02  0.94782392843E+02  0.89836508229E+02 0.  0.
         11    1    3    3    0    0  0.19320940792E+02  0.31501805793E+02 -0.15873653211E+01  0.36988947677E+02  0.51100000000E-03 0. -1.
         22    1    1    0    0    0  0.17245745526E+02  0.74211189929E+01  0.23677310582E+02  0.30217607157E+02  0.00000000000E+00 0.  1.
</event>
<event>
 5    1  0.3183396E-003  0.9118800E+02  0.7818608E-02  0.1130116E+00
         25   -1    0    0    0    0  0.00000000000E+00  0.00000000000E+00  0.99999998245E-14  0.12500000000E+03  0.12500000000E+03 0.  0.
        -11    1    3    3    0    0 -0.43814816330E+01  0.35116260471E+02  0.17549271230E+00  0.35388980329E+02  0.51100000000E-03 0. -1.
         23    2    1    0    0    0  0.11160068122E+02 -0.16973625930E+02  0.22972110724E+02  0.94334563939E+02  0.89211215577E+02 0.  0.
         11    1    3    3    0    0  0.15541549755E+02 -0.52089886401E+02  0.22796618012E+02  0.58945583610E+02  0.51100000000E-03 0.  1.
         22    1    1    0    0    0 -0.11160068122E+02  0.16973625930E+02 -0.22972110724E+02  0.30665436061E+02  0.00000000000E+00 0.  1.
</event>
<event>
 5    1  0.3183396E-003  0.9118800E+02  0.7818608E-02  0.1130116E+00
         25   -1    0    0    0    0  0.00000000000E+00  0.00000000000E+00  0.99999998245E-14  0.12500000000E+03  0.12500000000E+03 0.  0.
        -11    1    3    3    0    0 -0.39740071866E+02  0.24802637980E+02  0.33905573885E+02  0.57827606759E+02  0.51100000000E-03 0.  1.
         23    2    1    0    0    0 -0.64094452220E+01  0.23085227644E+02  0.19194618118E+02  0.94300780333E+02  0.89163866467E+02 0.  0.
         11    1    3    3    0    0  0.33330626644E+02 -0.17174103353E+01 -0.14710955766E+02  0.36473173574E+02  0.51100000000E-03 0. -1.
         22    1    1    0    0    0  0.64094452220E+01 -0.23085227644E+02 -0.19194618118E+02  0.30699219667E+02  0.00000000000E+00 0. -1.
</event>
<event>
 5    1  0.3183396E-003  0.9118800E+02  0.7818608E-02  0.1130116E+00
         25   -1    0    0    0    0  0.00000000000E+00  0.00000000000E+00  0.99999998245E-14  0.12500000000E+03  0.12500000000E+03 0.  0.
        -11    1    3    3    0    0 -0.21968828386E+01  0.12567447216E+02  0.16105152762E+02  0.20546118113E+02  0.51100000000E-03 0.  1.
         23    2    1    0    0    0  0.20240116512E+02 -0.40396208346E+02  0.12200416731E+02  0.78198652438E+02  0.62647131695E+02 0.  0.
         11    1    3    3    0    0  0.22436999351E+02 -0.52963655563E+02 -0.39047360309E+01  0.57652534326E+02  0.51100000000E-03 0. -1.
         22    1    1    0    0    0 -0.20240116512E+02  0.40396208346E+02 -0.12200416731E+02  0.46801347562E+02  0.00000000000E+00 0. -1.
</event>
<event>
 5    1  0.3183396E-003  0.9118800E+02  0.7818608E-02  0.1130116E+00
         25   -1    0    0    0    0  0.00000000000E+00  0.00000000000E+00  0.99999998245E-14  0.12500000000E+03  0.12500000000E+03 0.  0.
        -11    1    3    3    0    0 -0.21877340908E+01 -0.47685671457E+02  0.18133093148E+02  0.51063866972E+02  0.51100000000E-03 0.  1.
         23    2    1    0    0    0 -0.13179950616E+02 -0.50802243622E+01  0.25665271938E+02  0.95704506124E+02  0.91110518224E+02 0.  0.
         11    1    3    3    0    0 -0.10992216525E+02  0.42605447095E+02  0.75321787900E+01  0.44640639152E+02  0.51100000000E-03 0. -1.
         22    1    1    0    0    0  0.13179950616E+02  0.50802243622E+01 -0.25665271938E+02  0.29295493876E+02  0.00000000000E+00 0.  1.
</event>
<event>
 5    1  0.3183396E-003  0.9118800E+02  0.7818608E-02  0.1130116E+00
         25   -1    0    0    0    0  0.00000000000E+00  0.00000000000E+00  0.99999998245E-14  0.12500000000E+03  0.12500000000E+03 0.  0.
        -11    1    3    3    0    0  0.35967383915E+02 -0.24808378368E+02  0.27010360444E+02  0.51367965840E+02  0.51100000000E-03 0. -1.
         23    2    1    0    0    0  0.67481032135E+01  0.15985662161E+02  0.12539112725E+02  0.10359187912E+03  0.10135565983E+03 0.  0.
         11    1    3    3    0    0 -0.29219280701E+02  0.40794040529E+02 -0.14471247719E+02  0.52223913279E+02  0.51100000000E-03 0.  1.
         22    1    1    0    0    0 -0.67481032135E+01 -0.15985662161E+02 -0.12539112725E+02  0.21408120881E+02  0.00000000000E+00 0. -1.
</event>
<event>
 5    1  0.3183396E-003  0.9118800E+02  0.7818608E-02  0.1130116E+00
         25   -1    0    0    0    0  0.00000000000E+00  0.00000000000E+00  0.99999998245E-14  0.12500000000E+03  0.12500000000E+03 0.  0.
        -11    1    3    3    0    0  0.27978990679E+02  0.52334623184E+02  0.43532527294E+01  0.59503676464E+02  0.51100000000E-03 0.  1.
         23    2    1    0    0    0  0.15881620497E+01  0.26485472514E+02 -0.58533467149E+01  0.97828982707E+02  0.93980028074E+02 0.  0.
         11    1    3    3    0    0 -0.26390828629E+02 -0.25849150670E+02 -0.10206599444E+02  0.38325306242E+02  0.51100000000E-03 0. -1.
         22    1    1    0    0    0 -0.15881620497E+01 -0.26485472514E+02  0.58533467149E+01  0.27171017293E+02  0.00000000000E+00 0.  1.
</event>
<event>
 5    1  0.3183396E-003  0.9118800E+02  0.7818608E-02  0.1130116E+00
         25   -1    0    0    0    0  0.00000000000E+00  0.00000000000E+00  0.99999998245E-14  0.12500000000E+03  0.12500000000E+03 0.  0.
        -11    1    3    3    0    0  0.50060737182E+01 -0.30925593761E+02 -0.23030782637E+02  0.38882773470E+02  0.51100000000E-03 0.  1.
         23    2    1    0    0    0  0.13968394633E+01 -0.80483436868E+01  0.28485862311E+02  0.95366044000E+02  0.90644972282E+02 0.  0.
         11    1    3    3    0    0 -0.36092342549E+01  0.22877250075E+02  0.51516644948E+02  0.56483270531E+02  0.51100000000E-03 0. -1.
         22    1    1    0    0    0 -0.13968394633E+01  0.80483436868E+01 -0.28485862311E+02  0.29633956000E+02  0.00000000000E+00 0. -1.
</event>
<event>
 5    1  0.3183396E-003  0.9118800E+02  0.7818608E-02  0.1130116E+00
         25   -1    0    0    0    0  0.00000000000E+00  0.00000000000E+00  0.99999998245E-14  0.12500000000E+03  0.12500000000E+03 0.  0.
        -11    1    3    3    0    0  0.18946699682E+01 -0.37046765658E+01 -0.35667333269E+02  0.35909233709E+02  0.51100000000E-03 0. -1.
         23    2    1    0    0    0 -0.19032900148E+02  0.14340911350E+02  0.17232211711E+02  0.95591461328E+02  0.90955293040E+02 0.  0.
         11    1    3    3    0    0 -0.20927570116E+02  0.18045587915E+02  0.52899544981E+02  0.59682227619E+02  0.51100000000E-03 0.  1.
         22    1    1    0    0    0  0.19032900148E+02 -0.14340911350E+02 -0.17232211711E+02  0.29408538672E+02  0.00000000000E+00 0.  1.
</event>
<event>
 5    1  0.3183396E-003  0.9118800E+02  0.7818608E-02  0.1130116E+00
         25   -1    0    0    0    0  0.00000000000E+00  0.00000000000E+00  0.99999998245E-14  0.12500000000E+03  0.12500000000E+03 0.  0.
        -11    1    3    3    0    0 -0.28925333540E+02 -0.40435184509E+01 -0.48324330858E+02  0.56464731603E+02  0.51100000000E-03 0.  1.
         23    2    1    0    0    0  0.22378489025E+01  0.90006469186E+01 -0.27088354449E+02  0.96367875395E+02  0.92016133633E+02 0.  0.
         11    1    3    3    0    0  0.31163182443E+02  0.13044165369E+02  0.21235976409E+02  0.39903143792E+02  0.51100000000E-03 0. -1.
         22    1    1    0    0    0 -0.22378489025E+01 -0.90006469186E+01  0.27088354449E+02  0.28632124605E+02  0.00000000000E+00 0.  1.
</event>
<event>
 5    1  0.3183396E-003  0.9118800E+02  0.7818608E-02  0.1130116E+00
         25   -1    0    0    0    0  0.00000000000E+00  0.00000000000E+00  0.99999998245E-14  0.12500000000E+03  0.12500000000E+03 0.  0.
        -11    1    3    3    0    0  0.31202470340E+02 -0.58550433591E+00 -0.53811511386E+02  0.62206235448E+02  0.51100000000E-03 0.  1.
         23    2    1    0    0    0  0.12266278970E+02 -0.31922100741E+01 -0.27414062503E+02  0.94797638704E+02  0.89857719067E+02 0.  0.
         11    1    3    3    0    0 -0.18936191370E+02 -0.26067057382E+01  0.26397448883E+02  0.32591403256E+02  0.51100000000E-03 0. -1.
         22    1    1    0    0    0 -0.12266278970E+02  0.31922100741E+01  0.27414062503E+02  0.30202361296E+02  0.00000000000E+00 0.  1.
</event>
<event>
 5    1  0.3183396E-003  0.9118800E+02  0.7818608E-02  0.1130116E+00
         25   -1    0    0    0    0  0.00000000000E+00  0.00000000000E+00  0.99999998245E-14  0.12500000000E+03  0.12500000000E+03 0.  0.
        -11    1    3    3    0    0  0.11442577992E+02  0.14792802442E+01  0.16706953804E+02  0.20303772232E+02  0.51100000000E-03 0.  1.
         23    2    1    0    0    0  0.80270159913E+01 -0.13524763796E+02 -0.41557523008E+02  0.80566004681E+02  0.67204919242E+02 0.  0.
         11    1    3    3    0    0 -0.34155620007E+01 -0.15004044040E+02 -0.58264476812E+02  0.60262232450E+02  0.51100000000E-03 0. -1.
         22    1    1    0    0    0 -0.80270159913E+01  0.13524763796E+02  0.41557523008E+02  0.44433995319E+02  0.00000000000E+00 0. -1.
</event>
<event>
 5    1  0.3183396E-003  0.9118800E+02  0.7818608E-02  0.1130116E+00
         25   -1    0    0    0    0  0.00000000000E+00  0.00000000000E+00  0.99999998245E-14  0.12500000000E+03  0.12500000000E+03 0.  0.
        -11    1    3    3    0    0  0.39576294649E+01 -0.45574555118E+02 -0.60181186232E+01  0.46140228188E+02  0.51100000000E-03 0.  1.
         23    2    1    0    0    0  0.37736808817E+00 -0.12505190079E+02  0.28376579614E+02  0.93987865985E+02  0.88724103243E+02 0.  0.
         11    1    3    3    0    0 -0.35802613768E+01  0.33069365040E+02  0.34394698237E+02  0.47847637797E+02  0.51100000000E-03 0. -1.
         22    1    1    0    0    0 -0.37736808817E+00  0.12505190079E+02 -0.28376579614E+02  0.31012134015E+02  0.00000000000E+00 0. -1.
</event>
<event>
 5    1  0.3183396E-003  0.9118800E+02  0.7818608E-02  0.1130116E+00
         25   -1    0    0    0    0  0.00000000000E+00  0.00000000000E+00  0.99999998245E-14  0.12500000000E+03  0.12500000000E+03 0.  0.
        -11    1    3    3    0    0  0.29891231432E+02 -0.27548078064E+02  0.99602699741E+01  0.41851992782E+02  0.51100000000E-03 0. -1.
         23    2    1    0    0    0 -0.71887229666E+00 -0.42381912055E+01 -0.28455266214E+02  0.96221862163E+02  0.91817566624E+02 0.  0.
         11    1    3    3    0    0 -0.30610103729E+02  0.23309886859E+02 -0.38415536188E+02  0.54369869381E+02  0.51100000000E-03 0.  1.
         22    1    1    0    0    0  0.71887229666E+00  0.42381912055E+01  0.28455266214E+02  0.28778137837E+02  0.00000000000E+00 0.  1.
</event>
<event>
 5    1  0.3183396E-003  0.9118800E+02  0.7818608E-02  0.1130116E+00
         25   -1    0    0    0    0  0.00000000000E+00  0.00000000000E+00  0.99999998245E-14  0.12500000000E+03  0.12500000000E+03 0.  0.
        -11    1    3    3    0    0 -0.35750453154E+01  0.31943948596E+02 -0.15995402311E+02  0.35903338233E+02  0.51100000000E-03 0.  1.
         23    2    1    0    0    0  0.13612145333E+02 -0.11712996201E+02  0.22230543484E+02  0.96422354118E+02  0.92090110921E+02 0.  0.
         11    1    3    3    0    0  0.17187190648E+02 -0.43656944797E+02  0.38225945795E+02  0.60519015884E+02  0.51100000000E-03 0. -1.
         22    1    1    0    0    0 -0.13612145333E+02  0.11712996201E+02 -0.22230543484E+02  0.28577645882E+02  0.00000000000E+00 0. -1.
</event>
<event>
 5    1  0.3183396E-003  0.9118800E+02  0.7818608E-02  0.1130116E+00
         25   -1    0    0    0    0  0.00000000000E+00  0.00000000000E+00  0.99999998245E-14  0.12500000000E+03  0.12500000000E+03 0.  0.
        -11    1    3    3    0    0 -0.28231798197E+02 -0.49711914123E+01 -0.52817275731E+02  0.60095023000E+02  0.51100000000E-03 0. -1.
         23    2    1    0    0    0 -0.21751771411E+01 -0.58784848197E+01 -0.28740582053E+02  0.95583864358E+02  0.90944851914E+02 0.  0.
         11    1    3    3    0    0  0.26056621056E+02 -0.90729340740E+00  0.24076693678E+02  0.35488841358E+02  0.51100000000E-03 0.  1.
         22    1    1    0    0    0  0.21751771411E+01  0.58784848197E+01  0.28740582053E+02  0.29416135642E+02  0.00000000000E+00 0. -1.
</event>
<event>
 5    1  0.3183396E-003  0.9118800E+02  0.7818608E-02  0.1130116E+00
         25   -1    0    0    0    0  0.00000000000E+00  0.00000000000E+00  0.99999998245E-14  0.12500000000E+03  0.12500000000E+03 0.  0.
        -11    1    3    3    0    0  0.52604246754E+01 -0.64460517430E+01  0.59148990386E+02  0.59731287570E+02  0.51100000000E-03 0.  1.
         23    2    1    0    0    0  0.77677004429E+01 -0.14057451289E+02  0.21845238388E+02  0.97886100480E+02  0.94055968020E+02 0.  0.
         11    1    3    3    0    0  0.25072757675E+01 -0.76113995458E+01 -0.37303751998E+02  0.38154812910E+02  0.51100000000E-03 0. -1.
         22    1    1    0    0    0 -0.77677004429E+01  0.14057451289E+02 -0.21845238388E+02  0.27113899520E+02  0.00000000000E+00 0.  1.
</event>
<event>
 5    1  0.3183396E-003  0.9118800E+02  0.7818608E-02  0.1130116E+00
         25   -1    0    0    0    0  0.00000000000E+00  0.00000000000E+00  0.99999998245E-14  0.12500000000E+03  0.12500000000E+03 0.  0.
        -11    1    3    3    0    0 -0.53593277750E+02  0.12995071391E+01  0.29388134799E+02  0.61135837329E+02  0.51100000000E-03 0.  1.
         23    2    1    0    0    0 -0.20903288539E+02 -0.51549629637E+01  0.19651470419E+02  0.95850361846E+02  0.91310407192E+02 0.  0.
         11    1    3    3    0    0  0.32689989211E+02 -0.64544701029E+01 -0.97366643800E+01  0.34714524517E+02  0.51100000000E-03 0. -1.
         22    1    1    0    0    0  0.20903288539E+02  0.51549629637E+01 -0.19651470419E+02  0.29149638154E+02  0.00000000000E+00 0.  1.
</event>
<event>
 5    1  0.3183396E-003  0.9118800E+02  0.7818608E-02  0.1130116E+00
         25   -1    0    0    0    0  0.00000000000E+00  0.00000000000E+00  0.99999998245E-14  0.12500000000E+03  0.12500000000E+03 0.  0.
        -11    1    3    3    0    0  0.45853961355E+02  0.34961824572E+01  0.19613299548E+02  0.49994905572E+02  0.51100000000E-03 0.  1.
         23    2    1    0    0    0  0.21076956528E+02  0.13178519750E+02 -0.16732216752E+02  0.95035378249E+02  0.90187829346E+02 0.  0.
         11    1    3    3    0    0 -0.24777004827E+02  0.96823372925E+01 -0.36345516299E+02  0.45040472677E+02  0.51100000000E-03 0. -1.
         22    1    1    0    0    0 -0.21076956528E+02 -0.13178519750E+02  0.16732216752E+02  0.29964621751E+02  0.00000000000E+00 0.  1.
</event>
<event>
 5    1  0.3183396E-003  0.9118800E+02  0.7818608E-02  0.1130116E+00
         25   -1    0    0    0    0  0.00000000000E+00  0.00000000000E+00  0.99999998245E-14  0.12500000000E+03  0.12500000000E+03 0.  0.
        -11    1    3    3    0    0  0.67554984375E+01 -0.34386226683E+02 -0.24363122996E+02  0.42680336305E+02  0.51100000000E-03 0. -1.
         23    2    1    0    0    0 -0.11057432147E+02  0.14366385561E+02 -0.24421232304E+02  0.94585259709E+02  0.89561793903E+02 0.  0.
         11    1    3    3    0    0 -0.17812930584E+02  0.48752612244E+02 -0.58109307087E-01  0.51904923404E+02  0.51100000000E-03 0.  1.
         22    1    1    0    0    0  0.11057432147E+02 -0.14366385561E+02  0.24421232304E+02  0.30414740291E+02  0.00000000000E+00 0. -1.
</event>
<event>
 5    1  0.3183396E-003  0.9118800E+02  0.7818608E-02  0.1130116E+00
         25   -1    0    0    0    0  0.00000000000E+00  0.00000000000E+00  0.99999998245E-14  0.12500000000E+03  0.12500000000E+03 0.  0.
        -11    1    3    3    0    0 -0.38194039244E+02  0.17918549887E+02  0.31264682076E+02  0.52510374302E+02  0.51100000000E-03 0. -1.
         23    2    1    0    0    0 -0.24542107850E+02  0.10465205402E+02 -0.99207437352E+01  0.96534990988E+02  0.92242873692E+02 0.  0.
         11    1    3    3    0    0  0.13651931394E+02 -0.74533444852E+01 -0.41185425811E+02  0.44024616685E+02  0.51100000000E-03 0.  1.
         22    1    1    0    0    0  0.24542107850E+02 -0.10465205402E+02  0.99207437352E+01  0.28465009012E+02  0.00000000000E+00 0. -1.
</event>
<event>
 5    1  0.3183396E-003  0.9118800E+02  0.7818608E-02  0.1130116E+00
         25   -1    0    0    0    0  0.00000000000E+00  0.00000000000E+00  0.99999998245E-14  0.12500000000E+03  0.12500000000E+03 0.  0.
        -11    1    3    3    0    0 -0.27788441582E+02  0.12278682092E+02 -0.37036076891E+02  0.47902343484E+02  0.51100000000E-03 0.  1.
         23    2    1    0    0    0 -0.59019042188E+01 -0.24166604281E+02 -0.16774490892E+02  0.94995987259E+02  0.90133217044E+02 0.  0.
         11    1    3    3    0    0  0.21886537363E+02 -0.36445286373E+02  0.20261585999E+02  0.47093643775E+02  0.51100000000E-03 0. -1.
         22    1    1    0    0    0  0.59019042188E+01  0.24166604281E+02  0.16774490892E+02  0.30004012741E+02  0.00000000000E+00 0.  1.
</event>
<event>
 5    1  0.3183396E-003  0.9118800E+02  0.7818608E-02  0.1130116E+00
         25   -1    0    0    0    0  0.00000000000E+00  0.00000000000E+00  0.99999998245E-14  0.12500000000E+03  0.12500000000E+03 0.  0.
        -11    1    3    3    0    0 -0.19827801747E+02  0.22287304091E+02 -0.24843113730E+02  0.38820689662E+02  0.51100000000E-03 0.  1.
         23    2    1    0    0    0  0.20905629335E+02 -0.16075981483E+02 -0.10735194066E+02  0.96526733412E+02  0.92231683022E+02 0.  0.
         11    1    3    3    0    0  0.40733431083E+02 -0.38363285574E+02  0.14107919664E+02  0.57706043750E+02  0.51100000000E-03 0. -1.
         22    1    1    0    0    0 -0.20905629335E+02  0.16075981483E+02  0.10735194066E+02  0.28473266588E+02  0.00000000000E+00 0. -1.
</event>
<event>
 5    1  0.3183396E-003  0.9118800E+02  0.7818608E-02  0.1130116E+00
         25   -1    0    0    0    0  0.00000000000E+00  0.00000000000E+00  0.99999998245E-14  0.12500000000E+03  0.12500000000E+03 0.  0.
        -11    1    3    3    0    0  0.11669105267E+02  0.11898957805E+02 -0.43111158505E+02  0.46220398121E+02  0.51100000000E-03 0.  1.
         23    2    1    0    0    0 -0.25718479357E+02 -0.87498382237E+00 -0.11525924502E+02  0.96803320892E+02  0.92605778561E+02 0.  0.
         11    1    3    3    0    0 -0.37387584624E+02 -0.12773941627E+02  0.31585234003E+02  0.50582922770E+02  0.51100000000E-03 0. -1.
         22    1    1    0    0    0  0.25718479357E+02  0.87498382237E+00  0.11525924502E+02  0.28196679108E+02  0.00000000000E+00 0. -1.
</event>
<event>
 5    1  0.3183396E-003  0.9118800E+02  0.7818608E-02  0.1130116E+00
         25   -1    0    0    0    0  0.00000000000E+00  0.00000000000E+00  0.99999998245E-14  0.12500000000E+03  0.12500000000E+03 0.  0.
        -11    1    3    3    0    0  0.51438163799E+02  0.95847504130E+01 -0.17258796979E+02  0.55096444613E+02  0.51100000000E-03 0.  1.
         23    2    1    0    0    0  0.16067744161E+02 -0.64746683542E+01 -0.24880713674E+02  0.94682618094E+02  0.89697572562E+02 0.  0.
         11    1    3    3    0    0 -0.35370419638E+02 -0.16059418767E+02 -0.76219166952E+01  0.39586173481E+02  0.51100000000E-03 0. -1.
         22    1    1    0    0    0 -0.16067744161E+02  0.64746683542E+01  0.24880713674E+02  0.30317381906E+02  0.00000000000E+00 0.  1.
</event>
<event>
 5    1  0.3183396E-003  0.9118800E+02  0.7818608E-02  0.1130116E+00
         25   -1    0    0    0    0  0.00000000000E+00  0.00000000000E+00  0.99999998245E-14  0.12500000000E+03  0.12500000000E+03 0.  0.
        -11    1    3    3    0    0  0.23521295544E+02  0.52607629059E+02  0.23104238108E+02  0.62085584463E+02  0.51100000000E-03 0.  1.
         23    2    1    0    0    0  0.14350822081E+02  0.24088075724E+02  0.69869878544E+01  0.96103642344E+02  0.91656481419E+02 0.  0.
         11    1    3    3    0    0 -0.91704734638E+01 -0.28519553335E+02 -0.16117250254E+02  0.34018057881E+02  0.51100000000E-03 0. -1.
         22    1    1    0    0    0 -0.14350822081E+02 -0.24088075724E+02 -0.69869878544E+01  0.28896357656E+02  0.00000000000E+00 0.  1.
</event>
<event>
 5    1  0.3183396E-003  0.9118800E+02  0.7818608E-02  0.1130116E+00
         25   -1    0    0    0    0  0.00000000000E+00  0.00000000000E+00  0.99999998245E-14  0.12500000000E+03  0.12500000000E+03 0.  0.
        -11    1    3    3    0    0 -0.26140032312E+02 -0.57742854387E+01 -0.19120489232E+02  0.32897367225E+02  0.51100000000E-03 0. -1.
         23    2    1    0    0    0  0.21772616993E+01  0.68795663079E+01  0.31729665800E+02  0.92460169133E+02  0.86545030378E+02 0.  0.
         11    1    3    3    0    0  0.28317294011E+02  0.12653851747E+02  0.50850155032E+02  0.59562801908E+02  0.51100000000E-03 0.  1.
         22    1    1    0    0    0 -0.21772616993E+01 -0.68795663079E+01 -0.31729665800E+02  0.32539830867E+02  0.00000000000E+00 0.  1.
</event>
<event>
 5    1  0.3183396E-003  0.9118800E+02  0.7818608E-02  0.1130116E+00
         25   -1    0    0    0    0  0.00000000000E+00  0.00000000000E+00  0.99999998245E-14  0.12500000000E+03  0.12500000000E+03 0.  0.
        -11    1    3    3    0    0 -0.28841756608E+02  0.43064848540E+02 -0.17822847731E+02  0.54809506525E+02  0.51100000000E-03 0. -1.
         23    2    1    0    0    0 -0.27225916062E+02  0.15233129044E+02  0.79815752859E+01  0.92797449326E+02  0.87030812540E+02 0.  0.
         11    1    3    3    0    0  0.16158405460E+01 -0.27831719496E+02  0.25804423017E+02  0.37987942801E+02  0.51100000000E-03 0.  1.
         22    1    1    0    0    0  0.27225916062E+02 -0.15233129044E+02 -0.79815752859E+01  0.32202550674E+02  0.00000000000E+00 0. -1.
</event>
<event>
 5    1  0.3183396E-003  0.9118800E+02  0.7818608E-02  0.1130116E+00
         25   -1    0    0    0    0  0.00000000000E+00  0.00000000000E+00  0.99999998245E-14  0.12500000000E+03  0.12500000000E+03 0.  0.
        -11    1    3    3    0    0  0.35647496480E+02 -0.12463722381E+00  0.10799561175E+02  0.37247685318E+02  0.51100000000E-03 0.  1.
         23    2    1    0    0    0 -0.16427040168E+02 -0.15390490179E+02 -0.15617853536E+02  0.97602332477E+02  0.93678082385E+02 0.  0.
         11    1    3    3    0    0 -0.52074536648E+02 -0.15265852955E+02 -0.26417414711E+02  0.60354647160E+02  0.51100000000E-03 0. -1.
         22    1    1    0    0    0  0.16427040168E+02  0.15390490179E+02  0.15617853536E+02  0.27397667523E+02  0.00000000000E+00 0. -1.
</event>
<event>
 5    1  0.3183396E-003  0.9118800E+02  0.7818608E-02  0.1130116E+00
         25   -1    0    0    0    0  0.00000000000E+00  0.00000000000E+00  0.99999998245E-14  0.12500000000E+03  0.12500000000E+03 0.  0.
        -11    1    3    3    0    0 -0.10326359211E+02  0.39548739423E+02 -0.34302302995E+02  0.53360889006E+02  0.51100000000E-03 0. -1.
         23    2    1    0    0    0  0.53187973215E+01 -0.23634983673E+01 -0.25357091789E+02  0.98983508432E+02  0.95503283232E+02 0.  0.
         11    1    3    3    0    0  0.15645156533E+02 -0.41912237790E+02  0.89452112060E+01  0.45622619426E+02  0.51100000000E-03 0.  1.
         22    1    1    0    0    0 -0.53187973215E+01  0.23634983673E+01  0.25357091789E+02  0.26016491568E+02  0.00000000000E+00 0.  1.
</event>
<event>
 5    1  0.3183396E-003  0.9118800E+02  0.7818608E-02  0.1130116E+00
         25   -1    0    0    0    0  0.00000000000E+00  0.00000000000E+00  0.99999998245E-14  0.12500000000E+03  0.12500000000E+03 0.  0.
        -11    1    3    3    0    0 -0.27448823181E+02  0.13328643293E+02  0.38352872396E+02  0.49010544247E+02  0.51100000000E-03 0.  1.
         23    2    1    0    0    0 -0.13120376391E+02 -0.22041554145E+02  0.69714945683E+01  0.98418500376E+02  0.94760883775E+02 0.  0.
         11    1    3    3    0    0  0.14328446790E+02 -0.35370197438E+02 -0.31381377828E+02  0.49407956129E+02  0.51100000000E-03 0. -1.
         22    1    1    0    0    0  0.13120376391E+02  0.22041554145E+02 -0.69714945683E+01  0.26581499624E+02  0.00000000000E+00 0. -1.
</event>
<event>
 5    1  0.3183396E-003  0.9118800E+02  0.7818608E-02  0.1130116E+00
         25   -1    0    0    0    0  0.00000000000E+00  0.00000000000E+00  0.99999998245E-14  0.12500000000E+03  0.12500000000E+03 0.  0.
        -11    1    3    3    0    0 -0.28536959879E+02  0.37409972531E+02  0.11601910528E+02  0.48460999289E+02  0.51100000000E-03 0. -1.
         23    2    1    0    0    0  0.15200377441E+02  0.25404845535E+02 -0.45589325179E+00  0.95391462554E+02  0.90680017857E+02 0.  0.
         11    1    3    3    0    0  0.43737337320E+02 -0.12005126996E+02 -0.12057803780E+02  0.46930463266E+02  0.51100000000E-03 0.  1.
         22    1    1    0    0    0 -0.15200377441E+02 -0.25404845535E+02  0.45589325179E+00  0.29608537446E+02  0.00000000000E+00 0. -1.
</event>
<event>
 5    1  0.3183396E-003  0.9118800E+02  0.7818608E-02  0.1130116E+00
         25   -1    0    0    0    0  0.00000000000E+00  0.00000000000E+00  0.99999998245E-14  0.12500000000E+03  0.12500000000E+03 0.  0.
        -11    1    3    3    0    0  0.15336855606E+02 -0.23938226352E+02 -0.24851284712E+02  0.37760351864E+02  0.51100000000E-03 0.  1.
         23    2    1    0    0    0  0.14961077979E+02  0.77976226534E+01  0.23786758669E+02  0.95837581354E+02  0.91292909573E+02 0.  0.
         11    1    3    3    0    0 -0.37577762724E+00  0.31735849006E+02  0.48638043381E+02  0.58077229489E+02  0.51100000000E-03 0. -1.
         22    1    1    0    0    0 -0.14961077979E+02 -0.77976226534E+01 -0.23786758669E+02  0.29162418646E+02  0.00000000000E+00 0. -1.
</event>
<event>
 5    1  0.3183396E-003  0.9118800E+02  0.7818608E-02  0.1130116E+00
         25   -1    0    0    0    0  0.00000000000E+00  0.00000000000E+00  0.99999998245E-14  0.12500000000E+03  0.12500000000E+03 0.  0.
        -11    1    3    3    0    0 -0.22492067356E+02  0.14550755719E+02  0.46745680054E+02  0.53877418182E+02  0.51100000000E-03 0. -1.
         23    2    1    0    0    0 -0.26990881444E+02  0.54795251541E+01  0.47807106626E+01  0.97046680493E+02  0.92933686698E+02 0.  0.
         11    1    3    3    0    0 -0.44988140872E+01 -0.90712305650E+01 -0.41964969392E+02  0.43169262311E+02  0.51100000000E-03 0.  1.
         22    1    1    0    0    0  0.26990881444E+02 -0.54795251541E+01 -0.47807106626E+01  0.27953319507E+02  0.00000000000E+00 0.  1.
</event>
<event>
 5    1  0.3183396E-003  0.9118800E+02  0.7818608E-02  0.1130116E+00
         25   -1    0    0    0    0  0.00000000000E+00  0.00000000000E+00  0.99999998245E-14  0.12500000000E+03  0.12500000000E+03 0.  0.
        -11    1    3    3    0    0 -0.10755627690E+02 -0.23575111823E+02  0.26450608484E+02  0.37028423054E+02  0.51100000000E-03 0. -1.
         23    2    1    0    0    0  0.99978429493E+01  0.25640487469E+02 -0.17410961131E+01  0.97424233883E+02  0.93440133083E+02 0.  0.
         11    1    3    3    0    0  0.20753470640E+02  0.49215599292E+02 -0.28191704597E+02  0.60395810828E+02  0.51100000000E-03 0.  1.
         22    1    1    0    0    0 -0.99978429493E+01 -0.25640487469E+02  0.17410961131E+01  0.27575766117E+02  0.00000000000E+00 0.  1.
</event>
<event>
 5    1  0.3183396E-003  0.9118800E+02  0.7818608E-02  0.1130116E+00
         25   -1    0    0    0    0  0.00000000000E+00  0.00000000000E+00  0.99999998245E-14  0.12500000000E+03  0.12500000000E+03 0.  0.
        -11    1    3    3    0    0  0.48259144893E+02 -0.19249346591E+01 -0.28164280360E+02  0.55909544156E+02  0.51100000000E-03 0.  1.
         23    2    1    0    0    0  0.29325637380E+02 -0.69452050805E+00  0.60650484374E+01  0.95045698489E+02  0.90202132027E+02 0.  0.
         11    1    3    3    0    0 -0.18933507513E+02  0.12304141511E+01  0.34229328798E+02  0.39136154332E+02  0.51100000000E-03 0. -1.
         22    1    1    0    0    0 -0.29325637380E+02  0.69452050805E+00 -0.60650484374E+01  0.29954301511E+02  0.00000000000E+00 0.  1.
</event>
<event>
 5    1  0.3183396E-003  0.9118800E+02  0.7818608E-02  0.1130116E+00
         25   -1    0    0    0    0  0.00000000000E+00  0.00000000000E+00  0.99999998245E-14  0.12500000000E+03  0.12500000000E+03 0.  0.
        -11    1    3    3    0    0 -0.21007720867E+02 -0.56745769060E+02 -0.24855389838E+01  0.60560585752E+02  0.51100000000E-03 0. -1.
         23    2    1    0    0    0  0.29487271466E+01 -0.21016037074E+02  0.12576957082E+01  0.10374087009E+03  0.10153924129E+03 0.  0.
         11    1    3    3    0    0  0.23956448013E+02  0.35729731986E+02  0.37432346920E+01  0.43180284337E+02  0.51100000000E-03 0.  1.
         22    1    1    0    0    0 -0.29487271466E+01  0.21016037074E+02 -0.12576957082E+01  0.21259129911E+02  0.00000000000E+00 0. -1.
</event>
<event>
 5    1  0.3183396E-003  0.9118800E+02  0.7818608E-02  0.1130116E+00
         25   -1    0    0    0    0  0.00000000000E+00  0.00000000000E+00  0.99999998245E-14  0.12500000000E+03  0.12500000000E+03 0.  0.
        -11    1    3    3    0    0  0.38131917975E+02  0.23211822333E+02 -0.35382531922E+02  0.56962754761E+02  0.51100000000E-03 0.  1.
         23    2    1    0    0    0  0.19162108083E+02 -0.74082025435E+01 -0.20625674803E+02  0.95888381835E+02  0.91362440088E+02 0.  0.
         11    1    3    3    0    0 -0.18969809893E+02 -0.30620024877E+02  0.14756857119E+02  0.38925627074E+02  0.51100000000E-03 0. -1.
         22    1    1    0    0    0 -0.19162108083E+02  0.74082025435E+01  0.20625674803E+02  0.29111618165E+02  0.00000000000E+00 0.  1.
</event>
<event>
 5    1  0.3183396E-003  0.9118800E+02  0.7818608E-02  0.1130116E+00
         25   -1    0    0    0    0  0.00000000000E+00  0.00000000000E+00  0.99999998245E-14  0.12500000000E+03  0.12500000000E+03 0.  0.
        -11    1    3    3    0    0  0.26879309589E+02  0.95098930244E+01 -0.29334253708E+02  0.40907625086E+02  0.51100000000E-03 0.  1.
         23    2    1    0    0    0  0.12895704426E+02 -0.21267588022E+02  0.14458999002E+02  0.96230708298E+02  0.91829608920E+02 0.  0.
         11    1    3    3    0    0 -0.13983605163E+02 -0.30777481046E+02  0.43793252710E+02  0.55323083212E+02  0.51100000000E-03 0. -1.
         22    1    1    0    0    0 -0.12895704426E+02  0.21267588022E+02 -0.14458999002E+02  0.28769291702E+02  0.00000000000E+00 0. -1.
</event>
<event>
 5    1  0.3183396E-003  0.9118800E+02  0.7818608E-02  0.1130116E+00
         25   -1    0    0    0    0  0.00000000000E+00  0.00000000000E+00  0.99999998245E-14  0.12500000000E+03  0.12500000000E+03 0.  0.
        -11    1    3    3    0    0 -0.10781127982E+02  0.46793900535E+01 -0.33700237468E+02  0.35690831000E+02  0.51100000000E-03 0. -1.
         23    2    1    0    0    0  0.23414495562E+02  0.16458640056E+02  0.11995321902E+02  0.93967546303E+02  0.88695471000E+02 0.  0.
         11    1    3    3    0    0  0.34195623544E+02  0.11779250002E+02  0.45695559370E+02  0.58276715303E+02  0.51100000000E-03 0.  1.
         22    1    1    0    0    0 -0.23414495562E+02 -0.16458640056E+02 -0.11995321902E+02  0.31032453697E+02  0.00000000000E+00 0.  1.
</event>
<event>
 5    1  0.3183396E-003  0.9118800E+02  0.7818608E-02  0.1130116E+00
         25   -1    0    0    0    0  0.00000000000E+00  0.00000000000E+00  0.99999998245E-14  0.12500000000E+03  0.12500000000E+03 0.  0.
        -11    1    3    3    0    0  0.57163785105E+02  0.12455257836E+02  0.13885673579E+02  0.60130222902E+02  0.51100000000E-03 0.  1.
         23    2    1    0    0    0  0.24595713118E+02  0.98640691100E+01 -0.52389506551E+01  0.97987122197E+02  0.94190129787E+02 0.  0.
         11    1    3    3    0    0 -0.32568071986E+02 -0.25911887258E+01 -0.19124624234E+02  0.37856899296E+02  0.51100000000E-03 0. -1.
         22    1    1    0    0    0 -0.24595713118E+02 -0.98640691100E+01  0.52389506551E+01  0.27012877803E+02  0.00000000000E+00 0.  1.
</event>
<event>
 5    1  0.3183396E-003  0.9118800E+02  0.7818608E-02  0.1130116E+00
         25   -1    0    0    0    0  0.00000000000E+00  0.00000000000E+00  0.99999998245E-14  0.12500000000E+03  0.12500000000E+03 0.  0.
        -11    1    3    3    0    0 -0.38311707645E+02 -0.16531284122E+02 -0.42993646275E+02  0.59912635710E+02  0.51100000000E-03 0.  1.
         23    2    1    0    0    0 -0.84834686956E+01 -0.15297554423E+02 -0.24020120591E+02  0.95285515222E+02  0.90533854472E+02 0.  0.
         11    1    3    3    0    0  0.29828238950E+02  0.12337296988E+01  0.18973525685E+02  0.35372879512E+02  0.51100000000E-03 0. -1.
         22    1    1    0    0    0  0.84834686956E+01  0.15297554423E+02  0.24020120591E+02  0.29714484778E+02  0.00000000000E+00 0.  1.
</event>
<event>
 5    1  0.3183396E-003  0.9118800E+02  0.7818608E-02  0.1130116E+00
         25   -1    0    0    0    0  0.00000000000E+00  0.00000000000E+00  0.99999998245E-14  0.12500000000E+03  0.12500000000E+03 0.  0.
        -11    1    3    3    0    0 -0.41968127368E+02  0.40486193244E+02  0.35722548917E+01  0.58422740123E+02  0.51100000000E-03 0.  1.
         23    2    1    0    0    0 -0.41937465272E+02  0.21341064556E+02  0.53077416815E+01  0.77646392412E+02  0.61535340277E+02 0.  0.
         11    1    3    3    0    0  0.30662096138E-01 -0.19145128689E+02  0.17354867898E+01  0.19223652289E+02  0.51100000000E-03 0. -1.
         22    1    1    0    0    0  0.41937465272E+02 -0.21341064556E+02 -0.53077416815E+01  0.47353607588E+02  0.00000000000E+00 0.  1.
</event>
<event>
 5    1  0.3183396E-003  0.9118800E+02  0.7818608E-02  0.1130116E+00
         25   -1    0    0    0    0  0.00000000000E+00  0.00000000000E+00  0.99999998245E-14  0.12500000000E+03  0.12500000000E+03 0.  0.
        -11    1    3    3    0    0 -0.31965347758E+02 -0.11672770636E+02  0.85309318705E+01  0.35082956410E+02  0.51100000000E-03 0.  1.
         23    2    1    0    0    0  0.95144585346E+01  0.29452499754E+02  0.49009927527E+00  0.94044954203E+02  0.88804496231E+02 0.  0.
         11    1    3    3    0    0  0.41479806292E+02  0.41125270390E+02 -0.80408325953E+01  0.58961997794E+02  0.51100000000E-03 0. -1.
         22    1    1    0    0    0 -0.95144585346E+01 -0.29452499754E+02 -0.49009927527E+00  0.30955045797E+02  0.00000000000E+00 0. -1.
</event>
<event>
 5    1  0.3183396E-003  0.9118800E+02  0.7818608E-02  0.1130116E+00
         25   -1    0    0    0    0  0.00000000000E+00  0.00000000000E+00  0.99999998245E-14  0.12500000000E+03  0.12500000000E+03 0.  0.
        -11    1    3    3    0    0 -0.23800255782E+01  0.26818542196E+02 -0.29430145805E+02  0.39887745106E+02  0.51100000000E-03 0.  1.
         23    2    1    0    0    0 -0.26699358166E+02 -0.88578822471E+01  0.65800918998E+01  0.96110288790E+02  0.91665545313E+02 0.  0.
         11    1    3    3    0    0 -0.24319332588E+02 -0.35676424443E+02  0.36010237705E+02  0.56222543684E+02  0.51100000000E-03 0. -1.
         22    1    1    0    0    0  0.26699358166E+02  0.88578822471E+01 -0.65800918998E+01  0.28889711210E+02  0.00000000000E+00 0. -1.
</event>
<event>
 5    1  0.3183396E-003  0.9118800E+02  0.7818608E-02  0.1130116E+00
         25   -1    0    0    0    0  0.00000000000E+00  0.00000000000E+00  0.99999998245E-14  0.12500000000E+03  0.12500000000E+03 0.  0.
        -11    1    3    3    0    0 -0.35822369357E+02  0.66948040151E+01  0.84527652206E+00  0.36452394157E+02  0.51100000000E-03 0.  1.
         23    2    1    0    0    0  0.97305287867E+01 -0.27280536393E+02 -0.10101912128E+02  0.94324937083E+02  0.89197725704E+02 0.  0.
         11    1    3    3    0    0  0.45552898143E+02 -0.33975340408E+02 -0.10947188650E+02  0.57872542926E+02  0.51100000000E-03 0. -1.
         22    1    1    0    0    0 -0.97305287867E+01  0.27280536393E+02  0.10101912128E+02  0.30675062917E+02  0.00000000000E+00 0. -1.
</event>
<event>
 5    1  0.3183396E-003  0.9118800E+02  0.7818608E-02  0.1130116E+00
         25   -1    0    0    0    0  0.00000000000E+00  0.00000000000E+00  0.99999998245E-14  0.12500000000E+03  0.12500000000E+03 0.  0.
        -11    1    3    3    0    0  0.25968813061E+02  0.25175762998E+02  0.44179857599E+02  0.57096918586E+02  0.51100000000E-03 0. -1.
         23    2    1    0    0    0 -0.75988398509E+00  0.15408981716E+01  0.29127894139E+02  0.95821480370E+02  0.91270861136E+02 0.  0.
         11    1    3    3    0    0 -0.26728697046E+02 -0.23634864826E+02 -0.15051963460E+02  0.38724561784E+02  0.51100000000E-03 0.  1.
         22    1    1    0    0    0  0.75988398509E+00 -0.15408981716E+01 -0.29127894139E+02  0.29178519630E+02  0.00000000000E+00 0. -1.
</event>
<event>
 5    1  0.3183396E-003  0.9118800E+02  0.7818608E-02  0.1130116E+00
         25   -1    0    0    0    0  0.00000000000E+00  0.00000000000E+00  0.99999998245E-14  0.12500000000E+03  0.12500000000E+03 0.  0.
        -11    1    3    3    0    0 -0.27059954239E+02 -0.16786488405E+02 -0.23480460413E+02  0.39564622301E+02  0.51100000000E-03 0. -1.
         23    2    1    0    0    0  0.21849723654E+02 -0.23932786945E+02 -0.56904562462E+01  0.92097568373E+02  0.86019719211E+02 0.  0.
         11    1    3    3    0    0  0.48909677893E+02 -0.71462985402E+01  0.17790004167E+02  0.52532946071E+02  0.51100000000E-03 0.  1.
         22    1    1    0    0    0 -0.21849723654E+02  0.23932786945E+02  0.56904562462E+01  0.32902431627E+02  0.00000000000E+00 0.  1.
</event>
<event>
 5    1  0.3183396E-003  0.9118800E+02  0.7818608E-02  0.1130116E+00
         25   -1    0    0    0    0  0.00000000000E+00  0.00000000000E+00  0.99999998245E-14  0.12500000000E+03  0.12500000000E+03 0.  0.
        -11    1    3    3    0    0  0.73282450183E+01  0.44944202444E+02 -0.37019051647E+02  0.58686409785E+02  0.51100000000E-03 0.  1.
         23    2    1    0    0    0  0.11848124534E+02  0.26948423539E+02 -0.58106423896E+01  0.94994014744E+02  0.90130481448E+02 0.  0.
         11    1    3    3    0    0  0.45198795158E+01 -0.17995778905E+02  0.31208409257E+02  0.36307604959E+02  0.51100000000E-03 0. -1.
         22    1    1    0    0    0 -0.11848124534E+02 -0.26948423539E+02  0.58106423896E+01  0.30005985256E+02  0.00000000000E+00 0.  1.
</event>
<event>
 5    1  0.3183396E-003  0.9118800E+02  0.7818608E-02  0.1130116E+00
         25   -1    0    0    0    0  0.00000000000E+00  0.00000000000E+00  0.99999998245E-14  0.12500000000E+03  0.12500000000E+03 0.  0.
        -11    1    3    3    0    0 -0.44127243979E+02 -0.21010226107E+02  0.21402198556E+02  0.53354450288E+02  0.51100000000E-03 0.  1.
         23    2    1    0    0    0 -0.14318476573E+02  0.97358080942E+01  0.23003520199E+02  0.96208218670E+02  0.91798990558E+02 0.  0.
         11    1    3    3    0    0  0.29808767405E+02  0.30746034201E+02  0.16013216423E+01  0.42853768382E+02  0.51100000000E-03 0. -1.
         22    1    1    0    0    0  0.14318476573E+02 -0.97358080942E+01 -0.23003520199E+02  0.28791781330E+02  0.00000000000E+00 0.  1.
</event>
<event>
 5    1  0.3183396E-003  0.9118800E+02  0.7818608E-02  0.1130116E+00
         25   -1    0    0    0    0  0.00000000000E+00  0.00000000000E+00  0.99999998245E-14  0.12500000000E+03  0.12500000000E+03 0.  0.
        -11    1    3    3    0    0  0.10572787454E+02 -0.41557929691E+02  0.58234099092E+01  0.43275367797E+02  0.51100000000E-03 0.  1.
         23    2    1    0    0    0 -0.12525663834E+02 -0.71557340284E+01 -0.25826952654E+02  0.95417433050E+02  0.90715810433E+02 0.  0.
         11    1    3    3    0    0 -0.23098451288E+02  0.34402195662E+02 -0.31650362563E+02  0.52142065253E+02  0.51100000000E-03 0. -1.
         22    1    1    0    0    0  0.12525663834E+02  0.71557340284E+01  0.25826952654E+02  0.29582566950E+02  0.00000000000E+00 0. -1.
</event>
<event>
 5    1  0.3183396E-003  0.9118800E+02  0.7818608E-02  0.1130116E+00
         25   -1    0    0    0    0  0.00000000000E+00  0.00000000000E+00  0.99999998245E-14  0.12500000000E+03  0.12500000000E+03 0.  0.
        -11    1    3    3    0    0 -0.14844664874E+02  0.26188289063E+02 -0.51351638836E+02  0.59524628270E+02  0.51100000000E-03 0.  1.
         23    2    1    0    0    0  0.69625751232E+01  0.13684233310E+02 -0.22042832096E+02  0.98136974473E+02  0.94388789686E+02 0.  0.
         11    1    3    3    0    0  0.21807239997E+02 -0.12504055753E+02  0.29308806740E+02  0.38612346203E+02  0.51100000000E-03 0. -1.
         22    1    1    0    0    0 -0.69625751232E+01 -0.13684233310E+02  0.22042832096E+02  0.26863025527E+02  0.00000000000E+00 0.  1.
</event>
<event>
 5    1  0.3183396E-003  0.9118800E+02  0.7818608E-02  0.1130116E+00
         25   -1    0    0    0    0  0.00000000000E+00  0.00000000000E+00  0.99999998245E-14  0.12500000000E+03  0.12500000000E+03 0.  0.
        -11    1    3    3    0    0  0.81526324399E+01 -0.14557462792E+02  0.36973370035E+02  0.40563718156E+02  0.51100000000E-03 0. -1.
         23    2    1    0    0    0 -0.22350218483E+02  0.18204126903E+02  0.45932228219E+01  0.95810614970E+02  0.91255979215E+02 0.  0.
         11    1    3    3    0    0 -0.30502850923E+02  0.32761589695E+02 -0.32380147213E+02  0.55246896814E+02  0.51100000000E-03 0.  1.
         22    1    1    0    0    0  0.22350218483E+02 -0.18204126903E+02 -0.45932228219E+01  0.29189385030E+02  0.00000000000E+00 0. -1.
</event>
<event>
 5    1  0.3183396E-003  0.9118800E+02  0.7818608E-02  0.1130116E+00
         25   -1    0    0    0    0  0.00000000000E+00  0.00000000000E+00  0.99999998245E-14  0.12500000000E+03  0.12500000000E+03 0.  0.
        -11    1    3    3    0    0  0.38553005660E+02 -0.11711523954E+01  0.46256144859E+02  0.60227375676E+02  0.51100000000E-03 0. -1.
         23    2    1    0    0    0  0.24609189115E+02  0.69173986136E+01  0.15090305961E+02  0.95315325057E+02  0.90575003529E+02 0.  0.
         11    1    3    3    0    0 -0.13943816545E+02  0.80885510089E+01 -0.31165838898E+02  0.35087949381E+02  0.51100000000E-03 0.  1.
         22    1    1    0    0    0 -0.24609189115E+02 -0.69173986136E+01 -0.15090305961E+02  0.29684674943E+02  0.00000000000E+00 0. -1.
</event>
<event>
 5    1  0.3183396E-003  0.9118800E+02  0.7818608E-02  0.1130116E+00
         25   -1    0    0    0    0  0.00000000000E+00  0.00000000000E+00  0.99999998245E-14  0.12500000000E+03  0.12500000000E+03 0.  0.
        -11    1    3    3    0    0  0.37446589921E+02 -0.54417026223E+01  0.73700770238E+01  0.38550969634E+02  0.51100000000E-03 0. -1.
         23    2    1    0    0    0 -0.79760709311E+01  0.10427880489E+02 -0.25153020233E+02  0.96626899609E+02  0.92367336771E+02 0.  0.
         11    1    3    3    0    0 -0.45422660852E+02  0.15869583112E+02 -0.32523097257E+02  0.58075929975E+02  0.51100000000E-03 0.  1.
         22    1    1    0    0    0  0.79760709311E+01 -0.10427880489E+02  0.25153020233E+02  0.28373100391E+02  0.00000000000E+00 0.  1.
</event>
<event>
 5    1  0.3183396E-003  0.9118800E+02  0.7818608E-02  0.1130116E+00
         25   -1    0    0    0    0  0.00000000000E+00  0.00000000000E+00  0.99999998245E-14  0.12500000000E+03  0.12500000000E+03 0.  0.
        -11    1    3    3    0    0  0.25464358824E+02 -0.25145439649E+02 -0.10550877659E+02  0.37310155790E+02  0.51100000000E-03 0.  1.
         23    2    1    0    0    0  0.13115813044E+01  0.15155498117E+02  0.24660920183E+02  0.96024659571E+02  0.91548702300E+02 0.  0.
         11    1    3    3    0    0 -0.24152777519E+02  0.40300937766E+02  0.35211797842E+02  0.58714503781E+02  0.51100000000E-03 0. -1.
         22    1    1    0    0    0 -0.13115813044E+01 -0.15155498117E+02 -0.24660920183E+02  0.28975340429E+02  0.00000000000E+00 0. -1.
</event>
<event>
 5    1  0.3183396E-003  0.9118800E+02  0.7818608E-02  0.1130116E+00
         25   -1    0    0    0    0  0.00000000000E+00  0.00000000000E+00  0.99999998245E-14  0.12500000000E+03  0.12500000000E+03 0.  0.
        -11    1    3    3    0    0 -0.22009130558E+02 -0.21948997791E+02 -0.21610240140E+02  0.37857136858E+02  0.51100000000E-03 0.  1.
         23    2    1    0    0    0  0.67632922872E+01  0.26893270267E+02 -0.67469005147E+01  0.96460364845E+02  0.92141690951E+02 0.  0.
         11    1    3    3    0    0  0.28772422845E+02  0.48842268058E+02  0.14863339625E+02  0.58603227987E+02  0.51100000000E-03 0. -1.
         22    1    1    0    0    0 -0.67632922872E+01 -0.26893270267E+02  0.67469005147E+01  0.28539635155E+02  0.00000000000E+00 0. -1.
</event>
<event>
 5    1  0.3183396E-003  0.9118800E+02  0.7818608E-02  0.1130116E+00
         25   -1    0    0    0    0  0.00000000000E+00  0.00000000000E+00  0.99999998245E-14  0.12500000000E+03  0.12500000000E+03 0.  0.
        -11    1    3    3    0    0  0.39717277852E+01  0.54959781774E+02 -0.20511538637E+02  0.58796900019E+02  0.51100000000E-03 0. -1.
         23    2    1    0    0    0  0.16246168331E+02  0.31253486590E+02 -0.57250806985E+01  0.89313938877E+02  0.81874811263E+02 0.  0.
         11    1    3    3    0    0  0.12274440545E+02 -0.23706295185E+02  0.14786457938E+02  0.30517038859E+02  0.51100000000E-03 0.  1.
         22    1    1    0    0    0 -0.16246168331E+02 -0.31253486590E+02  0.57250806985E+01  0.35686061123E+02  0.00000000000E+00 0. -1.
</event>
<event>
 5    1  0.3183396E-003  0.9118800E+02  0.7818608E-02  0.1130116E+00
         25   -1    0    0    0    0  0.00000000000E+00  0.00000000000E+00  0.99999998245E-14  0.12500000000E+03  0.12500000000E+03 0.  0.
        -11    1    3    3    0    0  0.12907565073E+02 -0.58005420234E+02 -0.11587412146E+02  0.60543390500E+02  0.51100000000E-03 0.  1.
         23    2    1    0    0    0  0.34576802977E+01 -0.27365793241E+02  0.54962837283E+01  0.96874365294E+02  0.92701625248E+02 0.  0.
         11    1    3    3    0    0 -0.94498847750E+01  0.30639626993E+02  0.17083695875E+02  0.36330974795E+02  0.51100000000E-03 0. -1.
         22    1    1    0    0    0 -0.34576802977E+01  0.27365793241E+02 -0.54962837283E+01  0.28125634706E+02  0.00000000000E+00 0.  1.
</event>
<event>
 5    1  0.3183396E-003  0.9118800E+02  0.7818608E-02  0.1130116E+00
         25   -1    0    0    0    0  0.00000000000E+00  0.00000000000E+00  0.99999998245E-14  0.12500000000E+03  0.12500000000E+03 0.  0.
        -11    1    3    3    0    0 -0.27717965589E+02  0.34246840510E+02  0.12018435286E+01  0.44074665393E+02  0.51100000000E-03 0.  1.
         23    2    1    0    0    0  0.11524118709E+02  0.13358249884E+02 -0.24028241175E+02  0.95190529593E+02  0.90402612784E+02 0.  0.
         11    1    3    3    0    0  0.39242084299E+02 -0.20888590627E+02 -0.25230084704E+02  0.51115864200E+02  0.51100000000E-03 0. -1.
         22    1    1    0    0    0 -0.11524118709E+02 -0.13358249884E+02  0.24028241175E+02  0.29809470407E+02  0.00000000000E+00 0. -1.
</event>
<event>
 5    1  0.3183396E-003  0.9118800E+02  0.7818608E-02  0.1130116E+00
         25   -1    0    0    0    0  0.00000000000E+00  0.00000000000E+00  0.99999998245E-14  0.12500000000E+03  0.12500000000E+03 0.  0.
        -11    1    3    3    0    0 -0.16693658370E+02 -0.41633291629E+02  0.38354042652E+02  0.59017300766E+02  0.51100000000E-03 0. -1.
         23    2    1    0    0    0  0.29036567050E+01 -0.26894989216E+02  0.10879369607E+02  0.95842970826E+02  0.91300288644E+02 0.  0.
         11    1    3    3    0    0  0.19597315075E+02  0.14738302413E+02 -0.27474673046E+02  0.36825670060E+02  0.51100000000E-03 0.  1.
         22    1    1    0    0    0 -0.29036567050E+01  0.26894989216E+02 -0.10879369607E+02  0.29157029174E+02  0.00000000000E+00 0. -1.
</event>
<event>
 5    1  0.3183396E-003  0.9118800E+02  0.7818608E-02  0.1130116E+00
         25   -1    0    0    0    0  0.00000000000E+00  0.00000000000E+00  0.99999998245E-14  0.12500000000E+03  0.12500000000E+03 0.  0.
        -11    1    3    3    0    0 -0.31239879964E+02 -0.29175257540E+02 -0.11408374264E+02  0.44241120650E+02  0.51100000000E-03 0. -1.
         23    2    1    0    0    0 -0.68394388302E+01  0.14283619037E+02 -0.24550340455E+02  0.95784954001E+02  0.91220822733E+02 0.  0.
         11    1    3    3    0    0  0.24400441134E+02  0.43458876577E+02 -0.13141966191E+02  0.51543833351E+02  0.51100000000E-03 0.  1.
         22    1    1    0    0    0  0.68394388302E+01 -0.14283619037E+02  0.24550340455E+02  0.29215045999E+02  0.00000000000E+00 0. -1.
</event>
<event>
 5    1  0.3183396E-003  0.9118800E+02  0.7818608E-02  0.1130116E+00
         25   -1    0    0    0    0  0.00000000000E+00  0.00000000000E+00  0.99999998245E-14  0.12500000000E+03  0.12500000000E+03 0.  0.
        -11    1    3    3    0    0 -0.22510068970E+02  0.42330340477E+01  0.38547348707E+02  0.44838821069E+02  0.51100000000E-03 0.  1.
         23    2    1    0    0    0  0.23001622863E+02 -0.51572383331E+01  0.16154950309E+02  0.96422838121E+02  0.92090767888E+02 0.  0.
         11    1    3    3    0    0  0.45511691833E+02 -0.93902723808E+01 -0.22392398398E+02  0.51584017052E+02  0.51100000000E-03 0. -1.
         22    1    1    0    0    0 -0.23001622863E+02  0.51572383331E+01 -0.16154950309E+02  0.28577161879E+02  0.00000000000E+00 0. -1.
</event>
<event>
 5    1  0.3183396E-003  0.9118800E+02  0.7818608E-02  0.1130116E+00
         25   -1    0    0    0    0  0.00000000000E+00  0.00000000000E+00  0.99999998245E-14  0.12500000000E+03  0.12500000000E+03 0.  0.
        -11    1    3    3    0    0 -0.12789329476E+02 -0.12787759866E+01 -0.54844260317E+02  0.56330232614E+02  0.51100000000E-03 0.  1.
         23    2    1    0    0    0  0.12993934121E+02 -0.68506526888E+01 -0.23373080562E+02  0.97394300205E+02  0.93400080574E+02 0.  0.
         11    1    3    3    0    0  0.25783263597E+02 -0.55718767022E+01  0.31471179755E+02  0.41064067591E+02  0.51100000000E-03 0. -1.
         22    1    1    0    0    0 -0.12993934121E+02  0.68506526888E+01  0.23373080562E+02  0.27605699795E+02  0.00000000000E+00 0.  1.
</event>
<event>
 5    1  0.3183396E-003  0.9118800E+02  0.7818608E-02  0.1130116E+00
         25   -1    0    0    0    0  0.00000000000E+00  0.00000000000E+00  0.99999998245E-14  0.12500000000E+03  0.12500000000E+03 0.  0.
        -11    1    3    3    0    0  0.30046648316E+01 -0.26781858060E+02  0.18168477932E+02  0.32502146429E+02  0.51100000000E-03 0.  1.
         23    2    1    0    0    0 -0.20945086681E+02  0.22308434140E+02  0.22083923188E+02  0.87263246652E+02  0.78681711109E+02 0.  0.
         11    1    3    3    0    0 -0.23949751513E+02  0.49090292200E+02  0.39154452564E+01  0.54761100223E+02  0.51100000000E-03 0. -1.
         22    1    1    0    0    0  0.20945086681E+02 -0.22308434140E+02 -0.22083923188E+02  0.37736753348E+02  0.00000000000E+00 0. -1.
</event>
<event>
 5    1  0.3183396E-003  0.9118800E+02  0.7818608E-02  0.1130116E+00
         25   -1    0    0    0    0  0.00000000000E+00  0.00000000000E+00  0.99999998245E-14  0.12500000000E+03  0.12500000000E+03 0.  0.
        -11    1    3    3    0    0  0.25028136892E+02 -0.81888407531E+01 -0.54410514112E+02  0.60448066928E+02  0.51100000000E-03 0.  1.
         23    2    1    0    0    0  0.82642128066E+01 -0.14493826050E+02 -0.23363905988E+02  0.96290414320E+02  0.91910845824E+02 0.  0.
         11    1    3    3    0    0 -0.16763924085E+02 -0.63049852967E+01  0.31046608124E+02  0.35842347392E+02  0.51100000000E-03 0. -1.
         22    1    1    0    0    0 -0.82642128066E+01  0.14493826050E+02  0.23363905988E+02  0.28709585680E+02  0.00000000000E+00 0.  1.
</event>
<event>
 5    1  0.3183396E-003  0.9118800E+02  0.7818608E-02  0.1130116E+00
         25   -1    0    0    0    0  0.00000000000E+00  0.00000000000E+00  0.99999998245E-14  0.12500000000E+03  0.12500000000E+03 0.  0.
        -11    1    3    3    0    0  0.17773619935E+02 -0.42062082211E+01  0.37208727681E+02  0.41449766816E+02  0.51100000000E-03 0.  1.
         23    2    1    0    0    0  0.22426564143E+02  0.37893190790E+00 -0.17502426483E+02  0.96549528976E+02  0.92262572282E+02 0.  0.
         11    1    3    3    0    0  0.46529442082E+01  0.45851401290E+01 -0.54711154165E+02  0.55099762160E+02  0.51100000000E-03 0. -1.
         22    1    1    0    0    0 -0.22426564143E+02 -0.37893190790E+00  0.17502426483E+02  0.28450471024E+02  0.00000000000E+00 0. -1.
</event>
<event>
 5    1  0.3183396E-003  0.9118800E+02  0.7818608E-02  0.1130116E+00
         25   -1    0    0    0    0  0.00000000000E+00  0.00000000000E+00  0.99999998245E-14  0.12500000000E+03  0.12500000000E+03 0.  0.
        -11    1    3    3    0    0 -0.23119002686E+02  0.16209084642E+02 -0.14850665699E+02  0.31902429094E+02  0.51100000000E-03 0.  1.
         23    2    1    0    0    0  0.20615223560E+02 -0.23528440346E+02  0.28516020885E+01  0.93588114001E+02  0.88159109003E+02 0.  0.
         11    1    3    3    0    0  0.43734226245E+02 -0.39737524988E+02  0.17702267788E+02  0.61685684908E+02  0.51100000000E-03 0. -1.
         22    1    1    0    0    0 -0.20615223560E+02  0.23528440346E+02 -0.28516020885E+01  0.31411885999E+02  0.00000000000E+00 0. -1.
</event>
<event>
 5    1  0.3183396E-003  0.9118800E+02  0.7818608E-02  0.1130116E+00
         25   -1    0    0    0    0  0.00000000000E+00  0.00000000000E+00  0.99999998245E-14  0.12500000000E+03  0.12500000000E+03 0.  0.
        -11    1    3    3    0    0 -0.16398674708E+02  0.40783131799E+02  0.25116780827E+02  0.50626406656E+02  0.51100000000E-03 0.  1.
         23    2    1    0    0    0  0.11191957040E+02 -0.72234704304E+01 -0.57515653271E+00  0.11166698712E+03  0.11086815043E+03 0.  0.
         11    1    3    3    0    0  0.27590631748E+02 -0.48006602229E+02 -0.25691937360E+02  0.61040580464E+02  0.51100000000E-03 0. -1.
         22    1    1    0    0    0 -0.11191957040E+02  0.72234704304E+01  0.57515653271E+00  0.13333012880E+02  0.00000000000E+00 0. -1.
</event>
<event>
 5    1  0.3183396E-003  0.9118800E+02  0.7818608E-02  0.1130116E+00
         25   -1    0    0    0    0  0.00000000000E+00  0.00000000000E+00  0.99999998245E-14  0.12500000000E+03  0.12500000000E+03 0.  0.
        -11    1    3    3    0    0 -0.23343152246E+02 -0.21770513531E+02  0.17661585584E+02  0.36479989334E+02  0.51100000000E-03 0.  1.
         23    2    1    0    0    0  0.14080084374E+02  0.23662189381E+02  0.19788570247E+01  0.97394495886E+02  0.93400342459E+02 0.  0.
         11    1    3    3    0    0  0.37423236620E+02  0.45432702913E+02 -0.15682728559E+02  0.60914506551E+02  0.51100000000E-03 0. -1.
         22    1    1    0    0    0 -0.14080084374E+02 -0.23662189381E+02 -0.19788570247E+01  0.27605504114E+02  0.00000000000E+00 0. -1.
</event>
<event>
 5    1  0.3183396E-003  0.9118800E+02  0.7818608E-02  0.1130116E+00
         25   -1    0    0    0    0  0.00000000000E+00  0.00000000000E+00  0.99999998245E-14  0.12500000000E+03  0.12500000000E+03 0.  0.
        -11    1    3    3    0    0  0.38638736897E+02  0.21867778963E+02  0.43926271632E+02  0.62455336726E+02  0.51100000000E-03 0. -1.
         23    2    1    0    0    0  0.16779554717E+02  0.92021502692E+01  0.21246094754E+02  0.96405777361E+02  0.92067607443E+02 0.  0.
         11    1    3    3    0    0 -0.21859182181E+02 -0.12665628694E+02 -0.22680176878E+02  0.33950440635E+02  0.51100000000E-03 0.  1.
         22    1    1    0    0    0 -0.16779554717E+02 -0.92021502692E+01 -0.21246094754E+02  0.28594222639E+02  0.00000000000E+00 0. -1.
</event>
<event>
 5    1  0.3183396E-003  0.9118800E+02  0.7818608E-02  0.1130116E+00
         25   -1    0    0    0    0  0.00000000000E+00  0.00000000000E+00  0.99999998245E-14  0.12500000000E+03  0.12500000000E+03 0.  0.
        -11    1    3    3    0    0  0.14594818798E+02  0.33261151831E+02  0.13990465158E+02  0.38923592749E+02  0.51100000000E-03 0. -1.
         23    2    1    0    0    0 -0.15935329737E+02  0.31643872016E+01 -0.23874471346E+02  0.96122007302E+02  0.91681523905E+02 0.  0.
         11    1    3    3    0    0 -0.30530148534E+02 -0.30096764630E+02 -0.37864936504E+02  0.57198414553E+02  0.51100000000E-03 0.  1.
         22    1    1    0    0    0  0.15935329737E+02 -0.31643872016E+01  0.23874471346E+02  0.28877992698E+02  0.00000000000E+00 0.  1.
</event>
<event>
 5    1  0.3183396E-003  0.9118800E+02  0.7818608E-02  0.1130116E+00
         25   -1    0    0    0    0  0.00000000000E+00  0.00000000000E+00  0.99999998245E-14  0.12500000000E+03  0.12500000000E+03 0.  0.
        -11    1    3    3    0    0 -0.11039791967E+02 -0.10991765799E+02 -0.30198208517E+02  0.33979813419E+02  0.51100000000E-03 0. -1.
         23    2    1    0    0    0  0.42668140201E+00  0.25247773629E+02  0.16984121199E+02  0.94568232008E+02  0.89538025453E+02 0.  0.
         11    1    3    3    0    0  0.11466473369E+02  0.36239539428E+02  0.47182329716E+02  0.60588418589E+02  0.51100000000E-03 0.  1.
         22    1    1    0    0    0 -0.42668140201E+00 -0.25247773629E+02 -0.16984121199E+02  0.30431767992E+02  0.00000000000E+00 0.  1.
</event>
<event>
 5    1  0.3183396E-003  0.9118800E+02  0.7818608E-02  0.1130116E+00
         25   -1    0    0    0    0  0.00000000000E+00  0.00000000000E+00  0.99999998245E-14  0.12500000000E+03  0.12500000000E+03 0.  0.
        -11    1    3    3    0    0 -0.98540651576E+01  0.35847270075E+02 -0.17708381541E+02  0.41179074164E+02  0.51100000000E-03 0.  1.
         23    2    1    0    0    0 -0.11722539032E+02 -0.20606884600E+02 -0.13252309961E+02  0.97839636718E+02  0.93994197584E+02 0.  0.
         11    1    3    3    0    0 -0.18684738748E+01 -0.56454154675E+02  0.44560715801E+01  0.56660562554E+02  0.51100000000E-03 0. -1.
         22    1    1    0    0    0  0.11722539032E+02  0.20606884600E+02  0.13252309961E+02  0.27160363282E+02  0.00000000000E+00 0. -1.
</event>
<event>
 5    1  0.3183396E-003  0.9118800E+02  0.7818608E-02  0.1130116E+00
         25   -1    0    0    0    0  0.00000000000E+00  0.00000000000E+00  0.99999998245E-14  0.12500000000E+03  0.12500000000E+03 0.  0.
        -11    1    3    3    0    0  0.82035205127E-01 -0.44212905900E+02 -0.12529681872E+02  0.45954115223E+02  0.51100000000E-03 0.  1.
         23    2    1    0    0    0 -0.21717107028E+02 -0.78437171644E+00 -0.20416438096E+02  0.95182573532E+02  0.90391611242E+02 0.  0.
         11    1    3    3    0    0 -0.21799142233E+02  0.43428534184E+02 -0.78867562247E+01  0.49228458309E+02  0.51100000000E-03 0. -1.
         22    1    1    0    0    0  0.21717107028E+02  0.78437171644E+00  0.20416438096E+02  0.29817426468E+02  0.00000000000E+00 0.  1.
</event>
<event>
 5    1  0.3183396E-003  0.9118800E+02  0.7818608E-02  0.1130116E+00
         25   -1    0    0    0    0  0.00000000000E+00  0.00000000000E+00  0.99999998245E-14  0.12500000000E+03  0.12500000000E+03 0.  0.
        -11    1    3    3    0    0 -0.30000425148E+02  0.12352516817E+02 -0.27826951108E+02  0.42742828509E+02  0.51100000000E-03 0. -1.
         23    2    1    0    0    0  0.20476582815E+02  0.16978685059E+02 -0.74265173573E+01  0.97382625937E+02  0.93384455260E+02 0.  0.
         11    1    3    3    0    0  0.50477007962E+02  0.46261682419E+01  0.20400433750E+02  0.54639797427E+02  0.51100000000E-03 0.  1.
         22    1    1    0    0    0 -0.20476582815E+02 -0.16978685059E+02  0.74265173573E+01  0.27617374063E+02  0.00000000000E+00 0.  1.
</event>
<event>
 5    1  0.3183396E-003  0.9118800E+02  0.7818608E-02  0.1130116E+00
         25   -1    0    0    0    0  0.00000000000E+00  0.00000000000E+00  0.99999998245E-14  0.12500000000E+03  0.12500000000E+03 0.  0.
        -11    1    3    3    0    0 -0.32042384238E+00  0.18885037928E+02  0.36239079422E+02  0.40865856244E+02  0.51100000000E-03 0. -1.
         23    2    1    0    0    0 -0.28577262364E+02 -0.73534825056E+01 -0.23239959139E+01  0.95400429291E+02  0.90692377423E+02 0.  0.
         11    1    3    3    0    0 -0.28256838522E+02 -0.26238520434E+02 -0.38563075335E+02  0.54534573046E+02  0.51100000000E-03 0.  1.
         22    1    1    0    0    0  0.28577262364E+02  0.73534825056E+01  0.23239959139E+01  0.29599570709E+02  0.00000000000E+00 0. -1.
</event>
<event>
 5    1  0.3183396E-003  0.9118800E+02  0.7818608E-02  0.1130116E+00
         25   -1    0    0    0    0  0.00000000000E+00  0.00000000000E+00  0.99999998245E-14  0.12500000000E+03  0.12500000000E+03 0.  0.
        -11    1    3    3    0    0  0.28840113635E+02  0.13377203628E+02  0.26127389065E+02  0.41150239258E+02  0.51100000000E-03 0.  1.
         23    2    1    0    0    0  0.16655808939E+02 -0.95179346898E+01 -0.21993792495E+02  0.95815518499E+02  0.91262695691E+02 0.  0.
         11    1    3    3    0    0 -0.12184304696E+02 -0.22895138318E+02 -0.48121181560E+02  0.54665279241E+02  0.51100000000E-03 0. -1.
         22    1    1    0    0    0 -0.16655808939E+02  0.95179346898E+01  0.21993792495E+02  0.29184481501E+02  0.00000000000E+00 0.  1.
</event>
<event>
 5    1  0.3183396E-003  0.9118800E+02  0.7818608E-02  0.1130116E+00
         25   -1    0    0    0    0  0.00000000000E+00  0.00000000000E+00  0.99999998245E-14  0.12500000000E+03  0.12500000000E+03 0.  0.
        -11    1    3    3    0    0  0.25341974848E+02 -0.40352149284E+02 -0.28171101747E+02  0.55354517566E+02  0.51100000000E-03 0. -1.
         23    2    1    0    0    0 -0.80407656678E+01 -0.17479381476E+02 -0.21118232274E+02  0.96431443444E+02  0.92102447639E+02 0.  0.
         11    1    3    3    0    0 -0.33382740516E+02  0.22872767808E+02  0.70528694734E+01  0.41076925878E+02  0.51100000000E-03 0.  1.
         22    1    1    0    0    0  0.80407656678E+01  0.17479381476E+02  0.21118232274E+02  0.28568556556E+02  0.00000000000E+00 0. -1.
</event>
<event>
 5    1  0.3183396E-003  0.9118800E+02  0.7818608E-02  0.1130116E+00
         25   -1    0    0    0    0  0.00000000000E+00  0.00000000000E+00  0.99999998245E-14  0.12500000000E+03  0.12500000000E+03 0.  0.
        -11    1    3    3    0    0  0.90259949023E+01 -0.29034211112E+02 -0.30297192492E+02  0.42922882849E+02  0.51100000000E-03 0.  1.
         23    2    1    0    0    0 -0.27947960572E+02  0.16756403153E+01 -0.81820609831E+01  0.95830797191E+02  0.91283620095E+02 0.  0.
         11    1    3    3    0    0 -0.36973955474E+02  0.30709851428E+02  0.22115131509E+02  0.52907914342E+02  0.51100000000E-03 0. -1.
         22    1    1    0    0    0  0.27947960572E+02 -0.16756403153E+01  0.81820609831E+01  0.29169202809E+02  0.00000000000E+00 0. -1.
</event>
<event>
 5    1  0.3183396E-003  0.9118800E+02  0.7818608E-02  0.1130116E+00
         25   -1    0    0    0    0  0.00000000000E+00  0.00000000000E+00  0.99999998245E-14  0.12500000000E+03  0.12500000000E+03 0.  0.
        -11    1    3    3    0    0 -0.40138403088E+02  0.28398405398E+01 -0.35882425316E+02  0.53913862257E+02  0.51100000000E-03 0.  1.
         23    2    1    0    0    0 -0.24018938324E+02 -0.17545222232E+02 -0.40917272235E+01  0.94975236004E+02  0.90104433858E+02 0.  0.
         11    1    3    3    0    0  0.16119464764E+02 -0.20385062771E+02  0.31790698092E+02  0.41061373746E+02  0.51100000000E-03 0. -1.
         22    1    1    0    0    0  0.24018938324E+02  0.17545222232E+02  0.40917272235E+01  0.30024763996E+02  0.00000000000E+00 0.  1.
</event>
<event>
 5    1  0.3183396E-003  0.9118800E+02  0.7818608E-02  0.1130116E+00
         25   -1    0    0    0    0  0.00000000000E+00  0.00000000000E+00  0.99999998245E-14  0.12500000000E+03  0.12500000000E+03 0.  0.
        -11    1    3    3    0    0  0.40755165371E+02  0.28111813947E+02  0.29310862178E+02  0.57535938592E+02  0.51100000000E-03 0. -1.
         23    2    1    0    0    0  0.56364211226E+01  0.24863863008E+02  0.12134382269E+02  0.96764841779E+02  0.92553824582E+02 0.  0.
         11    1    3    3    0    0 -0.35118744249E+02 -0.32479509391E+01 -0.17176479909E+02  0.39228903187E+02  0.51100000000E-03 0.  1.
         22    1    1    0    0    0 -0.56364211226E+01 -0.24863863008E+02 -0.12134382269E+02  0.28235158221E+02  0.00000000000E+00 0.  1.
</event>
<event>
 5    1  0.3183396E-003  0.9118800E+02  0.7818608E-02  0.1130116E+00
         25   -1    0    0    0    0  0.00000000000E+00  0.00000000000E+00  0.99999998245E-14  0.12500000000E+03  0.12500000000E+03 0.  0.
        -11    1    3    3    0    0  0.32292049490E+02  0.68572002074E+01 -0.20571580563E+02  0.38897141053E+02  0.51100000000E-03 0.  1.
         23    2    1    0    0    0 -0.43123340911E+01 -0.18051439120E+02  0.19115993531E+02  0.98356578893E+02  0.94679167314E+02 0.  0.
         11    1    3    3    0    0 -0.36604383581E+02 -0.24908639327E+02  0.39687574094E+02  0.59459437840E+02  0.51100000000E-03 0. -1.
         22    1    1    0    0    0  0.43123340911E+01  0.18051439120E+02 -0.19115993531E+02  0.26643421107E+02  0.00000000000E+00 0. -1.
</event>
<event>
 5    1  0.3183396E-003  0.9118800E+02  0.7818608E-02  0.1130116E+00
         25   -1    0    0    0    0  0.00000000000E+00  0.00000000000E+00  0.99999998245E-14  0.12500000000E+03  0.12500000000E+03 0.  0.
        -11    1    3    3    0    0  0.21724652411E+02 -0.12292777705E+02 -0.36141078098E+02  0.43923233402E+02  0.51100000000E-03 0.  1.
         23    2    1    0    0    0  0.25893981651E+02  0.11264809710E+02  0.92937887405E+01  0.95271751940E+02  0.90514849527E+02 0.  0.
         11    1    3    3    0    0  0.41693292405E+01  0.23557587416E+02  0.45434866839E+02  0.51348518538E+02  0.51100000000E-03 0. -1.
         22    1    1    0    0    0 -0.25893981651E+02 -0.11264809710E+02 -0.92937887405E+01  0.29728248060E+02  0.00000000000E+00 0. -1.
</event>
<event>
 4    1  0.3183396E-003  0.9118800E+02  0.7818608E-02  0.1130116E+00
         25   -1    0    0    0    0  0.00000000000E+00  0.00000000000E+00  0.99999998245E-14  0.12500000000E+03  0.12500000000E+03 0.  0.
        -11    1    1    0    0    0  0.79117457661E+01 -0.50968747122E+02  0.22556828962E+02  0.56295820781E+02  0.51100000000E-03 0.  1.
         11    1    1    0    0    0  0.12618078451E+02  0.94721838011E+01  0.26358052343E+01  0.15996425828E+02  0.51100000000E-03 0. -1.
         22    1    1    0    0    0 -0.20529824217E+02  0.41496563321E+02 -0.25192634196E+02  0.52707753392E+02  0.00000000000E+00 0.  1.
</event>
<event>
 5    1  0.3183396E-003  0.9118800E+02  0.7818608E-02  0.1130116E+00
         25   -1    0    0    0    0  0.00000000000E+00  0.00000000000E+00  0.99999998245E-14  0.12500000000E+03  0.12500000000E+03 0.  0.
        -11    1    3    3    0    0  0.45288987448E+02 -0.32970092997E+01 -0.39504368943E+02  0.60187688278E+02  0.51100000000E-03 0.  1.
         23    2    1    0    0    0  0.13283181984E+02 -0.10960873284E+00 -0.27392228642E+02  0.94556788480E+02  0.89522048234E+02 0.  0.
         11    1    3    3    0    0 -0.32005805464E+02  0.31874005669E+01  0.12112140301E+02  0.34369100202E+02  0.51100000000E-03 0. -1.
         22    1    1    0    0    0 -0.13283181984E+02  0.10960873284E+00  0.27392228642E+02  0.30443211520E+02  0.00000000000E+00 0.  1.
</event>
<event>
 5    1  0.3183396E-003  0.9118800E+02  0.7818608E-02  0.1130116E+00
         25   -1    0    0    0    0  0.00000000000E+00  0.00000000000E+00  0.99999998245E-14  0.12500000000E+03  0.12500000000E+03 0.  0.
        -11    1    3    3    0    0 -0.97787024860E+01 -0.44543509207E+02 -0.12935823735E+01  0.45622588599E+02  0.51100000000E-03 0.  1.
         23    2    1    0    0    0 -0.10866696130E+02 -0.31575117864E+01  0.26971072677E+02  0.95751175633E+02  0.91174524448E+02 0.  0.
         11    1    3    3    0    0 -0.10879936438E+01  0.41385997421E+02  0.28264655051E+02  0.50128587035E+02  0.51100000000E-03 0. -1.
         22    1    1    0    0    0  0.10866696130E+02  0.31575117864E+01 -0.26971072677E+02  0.29248824367E+02  0.00000000000E+00 0.  1.
</event>
<event>
 5    1  0.3183396E-003  0.9118800E+02  0.7818608E-02  0.1130116E+00
         25   -1    0    0    0    0  0.00000000000E+00  0.00000000000E+00  0.99999998245E-14  0.12500000000E+03  0.12500000000E+03 0.  0.
        -11    1    3    3    0    0  0.48022126594E+02 -0.27914781916E+02 -0.15093915946E+02  0.57560281365E+02  0.51100000000E-03 0.  1.
         23    2    1    0    0    0  0.28104978687E+02  0.31813537140E+01 -0.23794521298E+01  0.96615626995E+02  0.92352080371E+02 0.  0.
         11    1    3    3    0    0 -0.19917147908E+02  0.31096135630E+02  0.12714463816E+02  0.39055345630E+02  0.51100000000E-03 0. -1.
         22    1    1    0    0    0 -0.28104978687E+02 -0.31813537140E+01  0.23794521298E+01  0.28384373005E+02  0.00000000000E+00 0.  1.
</event>
<event>
 5    1  0.3183396E-003  0.9118800E+02  0.7818608E-02  0.1130116E+00
         25   -1    0    0    0    0  0.00000000000E+00  0.00000000000E+00  0.99999998245E-14  0.12500000000E+03  0.12500000000E+03 0.  0.
        -11    1    3    3    0    0  0.28328782997E+02  0.11020456253E+02  0.12735868237E+02  0.32957134920E+02  0.51100000000E-03 0.  1.
         23    2    1    0    0    0 -0.18582891360E+02 -0.11707501364E+02 -0.20645233480E+02  0.94856756894E+02  0.89939920077E+02 0.  0.
         11    1    3    3    0    0 -0.46911674357E+02 -0.22727957616E+02 -0.33381101717E+02  0.61899621974E+02  0.51100000000E-03 0. -1.
         22    1    1    0    0    0  0.18582891360E+02  0.11707501364E+02  0.20645233480E+02  0.30143243106E+02  0.00000000000E+00 0. -1.
</event>
<event>
 5    1  0.3183396E-003  0.9118800E+02  0.7818608E-02  0.1130116E+00
         25   -1    0    0    0    0  0.00000000000E+00  0.00000000000E+00  0.99999998245E-14  0.12500000000E+03  0.12500000000E+03 0.  0.
        -11    1    3    3    0    0 -0.36266070955E+02 -0.19876050950E+02  0.45390235879E+02  0.61404876169E+02  0.51100000000E-03 0. -1.
         23    2    1    0    0    0 -0.11243619872E+02 -0.15106643512E+02  0.22577492627E+02  0.95599781644E+02  0.90966726945E+02 0.  0.
         11    1    3    3    0    0  0.25022451083E+02  0.47694074385E+01 -0.22812743252E+02  0.34194905475E+02  0.51100000000E-03 0.  1.
         22    1    1    0    0    0  0.11243619872E+02  0.15106643512E+02 -0.22577492627E+02  0.29400218356E+02  0.00000000000E+00 0. -1.
</event>
<event>
 5    1  0.3183396E-003  0.9118800E+02  0.7818608E-02  0.1130116E+00
         25   -1    0    0    0    0  0.00000000000E+00  0.00000000000E+00  0.99999998245E-14  0.12500000000E+03  0.12500000000E+03 0.  0.
        -11    1    3    3    0    0 -0.29263095166E+02  0.43404429463E+02  0.20656727652E+02  0.56275870791E+02  0.51100000000E-03 0.  1.
         23    2    1    0    0    0 -0.79249698117E+01  0.13920927993E+02  0.27372112295E+02  0.93285178320E+02  0.87728527743E+02 0.  0.
         11    1    3    3    0    0  0.21338125355E+02 -0.29483501470E+02  0.67153846432E+01  0.37009307528E+02  0.51100000000E-03 0. -1.
         22    1    1    0    0    0  0.79249698117E+01 -0.13920927993E+02 -0.27372112295E+02  0.31714821680E+02  0.00000000000E+00 0.  1.
</event>
<event>
 5    1  0.3183396E-003  0.9118800E+02  0.7818608E-02  0.1130116E+00
         25   -1    0    0    0    0  0.00000000000E+00  0.00000000000E+00  0.99999998245E-14  0.12500000000E+03  0.12500000000E+03 0.  0.
        -11    1    3    3    0    0  0.10719828593E+02  0.48730796224E+02 -0.62946327848E+01  0.50291426981E+02  0.51100000000E-03 0.  1.
         23    2    1    0    0    0  0.13901477724E+02  0.83139796039E+01 -0.25214685656E+02  0.95030787256E+02  0.90181466023E+02 0.  0.
         11    1    3    3    0    0  0.31816491316E+01 -0.40416816620E+02 -0.18920052871E+02  0.44739360275E+02  0.51100000000E-03 0. -1.
         22    1    1    0    0    0 -0.13901477724E+02 -0.83139796039E+01  0.25214685656E+02  0.29969212744E+02  0.00000000000E+00 0. -1.
</event>
<event>
 5    1  0.3183396E-003  0.9118800E+02  0.7818608E-02  0.1130116E+00
         25   -1    0    0    0    0  0.00000000000E+00  0.00000000000E+00  0.99999998245E-14  0.12500000000E+03  0.12500000000E+03 0.  0.
        -11    1    3    3    0    0 -0.15507783869E+02  0.24245980353E+02  0.39691745482E+02  0.49028497667E+02  0.51100000000E-03 0. -1.
         23    2    1    0    0    0  0.17317419880E+02  0.22025377786E+02  0.55593180759E+01  0.96435751098E+02  0.92108293733E+02 0.  0.
         11    1    3    3    0    0  0.32825203749E+02 -0.22206025670E+01 -0.34132427406E+02  0.47407253431E+02  0.51100000000E-03 0.  1.
         22    1    1    0    0    0 -0.17317419880E+02 -0.22025377786E+02 -0.55593180759E+01  0.28564248902E+02  0.00000000000E+00 0. -1.
</event>
<event>
 5    1  0.3183396E-003  0.9118800E+02  0.7818608E-02  0.1130116E+00
         25   -1    0    0    0    0  0.00000000000E+00  0.00000000000E+00  0.99999998245E-14  0.12500000000E+03  0.12500000000E+03 0.  0.
        -11    1    3    3    0    0 -0.50616957169E+02 -0.18824933391E+02  0.17622072791E+02  0.56806618628E+02  0.51100000000E-03 0.  1.
         23    2    1    0    0    0 -0.18075158306E+02 -0.17014331495E+01  0.24792211893E+02  0.94271186272E+02  0.89122368506E+02 0.  0.
         11    1    3    3    0    0  0.32541798863E+02  0.17123500242E+02  0.71701391014E+01  0.37464567644E+02  0.51100000000E-03 0. -1.
         22    1    1    0    0    0  0.18075158306E+02  0.17014331495E+01 -0.24792211893E+02  0.30728813728E+02  0.00000000000E+00 0.  1.
</event>
<event>
 5    1  0.3183396E-003  0.9118800E+02  0.7818608E-02  0.1130116E+00
         25   -1    0    0    0    0  0.00000000000E+00  0.00000000000E+00  0.99999998245E-14  0.12500000000E+03  0.12500000000E+03 0.  0.
        -11    1    3    3    0    0  0.44119435497E+02 -0.89688597113E+01  0.42135835964E+02  0.61663552490E+02  0.51100000000E-03 0.  1.
         23    2    1    0    0    0  0.21674675831E+02 -0.10921605972E+02  0.17306461686E+02  0.95190829171E+02  0.90403027012E+02 0.  0.
         11    1    3    3    0    0 -0.22444759666E+02 -0.19527462606E+01 -0.24829374277E+02  0.33527276681E+02  0.51100000000E-03 0. -1.
         22    1    1    0    0    0 -0.21674675831E+02  0.10921605972E+02 -0.17306461686E+02  0.29809170829E+02  0.00000000000E+00 0.  1.
</event>
<event>
 5    1  0.3183396E-003  0.9118800E+02  0.7818608E-02  0.1130116E+00
         25   -1    0    0    0    0  0.00000000000E+00  0.00000000000E+00  0.99999998245E-14  0.12500000000E+03  0.12500000000E+03 0.  0.
        -11    1    3    3    0    0 -0.49345129904E+02  0.94172921401E+01 -0.26963038230E+02  0.57014319844E+02  0.51100000000E-03 0. -1.
         23    2    1    0    0    0 -0.11844568822E+02  0.15116520749E+02 -0.22825342772E+02  0.95170496437E+02  0.90374908627E+02 0.  0.
         11    1    3    3    0    0  0.37500561082E+02  0.56992286093E+01  0.41376954576E+01  0.38156176593E+02  0.51100000000E-03 0.  1.
         22    1    1    0    0    0  0.11844568822E+02 -0.15116520749E+02  0.22825342772E+02  0.29829503563E+02  0.00000000000E+00 0. -1.
</event>
<event>
 5    1  0.3183396E-003  0.9118800E+02  0.7818608E-02  0.1130116E+00
         25   -1    0    0    0    0  0.00000000000E+00  0.00000000000E+00  0.99999998245E-14  0.12500000000E+03  0.12500000000E+03 0.  0.
        -11    1    3    3    0    0 -0.83355223583E+01  0.12167440239E+02 -0.41149486991E+02  0.43712787773E+02  0.51100000000E-03 0.  1.
         23    2    1    0    0    0  0.56987853221E+01 -0.27465257262E+02 -0.15871542282E+02  0.92770783984E+02  0.86992505401E+02 0.  0.
         11    1    3    3    0    0  0.14034307680E+02 -0.39632697501E+02  0.25277944709E+02  0.49057996211E+02  0.51100000000E-03 0. -1.
         22    1    1    0    0    0 -0.56987853221E+01  0.27465257262E+02  0.15871542282E+02  0.32229216016E+02  0.00000000000E+00 0. -1.
</event>
<event>
 5    1  0.3183396E-003  0.9118800E+02  0.7818608E-02  0.1130116E+00
         25   -1    0    0    0    0  0.00000000000E+00  0.00000000000E+00  0.99999998245E-14  0.12500000000E+03  0.12500000000E+03 0.  0.
        -11    1    3    3    0    0 -0.28845204623E+02  0.12941739855E+02  0.48903307099E+02  0.58232876502E+02  0.51100000000E-03 0.  1.
         23    2    1    0    0    0  0.17271478701E+01  0.93555044459E+01  0.27964796351E+02  0.95461240071E+02  0.90776153354E+02 0.  0.
         11    1    3    3    0    0  0.30572352494E+02 -0.35862354087E+01 -0.20938510749E+02  0.37228363569E+02  0.51100000000E-03 0. -1.
         22    1    1    0    0    0 -0.17271478701E+01 -0.93555044459E+01 -0.27964796351E+02  0.29538759929E+02  0.00000000000E+00 0.  1.
</event>
<event>
 5    1  0.3183396E-003  0.9118800E+02  0.7818608E-02  0.1130116E+00
         25   -1    0    0    0    0  0.00000000000E+00  0.00000000000E+00  0.99999998245E-14  0.12500000000E+03  0.12500000000E+03 0.  0.
        -11    1    3    3    0    0  0.57072819492E+02 -0.91004810909E+01 -0.17538478949E+02  0.60396388344E+02  0.51100000000E-03 0.  1.
         23    2    1    0    0    0  0.23401617720E+02 -0.13439079417E+02 -0.14189882039E+02  0.94510701553E+02  0.89457673725E+02 0.  0.
         11    1    3    3    0    0 -0.33671201772E+02 -0.43385983261E+01  0.33485969099E+01  0.34114313209E+02  0.51100000000E-03 0. -1.
         22    1    1    0    0    0 -0.23401617720E+02  0.13439079417E+02  0.14189882039E+02  0.30489298447E+02  0.00000000000E+00 0.  1.
</event>
<event>
 5    1  0.3183396E-003  0.9118800E+02  0.7818608E-02  0.1130116E+00
         25   -1    0    0    0    0  0.00000000000E+00  0.00000000000E+00  0.99999998245E-14  0.12500000000E+03  0.12500000000E+03 0.  0.
        -11    1    3    3    0    0  0.28838582060E+02  0.26186106968E+02  0.10358062107E+02  0.40307139123E+02  0.51100000000E-03 0.  1.
         23    2    1    0    0    0 -0.17478078237E+02 -0.97351012295E+01  0.16262867854E+02  0.99217519793E+02  0.95809080719E+02 0.  0.
         11    1    3    3    0    0 -0.46316660298E+02 -0.35921208197E+02  0.59048057462E+01  0.58910380670E+02  0.51100000000E-03 0. -1.
         22    1    1    0    0    0  0.17478078237E+02  0.97351012295E+01 -0.16262867854E+02  0.25782480207E+02  0.00000000000E+00 0. -1.
</event>
<event>
 5    1  0.3183396E-003  0.9118800E+02  0.7818608E-02  0.1130116E+00
         25   -1    0    0    0    0  0.00000000000E+00  0.00000000000E+00  0.99999998245E-14  0.12500000000E+03  0.12500000000E+03 0.  0.
        -11    1    3    3    0    0 -0.55269318842E+01 -0.25645290155E+02  0.21167266159E+02  0.33708768000E+02  0.51100000000E-03 0. -1.
         23    2    1    0    0    0  0.17491971194E+02  0.17402589519E+02 -0.16456760610E+02  0.95341204542E+02  0.90610712035E+02 0.  0.
         11    1    3    3    0    0  0.23018903078E+02  0.43047879675E+02 -0.37624026769E+02  0.61632436541E+02  0.51100000000E-03 0.  1.
         22    1    1    0    0    0 -0.17491971194E+02 -0.17402589519E+02  0.16456760610E+02  0.29658795458E+02  0.00000000000E+00 0.  1.
</event>
<event>
 5    1  0.3183396E-003  0.9118800E+02  0.7818608E-02  0.1130116E+00
         25   -1    0    0    0    0  0.00000000000E+00  0.00000000000E+00  0.99999998245E-14  0.12500000000E+03  0.12500000000E+03 0.  0.
        -11    1    3    3    0    0 -0.20978921715E+02  0.19672605255E+02  0.29434508086E+01  0.28910040761E+02  0.51100000000E-03 0.  1.
         23    2    1    0    0    0  0.61877199487E+01 -0.32623002502E+02 -0.11978448129E+02  0.89700830179E+02  0.82463370928E+02 0.  0.
         11    1    3    3    0    0  0.27166641664E+02 -0.52295607757E+02 -0.14921898938E+02  0.60790789419E+02  0.51100000000E-03 0. -1.
         22    1    1    0    0    0 -0.61877199487E+01  0.32623002502E+02  0.11978448129E+02  0.35299169821E+02  0.00000000000E+00 0. -1.
</event>
<event>
 5    1  0.3183396E-003  0.9118800E+02  0.7818608E-02  0.1130116E+00
         25   -1    0    0    0    0  0.00000000000E+00  0.00000000000E+00  0.99999998245E-14  0.12500000000E+03  0.12500000000E+03 0.  0.
        -11    1    3    3    0    0 -0.38585678384E+01 -0.11982810572E+02  0.33153484504E+02  0.35463076995E+02  0.51100000000E-03 0. -1.
         23    2    1    0    0    0 -0.15747977388E+02  0.20390344708E+01 -0.24403609661E+02  0.95884838694E+02  0.91357592315E+02 0.  0.
         11    1    3    3    0    0 -0.11889409550E+02  0.14021845043E+02 -0.57557094165E+02  0.60421761699E+02  0.51100000000E-03 0.  1.
         22    1    1    0    0    0  0.15747977388E+02 -0.20390344708E+01  0.24403609661E+02  0.29115161306E+02  0.00000000000E+00 0.  1.
</event>
<event>
 5    1  0.3183396E-003  0.9118800E+02  0.7818608E-02  0.1130116E+00
         25   -1    0    0    0    0  0.00000000000E+00  0.00000000000E+00  0.99999998245E-14  0.12500000000E+03  0.12500000000E+03 0.  0.
        -11    1    3    3    0    0 -0.36275599817E+02 -0.12879151888E+02  0.87255463779E+01  0.39470582150E+02  0.51100000000E-03 0. -1.
         23    2    1    0    0    0 -0.20340249732E+01  0.29072992815E+02 -0.52257950929E+01  0.95391131343E+02  0.90679561290E+02 0.  0.
         11    1    3    3    0    0  0.34241574844E+02  0.41952144703E+02 -0.13951341471E+02  0.55920549193E+02  0.51100000000E-03 0.  1.
         22    1    1    0    0    0  0.20340249732E+01 -0.29072992815E+02  0.52257950929E+01  0.29608868657E+02  0.00000000000E+00 0.  1.
</event>
<event>
 5    1  0.3183396E-003  0.9118800E+02  0.7818608E-02  0.1130116E+00
         25   -1    0    0    0    0  0.00000000000E+00  0.00000000000E+00  0.99999998245E-14  0.12500000000E+03  0.12500000000E+03 0.  0.
        -11    1    3    3    0    0  0.51021070487E+02  0.52908400111E+01  0.53416032239E+01  0.51572040360E+02  0.51100000000E-03 0.  1.
         23    2    1    0    0    0  0.51993821153E+01  0.11601222661E+02  0.21039850410E+02  0.10041754189E+03  0.97362135718E+02 0.  0.
         11    1    3    3    0    0 -0.45821688371E+02  0.63103826499E+01  0.15698247186E+02  0.48845501527E+02  0.51100000000E-03 0. -1.
         22    1    1    0    0    0 -0.51993821153E+01 -0.11601222661E+02 -0.21039850410E+02  0.24582458113E+02  0.00000000000E+00 0. -1.
</event>
<event>
 5    1  0.3183396E-003  0.9118800E+02  0.7818608E-02  0.1130116E+00
         25   -1    0    0    0    0  0.00000000000E+00  0.00000000000E+00  0.99999998245E-14  0.12500000000E+03  0.12500000000E+03 0.  0.
        -11    1    3    3    0    0 -0.41443920425E+02  0.21899709677E+02 -0.32127216806E+02  0.56827404341E+02  0.51100000000E-03 0.  1.
         23    2    1    0    0    0 -0.68126208340E+01  0.34449760533E+01 -0.27640440778E+02  0.96324686069E+02  0.91957444056E+02 0.  0.
         11    1    3    3    0    0  0.34631299591E+02 -0.18454733624E+02  0.44867760283E+01  0.39497281728E+02  0.51100000000E-03 0. -1.
         22    1    1    0    0    0  0.68126208340E+01 -0.34449760533E+01  0.27640440778E+02  0.28675313931E+02  0.00000000000E+00 0.  1.
</event>
<event>
 5    1  0.3183396E-003  0.9118800E+02  0.7818608E-02  0.1130116E+00
         25   -1    0    0    0    0  0.00000000000E+00  0.00000000000E+00  0.99999998245E-14  0.12500000000E+03  0.12500000000E+03 0.  0.
        -11    1    3    3    0    0  0.47546078778E+02 -0.11172188967E+02  0.36661560945E+02  0.61069775378E+02  0.51100000000E-03 0. -1.
         23    2    1    0    0    0  0.27485179023E+02 -0.36054061464E+01  0.94506729773E+01  0.95712643699E+02  0.91121681968E+02 0.  0.
         11    1    3    3    0    0 -0.20060899755E+02  0.75667828205E+01 -0.27210887968E+02  0.34642868321E+02  0.51100000000E-03 0.  1.
         22    1    1    0    0    0 -0.27485179023E+02  0.36054061464E+01 -0.94506729773E+01  0.29287356301E+02  0.00000000000E+00 0. -1.
</event>
<event>
 5    1  0.3183396E-003  0.9118800E+02  0.7818608E-02  0.1130116E+00
         25   -1    0    0    0    0  0.00000000000E+00  0.00000000000E+00  0.99999998245E-14  0.12500000000E+03  0.12500000000E+03 0.  0.
        -11    1    3    3    0    0 -0.32331957533E+02 -0.46403756110E+02 -0.12647809115E+02  0.57953698197E+02  0.51100000000E-03 0.  1.
         23    2    1    0    0    0 -0.22197040385E+02 -0.12675367182E+02  0.72843965532E+01  0.98421136815E+02  0.94764361464E+02 0.  0.
         11    1    3    3    0    0  0.10134917148E+02  0.33728388928E+02  0.19932205669E+02  0.40467438618E+02  0.51100000000E-03 0. -1.
         22    1    1    0    0    0  0.22197040385E+02  0.12675367182E+02 -0.72843965532E+01  0.26578863185E+02  0.00000000000E+00 0.  1.
</event>
<event>
 5    1  0.3183396E-003  0.9118800E+02  0.7818608E-02  0.1130116E+00
         25   -1    0    0    0    0  0.00000000000E+00  0.00000000000E+00  0.99999998245E-14  0.12500000000E+03  0.12500000000E+03 0.  0.
        -11    1    3    3    0    0  0.21717650551E+02 -0.28612370709E+02 -0.27867869405E+02  0.45463636551E+02  0.51100000000E-03 0.  1.
         23    2    1    0    0    0  0.10477960883E+01 -0.27899905983E+02  0.15178867615E+02  0.93221065899E+02  0.87637129544E+02 0.  0.
         11    1    3    3    0    0 -0.20669854462E+02  0.71246472573E+00  0.43046737021E+02  0.47757429348E+02  0.51100000000E-03 0. -1.
         22    1    1    0    0    0 -0.10477960883E+01  0.27899905983E+02 -0.15178867615E+02  0.31778934101E+02  0.00000000000E+00 0.  1.
</event>
<event>
 5    1  0.3183396E-003  0.9118800E+02  0.7818608E-02  0.1130116E+00
         25   -1    0    0    0    0  0.00000000000E+00  0.00000000000E+00  0.99999998245E-14  0.12500000000E+03  0.12500000000E+03 0.  0.
        -11    1    3    3    0    0  0.32722062511E+02  0.26898573894E+02  0.25708066072E+02  0.49549685306E+02  0.51100000000E-03 0.  1.
         23    2    1    0    0    0  0.21017153986E+02  0.67174667821E+01 -0.16277049440E+02  0.97581257138E+02  0.93649956137E+02 0.  0.
         11    1    3    3    0    0 -0.11704908525E+02 -0.20181107112E+02 -0.41985115512E+02  0.48031571832E+02  0.51100000000E-03 0. -1.
         22    1    1    0    0    0 -0.21017153986E+02 -0.67174667821E+01  0.16277049440E+02  0.27418742862E+02  0.00000000000E+00 0.  1.
</event>
<event>
 5    1  0.3183396E-003  0.9118800E+02  0.7818608E-02  0.1130116E+00
         25   -1    0    0    0    0  0.00000000000E+00  0.00000000000E+00  0.99999998245E-14  0.12500000000E+03  0.12500000000E+03 0.  0.
        -11    1    3    3    0    0 -0.56755081841E+02 -0.20691678849E+02  0.66627927497E+00  0.60412985497E+02  0.51100000000E-03 0.  1.
         23    2    1    0    0    0 -0.33272140379E+02 -0.18758841534E+01  0.64540860255E+01  0.91055788517E+02  0.84492290354E+02 0.  0.
         11    1    3    3    0    0  0.23482941462E+02  0.18815794695E+02  0.57878067506E+01  0.30642803020E+02  0.51100000000E-03 0. -1.
         22    1    1    0    0    0  0.33272140379E+02  0.18758841534E+01 -0.64540860255E+01  0.33944211483E+02  0.00000000000E+00 0.  1.
</event>
<event>
 5    1  0.3183396E-003  0.9118800E+02  0.7818608E-02  0.1130116E+00
         25   -1    0    0    0    0  0.00000000000E+00  0.00000000000E+00  0.99999998245E-14  0.12500000000E+03  0.12500000000E+03 0.  0.
        -11    1    3    3    0    0 -0.42587139604E+02 -0.16634789947E+02  0.35139705930E+02  0.57664370536E+02  0.51100000000E-03 0.  1.
         23    2    1    0    0    0 -0.77981163506E+01 -0.17402821487E+02  0.24298820703E+02  0.94111466499E+02  0.88898068734E+02 0.  0.
         11    1    3    3    0    0  0.34789023253E+02 -0.76803153909E+00 -0.10840885227E+02  0.36447095963E+02  0.51100000000E-03 0. -1.
         22    1    1    0    0    0  0.77981163506E+01  0.17402821487E+02 -0.24298820703E+02  0.30888533501E+02  0.00000000000E+00 0.  1.
</event>
<event>
 5    1  0.3183396E-003  0.9118800E+02  0.7818608E-02  0.1130116E+00
         25   -1    0    0    0    0  0.00000000000E+00  0.00000000000E+00  0.99999998245E-14  0.12500000000E+03  0.12500000000E+03 0.  0.
        -11    1    3    3    0    0  0.14648929211E+02  0.29538528645E+02  0.99942321612E+01  0.34452873295E+02  0.51100000000E-03 0. -1.
         23    2    1    0    0    0 -0.19209054627E+02 -0.18159242538E+02 -0.10677341310E+02  0.96491203346E+02  0.92183517162E+02 0.  0.
         11    1    3    3    0    0 -0.33857983838E+02 -0.47697771183E+02 -0.20671573472E+02  0.62038330050E+02  0.51100000000E-03 0.  1.
         22    1    1    0    0    0  0.19209054627E+02  0.18159242538E+02  0.10677341310E+02  0.28508796654E+02  0.00000000000E+00 0.  1.
</event>
<event>
 5    1  0.3183396E-003  0.9118800E+02  0.7818608E-02  0.1130116E+00
         25   -1    0    0    0    0  0.00000000000E+00  0.00000000000E+00  0.99999998245E-14  0.12500000000E+03  0.12500000000E+03 0.  0.
        -11    1    3    3    0    0  0.45244357525E+02  0.78132792160E+01 -0.60977424252E+00  0.45918090605E+02  0.51100000000E-03 0. -1.
         23    2    1    0    0    0  0.88592700701E+01  0.38841081227E+01 -0.30394516201E+02  0.93103298333E+02  0.87468992125E+02 0.  0.
         11    1    3    3    0    0 -0.36385087455E+02 -0.39291710933E+01 -0.29784741959E+02  0.47185207728E+02  0.51100000000E-03 0.  1.
         22    1    1    0    0    0 -0.88592700701E+01 -0.38841081227E+01  0.30394516201E+02  0.31896701667E+02  0.00000000000E+00 0.  1.
</event>
<event>
 5    1  0.3183396E-003  0.9118800E+02  0.7818608E-02  0.1130116E+00
         25   -1    0    0    0    0  0.00000000000E+00  0.00000000000E+00  0.99999998245E-14  0.12500000000E+03  0.12500000000E+03 0.  0.
        -11    1    3    3    0    0  0.26494747513E+02  0.21694624301E+02  0.42426360691E+02  0.54521779603E+02  0.51100000000E-03 0. -1.
         23    2    1    0    0    0  0.24194298062E+02 -0.80176891023E+01  0.13060179684E+02  0.96360591999E+02  0.92006238917E+02 0.  0.
         11    1    3    3    0    0 -0.23004494503E+01 -0.29712313404E+02 -0.29366181007E+02  0.41838812396E+02  0.51100000000E-03 0.  1.
         22    1    1    0    0    0 -0.24194298062E+02  0.80176891023E+01 -0.13060179684E+02  0.28639408001E+02  0.00000000000E+00 0. -1.
</event>
<event>
 5    1  0.3183396E-003  0.9118800E+02  0.7818608E-02  0.1130116E+00
         25   -1    0    0    0    0  0.00000000000E+00  0.00000000000E+00  0.99999998245E-14  0.12500000000E+03  0.12500000000E+03 0.  0.
        -11    1    3    3    0    0  0.17406132005E+02  0.19892439573E+02  0.29854335405E+02  0.39874351735E+02  0.51100000000E-03 0. -1.
         23    2    1    0    0    0  0.19756628517E+02  0.46143801105E+00 -0.22076063862E+02  0.95370793277E+02  0.90651521329E+02 0.  0.
         11    1    3    3    0    0  0.23504965114E+01 -0.19431001562E+02 -0.51930399267E+02  0.55496441542E+02  0.51100000000E-03 0.  1.
         22    1    1    0    0    0 -0.19756628517E+02 -0.46143801105E+00  0.22076063862E+02  0.29629206723E+02  0.00000000000E+00 0.  1.
</event>
<event>
 5    1  0.3183396E-003  0.9118800E+02  0.7818608E-02  0.1130116E+00
         25   -1    0    0    0    0  0.00000000000E+00  0.00000000000E+00  0.99999998245E-14  0.12500000000E+03  0.12500000000E+03 0.  0.
        -11    1    3    3    0    0 -0.31332981048E+02 -0.14253770799E+00  0.21322942151E+02  0.37900446970E+02  0.51100000000E-03 0. -1.
         23    2    1    0    0    0  0.14171613314E+02  0.14541643074E+02 -0.16475722314E+02  0.98851511841E+02  0.95330362216E+02 0.  0.
         11    1    3    3    0    0  0.45504594362E+02  0.14684180782E+02 -0.37798664465E+02  0.60951064871E+02  0.51100000000E-03 0.  1.
         22    1    1    0    0    0 -0.14171613314E+02 -0.14541643074E+02  0.16475722314E+02  0.26148488159E+02  0.00000000000E+00 0.  1.
</event>
<event>
 5    1  0.3183396E-003  0.9118800E+02  0.7818608E-02  0.1130116E+00
         25   -1    0    0    0    0  0.00000000000E+00  0.00000000000E+00  0.99999998245E-14  0.12500000000E+03  0.12500000000E+03 0.  0.
        -11    1    3    3    0    0 -0.11515088015E+02  0.15639421120E+02 -0.28154923096E+02  0.34203631967E+02  0.51100000000E-03 0.  1.
         23    2    1    0    0    0  0.18410019645E+02  0.22717606511E+01  0.23304600152E+02  0.95214196200E+02  0.90435330762E+02 0.  0.
         11    1    3    3    0    0  0.29925107660E+02 -0.13367660469E+02  0.51459523247E+02  0.61010564233E+02  0.51100000000E-03 0. -1.
         22    1    1    0    0    0 -0.18410019645E+02 -0.22717606511E+01 -0.23304600152E+02  0.29785803800E+02  0.00000000000E+00 0. -1.
</event>
<event>
 5    1  0.3183396E-003  0.9118800E+02  0.7818608E-02  0.1130116E+00
         25   -1    0    0    0    0  0.00000000000E+00  0.00000000000E+00  0.99999998245E-14  0.12500000000E+03  0.12500000000E+03 0.  0.
        -11    1    3    3    0    0 -0.23341342614E+02  0.13707268650E+02 -0.43949040705E+02  0.51616137670E+02  0.51100000000E-03 0.  1.
         23    2    1    0    0    0  0.14826538395E+02  0.12274591123E+02 -0.22383653279E+02  0.95478486452E+02  0.90799898750E+02 0.  0.
         11    1    3    3    0    0  0.38167881009E+02 -0.14326775276E+01  0.21565387425E+02  0.43862348782E+02  0.51100000000E-03 0. -1.
         22    1    1    0    0    0 -0.14826538395E+02 -0.12274591123E+02  0.22383653279E+02  0.29521513548E+02  0.00000000000E+00 0.  1.
</event>
<event>
 5    1  0.3183396E-003  0.9118800E+02  0.7818608E-02  0.1130116E+00
         25   -1    0    0    0    0  0.00000000000E+00  0.00000000000E+00  0.99999998245E-14  0.12500000000E+03  0.12500000000E+03 0.  0.
        -11    1    3    3    0    0 -0.56642736433E+01 -0.38583782287E+02  0.33678434096E+02  0.51526975216E+02  0.51100000000E-03 0.  1.
         23    2    1    0    0    0  0.15639690216E+02 -0.11894846447E+01  0.25087088731E+02  0.95413232606E+02  0.90710022333E+02 0.  0.
         11    1    3    3    0    0  0.21303963860E+02  0.37394297643E+02 -0.85913453642E+01  0.43886257391E+02  0.51100000000E-03 0. -1.
         22    1    1    0    0    0 -0.15639690216E+02  0.11894846447E+01 -0.25087088731E+02  0.29586767394E+02  0.00000000000E+00 0.  1.
</event>
<event>
 5    1  0.3183396E-003  0.9118800E+02  0.7818608E-02  0.1130116E+00
         25   -1    0    0    0    0  0.00000000000E+00  0.00000000000E+00  0.99999998245E-14  0.12500000000E+03  0.12500000000E+03 0.  0.
        -11    1    3    3    0    0 -0.45224342725E+02  0.22678380037E+02 -0.24451059636E+02  0.56190785843E+02  0.51100000000E-03 0. -1.
         23    2    1    0    0    0 -0.28671781762E+02 -0.11154394982E+01  0.30482422233E+01  0.96145068786E+02  0.91712960897E+02 0.  0.
         11    1    3    3    0    0  0.16552560963E+02 -0.23793819536E+02  0.27499301859E+02  0.39954282943E+02  0.51100000000E-03 0.  1.
         22    1    1    0    0    0  0.28671781762E+02  0.11154394982E+01 -0.30482422233E+01  0.28854931214E+02  0.00000000000E+00 0. -1.
</event>
<event>
 5    1  0.3183396E-003  0.9118800E+02  0.7818608E-02  0.1130116E+00
         25   -1    0    0    0    0  0.00000000000E+00  0.00000000000E+00  0.99999998245E-14  0.12500000000E+03  0.12500000000E+03 0.  0.
        -11    1    3    3    0    0 -0.84514997632E+01  0.34528413025E+02  0.85218439966E+01  0.36554903634E+02  0.51100000000E-03 0.  1.
         23    2    1    0    0    0  0.89115343785E+01 -0.20982055272E+02  0.18592970694E+02  0.95582987106E+02  0.90943646157E+02 0.  0.
         11    1    3    3    0    0  0.17363034142E+02 -0.55510468297E+02  0.10071126697E+02  0.59028083472E+02  0.51100000000E-03 0. -1.
         22    1    1    0    0    0 -0.89115343785E+01  0.20982055272E+02 -0.18592970694E+02  0.29417012894E+02  0.00000000000E+00 0. -1.
</event>
<event>
 5    1  0.3183396E-003  0.9118800E+02  0.7818608E-02  0.1130116E+00
         25   -1    0    0    0    0  0.00000000000E+00  0.00000000000E+00  0.99999998245E-14  0.12500000000E+03  0.12500000000E+03 0.  0.
        -11    1    3    3    0    0 -0.12072660459E+02 -0.17347275319E+01 -0.17203705684E+02  0.21088525308E+02  0.51100000000E-03 0.  1.
         23    2    1    0    0    0  0.41489754841E+02  0.14049376339E+02  0.44303265697E+01  0.80972593470E+02  0.67956959669E+02 0.  0.
         11    1    3    3    0    0  0.53562415300E+02  0.15784103871E+02  0.21634032254E+02  0.59884068161E+02  0.51100000000E-03 0. -1.
         22    1    1    0    0    0 -0.41489754841E+02 -0.14049376339E+02 -0.44303265697E+01  0.44027406530E+02  0.00000000000E+00 0. -1.
</event>
<event>
 5    1  0.3183396E-003  0.9118800E+02  0.7818608E-02  0.1130116E+00
         25   -1    0    0    0    0  0.00000000000E+00  0.00000000000E+00  0.99999998245E-14  0.12500000000E+03  0.12500000000E+03 0.  0.
        -11    1    3    3    0    0 -0.29213398404E+02 -0.71396931758E+01  0.19235091501E+01  0.30134660321E+02  0.51100000000E-03 0. -1.
         23    2    1    0    0    0  0.31190705569E+02  0.82362879246E+01 -0.26429151473E+01  0.92632090689E+02  0.86792987461E+02 0.  0.
         11    1    3    3    0    0  0.60404103973E+02  0.15375981100E+02 -0.45664242975E+01  0.62497430369E+02  0.51100000000E-03 0.  1.
         22    1    1    0    0    0 -0.31190705569E+02 -0.82362879246E+01  0.26429151473E+01  0.32367909311E+02  0.00000000000E+00 0.  1.
</event>
<event>
 5    1  0.3183396E-003  0.9118800E+02  0.7818608E-02  0.1130116E+00
         25   -1    0    0    0    0  0.00000000000E+00  0.00000000000E+00  0.99999998245E-14  0.12500000000E+03  0.12500000000E+03 0.  0.
        -11    1    3    3    0    0  0.24881050550E+02  0.66995028491E+01 -0.32804258340E+02  0.41714138855E+02  0.51100000000E-03 0. -1.
         23    2    1    0    0    0  0.27618313610E+01 -0.25957214640E+02  0.72291561467E+01  0.97913741437E+02  0.94092695568E+02 0.  0.
         11    1    3    3    0    0 -0.22119219189E+02 -0.32656717489E+02  0.40033414487E+02  0.56199602582E+02  0.51100000000E-03 0.  1.
         22    1    1    0    0    0 -0.27618313610E+01  0.25957214640E+02 -0.72291561467E+01  0.27086258563E+02  0.00000000000E+00 0.  1.
</event>
<event>
 5    1  0.3183396E-003  0.9118800E+02  0.7818608E-02  0.1130116E+00
         25   -1    0    0    0    0  0.00000000000E+00  0.00000000000E+00  0.99999998245E-14  0.12500000000E+03  0.12500000000E+03 0.  0.
        -11    1    3    3    0    0  0.36463425332E+02 -0.28988963149E+01  0.33183319782E+01  0.36728685168E+02  0.51100000000E-03 0. -1.
         23    2    1    0    0    0 -0.16072840411E+02  0.23589007586E+02  0.67632523096E+01  0.95665394846E+02  0.91056843298E+02 0.  0.
         11    1    3    3    0    0 -0.52536265743E+02  0.26487903901E+02  0.34449203314E+01  0.58936709678E+02  0.51100000000E-03 0.  1.
         22    1    1    0    0    0  0.16072840411E+02 -0.23589007586E+02 -0.67632523096E+01  0.29334605154E+02  0.00000000000E+00 0.  1.
</event>
<event>
 5    1  0.3183396E-003  0.9118800E+02  0.7818608E-02  0.1130116E+00
         25   -1    0    0    0    0  0.00000000000E+00  0.00000000000E+00  0.99999998245E-14  0.12500000000E+03  0.12500000000E+03 0.  0.
        -11    1    3    3    0    0  0.40095555742E+02  0.12870916737E+02  0.17351404149E+01  0.42146468422E+02  0.51100000000E-03 0.  1.
         23    2    1    0    0    0 -0.15320615306E+02  0.20039456091E+02  0.83831716802E+01  0.98418453371E+02  0.94760821771E+02 0.  0.
         11    1    3    3    0    0 -0.55416171048E+02  0.71685393539E+01  0.66480312653E+01  0.56271984949E+02  0.51100000000E-03 0. -1.
         22    1    1    0    0    0  0.15320615306E+02 -0.20039456091E+02 -0.83831716802E+01  0.26581546629E+02  0.00000000000E+00 0. -1.
</event>
<event>
 5    1  0.3183396E-003  0.9118800E+02  0.7818608E-02  0.1130116E+00
         25   -1    0    0    0    0  0.00000000000E+00  0.00000000000E+00  0.99999998245E-14  0.12500000000E+03  0.12500000000E+03 0.  0.
        -11    1    3    3    0    0  0.21893185714E+02 -0.44895942687E+02  0.23945313958E+01  0.50006909836E+02  0.51100000000E-03 0.  1.
         23    2    1    0    0    0  0.80110445618E+01 -0.26698312543E+02 -0.26276210803E+02  0.86693134013E+02  0.77770711088E+02 0.  0.
         11    1    3    3    0    0 -0.13882141152E+02  0.18197630144E+02 -0.28670742199E+02  0.36686224177E+02  0.51100000000E-03 0. -1.
         22    1    1    0    0    0 -0.80110445618E+01  0.26698312543E+02  0.26276210803E+02  0.38306865987E+02  0.00000000000E+00 0.  1.
</event>
<event>
 5    1  0.3183396E-003  0.9118800E+02  0.7818608E-02  0.1130116E+00
         25   -1    0    0    0    0  0.00000000000E+00  0.00000000000E+00  0.99999998245E-14  0.12500000000E+03  0.12500000000E+03 0.  0.
        -11    1    3    3    0    0 -0.29738077901E+02 -0.37924501776E+02 -0.10828641266E+02  0.49395147374E+02  0.51100000000E-03 0.  1.
         23    2    1    0    0    0 -0.14425359681E+02  0.44397730252E+01 -0.24283339721E+02  0.96408337327E+02  0.92071083037E+02 0.  0.
         11    1    3    3    0    0  0.15312718221E+02  0.42364274801E+02 -0.13454698455E+02  0.47013189952E+02  0.51100000000E-03 0. -1.
         22    1    1    0    0    0  0.14425359681E+02 -0.44397730252E+01  0.24283339721E+02  0.28591662673E+02  0.00000000000E+00 0. -1.
</event>
<event>
 5    1  0.3183396E-003  0.9118800E+02  0.7818608E-02  0.1130116E+00
         25   -1    0    0    0    0  0.00000000000E+00  0.00000000000E+00  0.99999998245E-14  0.12500000000E+03  0.12500000000E+03 0.  0.
        -11    1    3    3    0    0 -0.96865279034E+01  0.16678314702E+01 -0.37036469648E+02  0.38318540798E+02  0.51100000000E-03 0. -1.
         23    2    1    0    0    0 -0.81693339225E+01 -0.19585942718E+02  0.17896780317E+02  0.97239562061E+02  0.93192759993E+02 0.  0.
         11    1    3    3    0    0  0.15171939809E+01 -0.21253774188E+02  0.54933249964E+02  0.58921021263E+02  0.51100000000E-03 0.  1.
         22    1    1    0    0    0  0.81693339225E+01  0.19585942718E+02 -0.17896780317E+02  0.27760437939E+02  0.00000000000E+00 0.  1.
</event>
<event>
 5    1  0.3183396E-003  0.9118800E+02  0.7818608E-02  0.1130116E+00
         25   -1    0    0    0    0  0.00000000000E+00  0.00000000000E+00  0.99999998245E-14  0.12500000000E+03  0.12500000000E+03 0.  0.
        -11    1    3    3    0    0  0.28801856050E+02  0.12767108251E+02  0.41766558279E+02  0.52316262823E+02  0.51100000000E-03 0. -1.
         23    2    1    0    0    0  0.25891991072E+02  0.40323451232E+01 -0.35481342616E+01  0.98556772784E+02  0.94943105047E+02 0.  0.
         11    1    3    3    0    0 -0.29098649781E+01 -0.87347631280E+01 -0.45314692541E+02  0.46240509961E+02  0.51100000000E-03 0.  1.
         22    1    1    0    0    0 -0.25891991072E+02 -0.40323451232E+01  0.35481342616E+01  0.26443227216E+02  0.00000000000E+00 0.  1.
</event>
<event>
 5    1  0.3183396E-003  0.9118800E+02  0.7818608E-02  0.1130116E+00
         25   -1    0    0    0    0  0.00000000000E+00  0.00000000000E+00  0.99999998245E-14  0.12500000000E+03  0.12500000000E+03 0.  0.
        -11    1    3    3    0    0 -0.17448823420E+01  0.31862691549E+02 -0.11584720032E+02  0.33948217414E+02  0.51100000000E-03 0. -1.
         23    2    1    0    0    0 -0.11642829151E+02 -0.27622219825E+02 -0.50129527078E+01  0.94608024191E+02  0.89593560303E+02 0.  0.
         11    1    3    3    0    0 -0.98979468091E+01 -0.59484911374E+02  0.65717673237E+01  0.60659806777E+02  0.51100000000E-03 0.  1.
         22    1    1    0    0    0  0.11642829151E+02  0.27622219825E+02  0.50129527078E+01  0.30391975809E+02  0.00000000000E+00 0.  1.
</event>
<event>
 5    1  0.3183396E-003  0.9118800E+02  0.7818608E-02  0.1130116E+00
         25   -1    0    0    0    0  0.00000000000E+00  0.00000000000E+00  0.99999998245E-14  0.12500000000E+03  0.12500000000E+03 0.  0.
        -11    1    3    3    0    0  0.21775654065E+02  0.29921708530E+02  0.47963888380E+02  0.60580709306E+02  0.51100000000E-03 0. -1.
         23    2    1    0    0    0 -0.12159198600E+00  0.17159418544E+02  0.24272597368E+02  0.95274263468E+02  0.90518317853E+02 0.  0.
         11    1    3    3    0    0 -0.21897246051E+02 -0.12762289986E+02 -0.23691291012E+02  0.34693554161E+02  0.51100000000E-03 0.  1.
         22    1    1    0    0    0  0.12159198600E+00 -0.17159418544E+02 -0.24272597368E+02  0.29725736532E+02  0.00000000000E+00 0. -1.
</event>
<event>
 5    1  0.3183396E-003  0.9118800E+02  0.7818608E-02  0.1130116E+00
         25   -1    0    0    0    0  0.00000000000E+00  0.00000000000E+00  0.99999998245E-14  0.12500000000E+03  0.12500000000E+03 0.  0.
        -11    1    3    3    0    0  0.24065260222E+02 -0.16158249247E+02  0.26526401931E+02  0.39292184566E+02  0.51100000000E-03 0.  1.
         23    2    1    0    0    0  0.10998045287E+02 -0.99992719489E+00 -0.26672877400E+02  0.96131344968E+02  0.91694254139E+02 0.  0.
         11    1    3    3    0    0 -0.13067214935E+02  0.15158322053E+02 -0.53199279332E+02  0.56839160402E+02  0.51100000000E-03 0. -1.
         22    1    1    0    0    0 -0.10998045287E+02  0.99992719489E+00  0.26672877400E+02  0.28868655032E+02  0.00000000000E+00 0. -1.
</event>
<event>
 5    1  0.3183396E-003  0.9118800E+02  0.7818608E-02  0.1130116E+00
         25   -1    0    0    0    0  0.00000000000E+00  0.00000000000E+00  0.99999998245E-14  0.12500000000E+03  0.12500000000E+03 0.  0.
        -11    1    3    3    0    0  0.68241525764E+01  0.32167490064E+02  0.19503721618E+02  0.38232337524E+02  0.51100000000E-03 0.  1.
         23    2    1    0    0    0 -0.25185711024E+02 -0.64338384043E+01 -0.10829932314E+02  0.96839713241E+02  0.92654888216E+02 0.  0.
         11    1    3    3    0    0 -0.32009863601E+02 -0.38601328468E+02 -0.30333653932E+02  0.58607375716E+02  0.51100000000E-03 0. -1.
         22    1    1    0    0    0  0.25185711024E+02  0.64338384043E+01  0.10829932314E+02  0.28160286759E+02  0.00000000000E+00 0. -1.
</event>
<event>
 5    1  0.3183396E-003  0.9118800E+02  0.7818608E-02  0.1130116E+00
         25   -1    0    0    0    0  0.00000000000E+00  0.00000000000E+00  0.99999998245E-14  0.12500000000E+03  0.12500000000E+03 0.  0.
        -11    1    3    3    0    0 -0.40927326088E+02  0.12910164507E+02  0.38758314897E+02  0.57826683652E+02  0.51100000000E-03 0. -1.
         23    2    1    0    0    0 -0.28735425534E+02  0.73293317805E+00  0.48683104143E+01  0.95845886774E+02  0.91304280806E+02 0.  0.
         11    1    3    3    0    0  0.12191900553E+02 -0.12177231329E+02 -0.33890004483E+02  0.38019203122E+02  0.51100000000E-03 0.  1.
         22    1    1    0    0    0  0.28735425534E+02 -0.73293317805E+00 -0.48683104143E+01  0.29154113226E+02  0.00000000000E+00 0. -1.
</event>
<event>
 5    1  0.3183396E-003  0.9118800E+02  0.7818608E-02  0.1130116E+00
         25   -1    0    0    0    0  0.00000000000E+00  0.00000000000E+00  0.99999998245E-14  0.12500000000E+03  0.12500000000E+03 0.  0.
        -11    1    3    3    0    0  0.41335714689E+02  0.85674950270E+01 -0.24816483414E+02  0.48968368659E+02  0.51100000000E-03 0. -1.
         23    2    1    0    0    0  0.16544619055E+02 -0.23382763398E+02 -0.11528250415E+00  0.96355780097E+02  0.91999701218E+02 0.  0.
         11    1    3    3    0    0 -0.24791095634E+02 -0.31950258425E+02  0.24701200909E+02  0.47387411438E+02  0.51100000000E-03 0.  1.
         22    1    1    0    0    0 -0.16544619055E+02  0.23382763398E+02  0.11528250415E+00  0.28644219903E+02  0.00000000000E+00 0.  1.
</event>
<event>
 5    1  0.3183396E-003  0.9118800E+02  0.7818608E-02  0.1130116E+00
         25   -1    0    0    0    0  0.00000000000E+00  0.00000000000E+00  0.99999998245E-14  0.12500000000E+03  0.12500000000E+03 0.  0.
        -11    1    3    3    0    0  0.64891290111E+01 -0.14368580709E+02 -0.55272897282E+02  0.57477457156E+02  0.51100000000E-03 0.  1.
         23    2    1    0    0    0  0.14035652266E+02 -0.17611911434E+02 -0.16575362048E+02  0.97037139169E+02  0.92920852300E+02 0.  0.
         11    1    3    3    0    0  0.75465232547E+01 -0.32433307248E+01  0.38697535235E+02  0.39559682012E+02  0.51100000000E-03 0. -1.
         22    1    1    0    0    0 -0.14035652266E+02  0.17611911434E+02  0.16575362048E+02  0.27962860831E+02  0.00000000000E+00 0.  1.
</event>
<event>
 5    1  0.3183396E-003  0.9118800E+02  0.7818608E-02  0.1130116E+00
         25   -1    0    0    0    0  0.00000000000E+00  0.00000000000E+00  0.99999998245E-14  0.12500000000E+03  0.12500000000E+03 0.  0.
        -11    1    3    3    0    0  0.29803737460E+02  0.19424534272E+02 -0.15879690092E+01  0.35610348834E+02  0.51100000000E-03 0. -1.
         23    2    1    0    0    0 -0.15955719033E+02 -0.22036554388E+02 -0.44798651579E+01  0.97427116745E+02  0.93443989567E+02 0.  0.
         11    1    3    3    0    0 -0.45759456493E+02 -0.41461088660E+02 -0.28918961487E+01  0.61816767911E+02  0.51100000000E-03 0.  1.
         22    1    1    0    0    0  0.15955719033E+02  0.22036554388E+02  0.44798651579E+01  0.27572883255E+02  0.00000000000E+00 0.  1.
</event>
<event>
 5    1  0.3183396E-003  0.9118800E+02  0.7818608E-02  0.1130116E+00
         25   -1    0    0    0    0  0.00000000000E+00  0.00000000000E+00  0.99999998245E-14  0.12500000000E+03  0.12500000000E+03 0.  0.
        -11    1    3    3    0    0  0.10015102632E+02 -0.13203227426E+02  0.33001922221E+02  0.36929045016E+02  0.51100000000E-03 0.  1.
         23    2    1    0    0    0  0.17999813648E+02  0.16045885199E+02 -0.17063678602E+02  0.95459640310E+02  0.90773950434E+02 0.  0.
         11    1    3    3    0    0  0.79847110160E+01  0.29249112626E+02 -0.50065600823E+02  0.58530595294E+02  0.51100000000E-03 0. -1.
         22    1    1    0    0    0 -0.17999813648E+02 -0.16045885199E+02  0.17063678602E+02  0.29540359690E+02  0.00000000000E+00 0. -1.
</event>
<event>
 5    1  0.3183396E-003  0.9118800E+02  0.7818608E-02  0.1130116E+00
         25   -1    0    0    0    0  0.00000000000E+00  0.00000000000E+00  0.99999998245E-14  0.12500000000E+03  0.12500000000E+03 0.  0.
        -11    1    3    3    0    0 -0.28798066398E+02  0.30357170675E+02  0.40786614574E+02  0.58433161547E+02  0.51100000000E-03 0. -1.
         23    2    1    0    0    0  0.13452456645E+00  0.22081270110E+02  0.13099958000E+02  0.99324924808E+02  0.95949107354E+02 0.  0.
         11    1    3    3    0    0  0.28932590964E+02 -0.82759005647E+01 -0.27686656575E+02  0.40891763261E+02  0.51100000000E-03 0.  1.
         22    1    1    0    0    0 -0.13452456645E+00 -0.22081270110E+02 -0.13099958000E+02  0.25675075192E+02  0.00000000000E+00 0.  1.
</event>
<event>
 5    1  0.3183396E-003  0.9118800E+02  0.7818608E-02  0.1130116E+00
         25   -1    0    0    0    0  0.00000000000E+00  0.00000000000E+00  0.99999998245E-14  0.12500000000E+03  0.12500000000E+03 0.  0.
        -11    1    3    3    0    0  0.52782126465E+02 -0.29730737166E+02  0.12330255187E+02  0.61821556110E+02  0.51100000000E-03 0.  1.
         23    2    1    0    0    0  0.26999502194E+02 -0.94138926607E+01  0.15794548720E+01  0.96362800915E+02  0.92009239910E+02 0.  0.
         11    1    3    3    0    0 -0.25782624272E+02  0.20316844506E+02 -0.10750800315E+02  0.34541244805E+02  0.51100000000E-03 0. -1.
         22    1    1    0    0    0 -0.26999502194E+02  0.94138926607E+01 -0.15794548720E+01  0.28637199085E+02  0.00000000000E+00 0.  1.
</event>
<event>
 5    1  0.3183396E-003  0.9118800E+02  0.7818608E-02  0.1130116E+00
         25   -1    0    0    0    0  0.00000000000E+00  0.00000000000E+00  0.99999998245E-14  0.12500000000E+03  0.12500000000E+03 0.  0.
        -11    1    3    3    0    0 -0.25533262718E+02 -0.93213486856E+00  0.21891341912E+02  0.33645909579E+02  0.51100000000E-03 0.  1.
         23    2    1    0    0    0 -0.24344645844E+02 -0.29080899953E+02 -0.18428616944E+02  0.82833965733E+02  0.71298607513E+02 0.  0.
         11    1    3    3    0    0  0.11886168740E+01 -0.28148765084E+02 -0.40319958856E+02  0.49188056154E+02  0.51100000000E-03 0. -1.
         22    1    1    0    0    0  0.24344645844E+02  0.29080899953E+02  0.18428616944E+02  0.42166034267E+02  0.00000000000E+00 0. -1.
</event>
<event>
 5    1  0.3183396E-003  0.9118800E+02  0.7818608E-02  0.1130116E+00
         25   -1    0    0    0    0  0.00000000000E+00  0.00000000000E+00  0.99999998245E-14  0.12500000000E+03  0.12500000000E+03 0.  0.
        -11    1    3    3    0    0  0.29294799894E+02 -0.38645361202E+02 -0.17895635748E+02  0.51690453880E+02  0.51100000000E-03 0.  1.
         23    2    1    0    0    0  0.55289418929E+01 -0.63966208791E+00 -0.27001645479E+02  0.97430683276E+02  0.93448760393E+02 0.  0.
         11    1    3    3    0    0 -0.23765858001E+02  0.38005699114E+02 -0.91060097312E+01  0.45740229396E+02  0.51100000000E-03 0. -1.
         22    1    1    0    0    0 -0.55289418929E+01  0.63966208791E+00  0.27001645479E+02  0.27569316724E+02  0.00000000000E+00 0.  1.
</event>
<event>
 5    1  0.3183396E-003  0.9118800E+02  0.7818608E-02  0.1130116E+00
         25   -1    0    0    0    0  0.00000000000E+00  0.00000000000E+00  0.99999998245E-14  0.12500000000E+03  0.12500000000E+03 0.  0.
        -11    1    3    3    0    0  0.53412862985E+01 -0.91864874315E+01  0.34618957736E+02  0.36213162326E+02  0.51100000000E-03 0.  1.
         23    2    1    0    0    0 -0.10375744417E+02  0.19930545251E+02 -0.16511594381E+02  0.97116035877E+02  0.93026926044E+02 0.  0.
         11    1    3    3    0    0 -0.15717030716E+02  0.29117032682E+02 -0.51130552117E+02  0.60902873551E+02  0.51100000000E-03 0. -1.
         22    1    1    0    0    0  0.10375744417E+02 -0.19930545251E+02  0.16511594381E+02  0.27883964123E+02  0.00000000000E+00 0. -1.
</event>
<event>
 5    1  0.3183396E-003  0.9118800E+02  0.7818608E-02  0.1130116E+00
         25   -1    0    0    0    0  0.00000000000E+00  0.00000000000E+00  0.99999998245E-14  0.12500000000E+03  0.12500000000E+03 0.  0.
        -11    1    3    3    0    0  0.42152969612E+02  0.21893713233E+00  0.15704121942E+02  0.44983777374E+02  0.51100000000E-03 0. -1.
         23    2    1    0    0    0 -0.79689092590E+01 -0.10394404137E+02  0.24739185539E+02  0.97007600080E+02  0.92881106906E+02 0.  0.
         11    1    3    3    0    0 -0.50121878871E+02 -0.10613341269E+02  0.90350635973E+01  0.52023822706E+02  0.51100000000E-03 0.  1.
         22    1    1    0    0    0  0.79689092590E+01  0.10394404137E+02 -0.24739185539E+02  0.27992399920E+02  0.00000000000E+00 0. -1.
</event>
<event>
 5    1  0.3183396E-003  0.9118800E+02  0.7818608E-02  0.1130116E+00
         25   -1    0    0    0    0  0.00000000000E+00  0.00000000000E+00  0.99999998245E-14  0.12500000000E+03  0.12500000000E+03 0.  0.
        -11    1    3    3    0    0  0.33897986210E+01  0.27470729470E+02  0.26633266279E+02  0.38411750614E+02  0.51100000000E-03 0.  1.
         23    2    1    0    0    0 -0.24327889350E+02 -0.16361852300E+01 -0.15073927728E+02  0.96333877146E+02  0.91969936863E+02 0.  0.
         11    1    3    3    0    0 -0.27717687971E+02 -0.29106914700E+02 -0.41707194007E+02  0.57922126532E+02  0.51100000000E-03 0. -1.
         22    1    1    0    0    0  0.24327889350E+02  0.16361852300E+01  0.15073927728E+02  0.28666122854E+02  0.00000000000E+00 0. -1.
</event>
<event>
 5    1  0.3183396E-003  0.9118800E+02  0.7818608E-02  0.1130116E+00
         25   -1    0    0    0    0  0.00000000000E+00  0.00000000000E+00  0.99999998245E-14  0.12500000000E+03  0.12500000000E+03 0.  0.
        -11    1    3    3    0    0 -0.20145482256E+02  0.48820225828E+02  0.32426403188E+02  0.61973595420E+02  0.51100000000E-03 0. -1.
         23    2    1    0    0    0 -0.47176853773E+01  0.25638332756E+02  0.13499102715E+02  0.95643460082E+02  0.91026726957E+02 0.  0.
         11    1    3    3    0    0  0.15427796879E+02 -0.23181893072E+02 -0.18927300473E+02  0.33669864663E+02  0.51100000000E-03 0.  1.
         22    1    1    0    0    0  0.47176853773E+01 -0.25638332756E+02 -0.13499102715E+02  0.29356539918E+02  0.00000000000E+00 0. -1.
</event>
<event>
 5    1  0.3183396E-003  0.9118800E+02  0.7818608E-02  0.1130116E+00
         25   -1    0    0    0    0  0.00000000000E+00  0.00000000000E+00  0.99999998245E-14  0.12500000000E+03  0.12500000000E+03 0.  0.
        -11    1    3    3    0    0  0.23007069873E+02 -0.42368541431E+02  0.33976912493E+02  0.58981769640E+02  0.51100000000E-03 0. -1.
         23    2    1    0    0    0  0.21243840205E+02 -0.16969195983E+02  0.53561397986E+01  0.97288222856E+02  0.93258006165E+02 0.  0.
         11    1    3    3    0    0 -0.17632296681E+01  0.25399345448E+02 -0.28620772694E+02  0.38306453215E+02  0.51100000000E-03 0.  1.
         22    1    1    0    0    0 -0.21243840205E+02  0.16969195983E+02 -0.53561397986E+01  0.27711777144E+02  0.00000000000E+00 0. -1.
</event>
<event>
 5    1  0.3183396E-003  0.9118800E+02  0.7818608E-02  0.1130116E+00
         25   -1    0    0    0    0  0.00000000000E+00  0.00000000000E+00  0.99999998245E-14  0.12500000000E+03  0.12500000000E+03 0.  0.
        -11    1    3    3    0    0 -0.23502298796E+02  0.25977480800E+02 -0.55718043063E+01  0.35471573984E+02  0.51100000000E-03 0.  1.
         23    2    1    0    0    0  0.92310043231E+00 -0.26815046552E+02  0.11070984386E+02  0.95974743218E+02  0.91480521449E+02 0.  0.
         11    1    3    3    0    0  0.24425399228E+02 -0.52792527352E+02  0.16642788692E+02  0.60503169234E+02  0.51100000000E-03 0. -1.
         22    1    1    0    0    0 -0.92310043231E+00  0.26815046552E+02 -0.11070984386E+02  0.29025256782E+02  0.00000000000E+00 0. -1.
</event>
<event>
 5    1  0.3183396E-003  0.9118800E+02  0.7818608E-02  0.1130116E+00
         25   -1    0    0    0    0  0.00000000000E+00  0.00000000000E+00  0.99999998245E-14  0.12500000000E+03  0.12500000000E+03 0.  0.
        -11    1    3    3    0    0 -0.51884984342E+01  0.15536156452E+02 -0.32629341254E+02  0.36509814903E+02  0.51100000000E-03 0.  1.
         23    2    1    0    0    0 -0.11159710117E+02 -0.25921455160E+02  0.88150312068E+01  0.95433705970E+02  0.90738230600E+02 0.  0.
         11    1    3    3    0    0 -0.59712116823E+01 -0.41457611612E+02  0.41444372461E+02  0.58923891067E+02  0.51100000000E-03 0. -1.
         22    1    1    0    0    0  0.11159710117E+02  0.25921455160E+02 -0.88150312068E+01  0.29566294030E+02  0.00000000000E+00 0. -1.
</event>
<event>
 5    1  0.3183396E-003  0.9118800E+02  0.7818608E-02  0.1130116E+00
         25   -1    0    0    0    0  0.00000000000E+00  0.00000000000E+00  0.99999998245E-14  0.12500000000E+03  0.12500000000E+03 0.  0.
        -11    1    3    3    0    0  0.15891393988E+02 -0.45698439089E+01 -0.40909428619E+02  0.44124836843E+02  0.51100000000E-03 0.  1.
         23    2    1    0    0    0  0.19966666613E+02 -0.19062358633E+02  0.87700696245E+01  0.96035272942E+02  0.91563192581E+02 0.  0.
         11    1    3    3    0    0  0.40752726255E+01 -0.14492514724E+02  0.49679498244E+02  0.51910436099E+02  0.51100000000E-03 0. -1.
         22    1    1    0    0    0 -0.19966666613E+02  0.19062358633E+02 -0.87700696245E+01  0.28964727058E+02  0.00000000000E+00 0. -1.
</event>
<event>
 5    1  0.3183396E-003  0.9118800E+02  0.7818608E-02  0.1130116E+00
         25   -1    0    0    0    0  0.00000000000E+00  0.00000000000E+00  0.99999998245E-14  0.12500000000E+03  0.12500000000E+03 0.  0.
        -11    1    3    3    0    0  0.19580194894E+02  0.32432633668E+02 -0.25428338219E+01  0.37970064035E+02  0.51100000000E-03 0.  1.
         23    2    1    0    0    0 -0.16291227630E+02 -0.88056863992E+01 -0.22232442460E+02  0.96065147169E+02  0.91603967120E+02 0.  0.
         11    1    3    3    0    0 -0.35871422524E+02 -0.41238320067E+02 -0.19689608638E+02  0.58095083134E+02  0.51100000000E-03 0. -1.
         22    1    1    0    0    0  0.16291227630E+02  0.88056863992E+01  0.22232442460E+02  0.28934852831E+02  0.00000000000E+00 0. -1.
</event>
<event>
 5    1  0.3183396E-003  0.9118800E+02  0.7818608E-02  0.1130116E+00
         25   -1    0    0    0    0  0.00000000000E+00  0.00000000000E+00  0.99999998245E-14  0.12500000000E+03  0.12500000000E+03 0.  0.
        -11    1    3    3    0    0  0.56329233133E+02  0.19013589404E+02 -0.13407448267E+02  0.60944718858E+02  0.51100000000E-03 0. -1.
         23    2    1    0    0    0  0.19728163232E+02  0.16717953867E+02 -0.73686303055E+01  0.98111580214E+02  0.94355153826E+02 0.  0.
         11    1    3    3    0    0 -0.36601069901E+02 -0.22956355376E+01  0.60388179617E+01  0.37166861356E+02  0.51100000000E-03 0.  1.
         22    1    1    0    0    0 -0.19728163232E+02 -0.16717953867E+02  0.73686303055E+01  0.26888419786E+02  0.00000000000E+00 0. -1.
</event>
<event>
 5    1  0.3183396E-003  0.9118800E+02  0.7818608E-02  0.1130116E+00
         25   -1    0    0    0    0  0.00000000000E+00  0.00000000000E+00  0.99999998245E-14  0.12500000000E+03  0.12500000000E+03 0.  0.
        -11    1    3    3    0    0 -0.31276516527E+02 -0.28081487909E+02  0.19977649920E+02  0.46539197950E+02  0.51100000000E-03 0. -1.
         23    2    1    0    0    0 -0.13757646451E+02  0.16825163185E+02  0.21035225876E+02  0.94753683204E+02  0.89796552278E+02 0.  0.
         11    1    3    3    0    0  0.17518870076E+02  0.44906651094E+02  0.10575759560E+01  0.48214485254E+02  0.51100000000E-03 0.  1.
         22    1    1    0    0    0  0.13757646451E+02 -0.16825163185E+02 -0.21035225876E+02  0.30246316796E+02  0.00000000000E+00 0.  1.
</event>
<event>
 5    1  0.3183396E-003  0.9118800E+02  0.7818608E-02  0.1130116E+00
         25   -1    0    0    0    0  0.00000000000E+00  0.00000000000E+00  0.99999998245E-14  0.12500000000E+03  0.12500000000E+03 0.  0.
        -11    1    3    3    0    0  0.20775256130E+02  0.22447847150E+02 -0.66526611451E+01  0.31301357950E+02  0.51100000000E-03 0.  1.
         23    2    1    0    0    0 -0.65909984019E-01 -0.30500560833E+02  0.13470464400E+02  0.91657205180E+02  0.85377405061E+02 0.  0.
         11    1    3    3    0    0 -0.20841166114E+02 -0.52948407983E+02  0.20123125545E+02  0.60355847230E+02  0.51100000000E-03 0. -1.
         22    1    1    0    0    0  0.65909984019E-01  0.30500560833E+02 -0.13470464400E+02  0.33342794820E+02  0.00000000000E+00 0. -1.
</event>
<event>
 5    1  0.3183396E-003  0.9118800E+02  0.7818608E-02  0.1130116E+00
         25   -1    0    0    0    0  0.00000000000E+00  0.00000000000E+00  0.99999998245E-14  0.12500000000E+03  0.12500000000E+03 0.  0.
        -11    1    3    3    0    0  0.45318021985E+02 -0.28829442094E+02  0.30035112530E+02  0.61538344413E+02  0.51100000000E-03 0. -1.
         23    2    1    0    0    0  0.22796464558E+02 -0.58144469137E+01  0.15185335682E+02  0.96998553448E+02  0.92868931090E+02 0.  0.
         11    1    3    3    0    0 -0.22521557427E+02  0.23014995180E+02 -0.14849776849E+02  0.35460209035E+02  0.51100000000E-03 0.  1.
         22    1    1    0    0    0 -0.22796464558E+02  0.58144469137E+01 -0.15185335682E+02  0.28001446552E+02  0.00000000000E+00 0. -1.
</event>
<event>
 5    1  0.3183396E-003  0.9118800E+02  0.7818608E-02  0.1130116E+00
         25   -1    0    0    0    0  0.00000000000E+00  0.00000000000E+00  0.99999998245E-14  0.12500000000E+03  0.12500000000E+03 0.  0.
        -11    1    3    3    0    0  0.29169774751E+02  0.57206172757E+01  0.19403455831E+02  0.35497821334E+02  0.51100000000E-03 0.  1.
         23    2    1    0    0    0 -0.25813094388E+02  0.91366804133E+01 -0.72185739562E+01  0.96682115531E+02  0.92442029850E+02 0.  0.
         11    1    3    3    0    0 -0.54982869139E+02  0.34160631375E+01 -0.26622029787E+02  0.61184294197E+02  0.51100000000E-03 0. -1.
         22    1    1    0    0    0  0.25813094388E+02 -0.91366804133E+01  0.72185739562E+01  0.28317884469E+02  0.00000000000E+00 0. -1.
</event>
<event>
 5    1  0.3183396E-003  0.9118800E+02  0.7818608E-02  0.1130116E+00
         25   -1    0    0    0    0  0.00000000000E+00  0.00000000000E+00  0.99999998245E-14  0.12500000000E+03  0.12500000000E+03 0.  0.
        -11    1    3    3    0    0 -0.30622984122E+02 -0.18350948638E+02 -0.39987210414E+02  0.53605050783E+02  0.51100000000E-03 0. -1.
         23    2    1    0    0    0 -0.14422599439E+02  0.15373730520E+02 -0.19613998613E+02  0.96206391226E+02  0.91796502147E+02 0.  0.
         11    1    3    3    0    0  0.16200384682E+02  0.33724679158E+02  0.20373211802E+02  0.42601340443E+02  0.51100000000E-03 0.  1.
         22    1    1    0    0    0  0.14422599439E+02 -0.15373730520E+02  0.19613998613E+02  0.28793608774E+02  0.00000000000E+00 0.  1.
</event>
<event>
 5    1  0.3183396E-003  0.9118800E+02  0.7818608E-02  0.1130116E+00
         25   -1    0    0    0    0  0.00000000000E+00  0.00000000000E+00  0.99999998245E-14  0.12500000000E+03  0.12500000000E+03 0.  0.
        -11    1    3    3    0    0  0.39868477029E+01 -0.26722836635E+02 -0.55089800192E+02  0.61358707922E+02  0.51100000000E-03 0. -1.
         23    2    1    0    0    0 -0.31799104042E+00 -0.19471046118E+02 -0.21496228249E+02  0.95994645594E+02  0.91507712236E+02 0.  0.
         11    1    3    3    0    0 -0.43048387433E+01  0.72517905167E+01  0.33593571943E+02  0.34635937672E+02  0.51100000000E-03 0.  1.
         22    1    1    0    0    0  0.31799104042E+00  0.19471046118E+02  0.21496228249E+02  0.29005354406E+02  0.00000000000E+00 0. -1.
</event>
<event>
 5    1  0.3183396E-003  0.9118800E+02  0.7818608E-02  0.1130116E+00
         25   -1    0    0    0    0  0.00000000000E+00  0.00000000000E+00  0.99999998245E-14  0.12500000000E+03  0.12500000000E+03 0.  0.
        -11    1    3    3    0    0  0.33089484506E+02  0.80669694410E+01  0.43404810261E+02  0.55172162681E+02  0.51100000000E-03 0. -1.
         23    2    1    0    0    0 -0.25722473033E+01  0.14577769108E+02  0.25287114339E+02  0.95698703784E+02  0.91102557297E+02 0.  0.
         11    1    3    3    0    0 -0.35661731809E+02  0.65107996674E+01 -0.18117695923E+02  0.40526541103E+02  0.51100000000E-03 0.  1.
         22    1    1    0    0    0  0.25722473033E+01 -0.14577769108E+02 -0.25287114339E+02  0.29301296216E+02  0.00000000000E+00 0. -1.
</event>
<event>
 5    1  0.3183396E-003  0.9118800E+02  0.7818608E-02  0.1130116E+00
         25   -1    0    0    0    0  0.00000000000E+00  0.00000000000E+00  0.99999998245E-14  0.12500000000E+03  0.12500000000E+03 0.  0.
        -11    1    3    3    0    0  0.56062787344E+02  0.23243766785E+02 -0.96146500222E+01  0.61447134306E+02  0.51100000000E-03 0. -1.
         23    2    1    0    0    0  0.28055054240E+02  0.91784605679E+01  0.32038846305E+01  0.95308333096E+02  0.90565353608E+02 0.  0.
         11    1    3    3    0    0 -0.28007733104E+02 -0.14065306217E+02  0.12818534653E+02  0.33861198790E+02  0.51100000000E-03 0.  1.
         22    1    1    0    0    0 -0.28055054240E+02 -0.91784605679E+01 -0.32038846305E+01  0.29691666904E+02  0.00000000000E+00 0. -1.
</event>
<event>
 5    1  0.3183396E-003  0.9118800E+02  0.7818608E-02  0.1130116E+00
         25   -1    0    0    0    0  0.00000000000E+00  0.00000000000E+00  0.99999998245E-14  0.12500000000E+03  0.12500000000E+03 0.  0.
        -11    1    3    3    0    0 -0.31623021557E+02  0.29679010445E+02  0.25393080494E+02  0.50256021437E+02  0.51100000000E-03 0. -1.
         23    2    1    0    0    0 -0.16753695505E+02 -0.13076102334E+02  0.19953187312E+02  0.95848662994E+02  0.91308081506E+02 0.  0.
         11    1    3    3    0    0  0.14869326052E+02 -0.42755112780E+02 -0.54398931815E+01  0.45592641557E+02  0.51100000000E-03 0.  1.
         22    1    1    0    0    0  0.16753695505E+02  0.13076102334E+02 -0.19953187312E+02  0.29151337006E+02  0.00000000000E+00 0. -1.
</event>
<event>
 5    1  0.3183396E-003  0.9118800E+02  0.7818608E-02  0.1130116E+00
         25   -1    0    0    0    0  0.00000000000E+00  0.00000000000E+00  0.99999998245E-14  0.12500000000E+03  0.12500000000E+03 0.  0.
        -11    1    3    3    0    0 -0.24556411597E+02  0.30067063544E+02  0.48175946487E+02  0.61870570394E+02  0.51100000000E-03 0. -1.
         23    2    1    0    0    0 -0.15687723487E+02  0.94691423299E+01  0.23176293986E+02  0.95454950879E+02  0.90767492638E+02 0.  0.
         11    1    3    3    0    0  0.88686881097E+01 -0.20597921214E+02 -0.24999652502E+02  0.33584380485E+02  0.51100000000E-03 0.  1.
         22    1    1    0    0    0  0.15687723487E+02 -0.94691423299E+01 -0.23176293986E+02  0.29545049121E+02  0.00000000000E+00 0. -1.
</event>
<event>
 5    1  0.3183396E-003  0.9118800E+02  0.7818608E-02  0.1130116E+00
         25   -1    0    0    0    0  0.00000000000E+00  0.00000000000E+00  0.99999998245E-14  0.12500000000E+03  0.12500000000E+03 0.  0.
        -11    1    3    3    0    0 -0.25277638768E+02 -0.51369222156E+01  0.24277874906E+02  0.35422622739E+02  0.51100000000E-03 0. -1.
         23    2    1    0    0    0  0.27389988680E+02  0.12234085797E+02  0.28871017757E+01  0.94863316509E+02  0.89949036277E+02 0.  0.
         11    1    3    3    0    0  0.52667627448E+02  0.17371008012E+02 -0.21390773130E+02  0.59440693769E+02  0.51100000000E-03 0.  1.
         22    1    1    0    0    0 -0.27389988680E+02 -0.12234085797E+02 -0.28871017757E+01  0.30136683491E+02  0.00000000000E+00 0.  1.
</event>
<event>
 5    1  0.3183396E-003  0.9118800E+02  0.7818608E-02  0.1130116E+00
         25   -1    0    0    0    0  0.00000000000E+00  0.00000000000E+00  0.99999998245E-14  0.12500000000E+03  0.12500000000E+03 0.  0.
        -11    1    3    3    0    0  0.43028933985E+02 -0.19570635698E+02 -0.19754188992E+02  0.51232088816E+02  0.51100000000E-03 0.  1.
         23    2    1    0    0    0  0.24911120385E+02  0.40769371532E+01  0.13905012342E+02  0.96181000996E+02  0.91761921563E+02 0.  0.
         11    1    3    3    0    0 -0.18117813600E+02  0.23647572851E+02  0.33659201334E+02  0.44948912179E+02  0.51100000000E-03 0. -1.
         22    1    1    0    0    0 -0.24911120385E+02 -0.40769371532E+01 -0.13905012342E+02  0.28818999004E+02  0.00000000000E+00 0. -1.
</event>
<event>
 5    1  0.3183396E-003  0.9118800E+02  0.7818608E-02  0.1130116E+00
         25   -1    0    0    0    0  0.00000000000E+00  0.00000000000E+00  0.99999998245E-14  0.12500000000E+03  0.12500000000E+03 0.  0.
        -11    1    3    3    0    0  0.64249112666E+01  0.38707261821E+02  0.27215032854E+02  0.47751331039E+02  0.51100000000E-03 0. -1.
         23    2    1    0    0    0  0.28222265388E+02  0.43331974525E+00  0.96463976780E+01  0.95171540137E+02  0.90376352185E+02 0.  0.
         11    1    3    3    0    0  0.21797354121E+02 -0.38273942076E+02 -0.17568635176E+02  0.47420209098E+02  0.51100000000E-03 0.  1.
         22    1    1    0    0    0 -0.28222265388E+02 -0.43331974525E+00 -0.96463976780E+01  0.29828459863E+02  0.00000000000E+00 0. -1.
</event>
<event>
 5    1  0.3183396E-003  0.9118800E+02  0.7818608E-02  0.1130116E+00
         25   -1    0    0    0    0  0.00000000000E+00  0.00000000000E+00  0.99999998245E-14  0.12500000000E+03  0.12500000000E+03 0.  0.
        -11    1    3    3    0    0  0.27863704590E+02 -0.26744172654E+02 -0.31723026589E+02  0.49979868154E+02  0.51100000000E-03 0. -1.
         23    2    1    0    0    0  0.28262637746E+01  0.10346334470E+02 -0.28154099573E+02  0.94872143676E+02  0.89961302342E+02 0.  0.
         11    1    3    3    0    0 -0.25037440815E+02  0.37090507124E+02  0.35689270159E+01  0.44892275523E+02  0.51100000000E-03 0.  1.
         22    1    1    0    0    0 -0.28262637746E+01 -0.10346334470E+02  0.28154099573E+02  0.30127856324E+02  0.00000000000E+00 0. -1.
</event>
<event>
 5    1  0.3183396E-003  0.9118800E+02  0.7818608E-02  0.1130116E+00
         25   -1    0    0    0    0  0.00000000000E+00  0.00000000000E+00  0.99999998245E-14  0.12500000000E+03  0.12500000000E+03 0.  0.
        -11    1    3    3    0    0  0.58447892225E+02  0.94895989700E+01  0.15656666853E+02  0.61248182107E+02  0.51100000000E-03 0.  1.
         23    2    1    0    0    0  0.29351964450E+02  0.12242770169E+02  0.31369289664E+01  0.93042785449E+02  0.87382471711E+02 0.  0.
         11    1    3    3    0    0 -0.29095927774E+02  0.27531711990E+01 -0.12519737886E+02  0.31794603343E+02  0.51100000000E-03 0. -1.
         22    1    1    0    0    0 -0.29351964450E+02 -0.12242770169E+02 -0.31369289664E+01  0.31957214551E+02  0.00000000000E+00 0.  1.
</event>
<event>
 5    1  0.3183396E-003  0.9118800E+02  0.7818608E-02  0.1130116E+00
         25   -1    0    0    0    0  0.00000000000E+00  0.00000000000E+00  0.99999998245E-14  0.12500000000E+03  0.12500000000E+03 0.  0.
        -11    1    3    3    0    0 -0.15775891650E+02  0.14022092423E+02  0.25627667229E+02  0.33200529531E+02  0.51100000000E-03 0.  1.
         23    2    1    0    0    0  0.17540940477E+02 -0.12627674317E+02 -0.19918603738E+02  0.95607934296E+02  0.90977929049E+02 0.  0.
         11    1    3    3    0    0  0.33316832127E+02 -0.26649766741E+02 -0.45546270967E+02  0.62407404765E+02  0.51100000000E-03 0. -1.
         22    1    1    0    0    0 -0.17540940477E+02  0.12627674317E+02  0.19918603738E+02  0.29392065704E+02  0.00000000000E+00 0. -1.
</event>
<event>
 5    1  0.3183396E-003  0.9118800E+02  0.7818608E-02  0.1130116E+00
         25   -1    0    0    0    0  0.00000000000E+00  0.00000000000E+00  0.99999998245E-14  0.12500000000E+03  0.12500000000E+03 0.  0.
        -11    1    3    3    0    0 -0.88383524722E+01 -0.18056798906E+02  0.11859929251E+02  0.23341430617E+02  0.51100000000E-03 0. -1.
         23    2    1    0    0    0  0.44856993564E+02 -0.20905394938E+01  0.66968253993E+01  0.79597712641E+02  0.65379111040E+02 0.  0.
         11    1    3    3    0    0  0.53695346036E+02  0.15966259412E+02 -0.51631038519E+01  0.56256282024E+02  0.51100000000E-03 0.  1.
         22    1    1    0    0    0 -0.44856993564E+02  0.20905394938E+01 -0.66968253993E+01  0.45402287359E+02  0.00000000000E+00 0.  1.
</event>
<event>
 5    1  0.3183396E-003  0.9118800E+02  0.7818608E-02  0.1130116E+00
         25   -1    0    0    0    0  0.00000000000E+00  0.00000000000E+00  0.99999998245E-14  0.12500000000E+03  0.12500000000E+03 0.  0.
        -11    1    3    3    0    0 -0.16634374674E+02  0.37458523460E+02 -0.11753222897E+02  0.42637796018E+02  0.51100000000E-03 0.  1.
         23    2    1    0    0    0 -0.25423594260E+02 -0.10318289785E+02  0.99096962189E+01  0.95827610171E+02  0.91279255819E+02 0.  0.
         11    1    3    3    0    0 -0.87892195862E+01 -0.47776813245E+02  0.21662919116E+02  0.53189814153E+02  0.51100000000E-03 0. -1.
         22    1    1    0    0    0  0.25423594260E+02  0.10318289785E+02 -0.99096962189E+01  0.29172389829E+02  0.00000000000E+00 0. -1.
</event>
<event>
 5    1  0.3183396E-003  0.9118800E+02  0.7818608E-02  0.1130116E+00
         25   -1    0    0    0    0  0.00000000000E+00  0.00000000000E+00  0.99999998245E-14  0.12500000000E+03  0.12500000000E+03 0.  0.
        -11    1    3    3    0    0  0.19697628000E+02  0.49601659343E+02  0.61448148677E+01  0.53722247798E+02  0.51100000000E-03 0.  1.
         23    2    1    0    0    0  0.27612750071E+02  0.81281127218E+01  0.20321796535E+01  0.96144152463E+02  0.91711711988E+02 0.  0.
         11    1    3    3    0    0  0.79151220711E+01 -0.41473546621E+02 -0.41126352141E+01  0.42421904665E+02  0.51100000000E-03 0. -1.
         22    1    1    0    0    0 -0.27612750071E+02 -0.81281127218E+01 -0.20321796535E+01  0.28855847537E+02  0.00000000000E+00 0.  1.
</event>
<event>
 5    1  0.3183396E-003  0.9118800E+02  0.7818608E-02  0.1130116E+00
         25   -1    0    0    0    0  0.00000000000E+00  0.00000000000E+00  0.99999998245E-14  0.12500000000E+03  0.12500000000E+03 0.  0.
        -11    1    3    3    0    0  0.44516017661E+02  0.44939250661E-01  0.36813855548E+02  0.57766234156E+02  0.51100000000E-03 0.  1.
         23    2    1    0    0    0  0.14930784854E+02 -0.39281888191E+01  0.33888894368E+02  0.87760019264E+02  0.79467004574E+02 0.  0.
         11    1    3    3    0    0 -0.29585232807E+02 -0.39731280697E+01 -0.29249611803E+01  0.29993785108E+02  0.51100000000E-03 0. -1.
         22    1    1    0    0    0 -0.14930784854E+02  0.39281888191E+01 -0.33888894368E+02  0.37239980736E+02  0.00000000000E+00 0.  1.
</event>
<event>
 5    1  0.3183396E-003  0.9118800E+02  0.7818608E-02  0.1130116E+00
         25   -1    0    0    0    0  0.00000000000E+00  0.00000000000E+00  0.99999998245E-14  0.12500000000E+03  0.12500000000E+03 0.  0.
        -11    1    3    3    0    0 -0.12409429177E+02 -0.54520010809E+02 -0.95100945745E+01  0.56717434799E+02  0.51100000000E-03 0.  1.
         23    2    1    0    0    0 -0.23134013186E+02 -0.17601857550E+02 -0.22248342687E+01  0.95845963524E+02  0.91304385881E+02 0.  0.
         11    1    3    3    0    0 -0.10724584009E+02  0.36918153259E+02  0.72852603058E+01  0.39128528725E+02  0.51100000000E-03 0. -1.
         22    1    1    0    0    0  0.23134013186E+02  0.17601857550E+02  0.22248342687E+01  0.29154036476E+02  0.00000000000E+00 0.  1.
</event>
<event>
 5    1  0.3183396E-003  0.9118800E+02  0.7818608E-02  0.1130116E+00
         25   -1    0    0    0    0  0.00000000000E+00  0.00000000000E+00  0.99999998245E-14  0.12500000000E+03  0.12500000000E+03 0.  0.
        -11    1    3    3    0    0 -0.37961613584E+02 -0.13377130375E+02 -0.98597688827E+01  0.41439676225E+02  0.51100000000E-03 0. -1.
         23    2    1    0    0    0 -0.39091380572E+01  0.15362532032E+01  0.29280021486E+02  0.95420258749E+02  0.90719703963E+02 0.  0.
         11    1    3    3    0    0  0.34052475527E+02  0.14913383578E+02  0.39139790369E+02  0.53980582524E+02  0.51100000000E-03 0.  1.
         22    1    1    0    0    0  0.39091380572E+01 -0.15362532032E+01 -0.29280021486E+02  0.29579741251E+02  0.00000000000E+00 0.  1.
</event>
<event>
 5    1  0.3183396E-003  0.9118800E+02  0.7818608E-02  0.1130116E+00
         25   -1    0    0    0    0  0.00000000000E+00  0.00000000000E+00  0.99999998245E-14  0.12500000000E+03  0.12500000000E+03 0.  0.
        -11    1    3    3    0    0  0.22905765915E+02 -0.77693895633E+01 -0.17325774549E+02  0.29752646778E+02  0.51100000000E-03 0.  1.
         23    2    1    0    0    0 -0.18551893497E+02 -0.54932731113E+01  0.27836140039E+02  0.91100154955E+02  0.84557901693E+02 0.  0.
         11    1    3    3    0    0 -0.41457659412E+02  0.22761164520E+01  0.45161914588E+02  0.61347508177E+02  0.51100000000E-03 0. -1.
         22    1    1    0    0    0  0.18551893497E+02  0.54932731113E+01 -0.27836140039E+02  0.33899845045E+02  0.00000000000E+00 0. -1.
</event>
<event>
 5    1  0.3183396E-003  0.9118800E+02  0.7818608E-02  0.1130116E+00
         25   -1    0    0    0    0  0.00000000000E+00  0.00000000000E+00  0.99999998245E-14  0.12500000000E+03  0.12500000000E+03 0.  0.
        -11    1    3    3    0    0  0.22204969636E+02  0.40107346202E+02 -0.42421245632E+02  0.62459762865E+02  0.51100000000E-03 0.  1.
         23    2    1    0    0    0  0.10405937882E+02  0.17620109810E+02 -0.20940169373E+02  0.95721296028E+02  0.91133550392E+02 0.  0.
         11    1    3    3    0    0 -0.11799031754E+02 -0.22487236392E+02  0.21481076259E+02  0.33261533164E+02  0.51100000000E-03 0. -1.
         22    1    1    0    0    0 -0.10405937882E+02 -0.17620109810E+02  0.20940169373E+02  0.29278703972E+02  0.00000000000E+00 0.  1.
</event>
<event>
 5    1  0.3183396E-003  0.9118800E+02  0.7818608E-02  0.1130116E+00
         25   -1    0    0    0    0  0.00000000000E+00  0.00000000000E+00  0.99999998245E-14  0.12500000000E+03  0.12500000000E+03 0.  0.
        -11    1    3    3    0    0  0.36359513831E+02  0.38269359990E+01  0.56818440002E+01  0.36999230217E+02  0.51100000000E-03 0. -1.
         23    2    1    0    0    0 -0.98357073851E+01 -0.22981712391E+02 -0.16728611029E+02  0.94920992850E+02  0.90029152015E+02 0.  0.
         11    1    3    3    0    0 -0.46195221216E+02 -0.26808648390E+02 -0.22410455029E+02  0.57921762633E+02  0.51100000000E-03 0.  1.
         22    1    1    0    0    0  0.98357073851E+01  0.22981712391E+02  0.16728611029E+02  0.30079007150E+02  0.00000000000E+00 0.  1.
</event>
<event>
 5    1  0.3183396E-003  0.9118800E+02  0.7818608E-02  0.1130116E+00
         25   -1    0    0    0    0  0.00000000000E+00  0.00000000000E+00  0.99999998245E-14  0.12500000000E+03  0.12500000000E+03 0.  0.
        -11    1    3    3    0    0  0.67393938628E+01 -0.29918013687E+02  0.15564405141E+02  0.34391244238E+02  0.51100000000E-03 0.  1.
         23    2    1    0    0    0 -0.26724693920E+01  0.16362646899E+02 -0.23882950799E+02  0.95926409836E+02  0.91414454322E+02 0.  0.
         11    1    3    3    0    0 -0.94118632548E+01  0.46280660585E+02 -0.39447355940E+02  0.61535165597E+02  0.51100000000E-03 0. -1.
         22    1    1    0    0    0  0.26724693920E+01 -0.16362646899E+02  0.23882950799E+02  0.29073590164E+02  0.00000000000E+00 0. -1.
</event>
<event>
 5    1  0.3183396E-003  0.9118800E+02  0.7818608E-02  0.1130116E+00
         25   -1    0    0    0    0  0.00000000000E+00  0.00000000000E+00  0.99999998245E-14  0.12500000000E+03  0.12500000000E+03 0.  0.
        -11    1    3    3    0    0  0.47977035686E+01  0.31972543673E+02  0.14467609533E+02  0.35419955312E+02  0.51100000000E-03 0. -1.
         23    2    1    0    0    0 -0.12334495545E+02 -0.25325812620E+02  0.87752982722E+01  0.95495044061E+02  0.90822689980E+02 0.  0.
         11    1    3    3    0    0 -0.17132199114E+02 -0.57298356293E+02 -0.56923112609E+01  0.60075088748E+02  0.51100000000E-03 0.  1.
         22    1    1    0    0    0  0.12334495545E+02  0.25325812620E+02 -0.87752982722E+01  0.29504955939E+02  0.00000000000E+00 0.  1.
</event>
<event>
 5    1  0.3183396E-003  0.9118800E+02  0.7818608E-02  0.1130116E+00
         25   -1    0    0    0    0  0.00000000000E+00  0.00000000000E+00  0.99999998245E-14  0.12500000000E+03  0.12500000000E+03 0.  0.
        -11    1    3    3    0    0  0.57229579665E+02 -0.42612014394E+01 -0.18333474133E+01  0.57417277795E+02  0.51100000000E-03 0.  1.
         23    2    1    0    0    0  0.21875931997E+02  0.21939972527E+01  0.16261694632E+02  0.97653835059E+02  0.93746780024E+02 0.  0.
         11    1    3    3    0    0 -0.35353647668E+02  0.64551986921E+01  0.18095042045E+02  0.40236557265E+02  0.51100000000E-03 0. -1.
         22    1    1    0    0    0 -0.21875931997E+02 -0.21939972527E+01 -0.16261694632E+02  0.27346164941E+02  0.00000000000E+00 0.  1.
</event>
<event>
 5    1  0.3183396E-003  0.9118800E+02  0.7818608E-02  0.1130116E+00
         25   -1    0    0    0    0  0.00000000000E+00  0.00000000000E+00  0.99999998245E-14  0.12500000000E+03  0.12500000000E+03 0.  0.
        -11    1    3    3    0    0  0.41597868512E+02 -0.59445438003E+01  0.88300314084E+01  0.42938208168E+02  0.51100000000E-03 0.  1.
         23    2    1    0    0    0 -0.73616582236E+01  0.70293710539E+01  0.26524586329E+02  0.96589442999E+02  0.92316633115E+02 0.  0.
         11    1    3    3    0    0 -0.48959526735E+02  0.12973914854E+02  0.17694554920E+02  0.53651234831E+02  0.51100000000E-03 0. -1.
         22    1    1    0    0    0  0.73616582236E+01 -0.70293710539E+01 -0.26524586329E+02  0.28410557001E+02  0.00000000000E+00 0.  1.
</event>
<event>
 5    1  0.3183396E-003  0.9118800E+02  0.7818608E-02  0.1130116E+00
         25   -1    0    0    0    0  0.00000000000E+00  0.00000000000E+00  0.99999998245E-14  0.12500000000E+03  0.12500000000E+03 0.  0.
        -11    1    3    3    0    0 -0.47841557339E+02  0.39141233994E+01  0.39841425380E+02  0.62381681183E+02  0.51100000000E-03 0. -1.
         23    2    1    0    0    0 -0.24922042342E+02 -0.47342472046E+00  0.19206378224E+02  0.93532281781E+02  0.88079909430E+02 0.  0.
         11    1    3    3    0    0  0.22919514997E+02 -0.43875481199E+01 -0.20635047157E+02  0.31150600598E+02  0.51100000000E-03 0.  1.
         22    1    1    0    0    0  0.24922042342E+02  0.47342472046E+00 -0.19206378224E+02  0.31467718219E+02  0.00000000000E+00 0. -1.
</event>
<event>
 5    1  0.3183396E-003  0.9118800E+02  0.7818608E-02  0.1130116E+00
         25   -1    0    0    0    0  0.00000000000E+00  0.00000000000E+00  0.99999998245E-14  0.12500000000E+03  0.12500000000E+03 0.  0.
        -11    1    3    3    0    0 -0.30787952796E+02 -0.37269141253E+02  0.36413443282E+02  0.60521283686E+02  0.51100000000E-03 0.  1.
         23    2    1    0    0    0 -0.17703556527E+02 -0.25912094446E+02  0.10088922593E+02  0.92035793482E+02  0.85929903820E+02 0.  0.
         11    1    3    3    0    0  0.13084396270E+02  0.11357046807E+02 -0.26324520689E+02  0.31514509796E+02  0.51100000000E-03 0. -1.
         22    1    1    0    0    0  0.17703556527E+02  0.25912094446E+02 -0.10088922593E+02  0.32964206518E+02  0.00000000000E+00 0.  1.
</event>
<event>
 5    1  0.3183396E-003  0.9118800E+02  0.7818608E-02  0.1130116E+00
         25   -1    0    0    0    0  0.00000000000E+00  0.00000000000E+00  0.99999998245E-14  0.12500000000E+03  0.12500000000E+03 0.  0.
        -11    1    3    3    0    0 -0.18115361113E+02  0.51563415984E+02  0.23111235532E+01  0.54701859827E+02  0.51100000000E-03 0. -1.
         23    2    1    0    0    0  0.13490574504E+02  0.24388298793E+02 -0.39456746173E+01  0.96851233301E+02  0.92670428538E+02 0.  0.
         11    1    3    3    0    0  0.31605935618E+02 -0.27175117191E+02 -0.62567981705E+01  0.42149373474E+02  0.51100000000E-03 0.  1.
         22    1    1    0    0    0 -0.13490574504E+02 -0.24388298793E+02  0.39456746173E+01  0.28148766699E+02  0.00000000000E+00 0. -1.
</event>
<event>
 5    1  0.3183396E-003  0.9118800E+02  0.7818608E-02  0.1130116E+00
         25   -1    0    0    0    0  0.00000000000E+00  0.00000000000E+00  0.99999998245E-14  0.12500000000E+03  0.12500000000E+03 0.  0.
        -11    1    3    3    0    0 -0.89123440537E+01 -0.81215597772E+01  0.15715319567E+02  0.19808101350E+02  0.51100000000E-03 0. -1.
         23    2    1    0    0    0  0.36588851555E+02 -0.14323750772E+02 -0.22649376837E+02  0.79646850546E+02  0.65472991657E+02 0.  0.
         11    1    3    3    0    0  0.45501195609E+02 -0.62021909950E+01 -0.38364696403E+02  0.59838749196E+02  0.51100000000E-03 0.  1.
         22    1    1    0    0    0 -0.36588851555E+02  0.14323750772E+02  0.22649376837E+02  0.45353149454E+02  0.00000000000E+00 0.  1.
</event>
<event>
 5    1  0.3183396E-003  0.9118800E+02  0.7818608E-02  0.1130116E+00
         25   -1    0    0    0    0  0.00000000000E+00  0.00000000000E+00  0.99999998245E-14  0.12500000000E+03  0.12500000000E+03 0.  0.
        -11    1    3    3    0    0  0.54867841814E+02 -0.10153116169E+02  0.72583229793E+01  0.56269432963E+02  0.51100000000E-03 0. -1.
         23    2    1    0    0    0  0.10567455222E+02  0.10501811463E+02  0.12664276747E+02  0.10544640546E+03  0.10361757267E+03 0.  0.
         11    1    3    3    0    0 -0.44300386592E+02  0.20654927632E+02  0.54059537674E+01  0.49176972498E+02  0.51100000000E-03 0.  1.
         22    1    1    0    0    0 -0.10567455222E+02 -0.10501811463E+02 -0.12664276747E+02  0.19553594539E+02  0.00000000000E+00 0. -1.
</event>
<event>
 5    1  0.3183396E-003  0.9118800E+02  0.7818608E-02  0.1130116E+00
         25   -1    0    0    0    0  0.00000000000E+00  0.00000000000E+00  0.99999998245E-14  0.12500000000E+03  0.12500000000E+03 0.  0.
        -11    1    3    3    0    0  0.12190382149E+02  0.53978711796E+02  0.28981783689E+02  0.62467996047E+02  0.51100000000E-03 0.  1.
         23    2    1    0    0    0  0.55782186201E+01  0.25926293555E+02  0.15455043220E+02  0.94305577357E+02  0.89170591224E+02 0.  0.
         11    1    3    3    0    0 -0.66121635284E+01 -0.28052418241E+02 -0.13526740469E+02  0.31837581310E+02  0.51100000000E-03 0. -1.
         22    1    1    0    0    0 -0.55782186201E+01 -0.25926293555E+02 -0.15455043220E+02  0.30694422643E+02  0.00000000000E+00 0.  1.
</event>
<event>
 5    1  0.3183396E-003  0.9118800E+02  0.7818608E-02  0.1130116E+00
         25   -1    0    0    0    0  0.00000000000E+00  0.00000000000E+00  0.99999998245E-14  0.12500000000E+03  0.12500000000E+03 0.  0.
        -11    1    3    3    0    0  0.11522331474E+02  0.14229358818E+02  0.56005073723E+02  0.58922042208E+02  0.51100000000E-03 0. -1.
         23    2    1    0    0    0 -0.67611553670E+01  0.15244841488E+02  0.24486946907E+02  0.95373508768E+02  0.90655265661E+02 0.  0.
         11    1    3    3    0    0 -0.18283486841E+02  0.10154826703E+01 -0.31518126816E+02  0.36451466560E+02  0.51100000000E-03 0.  1.
         22    1    1    0    0    0  0.67611553670E+01 -0.15244841488E+02 -0.24486946907E+02  0.29626491232E+02  0.00000000000E+00 0. -1.
</event>
<event>
 5    1  0.3183396E-003  0.9118800E+02  0.7818608E-02  0.1130116E+00
         25   -1    0    0    0    0  0.00000000000E+00  0.00000000000E+00  0.99999998245E-14  0.12500000000E+03  0.12500000000E+03 0.  0.
        -11    1    3    3    0    0  0.55878474608E+02 -0.22664051186E+02  0.43446248410E+01  0.60456090727E+02  0.51100000000E-03 0.  1.
         23    2    1    0    0    0  0.18737618280E+02 -0.19448091344E+02  0.37014957806E+01  0.97741466166E+02  0.93863552786E+02 0.  0.
         11    1    3    3    0    0 -0.37140856327E+02  0.32159598424E+01 -0.64312906043E+00  0.37285375440E+02  0.51100000000E-03 0. -1.
         22    1    1    0    0    0 -0.18737618280E+02  0.19448091344E+02 -0.37014957806E+01  0.27258533834E+02  0.00000000000E+00 0.  1.
</event>
<event>
 5    1  0.3183396E-003  0.9118800E+02  0.7818608E-02  0.1130116E+00
         25   -1    0    0    0    0  0.00000000000E+00  0.00000000000E+00  0.99999998245E-14  0.12500000000E+03  0.12500000000E+03 0.  0.
        -11    1    3    3    0    0 -0.29051345255E+02  0.51185492377E+02 -0.10715047280E+02  0.59822633923E+02  0.51100000000E-03 0. -1.
         23    2    1    0    0    0 -0.11388391937E+02  0.26216541301E+02  0.75372321338E+01  0.95439682395E+02  0.90746463285E+02 0.  0.
         11    1    3    3    0    0  0.17662953318E+02 -0.24968951076E+02  0.18252279414E+02  0.35617048472E+02  0.51100000000E-03 0.  1.
         22    1    1    0    0    0  0.11388391937E+02 -0.26216541301E+02 -0.75372321338E+01  0.29560317605E+02  0.00000000000E+00 0. -1.
</event>
<event>
 5    1  0.3183396E-003  0.9118800E+02  0.7818608E-02  0.1130116E+00
         25   -1    0    0    0    0  0.00000000000E+00  0.00000000000E+00  0.99999998245E-14  0.12500000000E+03  0.12500000000E+03 0.  0.
        -11    1    3    3    0    0 -0.44098246585E+02 -0.19314113595E+02  0.26587810753E+02  0.54996381851E+02  0.51100000000E-03 0. -1.
         23    2    1    0    0    0 -0.86719887938E+01 -0.22865639466E+00  0.28427195789E+02  0.95278608145E+02  0.90524317375E+02 0.  0.
         11    1    3    3    0    0  0.35426257791E+02  0.19085457200E+02  0.18393850360E+01  0.40282226294E+02  0.51100000000E-03 0.  1.
         22    1    1    0    0    0  0.86719887938E+01  0.22865639466E+00 -0.28427195789E+02  0.29721391855E+02  0.00000000000E+00 0. -1.
</event>
<event>
 5    1  0.3183396E-003  0.9118800E+02  0.7818608E-02  0.1130116E+00
         25   -1    0    0    0    0  0.00000000000E+00  0.00000000000E+00  0.99999998245E-14  0.12500000000E+03  0.12500000000E+03 0.  0.
        -11    1    3    3    0    0 -0.32421996323E+02 -0.12726596698E+02 -0.43364105539E+02  0.55620120087E+02  0.51100000000E-03 0. -1.
         23    2    1    0    0    0 -0.98933599330E+01 -0.24300163261E+02 -0.11423231165E+02  0.96384152721E+02  0.92038243031E+02 0.  0.
         11    1    3    3    0    0  0.22528636390E+02 -0.11573566562E+02  0.31940874374E+02  0.40764032634E+02  0.51100000000E-03 0.  1.
         22    1    1    0    0    0  0.98933599330E+01  0.24300163261E+02  0.11423231165E+02  0.28615847279E+02  0.00000000000E+00 0. -1.
</event>
<event>
 5    1  0.3183396E-003  0.9118800E+02  0.7818608E-02  0.1130116E+00
         25   -1    0    0    0    0  0.00000000000E+00  0.00000000000E+00  0.99999998245E-14  0.12500000000E+03  0.12500000000E+03 0.  0.
        -11    1    3    3    0    0 -0.27208087518E+02 -0.25545658644E+02 -0.10043195638E+02  0.38648757817E+02  0.51100000000E-03 0.  1.
         23    2    1    0    0    0  0.25443982992E+01  0.92234419768E+01  0.26253565165E+02  0.97057281298E+02  0.92947944165E+02 0.  0.
         11    1    3    3    0    0  0.29752485817E+02  0.34769100621E+02  0.36296760802E+02  0.58408523481E+02  0.51100000000E-03 0. -1.
         22    1    1    0    0    0 -0.25443982992E+01 -0.92234419768E+01 -0.26253565165E+02  0.27942718702E+02  0.00000000000E+00 0. -1.
</event>
<event>
 5    1  0.3183396E-003  0.9118800E+02  0.7818608E-02  0.1130116E+00
         25   -1    0    0    0    0  0.00000000000E+00  0.00000000000E+00  0.99999998245E-14  0.12500000000E+03  0.12500000000E+03 0.  0.
        -11    1    3    3    0    0  0.36941834290E+02 -0.78798530729E+01  0.52540591534E+01  0.38136548651E+02  0.51100000000E-03 0.  1.
         23    2    1    0    0    0 -0.17527832509E+02 -0.13482239166E+02  0.20362419550E+02  0.94939663753E+02  0.90055071696E+02 0.  0.
         11    1    3    3    0    0 -0.54469666799E+02 -0.56023860931E+01  0.15108360396E+02  0.56803115102E+02  0.51100000000E-03 0. -1.
         22    1    1    0    0    0  0.17527832509E+02  0.13482239166E+02 -0.20362419550E+02  0.30060336247E+02  0.00000000000E+00 0. -1.
</event>
<event>
 5    1  0.3183396E-003  0.9118800E+02  0.7818608E-02  0.1130116E+00
         25   -1    0    0    0    0  0.00000000000E+00  0.00000000000E+00  0.99999998245E-14  0.12500000000E+03  0.12500000000E+03 0.  0.
        -11    1    3    3    0    0 -0.27625117410E+02 -0.53480022777E+02 -0.10765319079E+02  0.61148606225E+02  0.51100000000E-03 0. -1.
         23    2    1    0    0    0 -0.21511334251E+02 -0.21652757531E+02 -0.56762957264E+01  0.93954875695E+02  0.88677612303E+02 0.  0.
         11    1    3    3    0    0  0.61137831591E+01  0.31827265246E+02  0.50890233527E+01  0.32806269470E+02  0.51100000000E-03 0.  1.
         22    1    1    0    0    0  0.21511334251E+02  0.21652757531E+02  0.56762957264E+01  0.31045124305E+02  0.00000000000E+00 0. -1.
</event>
<event>
 5    1  0.3183396E-003  0.9118800E+02  0.7818608E-02  0.1130116E+00
         25   -1    0    0    0    0  0.00000000000E+00  0.00000000000E+00  0.99999998245E-14  0.12500000000E+03  0.12500000000E+03 0.  0.
        -11    1    3    3    0    0 -0.22081432764E+02  0.31181034132E+02 -0.72699068970E+01  0.38893419868E+02  0.51100000000E-03 0. -1.
         23    2    1    0    0    0  0.12303372122E+02 -0.18718895997E+02  0.76975148494E+01  0.10131410192E+03  0.98506474307E+02 0.  0.
         11    1    3    3    0    0  0.34384804887E+02 -0.49899930129E+02  0.14967421746E+02  0.62420682053E+02  0.51100000000E-03 0.  1.
         22    1    1    0    0    0 -0.12303372122E+02  0.18718895997E+02 -0.76975148494E+01  0.23685898079E+02  0.00000000000E+00 0.  1.
</event>
<event>
 5    1  0.3183396E-003  0.9118800E+02  0.7818608E-02  0.1130116E+00
         25   -1    0    0    0    0  0.00000000000E+00  0.00000000000E+00  0.99999998245E-14  0.12500000000E+03  0.12500000000E+03 0.  0.
        -11    1    3    3    0    0 -0.37885997188E+02 -0.32022160375E+02 -0.16072467706E+01  0.49632154702E+02  0.51100000000E-03 0. -1.
         23    2    1    0    0    0  0.21931034464E+01 -0.19341603260E+02 -0.21378886491E+02  0.96086956110E+02  0.91633722109E+02 0.  0.
         11    1    3    3    0    0  0.40079100634E+02  0.12680557115E+02 -0.19771639720E+02  0.46454801408E+02  0.51100000000E-03 0.  1.
         22    1    1    0    0    0 -0.21931034464E+01  0.19341603260E+02  0.21378886491E+02  0.28913043890E+02  0.00000000000E+00 0.  1.
</event>
<event>
 5    1  0.3183396E-003  0.9118800E+02  0.7818608E-02  0.1130116E+00
         25   -1    0    0    0    0  0.00000000000E+00  0.00000000000E+00  0.99999998245E-14  0.12500000000E+03  0.12500000000E+03 0.  0.
        -11    1    3    3    0    0 -0.41543510418E+02  0.28217684942E+02 -0.30405308053E+02  0.58707612449E+02  0.51100000000E-03 0.  1.
         23    2    1    0    0    0 -0.18604746912E+02  0.57277412599E+01 -0.27967806077E+02  0.90924469126E+02  0.84297789304E+02 0.  0.
         11    1    3    3    0    0  0.22938763507E+02 -0.22489943682E+02  0.24375019762E+01  0.32216856677E+02  0.51100000000E-03 0. -1.
         22    1    1    0    0    0  0.18604746912E+02 -0.57277412599E+01  0.27967806077E+02  0.34075530874E+02  0.00000000000E+00 0.  1.
</event>
<event>
 5    1  0.3183396E-003  0.9118800E+02  0.7818608E-02  0.1130116E+00
         25   -1    0    0    0    0  0.00000000000E+00  0.00000000000E+00  0.99999998245E-14  0.12500000000E+03  0.12500000000E+03 0.  0.
        -11    1    3    3    0    0 -0.34896865162E+02  0.42650509696E+02 -0.80719332322E+01  0.55695720498E+02  0.51100000000E-03 0.  1.
         23    2    1    0    0    0 -0.10137601830E+02  0.22208496582E+02  0.15987987543E+02  0.95817744485E+02  0.91265744511E+02 0.  0.
         11    1    3    3    0    0  0.24759263332E+02 -0.20442013114E+02  0.24059920775E+02  0.40122023987E+02  0.51100000000E-03 0. -1.
         22    1    1    0    0    0  0.10137601830E+02 -0.22208496582E+02 -0.15987987543E+02  0.29182255515E+02  0.00000000000E+00 0.  1.
</event>
<event>
 5    1  0.3183396E-003  0.9118800E+02  0.7818608E-02  0.1130116E+00
         25   -1    0    0    0    0  0.00000000000E+00  0.00000000000E+00  0.99999998245E-14  0.12500000000E+03  0.12500000000E+03 0.  0.
        -11    1    3    3    0    0 -0.15611728346E+01 -0.35328310909E+02  0.13451463118E+02  0.37834754824E+02  0.51100000000E-03 0.  1.
         23    2    1    0    0    0 -0.24986113598E+02  0.13583829739E+02 -0.68578529973E+01  0.95744975631E+02  0.91166023867E+02 0.  0.
         11    1    3    3    0    0 -0.23424940763E+02  0.48912140648E+02 -0.20309316116E+02  0.57910220807E+02  0.51100000000E-03 0. -1.
         22    1    1    0    0    0  0.24986113598E+02 -0.13583829739E+02  0.68578529973E+01  0.29255024369E+02  0.00000000000E+00 0. -1.
</event>
<event>
 5    1  0.3183396E-003  0.9118800E+02  0.7818608E-02  0.1130116E+00
         25   -1    0    0    0    0  0.00000000000E+00  0.00000000000E+00  0.99999998245E-14  0.12500000000E+03  0.12500000000E+03 0.  0.
        -11    1    3    3    0    0  0.14413817240E+02 -0.34847820136E+02  0.48315747780E+02  0.61290620648E+02  0.51100000000E-03 0. -1.
         23    2    1    0    0    0 -0.82007384332E+00 -0.20262174708E+02  0.20916721364E+02  0.95866900652E+02  0.91333045296E+02 0.  0.
         11    1    3    3    0    0 -0.15233891084E+02  0.14585645428E+02 -0.27399026416E+02  0.34576280004E+02  0.51100000000E-03 0.  1.
         22    1    1    0    0    0  0.82007384332E+00  0.20262174708E+02 -0.20916721364E+02  0.29133099348E+02  0.00000000000E+00 0. -1.
</event>
<event>
 5    1  0.3183396E-003  0.9118800E+02  0.7818608E-02  0.1130116E+00
         25   -1    0    0    0    0  0.00000000000E+00  0.00000000000E+00  0.99999998245E-14  0.12500000000E+03  0.12500000000E+03 0.  0.
        -11    1    3    3    0    0  0.42748844274E+02  0.31258142394E+02 -0.28107313544E+02  0.59954618068E+02  0.51100000000E-03 0.  1.
         23    2    1    0    0    0  0.13840565903E+02  0.20663135855E+02 -0.24927461288E+01  0.10000519592E+03  0.96831291323E+02 0.  0.
         11    1    3    3    0    0 -0.28908278371E+02 -0.10595006539E+02  0.25614567415E+02  0.40050577849E+02  0.51100000000E-03 0. -1.
         22    1    1    0    0    0 -0.13840565903E+02 -0.20663135855E+02  0.24927461288E+01  0.24994804083E+02  0.00000000000E+00 0.  1.
</event>
<event>
 5    1  0.3183396E-003  0.9118800E+02  0.7818608E-02  0.1130116E+00
         25   -1    0    0    0    0  0.00000000000E+00  0.00000000000E+00  0.99999998245E-14  0.12500000000E+03  0.12500000000E+03 0.  0.
        -11    1    3    3    0    0 -0.10581656025E+02 -0.56595256688E+02 -0.27575401993E+01  0.57641986018E+02  0.51100000000E-03 0.  1.
         23    2    1    0    0    0  0.12497577814E+02 -0.25980898719E+02 -0.32709052133E+01  0.95984566686E+02  0.91493943360E+02 0.  0.
         11    1    3    3    0    0  0.23079233838E+02  0.30614357969E+02 -0.51336501398E+00  0.38342580668E+02  0.51100000000E-03 0. -1.
         22    1    1    0    0    0 -0.12497577814E+02  0.25980898719E+02  0.32709052133E+01  0.29015433314E+02  0.00000000000E+00 0.  1.
</event>
<event>
 5    1  0.3183396E-003  0.9118800E+02  0.7818608E-02  0.1130116E+00
         25   -1    0    0    0    0  0.00000000000E+00  0.00000000000E+00  0.99999998245E-14  0.12500000000E+03  0.12500000000E+03 0.  0.
        -11    1    3    3    0    0 -0.18301029170E+02  0.30166023799E+02  0.39094836150E+02  0.52662347787E+02  0.51100000000E-03 0. -1.
         23    2    1    0    0    0 -0.91208746835E+01  0.25292320762E+02 -0.47279399825E+01  0.97700819408E+02  0.93809407055E+02 0.  0.
         11    1    3    3    0    0  0.91801544864E+01 -0.48737030375E+01 -0.43822776133E+02  0.45038471621E+02  0.51100000000E-03 0.  1.
         22    1    1    0    0    0  0.91208746835E+01 -0.25292320762E+02  0.47279399825E+01  0.27299180592E+02  0.00000000000E+00 0. -1.
</event>
<event>
 5    1  0.3183396E-003  0.9118800E+02  0.7818608E-02  0.1130116E+00
         25   -1    0    0    0    0  0.00000000000E+00  0.00000000000E+00  0.99999998245E-14  0.12500000000E+03  0.12500000000E+03 0.  0.
        -11    1    3    3    0    0  0.38692756886E+02 -0.33435173757E+02 -0.25308164669E+02  0.57057370065E+02  0.51100000000E-03 0. -1.
         23    2    1    0    0    0  0.73636836132E+01 -0.28330203767E+02 -0.36109729514E+01  0.95506553143E+02  0.90838528642E+02 0.  0.
         11    1    3    3    0    0 -0.31329073273E+02  0.51049699898E+01  0.21697191717E+02  0.38449183078E+02  0.51100000000E-03 0.  1.
         22    1    1    0    0    0 -0.73636836132E+01  0.28330203767E+02  0.36109729514E+01  0.29493446857E+02  0.00000000000E+00 0. -1.
</event>
<event>
 5    1  0.3183396E-003  0.9118800E+02  0.7818608E-02  0.1130116E+00
         25   -1    0    0    0    0  0.00000000000E+00  0.00000000000E+00  0.99999998245E-14  0.12500000000E+03  0.12500000000E+03 0.  0.
        -11    1    3    3    0    0  0.86602307082E+01  0.16794709825E+02  0.50283773458E+02  0.53717034053E+02  0.51100000000E-03 0.  1.
         23    2    1    0    0    0 -0.17951983530E+02 -0.98824668987E+00  0.23224905124E+02  0.95629154554E+02  0.91007080156E+02 0.  0.
         11    1    3    3    0    0 -0.26612214239E+02 -0.17782956515E+02 -0.27058868334E+02  0.41912120501E+02  0.51100000000E-03 0. -1.
         22    1    1    0    0    0  0.17951983530E+02  0.98824668987E+00 -0.23224905124E+02  0.29370845446E+02  0.00000000000E+00 0.  1.
</event>
<event>
 5    1  0.3183396E-003  0.9118800E+02  0.7818608E-02  0.1130116E+00
         25   -1    0    0    0    0  0.00000000000E+00  0.00000000000E+00  0.99999998245E-14  0.12500000000E+03  0.12500000000E+03 0.  0.
        -11    1    3    3    0    0  0.30023193896E+02 -0.35840199553E+02 -0.83274763779E+01  0.47489566631E+02  0.51100000000E-03 0. -1.
         23    2    1    0    0    0  0.32970343497E+02 -0.31754487644E+01 -0.24251168082E+02  0.83948249995E+02  0.73226105309E+02 0.  0.
         11    1    3    3    0    0  0.29471496008E+01  0.32664750789E+02 -0.15923691704E+02  0.36458683364E+02  0.51100000000E-03 0.  1.
         22    1    1    0    0    0 -0.32970343497E+02  0.31754487644E+01  0.24251168082E+02  0.41051750005E+02  0.00000000000E+00 0.  1.
</event>
<event>
 5    1  0.3183396E-003  0.9118800E+02  0.7818608E-02  0.1130116E+00
         25   -1    0    0    0    0  0.00000000000E+00  0.00000000000E+00  0.99999998245E-14  0.12500000000E+03  0.12500000000E+03 0.  0.
        -11    1    3    3    0    0 -0.23452803962E+02  0.57797321160E+02  0.81617824257E+00  0.62379728231E+02  0.51100000000E-03 0. -1.
         23    2    1    0    0    0 -0.13395931623E+02  0.25750461647E+02  0.51918991740E+00  0.95968864692E+02  0.91472488613E+02 0.  0.
         11    1    3    3    0    0  0.10056872339E+02 -0.32046859513E+02 -0.29698832517E+00  0.33589136461E+02  0.51100000000E-03 0.  1.
         22    1    1    0    0    0  0.13395931623E+02 -0.25750461647E+02 -0.51918991740E+00  0.29031135308E+02  0.00000000000E+00 0. -1.
</event>
<event>
 5    1  0.3183396E-003  0.9118800E+02  0.7818608E-02  0.1130116E+00
         25   -1    0    0    0    0  0.00000000000E+00  0.00000000000E+00  0.99999998245E-14  0.12500000000E+03  0.12500000000E+03 0.  0.
        -11    1    3    3    0    0 -0.17788753648E+02 -0.37974868146E+02 -0.33912393404E+02  0.53931259894E+02  0.51100000000E-03 0. -1.
         23    2    1    0    0    0 -0.27068578838E+02 -0.43099408761E+01 -0.12684695912E+02  0.94797598423E+02  0.89857663033E+02 0.  0.
         11    1    3    3    0    0 -0.92798251896E+01  0.33664927270E+02  0.21227697492E+02  0.40866338529E+02  0.51100000000E-03 0.  1.
         22    1    1    0    0    0  0.27068578838E+02  0.43099408761E+01  0.12684695912E+02  0.30202401577E+02  0.00000000000E+00 0. -1.
</event>
<event>
 5    1  0.3183396E-003  0.9118800E+02  0.7818608E-02  0.1130116E+00
         25   -1    0    0    0    0  0.00000000000E+00  0.00000000000E+00  0.99999998245E-14  0.12500000000E+03  0.12500000000E+03 0.  0.
        -11    1    3    3    0    0  0.43268639129E+02 -0.76358903163E+01 -0.43614110185E+02  0.61908582284E+02  0.51100000000E-03 0.  1.
         23    2    1    0    0    0  0.22553461112E+02 -0.73894428246E+01 -0.16221923272E+02  0.96252595455E+02  0.91859397254E+02 0.  0.
         11    1    3    3    0    0 -0.20715178016E+02  0.24644749168E+00  0.27392186912E+02  0.34344013171E+02  0.51100000000E-03 0. -1.
         22    1    1    0    0    0 -0.22553461112E+02  0.73894428246E+01  0.16221923272E+02  0.28747404545E+02  0.00000000000E+00 0.  1.
</event>
<event>
 5    1  0.3183396E-003  0.9118800E+02  0.7818608E-02  0.1130116E+00
         25   -1    0    0    0    0  0.00000000000E+00  0.00000000000E+00  0.99999998245E-14  0.12500000000E+03  0.12500000000E+03 0.  0.
        -11    1    3    3    0    0  0.54574963753E+02  0.10916361113E+02 -0.11155916282E+02  0.56763087275E+02  0.51100000000E-03 0.  1.
         23    2    1    0    0    0  0.25624811249E+02 -0.13455518362E+02 -0.59915275177E+00  0.96051063751E+02  0.91584747299E+02 0.  0.
         11    1    3    3    0    0 -0.28950152504E+02 -0.24371879474E+02  0.10556763530E+02  0.39287976476E+02  0.51100000000E-03 0. -1.
         22    1    1    0    0    0 -0.25624811249E+02  0.13455518362E+02  0.59915275177E+00  0.28948936249E+02  0.00000000000E+00 0.  1.
</event>
<event>
 5    1  0.3183396E-003  0.9118800E+02  0.7818608E-02  0.1130116E+00
         25   -1    0    0    0    0  0.00000000000E+00  0.00000000000E+00  0.99999998245E-14  0.12500000000E+03  0.12500000000E+03 0.  0.
        -11    1    3    3    0    0 -0.35402811607E+02  0.62199279281E+01  0.34390411146E+01  0.36109189650E+02  0.51100000000E-03 0.  1.
         23    2    1    0    0    0  0.15388576475E+02 -0.28381323598E+00 -0.25713368971E+02  0.95032247670E+02  0.90183490271E+02 0.  0.
         11    1    3    3    0    0  0.50791388082E+02 -0.65037411641E+01 -0.29152410085E+02  0.58923058020E+02  0.51100000000E-03 0. -1.
         22    1    1    0    0    0 -0.15388576475E+02  0.28381323598E+00  0.25713368971E+02  0.29967752330E+02  0.00000000000E+00 0. -1.
</event>
