<event>
 5    1  0.1262391E-009  0.9118800E+02  0.7815553E-02  0.1125453E+00
         25   -1    0    0    0    0  0.00000000000E+00  0.00000000000E+00  0.99999998245E-14  0.12509000000E+03  0.12509000000E+03 0.  0.
        -13    1    3    3    0    0  0.29049357717E+02 -0.21705485702E+02 -0.50020666129E+02  0.61782452989E+02  0.10566000000E+00 0. -1.
         23    2    1    0    0    0  0.14453261108E+02 -0.15991368769E+02 -0.19824957242E+02  0.95804345467E+02  0.91218545532E+02 0.  0.
         13    1    3    3    0    0 -0.14596096609E+02  0.57141169331E+01  0.30195708887E+02  0.34021892478E+02  0.10566000000E+00 0.  1.
         22    1    1    0    0    0 -0.14453261108E+02  0.15991368769E+02  0.19824957242E+02  0.29285654533E+02  0.00000000000E+00 0. -1.
</event>
<event>
 5    1  0.1262391E-009  0.9118800E+02  0.7815553E-02  0.1125453E+00
         25   -1    0    0    0    0  0.00000000000E+00  0.00000000000E+00  0.99999998245E-14  0.12509000000E+03  0.12509000000E+03 0.  0.
        -13    1    3    3    0    0 -0.21188592672E+02 -0.54164697788E+02 -0.14205237411E+02  0.59871285938E+02  0.10566000000E+00 0. -1.
         23    2    1    0    0    0 -0.13532496924E+02 -0.18015527781E+02 -0.16905743892E+02  0.96921011897E+02  0.92737212899E+02 0.  0.
         13    1    3    3    0    0  0.76560957475E+01  0.36149170008E+02 -0.27005064815E+01  0.37049725959E+02  0.10566000000E+00 0.  1.
         22    1    1    0    0    0  0.13532496924E+02  0.18015527781E+02  0.16905743892E+02  0.28168988103E+02  0.00000000000E+00 0. -1.
</event>
<event>
 5    1  0.1262391E-009  0.9118800E+02  0.7815553E-02  0.1125453E+00
         25   -1    0    0    0    0  0.00000000000E+00  0.00000000000E+00  0.99999998245E-14  0.12509000000E+03  0.12509000000E+03 0.  0.
        -13    1    3    3    0    0  0.89652036244E+01 -0.16785576912E+02 -0.55159513724E+02  0.58349923622E+02  0.10566000000E+00 0.  1.
         23    2    1    0    0    0 -0.10104303645E+02 -0.82125784862E+00 -0.28650448798E+02  0.94698888916E+02  0.89689798355E+02 0.  0.
         13    1    3    3    0    0 -0.19069507269E+02  0.15964319063E+02  0.26509064926E+02  0.36348965294E+02  0.10566000000E+00 0. -1.
         22    1    1    0    0    0  0.10104303645E+02  0.82125784862E+00  0.28650448798E+02  0.30391111084E+02  0.00000000000E+00 0.  1.
</event>
<event>
 5    1  0.1262391E-009  0.9118800E+02  0.7815553E-02  0.1125453E+00
         25   -1    0    0    0    0  0.00000000000E+00  0.00000000000E+00  0.99999998245E-14  0.12509000000E+03  0.12509000000E+03 0.  0.
        -13    1    3    3    0    0  0.25579606591E+02  0.43314507614E+02 -0.31971008818E+02  0.59603854003E+02  0.10566000000E+00 0.  1.
         23    2    1    0    0    0  0.23018349244E+02  0.12949954946E+02 -0.11696732990E+02  0.96204721784E+02  0.91765947911E+02 0.  0.
         13    1    3    3    0    0 -0.25612573473E+01 -0.30364552668E+02  0.20274275828E+02  0.36600867781E+02  0.10566000000E+00 0. -1.
         22    1    1    0    0    0 -0.23018349244E+02 -0.12949954946E+02  0.11696732990E+02  0.28885278216E+02  0.00000000000E+00 0.  1.
</event>
<event>
 5    1  0.1262391E-009  0.9118800E+02  0.7815553E-02  0.1125453E+00
         25   -1    0    0    0    0  0.00000000000E+00  0.00000000000E+00  0.99999998245E-14  0.12509000000E+03  0.12509000000E+03 0.  0.
        -13    1    3    3    0    0 -0.46498483463E+02 -0.39880181069E+02 -0.67944049176E+01  0.61633699457E+02  0.10566000000E+00 0. -1.
         23    2    1    0    0    0 -0.39362402704E+02 -0.25517661847E+02 -0.69209848848E+01  0.77672177986E+02  0.61518431291E+02 0.  0.
         13    1    3    3    0    0  0.71360807587E+01  0.14362519223E+02 -0.12657996722E+00  0.16038478529E+02  0.10566000000E+00 0.  1.
         22    1    1    0    0    0  0.39362402704E+02  0.25517661847E+02  0.69209848848E+01  0.47417822014E+02  0.00000000000E+00 0. -1.
</event>
<event>
 5    1  0.1262391E-009  0.9118800E+02  0.7815553E-02  0.1125453E+00
         25   -1    0    0    0    0  0.00000000000E+00  0.00000000000E+00  0.99999998245E-14  0.12509000000E+03  0.12509000000E+03 0.  0.
        -13    1    3    3    0    0 -0.62142603524E+01  0.32306528171E+02 -0.94616099832E+01  0.34232470283E+02  0.10566000000E+00 0.  1.
         23    2    1    0    0    0 -0.72017900885E+01 -0.28248984909E+02 -0.81875602898E+01  0.94809526550E+02  0.89843971708E+02 0.  0.
         13    1    3    3    0    0 -0.98752973613E+00 -0.60555513080E+02  0.12740496935E+01  0.60577056267E+02  0.10566000000E+00 0. -1.
         22    1    1    0    0    0  0.72017900885E+01  0.28248984909E+02  0.81875602898E+01  0.30280473450E+02  0.00000000000E+00 0. -1.
</event>
<event>
 5    1  0.1262391E-009  0.9118800E+02  0.7815553E-02  0.1125453E+00
         25   -1    0    0    0    0  0.00000000000E+00  0.00000000000E+00  0.99999998245E-14  0.12509000000E+03  0.12509000000E+03 0.  0.
        -13    1    3    3    0    0 -0.37126007600E+02  0.48974548289E+01  0.33485852657E+02  0.50235833787E+02  0.10566000000E+00 0. -1.
         23    2    1    0    0    0 -0.36143207040E+02 -0.10831851614E+02 -0.12507398585E+00  0.87358367806E+02  0.78789646259E+02 0.  0.
         13    1    3    3    0    0  0.98280055915E+00 -0.15729306442E+02 -0.33610926643E+02  0.37122534018E+02  0.10566000000E+00 0.  1.
         22    1    1    0    0    0  0.36143207040E+02  0.10831851614E+02  0.12507398585E+00  0.37731632194E+02  0.00000000000E+00 0. -1.
</event>
<event>
 5    1  0.1262391E-009  0.9118800E+02  0.7815553E-02  0.1125453E+00
         25   -1    0    0    0    0  0.00000000000E+00  0.00000000000E+00  0.99999998245E-14  0.12509000000E+03  0.12509000000E+03 0.  0.
        -13    1    3    3    0    0  0.17128818115E+02 -0.44290315735E+02 -0.36661442005E+02  0.59992507630E+02  0.10566000000E+00 0.  1.
         23    2    1    0    0    0  0.16717049998E+02 -0.13864381464E+02 -0.23336201392E+02  0.93211180551E+02  0.87590325095E+02 0.  0.
         13    1    3    3    0    0 -0.41176811695E+00  0.30425934271E+02  0.13325240612E+02  0.33218672921E+02  0.10566000000E+00 0. -1.
         22    1    1    0    0    0 -0.16717049998E+02  0.13864381464E+02  0.23336201392E+02  0.31878819449E+02  0.00000000000E+00 0.  1.
</event>
<event>
 5    1  0.1262391E-009  0.9118800E+02  0.7815553E-02  0.1125453E+00
         25   -1    0    0    0    0  0.00000000000E+00  0.00000000000E+00  0.99999998245E-14  0.12509000000E+03  0.12509000000E+03 0.  0.
        -13    1    3    3    0    0  0.59339100192E+02 -0.36760442074E+00  0.29557732960E+01  0.59413901609E+02  0.10566000000E+00 0.  1.
         23    2    1    0    0    0  0.25605750274E+02  0.93011343231E+01  0.11481712126E+02  0.95526589166E+02  0.90836853631E+02 0.  0.
         13    1    3    3    0    0 -0.33733349918E+02  0.96687387438E+01  0.85259388303E+01  0.36112687557E+02  0.10566000000E+00 0. -1.
         22    1    1    0    0    0 -0.25605750274E+02 -0.93011343231E+01 -0.11481712126E+02  0.29563410834E+02  0.00000000000E+00 0.  1.
</event>
<event>
 5    1  0.1262391E-009  0.9118800E+02  0.7815553E-02  0.1125453E+00
         25   -1    0    0    0    0  0.00000000000E+00  0.00000000000E+00  0.99999998245E-14  0.12509000000E+03  0.12509000000E+03 0.  0.
        -13    1    3    3    0    0 -0.28838331079E+02 -0.18759935416E+02 -0.47228786163E+02  0.58430761784E+02  0.10566000000E+00 0.  1.
         23    2    1    0    0    0  0.35459634816E+00 -0.75337515502E+01 -0.30035299912E+02  0.94122236249E+02  0.88881904596E+02 0.  0.
         13    1    3    3    0    0  0.29192927427E+02  0.11226183866E+02  0.17193486251E+02  0.35691474464E+02  0.10566000000E+00 0. -1.
         22    1    1    0    0    0 -0.35459634816E+00  0.75337515502E+01  0.30035299912E+02  0.30967763751E+02  0.00000000000E+00 0.  1.
</event>
<event>
 5    1  0.1262391E-009  0.9118800E+02  0.7815553E-02  0.1125453E+00
         25   -1    0    0    0    0  0.00000000000E+00  0.00000000000E+00  0.99999998245E-14  0.12509000000E+03  0.12509000000E+03 0.  0.
        -13    1    3    3    0    0  0.20510730414E+02 -0.24851097291E+02  0.95113962090E+01  0.33596799261E+02  0.10566000000E+00 0.  1.
         23    2    1    0    0    0 -0.19635390267E+02  0.10337767183E+02 -0.20534345801E+02  0.94856288042E+02  0.89909054285E+02 0.  0.
         13    1    3    3    0    0 -0.40146120681E+02  0.35188864474E+02 -0.30045742010E+02  0.61259488781E+02  0.10566000000E+00 0. -1.
         22    1    1    0    0    0  0.19635390267E+02 -0.10337767183E+02  0.20534345801E+02  0.30233711958E+02  0.00000000000E+00 0. -1.
</event>
<event>
 5    1  0.1262391E-009  0.9118800E+02  0.7815553E-02  0.1125453E+00
         25   -1    0    0    0    0  0.00000000000E+00  0.00000000000E+00  0.99999998245E-14  0.12509000000E+03  0.12509000000E+03 0.  0.
        -13    1    3    3    0    0  0.27095151154E+02  0.52330294593E+02  0.11950995236E+02  0.60128565586E+02  0.10566000000E+00 0.  1.
         23    2    1    0    0    0  0.14200075103E+02  0.24883328480E+02 -0.66154288876E+01  0.95686155549E+02  0.91056324850E+02 0.  0.
         13    1    3    3    0    0 -0.12895076051E+02 -0.27446966113E+02 -0.18566424124E+02  0.35557589963E+02  0.10566000000E+00 0. -1.
         22    1    1    0    0    0 -0.14200075103E+02 -0.24883328480E+02  0.66154288876E+01  0.29403844451E+02  0.00000000000E+00 0.  1.
</event>
<event>
 5    1  0.1262391E-009  0.9118800E+02  0.7815553E-02  0.1125453E+00
         25   -1    0    0    0    0  0.00000000000E+00  0.00000000000E+00  0.99999998245E-14  0.12509000000E+03  0.12509000000E+03 0.  0.
        -13    1    3    3    0    0 -0.24383944899E+02 -0.17081701721E+01 -0.25425424744E+02  0.35269788795E+02  0.10566000000E+00 0.  1.
         23    2    1    0    0    0 -0.28859571110E+00 -0.23118186382E+01  0.29629128849E+02  0.95369416741E+02  0.90620155486E+02 0.  0.
         13    1    3    3    0    0  0.24095349188E+02 -0.60364846614E+00  0.55054553593E+02  0.60099627947E+02  0.10566000000E+00 0. -1.
         22    1    1    0    0    0  0.28859571110E+00  0.23118186382E+01 -0.29629128849E+02  0.29720583259E+02  0.00000000000E+00 0. -1.
</event>
<event>
 5    1  0.1262391E-009  0.9118800E+02  0.7815553E-02  0.1125453E+00
         25   -1    0    0    0    0  0.00000000000E+00  0.00000000000E+00  0.99999998245E-14  0.12509000000E+03  0.12509000000E+03 0.  0.
        -13    1    3    3    0    0  0.18711860715E+02  0.36394037546E+01  0.29617789393E+02  0.35222203277E+02  0.10566000000E+00 0.  1.
         23    2    1    0    0    0 -0.27728975361E+02 -0.60472712932E+01 -0.78156319303E+01  0.95652784318E+02  0.91010469072E+02 0.  0.
         13    1    3    3    0    0 -0.46440836076E+02 -0.96866750478E+01 -0.37433421323E+02  0.60430581041E+02  0.10566000000E+00 0. -1.
         22    1    1    0    0    0  0.27728975361E+02  0.60472712932E+01  0.78156319303E+01  0.29437215682E+02  0.00000000000E+00 0. -1.
</event>
<event>
 5    1  0.1262391E-009  0.9118800E+02  0.7815553E-02  0.1125453E+00
         25   -1    0    0    0    0  0.00000000000E+00  0.00000000000E+00  0.99999998245E-14  0.12509000000E+03  0.12509000000E+03 0.  0.
        -13    1    3    3    0    0  0.27356096302E+02  0.37952578320E+02 -0.15878979725E+01  0.46811182318E+02  0.10566000000E+00 0.  1.
         23    2    1    0    0    0 -0.19294492551E+02  0.21099072167E+02  0.10127222485E+01  0.96481017224E+02  0.92141808042E+02 0.  0.
         13    1    3    3    0    0 -0.46650588853E+02 -0.16853506154E+02  0.26006202210E+01  0.49669834906E+02  0.10566000000E+00 0. -1.
         22    1    1    0    0    0  0.19294492551E+02 -0.21099072167E+02 -0.10127222485E+01  0.28608982776E+02  0.00000000000E+00 0. -1.
</event>
<event>
 5    1  0.1262391E-009  0.9118800E+02  0.7815553E-02  0.1125453E+00
         25   -1    0    0    0    0  0.00000000000E+00  0.00000000000E+00  0.99999998245E-14  0.12509000000E+03  0.12509000000E+03 0.  0.
        -13    1    3    3    0    0 -0.19122372108E+02 -0.18808451663E+02  0.35137115713E+02  0.44204649457E+02  0.10566000000E+00 0. -1.
         23    2    1    0    0    0 -0.86246506073E+01 -0.22030578112E+02 -0.16013901929E+02  0.96521205397E+02  0.92196350613E+02 0.  0.
         13    1    3    3    0    0  0.10497721500E+02 -0.32221264493E+01 -0.51151017642E+02  0.52316555940E+02  0.10566000000E+00 0.  1.
         22    1    1    0    0    0  0.86246506073E+01  0.22030578112E+02  0.16013901929E+02  0.28568794603E+02  0.00000000000E+00 0.  1.
</event>
<event>
 5    1  0.1262391E-009  0.9118800E+02  0.7815553E-02  0.1125453E+00
         25   -1    0    0    0    0  0.00000000000E+00  0.00000000000E+00  0.99999998245E-14  0.12509000000E+03  0.12509000000E+03 0.  0.
        -13    1    3    3    0    0  0.23847752344E+02 -0.40086263500E+02 -0.17478666432E+02  0.49811030480E+02  0.10566000000E+00 0.  1.
         23    2    1    0    0    0 -0.16540845591E+02 -0.24217755606E+02 -0.27623472685E+01  0.95632745853E+02  0.90982922889E+02 0.  0.
         13    1    3    3    0    0 -0.40388597935E+02  0.15868507894E+02  0.14716319164E+02  0.45821715373E+02  0.10566000000E+00 0. -1.
         22    1    1    0    0    0  0.16540845591E+02  0.24217755606E+02  0.27623472685E+01  0.29457254147E+02  0.00000000000E+00 0.  1.
</event>
<event>
 5    1  0.1262391E-009  0.9118800E+02  0.7815553E-02  0.1125453E+00
         25   -1    0    0    0    0  0.00000000000E+00  0.00000000000E+00  0.99999998245E-14  0.12509000000E+03  0.12509000000E+03 0.  0.
        -13    1    3    3    0    0  0.21186810181E+01  0.31540435378E+02 -0.24411244348E+02  0.39940053677E+02  0.10566000000E+00 0. -1.
         23    2    1    0    0    0  0.32189504897E+01  0.93012455080E+01  0.27207684036E+02  0.96156751291E+02  0.91700534011E+02 0.  0.
         13    1    3    3    0    0  0.11002694716E+01 -0.22239189870E+02  0.51618928385E+02  0.56216697614E+02  0.10566000000E+00 0.  1.
         22    1    1    0    0    0 -0.32189504897E+01 -0.93012455080E+01 -0.27207684036E+02  0.28933248709E+02  0.00000000000E+00 0.  1.
</event>
<event>
 5    1  0.1262391E-009  0.9118800E+02  0.7815553E-02  0.1125453E+00
         25   -1    0    0    0    0  0.00000000000E+00  0.00000000000E+00  0.99999998245E-14  0.12509000000E+03  0.12509000000E+03 0.  0.
        -13    1    3    3    0    0  0.21653290461E+02 -0.18964732660E+02 -0.28352600367E+02  0.40403059096E+02  0.10566000000E+00 0.  1.
         23    2    1    0    0    0 -0.14486431785E+02  0.21225645139E+02 -0.77106459979E+01  0.98260188612E+02  0.94526323778E+02 0.  0.
         13    1    3    3    0    0 -0.36139722246E+02  0.40190377799E+02  0.20641954369E+02  0.57857129516E+02  0.10566000000E+00 0. -1.
         22    1    1    0    0    0  0.14486431785E+02 -0.21225645139E+02  0.77106459979E+01  0.26829811388E+02  0.00000000000E+00 0. -1.
</event>
<event>
 5    1  0.1262391E-009  0.9118800E+02  0.7815553E-02  0.1125453E+00
         25   -1    0    0    0    0  0.00000000000E+00  0.00000000000E+00  0.99999998245E-14  0.12509000000E+03  0.12509000000E+03 0.  0.
        -13    1    3    3    0    0  0.43400304251E+02  0.18684868972E+02  0.18371623407E+02  0.50697519153E+02  0.10566000000E+00 0.  1.
         23    2    1    0    0    0  0.21390420424E+01  0.29303245271E+02  0.55651492694E+01  0.95186378637E+02  0.90367140639E+02 0.  0.
         13    1    3    3    0    0 -0.41261262209E+02  0.10618376299E+02 -0.12806474138E+02  0.44488859484E+02  0.10566000000E+00 0. -1.
         22    1    1    0    0    0 -0.21390420424E+01 -0.29303245271E+02 -0.55651492694E+01  0.29903621363E+02  0.00000000000E+00 0.  1.
</event>
<event>
 5    1  0.1262391E-009  0.9118800E+02  0.7815553E-02  0.1125453E+00
         25   -1    0    0    0    0  0.00000000000E+00  0.00000000000E+00  0.99999998245E-14  0.12509000000E+03  0.12509000000E+03 0.  0.
        -13    1    3    3    0    0 -0.15163702169E+02 -0.35901539296E+02  0.18944790349E+02  0.43333297044E+02  0.10566000000E+00 0.  1.
         23    2    1    0    0    0  0.18391792594E+02 -0.15654004396E+02 -0.16227540274E+02  0.95992939121E+02  0.91476802575E+02 0.  0.
         13    1    3    3    0    0  0.33555494762E+02  0.20247534900E+02 -0.35172330623E+02  0.52659642077E+02  0.10566000000E+00 0. -1.
         22    1    1    0    0    0 -0.18391792594E+02  0.15654004396E+02  0.16227540274E+02  0.29097060879E+02  0.00000000000E+00 0. -1.
</event>
<event>
 5    1  0.1262391E-009  0.9118800E+02  0.7815553E-02  0.1125453E+00
         25   -1    0    0    0    0  0.00000000000E+00  0.00000000000E+00  0.99999998245E-14  0.12509000000E+03  0.12509000000E+03 0.  0.
        -13    1    3    3    0    0  0.42948906959E+02 -0.20190625806E+02 -0.22305816824E+02  0.52438827291E+02  0.10566000000E+00 0. -1.
         23    2    1    0    0    0  0.26072890790E+02 -0.55406223228E+01 -0.37222517332E+02  0.79307799022E+02  0.64758914902E+02 0.  0.
         13    1    3    3    0    0 -0.16876016169E+02  0.14650003484E+02 -0.14916700508E+02  0.26868971731E+02  0.10566000000E+00 0.  1.
         22    1    1    0    0    0 -0.26072890790E+02  0.55406223228E+01  0.37222517332E+02  0.45782200978E+02  0.00000000000E+00 0. -1.
</event>
<event>
 5    1  0.1262391E-009  0.9118800E+02  0.7815553E-02  0.1125453E+00
         25   -1    0    0    0    0  0.00000000000E+00  0.00000000000E+00  0.99999998245E-14  0.12509000000E+03  0.12509000000E+03 0.  0.
        -13    1    3    3    0    0  0.55431210469E+02 -0.13677994022E+02  0.53768520950E+01  0.57346563254E+02  0.10566000000E+00 0.  1.
         23    2    1    0    0    0  0.25281609576E+02 -0.23675985133E+01 -0.15138151738E+02  0.95527710786E+02  0.90838398183E+02 0.  0.
         13    1    3    3    0    0 -0.30149600893E+02  0.11310395509E+02 -0.20515003833E+02  0.38181147532E+02  0.10566000000E+00 0. -1.
         22    1    1    0    0    0 -0.25281609576E+02  0.23675985133E+01  0.15138151738E+02  0.29562289214E+02  0.00000000000E+00 0.  1.
</event>
<event>
 5    1  0.1262391E-009  0.9118800E+02  0.7815553E-02  0.1125453E+00
         25   -1    0    0    0    0  0.00000000000E+00  0.00000000000E+00  0.99999998245E-14  0.12509000000E+03  0.12509000000E+03 0.  0.
        -13    1    3    3    0    0  0.33948131977E+02  0.51648218160E+01  0.28578300120E+02  0.44675289041E+02  0.10566000000E+00 0. -1.
         23    2    1    0    0    0  0.20924246254E+02  0.78958385551E+01 -0.20026870869E+02  0.95069275415E+02  0.90204895784E+02 0.  0.
         13    1    3    3    0    0 -0.13023885723E+02  0.27310167391E+01 -0.48605170989E+02  0.50393986374E+02  0.10566000000E+00 0.  1.
         22    1    1    0    0    0 -0.20924246254E+02 -0.78958385551E+01  0.20026870869E+02  0.30020724585E+02  0.00000000000E+00 0.  1.
</event>
<event>
 5    1  0.1262391E-009  0.9118800E+02  0.7815553E-02  0.1125453E+00
         25   -1    0    0    0    0  0.00000000000E+00  0.00000000000E+00  0.99999998245E-14  0.12509000000E+03  0.12509000000E+03 0.  0.
        -13    1    3    3    0    0  0.30012535812E+02 -0.15847717731E+02 -0.17905123137E+01  0.33987049909E+02  0.10566000000E+00 0. -1.
         23    2    1    0    0    0 -0.20873664026E+02  0.18470990101E+02  0.78873968138E+01  0.96122805561E+02  0.91654216461E+02 0.  0.
         13    1    3    3    0    0 -0.50886199838E+02  0.34318707832E+02  0.96779091275E+01  0.62135755651E+02  0.10566000000E+00 0.  1.
         22    1    1    0    0    0  0.20873664026E+02 -0.18470990101E+02 -0.78873968138E+01  0.28967194439E+02  0.00000000000E+00 0.  1.
</event>
<event>
 5    1  0.1262391E-009  0.9118800E+02  0.7815553E-02  0.1125453E+00
         25   -1    0    0    0    0  0.00000000000E+00  0.00000000000E+00  0.99999998245E-14  0.12509000000E+03  0.12509000000E+03 0.  0.
        -13    1    3    3    0    0 -0.12148988396E+02  0.32230731972E+02 -0.21508011632E+02  0.40608173204E+02  0.10566000000E+00 0.  1.
         23    2    1    0    0    0  0.18911169442E+02 -0.13680178762E+02 -0.16986067920E+02  0.96222957824E+02  0.91790802853E+02 0.  0.
         13    1    3    3    0    0  0.31060157838E+02 -0.45910910734E+02  0.45219437123E+01  0.55614784620E+02  0.10566000000E+00 0. -1.
         22    1    1    0    0    0 -0.18911169442E+02  0.13680178762E+02  0.16986067920E+02  0.28867042176E+02  0.00000000000E+00 0. -1.
</event>
<event>
 5    1  0.1262391E-009  0.9118800E+02  0.7815553E-02  0.1125453E+00
         25   -1    0    0    0    0  0.00000000000E+00  0.00000000000E+00  0.99999998245E-14  0.12509000000E+03  0.12509000000E+03 0.  0.
        -13    1    3    3    0    0  0.31467880230E+02  0.25380584577E+01 -0.42235780518E+01  0.31851514917E+02  0.10566000000E+00 0. -1.
         23    2    1    0    0    0 -0.30782596373E+02  0.18109515560E+01 -0.28681202062E+01  0.94121081735E+02  0.88880279750E+02 0.  0.
         13    1    3    3    0    0 -0.62250476603E+02 -0.72710690170E+00  0.13554578457E+01  0.62269566818E+02  0.10566000000E+00 0.  1.
         22    1    1    0    0    0  0.30782596373E+02 -0.18109515560E+01  0.28681202062E+01  0.30968918265E+02  0.00000000000E+00 0.  1.
</event>
<event>
 5    1  0.1262391E-009  0.9118800E+02  0.7815553E-02  0.1125453E+00
         25   -1    0    0    0    0  0.00000000000E+00  0.00000000000E+00  0.99999998245E-14  0.12509000000E+03  0.12509000000E+03 0.  0.
        -13    1    3    3    0    0  0.25717273889E+01 -0.35987972492E+01  0.49479523617E+02  0.49676951847E+02  0.10566000000E+00 0. -1.
         23    2    1    0    0    0  0.28126608301E+02 -0.34067422852E+01  0.13770565010E+02  0.93588564347E+02  0.88127628632E+02 0.  0.
         13    1    3    3    0    0  0.25554880912E+02  0.19205496397E+00 -0.35708958607E+02  0.43911612500E+02  0.10566000000E+00 0.  1.
         22    1    1    0    0    0 -0.28126608301E+02  0.34067422852E+01 -0.13770565010E+02  0.31501435653E+02  0.00000000000E+00 0. -1.
</event>
<event>
 5    1  0.1262391E-009  0.9118800E+02  0.7815553E-02  0.1125453E+00
         25   -1    0    0    0    0  0.00000000000E+00  0.00000000000E+00  0.99999998245E-14  0.12509000000E+03  0.12509000000E+03 0.  0.
        -13    1    3    3    0    0 -0.31117988787E+00 -0.19909443888E+02  0.36265701376E+02  0.41372636479E+02  0.10566000000E+00 0. -1.
         23    2    1    0    0    0  0.30221217660E+02  0.90634816258E+01  0.66309839399E+01  0.92849673636E+02  0.87072517192E+02 0.  0.
         13    1    3    3    0    0  0.30532397548E+02  0.28972925514E+02 -0.29634717436E+02  0.51477037157E+02  0.10566000000E+00 0.  1.
         22    1    1    0    0    0 -0.30221217660E+02 -0.90634816258E+01 -0.66309839399E+01  0.32240326364E+02  0.00000000000E+00 0.  1.
</event>
<event>
 5    1  0.1262391E-009  0.9118800E+02  0.7815553E-02  0.1125453E+00
         25   -1    0    0    0    0  0.00000000000E+00  0.00000000000E+00  0.99999998245E-14  0.12509000000E+03  0.12509000000E+03 0.  0.
        -13    1    3    3    0    0  0.18092122134E+02 -0.32185458506E+02 -0.10783261898E+02  0.38464509925E+02  0.10566000000E+00 0.  1.
         23    2    1    0    0    0  0.84434400026E+01  0.24547678502E+02 -0.13005232299E+02  0.96055257603E+02  0.91561980358E+02 0.  0.
         13    1    3    3    0    0 -0.96486821315E+01  0.56733137008E+02 -0.22219704012E+01  0.57590747678E+02  0.10566000000E+00 0. -1.
         22    1    1    0    0    0 -0.84434400026E+01 -0.24547678502E+02  0.13005232299E+02  0.29034742397E+02  0.00000000000E+00 0. -1.
</event>
<event>
 5    1  0.1262391E-009  0.9118800E+02  0.7815553E-02  0.1125453E+00
         25   -1    0    0    0    0  0.00000000000E+00  0.00000000000E+00  0.99999998245E-14  0.12509000000E+03  0.12509000000E+03 0.  0.
        -13    1    3    3    0    0  0.20704879692E+02 -0.97615812509E+01 -0.46633575701E+02  0.51948840779E+02  0.10566000000E+00 0. -1.
         23    2    1    0    0    0  0.91671886173E+01 -0.26020758890E+02 -0.65232117572E+01  0.96740934195E+02  0.92493993410E+02 0.  0.
         13    1    3    3    0    0 -0.11537691074E+02 -0.16259177639E+02  0.40110363944E+02  0.44792093416E+02  0.10566000000E+00 0.  1.
         22    1    1    0    0    0 -0.91671886173E+01  0.26020758890E+02  0.65232117572E+01  0.28349065805E+02  0.00000000000E+00 0. -1.
</event>
<event>
 5    1  0.1262391E-009  0.9118800E+02  0.7815553E-02  0.1125453E+00
         25   -1    0    0    0    0  0.00000000000E+00  0.00000000000E+00  0.99999998245E-14  0.12509000000E+03  0.12509000000E+03 0.  0.
        -13    1    3    3    0    0 -0.16856617008E+02 -0.23360624196E+02  0.23383896559E+02  0.37103666694E+02  0.10566000000E+00 0.  1.
         23    2    1    0    0    0  0.30319350687E+02 -0.10960609735E+00 -0.26212676684E+00  0.94769318114E+02  0.89787971944E+02 0.  0.
         13    1    3    3    0    0  0.47175967695E+02  0.23251018099E+02 -0.23646023326E+02  0.57665651421E+02  0.10566000000E+00 0. -1.
         22    1    1    0    0    0 -0.30319350687E+02  0.10960609735E+00  0.26212676684E+00  0.30320681886E+02  0.00000000000E+00 0. -1.
</event>
<event>
 5    1  0.1262391E-009  0.9118800E+02  0.7815553E-02  0.1125453E+00
         25   -1    0    0    0    0  0.00000000000E+00  0.00000000000E+00  0.99999998245E-14  0.12509000000E+03  0.12509000000E+03 0.  0.
        -13    1    3    3    0    0  0.11536906851E+02 -0.41754552623E+02  0.42601742675E+02  0.60757407182E+02  0.10566000000E+00 0. -1.
         23    2    1    0    0    0  0.13169235550E+02 -0.12735741045E+02  0.22394728100E+02  0.96156425875E+02  0.91700090106E+02 0.  0.
         13    1    3    3    0    0  0.16323287000E+01  0.29018811578E+02 -0.20207014575E+02  0.35399018694E+02  0.10566000000E+00 0.  1.
         22    1    1    0    0    0 -0.13169235550E+02  0.12735741045E+02 -0.22394728100E+02  0.28933574125E+02  0.00000000000E+00 0. -1.
</event>
<event>
 5    1  0.1262391E-009  0.9118800E+02  0.7815553E-02  0.1125453E+00
         25   -1    0    0    0    0  0.00000000000E+00  0.00000000000E+00  0.99999998245E-14  0.12509000000E+03  0.12509000000E+03 0.  0.
        -13    1    3    3    0    0 -0.36969843042E+02  0.35334447054E+02  0.24793382779E+02  0.56833224761E+02  0.10566000000E+00 0.  1.
         23    2    1    0    0    0 -0.26727660119E+02  0.14259283174E+02 -0.46273609844E+01  0.94445140044E+02  0.89335194835E+02 0.  0.
         13    1    3    3    0    0  0.10242182923E+02 -0.21075163880E+02 -0.29420743763E+02  0.37611915282E+02  0.10566000000E+00 0. -1.
         22    1    1    0    0    0  0.26727660119E+02 -0.14259283174E+02  0.46273609844E+01  0.30644859956E+02  0.00000000000E+00 0.  1.
</event>
<event>
 5    1  0.1262391E-009  0.9118800E+02  0.7815553E-02  0.1125453E+00
         25   -1    0    0    0    0  0.00000000000E+00  0.00000000000E+00  0.99999998245E-14  0.12509000000E+03  0.12509000000E+03 0.  0.
        -13    1    3    3    0    0 -0.18760653979E+02  0.24111066605E+02  0.80466507813E+01  0.31592173451E+02  0.10566000000E+00 0. -1.
         23    2    1    0    0    0  0.14562489706E+02 -0.24958919247E+02 -0.11417702759E+02  0.94019472282E+02  0.88737159496E+02 0.  0.
         13    1    3    3    0    0  0.33323143685E+02 -0.49069985852E+02 -0.19464353540E+02  0.62427298831E+02  0.10566000000E+00 0.  1.
         22    1    1    0    0    0 -0.14562489706E+02  0.24958919247E+02  0.11417702759E+02  0.31070527718E+02  0.00000000000E+00 0.  1.
</event>
<event>
 5    1  0.1262391E-009  0.9118800E+02  0.7815553E-02  0.1125453E+00
         25   -1    0    0    0    0  0.00000000000E+00  0.00000000000E+00  0.99999998245E-14  0.12509000000E+03  0.12509000000E+03 0.  0.
        -13    1    3    3    0    0  0.20995516869E+02 -0.82957182680E+01  0.46261561023E+02  0.51475954217E+02  0.10566000000E+00 0. -1.
         23    2    1    0    0    0 -0.15932166695E+02  0.16763448384E+01  0.25439107195E+02  0.95026862398E+02  0.90146061116E+02 0.  0.
         13    1    3    3    0    0 -0.36927683563E+02  0.99720631064E+01 -0.20822453829E+02  0.43550908182E+02  0.10566000000E+00 0.  1.
         22    1    1    0    0    0  0.15932166695E+02 -0.16763448384E+01 -0.25439107195E+02  0.30063137602E+02  0.00000000000E+00 0. -1.
</event>
<event>
 5    1  0.1262391E-009  0.9118800E+02  0.7815553E-02  0.1125453E+00
         25   -1    0    0    0    0  0.00000000000E+00  0.00000000000E+00  0.99999998245E-14  0.12509000000E+03  0.12509000000E+03 0.  0.
        -13    1    3    3    0    0  0.14175729204E+02 -0.42254068493E+02 -0.38864597890E+01  0.44737828920E+02  0.10566000000E+00 0. -1.
         23    2    1    0    0    0 -0.10561761365E+02 -0.59733749854E+01  0.25001374916E+02  0.97299700262E+02  0.93246613406E+02 0.  0.
         13    1    3    3    0    0 -0.24737490569E+02  0.36280693508E+02  0.28887834705E+02  0.52561871343E+02  0.10566000000E+00 0.  1.
         22    1    1    0    0    0  0.10561761365E+02  0.59733749854E+01 -0.25001374916E+02  0.27790299738E+02  0.00000000000E+00 0.  1.
</event>
<event>
 5    1  0.1262391E-009  0.9118800E+02  0.7815553E-02  0.1125453E+00
         25   -1    0    0    0    0  0.00000000000E+00  0.00000000000E+00  0.99999998245E-14  0.12509000000E+03  0.12509000000E+03 0.  0.
        -13    1    3    3    0    0  0.19712350642E+02 -0.21425843766E+02  0.11163671211E+02  0.31181441081E+02  0.10566000000E+00 0.  1.
         23    2    1    0    0    0 -0.30595351113E+02  0.11572905817E+02  0.79219261088E+01  0.91433431963E+02  0.85013574848E+02 0.  0.
         13    1    3    3    0    0 -0.50307701755E+02  0.32998749583E+02 -0.32417451027E+01  0.60251990882E+02  0.10566000000E+00 0. -1.
         22    1    1    0    0    0  0.30595351113E+02 -0.11572905817E+02 -0.79219261088E+01  0.33656568037E+02  0.00000000000E+00 0. -1.
</event>
<event>
 5    1  0.1262391E-009  0.9118800E+02  0.7815553E-02  0.1125453E+00
         25   -1    0    0    0    0  0.00000000000E+00  0.00000000000E+00  0.99999998245E-14  0.12509000000E+03  0.12509000000E+03 0.  0.
        -13    1    3    3    0    0  0.12173932078E+02 -0.20407842107E+01  0.34336259027E+02  0.36487796185E+02  0.10566000000E+00 0.  1.
         23    2    1    0    0    0  0.18324581070E+02  0.93789888101E+01 -0.22388181104E+02  0.94676411662E+02  0.89658443939E+02 0.  0.
         13    1    3    3    0    0  0.61506489915E+01  0.11419773021E+02 -0.56724440131E+02  0.58188615476E+02  0.10566000000E+00 0. -1.
         22    1    1    0    0    0 -0.18324581070E+02 -0.93789888101E+01  0.22388181104E+02  0.30413588338E+02  0.00000000000E+00 0. -1.
</event>
<event>
 5    1  0.1262391E-009  0.9118800E+02  0.7815553E-02  0.1125453E+00
         25   -1    0    0    0    0  0.00000000000E+00  0.00000000000E+00  0.99999998245E-14  0.12509000000E+03  0.12509000000E+03 0.  0.
        -13    1    3    3    0    0  0.41527782822E+02  0.32543586974E+02 -0.27951607825E+02  0.59707163249E+02  0.10566000000E+00 0.  1.
         23    2    1    0    0    0  0.16258266487E+02  0.22956820307E+02 -0.24727471010E+01  0.96850642607E+02  0.92642245587E+02 0.  0.
         13    1    3    3    0    0 -0.25269516335E+02 -0.95867666673E+01  0.25478860724E+02  0.37143479357E+02  0.10566000000E+00 0. -1.
         22    1    1    0    0    0 -0.16258266487E+02 -0.22956820307E+02  0.24727471010E+01  0.28239357393E+02  0.00000000000E+00 0.  1.
</event>
<event>
 5    1  0.1262391E-009  0.9118800E+02  0.7815553E-02  0.1125453E+00
         25   -1    0    0    0    0  0.00000000000E+00  0.00000000000E+00  0.99999998245E-14  0.12509000000E+03  0.12509000000E+03 0.  0.
        -13    1    3    3    0    0  0.10921197449E+02  0.18045929027E+02 -0.69071441183E+01  0.22195673274E+02  0.10566000000E+00 0.  1.
         23    2    1    0    0    0 -0.34471694129E+02 -0.17689086594E+01 -0.32266901688E+02  0.77839818217E+02  0.61858367433E+02 0.  0.
         13    1    3    3    0    0 -0.45392891578E+02 -0.19814837686E+02 -0.25359757570E+02  0.55644144943E+02  0.10566000000E+00 0. -1.
         22    1    1    0    0    0  0.34471694129E+02  0.17689086594E+01  0.32266901688E+02  0.47250181783E+02  0.00000000000E+00 0. -1.
</event>
<event>
 5    1  0.1262391E-009  0.9118800E+02  0.7815553E-02  0.1125453E+00
         25   -1    0    0    0    0  0.00000000000E+00  0.00000000000E+00  0.99999998245E-14  0.12509000000E+03  0.12509000000E+03 0.  0.
        -13    1    3    3    0    0 -0.33726791109E+02 -0.13311272774E+02  0.38116101847E+02  0.52607364555E+02  0.10566000000E+00 0. -1.
         23    2    1    0    0    0  0.32817289811E+01  0.33853939500E+01  0.30885194727E+02  0.93846986531E+02  0.88493677685E+02 0.  0.
         13    1    3    3    0    0  0.37008520090E+02  0.16696666724E+02 -0.72309071198E+01  0.41239621976E+02  0.10566000000E+00 0.  1.
         22    1    1    0    0    0 -0.32817289811E+01 -0.33853939500E+01 -0.30885194727E+02  0.31243013469E+02  0.00000000000E+00 0. -1.
</event>
<event>
 5    1  0.1262391E-009  0.9118800E+02  0.7815553E-02  0.1125453E+00
         25   -1    0    0    0    0  0.00000000000E+00  0.00000000000E+00  0.99999998245E-14  0.12509000000E+03  0.12509000000E+03 0.  0.
        -13    1    3    3    0    0 -0.24991410933E+02  0.43813846142E+02 -0.21727339798E+02  0.54920963146E+02  0.10566000000E+00 0.  1.
         23    2    1    0    0    0 -0.28062309096E+02  0.90629248835E+01 -0.82724308355E+00  0.95588913065E+02  0.90922638383E+02 0.  0.
         13    1    3    3    0    0 -0.30708981632E+01 -0.34750921259E+02  0.20900096714E+02  0.40667949918E+02  0.10566000000E+00 0. -1.
         22    1    1    0    0    0  0.28062309096E+02 -0.90629248835E+01  0.82724308355E+00  0.29501086935E+02  0.00000000000E+00 0.  1.
</event>
<event>
 5    1  0.1262391E-009  0.9118800E+02  0.7815553E-02  0.1125453E+00
         25   -1    0    0    0    0  0.00000000000E+00  0.00000000000E+00  0.99999998245E-14  0.12509000000E+03  0.12509000000E+03 0.  0.
        -13    1    3    3    0    0 -0.16468671165E+02  0.17800243657E+02  0.24529225701E+02  0.34492896105E+02  0.10566000000E+00 0.  1.
         23    2    1    0    0    0 -0.37514217932E+01 -0.25544330381E+02 -0.15608090428E+02  0.94920504365E+02  0.89998353774E+02 0.  0.
         13    1    3    3    0    0  0.12717249371E+02 -0.43344574037E+02 -0.40137316129E+02  0.60427608261E+02  0.10566000000E+00 0. -1.
         22    1    1    0    0    0  0.37514217932E+01  0.25544330381E+02  0.15608090428E+02  0.30169495635E+02  0.00000000000E+00 0. -1.
</event>
<event>
 5    1  0.1262391E-009  0.9118800E+02  0.7815553E-02  0.1125453E+00
         25   -1    0    0    0    0  0.00000000000E+00  0.00000000000E+00  0.99999998245E-14  0.12509000000E+03  0.12509000000E+03 0.  0.
        -13    1    3    3    0    0  0.33179334038E+02 -0.10366115998E+02  0.31822004684E+02  0.47127229011E+02  0.10566000000E+00 0.  1.
         23    2    1    0    0    0  0.90785348414E+01 -0.28282053254E+02 -0.53440955319E+01  0.94909647315E+02  0.89983262140E+02 0.  0.
         13    1    3    3    0    0 -0.24100799196E+02 -0.17915937256E+02 -0.37166100216E+02  0.47782418304E+02  0.10566000000E+00 0. -1.
         22    1    1    0    0    0 -0.90785348414E+01  0.28282053254E+02  0.53440955319E+01  0.30180352685E+02  0.00000000000E+00 0.  1.
</event>
<event>
 5    1  0.1262391E-009  0.9118800E+02  0.7815553E-02  0.1125453E+00
         25   -1    0    0    0    0  0.00000000000E+00  0.00000000000E+00  0.99999998245E-14  0.12509000000E+03  0.12509000000E+03 0.  0.
        -13    1    3    3    0    0  0.30980726888E+02  0.22838911693E+02  0.18190143161E+01  0.38532341000E+02  0.10566000000E+00 0. -1.
         23    2    1    0    0    0 -0.34337331248E+00 -0.19741539433E+02 -0.21139400521E+02  0.96163877917E+02  0.91710255027E+02 0.  0.
         13    1    3    3    0    0 -0.31324100201E+02 -0.42580451126E+02 -0.22958414837E+02  0.57631536916E+02  0.10566000000E+00 0.  1.
         22    1    1    0    0    0  0.34337331248E+00  0.19741539433E+02  0.21139400521E+02  0.28926122083E+02  0.00000000000E+00 0.  1.
</event>
<event>
 5    1  0.1262391E-009  0.9118800E+02  0.7815553E-02  0.1125453E+00
         25   -1    0    0    0    0  0.00000000000E+00  0.00000000000E+00  0.99999998245E-14  0.12509000000E+03  0.12509000000E+03 0.  0.
        -13    1    3    3    0    0  0.47604544346E+01 -0.17917474151E+02  0.52282085484E+02  0.55471843605E+02  0.10566000000E+00 0.  1.
         23    2    1    0    0    0 -0.12792383125E+02  0.67444045854E+01  0.24928007726E+02  0.96270950251E+02  0.91856182339E+02 0.  0.
         13    1    3    3    0    0 -0.17552837559E+02  0.24661878736E+02 -0.27354077757E+02  0.40799106647E+02  0.10566000000E+00 0. -1.
         22    1    1    0    0    0  0.12792383125E+02 -0.67444045854E+01 -0.24928007726E+02  0.28819049749E+02  0.00000000000E+00 0.  1.
</event>
<event>
 5    1  0.1262391E-009  0.9118800E+02  0.7815553E-02  0.1125453E+00
         25   -1    0    0    0    0  0.00000000000E+00  0.00000000000E+00  0.99999998245E-14  0.12509000000E+03  0.12509000000E+03 0.  0.
        -13    1    3    3    0    0  0.69048885493E+01 -0.40767668540E+02  0.32446332312E+02  0.52559070850E+02  0.10566000000E+00 0.  1.
         23    2    1    0    0    0  0.15825997693E+02  0.73690984888E+00  0.24749631014E+02  0.95703787681E+02  0.91080544037E+02 0.  0.
         13    1    3    3    0    0  0.89211091441E+01  0.41504578388E+02 -0.76967012988E+01  0.43144716832E+02  0.10566000000E+00 0. -1.
         22    1    1    0    0    0 -0.15825997693E+02 -0.73690984888E+00 -0.24749631014E+02  0.29386212319E+02  0.00000000000E+00 0. -1.
</event>
<event>
 5    1  0.1262391E-009  0.9118800E+02  0.7815553E-02  0.1125453E+00
         25   -1    0    0    0    0  0.00000000000E+00  0.00000000000E+00  0.99999998245E-14  0.12509000000E+03  0.12509000000E+03 0.  0.
        -13    1    3    3    0    0 -0.48214753198E+02  0.49647961748E+01  0.22965452131E+02  0.53635200965E+02  0.10566000000E+00 0. -1.
         23    2    1    0    0    0 -0.26803578374E+02 -0.57734892331E+01 -0.11292935686E+02  0.95437084663E+02  0.90713514655E+02 0.  0.
         13    1    3    3    0    0  0.21411174824E+02 -0.10738285408E+02 -0.34258387817E+02  0.41801883698E+02  0.10566000000E+00 0.  1.
         22    1    1    0    0    0  0.26803578374E+02  0.57734892331E+01  0.11292935686E+02  0.29652915337E+02  0.00000000000E+00 0. -1.
</event>
<event>
 5    1  0.1262391E-009  0.9118800E+02  0.7815553E-02  0.1125453E+00
         25   -1    0    0    0    0  0.00000000000E+00  0.00000000000E+00  0.99999998245E-14  0.12509000000E+03  0.12509000000E+03 0.  0.
        -13    1    3    3    0    0  0.52572240823E+02  0.25147325833E+02 -0.15445309457E+01  0.58297729301E+02  0.10566000000E+00 0.  1.
         23    2    1    0    0    0  0.19866723342E+02  0.18362534474E+02  0.13411216803E+02  0.94895131152E+02  0.89963080269E+02 0.  0.
         13    1    3    3    0    0 -0.32705517481E+02 -0.67847913598E+01  0.14955747749E+02  0.36597401851E+02  0.10566000000E+00 0. -1.
         22    1    1    0    0    0 -0.19866723342E+02 -0.18362534474E+02 -0.13411216803E+02  0.30194868848E+02  0.00000000000E+00 0.  1.
</event>
<event>
 5    1  0.1262391E-009  0.9118800E+02  0.7815553E-02  0.1125453E+00
         25   -1    0    0    0    0  0.00000000000E+00  0.00000000000E+00  0.99999998245E-14  0.12509000000E+03  0.12509000000E+03 0.  0.
        -13    1    3    3    0    0 -0.12623335553E+01 -0.27984365765E+02 -0.54098607049E+02  0.60921167601E+02  0.10566000000E+00 0. -1.
         23    2    1    0    0    0 -0.72427668483E+01 -0.57673832200E+01 -0.27411545720E+02  0.96157091063E+02  0.91700997498E+02 0.  0.
         13    1    3    3    0    0 -0.59804332929E+01  0.22216982545E+02  0.26687061329E+02  0.35235923462E+02  0.10566000000E+00 0.  1.
         22    1    1    0    0    0  0.72427668483E+01  0.57673832200E+01  0.27411545720E+02  0.28932908937E+02  0.00000000000E+00 0. -1.
</event>
<event>
 5    1  0.1262391E-009  0.9118800E+02  0.7815553E-02  0.1125453E+00
         25   -1    0    0    0    0  0.00000000000E+00  0.00000000000E+00  0.99999998245E-14  0.12509000000E+03  0.12509000000E+03 0.  0.
        -13    1    3    3    0    0  0.43783609756E+02 -0.11780307235E+02  0.58773082702E+01  0.45720171023E+02  0.10566000000E+00 0. -1.
         23    2    1    0    0    0  0.85705958240E+01  0.18838335451E+02  0.21804840011E+02  0.95026915607E+02  0.90146134950E+02 0.  0.
         13    1    3    3    0    0 -0.35213013932E+02  0.30618642686E+02  0.15927531741E+02  0.49306744584E+02  0.10566000000E+00 0.  1.
         22    1    1    0    0    0 -0.85705958240E+01 -0.18838335451E+02 -0.21804840011E+02  0.30063084393E+02  0.00000000000E+00 0.  1.
</event>
<event>
 5    1  0.1262391E-009  0.9118800E+02  0.7815553E-02  0.1125453E+00
         25   -1    0    0    0    0  0.00000000000E+00  0.00000000000E+00  0.99999998245E-14  0.12509000000E+03  0.12509000000E+03 0.  0.
        -13    1    3    3    0    0 -0.25393255044E+02  0.14832843770E+02 -0.28378715256E+02  0.40867998478E+02  0.10566000000E+00 0.  1.
         23    2    1    0    0    0 -0.13568936725E+02  0.51150576294E+01  0.24885570913E+02  0.96287717138E+02  0.91879012693E+02 0.  0.
         13    1    3    3    0    0  0.11824318319E+02 -0.97177861404E+01  0.53264286169E+02  0.55419718659E+02  0.10566000000E+00 0. -1.
         22    1    1    0    0    0  0.13568936725E+02 -0.51150576294E+01 -0.24885570913E+02  0.28802282862E+02  0.00000000000E+00 0. -1.
</event>
<event>
 5    1  0.1262391E-009  0.9118800E+02  0.7815553E-02  0.1125453E+00
         25   -1    0    0    0    0  0.00000000000E+00  0.00000000000E+00  0.99999998245E-14  0.12509000000E+03  0.12509000000E+03 0.  0.
        -13    1    3    3    0    0 -0.42562062172E+02 -0.20972684119E+02  0.11176155615E+02  0.48747310017E+02  0.10566000000E+00 0.  1.
         23    2    1    0    0    0 -0.24163360598E+01 -0.58296527885E+01  0.29148506283E+02  0.95266201615E+02  0.90477567496E+02 0.  0.
         13    1    3    3    0    0  0.40145726113E+02  0.15143031330E+02  0.17972350667E+02  0.46518891598E+02  0.10566000000E+00 0. -1.
         22    1    1    0    0    0  0.24163360598E+01  0.58296527885E+01 -0.29148506283E+02  0.29823798385E+02  0.00000000000E+00 0. -1.
</event>
<event>
 5    1  0.1262391E-009  0.9118800E+02  0.7815553E-02  0.1125453E+00
         25   -1    0    0    0    0  0.00000000000E+00  0.00000000000E+00  0.99999998245E-14  0.12509000000E+03  0.12509000000E+03 0.  0.
        -13    1    3    3    0    0 -0.33079130419E+02  0.31717017481E+02  0.41228431464E+02  0.61644081566E+02  0.10566000000E+00 0. -1.
         23    2    1    0    0    0 -0.20595518771E+02  0.93909686989E+01  0.18723667190E+02  0.95714135765E+02  0.91094754984E+02 0.  0.
         13    1    3    3    0    0  0.12483611648E+02 -0.22326048782E+02 -0.22504764274E+02  0.34070054198E+02  0.10566000000E+00 0.  1.
         22    1    1    0    0    0  0.20595518771E+02 -0.93909686989E+01 -0.18723667190E+02  0.29375864235E+02  0.00000000000E+00 0. -1.
</event>
<event>
 5    1  0.1262391E-009  0.9118800E+02  0.7815553E-02  0.1125453E+00
         25   -1    0    0    0    0  0.00000000000E+00  0.00000000000E+00  0.99999998245E-14  0.12509000000E+03  0.12509000000E+03 0.  0.
        -13    1    3    3    0    0  0.32289283709E+02  0.11998770015E+01 -0.39871898166E+02  0.51320726560E+02  0.10566000000E+00 0. -1.
         23    2    1    0    0    0  0.26489978832E+02 -0.16639507772E+02 -0.18087141888E+01  0.93755296484E+02  0.88363974415E+02 0.  0.
         13    1    3    3    0    0 -0.57993048771E+01 -0.17839384774E+02  0.38063183977E+02  0.42434569924E+02  0.10566000000E+00 0.  1.
         22    1    1    0    0    0 -0.26489978832E+02  0.16639507772E+02  0.18087141888E+01  0.31334703516E+02  0.00000000000E+00 0. -1.
</event>
<event>
 5    1  0.1262391E-009  0.9118800E+02  0.7815553E-02  0.1125453E+00
         25   -1    0    0    0    0  0.00000000000E+00  0.00000000000E+00  0.99999998245E-14  0.12509000000E+03  0.12509000000E+03 0.  0.
        -13    1    3    3    0    0 -0.39171797816E+02 -0.87927611371E+01 -0.68418264730E+01  0.40725472938E+02  0.10566000000E+00 0.  1.
         23    2    1    0    0    0  0.89888953627E+01 -0.13337162767E+02 -0.27424673693E+02  0.93297031002E+02  0.87712844648E+02 0.  0.
         13    1    3    3    0    0  0.48160693178E+02 -0.45444016298E+01 -0.20582847220E+02  0.52571558064E+02  0.10566000000E+00 0. -1.
         22    1    1    0    0    0 -0.89888953627E+01  0.13337162767E+02  0.27424673693E+02  0.31792968998E+02  0.00000000000E+00 0. -1.
</event>
<event>
 5    1  0.1262391E-009  0.9118800E+02  0.7815553E-02  0.1125453E+00
         25   -1    0    0    0    0  0.00000000000E+00  0.00000000000E+00  0.99999998245E-14  0.12509000000E+03  0.12509000000E+03 0.  0.
        -13    1    3    3    0    0 -0.16373611097E+02 -0.12553279486E+02  0.28465563665E+02  0.35156499328E+02  0.10566000000E+00 0.  1.
         23    2    1    0    0    0  0.13730877160E+02 -0.14271167545E+02 -0.22959045424E+02  0.94769693645E+02  0.89788495121E+02 0.  0.
         13    1    3    3    0    0  0.30104488257E+02 -0.17178880585E+01 -0.51424609089E+02  0.59613194317E+02  0.10566000000E+00 0. -1.
         22    1    1    0    0    0 -0.13730877160E+02  0.14271167545E+02  0.22959045424E+02  0.30320306355E+02  0.00000000000E+00 0. -1.
</event>
<event>
 5    1  0.1262391E-009  0.9118800E+02  0.7815553E-02  0.1125453E+00
         25   -1    0    0    0    0  0.00000000000E+00  0.00000000000E+00  0.99999998245E-14  0.12509000000E+03  0.12509000000E+03 0.  0.
        -13    1    3    3    0    0 -0.16590571324E+02  0.23165007244E+02 -0.46431251096E+02  0.54476938789E+02  0.10566000000E+00 0.  1.
         23    2    1    0    0    0  0.79001713895E+01 -0.39363072608E+01 -0.28666141657E+02  0.95095752213E+02  0.90241604532E+02 0.  0.
         13    1    3    3    0    0  0.24490742714E+02 -0.27101314504E+02  0.17765109439E+02  0.40618813424E+02  0.10566000000E+00 0. -1.
         22    1    1    0    0    0 -0.79001713895E+01  0.39363072608E+01  0.28666141657E+02  0.29994247787E+02  0.00000000000E+00 0.  1.
</event>
<event>
 5    1  0.1262391E-009  0.9118800E+02  0.7815553E-02  0.1125453E+00
         25   -1    0    0    0    0  0.00000000000E+00  0.00000000000E+00  0.99999998245E-14  0.12509000000E+03  0.12509000000E+03 0.  0.
        -13    1    3    3    0    0 -0.23119423931E+02 -0.32634450256E+02 -0.20549280339E+01  0.40046835077E+02  0.10566000000E+00 0. -1.
         23    2    1    0    0    0  0.17077287810E+02  0.46746953526E+00 -0.23225453489E+02  0.96258177711E+02  0.91838787012E+02 0.  0.
         13    1    3    3    0    0  0.40196711741E+02  0.33101919791E+02 -0.21170525455E+02  0.56211342634E+02  0.10566000000E+00 0.  1.
         22    1    1    0    0    0 -0.17077287810E+02 -0.46746953526E+00  0.23225453489E+02  0.28831822289E+02  0.00000000000E+00 0.  1.
</event>
<event>
 5    1  0.1262391E-009  0.9118800E+02  0.7815553E-02  0.1125453E+00
         25   -1    0    0    0    0  0.00000000000E+00  0.00000000000E+00  0.99999998245E-14  0.12509000000E+03  0.12509000000E+03 0.  0.
        -13    1    3    3    0    0 -0.83672425131E+01  0.32846142493E+02 -0.69419021677E+01  0.34598858271E+02  0.10566000000E+00 0.  1.
         23    2    1    0    0    0  0.50081184333E+01  0.36874988298E+02  0.32024775990E+02  0.75993846491E+02  0.58005451597E+02 0.  0.
         13    1    3    3    0    0  0.13375360946E+02  0.40288458046E+01  0.38966678158E+02  0.41394988219E+02  0.10566000000E+00 0. -1.
         22    1    1    0    0    0 -0.50081184333E+01 -0.36874988298E+02 -0.32024775990E+02  0.49096153509E+02  0.00000000000E+00 0.  1.
</event>
<event>
 5    1  0.1262391E-009  0.9118800E+02  0.7815553E-02  0.1125453E+00
         25   -1    0    0    0    0  0.00000000000E+00  0.00000000000E+00  0.99999998245E-14  0.12509000000E+03  0.12509000000E+03 0.  0.
        -13    1    3    3    0    0 -0.32217013863E+02 -0.17819336189E+02 -0.28553519049E+02  0.46591623051E+02  0.10566000000E+00 0.  1.
         23    2    1    0    0    0  0.26586522977E+01  0.16245633990E+02 -0.24582190836E+02  0.95504984163E+02  0.90807096848E+02 0.  0.
         13    1    3    3    0    0  0.34875666161E+02  0.34064970178E+02  0.39713282125E+01  0.48913361112E+02  0.10566000000E+00 0. -1.
         22    1    1    0    0    0 -0.26586522977E+01 -0.16245633990E+02  0.24582190836E+02  0.29585015837E+02  0.00000000000E+00 0. -1.
</event>
<event>
 5    1  0.1262391E-009  0.9118800E+02  0.7815553E-02  0.1125453E+00
         25   -1    0    0    0    0  0.00000000000E+00  0.00000000000E+00  0.99999998245E-14  0.12509000000E+03  0.12509000000E+03 0.  0.
        -13    1    3    3    0    0  0.20697751385E+02 -0.43039882751E+01 -0.53945417618E+02  0.57939973019E+02  0.10566000000E+00 0. -1.
         23    2    1    0    0    0 -0.69001572576E+01 -0.11494697669E+01 -0.28945849008E+02  0.95310886082E+02  0.90539325047E+02 0.  0.
         13    1    3    3    0    0 -0.27597908643E+02  0.31545185082E+01  0.24999568609E+02  0.37370913063E+02  0.10566000000E+00 0.  1.
         22    1    1    0    0    0  0.69001572576E+01  0.11494697669E+01  0.28945849008E+02  0.29779113918E+02  0.00000000000E+00 0. -1.
</event>
<event>
 5    1  0.1262391E-009  0.9118800E+02  0.7815553E-02  0.1125453E+00
         25   -1    0    0    0    0  0.00000000000E+00  0.00000000000E+00  0.99999998245E-14  0.12509000000E+03  0.12509000000E+03 0.  0.
        -13    1    3    3    0    0  0.49591697589E+02  0.13626918349E+02 -0.32878167872E+02  0.61041088293E+02  0.10566000000E+00 0. -1.
         23    2    1    0    0    0  0.20688012872E+02  0.15484222390E+02 -0.13056479581E+02  0.96137855370E+02  0.91674754194E+02 0.  0.
         13    1    3    3    0    0 -0.28903684717E+02  0.18573040415E+01  0.19821688291E+02  0.35096767077E+02  0.10566000000E+00 0.  1.
         22    1    1    0    0    0 -0.20688012872E+02 -0.15484222390E+02  0.13056479581E+02  0.28952144630E+02  0.00000000000E+00 0. -1.
</event>
<event>
 5    1  0.1262391E-009  0.9118800E+02  0.7815553E-02  0.1125453E+00
         25   -1    0    0    0    0  0.00000000000E+00  0.00000000000E+00  0.99999998245E-14  0.12509000000E+03  0.12509000000E+03 0.  0.
        -13    1    3    3    0    0  0.44259435147E+01  0.30823416232E+02 -0.23106096731E+02  0.38775956911E+02  0.10566000000E+00 0. -1.
         23    2    1    0    0    0  0.10994206689E+02  0.16630655527E+01  0.26308703159E+02  0.96528028260E+02  0.92205607260E+02 0.  0.
         13    1    3    3    0    0  0.65682631744E+01 -0.29160350679E+02  0.49414799891E+02  0.57752071349E+02  0.10566000000E+00 0.  1.
         22    1    1    0    0    0 -0.10994206689E+02 -0.16630655527E+01 -0.26308703159E+02  0.28561971740E+02  0.00000000000E+00 0.  1.
</event>
<event>
 5    1  0.1262391E-009  0.9118800E+02  0.7815553E-02  0.1125453E+00
         25   -1    0    0    0    0  0.00000000000E+00  0.00000000000E+00  0.99999998245E-14  0.12509000000E+03  0.12509000000E+03 0.  0.
        -13    1    3    3    0    0 -0.85250458948E+01  0.16104386170E+02  0.39469079236E+02  0.43472371009E+02  0.10566000000E+00 0.  1.
         23    2    1    0    0    0 -0.24391011444E+02  0.11142646218E+02 -0.10619899110E+02  0.96247977514E+02  0.91824892673E+02 0.  0.
         13    1    3    3    0    0 -0.15865965549E+02 -0.49617399514E+01 -0.50088978346E+02  0.52775606504E+02  0.10566000000E+00 0. -1.
         22    1    1    0    0    0  0.24391011444E+02 -0.11142646218E+02  0.10619899110E+02  0.28842022486E+02  0.00000000000E+00 0. -1.
</event>
<event>
 5    1  0.1262391E-009  0.9118800E+02  0.7815553E-02  0.1125453E+00
         25   -1    0    0    0    0  0.00000000000E+00  0.00000000000E+00  0.99999998245E-14  0.12509000000E+03  0.12509000000E+03 0.  0.
        -13    1    3    3    0    0  0.30389207126E+02  0.21449130839E+00 -0.30894745735E+02  0.43336432645E+02  0.10566000000E+00 0. -1.
         23    2    1    0    0    0  0.21850411092E+02 -0.13140827305E+02  0.17436306972E+02  0.94200736364E+02  0.88992314969E+02 0.  0.
         13    1    3    3    0    0 -0.85387960338E+01 -0.13355318613E+02  0.48331052708E+02  0.50864303719E+02  0.10566000000E+00 0.  1.
         22    1    1    0    0    0 -0.21850411092E+02  0.13140827305E+02 -0.17436306972E+02  0.30889263636E+02  0.00000000000E+00 0.  1.
</event>
<event>
 5    1  0.1262391E-009  0.9118800E+02  0.7815553E-02  0.1125453E+00
         25   -1    0    0    0    0  0.00000000000E+00  0.00000000000E+00  0.99999998245E-14  0.12509000000E+03  0.12509000000E+03 0.  0.
        -13    1    3    3    0    0  0.38328577516E+02 -0.42708030234E+02  0.14740774943E+02  0.59248268421E+02  0.10566000000E+00 0. -1.
         23    2    1    0    0    0  0.21102605040E+02 -0.17290542935E+02 -0.70651142413E+01  0.96908469635E+02  0.92720293536E+02 0.  0.
         13    1    3    3    0    0 -0.17225972477E+02  0.25417487299E+02 -0.21805889185E+02  0.37660201215E+02  0.10566000000E+00 0.  1.
         22    1    1    0    0    0 -0.21102605040E+02  0.17290542935E+02  0.70651142413E+01  0.28181530365E+02  0.00000000000E+00 0. -1.
</event>
<event>
 5    1  0.1262391E-009  0.9118800E+02  0.7815553E-02  0.1125453E+00
         25   -1    0    0    0    0  0.00000000000E+00  0.00000000000E+00  0.99999998245E-14  0.12509000000E+03  0.12509000000E+03 0.  0.
        -13    1    3    3    0    0  0.38919101645E+02  0.14609871634E+02 -0.29061875842E+02  0.50722269404E+02  0.10566000000E+00 0.  1.
         23    2    1    0    0    0  0.20621745022E+02 -0.16990109274E+02  0.14845737077E+01  0.98329504115E+02  0.94618006952E+02 0.  0.
         13    1    3    3    0    0 -0.18297356623E+02 -0.31599980908E+02  0.30546449549E+02  0.47607234711E+02  0.10566000000E+00 0. -1.
         22    1    1    0    0    0 -0.20621745022E+02  0.16990109274E+02 -0.14845737077E+01  0.26760495885E+02  0.00000000000E+00 0.  1.
</event>
<event>
 5    1  0.1262391E-009  0.9118800E+02  0.7815553E-02  0.1125453E+00
         25   -1    0    0    0    0  0.00000000000E+00  0.00000000000E+00  0.99999998245E-14  0.12509000000E+03  0.12509000000E+03 0.  0.
        -13    1    3    3    0    0 -0.40440081216E+02  0.33973637598E+02 -0.25228633824E+02  0.58532925341E+02  0.10566000000E+00 0. -1.
         23    2    1    0    0    0 -0.15947627650E+02  0.70056518614E+01 -0.24573652269E+02  0.94969070873E+02  0.90065831762E+02 0.  0.
         13    1    3    3    0    0  0.24492453566E+02 -0.26967985736E+02  0.65498155565E+00  0.36436145532E+02  0.10566000000E+00 0.  1.
         22    1    1    0    0    0  0.15947627650E+02 -0.70056518614E+01  0.24573652269E+02  0.30120929127E+02  0.00000000000E+00 0. -1.
</event>
<event>
 5    1  0.1262391E-009  0.9118800E+02  0.7815553E-02  0.1125453E+00
         25   -1    0    0    0    0  0.00000000000E+00  0.00000000000E+00  0.99999998245E-14  0.12509000000E+03  0.12509000000E+03 0.  0.
        -13    1    3    3    0    0  0.38776170833E+02  0.34639592699E+02  0.32868979356E+01  0.52099017926E+02  0.10566000000E+00 0. -1.
         23    2    1    0    0    0  0.27880167730E+02 -0.38789631409E+01  0.14161125601E+02  0.93579881213E+02  0.88115302767E+02 0.  0.
         13    1    3    3    0    0 -0.10896003102E+02 -0.38518555840E+02  0.10874227665E+02  0.41480863286E+02  0.10566000000E+00 0.  1.
         22    1    1    0    0    0 -0.27880167730E+02  0.38789631409E+01 -0.14161125601E+02  0.31510118787E+02  0.00000000000E+00 0. -1.
</event>
<event>
 5    1  0.1262391E-009  0.9118800E+02  0.7815553E-02  0.1125453E+00
         25   -1    0    0    0    0  0.00000000000E+00  0.00000000000E+00  0.99999998245E-14  0.12509000000E+03  0.12509000000E+03 0.  0.
        -13    1    3    3    0    0  0.47555350332E+02 -0.21861096143E+02  0.16576536170E+02  0.54901835900E+02  0.10566000000E+00 0.  1.
         23    2    1    0    0    0  0.27815873481E+02 -0.11671106270E+01 -0.11489695862E+02  0.94971931076E+02  0.90069804133E+02 0.  0.
         13    1    3    3    0    0 -0.19739476851E+02  0.20693985516E+02 -0.28066232032E+02  0.40070095176E+02  0.10566000000E+00 0. -1.
         22    1    1    0    0    0 -0.27815873481E+02  0.11671106270E+01  0.11489695862E+02  0.30118068924E+02  0.00000000000E+00 0.  1.
</event>
<event>
 5    1  0.1262391E-009  0.9118800E+02  0.7815553E-02  0.1125453E+00
         25   -1    0    0    0    0  0.00000000000E+00  0.00000000000E+00  0.99999998245E-14  0.12509000000E+03  0.12509000000E+03 0.  0.
        -13    1    3    3    0    0 -0.27360802705E+02 -0.34530933270E+02 -0.37569026719E+02  0.57900274695E+02  0.10566000000E+00 0.  1.
         23    2    1    0    0    0  0.20166987007E+01 -0.14667140965E+02 -0.25942046312E+02  0.95220586470E+02  0.90414480163E+02 0.  0.
         13    1    3    3    0    0  0.29377501405E+02  0.19863792305E+02  0.11626980407E+02  0.37320311775E+02  0.10566000000E+00 0. -1.
         22    1    1    0    0    0 -0.20166987007E+01  0.14667140965E+02  0.25942046312E+02  0.29869413530E+02  0.00000000000E+00 0.  1.
</event>
<event>
 5    1  0.1262391E-009  0.9118800E+02  0.7815553E-02  0.1125453E+00
         25   -1    0    0    0    0  0.00000000000E+00  0.00000000000E+00  0.99999998245E-14  0.12509000000E+03  0.12509000000E+03 0.  0.
        -13    1    3    3    0    0  0.25434501457E+02  0.46636742897E+02  0.17532073644E+02  0.55940007353E+02  0.10566000000E+00 0. -1.
         23    2    1    0    0    0 -0.46605107118E+01  0.33740962341E+02  0.71711144558E+01  0.90281986808E+02  0.83302096971E+02 0.  0.
         13    1    3    3    0    0 -0.30095012168E+02 -0.12895780556E+02 -0.10360959188E+02  0.34341979455E+02  0.10566000000E+00 0.  1.
         22    1    1    0    0    0  0.46605107118E+01 -0.33740962341E+02 -0.71711144558E+01  0.34808013192E+02  0.00000000000E+00 0. -1.
</event>
<event>
 5    1  0.1262391E-009  0.9118800E+02  0.7815553E-02  0.1125453E+00
         25   -1    0    0    0    0  0.00000000000E+00  0.00000000000E+00  0.99999998245E-14  0.12509000000E+03  0.12509000000E+03 0.  0.
        -13    1    3    3    0    0  0.41023721500E+02 -0.40180883846E+01 -0.79397774465E+01  0.41977875004E+02  0.10566000000E+00 0. -1.
         23    2    1    0    0    0  0.35680114042E+01 -0.67437895789E+01  0.29268166386E+02  0.94843761112E+02  0.89891623943E+02 0.  0.
         13    1    3    3    0    0 -0.37455710095E+02 -0.27257011942E+01  0.37207943832E+02  0.52865886108E+02  0.10566000000E+00 0.  1.
         22    1    1    0    0    0 -0.35680114042E+01  0.67437895789E+01 -0.29268166386E+02  0.30246238888E+02  0.00000000000E+00 0.  1.
</event>
<event>
 5    1  0.1262391E-009  0.9118800E+02  0.7815553E-02  0.1125453E+00
         25   -1    0    0    0    0  0.00000000000E+00  0.00000000000E+00  0.99999998245E-14  0.12509000000E+03  0.12509000000E+03 0.  0.
        -13    1    3    3    0    0 -0.10647314839E+02 -0.33012291076E+01  0.33261091002E+02  0.35079549108E+02  0.10566000000E+00 0.  1.
         23    2    1    0    0    0 -0.11741221970E+02  0.50818920732E+01 -0.26620309752E+02  0.95554888494E+02  0.90875815833E+02 0.  0.
         13    1    3    3    0    0 -0.10939071307E+01  0.83831211808E+01 -0.59881400754E+02  0.60475339386E+02  0.10566000000E+00 0. -1.
         22    1    1    0    0    0  0.11741221970E+02 -0.50818920732E+01  0.26620309752E+02  0.29535111506E+02  0.00000000000E+00 0. -1.
</event>
<event>
 5    1  0.1262391E-009  0.9118800E+02  0.7815553E-02  0.1125453E+00
         25   -1    0    0    0    0  0.00000000000E+00  0.00000000000E+00  0.99999998245E-14  0.12509000000E+03  0.12509000000E+03 0.  0.
        -13    1    3    3    0    0 -0.41872373393E+02  0.19735185030E+02  0.22456753332E+02  0.51449879650E+02  0.10566000000E+00 0.  1.
         23    2    1    0    0    0  0.35020771593E+01  0.20927309085E+02  0.18371341544E+02  0.97023596595E+02  0.92875482751E+02 0.  0.
         13    1    3    3    0    0  0.45374450552E+02  0.11921240549E+01 -0.40854117884E+01  0.45573716945E+02  0.10566000000E+00 0. -1.
         22    1    1    0    0    0 -0.35020771593E+01 -0.20927309085E+02 -0.18371341544E+02  0.28066403405E+02  0.00000000000E+00 0. -1.
</event>
<event>
 5    1  0.1262391E-009  0.9118800E+02  0.7815553E-02  0.1125453E+00
         25   -1    0    0    0    0  0.00000000000E+00  0.00000000000E+00  0.99999998245E-14  0.12509000000E+03  0.12509000000E+03 0.  0.
        -13    1    3    3    0    0  0.29669351419E+02  0.17776916231E+02  0.50246567996E+02  0.61000146915E+02  0.10566000000E+00 0. -1.
         23    2    1    0    0    0  0.52137028352E+01  0.11241018305E+02  0.27057818203E+02  0.95329813245E+02  0.90565471222E+02 0.  0.
         13    1    3    3    0    0 -0.24455648583E+02 -0.65358979260E+01 -0.23188749793E+02  0.34329666330E+02  0.10566000000E+00 0.  1.
         22    1    1    0    0    0 -0.52137028352E+01 -0.11241018305E+02 -0.27057818203E+02  0.29760186755E+02  0.00000000000E+00 0. -1.
</event>
<event>
 5    1  0.1262391E-009  0.9118800E+02  0.7815553E-02  0.1125453E+00
         25   -1    0    0    0    0  0.00000000000E+00  0.00000000000E+00  0.99999998245E-14  0.12509000000E+03  0.12509000000E+03 0.  0.
        -13    1    3    3    0    0  0.34405884938E+02  0.15291812727E+02  0.25103118615E+02  0.45252427372E+02  0.10566000000E+00 0. -1.
         23    2    1    0    0    0 -0.15323562153E+02  0.15002047485E+02  0.20875867819E+02  0.95162172765E+02  0.90333627639E+02 0.  0.
         13    1    3    3    0    0 -0.49729447091E+02 -0.28976524174E+00 -0.42272507956E+01  0.49909745393E+02  0.10566000000E+00 0.  1.
         22    1    1    0    0    0  0.15323562153E+02 -0.15002047485E+02 -0.20875867819E+02  0.29927827235E+02  0.00000000000E+00 0. -1.
</event>
<event>
 5    1  0.1262391E-009  0.9118800E+02  0.7815553E-02  0.1125453E+00
         25   -1    0    0    0    0  0.00000000000E+00  0.00000000000E+00  0.99999998245E-14  0.12509000000E+03  0.12509000000E+03 0.  0.
        -13    1    3    3    0    0  0.19952457369E+02  0.26921837628E+02 -0.11276991033E+02  0.35356294873E+02  0.10566000000E+00 0.  1.
         23    2    1    0    0    0 -0.77618553715E+01 -0.12336475579E+02  0.25397577399E+02  0.95807377743E+02  0.91222703664E+02 0.  0.
         13    1    3    3    0    0 -0.27714312741E+02 -0.39258313207E+02  0.36674568431E+02  0.60451082870E+02  0.10566000000E+00 0. -1.
         22    1    1    0    0    0  0.77618553715E+01  0.12336475579E+02 -0.25397577399E+02  0.29282622257E+02  0.00000000000E+00 0. -1.
</event>
<event>
 5    1  0.1262391E-009  0.9118800E+02  0.7815553E-02  0.1125453E+00
         25   -1    0    0    0    0  0.00000000000E+00  0.00000000000E+00  0.99999998245E-14  0.12509000000E+03  0.12509000000E+03 0.  0.
        -13    1    3    3    0    0  0.25146857176E+02 -0.49514956700E+02  0.17994025434E+02  0.58377148596E+02  0.10566000000E+00 0.  1.
         23    2    1    0    0    0  0.45351447972E+01 -0.22776494401E+02  0.22878972356E+02  0.92489637861E+02  0.86553737644E+02 0.  0.
         13    1    3    3    0    0 -0.20611712379E+02  0.26738462300E+02  0.48849469222E+01  0.34112489265E+02  0.10566000000E+00 0. -1.
         22    1    1    0    0    0 -0.45351447972E+01  0.22776494401E+02 -0.22878972356E+02  0.32600362139E+02  0.00000000000E+00 0.  1.
</event>
<event>
 5    1  0.1262391E-009  0.9118800E+02  0.7815553E-02  0.1125453E+00
         25   -1    0    0    0    0  0.00000000000E+00  0.00000000000E+00  0.99999998245E-14  0.12509000000E+03  0.12509000000E+03 0.  0.
        -13    1    3    3    0    0 -0.40682329948E+02 -0.19234081826E+02  0.24402399689E+02  0.51190723264E+02  0.10566000000E+00 0. -1.
         23    2    1    0    0    0 -0.23605097113E+02  0.17405430939E+02  0.10000805686E+02  0.94103458563E+02  0.88855473457E+02 0.  0.
         13    1    3    3    0    0  0.17077232836E+02  0.36639512764E+02 -0.14401594003E+02  0.42912735299E+02  0.10566000000E+00 0.  1.
         22    1    1    0    0    0  0.23605097113E+02 -0.17405430939E+02 -0.10000805686E+02  0.30986541437E+02  0.00000000000E+00 0. -1.
</event>
<event>
 5    1  0.1262391E-009  0.9118800E+02  0.7815553E-02  0.1125453E+00
         25   -1    0    0    0    0  0.00000000000E+00  0.00000000000E+00  0.99999998245E-14  0.12509000000E+03  0.12509000000E+03 0.  0.
        -13    1    3    3    0    0 -0.24477668262E+02  0.29044639780E+02  0.28172747613E+01  0.38087997382E+02  0.10566000000E+00 0.  1.
         23    2    1    0    0    0 -0.96469232389E+01 -0.26850184525E+02 -0.38529152752E+01  0.96300409986E+02  0.91896291930E+02 0.  0.
         13    1    3    3    0    0  0.14830745023E+02 -0.55894824305E+02 -0.66701900365E+01  0.58212412604E+02  0.10566000000E+00 0. -1.
         22    1    1    0    0    0  0.96469232389E+01  0.26850184525E+02  0.38529152752E+01  0.28789590014E+02  0.00000000000E+00 0. -1.
</event>
<event>
 5    1  0.1262391E-009  0.9118800E+02  0.7815553E-02  0.1125453E+00
         25   -1    0    0    0    0  0.00000000000E+00  0.00000000000E+00  0.99999998245E-14  0.12509000000E+03  0.12509000000E+03 0.  0.
        -13    1    3    3    0    0  0.44258751448E+02  0.26458479965E+02 -0.19185498640E+02  0.55018022174E+02  0.10566000000E+00 0.  1.
         23    2    1    0    0    0  0.24505542010E+02 -0.92138840584E+01 -0.11419474542E+02  0.96527408251E+02  0.92204766125E+02 0.  0.
         13    1    3    3    0    0 -0.19753209438E+02 -0.35672364024E+02  0.77660240977E+01  0.41509386077E+02  0.10566000000E+00 0. -1.
         22    1    1    0    0    0 -0.24505542010E+02  0.92138840584E+01  0.11419474542E+02  0.28562591749E+02  0.00000000000E+00 0.  1.
</event>
<event>
 5    1  0.1262391E-009  0.9118800E+02  0.7815553E-02  0.1125453E+00
         25   -1    0    0    0    0  0.00000000000E+00  0.00000000000E+00  0.99999998245E-14  0.12509000000E+03  0.12509000000E+03 0.  0.
        -13    1    3    3    0    0 -0.73071530843E+01  0.80134837918E+01  0.43434624818E+02  0.44768160625E+02  0.10566000000E+00 0.  1.
         23    2    1    0    0    0 -0.25337883734E+02 -0.13231935827E+02 -0.15651631520E+00  0.96504741995E+02  0.92174010721E+02 0.  0.
         13    1    3    3    0    0 -0.18030730650E+02 -0.21245419619E+02 -0.43591141133E+02  0.51736581370E+02  0.10566000000E+00 0. -1.
         22    1    1    0    0    0  0.25337883734E+02  0.13231935827E+02  0.15651631520E+00  0.28585258005E+02  0.00000000000E+00 0. -1.
</event>
<event>
 5    1  0.1262391E-009  0.9118800E+02  0.7815553E-02  0.1125453E+00
         25   -1    0    0    0    0  0.00000000000E+00  0.00000000000E+00  0.99999998245E-14  0.12509000000E+03  0.12509000000E+03 0.  0.
        -13    1    3    3    0    0 -0.80759321449E+01 -0.48134139646E+02 -0.25996087280E+02  0.55298497244E+02  0.10566000000E+00 0.  1.
         23    2    1    0    0    0 -0.11494074252E+02 -0.90137233906E+01 -0.26790573770E+02  0.94576137655E+02  0.89518433960E+02 0.  0.
         13    1    3    3    0    0 -0.34181421068E+01  0.39120416256E+02 -0.79448648968E+00  0.39277640412E+02  0.10566000000E+00 0. -1.
         22    1    1    0    0    0  0.11494074252E+02  0.90137233906E+01  0.26790573770E+02  0.30513862345E+02  0.00000000000E+00 0.  1.
</event>
<event>
 5    1  0.1262391E-009  0.9118800E+02  0.7815553E-02  0.1125453E+00
         25   -1    0    0    0    0  0.00000000000E+00  0.00000000000E+00  0.99999998245E-14  0.12509000000E+03  0.12509000000E+03 0.  0.
        -13    1    3    3    0    0  0.25212645482E+02 -0.35574961784E+02 -0.23368391508E+02  0.49470681053E+02  0.10566000000E+00 0.  1.
         23    2    1    0    0    0  0.83270939859E+01  0.73699832764E+01 -0.27130278345E+02  0.95769202760E+02  0.91170340826E+02 0.  0.
         13    1    3    3    0    0 -0.16885551497E+02  0.42944945060E+02 -0.37618868364E+01  0.46298521706E+02  0.10566000000E+00 0. -1.
         22    1    1    0    0    0 -0.83270939859E+01 -0.73699832764E+01  0.27130278345E+02  0.29320797240E+02  0.00000000000E+00 0. -1.
</event>
<event>
 5    1  0.1262391E-009  0.9118800E+02  0.7815553E-02  0.1125453E+00
         25   -1    0    0    0    0  0.00000000000E+00  0.00000000000E+00  0.99999998245E-14  0.12509000000E+03  0.12509000000E+03 0.  0.
        -13    1    3    3    0    0  0.12322944016E+01 -0.15122509535E+02 -0.27785019421E+02  0.31657973915E+02  0.10566000000E+00 0.  1.
         23    2    1    0    0    0 -0.14593507418E+02  0.22369918389E+02  0.17974429352E+02  0.92895841865E+02  0.87138818088E+02 0.  0.
         13    1    3    3    0    0 -0.15825801820E+02  0.37492427924E+02  0.45759448774E+02  0.61237867950E+02  0.10566000000E+00 0. -1.
         22    1    1    0    0    0  0.14593507418E+02 -0.22369918389E+02 -0.17974429352E+02  0.32194158135E+02  0.00000000000E+00 0. -1.
</event>
<event>
 5    1  0.1262391E-009  0.9118800E+02  0.7815553E-02  0.1125453E+00
         25   -1    0    0    0    0  0.00000000000E+00  0.00000000000E+00  0.99999998245E-14  0.12509000000E+03  0.12509000000E+03 0.  0.
        -13    1    3    3    0    0  0.10081035329E+02  0.28521172445E+02 -0.18903660687E+02  0.35671334463E+02  0.10566000000E+00 0.  1.
         23    2    1    0    0    0  0.55609759000E+01 -0.28914070020E+02 -0.26836235261E+01  0.95523976708E+02  0.90833255985E+02 0.  0.
         13    1    3    3    0    0 -0.45200594288E+01 -0.57435242465E+02  0.16220037160E+02  0.59852642246E+02  0.10566000000E+00 0. -1.
         22    1    1    0    0    0 -0.55609759000E+01  0.28914070020E+02  0.26836235261E+01  0.29566023292E+02  0.00000000000E+00 0. -1.
</event>
<event>
 5    1  0.1262391E-009  0.9118800E+02  0.7815553E-02  0.1125453E+00
         25   -1    0    0    0    0  0.00000000000E+00  0.00000000000E+00  0.99999998245E-14  0.12509000000E+03  0.12509000000E+03 0.  0.
        -13    1    3    3    0    0 -0.20890609538E+02 -0.36917277652E+00 -0.46936041381E+02  0.51376619196E+02  0.10566000000E+00 0. -1.
         23    2    1    0    0    0 -0.26969847954E+02 -0.11835309153E+02 -0.50748818738E+01  0.95203520324E+02  0.90390865770E+02 0.  0.
         13    1    3    3    0    0 -0.60792384161E+01 -0.11466136376E+02  0.41861159508E+02  0.43826901128E+02  0.10566000000E+00 0.  1.
         22    1    1    0    0    0  0.26969847954E+02  0.11835309153E+02  0.50748818738E+01  0.29886479676E+02  0.00000000000E+00 0. -1.
</event>
<event>
 5    1  0.1262391E-009  0.9118800E+02  0.7815553E-02  0.1125453E+00
         25   -1    0    0    0    0  0.00000000000E+00  0.00000000000E+00  0.99999998245E-14  0.12509000000E+03  0.12509000000E+03 0.  0.
        -13    1    3    3    0    0 -0.32238244333E+02 -0.29553867471E+01 -0.29051541468E+02  0.43497608374E+02  0.10566000000E+00 0.  1.
         23    2    1    0    0    0  0.34929392001E+01 -0.30762309672E+02 -0.11190522441E+02  0.92169670216E+02  0.86090069082E+02 0.  0.
         13    1    3    3    0    0  0.35731183533E+02 -0.27806922925E+02  0.17861019028E+02  0.48672061842E+02  0.10566000000E+00 0. -1.
         22    1    1    0    0    0 -0.34929392001E+01  0.30762309672E+02  0.11190522441E+02  0.32920329784E+02  0.00000000000E+00 0. -1.
</event>
<event>
 5    1  0.1262391E-009  0.9118800E+02  0.7815553E-02  0.1125453E+00
         25   -1    0    0    0    0  0.00000000000E+00  0.00000000000E+00  0.99999998245E-14  0.12509000000E+03  0.12509000000E+03 0.  0.
        -13    1    3    3    0    0 -0.11433916252E+02  0.44236926866E+02 -0.23022865998E+02  0.51163499315E+02  0.10566000000E+00 0. -1.
         23    2    1    0    0    0 -0.25591401969E+02  0.12551015804E+02  0.54698036372E+01  0.96066447421E+02  0.91577266370E+02 0.  0.
         13    1    3    3    0    0 -0.14157485717E+02 -0.31685911061E+02  0.28492669635E+02  0.44902948106E+02  0.10566000000E+00 0.  1.
         22    1    1    0    0    0  0.25591401969E+02 -0.12551015804E+02 -0.54698036372E+01  0.29023552579E+02  0.00000000000E+00 0.  1.
</event>
<event>
 5    1  0.1262391E-009  0.9118800E+02  0.7815553E-02  0.1125453E+00
         25   -1    0    0    0    0  0.00000000000E+00  0.00000000000E+00  0.99999998245E-14  0.12509000000E+03  0.12509000000E+03 0.  0.
        -13    1    3    3    0    0 -0.29323162816E+02  0.27007688942E+02 -0.26717013003E+02  0.47990343689E+02  0.10566000000E+00 0. -1.
         23    2    1    0    0    0 -0.22938780521E+02  0.10711566379E+02  0.16672326518E+02  0.94776772234E+02  0.89798356207E+02 0.  0.
         13    1    3    3    0    0  0.63843822951E+01 -0.16296122563E+02  0.43389339521E+02  0.46786428545E+02  0.10566000000E+00 0.  1.
         22    1    1    0    0    0  0.22938780521E+02 -0.10711566379E+02 -0.16672326518E+02  0.30313227766E+02  0.00000000000E+00 0. -1.
</event>
<event>
 5    1  0.1262391E-009  0.9118800E+02  0.7815553E-02  0.1125453E+00
         25   -1    0    0    0    0  0.00000000000E+00  0.00000000000E+00  0.99999998245E-14  0.12509000000E+03  0.12509000000E+03 0.  0.
        -13    1    3    3    0    0 -0.13764578379E+02 -0.57418717182E+01 -0.40257961625E+02  0.42931891957E+02  0.10566000000E+00 0. -1.
         23    2    1    0    0    0 -0.14220370373E+02  0.24059581881E+02  0.45770517956E+01  0.96769833740E+02  0.92533069252E+02 0.  0.
         13    1    3    3    0    0 -0.45579199415E+00  0.29801453599E+02  0.44835013421E+02  0.53837941783E+02  0.10566000000E+00 0.  1.
         22    1    1    0    0    0  0.14220370373E+02 -0.24059581881E+02 -0.45770517956E+01  0.28320166260E+02  0.00000000000E+00 0.  1.
</event>
<event>
 5    1  0.1262391E-009  0.9118800E+02  0.7815553E-02  0.1125453E+00
         25   -1    0    0    0    0  0.00000000000E+00  0.00000000000E+00  0.99999998245E-14  0.12509000000E+03  0.12509000000E+03 0.  0.
        -13    1    3    3    0    0  0.26697394774E+02  0.48704584071E+02  0.17751058519E+02  0.58309507285E+02  0.10566000000E+00 0.  1.
         23    2    1    0    0    0  0.21205745113E+02  0.18992702645E+02 -0.50697446290E+01  0.96174455907E+02  0.91724681950E+02 0.  0.
         13    1    3    3    0    0 -0.54916496605E+01 -0.29711881425E+02 -0.22820803148E+02  0.37864948622E+02  0.10566000000E+00 0. -1.
         22    1    1    0    0    0 -0.21205745113E+02 -0.18992702645E+02  0.50697446290E+01  0.28915544093E+02  0.00000000000E+00 0.  1.
</event>
<event>
 5    1  0.1262391E-009  0.9118800E+02  0.7815553E-02  0.1125453E+00
         25   -1    0    0    0    0  0.00000000000E+00  0.00000000000E+00  0.99999998245E-14  0.12509000000E+03  0.12509000000E+03 0.  0.
        -13    1    3    3    0    0  0.24151724782E+02 -0.21699098140E+02 -0.55568203610E+01  0.32940037744E+02  0.10566000000E+00 0. -1.
         23    2    1    0    0    0  0.97381655044E+00  0.12121170153E+02  0.33429712896E+02  0.89517302761E+02  0.82145789331E+02 0.  0.
         13    1    3    3    0    0 -0.23177908231E+02  0.33820268293E+02  0.38986533257E+02  0.56577265017E+02  0.10566000000E+00 0.  1.
         22    1    1    0    0    0 -0.97381655044E+00 -0.12121170153E+02 -0.33429712896E+02  0.35572697239E+02  0.00000000000E+00 0.  1.
</event>
<event>
 5    1  0.1262391E-009  0.9118800E+02  0.7815553E-02  0.1125453E+00
         25   -1    0    0    0    0  0.00000000000E+00  0.00000000000E+00  0.99999998245E-14  0.12509000000E+03  0.12509000000E+03 0.  0.
        -13    1    3    3    0    0  0.22256261840E+02  0.10605914229E+02  0.27452386069E+02  0.36898120178E+02  0.10566000000E+00 0.  1.
         23    2    1    0    0    0 -0.20145455835E+02  0.16151819081E+02 -0.13365709469E+02  0.96014875924E+02  0.91506795150E+02 0.  0.
         13    1    3    3    0    0 -0.42401717675E+02  0.55459048526E+01 -0.40818095539E+02  0.59116755746E+02  0.10566000000E+00 0. -1.
         22    1    1    0    0    0  0.20145455835E+02 -0.16151819081E+02  0.13365709469E+02  0.29075124076E+02  0.00000000000E+00 0. -1.
</event>
<event>
 5    1  0.1262391E-009  0.9118800E+02  0.7815553E-02  0.1125453E+00
         25   -1    0    0    0    0  0.00000000000E+00  0.00000000000E+00  0.99999998245E-14  0.12509000000E+03  0.12509000000E+03 0.  0.
        -13    1    3    3    0    0  0.23675949813E+02  0.39225690842E+02  0.71090432104E+01  0.46365451372E+02  0.10566000000E+00 0. -1.
         23    2    1    0    0    0  0.27667640075E+02 -0.80743166332E+01 -0.60842360183E+01  0.95633068314E+02  0.90983366232E+02 0.  0.
         13    1    3    3    0    0  0.39916902619E+01 -0.47300007475E+02 -0.13193279229E+02  0.49267616942E+02  0.10566000000E+00 0.  1.
         22    1    1    0    0    0 -0.27667640075E+02  0.80743166332E+01  0.60842360183E+01  0.29456931686E+02  0.00000000000E+00 0.  1.
</event>
<event>
 5    1  0.1262391E-009  0.9118800E+02  0.7815553E-02  0.1125453E+00
         25   -1    0    0    0    0  0.00000000000E+00  0.00000000000E+00  0.99999998245E-14  0.12509000000E+03  0.12509000000E+03 0.  0.
        -13    1    3    3    0    0  0.30623811734E+02 -0.23276448820E+02 -0.99540785975E+01  0.39732930417E+02  0.10566000000E+00 0. -1.
         23    2    1    0    0    0  0.11015499227E+02  0.24638370026E+02  0.11473262267E+02  0.95763795884E+02  0.91162922037E+02 0.  0.
         13    1    3    3    0    0 -0.19608312507E+02  0.47914818846E+02  0.21427340865E+02  0.56030865467E+02  0.10566000000E+00 0.  1.
         22    1    1    0    0    0 -0.11015499227E+02 -0.24638370026E+02 -0.11473262267E+02  0.29326204116E+02  0.00000000000E+00 0.  1.
</event>
<event>
 5    1  0.1262391E-009  0.9118800E+02  0.7815553E-02  0.1125453E+00
         25   -1    0    0    0    0  0.00000000000E+00  0.00000000000E+00  0.99999998245E-14  0.12509000000E+03  0.12509000000E+03 0.  0.
        -13    1    3    3    0    0 -0.25822135573E+02  0.46442227133E+00  0.55115609709E+02  0.60866575156E+02  0.10566000000E+00 0.  1.
         23    2    1    0    0    0 -0.21153356604E+02 -0.24495762809E+01  0.21868436456E+02  0.94566346342E+02  0.89504750868E+02 0.  0.
         13    1    3    3    0    0  0.46687789689E+01 -0.29139985522E+01 -0.33247173253E+02  0.33699771186E+02  0.10566000000E+00 0. -1.
         22    1    1    0    0    0  0.21153356604E+02  0.24495762809E+01 -0.21868436456E+02  0.30523653658E+02  0.00000000000E+00 0.  1.
</event>
<event>
 5    1  0.1262391E-009  0.9118800E+02  0.7815553E-02  0.1125453E+00
         25   -1    0    0    0    0  0.00000000000E+00  0.00000000000E+00  0.99999998245E-14  0.12509000000E+03  0.12509000000E+03 0.  0.
        -13    1    3    3    0    0  0.48130255485E+02 -0.88648067916E+01 -0.14142061067E+02  0.50942274663E+02  0.10566000000E+00 0.  1.
         23    2    1    0    0    0  0.17247860085E+02  0.21450807631E+02  0.28149883571E+01  0.97421426040E+02  0.93409765371E+02 0.  0.
         13    1    3    3    0    0 -0.30882395401E+02  0.30315614423E+02  0.16957049424E+02  0.46479151377E+02  0.10566000000E+00 0. -1.
         22    1    1    0    0    0 -0.17247860085E+02 -0.21450807631E+02 -0.28149883571E+01  0.27668573960E+02  0.00000000000E+00 0.  1.
</event>
<event>
 5    1  0.1262391E-009  0.9118800E+02  0.7815553E-02  0.1125453E+00
         25   -1    0    0    0    0  0.00000000000E+00  0.00000000000E+00  0.99999998245E-14  0.12509000000E+03  0.12509000000E+03 0.  0.
        -13    1    3    3    0    0  0.39841209529E+02 -0.22569632860E+02 -0.14687801361E+02  0.48087971230E+02  0.10566000000E+00 0. -1.
         23    2    1    0    0    0  0.20875539441E+02  0.78208202240E+01  0.17888186811E+02  0.96507827177E+02  0.92178197548E+02 0.  0.
         13    1    3    3    0    0 -0.18965670088E+02  0.30390453084E+02  0.32575988172E+02  0.48419855947E+02  0.10566000000E+00 0.  1.
         22    1    1    0    0    0 -0.20875539441E+02 -0.78208202240E+01 -0.17888186811E+02  0.28582172823E+02  0.00000000000E+00 0. -1.
</event>
<event>
 5    1  0.1262391E-009  0.9118800E+02  0.7815553E-02  0.1125453E+00
         25   -1    0    0    0    0  0.00000000000E+00  0.00000000000E+00  0.99999998245E-14  0.12509000000E+03  0.12509000000E+03 0.  0.
        -13    1    3    3    0    0 -0.26799496682E+02  0.26517821857E+01 -0.49366658788E+02  0.56234536853E+02  0.10566000000E+00 0. -1.
         23    2    1    0    0    0 -0.20993423334E+02  0.15580030212E+02 -0.11758958745E+02  0.96424092105E+02  0.92064495126E+02 0.  0.
         13    1    3    3    0    0  0.58060733475E+01  0.12928248026E+02  0.37607700044E+02  0.40189555252E+02  0.10566000000E+00 0.  1.
         22    1    1    0    0    0  0.20993423334E+02 -0.15580030212E+02  0.11758958745E+02  0.28665907895E+02  0.00000000000E+00 0. -1.
</event>
<event>
 5    1  0.1262391E-009  0.9118800E+02  0.7815553E-02  0.1125453E+00
         25   -1    0    0    0    0  0.00000000000E+00  0.00000000000E+00  0.99999998245E-14  0.12509000000E+03  0.12509000000E+03 0.  0.
        -13    1    3    3    0    0  0.30925124195E+02 -0.88181340544E+01 -0.10489909677E+02  0.33825614019E+02  0.10566000000E+00 0. -1.
         23    2    1    0    0    0 -0.22131183391E+02  0.73546449586E+01  0.17479706465E+02  0.95945185386E+02  0.91411478382E+02 0.  0.
         13    1    3    3    0    0 -0.53056307587E+02  0.16172779013E+02  0.27969616141E+02  0.62119571367E+02  0.10566000000E+00 0.  1.
         22    1    1    0    0    0  0.22131183391E+02 -0.73546449586E+01 -0.17479706465E+02  0.29144814614E+02  0.00000000000E+00 0.  1.
</event>
<event>
 5    1  0.1262391E-009  0.9118800E+02  0.7815553E-02  0.1125453E+00
         25   -1    0    0    0    0  0.00000000000E+00  0.00000000000E+00  0.99999998245E-14  0.12509000000E+03  0.12509000000E+03 0.  0.
        -13    1    3    3    0    0 -0.34749543278E+02 -0.11682573586E+01  0.76823955786E+01  0.35607947836E+02  0.10566000000E+00 0. -1.
         23    2    1    0    0    0  0.17746110244E+02 -0.93818900710E+01  0.26384380252E+02  0.91937627364E+02  0.85752244950E+02 0.  0.
         13    1    3    3    0    0  0.52495653521E+02 -0.82136327125E+01  0.18701984673E+02  0.56329679528E+02  0.10566000000E+00 0.  1.
         22    1    1    0    0    0 -0.17746110244E+02  0.93818900710E+01 -0.26384380252E+02  0.33152372636E+02  0.00000000000E+00 0.  1.
</event>
<event>
 5    1  0.1262391E-009  0.9118800E+02  0.7815553E-02  0.1125453E+00
         25   -1    0    0    0    0  0.00000000000E+00  0.00000000000E+00  0.99999998245E-14  0.12509000000E+03  0.12509000000E+03 0.  0.
        -13    1    3    3    0    0  0.26424331026E+02 -0.14989345594E+02  0.39645896293E+02  0.49947312324E+02  0.10566000000E+00 0.  1.
         23    2    1    0    0    0  0.20967075610E+01  0.19585600920E+02  0.21435217701E+02  0.95978825103E+02  0.91457500317E+02 0.  0.
         13    1    3    3    0    0 -0.24327623465E+02  0.34574946514E+02 -0.18210678592E+02  0.46031512779E+02  0.10566000000E+00 0. -1.
         22    1    1    0    0    0 -0.20967075610E+01 -0.19585600920E+02 -0.21435217701E+02  0.29111174897E+02  0.00000000000E+00 0.  1.
</event>
<event>
 5    1  0.1262391E-009  0.9118800E+02  0.7815553E-02  0.1125453E+00
         25   -1    0    0    0    0  0.00000000000E+00  0.00000000000E+00  0.99999998245E-14  0.12509000000E+03  0.12509000000E+03 0.  0.
        -13    1    3    3    0    0  0.60892506999E+01  0.87626264192E+01 -0.35667188373E+02  0.37229317565E+02  0.10566000000E+00 0.  1.
         23    2    1    0    0    0 -0.21628337660E+02 -0.17452234467E+02  0.89118929409E+01  0.95904604446E+02  0.91355929421E+02 0.  0.
         13    1    3    3    0    0 -0.27717588360E+02 -0.26214860886E+02  0.44579081314E+02  0.58675286882E+02  0.10566000000E+00 0. -1.
         22    1    1    0    0    0  0.21628337660E+02  0.17452234467E+02 -0.89118929409E+01  0.29185395554E+02  0.00000000000E+00 0. -1.
</event>
<event>
 5    1  0.1262391E-009  0.9118800E+02  0.7815553E-02  0.1125453E+00
         25   -1    0    0    0    0  0.00000000000E+00  0.00000000000E+00  0.99999998245E-14  0.12509000000E+03  0.12509000000E+03 0.  0.
        -13    1    3    3    0    0  0.40677540140E+02 -0.24074307175E+01 -0.27597376471E+02  0.49214676131E+02  0.10566000000E+00 0.  1.
         23    2    1    0    0    0 -0.49126148217E+01 -0.20069458147E+02 -0.14554690681E+02  0.99816378266E+02  0.96563727220E+02 0.  0.
         13    1    3    3    0    0 -0.45590154962E+02 -0.17662027430E+02  0.13042685790E+02  0.50601702136E+02  0.10566000000E+00 0. -1.
         22    1    1    0    0    0  0.49126148217E+01  0.20069458147E+02  0.14554690681E+02  0.25273621734E+02  0.00000000000E+00 0. -1.
</event>
<event>
 5    1  0.1262391E-009  0.9118800E+02  0.7815553E-02  0.1125453E+00
         25   -1    0    0    0    0  0.00000000000E+00  0.00000000000E+00  0.99999998245E-14  0.12509000000E+03  0.12509000000E+03 0.  0.
        -13    1    3    3    0    0 -0.40050447843E+02  0.23849517323E+02 -0.18509776542E+02  0.50154370105E+02  0.10566000000E+00 0.  1.
         23    2    1    0    0    0  0.37042126689E+01  0.27048078926E+02  0.47837248383E-01  0.97789412947E+02  0.93901263202E+02 0.  0.
         13    1    3    3    0    0  0.43754660512E+02  0.31985616026E+01  0.18557613791E+02  0.47635042841E+02  0.10566000000E+00 0. -1.
         22    1    1    0    0    0 -0.37042126689E+01 -0.27048078926E+02 -0.47837248383E-01  0.27300587053E+02  0.00000000000E+00 0. -1.
</event>
<event>
 5    1  0.1262391E-009  0.9118800E+02  0.7815553E-02  0.1125453E+00
         25   -1    0    0    0    0  0.00000000000E+00  0.00000000000E+00  0.99999998245E-14  0.12509000000E+03  0.12509000000E+03 0.  0.
        -13    1    3    3    0    0 -0.40786825185E+01  0.11485256893E+02 -0.40039284122E+02  0.41853341731E+02  0.10566000000E+00 0.  1.
         23    2    1    0    0    0 -0.20557330930E+02 -0.21351044875E+02 -0.10396103789E+01  0.95432762065E+02  0.90707553783E+02 0.  0.
         13    1    3    3    0    0 -0.16478648411E+02 -0.32836301768E+02  0.38999673743E+02  0.53579420334E+02  0.10566000000E+00 0. -1.
         22    1    1    0    0    0  0.20557330930E+02  0.21351044875E+02  0.10396103789E+01  0.29657237935E+02  0.00000000000E+00 0. -1.
</event>
<event>
 5    1  0.1262391E-009  0.9118800E+02  0.7815553E-02  0.1125453E+00
         25   -1    0    0    0    0  0.00000000000E+00  0.00000000000E+00  0.99999998245E-14  0.12509000000E+03  0.12509000000E+03 0.  0.
        -13    1    3    3    0    0  0.24883492923E+02  0.15294155407E+02 -0.13613091071E+02  0.32224630677E+02  0.10566000000E+00 0.  1.
         23    2    1    0    0    0 -0.30951340587E+02 -0.65382595056E+01 -0.81374229518E+01  0.92425769199E+02  0.86461383509E+02 0.  0.
         13    1    3    3    0    0 -0.55834833511E+02 -0.21832414913E+02  0.54756681195E+01  0.60201138523E+02  0.10566000000E+00 0. -1.
         22    1    1    0    0    0  0.30951340587E+02  0.65382595056E+01  0.81374229518E+01  0.32664230801E+02  0.00000000000E+00 0. -1.
</event>
<event>
 5    1  0.1262391E-009  0.9118800E+02  0.7815553E-02  0.1125453E+00
         25   -1    0    0    0    0  0.00000000000E+00  0.00000000000E+00  0.99999998245E-14  0.12509000000E+03  0.12509000000E+03 0.  0.
        -13    1    3    3    0    0 -0.43319180023E+02 -0.20860152943E+02  0.26557064534E+02  0.54927098771E+02  0.10566000000E+00 0. -1.
         23    2    1    0    0    0 -0.21357967032E+01 -0.18833950669E+02  0.21433471672E+02  0.96477537099E+02  0.92137083367E+02 0.  0.
         13    1    3    3    0    0  0.41183383320E+02  0.20262022738E+01 -0.51235928618E+01  0.41550438327E+02  0.10566000000E+00 0.  1.
         22    1    1    0    0    0  0.21357967032E+01  0.18833950669E+02 -0.21433471672E+02  0.28612462901E+02  0.00000000000E+00 0. -1.
</event>
<event>
 5    1  0.1262391E-009  0.9118800E+02  0.7815553E-02  0.1125453E+00
         25   -1    0    0    0    0  0.00000000000E+00  0.00000000000E+00  0.99999998245E-14  0.12509000000E+03  0.12509000000E+03 0.  0.
        -13    1    3    3    0    0  0.63286906859E+01 -0.10257785898E+01 -0.42262767420E+02  0.42746429343E+02  0.10566000000E+00 0. -1.
         23    2    1    0    0    0  0.39933208915E+00 -0.29133822687E+02  0.24051162351E+01  0.95854342413E+02  0.91287081697E+02 0.  0.
         13    1    3    3    0    0 -0.59293585968E+01 -0.28108044097E+02  0.44667883655E+02  0.53107913070E+02  0.10566000000E+00 0.  1.
         22    1    1    0    0    0 -0.39933208915E+00  0.29133822687E+02 -0.24051162351E+01  0.29235657587E+02  0.00000000000E+00 0.  1.
</event>
<event>
 5    1  0.1262391E-009  0.9118800E+02  0.7815553E-02  0.1125453E+00
         25   -1    0    0    0    0  0.00000000000E+00  0.00000000000E+00  0.99999998245E-14  0.12509000000E+03  0.12509000000E+03 0.  0.
        -13    1    3    3    0    0 -0.19453022448E+02  0.83986920413E+01 -0.26772778885E+02  0.34143095402E+02  0.10566000000E+00 0. -1.
         23    2    1    0    0    0  0.33353946540E+02 -0.46979408115E+00 -0.95090982652E+01  0.90403844173E+02  0.83484882675E+02 0.  0.
         13    1    3    3    0    0  0.52806968987E+02 -0.88684861225E+01  0.17263680620E+02  0.56260748771E+02  0.10566000000E+00 0.  1.
         22    1    1    0    0    0 -0.33353946540E+02  0.46979408115E+00  0.95090982652E+01  0.34686155827E+02  0.00000000000E+00 0.  1.
</event>
<event>
 5    1  0.1262391E-009  0.9118800E+02  0.7815553E-02  0.1125453E+00
         25   -1    0    0    0    0  0.00000000000E+00  0.00000000000E+00  0.99999998245E-14  0.12509000000E+03  0.12509000000E+03 0.  0.
        -13    1    3    3    0    0  0.35862040703E+02 -0.99460571553E+00 -0.26703824375E+02  0.44723378721E+02  0.10566000000E+00 0. -1.
         23    2    1    0    0    0 -0.17526280073E+02 -0.39597457873E+00 -0.19936129989E+02  0.98542371706E+02  0.94899011868E+02 0.  0.
         13    1    3    3    0    0 -0.53388320777E+02  0.59863113679E+00  0.67676943861E+01  0.53818992985E+02  0.10566000000E+00 0.  1.
         22    1    1    0    0    0  0.17526280073E+02  0.39597457873E+00  0.19936129989E+02  0.26547628294E+02  0.00000000000E+00 0.  1.
</event>
<event>
 5    1  0.1262391E-009  0.9118800E+02  0.7815553E-02  0.1125453E+00
         25   -1    0    0    0    0  0.00000000000E+00  0.00000000000E+00  0.99999998245E-14  0.12509000000E+03  0.12509000000E+03 0.  0.
        -13    1    3    3    0    0 -0.13687475820E+02  0.26324949263E+02  0.42586285487E+02  0.51903302628E+02  0.10566000000E+00 0.  1.
         23    2    1    0    0    0  0.19383723858E+02  0.90011052703E+01  0.21474248767E+02  0.94793267391E+02  0.89821331185E+02 0.  0.
         13    1    3    3    0    0  0.33071199679E+02 -0.17323843993E+02 -0.21112036720E+02  0.42889964763E+02  0.10566000000E+00 0. -1.
         22    1    1    0    0    0 -0.19383723858E+02 -0.90011052703E+01 -0.21474248767E+02  0.30296732609E+02  0.00000000000E+00 0.  1.
</event>
<event>
 5    1  0.1262391E-009  0.9118800E+02  0.7815553E-02  0.1125453E+00
         25   -1    0    0    0    0  0.00000000000E+00  0.00000000000E+00  0.99999998245E-14  0.12509000000E+03  0.12509000000E+03 0.  0.
        -13    1    3    3    0    0 -0.24278015838E+02 -0.85516198754E+01 -0.30087024069E+02  0.39595358780E+02  0.10566000000E+00 0.  1.
         23    2    1    0    0    0  0.20992242387E+02  0.17161988401E+02 -0.16298898865E+02  0.93453593907E+02  0.87935840381E+02 0.  0.
         13    1    3    3    0    0  0.45270258225E+02  0.25713608276E+02  0.13788125204E+02  0.53858235127E+02  0.10566000000E+00 0. -1.
         22    1    1    0    0    0 -0.20992242387E+02 -0.17161988401E+02  0.16298898865E+02  0.31636406093E+02  0.00000000000E+00 0. -1.
</event>
<event>
 5    1  0.1262391E-009  0.9118800E+02  0.7815553E-02  0.1125453E+00
         25   -1    0    0    0    0  0.00000000000E+00  0.00000000000E+00  0.99999998245E-14  0.12509000000E+03  0.12509000000E+03 0.  0.
        -13    1    3    3    0    0 -0.37464164809E+01  0.45382587460E+02  0.33911495034E+02  0.56776892663E+02  0.10566000000E+00 0.  1.
         23    2    1    0    0    0  0.57372560878E+01  0.94642318852E+01  0.28750219390E+02  0.94283135382E+02  0.89108061980E+02 0.  0.
         13    1    3    3    0    0  0.94836725687E+01 -0.35918355575E+02 -0.51612756433E+01  0.37506242719E+02  0.10566000000E+00 0. -1.
         22    1    1    0    0    0 -0.57372560878E+01 -0.94642318852E+01 -0.28750219390E+02  0.30806864618E+02  0.00000000000E+00 0. -1.
</event>
<event>
 5    1  0.1262391E-009  0.9118800E+02  0.7815553E-02  0.1125453E+00
         25   -1    0    0    0    0  0.00000000000E+00  0.00000000000E+00  0.99999998245E-14  0.12509000000E+03  0.12509000000E+03 0.  0.
        -13    1    3    3    0    0 -0.11882720437E+02 -0.12427014769E+02 -0.32359314905E+02  0.36643773908E+02  0.10566000000E+00 0.  1.
         23    2    1    0    0    0  0.27813759753E+02  0.86208618351E+01  0.55686907855E+01  0.95443165305E+02  0.90721899209E+02 0.  0.
         13    1    3    3    0    0  0.39696480190E+02  0.21047876604E+02  0.37928005690E+02  0.58799391397E+02  0.10566000000E+00 0. -1.
         22    1    1    0    0    0 -0.27813759753E+02 -0.86208618351E+01 -0.55686907855E+01  0.29646834695E+02  0.00000000000E+00 0. -1.
</event>
<event>
 5    1  0.1262391E-009  0.9118800E+02  0.7815553E-02  0.1125453E+00
         25   -1    0    0    0    0  0.00000000000E+00  0.00000000000E+00  0.99999998245E-14  0.12509000000E+03  0.12509000000E+03 0.  0.
        -13    1    3    3    0    0  0.20734665339E+02  0.29347728288E+02  0.44301654366E+01  0.36205704415E+02  0.10566000000E+00 0. -1.
         23    2    1    0    0    0 -0.21765594959E+02 -0.18472842169E+01 -0.21044587537E+02  0.94758032581E+02  0.89772247890E+02 0.  0.
         13    1    3    3    0    0 -0.42500260298E+02 -0.31195012505E+02 -0.25474752973E+02  0.58552328166E+02  0.10566000000E+00 0.  1.
         22    1    1    0    0    0  0.21765594959E+02  0.18472842169E+01  0.21044587537E+02  0.30331967419E+02  0.00000000000E+00 0.  1.
</event>
<event>
 5    1  0.1262391E-009  0.9118800E+02  0.7815553E-02  0.1125453E+00
         25   -1    0    0    0    0  0.00000000000E+00  0.00000000000E+00  0.99999998245E-14  0.12509000000E+03  0.12509000000E+03 0.  0.
        -13    1    3    3    0    0  0.16453566565E+02  0.20876152031E+02 -0.17361865575E+02  0.31748686849E+02  0.10566000000E+00 0. -1.
         23    2    1    0    0    0 -0.91666365446E+01 -0.18038644279E+02  0.23752858631E+02  0.93887144263E+02  0.88550424346E+02 0.  0.
         13    1    3    3    0    0 -0.25620203110E+02 -0.38914796310E+02  0.41114724206E+02  0.62138457415E+02  0.10566000000E+00 0.  1.
         22    1    1    0    0    0  0.91666365446E+01  0.18038644279E+02 -0.23752858631E+02  0.31202855737E+02  0.00000000000E+00 0.  1.
</event>
<event>
 5    1  0.1262391E-009  0.9118800E+02  0.7815553E-02  0.1125453E+00
         25   -1    0    0    0    0  0.00000000000E+00  0.00000000000E+00  0.99999998245E-14  0.12509000000E+03  0.12509000000E+03 0.  0.
        -13    1    3    3    0    0 -0.28304725006E+02 -0.32244695354E+02  0.36456722691E+02  0.56302589900E+02  0.10566000000E+00 0.  1.
         23    2    1    0    0    0  0.15158027697E+01 -0.27200442756E+02  0.11478813682E+02  0.95527779047E+02  0.90838492182E+02 0.  0.
         13    1    3    3    0    0  0.29820527775E+02  0.50442525978E+01 -0.24977909009E+02  0.39225189146E+02  0.10566000000E+00 0. -1.
         22    1    1    0    0    0 -0.15158027697E+01  0.27200442756E+02 -0.11478813682E+02  0.29562220953E+02  0.00000000000E+00 0.  1.
</event>
<event>
 5    1  0.1262391E-009  0.9118800E+02  0.7815553E-02  0.1125453E+00
         25   -1    0    0    0    0  0.00000000000E+00  0.00000000000E+00  0.99999998245E-14  0.12509000000E+03  0.12509000000E+03 0.  0.
        -13    1    3    3    0    0  0.27942555313E+02  0.23595676190E+02 -0.16212036487E+02  0.40004795005E+02  0.10566000000E+00 0.  1.
         23    2    1    0    0    0  0.13240552870E+02 -0.25028810955E+02  0.71015746002E+01  0.95897775351E+02  0.91346578137E+02 0.  0.
         13    1    3    3    0    0 -0.14702002443E+02 -0.48624487145E+02  0.23313611088E+02  0.55892980346E+02  0.10566000000E+00 0. -1.
         22    1    1    0    0    0 -0.13240552870E+02  0.25028810955E+02 -0.71015746002E+01  0.29192224649E+02  0.00000000000E+00 0. -1.
</event>
<event>
 5    1  0.1262391E-009  0.9118800E+02  0.7815553E-02  0.1125453E+00
         25   -1    0    0    0    0  0.00000000000E+00  0.00000000000E+00  0.99999998245E-14  0.12509000000E+03  0.12509000000E+03 0.  0.
        -13    1    3    3    0    0 -0.51600332861E+01 -0.39770534729E+02  0.21115077422E+02  0.45323051914E+02  0.10566000000E+00 0. -1.
         23    2    1    0    0    0 -0.16083190363E+02 -0.15542977509E+02 -0.20532836055E+02  0.94728008653E+02  0.89730402344E+02 0.  0.
         13    1    3    3    0    0 -0.10923157076E+02  0.24227557221E+02 -0.41647913477E+02  0.49404956740E+02  0.10566000000E+00 0.  1.
         22    1    1    0    0    0  0.16083190363E+02  0.15542977509E+02  0.20532836055E+02  0.30361991347E+02  0.00000000000E+00 0.  1.
</event>
<event>
 5    1  0.1262391E-009  0.9118800E+02  0.7815553E-02  0.1125453E+00
         25   -1    0    0    0    0  0.00000000000E+00  0.00000000000E+00  0.99999998245E-14  0.12509000000E+03  0.12509000000E+03 0.  0.
        -13    1    3    3    0    0 -0.77334620265E+01 -0.94006324101E+01 -0.31077741283E+02  0.33376870613E+02  0.10566000000E+00 0.  1.
         23    2    1    0    0    0  0.15117349814E+02  0.10675379116E+01  0.25578949265E+02  0.95358593237E+02  0.90605213736E+02 0.  0.
         13    1    3    3    0    0  0.22850811841E+02  0.10468170322E+02  0.56656690548E+02  0.61981722625E+02  0.10566000000E+00 0. -1.
         22    1    1    0    0    0 -0.15117349814E+02 -0.10675379116E+01 -0.25578949265E+02  0.29731406763E+02  0.00000000000E+00 0. -1.
</event>
<event>
 5    1  0.1262391E-009  0.9118800E+02  0.7815553E-02  0.1125453E+00
         25   -1    0    0    0    0  0.00000000000E+00  0.00000000000E+00  0.99999998245E-14  0.12509000000E+03  0.12509000000E+03 0.  0.
        -13    1    3    3    0    0  0.24420846027E+02  0.49245901141E+02 -0.20060525386E+02  0.58514719026E+02  0.10566000000E+00 0.  1.
         23    2    1    0    0    0  0.14219409663E+01  0.20335387263E+02 -0.21469434010E+02  0.95484485515E+02  0.90778854840E+02 0.  0.
         13    1    3    3    0    0 -0.22998905061E+02 -0.28910513878E+02 -0.14089086237E+01  0.36969766489E+02  0.10566000000E+00 0. -1.
         22    1    1    0    0    0 -0.14219409663E+01 -0.20335387263E+02  0.21469434010E+02  0.29605514485E+02  0.00000000000E+00 0.  1.
</event>
<event>
 5    1  0.1262391E-009  0.9118800E+02  0.7815553E-02  0.1125453E+00
         25   -1    0    0    0    0  0.00000000000E+00  0.00000000000E+00  0.99999998245E-14  0.12509000000E+03  0.12509000000E+03 0.  0.
        -13    1    3    3    0    0  0.19284376906E+02  0.26487963258E+02  0.23639703113E+01  0.32849640940E+02  0.10566000000E+00 0. -1.
         23    2    1    0    0    0 -0.86790424394E+01 -0.28881478373E+02 -0.18391467712E+00  0.94932092325E+02  0.90014458605E+02 0.  0.
         13    1    3    3    0    0 -0.27963419345E+02 -0.55369441632E+02 -0.25478849885E+01  0.62082451385E+02  0.10566000000E+00 0.  1.
         22    1    1    0    0    0  0.86790424394E+01  0.28881478373E+02  0.18391467712E+00  0.30157907675E+02  0.00000000000E+00 0.  1.
</event>
<event>
 5    1  0.1262391E-009  0.9118800E+02  0.7815553E-02  0.1125453E+00
         25   -1    0    0    0    0  0.00000000000E+00  0.00000000000E+00  0.99999998245E-14  0.12509000000E+03  0.12509000000E+03 0.  0.
        -13    1    3    3    0    0  0.34615658816E+02  0.31477432317E+02 -0.14986722395E+02  0.49129274295E+02  0.10566000000E+00 0.  1.
         23    2    1    0    0    0  0.78589209109E+01  0.80028241955E+00 -0.31169857795E+02  0.92934703006E+02  0.87194586403E+02 0.  0.
         13    1    3    3    0    0 -0.26756737905E+02 -0.30677149897E+02 -0.16183135400E+02  0.43805428711E+02  0.10566000000E+00 0. -1.
         22    1    1    0    0    0 -0.78589209109E+01 -0.80028241955E+00  0.31169857795E+02  0.32155296994E+02  0.00000000000E+00 0. -1.
</event>
<event>
 5    1  0.1262391E-009  0.9118800E+02  0.7815553E-02  0.1125453E+00
         25   -1    0    0    0    0  0.00000000000E+00  0.00000000000E+00  0.99999998245E-14  0.12509000000E+03  0.12509000000E+03 0.  0.
        -13    1    3    3    0    0  0.44443206927E+02 -0.89027131489E+01  0.80782635660E+01  0.46040487070E+02  0.10566000000E+00 0. -1.
         23    2    1    0    0    0  0.87217611497E+01  0.25545251421E+02  0.11424596832E+02  0.95778732534E+02  0.91183415188E+02 0.  0.
         13    1    3    3    0    0 -0.35721445778E+02  0.34447964570E+02  0.33463332657E+01  0.49738245464E+02  0.10566000000E+00 0.  1.
         22    1    1    0    0    0 -0.87217611497E+01 -0.25545251421E+02 -0.11424596832E+02  0.29311267466E+02  0.00000000000E+00 0.  1.
</event>
<event>
 5    1  0.1262391E-009  0.9118800E+02  0.7815553E-02  0.1125453E+00
         25   -1    0    0    0    0  0.00000000000E+00  0.00000000000E+00  0.99999998245E-14  0.12509000000E+03  0.12509000000E+03 0.  0.
        -13    1    3    3    0    0 -0.23680138013E+01 -0.15151491711E+02 -0.31501294530E+02  0.35035951700E+02  0.10566000000E+00 0. -1.
         23    2    1    0    0    0  0.11710501063E+02 -0.44985455241E+01  0.26556927570E+02  0.95719212660E+02  0.91101726237E+02 0.  0.
         13    1    3    3    0    0  0.14078514864E+02  0.10652946187E+02  0.58058222101E+02  0.60683260960E+02  0.10566000000E+00 0.  1.
         22    1    1    0    0    0 -0.11710501063E+02  0.44985455241E+01 -0.26556927570E+02  0.29370787340E+02  0.00000000000E+00 0.  1.
</event>
<event>
 5    1  0.1262391E-009  0.9118800E+02  0.7815553E-02  0.1125453E+00
         25   -1    0    0    0    0  0.00000000000E+00  0.00000000000E+00  0.99999998245E-14  0.12509000000E+03  0.12509000000E+03 0.  0.
        -13    1    3    3    0    0 -0.33027958568E+02  0.15617589276E+02 -0.11949026528E+02  0.38438854574E+02  0.10566000000E+00 0.  1.
         23    2    1    0    0    0  0.24078626828E+02  0.21917761668E+01 -0.14023672543E+02  0.97139194210E+02  0.93031045934E+02 0.  0.
         13    1    3    3    0    0  0.57106585396E+02 -0.13425813110E+02 -0.20746460158E+01  0.58700339636E+02  0.10566000000E+00 0. -1.
         22    1    1    0    0    0 -0.24078626828E+02 -0.21917761668E+01  0.14023672543E+02  0.27950805790E+02  0.00000000000E+00 0. -1.
</event>
<event>
 5    1  0.1262391E-009  0.9118800E+02  0.7815553E-02  0.1125453E+00
         25   -1    0    0    0    0  0.00000000000E+00  0.00000000000E+00  0.99999998245E-14  0.12509000000E+03  0.12509000000E+03 0.  0.
        -13    1    3    3    0    0  0.45588797088E+02  0.97596184317E+01  0.41101034893E+01  0.46802699565E+02  0.10566000000E+00 0.  1.
         23    2    1    0    0    0  0.54859494074E+01  0.21972506098E+02 -0.19751926078E+02  0.95039621485E+02  0.90163764357E+02 0.  0.
         13    1    3    3    0    0 -0.40102847680E+02  0.12212887667E+02 -0.23862029567E+02  0.48236921920E+02  0.10566000000E+00 0. -1.
         22    1    1    0    0    0 -0.54859494074E+01 -0.21972506098E+02  0.19751926078E+02  0.30050378515E+02  0.00000000000E+00 0. -1.
</event>
<event>
 5    1  0.1262391E-009  0.9118800E+02  0.7815553E-02  0.1125453E+00
         25   -1    0    0    0    0  0.00000000000E+00  0.00000000000E+00  0.99999998245E-14  0.12509000000E+03  0.12509000000E+03 0.  0.
        -13    1    3    3    0    0  0.34339579256E+01 -0.28972802686E+02  0.15722225708E+02  0.33142343124E+02  0.10566000000E+00 0.  1.
         23    2    1    0    0    0  0.85780800300E+01  0.22053114331E+02 -0.18718781641E+02  0.94918554977E+02  0.89995644251E+02 0.  0.
         13    1    3    3    0    0  0.51441221043E+01  0.51025917017E+02 -0.34441007349E+02  0.61776211852E+02  0.10566000000E+00 0. -1.
         22    1    1    0    0    0 -0.85780800300E+01 -0.22053114331E+02  0.18718781641E+02  0.30171445023E+02  0.00000000000E+00 0. -1.
</event>
<event>
 5    1  0.1262391E-009  0.9118800E+02  0.7815553E-02  0.1125453E+00
         25   -1    0    0    0    0  0.00000000000E+00  0.00000000000E+00  0.99999998245E-14  0.12509000000E+03  0.12509000000E+03 0.  0.
        -13    1    3    3    0    0 -0.23333880952E+02 -0.10335421016E+02  0.27117709262E+02  0.37238048385E+02  0.10566000000E+00 0. -1.
         23    2    1    0    0    0  0.14363791253E+02 -0.14603909227E+02 -0.19134305933E+02  0.97059403727E+02  0.92923697325E+02 0.  0.
         13    1    3    3    0    0  0.37697672205E+02 -0.42684882105E+01 -0.46252015195E+02  0.59821355342E+02  0.10566000000E+00 0.  1.
         22    1    1    0    0    0 -0.14363791253E+02  0.14603909227E+02  0.19134305933E+02  0.28030596273E+02  0.00000000000E+00 0.  1.
</event>
<event>
 5    1  0.1262391E-009  0.9118800E+02  0.7815553E-02  0.1125453E+00
         25   -1    0    0    0    0  0.00000000000E+00  0.00000000000E+00  0.99999998245E-14  0.12509000000E+03  0.12509000000E+03 0.  0.
        -13    1    3    3    0    0 -0.23611735289E+02  0.90530358078E+01 -0.40485198099E+02  0.47733991347E+02  0.10566000000E+00 0. -1.
         23    2    1    0    0    0 -0.26841733085E+01 -0.25052913997E+02 -0.10244338677E+02  0.97890739697E+02  0.94036148143E+02 0.  0.
         13    1    3    3    0    0  0.20927561980E+02 -0.34105949804E+02  0.30240859422E+02  0.50156748351E+02  0.10566000000E+00 0.  1.
         22    1    1    0    0    0  0.26841733085E+01  0.25052913997E+02  0.10244338677E+02  0.27199260303E+02  0.00000000000E+00 0. -1.
</event>
<event>
 5    1  0.1262391E-009  0.9118800E+02  0.7815553E-02  0.1125453E+00
         25   -1    0    0    0    0  0.00000000000E+00  0.00000000000E+00  0.99999998245E-14  0.12509000000E+03  0.12509000000E+03 0.  0.
        -13    1    3    3    0    0 -0.12984220596E+02  0.27199265559E+02  0.19754393019E+02  0.36036609705E+02  0.10566000000E+00 0.  1.
         23    2    1    0    0    0 -0.93884939012E+01 -0.20045489522E+02 -0.17951706232E+02  0.96590364484E+02  0.92290136453E+02 0.  0.
         13    1    3    3    0    0  0.35957266946E+01 -0.47244755080E+02 -0.37706099252E+02  0.60553754779E+02  0.10566000000E+00 0. -1.
         22    1    1    0    0    0  0.93884939012E+01  0.20045489522E+02  0.17951706232E+02  0.28499635516E+02  0.00000000000E+00 0. -1.
</event>
<event>
 5    1  0.1262391E-009  0.9118800E+02  0.7815553E-02  0.1125453E+00
         25   -1    0    0    0    0  0.00000000000E+00  0.00000000000E+00  0.99999998245E-14  0.12509000000E+03  0.12509000000E+03 0.  0.
        -13    1    3    3    0    0 -0.53329723261E+02 -0.10347589874E+02 -0.28617405638E+01  0.54399749286E+02  0.10566000000E+00 0.  1.
         23    2    1    0    0    0 -0.17820960348E+02 -0.85606310922E+00 -0.22739938496E+02  0.96186293066E+02  0.91740823515E+02 0.  0.
         13    1    3    3    0    0  0.35508762914E+02  0.94915267648E+01 -0.19878197932E+02  0.41786543780E+02  0.10566000000E+00 0. -1.
         22    1    1    0    0    0  0.17820960348E+02  0.85606310922E+00  0.22739938496E+02  0.28903706934E+02  0.00000000000E+00 0.  1.
</event>
<event>
 5    1  0.1262391E-009  0.9118800E+02  0.7815553E-02  0.1125453E+00
         25   -1    0    0    0    0  0.00000000000E+00  0.00000000000E+00  0.99999998245E-14  0.12509000000E+03  0.12509000000E+03 0.  0.
        -13    1    3    3    0    0  0.43496128263E+02  0.34938792388E+01  0.59692796572E+01  0.44042750023E+02  0.10566000000E+00 0. -1.
         23    2    1    0    0    0  0.53535199200E+01  0.14123782229E+02 -0.26058422308E+02  0.94970525019E+02  0.90067851363E+02 0.  0.
         13    1    3    3    0    0 -0.38142608343E+02  0.10629902990E+02 -0.32027701965E+02  0.50927774995E+02  0.10566000000E+00 0.  1.
         22    1    1    0    0    0 -0.53535199200E+01 -0.14123782229E+02  0.26058422308E+02  0.30119474981E+02  0.00000000000E+00 0.  1.
</event>
<event>
 5    1  0.1262391E-009  0.9118800E+02  0.7815553E-02  0.1125453E+00
         25   -1    0    0    0    0  0.00000000000E+00  0.00000000000E+00  0.99999998245E-14  0.12509000000E+03  0.12509000000E+03 0.  0.
        -13    1    3    3    0    0  0.20715135478E+02  0.40510882410E+02 -0.14636972713E+02  0.47796449300E+02  0.10566000000E+00 0.  1.
         23    2    1    0    0    0 -0.51075517937E+01  0.19193757839E+02  0.20647398536E+02  0.96440349189E+02  0.92086581324E+02 0.  0.
         13    1    3    3    0    0 -0.25822687271E+02 -0.21317124570E+02  0.35284371249E+02  0.48643899888E+02  0.10566000000E+00 0. -1.
         22    1    1    0    0    0  0.51075517937E+01 -0.19193757839E+02 -0.20647398536E+02  0.28649650811E+02  0.00000000000E+00 0.  1.
</event>
<event>
 5    1  0.1262391E-009  0.9118800E+02  0.7815553E-02  0.1125453E+00
         25   -1    0    0    0    0  0.00000000000E+00  0.00000000000E+00  0.99999998245E-14  0.12509000000E+03  0.12509000000E+03 0.  0.
        -13    1    3    3    0    0 -0.27703802252E+02 -0.30020074680E+02  0.12842622808E+02  0.42821135758E+02  0.10566000000E+00 0. -1.
         23    2    1    0    0    0  0.49877283781E+00 -0.10315581198E+02 -0.27425068362E+02  0.95784806527E+02  0.91191747417E+02 0.  0.
         13    1    3    3    0    0  0.28202575089E+02  0.19704493482E+02 -0.40267691171E+02  0.52963670769E+02  0.10566000000E+00 0.  1.
         22    1    1    0    0    0 -0.49877283781E+00  0.10315581198E+02  0.27425068362E+02  0.29305193473E+02  0.00000000000E+00 0.  1.
</event>
<event>
 5    1  0.1262391E-009  0.9118800E+02  0.7815553E-02  0.1125453E+00
         25   -1    0    0    0    0  0.00000000000E+00  0.00000000000E+00  0.99999998245E-14  0.12509000000E+03  0.12509000000E+03 0.  0.
        -13    1    3    3    0    0 -0.21051886085E+01 -0.23605689274E+02 -0.25771484017E+02  0.35012011334E+02  0.10566000000E+00 0.  1.
         23    2    1    0    0    0 -0.11529255346E+01  0.18374546310E+01  0.29313334567E+02  0.95696513303E+02  0.91070552859E+02 0.  0.
         13    1    3    3    0    0  0.95226307393E+00  0.25443143905E+02  0.55084818584E+02  0.60684501969E+02  0.10566000000E+00 0. -1.
         22    1    1    0    0    0  0.11529255346E+01 -0.18374546310E+01 -0.29313334567E+02  0.29393486697E+02  0.00000000000E+00 0. -1.
</event>
<event>
 5    1  0.1262391E-009  0.9118800E+02  0.7815553E-02  0.1125453E+00
         25   -1    0    0    0    0  0.00000000000E+00  0.00000000000E+00  0.99999998245E-14  0.12509000000E+03  0.12509000000E+03 0.  0.
        -13    1    3    3    0    0  0.14910248950E+02 -0.25575946099E+02  0.25862577913E+02  0.39310668310E+02  0.10566000000E+00 0. -1.
         23    2    1    0    0    0  0.19074014934E+02 -0.67297318218E+01 -0.24543728629E+02  0.93285881538E+02  0.87696942610E+02 0.  0.
         13    1    3    3    0    0  0.41637659848E+01  0.18846214277E+02 -0.50406306543E+02  0.53975213228E+02  0.10566000000E+00 0.  1.
         22    1    1    0    0    0 -0.19074014934E+02  0.67297318218E+01  0.24543728629E+02  0.31804118462E+02  0.00000000000E+00 0.  1.
</event>
<event>
 5    1  0.1262391E-009  0.9118800E+02  0.7815553E-02  0.1125453E+00
         25   -1    0    0    0    0  0.00000000000E+00  0.00000000000E+00  0.99999998245E-14  0.12509000000E+03  0.12509000000E+03 0.  0.
        -13    1    3    3    0    0  0.23418282582E+02 -0.29649921831E+02  0.16488144047E+01  0.37818825692E+02  0.10566000000E+00 0. -1.
         23    2    1    0    0    0 -0.45306029950E-02  0.20299186263E+02  0.20616995229E+02  0.96157017511E+02  0.91700897165E+02 0.  0.
         13    1    3    3    0    0 -0.23422813185E+02  0.49949108094E+02  0.18968180824E+02  0.58338191819E+02  0.10566000000E+00 0.  1.
         22    1    1    0    0    0  0.45306029950E-02 -0.20299186263E+02 -0.20616995229E+02  0.28932982489E+02  0.00000000000E+00 0.  1.
</event>
<event>
 5    1  0.1262391E-009  0.9118800E+02  0.7815553E-02  0.1125453E+00
         25   -1    0    0    0    0  0.00000000000E+00  0.00000000000E+00  0.99999998245E-14  0.12509000000E+03  0.12509000000E+03 0.  0.
        -13    1    3    3    0    0 -0.18582947945E+02  0.25688409528E+02 -0.40278849584E+01  0.31960215263E+02  0.10566000000E+00 0.  1.
         23    2    1    0    0    0  0.16021813856E+02 -0.13079543695E+02 -0.28883837231E+02  0.89564670506E+02  0.82217888364E+02 0.  0.
         13    1    3    3    0    0  0.34604761801E+02 -0.38767953223E+02 -0.24855952272E+02  0.57604455243E+02  0.10566000000E+00 0. -1.
         22    1    1    0    0    0 -0.16021813856E+02  0.13079543695E+02  0.28883837231E+02  0.35525329494E+02  0.00000000000E+00 0. -1.
</event>
<event>
 5    1  0.1262391E-009  0.9118800E+02  0.7815553E-02  0.1125453E+00
         25   -1    0    0    0    0  0.00000000000E+00  0.00000000000E+00  0.99999998245E-14  0.12509000000E+03  0.12509000000E+03 0.  0.
        -13    1    3    3    0    0 -0.37166635647E+02 -0.26219175580E+02 -0.12220270351E+02  0.47097241373E+02  0.10566000000E+00 0.  1.
         23    2    1    0    0    0  0.56654753282E+01 -0.25594226691E+02  0.11948186274E+02  0.96281646944E+02  0.91870747969E+02 0.  0.
         13    1    3    3    0    0  0.42832110975E+02  0.62494888940E+00  0.24168456625E+02  0.49184405571E+02  0.10566000000E+00 0. -1.
         22    1    1    0    0    0 -0.56654753282E+01  0.25594226691E+02 -0.11948186274E+02  0.28808353056E+02  0.00000000000E+00 0.  1.
</event>
<event>
 5    1  0.1262391E-009  0.9118800E+02  0.7815553E-02  0.1125453E+00
         25   -1    0    0    0    0  0.00000000000E+00  0.00000000000E+00  0.99999998245E-14  0.12509000000E+03  0.12509000000E+03 0.  0.
        -13    1    3    3    0    0  0.22940957333E+02  0.49474540005E+01  0.26129766673E+02  0.35121798001E+02  0.10566000000E+00 0.  1.
         23    2    1    0    0    0 -0.27834630078E+02  0.70801415759E+01 -0.66660716472E+01  0.95605571101E+02  0.90945553371E+02 0.  0.
         13    1    3    3    0    0 -0.50775587411E+02  0.21326875754E+01 -0.32795838320E+02  0.60483773099E+02  0.10566000000E+00 0. -1.
         22    1    1    0    0    0  0.27834630078E+02 -0.70801415759E+01  0.66660716472E+01  0.29484428899E+02  0.00000000000E+00 0. -1.
</event>
<event>
 5    1  0.1262391E-009  0.9118800E+02  0.7815553E-02  0.1125453E+00
         25   -1    0    0    0    0  0.00000000000E+00  0.00000000000E+00  0.99999998245E-14  0.12509000000E+03  0.12509000000E+03 0.  0.
        -13    1    3    3    0    0  0.24804876092E+02  0.34946907721E+00  0.30053244132E+02  0.38969380974E+02  0.10566000000E+00 0. -1.
         23    2    1    0    0    0 -0.11507179540E+02 -0.18330602170E+02 -0.14215404316E+02  0.99195910389E+02  0.95756591216E+02 0.  0.
         13    1    3    3    0    0 -0.36312055633E+02 -0.18680071248E+02 -0.44268648447E+02  0.60226529416E+02  0.10566000000E+00 0.  1.
         22    1    1    0    0    0  0.11507179540E+02  0.18330602170E+02  0.14215404316E+02  0.25894089611E+02  0.00000000000E+00 0.  1.
</event>
<event>
 5    1  0.1262391E-009  0.9118800E+02  0.7815553E-02  0.1125453E+00
         25   -1    0    0    0    0  0.00000000000E+00  0.00000000000E+00  0.99999998245E-14  0.12509000000E+03  0.12509000000E+03 0.  0.
        -13    1    3    3    0    0 -0.40025212168E+01 -0.69008457529E+01  0.32034134151E+02  0.33012706085E+02  0.10566000000E+00 0.  1.
         23    2    1    0    0    0 -0.14602518766E+02  0.20030676786E+02 -0.20454442867E+02  0.92952081588E+02  0.87219514283E+02 0.  0.
         13    1    3    3    0    0 -0.10599997549E+02  0.26931522539E+02 -0.52488577018E+02  0.59939375504E+02  0.10566000000E+00 0. -1.
         22    1    1    0    0    0  0.14602518766E+02 -0.20030676786E+02  0.20454442867E+02  0.32137918412E+02  0.00000000000E+00 0. -1.
</event>
<event>
 5    1  0.1262391E-009  0.9118800E+02  0.7815553E-02  0.1125453E+00
         25   -1    0    0    0    0  0.00000000000E+00  0.00000000000E+00  0.99999998245E-14  0.12509000000E+03  0.12509000000E+03 0.  0.
        -13    1    3    3    0    0 -0.48236613580E+02 -0.12698646760E+02 -0.32051539509E+01  0.49983104097E+02  0.10566000000E+00 0. -1.
         23    2    1    0    0    0 -0.10626154465E+02 -0.13838977034E+02  0.23279808510E+02  0.95997356113E+02  0.91482842393E+02 0.  0.
         13    1    3    3    0    0  0.37610459115E+02 -0.11403302743E+01  0.26484962461E+02  0.46014252016E+02  0.10566000000E+00 0.  1.
         22    1    1    0    0    0  0.10626154465E+02  0.13838977034E+02 -0.23279808510E+02  0.29092643887E+02  0.00000000000E+00 0.  1.
</event>
<event>
 5    1  0.1262391E-009  0.9118800E+02  0.7815553E-02  0.1125453E+00
         25   -1    0    0    0    0  0.00000000000E+00  0.00000000000E+00  0.99999998245E-14  0.12509000000E+03  0.12509000000E+03 0.  0.
        -13    1    3    3    0    0  0.44870196649E+01 -0.31541245285E+02  0.52727480173E+02  0.61605047106E+02  0.10566000000E+00 0.  1.
         23    2    1    0    0    0  0.93855554492E+01 -0.12260184031E+02  0.24190260342E+02  0.96392100095E+02  0.92021016631E+02 0.  0.
         13    1    3    3    0    0  0.48985357843E+01  0.19281061254E+02 -0.28537219831E+02  0.34787052989E+02  0.10566000000E+00 0. -1.
         22    1    1    0    0    0 -0.93855554492E+01  0.12260184031E+02 -0.24190260342E+02  0.28697899905E+02  0.00000000000E+00 0.  1.
</event>
<event>
 5    1  0.1262391E-009  0.9118800E+02  0.7815553E-02  0.1125453E+00
         25   -1    0    0    0    0  0.00000000000E+00  0.00000000000E+00  0.99999998245E-14  0.12509000000E+03  0.12509000000E+03 0.  0.
        -13    1    3    3    0    0  0.22516857630E+02 -0.16835980308E+01 -0.34067434144E+02  0.40871073060E+02  0.10566000000E+00 0.  1.
         23    2    1    0    0    0 -0.10575785841E+02 -0.19555495889E+02  0.11584848950E+02  0.10002062843E+03  0.96827954234E+02 0.  0.
         13    1    3    3    0    0 -0.33092643471E+02 -0.17871897858E+02  0.45652283094E+02  0.59149555372E+02  0.10566000000E+00 0. -1.
         22    1    1    0    0    0  0.10575785841E+02  0.19555495889E+02 -0.11584848950E+02  0.25069371568E+02  0.00000000000E+00 0. -1.
</event>
<event>
 5    1  0.1262391E-009  0.9118800E+02  0.7815553E-02  0.1125453E+00
         25   -1    0    0    0    0  0.00000000000E+00  0.00000000000E+00  0.99999998245E-14  0.12509000000E+03  0.12509000000E+03 0.  0.
        -13    1    3    3    0    0  0.41420442720E+02 -0.26597117588E+02  0.12616525261E+02  0.50815820497E+02  0.10566000000E+00 0. -1.
         23    2    1    0    0    0  0.17344300649E+02  0.10753444563E+02  0.20743614545E+02  0.95990878375E+02  0.91473984563E+02 0.  0.
         13    1    3    3    0    0 -0.24076142071E+02  0.37350562151E+02  0.81270892835E+01  0.45175057878E+02  0.10566000000E+00 0.  1.
         22    1    1    0    0    0 -0.17344300649E+02 -0.10753444563E+02 -0.20743614545E+02  0.29099121625E+02  0.00000000000E+00 0. -1.
</event>
<event>
 5    1  0.1262391E-009  0.9118800E+02  0.7815553E-02  0.1125453E+00
         25   -1    0    0    0    0  0.00000000000E+00  0.00000000000E+00  0.99999998245E-14  0.12509000000E+03  0.12509000000E+03 0.  0.
        -13    1    3    3    0    0  0.34484839855E+02 -0.78019807856E+01  0.22524785923E+02  0.41921977875E+02  0.10566000000E+00 0.  1.
         23    2    1    0    0    0 -0.14473770057E+02  0.15826588059E+02  0.19064910944E+02  0.96394325438E+02  0.92024041631E+02 0.  0.
         13    1    3    3    0    0 -0.48958609912E+02  0.23628568844E+02 -0.34598749794E+01  0.54472347564E+02  0.10566000000E+00 0. -1.
         22    1    1    0    0    0  0.14473770057E+02 -0.15826588059E+02 -0.19064910944E+02  0.28695674562E+02  0.00000000000E+00 0. -1.
</event>
<event>
 5    1  0.1262391E-009  0.9118800E+02  0.7815553E-02  0.1125453E+00
         25   -1    0    0    0    0  0.00000000000E+00  0.00000000000E+00  0.99999998245E-14  0.12509000000E+03  0.12509000000E+03 0.  0.
        -13    1    3    3    0    0 -0.19044092159E+02  0.34029926953E+02 -0.89402294686E+01  0.40008152189E+02  0.10566000000E+00 0.  1.
         23    2    1    0    0    0  0.62162103052E+01 -0.11282698127E+02 -0.27190254093E+02  0.95002619502E+02  0.90112414500E+02 0.  0.
         13    1    3    3    0    0  0.25260302464E+02 -0.45312625080E+02 -0.18250024624E+02  0.54994467313E+02  0.10566000000E+00 0. -1.
         22    1    1    0    0    0 -0.62162103052E+01  0.11282698127E+02  0.27190254093E+02  0.30087380498E+02  0.00000000000E+00 0. -1.
</event>
<event>
 5    1  0.1262391E-009  0.9118800E+02  0.7815553E-02  0.1125453E+00
         25   -1    0    0    0    0  0.00000000000E+00  0.00000000000E+00  0.99999998245E-14  0.12509000000E+03  0.12509000000E+03 0.  0.
        -13    1    3    3    0    0 -0.36198248837E+02  0.16228616815E+02 -0.66389969426E+01  0.40221495087E+02  0.10566000000E+00 0.  1.
         23    2    1    0    0    0  0.17890214708E+02  0.21462780027E+02 -0.11700379218E+02  0.94797928717E+02  0.89827822562E+02 0.  0.
         13    1    3    3    0    0  0.54088463545E+02  0.52341632118E+01 -0.50613822752E+01  0.54576433630E+02  0.10566000000E+00 0. -1.
         22    1    1    0    0    0 -0.17890214708E+02 -0.21462780027E+02  0.11700379218E+02  0.30292071283E+02  0.00000000000E+00 0. -1.
</event>
<event>
 5    1  0.1262391E-009  0.9118800E+02  0.7815553E-02  0.1125453E+00
         25   -1    0    0    0    0  0.00000000000E+00  0.00000000000E+00  0.99999998245E-14  0.12509000000E+03  0.12509000000E+03 0.  0.
        -13    1    3    3    0    0 -0.59766409687E+00 -0.24548086188E+02 -0.33039560186E+02  0.41165391280E+02  0.10566000000E+00 0.  1.
         23    2    1    0    0    0  0.71992182297E+01  0.25497156904E+02 -0.11769969123E+02  0.96099209627E+02  0.91622006988E+02 0.  0.
         13    1    3    3    0    0  0.77968823265E+01  0.50045243092E+02  0.21269591064E+02  0.54933818347E+02  0.10566000000E+00 0. -1.
         22    1    1    0    0    0 -0.71992182297E+01 -0.25497156904E+02  0.11769969123E+02  0.28990790373E+02  0.00000000000E+00 0. -1.
</event>
<event>
 5    1  0.1262391E-009  0.9118800E+02  0.7815553E-02  0.1125453E+00
         25   -1    0    0    0    0  0.00000000000E+00  0.00000000000E+00  0.99999998245E-14  0.12509000000E+03  0.12509000000E+03 0.  0.
        -13    1    3    3    0    0  0.28522269726E+02 -0.11736145873E+02  0.44426968236E+02  0.54083487877E+02  0.10566000000E+00 0.  1.
         23    2    1    0    0    0  0.11436886113E+02  0.17327398170E+02  0.23356417658E+02  0.93839986606E+02  0.88483782407E+02 0.  0.
         13    1    3    3    0    0 -0.17085383612E+02  0.29063544043E+02 -0.21070550578E+02  0.39756498729E+02  0.10566000000E+00 0. -1.
         22    1    1    0    0    0 -0.11436886113E+02 -0.17327398170E+02 -0.23356417658E+02  0.31250013394E+02  0.00000000000E+00 0.  1.
</event>
<event>
 5    1  0.1262391E-009  0.9118800E+02  0.7815553E-02  0.1125453E+00
         25   -1    0    0    0    0  0.00000000000E+00  0.00000000000E+00  0.99999998245E-14  0.12509000000E+03  0.12509000000E+03 0.  0.
        -13    1    3    3    0    0 -0.18134567456E+01  0.11950476473E+02  0.57086118092E+02  0.58351851352E+02  0.10566000000E+00 0. -1.
         23    2    1    0    0    0  0.14990745279E+02  0.77013623688E+01  0.23189771811E+02  0.96422964175E+02  0.92062962571E+02 0.  0.
         13    1    3    3    0    0  0.16804202024E+02 -0.42491141038E+01 -0.33896346282E+02  0.38071112824E+02  0.10566000000E+00 0.  1.
         22    1    1    0    0    0 -0.14990745279E+02 -0.77013623688E+01 -0.23189771811E+02  0.28667035825E+02  0.00000000000E+00 0. -1.
</event>
<event>
 5    1  0.1262391E-009  0.9118800E+02  0.7815553E-02  0.1125453E+00
         25   -1    0    0    0    0  0.00000000000E+00  0.00000000000E+00  0.99999998245E-14  0.12509000000E+03  0.12509000000E+03 0.  0.
        -13    1    3    3    0    0 -0.87532057533E+01 -0.14742861730E+02  0.36144999801E+02  0.40005534087E+02  0.10566000000E+00 0.  1.
         23    2    1    0    0    0  0.27490984617E+02 -0.97169462340E+01 -0.54742783098E+01  0.95422829553E+02  0.90693855346E+02 0.  0.
         13    1    3    3    0    0  0.36244190371E+02  0.50259154957E+01 -0.41619278111E+02  0.55417295465E+02  0.10566000000E+00 0. -1.
         22    1    1    0    0    0 -0.27490984617E+02  0.97169462340E+01  0.54742783098E+01  0.29667170447E+02  0.00000000000E+00 0. -1.
</event>
<event>
 5    1  0.1262391E-009  0.9118800E+02  0.7815553E-02  0.1125453E+00
         25   -1    0    0    0    0  0.00000000000E+00  0.00000000000E+00  0.99999998245E-14  0.12509000000E+03  0.12509000000E+03 0.  0.
        -13    1    3    3    0    0 -0.51408660091E+02 -0.29624058905E+02  0.78161054003E+01  0.59845951125E+02  0.10566000000E+00 0. -1.
         23    2    1    0    0    0 -0.29172535175E+02 -0.19000541339E+01  0.34910637165E+01  0.95647946061E+02  0.91003818852E+02 0.  0.
         13    1    3    3    0    0  0.22236124915E+02  0.27724004771E+02 -0.43250416838E+01  0.35801994936E+02  0.10566000000E+00 0.  1.
         22    1    1    0    0    0  0.29172535175E+02  0.19000541339E+01 -0.34910637165E+01  0.29442053939E+02  0.00000000000E+00 0. -1.
</event>
<event>
 5    1  0.1262391E-009  0.9118800E+02  0.7815553E-02  0.1125453E+00
         25   -1    0    0    0    0  0.00000000000E+00  0.00000000000E+00  0.99999998245E-14  0.12509000000E+03  0.12509000000E+03 0.  0.
        -13    1    3    3    0    0  0.31089260593E+02 -0.16980123574E+02  0.50944759149E+02  0.62050353501E+02  0.10566000000E+00 0.  1.
         23    2    1    0    0    0  0.19558713128E+02 -0.60664654427E+01  0.22205359476E+02  0.94883655440E+02  0.89947122344E+02 0.  0.
         13    1    3    3    0    0 -0.11530547465E+02  0.10913658131E+02 -0.28739399673E+02  0.32833301939E+02  0.10566000000E+00 0. -1.
         22    1    1    0    0    0 -0.19558713128E+02  0.60664654427E+01 -0.22205359476E+02  0.30206344560E+02  0.00000000000E+00 0.  1.
</event>
<event>
 5    1  0.1262391E-009  0.9118800E+02  0.7815553E-02  0.1125453E+00
         25   -1    0    0    0    0  0.00000000000E+00  0.00000000000E+00  0.99999998245E-14  0.12509000000E+03  0.12509000000E+03 0.  0.
        -13    1    3    3    0    0  0.37572093166E+02  0.99946014273E+01  0.41179829995E+02  0.56633415975E+02  0.10566000000E+00 0. -1.
         23    2    1    0    0    0  0.28236917175E+02 -0.89282204700E+01  0.10914880757E+02  0.93527819558E+02  0.88041364125E+02 0.  0.
         13    1    3    3    0    0 -0.93351759906E+01 -0.18922821897E+02 -0.30264949238E+02  0.36894403583E+02  0.10566000000E+00 0.  1.
         22    1    1    0    0    0 -0.28236917175E+02  0.89282204700E+01 -0.10914880757E+02  0.31562180442E+02  0.00000000000E+00 0. -1.
</event>
<event>
 5    1  0.1262391E-009  0.9118800E+02  0.7815553E-02  0.1125453E+00
         25   -1    0    0    0    0  0.00000000000E+00  0.00000000000E+00  0.99999998245E-14  0.12509000000E+03  0.12509000000E+03 0.  0.
        -13    1    3    3    0    0  0.17733982552E+02 -0.10231434704E+02 -0.44798077615E+02  0.49255002947E+02  0.10566000000E+00 0. -1.
         23    2    1    0    0    0  0.28983686104E+02 -0.90198905270E+01 -0.75769107120E+00  0.94725768064E+02  0.89727278763E+02 0.  0.
         13    1    3    3    0    0  0.11249703553E+02  0.12115441773E+01  0.44040386544E+02  0.45470765117E+02  0.10566000000E+00 0.  1.
         22    1    1    0    0    0 -0.28983686104E+02  0.90198905270E+01  0.75769107120E+00  0.30364231936E+02  0.00000000000E+00 0. -1.
</event>
<event>
 5    1  0.1262391E-009  0.9118800E+02  0.7815553E-02  0.1125453E+00
         25   -1    0    0    0    0  0.00000000000E+00  0.00000000000E+00  0.99999998245E-14  0.12509000000E+03  0.12509000000E+03 0.  0.
        -13    1    3    3    0    0 -0.14701399143E+02  0.32489821345E+02  0.27281087127E+01  0.35765533254E+02  0.10566000000E+00 0. -1.
         23    2    1    0    0    0 -0.82813749746E+01 -0.26653808632E+02  0.94215081619E+01  0.95632038392E+02  0.90981950215E+02 0.  0.
         13    1    3    3    0    0  0.64200241684E+01 -0.59143629977E+02  0.66933994491E+01  0.59866505138E+02  0.10566000000E+00 0.  1.
         22    1    1    0    0    0  0.82813749746E+01  0.26653808632E+02 -0.94215081619E+01  0.29457961608E+02  0.00000000000E+00 0.  1.
</event>
<event>
 5    1  0.1262391E-009  0.9118800E+02  0.7815553E-02  0.1125453E+00
         25   -1    0    0    0    0  0.00000000000E+00  0.00000000000E+00  0.99999998245E-14  0.12509000000E+03  0.12509000000E+03 0.  0.
        -13    1    3    3    0    0  0.49939273532E+02  0.11429035227E+02  0.66060609139E+01  0.51654671541E+02  0.10566000000E+00 0. -1.
         23    2    1    0    0    0  0.11104884434E+02 -0.23012346740E+01  0.25657805577E+02  0.97037600346E+02  0.92894341886E+02 0.  0.
         13    1    3    3    0    0 -0.38834389098E+02 -0.13730269901E+02  0.19051744663E+02  0.45382928805E+02  0.10566000000E+00 0.  1.
         22    1    1    0    0    0 -0.11104884434E+02  0.23012346740E+01 -0.25657805577E+02  0.28052399654E+02  0.00000000000E+00 0. -1.
</event>
<event>
 5    1  0.1262391E-009  0.9118800E+02  0.7815553E-02  0.1125453E+00
         25   -1    0    0    0    0  0.00000000000E+00  0.00000000000E+00  0.99999998245E-14  0.12509000000E+03  0.12509000000E+03 0.  0.
        -13    1    3    3    0    0 -0.15178935133E+02 -0.33894148039E+02 -0.75685130907E+01  0.37901278310E+02  0.10566000000E+00 0. -1.
         23    2    1    0    0    0  0.24145708140E+02  0.97682927245E+01 -0.11118632764E+02  0.96769358079E+02  0.92532426230E+02 0.  0.
         13    1    3    3    0    0  0.39324643272E+02  0.43662440764E+02 -0.35501196728E+01  0.58868079769E+02  0.10566000000E+00 0.  1.
         22    1    1    0    0    0 -0.24145708140E+02 -0.97682927245E+01  0.11118632764E+02  0.28320641921E+02  0.00000000000E+00 0.  1.
</event>
<event>
 5    1  0.1262391E-009  0.9118800E+02  0.7815553E-02  0.1125453E+00
         25   -1    0    0    0    0  0.00000000000E+00  0.00000000000E+00  0.99999998245E-14  0.12509000000E+03  0.12509000000E+03 0.  0.
        -13    1    3    3    0    0 -0.46401058300E+01 -0.46019306805E+02 -0.14831320152E+02  0.48572486064E+02  0.10566000000E+00 0.  1.
         23    2    1    0    0    0 -0.27588847247E+02 -0.53632331197E+01 -0.87579011022E+01  0.95651766465E+02  0.91009070066E+02 0.  0.
         13    1    3    3    0    0 -0.22948741417E+02  0.40656073685E+02  0.60734190496E+01  0.47079280402E+02  0.10566000000E+00 0. -1.
         22    1    1    0    0    0  0.27588847247E+02  0.53632331197E+01  0.87579011022E+01  0.29438233535E+02  0.00000000000E+00 0. -1.
</event>
<event>
 5    1  0.1262391E-009  0.9118800E+02  0.7815553E-02  0.1125453E+00
         25   -1    0    0    0    0  0.00000000000E+00  0.00000000000E+00  0.99999998245E-14  0.12509000000E+03  0.12509000000E+03 0.  0.
        -13    1    3    3    0    0  0.12339128057E+02  0.22761995005E+02 -0.50832476171E+02  0.57046597580E+02  0.10566000000E+00 0.  1.
         23    2    1    0    0    0 -0.90256088293E+01  0.20826393833E+02 -0.18705950837E+02  0.95677198509E+02  0.91044019150E+02 0.  0.
         13    1    3    3    0    0 -0.21364736886E+02 -0.19356011719E+01  0.32126525333E+02  0.38630600929E+02  0.10566000000E+00 0. -1.
         22    1    1    0    0    0  0.90256088293E+01 -0.20826393833E+02  0.18705950837E+02  0.29412801491E+02  0.00000000000E+00 0.  1.
</event>
<event>
 5    1  0.1262391E-009  0.9118800E+02  0.7815553E-02  0.1125453E+00
         25   -1    0    0    0    0  0.00000000000E+00  0.00000000000E+00  0.99999998245E-14  0.12509000000E+03  0.12509000000E+03 0.  0.
        -13    1    3    3    0    0 -0.87995127920E+01 -0.33684631549E+01  0.48260896408E+02  0.49172179691E+02  0.10566000000E+00 0.  1.
         23    2    1    0    0    0 -0.12070842843E+02 -0.25789006232E+02  0.77648598697E+01  0.95576085686E+02  0.90904988954E+02 0.  0.
         13    1    3    3    0    0 -0.32713300509E+01 -0.22420543077E+02 -0.40496036539E+02  0.46403905994E+02  0.10566000000E+00 0. -1.
         22    1    1    0    0    0  0.12070842843E+02  0.25789006232E+02 -0.77648598697E+01  0.29513914314E+02  0.00000000000E+00 0.  1.
</event>
<event>
 5    1  0.1262391E-009  0.9118800E+02  0.7815553E-02  0.1125453E+00
         25   -1    0    0    0    0  0.00000000000E+00  0.00000000000E+00  0.99999998245E-14  0.12509000000E+03  0.12509000000E+03 0.  0.
        -13    1    3    3    0    0 -0.77506721232E+01  0.41195523523E+02  0.90828258788E+01  0.42891175860E+02  0.10566000000E+00 0. -1.
         23    2    1    0    0    0 -0.23317474547E+02 -0.12014994744E+02  0.38397658411E+01  0.98579463988E+02  0.94947892027E+02 0.  0.
         13    1    3    3    0    0 -0.15566802424E+02 -0.53210518267E+02 -0.52430600377E+01  0.55688288127E+02  0.10566000000E+00 0.  1.
         22    1    1    0    0    0  0.23317474547E+02  0.12014994744E+02 -0.38397658411E+01  0.26510536012E+02  0.00000000000E+00 0. -1.
</event>
<event>
 5    1  0.1262391E-009  0.9118800E+02  0.7815553E-02  0.1125453E+00
         25   -1    0    0    0    0  0.00000000000E+00  0.00000000000E+00  0.99999998245E-14  0.12509000000E+03  0.12509000000E+03 0.  0.
        -13    1    3    3    0    0  0.19057835824E+02 -0.29497235744E+02  0.21946129118E+02  0.41411734691E+02  0.10566000000E+00 0.  1.
         23    2    1    0    0    0 -0.21444163422E+02 -0.13397365902E+02 -0.12423493276E+02  0.96917588971E+02  0.92732595720E+02 0.  0.
         13    1    3    3    0    0 -0.40501999246E+02  0.16099869842E+02 -0.34369622394E+02  0.55505854280E+02  0.10566000000E+00 0. -1.
         22    1    1    0    0    0  0.21444163422E+02  0.13397365902E+02  0.12423493276E+02  0.28172411029E+02  0.00000000000E+00 0. -1.
</event>
<event>
 5    1  0.1262391E-009  0.9118800E+02  0.7815553E-02  0.1125453E+00
         25   -1    0    0    0    0  0.00000000000E+00  0.00000000000E+00  0.99999998245E-14  0.12509000000E+03  0.12509000000E+03 0.  0.
        -13    1    3    3    0    0  0.42455363184E+02 -0.14607066457E+02  0.35386648675E+02  0.57166863846E+02  0.10566000000E+00 0.  1.
         23    2    1    0    0    0  0.47322817482E+01 -0.12750344560E+02  0.25470699760E+02  0.96215749824E+02  0.91780979462E+02 0.  0.
         13    1    3    3    0    0 -0.37723081436E+02  0.18567218971E+01 -0.99159489149E+01  0.39048885978E+02  0.10566000000E+00 0. -1.
         22    1    1    0    0    0 -0.47322817482E+01  0.12750344560E+02 -0.25470699760E+02  0.28874250176E+02  0.00000000000E+00 0.  1.
</event>
<event>
 5    1  0.1262391E-009  0.9118800E+02  0.7815553E-02  0.1125453E+00
         25   -1    0    0    0    0  0.00000000000E+00  0.00000000000E+00  0.99999998245E-14  0.12509000000E+03  0.12509000000E+03 0.  0.
        -13    1    3    3    0    0  0.32073199966E+02  0.23391743758E+02 -0.21926063091E+02  0.45350052246E+02  0.10566000000E+00 0.  1.
         23    2    1    0    0    0 -0.17858117562E+02  0.14357444204E+02 -0.17447735216E+02  0.96289443910E+02  0.91881363602E+02 0.  0.
         13    1    3    3    0    0 -0.49931317527E+02 -0.90342995538E+01  0.44783278744E+01  0.50939391663E+02  0.10566000000E+00 0. -1.
         22    1    1    0    0    0  0.17858117562E+02 -0.14357444204E+02  0.17447735216E+02  0.28800556090E+02  0.00000000000E+00 0. -1.
</event>
<event>
 5    1  0.1262391E-009  0.9118800E+02  0.7815553E-02  0.1125453E+00
         25   -1    0    0    0    0  0.00000000000E+00  0.00000000000E+00  0.99999998245E-14  0.12509000000E+03  0.12509000000E+03 0.  0.
        -13    1    3    3    0    0  0.39079044005E+02 -0.16818503145E+02  0.37337282680E+02  0.56604925319E+02  0.10566000000E+00 0.  1.
         23    2    1    0    0    0  0.22983866089E+02 -0.18591489093E+02  0.20178898636E+01  0.95459383291E+02  0.90744258285E+02 0.  0.
         13    1    3    3    0    0 -0.16095177916E+02 -0.17729859475E+01 -0.35319392816E+02  0.38854457972E+02  0.10566000000E+00 0. -1.
         22    1    1    0    0    0 -0.22983866089E+02  0.18591489093E+02 -0.20178898636E+01  0.29630616709E+02  0.00000000000E+00 0.  1.
</event>
<event>
 5    1  0.1262391E-009  0.9118800E+02  0.7815553E-02  0.1125453E+00
         25   -1    0    0    0    0  0.00000000000E+00  0.00000000000E+00  0.99999998245E-14  0.12509000000E+03  0.12509000000E+03 0.  0.
        -13    1    3    3    0    0  0.12251992503E+02 -0.34290864252E+02  0.47975291063E+02  0.60229680458E+02  0.10566000000E+00 0. -1.
         23    2    1    0    0    0  0.16782167872E+02 -0.11365997176E+02  0.23032921770E+02  0.94408694038E+02  0.89284147385E+02 0.  0.
         13    1    3    3    0    0  0.45301753696E+01  0.22924867076E+02 -0.24942369293E+02  0.34179013580E+02  0.10566000000E+00 0.  1.
         22    1    1    0    0    0 -0.16782167872E+02  0.11365997176E+02 -0.23032921770E+02  0.30681305962E+02  0.00000000000E+00 0. -1.
</event>
<event>
 5    1  0.1262391E-009  0.9118800E+02  0.7815553E-02  0.1125453E+00
         25   -1    0    0    0    0  0.00000000000E+00  0.00000000000E+00  0.99999998245E-14  0.12509000000E+03  0.12509000000E+03 0.  0.
        -13    1    3    3    0    0 -0.22747626130E+02 -0.14965338797E+02 -0.23203080431E+02  0.35774431727E+02  0.10566000000E+00 0.  1.
         23    2    1    0    0    0  0.24986237802E+02  0.10072634667E+02  0.65807334840E+01  0.97357778635E+02  0.93324492814E+02 0.  0.
         13    1    3    3    0    0  0.47733863933E+02  0.25037973464E+02  0.29783813915E+02  0.61583346908E+02  0.10566000000E+00 0. -1.
         22    1    1    0    0    0 -0.24986237802E+02 -0.10072634667E+02 -0.65807334840E+01  0.27732221365E+02  0.00000000000E+00 0. -1.
</event>
<event>
 5    1  0.1262391E-009  0.9118800E+02  0.7815553E-02  0.1125453E+00
         25   -1    0    0    0    0  0.00000000000E+00  0.00000000000E+00  0.99999998245E-14  0.12509000000E+03  0.12509000000E+03 0.  0.
        -13    1    3    3    0    0  0.80277179769E+01 -0.27410819137E+02 -0.19758116715E+02  0.34730269245E+02  0.10566000000E+00 0.  1.
         23    2    1    0    0    0 -0.88422613463E+01  0.76680843379E+01  0.27054847848E+02  0.95612043911E+02  0.90954455887E+02 0.  0.
         13    1    3    3    0    0 -0.16869979323E+02  0.35078903475E+02  0.46812964562E+02  0.60881774666E+02  0.10566000000E+00 0. -1.
         22    1    1    0    0    0  0.88422613463E+01 -0.76680843379E+01 -0.27054847848E+02  0.29477956089E+02  0.00000000000E+00 0. -1.
</event>
<event>
 5    1  0.1262391E-009  0.9118800E+02  0.7815553E-02  0.1125453E+00
         25   -1    0    0    0    0  0.00000000000E+00  0.00000000000E+00  0.99999998245E-14  0.12509000000E+03  0.12509000000E+03 0.  0.
        -13    1    3    3    0    0  0.22703503386E+02 -0.20196130075E+02  0.12052400885E+02  0.32689513107E+02  0.10566000000E+00 0. -1.
         23    2    1    0    0    0 -0.19344602659E+02  0.23773241674E+02  0.17838040528E+01  0.94388817146E+02  0.89256294868E+02 0.  0.
         13    1    3    3    0    0 -0.42048106046E+02  0.43969371749E+02 -0.10268596832E+02  0.61699304039E+02  0.10566000000E+00 0.  1.
         22    1    1    0    0    0  0.19344602659E+02 -0.23773241674E+02 -0.17838040528E+01  0.30701182854E+02  0.00000000000E+00 0.  1.
</event>
<event>
 5    1  0.1262391E-009  0.9118800E+02  0.7815553E-02  0.1125453E+00
         25   -1    0    0    0    0  0.00000000000E+00  0.00000000000E+00  0.99999998245E-14  0.12509000000E+03  0.12509000000E+03 0.  0.
        -13    1    3    3    0    0 -0.38437260732E+01 -0.60419874459E+02 -0.60601727866E+01  0.60844657268E+02  0.10566000000E+00 0.  1.
         23    2    1    0    0    0  0.12900014705E+01 -0.31793737521E+02  0.66481542511E+01  0.92583019145E+02  0.86688589963E+02 0.  0.
         13    1    3    3    0    0  0.51337275437E+01  0.28626136939E+02  0.12708327038E+02  0.31738361877E+02  0.10566000000E+00 0. -1.
         22    1    1    0    0    0 -0.12900014705E+01  0.31793737521E+02 -0.66481542511E+01  0.32506980855E+02  0.00000000000E+00 0.  1.
</event>
<event>
 5    1  0.1262391E-009  0.9118800E+02  0.7815553E-02  0.1125453E+00
         25   -1    0    0    0    0  0.00000000000E+00  0.00000000000E+00  0.99999998245E-14  0.12509000000E+03  0.12509000000E+03 0.  0.
        -13    1    3    3    0    0  0.42680882227E+02 -0.31068373852E+02 -0.31847179918E+02  0.61653512425E+02  0.10566000000E+00 0.  1.
         23    2    1    0    0    0  0.21640261184E+02 -0.18508413934E+02 -0.88201074218E+01  0.95279656403E+02  0.90496167536E+02 0.  0.
         13    1    3    3    0    0 -0.21040621044E+02  0.12559959918E+02  0.23027072496E+02  0.33626143978E+02  0.10566000000E+00 0. -1.
         22    1    1    0    0    0 -0.21640261184E+02  0.18508413934E+02  0.88201074218E+01  0.29810343597E+02  0.00000000000E+00 0.  1.
</event>
<event>
 5    1  0.1262391E-009  0.9118800E+02  0.7815553E-02  0.1125453E+00
         25   -1    0    0    0    0  0.00000000000E+00  0.00000000000E+00  0.99999998245E-14  0.12509000000E+03  0.12509000000E+03 0.  0.
        -13    1    3    3    0    0  0.39568138509E+01 -0.62046714295E+01  0.35372431592E+02  0.36129965460E+02  0.10566000000E+00 0. -1.
         23    2    1    0    0    0  0.24934378493E+01  0.18639805780E+02 -0.20485476169E+02  0.97281470271E+02  0.93222154729E+02 0.  0.
         13    1    3    3    0    0 -0.14633760016E+01  0.24844477209E+02 -0.55857907761E+02  0.61151504811E+02  0.10566000000E+00 0.  1.
         22    1    1    0    0    0 -0.24934378493E+01 -0.18639805780E+02  0.20485476169E+02  0.27808529729E+02  0.00000000000E+00 0.  1.
</event>
<event>
 5    1  0.1262391E-009  0.9118800E+02  0.7815553E-02  0.1125453E+00
         25   -1    0    0    0    0  0.00000000000E+00  0.00000000000E+00  0.99999998245E-14  0.12509000000E+03  0.12509000000E+03 0.  0.
        -13    1    3    3    0    0  0.50922334792E+02  0.79313351589E+01 -0.91008056211E+01  0.52333794866E+02  0.10566000000E+00 0.  1.
         23    2    1    0    0    0  0.10741904417E+02  0.18065203627E+02 -0.20930588747E+02  0.95428077643E+02  0.90701093515E+02 0.  0.
         13    1    3    3    0    0 -0.40180430375E+02  0.10133868468E+02 -0.11829783126E+02  0.43094282777E+02  0.10566000000E+00 0. -1.
         22    1    1    0    0    0 -0.10741904417E+02 -0.18065203627E+02  0.20930588747E+02  0.29661922357E+02  0.00000000000E+00 0.  1.
</event>
<event>
 5    1  0.1262391E-009  0.9118800E+02  0.7815553E-02  0.1125453E+00
         25   -1    0    0    0    0  0.00000000000E+00  0.00000000000E+00  0.99999998245E-14  0.12509000000E+03  0.12509000000E+03 0.  0.
        -13    1    3    3    0    0 -0.24642589627E+02  0.14371575705E+02 -0.63865998280E+01  0.29233529263E+02  0.10566000000E+00 0. -1.
         23    2    1    0    0    0  0.23294157456E+02  0.82317036359E+01 -0.32578491352E+02  0.84203121725E+02  0.73609978217E+02 0.  0.
         13    1    3    3    0    0  0.47936747082E+02 -0.61398720693E+01 -0.26191891524E+02  0.54969592462E+02  0.10566000000E+00 0.  1.
         22    1    1    0    0    0 -0.23294157456E+02 -0.82317036359E+01  0.32578491352E+02  0.40886878275E+02  0.00000000000E+00 0. -1.
</event>
<event>
 5    1  0.1262391E-009  0.9118800E+02  0.7815553E-02  0.1125453E+00
         25   -1    0    0    0    0  0.00000000000E+00  0.00000000000E+00  0.99999998245E-14  0.12509000000E+03  0.12509000000E+03 0.  0.
        -13    1    3    3    0    0 -0.22803549193E+02  0.27461098048E+02  0.21598733056E+02  0.41720860435E+02  0.10566000000E+00 0.  1.
         23    2    1    0    0    0  0.22154603323E+01 -0.20950143743E+02  0.19698681461E+02  0.96248106188E+02  0.91825067962E+02 0.  0.
         13    1    3    3    0    0  0.25019009525E+02 -0.48411241791E+02 -0.19000515947E+01  0.54527245753E+02  0.10566000000E+00 0. -1.
         22    1    1    0    0    0 -0.22154603323E+01  0.20950143743E+02 -0.19698681461E+02  0.28841893812E+02  0.00000000000E+00 0.  1.
</event>
<event>
 5    1  0.1262391E-009  0.9118800E+02  0.7815553E-02  0.1125453E+00
         25   -1    0    0    0    0  0.00000000000E+00  0.00000000000E+00  0.99999998245E-14  0.12509000000E+03  0.12509000000E+03 0.  0.
        -13    1    3    3    0    0  0.17229385972E+02  0.53600078066E+02  0.11008051430E+02  0.57367311860E+02  0.10566000000E+00 0.  1.
         23    2    1    0    0    0 -0.95791472879E+01  0.27946550784E+02  0.24567491637E+01  0.95445348207E+02  0.90724909008E+02 0.  0.
         13    1    3    3    0    0 -0.26808533260E+02 -0.25653527282E+02 -0.85513022665E+01  0.38078036347E+02  0.10566000000E+00 0. -1.
         22    1    1    0    0    0  0.95791472879E+01 -0.27946550784E+02 -0.24567491637E+01  0.29644651793E+02  0.00000000000E+00 0.  1.
</event>
<event>
 5    1  0.1262391E-009  0.9118800E+02  0.7815553E-02  0.1125453E+00
         25   -1    0    0    0    0  0.00000000000E+00  0.00000000000E+00  0.99999998245E-14  0.12509000000E+03  0.12509000000E+03 0.  0.
        -13    1    3    3    0    0 -0.89164414667E+01 -0.17790323443E+02  0.57098977357E+02  0.60467370671E+02  0.10566000000E+00 0. -1.
         23    2    1    0    0    0 -0.13987518944E+02 -0.11754771136E+02  0.21752905523E+02  0.96682004130E+02  0.92414261309E+02 0.  0.
         13    1    3    3    0    0 -0.50710774773E+01  0.60355523076E+01 -0.35346071834E+02  0.36214633459E+02  0.10566000000E+00 0.  1.
         22    1    1    0    0    0  0.13987518944E+02  0.11754771136E+02 -0.21752905523E+02  0.28407995870E+02  0.00000000000E+00 0. -1.
</event>
<event>
 5    1  0.1262391E-009  0.9118800E+02  0.7815553E-02  0.1125453E+00
         25   -1    0    0    0    0  0.00000000000E+00  0.00000000000E+00  0.99999998245E-14  0.12509000000E+03  0.12509000000E+03 0.  0.
        -13    1    3    3    0    0  0.11584943409E+02  0.35011564146E+02  0.81564798394E+01  0.37769827444E+02  0.10566000000E+00 0. -1.
         23    2    1    0    0    0  0.12436698505E+02 -0.24180030528E+02  0.71438443064E+01  0.96976304805E+02  0.92811765613E+02 0.  0.
         13    1    3    3    0    0  0.85175509604E+00 -0.59191594674E+02 -0.10126355330E+01  0.59206477361E+02  0.10566000000E+00 0.  1.
         22    1    1    0    0    0 -0.12436698505E+02  0.24180030528E+02 -0.71438443064E+01  0.28113695195E+02  0.00000000000E+00 0.  1.
</event>
<event>
 5    1  0.1262391E-009  0.9118800E+02  0.7815553E-02  0.1125453E+00
         25   -1    0    0    0    0  0.00000000000E+00  0.00000000000E+00  0.99999998245E-14  0.12509000000E+03  0.12509000000E+03 0.  0.
        -13    1    3    3    0    0 -0.27804436888E+02 -0.24925747019E+01 -0.34450449414E+02  0.44341225380E+02  0.10566000000E+00 0. -1.
         23    2    1    0    0    0  0.21462218677E+02  0.84270864881E+00 -0.19873794298E+02  0.95827315773E+02  0.91250039781E+02 0.  0.
         13    1    3    3    0    0  0.49266655565E+02  0.33352833507E+01  0.14576655116E+02  0.51486090393E+02  0.10566000000E+00 0.  1.
         22    1    1    0    0    0 -0.21462218677E+02 -0.84270864881E+00  0.19873794298E+02  0.29262684227E+02  0.00000000000E+00 0. -1.
</event>
<event>
 5    1  0.1262391E-009  0.9118800E+02  0.7815553E-02  0.1125453E+00
         25   -1    0    0    0    0  0.00000000000E+00  0.00000000000E+00  0.99999998245E-14  0.12509000000E+03  0.12509000000E+03 0.  0.
        -13    1    3    3    0    0 -0.48645984403E+02 -0.87194165796E+01 -0.53791600344E+01  0.49713243213E+02  0.10566000000E+00 0.  1.
         23    2    1    0    0    0 -0.65143154032E+01 -0.12691424560E+02 -0.24958871959E+02  0.96341889593E+02  0.91952736981E+02 0.  0.
         13    1    3    3    0    0  0.42131669000E+02 -0.39720079801E+01 -0.19579711924E+02  0.46628646380E+02  0.10566000000E+00 0. -1.
         22    1    1    0    0    0  0.65143154032E+01  0.12691424560E+02  0.24958871959E+02  0.28748110407E+02  0.00000000000E+00 0. -1.
</event>
<event>
 5    1  0.1262391E-009  0.9118800E+02  0.7815553E-02  0.1125453E+00
         25   -1    0    0    0    0  0.00000000000E+00  0.00000000000E+00  0.99999998245E-14  0.12509000000E+03  0.12509000000E+03 0.  0.
        -13    1    3    3    0    0 -0.77210934638E+01 -0.27108343025E+02  0.26140448083E+02  0.38442316993E+02  0.10566000000E+00 0. -1.
         23    2    1    0    0    0 -0.21443046195E+02 -0.27089782181E+01 -0.22075539504E+02  0.94195465897E+02  0.88984906350E+02 0.  0.
         13    1    3    3    0    0 -0.13721952731E+02  0.24399364807E+02 -0.48215987586E+02  0.55753148903E+02  0.10566000000E+00 0.  1.
         22    1    1    0    0    0  0.21443046195E+02  0.27089782181E+01  0.22075539504E+02  0.30894534103E+02  0.00000000000E+00 0.  1.
</event>
<event>
 5    1  0.1262391E-009  0.9118800E+02  0.7815553E-02  0.1125453E+00
         25   -1    0    0    0    0  0.00000000000E+00  0.00000000000E+00  0.99999998245E-14  0.12509000000E+03  0.12509000000E+03 0.  0.
        -13    1    3    3    0    0 -0.43207199018E+02  0.39121259342E+02 -0.22257165296E+02  0.62391726619E+02  0.10566000000E+00 0. -1.
         23    2    1    0    0    0 -0.20447700513E+02  0.17402280985E+02 -0.13439353606E+02  0.95063943564E+02  0.90197501633E+02 0.  0.
         13    1    3    3    0    0  0.22759498505E+02 -0.21718978357E+02  0.88178116901E+01  0.32672216945E+02  0.10566000000E+00 0.  1.
         22    1    1    0    0    0  0.20447700513E+02 -0.17402280985E+02  0.13439353606E+02  0.30026056436E+02  0.00000000000E+00 0. -1.
</event>
<event>
 5    1  0.1262391E-009  0.9118800E+02  0.7815553E-02  0.1125453E+00
         25   -1    0    0    0    0  0.00000000000E+00  0.00000000000E+00  0.99999998245E-14  0.12509000000E+03  0.12509000000E+03 0.  0.
        -13    1    3    3    0    0  0.21942837618E+02 -0.25962655479E+02 -0.18384881092E+02  0.38646637875E+02  0.10566000000E+00 0.  1.
         23    2    1    0    0    0 -0.26539176167E+02 -0.10319061274E+02  0.72936747426E+01  0.95695976995E+02  0.91069816210E+02 0.  0.
         13    1    3    3    0    0 -0.48482013784E+02  0.15643594205E+02  0.25678555835E+02  0.57049339120E+02  0.10566000000E+00 0. -1.
         22    1    1    0    0    0  0.26539176167E+02  0.10319061274E+02 -0.72936747426E+01  0.29394023005E+02  0.00000000000E+00 0. -1.
</event>
<event>
 5    1  0.1262391E-009  0.9118800E+02  0.7815553E-02  0.1125453E+00
         25   -1    0    0    0    0  0.00000000000E+00  0.00000000000E+00  0.99999998245E-14  0.12509000000E+03  0.12509000000E+03 0.  0.
        -13    1    3    3    0    0 -0.26005350879E+02  0.47590710466E+02  0.24925580615E+02  0.59686260814E+02  0.10566000000E+00 0.  1.
         23    2    1    0    0    0 -0.14232965592E+00  0.27986398842E+02  0.12526392077E+02  0.94427820098E+02  0.89310939600E+02 0.  0.
         13    1    3    3    0    0  0.25863021223E+02 -0.19604311624E+02 -0.12399188538E+02  0.34741559284E+02  0.10566000000E+00 0. -1.
         22    1    1    0    0    0  0.14232965592E+00 -0.27986398842E+02 -0.12526392077E+02  0.30662179902E+02  0.00000000000E+00 0.  1.
</event>
<event>
 5    1  0.1262391E-009  0.9118800E+02  0.7815553E-02  0.1125453E+00
         25   -1    0    0    0    0  0.00000000000E+00  0.00000000000E+00  0.99999998245E-14  0.12509000000E+03  0.12509000000E+03 0.  0.
        -13    1    3    3    0    0  0.20383252947E+02  0.39023769963E+02 -0.30956687109E+02  0.53820621175E+02  0.10566000000E+00 0. -1.
         23    2    1    0    0    0 -0.39512305979E+01  0.65189289755E+01 -0.29681397855E+02  0.94445358758E+02  0.89335501085E+02 0.  0.
         13    1    3    3    0    0 -0.24334483544E+02 -0.32504840987E+02  0.12752892541E+01  0.40624737583E+02  0.10566000000E+00 0.  1.
         22    1    1    0    0    0  0.39512305979E+01 -0.65189289755E+01  0.29681397855E+02  0.30644641242E+02  0.00000000000E+00 0. -1.
</event>
<event>
 5    1  0.1262391E-009  0.9118800E+02  0.7815553E-02  0.1125453E+00
         25   -1    0    0    0    0  0.00000000000E+00  0.00000000000E+00  0.99999998245E-14  0.12509000000E+03  0.12509000000E+03 0.  0.
        -13    1    3    3    0    0  0.47448063140E+02 -0.29103134086E+02 -0.56780724263E+01  0.55951432331E+02  0.10566000000E+00 0. -1.
         23    2    1    0    0    0  0.85203556106E+01 -0.28717212853E+02 -0.33095348692E+01  0.94953182072E+02  0.90043761532E+02 0.  0.
         13    1    3    3    0    0 -0.38927707529E+02  0.38592123347E+00  0.23685375571E+01  0.39001749741E+02  0.10566000000E+00 0.  1.
         22    1    1    0    0    0 -0.85203556106E+01  0.28717212853E+02  0.33095348692E+01  0.30136817928E+02  0.00000000000E+00 0. -1.
</event>
<event>
 5    1  0.1262391E-009  0.9118800E+02  0.7815553E-02  0.1125453E+00
         25   -1    0    0    0    0  0.00000000000E+00  0.00000000000E+00  0.99999998245E-14  0.12509000000E+03  0.12509000000E+03 0.  0.
        -13    1    3    3    0    0  0.31120488548E+02 -0.17488472694E+02  0.16652660522E+02  0.39391036431E+02  0.10566000000E+00 0.  1.
         23    2    1    0    0    0 -0.22270958224E+02  0.95306426218E+01  0.50693841394E+01  0.10034070941E+03  0.97240580937E+02 0.  0.
         13    1    3    3    0    0 -0.53391446772E+02  0.27019115316E+02 -0.11583276383E+02  0.60949672982E+02  0.10566000000E+00 0. -1.
         22    1    1    0    0    0  0.22270958224E+02 -0.95306426218E+01 -0.50693841394E+01  0.24749290587E+02  0.00000000000E+00 0. -1.
</event>
<event>
 5    1  0.1262391E-009  0.9118800E+02  0.7815553E-02  0.1125453E+00
         25   -1    0    0    0    0  0.00000000000E+00  0.00000000000E+00  0.99999998245E-14  0.12509000000E+03  0.12509000000E+03 0.  0.
        -13    1    3    3    0    0  0.13625701304E+02 -0.22779148580E+02  0.22322919072E+02  0.34682462802E+02  0.10566000000E+00 0. -1.
         23    2    1    0    0    0  0.41883705726E+01  0.27004060702E+02 -0.11327461232E+02  0.95508365150E+02  0.90811754158E+02 0.  0.
         13    1    3    3    0    0 -0.94373307318E+01  0.49783209282E+02 -0.33650380304E+02  0.60825902348E+02  0.10566000000E+00 0.  1.
         22    1    1    0    0    0 -0.41883705726E+01 -0.27004060702E+02  0.11327461232E+02  0.29581634850E+02  0.00000000000E+00 0.  1.
</event>
<event>
 5    1  0.1262391E-009  0.9118800E+02  0.7815553E-02  0.1125453E+00
         25   -1    0    0    0    0  0.00000000000E+00  0.00000000000E+00  0.99999998245E-14  0.12509000000E+03  0.12509000000E+03 0.  0.
        -13    1    3    3    0    0  0.22508649008E+02  0.54818329194E+02 -0.17007708548E+02  0.61651940844E+02  0.10566000000E+00 0.  1.
         23    2    1    0    0    0  0.16542393536E+02  0.20901362153E+02 -0.82701624919E+01  0.97180981540E+02  0.93087216425E+02 0.  0.
         13    1    3    3    0    0 -0.59662554715E+01 -0.33916967041E+02  0.87375460561E+01  0.35529040696E+02  0.10566000000E+00 0. -1.
         22    1    1    0    0    0 -0.16542393536E+02 -0.20901362153E+02  0.82701624919E+01  0.27909018460E+02  0.00000000000E+00 0.  1.
</event>
<event>
 5    1  0.1262391E-009  0.9118800E+02  0.7815553E-02  0.1125453E+00
         25   -1    0    0    0    0  0.00000000000E+00  0.00000000000E+00  0.99999998245E-14  0.12509000000E+03  0.12509000000E+03 0.  0.
        -13    1    3    3    0    0  0.11692393603E+02 -0.71338325855E+01 -0.41843096549E+02  0.44027940315E+02  0.10566000000E+00 0. -1.
         23    2    1    0    0    0 -0.15965257629E+02 -0.24477878683E+02 -0.16355338771E+01  0.95820033019E+02  0.91240055682E+02 0.  0.
         13    1    3    3    0    0 -0.27657651233E+02 -0.17344046097E+02  0.40207562672E+02  0.51792092705E+02  0.10566000000E+00 0.  1.
         22    1    1    0    0    0  0.15965257629E+02  0.24477878683E+02  0.16355338771E+01  0.29269966981E+02  0.00000000000E+00 0.  1.
</event>
<event>
 5    1  0.1262391E-009  0.9118800E+02  0.7815553E-02  0.1125453E+00
         25   -1    0    0    0    0  0.00000000000E+00  0.00000000000E+00  0.99999998245E-14  0.12509000000E+03  0.12509000000E+03 0.  0.
        -13    1    3    3    0    0 -0.11011872055E+02  0.14613708528E+02  0.51402494598E+02  0.54562344323E+02  0.10566000000E+00 0. -1.
         23    2    1    0    0    0  0.11597585792E+02  0.20145759253E+02  0.16230930648E+02  0.96738655732E+02  0.92490911938E+02 0.  0.
         13    1    3    3    0    0  0.22609457847E+02  0.55320507255E+01 -0.35171563950E+02  0.42176311409E+02  0.10566000000E+00 0.  1.
         22    1    1    0    0    0 -0.11597585792E+02 -0.20145759253E+02 -0.16230930648E+02  0.28351344268E+02  0.00000000000E+00 0. -1.
</event>
<event>
 5    1  0.1262391E-009  0.9118800E+02  0.7815553E-02  0.1125453E+00
         25   -1    0    0    0    0  0.00000000000E+00  0.00000000000E+00  0.99999998245E-14  0.12509000000E+03  0.12509000000E+03 0.  0.
        -13    1    3    3    0    0  0.33251161525E+01 -0.43339078767E+01  0.39671768199E+02  0.40046217187E+02  0.10566000000E+00 0. -1.
         23    2    1    0    0    0  0.59874368574E+01 -0.26707283091E+02 -0.11070276842E+02  0.95565782829E+02  0.90890810581E+02 0.  0.
         13    1    3    3    0    0  0.26623207049E+01 -0.22373375214E+02 -0.50742045041E+02  0.55519565641E+02  0.10566000000E+00 0.  1.
         22    1    1    0    0    0 -0.59874368574E+01  0.26707283091E+02  0.11070276842E+02  0.29524217171E+02  0.00000000000E+00 0.  1.
</event>
<event>
 5    1  0.1262391E-009  0.9118800E+02  0.7815553E-02  0.1125453E+00
         25   -1    0    0    0    0  0.00000000000E+00  0.00000000000E+00  0.99999998245E-14  0.12509000000E+03  0.12509000000E+03 0.  0.
        -13    1    3    3    0    0 -0.30419091298E+02 -0.20880947397E+02  0.18202074942E+02  0.41141970976E+02  0.10566000000E+00 0. -1.
         23    2    1    0    0    0  0.14203977381E+02  0.16358253143E+02  0.13745308629E+02  0.99433053014E+02  0.96065878974E+02 0.  0.
         13    1    3    3    0    0  0.44623068679E+02  0.37239200540E+02 -0.44567663127E+01  0.58291082038E+02  0.10566000000E+00 0.  1.
         22    1    1    0    0    0 -0.14203977381E+02 -0.16358253143E+02 -0.13745308629E+02  0.25656946986E+02  0.00000000000E+00 0.  1.
</event>
<event>
 5    1  0.1262391E-009  0.9118800E+02  0.7815553E-02  0.1125453E+00
         25   -1    0    0    0    0  0.00000000000E+00  0.00000000000E+00  0.99999998245E-14  0.12509000000E+03  0.12509000000E+03 0.  0.
        -13    1    3    3    0    0 -0.42036140850E+02 -0.23810397943E+02 -0.14597841556E+02  0.50468607370E+02  0.10566000000E+00 0. -1.
         23    2    1    0    0    0 -0.22164659873E+02  0.32824675237E+01  0.17288019806E+02  0.96789428113E+02  0.92559553938E+02 0.  0.
         13    1    3    3    0    0  0.19871480977E+02  0.27092865466E+02  0.31885861362E+02  0.46320820742E+02  0.10566000000E+00 0.  1.
         22    1    1    0    0    0  0.22164659873E+02 -0.32824675237E+01 -0.17288019806E+02  0.28300571887E+02  0.00000000000E+00 0.  1.
</event>
<event>
 5    1  0.1262391E-009  0.9118800E+02  0.7815553E-02  0.1125453E+00
         25   -1    0    0    0    0  0.00000000000E+00  0.00000000000E+00  0.99999998245E-14  0.12509000000E+03  0.12509000000E+03 0.  0.
        -13    1    3    3    0    0 -0.60392993730E+02 -0.13830960274E+02 -0.71610147068E+01  0.62369066447E+02  0.10566000000E+00 0. -1.
         23    2    1    0    0    0 -0.28279301230E+02 -0.73496537183E+01 -0.15678015874E+00  0.95870813361E+02  0.91309648924E+02 0.  0.
         13    1    3    3    0    0  0.32113692500E+02  0.64813065552E+01  0.70042345481E+01  0.33501746914E+02  0.10566000000E+00 0.  1.
         22    1    1    0    0    0  0.28279301230E+02  0.73496537183E+01  0.15678015874E+00  0.29219186639E+02  0.00000000000E+00 0. -1.
</event>
<event>
 5    1  0.1262391E-009  0.9118800E+02  0.7815553E-02  0.1125453E+00
         25   -1    0    0    0    0  0.00000000000E+00  0.00000000000E+00  0.99999998245E-14  0.12509000000E+03  0.12509000000E+03 0.  0.
        -13    1    3    3    0    0  0.91975893997E+01  0.36581225437E+02  0.59825642750E+01  0.38191411922E+02  0.10566000000E+00 0. -1.
         23    2    1    0    0    0 -0.27465269794E+02 -0.54460640412E+01 -0.85286223965E+01  0.95819911883E+02  0.91239889603E+02 0.  0.
         13    1    3    3    0    0 -0.36662859194E+02 -0.42027289478E+02 -0.14511186671E+02  0.57628499961E+02  0.10566000000E+00 0.  1.
         22    1    1    0    0    0  0.27465269794E+02  0.54460640412E+01  0.85286223965E+01  0.29270088117E+02  0.00000000000E+00 0.  1.
</event>
<event>
 5    1  0.1262391E-009  0.9118800E+02  0.7815553E-02  0.1125453E+00
         25   -1    0    0    0    0  0.00000000000E+00  0.00000000000E+00  0.99999998245E-14  0.12509000000E+03  0.12509000000E+03 0.  0.
        -13    1    3    3    0    0  0.36845769863E+01 -0.56454849417E+02 -0.13029534036E+02  0.58056059559E+02  0.10566000000E+00 0.  1.
         23    2    1    0    0    0  0.41885859426E+01 -0.17298425554E+02  0.11157803428E+02  0.10408342112E+03  0.10194156265E+03 0.  0.
         13    1    3    3    0    0  0.50400895632E+00  0.39156423864E+02  0.24187337464E+02  0.46027361563E+02  0.10566000000E+00 0. -1.
         22    1    1    0    0    0 -0.41885859426E+01  0.17298425554E+02 -0.11157803428E+02  0.21006578878E+02  0.00000000000E+00 0.  1.
</event>
<event>
 5    1  0.1262391E-009  0.9118800E+02  0.7815553E-02  0.1125453E+00
         25   -1    0    0    0    0  0.00000000000E+00  0.00000000000E+00  0.99999998245E-14  0.12509000000E+03  0.12509000000E+03 0.  0.
        -13    1    3    3    0    0  0.37928613324E+00  0.56065475561E+02  0.18081514825E+02  0.58910387456E+02  0.10566000000E+00 0.  1.
         23    2    1    0    0    0 -0.12213124216E+02  0.27019461468E+02 -0.14011021308E+00  0.95438164779E+02  0.90715004075E+02 0.  0.
         13    1    3    3    0    0 -0.12592410349E+02 -0.29046014093E+02 -0.18221625038E+02  0.36527777323E+02  0.10566000000E+00 0. -1.
         22    1    1    0    0    0  0.12213124216E+02 -0.27019461468E+02  0.14011021308E+00  0.29651835221E+02  0.00000000000E+00 0.  1.
</event>
<event>
 5    1  0.1262391E-009  0.9118800E+02  0.7815553E-02  0.1125453E+00
         25   -1    0    0    0    0  0.00000000000E+00  0.00000000000E+00  0.99999998245E-14  0.12509000000E+03  0.12509000000E+03 0.  0.
        -13    1    3    3    0    0  0.15108845061E+02  0.26530915869E+02  0.17083987569E+02  0.34986290046E+02  0.10566000000E+00 0.  1.
         23    2    1    0    0    0  0.29470103667E+01 -0.27910315999E+02 -0.76402729136E+01  0.96003157967E+02  0.91490775274E+02 0.  0.
         13    1    3    3    0    0 -0.12161834694E+02 -0.54441231868E+02 -0.24724260483E+02  0.61016867921E+02  0.10566000000E+00 0. -1.
         22    1    1    0    0    0 -0.29470103667E+01  0.27910315999E+02  0.76402729136E+01  0.29086842033E+02  0.00000000000E+00 0. -1.
</event>
<event>
 5    1  0.1262391E-009  0.9118800E+02  0.7815553E-02  0.1125453E+00
         25   -1    0    0    0    0  0.00000000000E+00  0.00000000000E+00  0.99999998245E-14  0.12509000000E+03  0.12509000000E+03 0.  0.
        -13    1    3    3    0    0 -0.57331566528E+02 -0.25891588674E+00  0.51257877778E+01  0.57560927915E+02  0.10566000000E+00 0.  1.
         23    2    1    0    0    0 -0.25251397767E+02 -0.10966817331E+02  0.16198886476E+02  0.93147738111E+02  0.87499674403E+02 0.  0.
         13    1    3    3    0    0  0.32080168762E+02 -0.10707901444E+02  0.11073098698E+02  0.35586810196E+02  0.10566000000E+00 0. -1.
         22    1    1    0    0    0  0.25251397767E+02  0.10966817331E+02 -0.16198886476E+02  0.31942261889E+02  0.00000000000E+00 0.  1.
</event>
<event>
 5    1  0.1262391E-009  0.9118800E+02  0.7815553E-02  0.1125453E+00
         25   -1    0    0    0    0  0.00000000000E+00  0.00000000000E+00  0.99999998245E-14  0.12509000000E+03  0.12509000000E+03 0.  0.
        -13    1    3    3    0    0 -0.50522408339E+02  0.26978378572E+02  0.42122077443E+01  0.57429091172E+02  0.10566000000E+00 0. -1.
         23    2    1    0    0    0 -0.26175704909E+02  0.67372511142E+00  0.15067783331E+02  0.94879744663E+02  0.89941683439E+02 0.  0.
         13    1    3    3    0    0  0.24346703430E+02 -0.26304653460E+02  0.10855575587E+02  0.37450653491E+02  0.10566000000E+00 0.  1.
         22    1    1    0    0    0  0.26175704909E+02 -0.67372511142E+00 -0.15067783331E+02  0.30210255337E+02  0.00000000000E+00 0. -1.
</event>
<event>
 5    1  0.1262391E-009  0.9118800E+02  0.7815553E-02  0.1125453E+00
         25   -1    0    0    0    0  0.00000000000E+00  0.00000000000E+00  0.99999998245E-14  0.12509000000E+03  0.12509000000E+03 0.  0.
        -13    1    3    3    0    0 -0.17665838984E+02  0.11115897788E+02 -0.27033947756E+02  0.34153924313E+02  0.10566000000E+00 0. -1.
         23    2    1    0    0    0  0.23384271453E+02  0.54904915740E+01  0.17793598319E+02  0.95197161556E+02  0.90382065578E+02 0.  0.
         13    1    3    3    0    0  0.41050110437E+02 -0.56254062142E+01  0.44827546076E+02  0.61043237243E+02  0.10566000000E+00 0.  1.
         22    1    1    0    0    0 -0.23384271453E+02 -0.54904915740E+01 -0.17793598319E+02  0.29892838444E+02  0.00000000000E+00 0.  1.
</event>
<event>
 5    1  0.1262391E-009  0.9118800E+02  0.7815553E-02  0.1125453E+00
         25   -1    0    0    0    0  0.00000000000E+00  0.00000000000E+00  0.99999998245E-14  0.12509000000E+03  0.12509000000E+03 0.  0.
        -13    1    3    3    0    0  0.96531325285E+01  0.59055710129E+01  0.35943563449E+02  0.37683015459E+02  0.10566000000E+00 0.  1.
         23    2    1    0    0    0  0.80430427908E+01 -0.25953238092E+02 -0.12095211460E+02  0.95348526515E+02  0.90591314504E+02 0.  0.
         13    1    3    3    0    0 -0.16100897377E+01 -0.31858809105E+02 -0.48038774909E+02  0.57665511056E+02  0.10566000000E+00 0. -1.
         22    1    1    0    0    0 -0.80430427908E+01  0.25953238092E+02  0.12095211460E+02  0.29741473485E+02  0.00000000000E+00 0. -1.
</event>
<event>
 5    1  0.1262391E-009  0.9118800E+02  0.7815553E-02  0.1125453E+00
         25   -1    0    0    0    0  0.00000000000E+00  0.00000000000E+00  0.99999998245E-14  0.12509000000E+03  0.12509000000E+03 0.  0.
        -13    1    3    3    0    0 -0.38778094497E+02  0.94667860542E+01 -0.32820097227E+02  0.51677176752E+02  0.10566000000E+00 0.  1.
         23    2    1    0    0    0 -0.58437629323E+00  0.24192022684E+02 -0.16782674550E+02  0.95640829854E+02  0.90994036689E+02 0.  0.
         13    1    3    3    0    0  0.38193718203E+02  0.14725236630E+02  0.16037422677E+02  0.43963653103E+02  0.10566000000E+00 0. -1.
         22    1    1    0    0    0  0.58437629323E+00 -0.24192022684E+02  0.16782674550E+02  0.29449170146E+02  0.00000000000E+00 0.  1.
</event>
<event>
 5    1  0.1262391E-009  0.9118800E+02  0.7815553E-02  0.1125453E+00
         25   -1    0    0    0    0  0.00000000000E+00  0.00000000000E+00  0.99999998245E-14  0.12509000000E+03  0.12509000000E+03 0.  0.
        -13    1    3    3    0    0  0.25345903838E+02  0.17342782077E+02 -0.52309123808E+02  0.60658408561E+02  0.10566000000E+00 0. -1.
         23    2    1    0    0    0  0.97866016101E+01  0.17967335113E+02 -0.20229362685E+02  0.96317968150E+02  0.91920189142E+02 0.  0.
         13    1    3    3    0    0 -0.15559302227E+02  0.62455303611E+00  0.32079761124E+02  0.35659559589E+02  0.10566000000E+00 0.  1.
         22    1    1    0    0    0 -0.97866016101E+01 -0.17967335113E+02  0.20229362685E+02  0.28772031850E+02  0.00000000000E+00 0. -1.
</event>
<event>
 5    1  0.1262391E-009  0.9118800E+02  0.7815553E-02  0.1125453E+00
         25   -1    0    0    0    0  0.00000000000E+00  0.00000000000E+00  0.99999998245E-14  0.12509000000E+03  0.12509000000E+03 0.  0.
        -13    1    3    3    0    0  0.25635538514E+02 -0.68394621487E+01  0.36821608628E+02  0.45385031711E+02  0.10566000000E+00 0.  1.
         23    2    1    0    0    0 -0.20167609837E+02  0.37859805077E+01  0.22723402773E+02  0.94472698216E+02  0.89373774339E+02 0.  0.
         13    1    3    3    0    0 -0.45803148352E+02  0.10625442656E+02 -0.14098205854E+02  0.49087666505E+02  0.10566000000E+00 0. -1.
         22    1    1    0    0    0  0.20167609837E+02 -0.37859805077E+01 -0.22723402773E+02  0.30617301784E+02  0.00000000000E+00 0. -1.
</event>
<event>
 5    1  0.1262391E-009  0.9118800E+02  0.7815553E-02  0.1125453E+00
         25   -1    0    0    0    0  0.00000000000E+00  0.00000000000E+00  0.99999998245E-14  0.12509000000E+03  0.12509000000E+03 0.  0.
        -13    1    3    3    0    0  0.16493084701E+02  0.81808170754E+01  0.20115320395E+02  0.27268752990E+02  0.10566000000E+00 0.  1.
         23    2    1    0    0    0 -0.73806954452E+01 -0.72619384030E+01 -0.34623347879E+02  0.88951562942E+02  0.81279726359E+02 0.  0.
         13    1    3    3    0    0 -0.23873780147E+02 -0.15442755478E+02 -0.54738668274E+02  0.61682809953E+02  0.10566000000E+00 0. -1.
         22    1    1    0    0    0  0.73806954452E+01  0.72619384030E+01  0.34623347879E+02  0.36138437058E+02  0.00000000000E+00 0. -1.
</event>
<event>
 5    1  0.1262391E-009  0.9118800E+02  0.7815553E-02  0.1125453E+00
         25   -1    0    0    0    0  0.00000000000E+00  0.00000000000E+00  0.99999998245E-14  0.12509000000E+03  0.12509000000E+03 0.  0.
        -13    1    3    3    0    0  0.84498574691E+01  0.53571913281E+02 -0.18380655438E+02  0.57264383715E+02  0.10566000000E+00 0.  1.
         23    2    1    0    0    0 -0.13936668212E+02  0.26960715419E+02 -0.61837507836E+01  0.94116629655E+02  0.88874013678E+02 0.  0.
         13    1    3    3    0    0 -0.22386525681E+02 -0.26611197862E+02  0.12196904654E+02  0.36852245941E+02  0.10566000000E+00 0. -1.
         22    1    1    0    0    0  0.13936668212E+02 -0.26960715419E+02  0.61837507836E+01  0.30973370345E+02  0.00000000000E+00 0.  1.
</event>
<event>
 5    1  0.1262391E-009  0.9118800E+02  0.7815553E-02  0.1125453E+00
         25   -1    0    0    0    0  0.00000000000E+00  0.00000000000E+00  0.99999998245E-14  0.12509000000E+03  0.12509000000E+03 0.  0.
        -13    1    3    3    0    0 -0.25521514634E+02  0.53828490160E+02 -0.16605040134E+02  0.61843290533E+02  0.10566000000E+00 0.  1.
         23    2    1    0    0    0 -0.71254036459E+01  0.26517445004E+02 -0.12118635550E+02  0.95076543114E+02  0.90214973570E+02 0.  0.
         13    1    3    3    0    0  0.18396110988E+02 -0.27311045156E+02  0.44864045833E+01  0.33233252581E+02  0.10566000000E+00 0. -1.
         22    1    1    0    0    0  0.71254036459E+01 -0.26517445004E+02  0.12118635550E+02  0.30013456886E+02  0.00000000000E+00 0.  1.
</event>
<event>
 5    1  0.1262391E-009  0.9118800E+02  0.7815553E-02  0.1125453E+00
         25   -1    0    0    0    0  0.00000000000E+00  0.00000000000E+00  0.99999998245E-14  0.12509000000E+03  0.12509000000E+03 0.  0.
        -13    1    3    3    0    0  0.13184796595E+01  0.20441403311E+02 -0.33049235363E+02  0.38882547242E+02  0.10566000000E+00 0. -1.
         23    2    1    0    0    0 -0.27828520273E+02 -0.69245479277E+01  0.71041907345E+01  0.95546042402E+02  0.90863638426E+02 0.  0.
         13    1    3    3    0    0 -0.29146999932E+02 -0.27365951238E+02  0.40153426098E+02  0.56663495159E+02  0.10566000000E+00 0.  1.
         22    1    1    0    0    0  0.27828520273E+02  0.69245479277E+01 -0.71041907345E+01  0.29543957598E+02  0.00000000000E+00 0.  1.
</event>
<event>
 5    1  0.1262391E-009  0.9118800E+02  0.7815553E-02  0.1125453E+00
         25   -1    0    0    0    0  0.00000000000E+00  0.00000000000E+00  0.99999998245E-14  0.12509000000E+03  0.12509000000E+03 0.  0.
        -13    1    3    3    0    0  0.48990672819E+02  0.77723439708E+01 -0.27178473387E+02  0.56561258241E+02  0.10566000000E+00 0.  1.
         23    2    1    0    0    0  0.16210674404E+02  0.21842056899E+02 -0.10606165938E+02  0.95894929010E+02  0.91342680274E+02 0.  0.
         13    1    3    3    0    0 -0.32779998415E+02  0.14069712928E+02  0.16572307448E+02  0.39333670769E+02  0.10566000000E+00 0. -1.
         22    1    1    0    0    0 -0.16210674404E+02 -0.21842056899E+02  0.10606165938E+02  0.29195070990E+02  0.00000000000E+00 0.  1.
</event>
<event>
 5    1  0.1262391E-009  0.9118800E+02  0.7815553E-02  0.1125453E+00
         25   -1    0    0    0    0  0.00000000000E+00  0.00000000000E+00  0.99999998245E-14  0.12509000000E+03  0.12509000000E+03 0.  0.
        -13    1    3    3    0    0  0.98862658575E+01  0.60031786028E+02  0.26066248035E+01  0.60896299093E+02  0.10566000000E+00 0.  1.
         23    2    1    0    0    0  0.70245393688E+01  0.25792334251E+02  0.10866174348E+02  0.96234109711E+02  0.91805999082E+02 0.  0.
         13    1    3    3    0    0 -0.28617264887E+01 -0.34239451778E+02  0.82595495444E+01  0.35337810617E+02  0.10566000000E+00 0. -1.
         22    1    1    0    0    0 -0.70245393688E+01 -0.25792334251E+02 -0.10866174348E+02  0.28855890289E+02  0.00000000000E+00 0.  1.
</event>
<event>
 5    1  0.1262391E-009  0.9118800E+02  0.7815553E-02  0.1125453E+00
         25   -1    0    0    0    0  0.00000000000E+00  0.00000000000E+00  0.99999998245E-14  0.12509000000E+03  0.12509000000E+03 0.  0.
        -13    1    3    3    0    0 -0.86721030548E+01 -0.30069564166E+02 -0.43989623438E+02  0.53985944419E+02  0.10566000000E+00 0.  1.
         23    2    1    0    0    0 -0.16424744007E+00 -0.29481616494E+02 -0.34572541251E+01  0.95405908395E+02  0.90670513742E+02 0.  0.
         13    1    3    3    0    0  0.85078556147E+01  0.58794767172E+00  0.40532369313E+02  0.41419963976E+02  0.10566000000E+00 0. -1.
         22    1    1    0    0    0  0.16424744007E+00  0.29481616494E+02  0.34572541251E+01  0.29684091605E+02  0.00000000000E+00 0.  1.
</event>
<event>
 5    1  0.1262391E-009  0.9118800E+02  0.7815553E-02  0.1125453E+00
         25   -1    0    0    0    0  0.00000000000E+00  0.00000000000E+00  0.99999998245E-14  0.12509000000E+03  0.12509000000E+03 0.  0.
        -13    1    3    3    0    0  0.52249262036E+02 -0.33338263510E+02  0.10909568729E+01  0.61988922786E+02  0.10566000000E+00 0. -1.
         23    2    1    0    0    0  0.20075158017E+02 -0.19565699860E+02 -0.89216502924E+00  0.97043172392E+02  0.92901844810E+02 0.  0.
         13    1    3    3    0    0 -0.32174104019E+02  0.13772563650E+02 -0.19831219022E+01  0.35054249606E+02  0.10566000000E+00 0.  1.
         22    1    1    0    0    0 -0.20075158017E+02  0.19565699860E+02  0.89216502924E+00  0.28046827608E+02  0.00000000000E+00 0. -1.
</event>
<event>
 5    1  0.1262391E-009  0.9118800E+02  0.7815553E-02  0.1125453E+00
         25   -1    0    0    0    0  0.00000000000E+00  0.00000000000E+00  0.99999998245E-14  0.12509000000E+03  0.12509000000E+03 0.  0.
        -13    1    3    3    0    0  0.32222541539E+02 -0.81007693533E+01 -0.48139051485E+01  0.33572302486E+02  0.10566000000E+00 0.  1.
         23    2    1    0    0    0 -0.16237914787E+02  0.24309610348E+02  0.10796924917E+02  0.93925908170E+02  0.88605166926E+02 0.  0.
         13    1    3    3    0    0 -0.48460456326E+02  0.32410379702E+02  0.15610830065E+02  0.60353605685E+02  0.10566000000E+00 0. -1.
         22    1    1    0    0    0  0.16237914787E+02 -0.24309610348E+02 -0.10796924917E+02  0.31164091830E+02  0.00000000000E+00 0. -1.
</event>
<event>
 5    1  0.1262391E-009  0.9118800E+02  0.7815553E-02  0.1125453E+00
         25   -1    0    0    0    0  0.00000000000E+00  0.00000000000E+00  0.99999998245E-14  0.12509000000E+03  0.12509000000E+03 0.  0.
        -13    1    3    3    0    0 -0.13730050710E+02 -0.46842390434E+02  0.13170420259E+01  0.48831031095E+02  0.10566000000E+00 0.  1.
         23    2    1    0    0    0 -0.16014019552E+02 -0.16464378607E+01  0.21375101586E+02  0.98330804428E+02  0.94619726019E+02 0.  0.
         13    1    3    3    0    0 -0.22839688417E+01  0.45195952573E+02  0.20058059560E+02  0.49499773333E+02  0.10566000000E+00 0. -1.
         22    1    1    0    0    0  0.16014019552E+02  0.16464378607E+01 -0.21375101586E+02  0.26759195572E+02  0.00000000000E+00 0.  1.
</event>
<event>
 5    1  0.1262391E-009  0.9118800E+02  0.7815553E-02  0.1125453E+00
         25   -1    0    0    0    0  0.00000000000E+00  0.00000000000E+00  0.99999998245E-14  0.12509000000E+03  0.12509000000E+03 0.  0.
        -13    1    3    3    0    0 -0.58292279940E+02  0.19921547585E+01  0.11901018495E+02  0.59528178088E+02  0.10566000000E+00 0. -1.
         23    2    1    0    0    0 -0.27083491452E+02 -0.94122742678E+01 -0.35982340863E+01  0.96192704199E+02  0.91749564775E+02 0.  0.
         13    1    3    3    0    0  0.31208788488E+02 -0.11404429026E+02 -0.15499252582E+02  0.36664526111E+02  0.10566000000E+00 0.  1.
         22    1    1    0    0    0  0.27083491452E+02  0.94122742678E+01  0.35982340863E+01  0.28897295801E+02  0.00000000000E+00 0. -1.
</event>
<event>
 5    1  0.1262391E-009  0.9118800E+02  0.7815553E-02  0.1125453E+00
         25   -1    0    0    0    0  0.00000000000E+00  0.00000000000E+00  0.99999998245E-14  0.12509000000E+03  0.12509000000E+03 0.  0.
        -13    1    3    3    0    0  0.24007996086E+02 -0.18199188991E+02 -0.41985117746E+02  0.51675483860E+02  0.10566000000E+00 0.  1.
         23    2    1    0    0    0 -0.12785175966E+02 -0.14905754066E+02 -0.27374051936E+02  0.91400521699E+02  0.84965136490E+02 0.  0.
         13    1    3    3    0    0 -0.36793172052E+02  0.32934349251E+01  0.14611065809E+02  0.39725037840E+02  0.10566000000E+00 0. -1.
         22    1    1    0    0    0  0.12785175966E+02  0.14905754066E+02  0.27374051936E+02  0.33689478301E+02  0.00000000000E+00 0.  1.
</event>
<event>
 5    1  0.1262391E-009  0.9118800E+02  0.7815553E-02  0.1125453E+00
         25   -1    0    0    0    0  0.00000000000E+00  0.00000000000E+00  0.99999998245E-14  0.12509000000E+03  0.12509000000E+03 0.  0.
        -13    1    3    3    0    0 -0.13318468985E+02  0.21550005008E+02  0.24353571019E+02  0.35141028974E+02  0.10566000000E+00 0.  1.
         23    2    1    0    0    0  0.19109867277E+02  0.46806951688E+01 -0.22910339767E+02  0.94890999969E+02  0.89957335845E+02 0.  0.
         13    1    3    3    0    0  0.32428336262E+02 -0.16869309839E+02 -0.47263910786E+02  0.59749970995E+02  0.10566000000E+00 0. -1.
         22    1    1    0    0    0 -0.19109867277E+02 -0.46806951688E+01  0.22910339767E+02  0.30199000031E+02  0.00000000000E+00 0. -1.
</event>
<event>
 5    1  0.1262391E-009  0.9118800E+02  0.7815553E-02  0.1125453E+00
         25   -1    0    0    0    0  0.00000000000E+00  0.00000000000E+00  0.99999998245E-14  0.12509000000E+03  0.12509000000E+03 0.  0.
        -13    1    3    3    0    0  0.40442777023E+02  0.57375170714E+01  0.88260829862E+01  0.41790527879E+02  0.10566000000E+00 0.  1.
         23    2    1    0    0    0  0.69044604601E+01 -0.67027283794E+01 -0.29407058427E+02  0.94148551629E+02  0.88918932442E+02 0.  0.
         13    1    3    3    0    0 -0.33538316563E+02 -0.12440245451E+02 -0.38233141413E+02  0.52358023751E+02  0.10566000000E+00 0. -1.
         22    1    1    0    0    0 -0.69044604601E+01  0.67027283794E+01  0.29407058427E+02  0.30941448371E+02  0.00000000000E+00 0. -1.
</event>
<event>
 5    1  0.1262391E-009  0.9118800E+02  0.7815553E-02  0.1125453E+00
         25   -1    0    0    0    0  0.00000000000E+00  0.00000000000E+00  0.99999998245E-14  0.12509000000E+03  0.12509000000E+03 0.  0.
        -13    1    3    3    0    0 -0.21583816891E+02  0.20982988635E+02 -0.31473908171E+02  0.43551865898E+02  0.10566000000E+00 0. -1.
         23    2    1    0    0    0  0.25047569594E+02  0.10953146221E+02 -0.87512281839E+01  0.96385712003E+02  0.92012332482E+02 0.  0.
         13    1    3    3    0    0  0.46631386485E+02 -0.10029842414E+02  0.22722679987E+02  0.52833846104E+02  0.10566000000E+00 0.  1.
         22    1    1    0    0    0 -0.25047569594E+02 -0.10953146221E+02  0.87512281839E+01  0.28704287997E+02  0.00000000000E+00 0.  1.
</event>
<event>
 5    1  0.1262391E-009  0.9118800E+02  0.7815553E-02  0.1125453E+00
         25   -1    0    0    0    0  0.00000000000E+00  0.00000000000E+00  0.99999998245E-14  0.12509000000E+03  0.12509000000E+03 0.  0.
        -13    1    3    3    0    0 -0.47358297402E+02 -0.12533117081E+02  0.25539099526E+02  0.55246213673E+02  0.10566000000E+00 0. -1.
         23    2    1    0    0    0 -0.65902608309E+01 -0.69715244475E+01  0.27018806262E+02  0.96418592940E+02  0.92057022990E+02 0.  0.
         13    1    3    3    0    0  0.40768036571E+02  0.55615926337E+01  0.14797067361E+01  0.41172379267E+02  0.10566000000E+00 0.  1.
         22    1    1    0    0    0  0.65902608309E+01  0.69715244475E+01 -0.27018806262E+02  0.28671407060E+02  0.00000000000E+00 0. -1.
</event>
<event>
 5    1  0.1262391E-009  0.9118800E+02  0.7815553E-02  0.1125453E+00
         25   -1    0    0    0    0  0.00000000000E+00  0.00000000000E+00  0.99999998245E-14  0.12509000000E+03  0.12509000000E+03 0.  0.
        -13    1    3    3    0    0  0.82893324413E+01 -0.29992746863E+02  0.16256026087E+02  0.35107655075E+02  0.10566000000E+00 0.  1.
         23    2    1    0    0    0 -0.20133602246E+02  0.17115144532E+02 -0.10950960614E+02  0.96485565901E+02  0.92147983033E+02 0.  0.
         13    1    3    3    0    0 -0.28422934688E+02  0.47107891395E+02 -0.27206986701E+02  0.61377910826E+02  0.10566000000E+00 0. -1.
         22    1    1    0    0    0  0.20133602246E+02 -0.17115144532E+02  0.10950960614E+02  0.28604434099E+02  0.00000000000E+00 0. -1.
</event>
<event>
 5    1  0.1262391E-009  0.9118800E+02  0.7815553E-02  0.1125453E+00
         25   -1    0    0    0    0  0.00000000000E+00  0.00000000000E+00  0.99999998245E-14  0.12509000000E+03  0.12509000000E+03 0.  0.
        -13    1    3    3    0    0  0.24302873663E+02 -0.62419017584E+01  0.31283511494E+02  0.40103120343E+02  0.10566000000E+00 0.  1.
         23    2    1    0    0    0  0.11817965016E+02  0.19046448517E+02 -0.17635208796E+02  0.96569269162E+02  0.92261539436E+02 0.  0.
         13    1    3    3    0    0 -0.12484908647E+02  0.25288350275E+02 -0.48918720290E+02  0.56466148819E+02  0.10566000000E+00 0. -1.
         22    1    1    0    0    0 -0.11817965016E+02 -0.19046448517E+02  0.17635208796E+02  0.28520730838E+02  0.00000000000E+00 0. -1.
</event>
<event>
 5    1  0.1262391E-009  0.9118800E+02  0.7815553E-02  0.1125453E+00
         25   -1    0    0    0    0  0.00000000000E+00  0.00000000000E+00  0.99999998245E-14  0.12509000000E+03  0.12509000000E+03 0.  0.
        -13    1    3    3    0    0  0.86326354857E+01  0.33217049123E+02 -0.18723902064E+02  0.39095913090E+02  0.10566000000E+00 0.  1.
         23    2    1    0    0    0 -0.33700308341E+02  0.84099191028E+01 -0.53997011602E+01  0.89938978760E+02  0.82785419043E+02 0.  0.
         13    1    3    3    0    0 -0.42332943827E+02 -0.24807130020E+02  0.13324200904E+02  0.50843065669E+02  0.10566000000E+00 0. -1.
         22    1    1    0    0    0  0.33700308341E+02 -0.84099191028E+01  0.53997011602E+01  0.35151021240E+02  0.00000000000E+00 0.  1.
</event>
<event>
 5    1  0.1262391E-009  0.9118800E+02  0.7815553E-02  0.1125453E+00
         25   -1    0    0    0    0  0.00000000000E+00  0.00000000000E+00  0.99999998245E-14  0.12509000000E+03  0.12509000000E+03 0.  0.
        -13    1    3    3    0    0  0.24041970248E+02 -0.59372397373E+01  0.24923070387E+02  0.35134566322E+02  0.10566000000E+00 0.  1.
         23    2    1    0    0    0 -0.22838680385E+02 -0.11078128246E+02 -0.13836681185E+02  0.96180071024E+02  0.91732339275E+02 0.  0.
         13    1    3    3    0    0 -0.46880650633E+02 -0.51408885086E+01 -0.38759751572E+02  0.61045504702E+02  0.10566000000E+00 0. -1.
         22    1    1    0    0    0  0.22838680385E+02  0.11078128246E+02  0.13836681185E+02  0.28909928976E+02  0.00000000000E+00 0. -1.
</event>
<event>
 5    1  0.1262391E-009  0.9118800E+02  0.7815553E-02  0.1125453E+00
         25   -1    0    0    0    0  0.00000000000E+00  0.00000000000E+00  0.99999998245E-14  0.12509000000E+03  0.12509000000E+03 0.  0.
        -13    1    3    3    0    0  0.41396203646E+01  0.60308346955E+02 -0.11876083613E+02  0.61605890102E+02  0.10566000000E+00 0. -1.
         23    2    1    0    0    0 -0.38015292554E+01  0.27063836341E+02 -0.10497723312E+02  0.95813643381E+02  0.91231295075E+02 0.  0.
         13    1    3    3    0    0 -0.79411496200E+01 -0.33244510614E+02  0.13783603009E+01  0.34207753279E+02  0.10566000000E+00 0.  1.
         22    1    1    0    0    0  0.38015292554E+01 -0.27063836341E+02  0.10497723312E+02  0.29276356619E+02  0.00000000000E+00 0. -1.
</event>
<event>
 5    1  0.1262391E-009  0.9118800E+02  0.7815553E-02  0.1125453E+00
         25   -1    0    0    0    0  0.00000000000E+00  0.00000000000E+00  0.99999998245E-14  0.12509000000E+03  0.12509000000E+03 0.  0.
        -13    1    3    3    0    0  0.43392276424E+02 -0.38872022827E+00 -0.71821303757E+01  0.43984484962E+02  0.10566000000E+00 0.  1.
         23    2    1    0    0    0 -0.15972487509E+02  0.12194911723E+02 -0.22592263980E+01  0.10486772681E+03  0.10289946449E+03 0.  0.
         13    1    3    3    0    0 -0.59364763933E+02  0.12583631952E+02  0.49229039777E+01  0.60883241845E+02  0.10566000000E+00 0. -1.
         22    1    1    0    0    0  0.15972487509E+02 -0.12194911723E+02  0.22592263980E+01  0.20222273193E+02  0.00000000000E+00 0. -1.
</event>
<event>
 5    1  0.1262391E-009  0.9118800E+02  0.7815553E-02  0.1125453E+00
         25   -1    0    0    0    0  0.00000000000E+00  0.00000000000E+00  0.99999998245E-14  0.12509000000E+03  0.12509000000E+03 0.  0.
        -13    1    3    3    0    0 -0.56730958534E+02 -0.12345469944E+02  0.48164637598E+01  0.58258233508E+02  0.10566000000E+00 0. -1.
         23    2    1    0    0    0 -0.20420908905E+02 -0.20951991093E+02  0.37847384352E+01  0.95588750937E+02  0.90922415330E+02 0.  0.
         13    1    3    3    0    0  0.36310049629E+02 -0.86065211490E+01 -0.10317253246E+01  0.37330517429E+02  0.10566000000E+00 0.  1.
         22    1    1    0    0    0  0.20420908905E+02  0.20951991093E+02 -0.37847384352E+01  0.29501249063E+02  0.00000000000E+00 0. -1.
</event>
<event>
 5    1  0.1262391E-009  0.9118800E+02  0.7815553E-02  0.1125453E+00
         25   -1    0    0    0    0  0.00000000000E+00  0.00000000000E+00  0.99999998245E-14  0.12509000000E+03  0.12509000000E+03 0.  0.
        -13    1    3    3    0    0 -0.33619190480E+02  0.40563142431E+02 -0.28680918636E+02  0.59985204428E+02  0.10566000000E+00 0.  1.
         23    2    1    0    0    0 -0.10511012048E+02  0.26175805890E+02 -0.42456685205E+01  0.96564925251E+02  0.92255649687E+02 0.  0.
         13    1    3    3    0    0  0.23108178433E+02 -0.14387336541E+02  0.24435250115E+02  0.36579720823E+02  0.10566000000E+00 0. -1.
         22    1    1    0    0    0  0.10511012048E+02 -0.26175805890E+02  0.42456685205E+01  0.28525074749E+02  0.00000000000E+00 0.  1.
</event>
<event>
 5    1  0.1262391E-009  0.9118800E+02  0.7815553E-02  0.1125453E+00
         25   -1    0    0    0    0  0.00000000000E+00  0.00000000000E+00  0.99999998245E-14  0.12509000000E+03  0.12509000000E+03 0.  0.
        -13    1    3    3    0    0  0.56447286469E+02 -0.14830919799E+02  0.23383577203E+01  0.58410028357E+02  0.10566000000E+00 0. -1.
         23    2    1    0    0    0  0.26373234968E+02  0.43065946425E+01  0.12658633076E+02  0.95520839183E+02  0.90828935075E+02 0.  0.
         13    1    3    3    0    0 -0.30074051502E+02  0.19137514441E+02  0.10320275356E+02  0.37110810826E+02  0.10566000000E+00 0.  1.
         22    1    1    0    0    0 -0.26373234968E+02 -0.43065946425E+01 -0.12658633076E+02  0.29569160817E+02  0.00000000000E+00 0. -1.
</event>
<event>
 5    1  0.1262391E-009  0.9118800E+02  0.7815553E-02  0.1125453E+00
         25   -1    0    0    0    0  0.00000000000E+00  0.00000000000E+00  0.99999998245E-14  0.12509000000E+03  0.12509000000E+03 0.  0.
        -13    1    3    3    0    0  0.98590227831E+01  0.52573135365E+01 -0.29881545077E+02  0.31902313021E+02  0.10566000000E+00 0. -1.
         23    2    1    0    0    0 -0.89058992356E+01  0.36981306737E+01  0.29424370278E+02  0.94125750002E+02  0.88886849621E+02 0.  0.
         13    1    3    3    0    0 -0.18764922019E+02 -0.15591828628E+01  0.59305915355E+02  0.62223436981E+02  0.10566000000E+00 0.  1.
         22    1    1    0    0    0  0.89058992356E+01 -0.36981306737E+01 -0.29424370278E+02  0.30964249998E+02  0.00000000000E+00 0.  1.
</event>
<event>
 5    1  0.1262391E-009  0.9118800E+02  0.7815553E-02  0.1125453E+00
         25   -1    0    0    0    0  0.00000000000E+00  0.00000000000E+00  0.99999998245E-14  0.12509000000E+03  0.12509000000E+03 0.  0.
        -13    1    3    3    0    0  0.11316542018E+02  0.34015812249E+02  0.37051231270E+02  0.51555256850E+02  0.10566000000E+00 0.  1.
         23    2    1    0    0    0  0.20681183204E+02 -0.49120560558E+01  0.22450468965E+02  0.94172962785E+02  0.88953267110E+02 0.  0.
         13    1    3    3    0    0  0.93646411864E+01 -0.38927868305E+02 -0.14600762305E+02  0.42617705936E+02  0.10566000000E+00 0. -1.
         22    1    1    0    0    0 -0.20681183204E+02  0.49120560558E+01 -0.22450468965E+02  0.30917037215E+02  0.00000000000E+00 0.  1.
</event>
<event>
 5    1  0.1262391E-009  0.9118800E+02  0.7815553E-02  0.1125453E+00
         25   -1    0    0    0    0  0.00000000000E+00  0.00000000000E+00  0.99999998245E-14  0.12509000000E+03  0.12509000000E+03 0.  0.
        -13    1    3    3    0    0  0.34474838268E+02 -0.93012069684E+00 -0.20408052844E+02  0.40073424898E+02  0.10566000000E+00 0.  1.
         23    2    1    0    0    0 -0.17094325483E+02 -0.21101203244E+02 -0.68417411481E+01  0.97084890395E+02  0.92958000081E+02 0.  0.
         13    1    3    3    0    0 -0.51569163751E+02 -0.20171082547E+02  0.13566311695E+02  0.57011465497E+02  0.10566000000E+00 0. -1.
         22    1    1    0    0    0  0.17094325483E+02  0.21101203244E+02  0.68417411481E+01  0.28005109605E+02  0.00000000000E+00 0.  1.
</event>
<event>
 5    1  0.1262391E-009  0.9118800E+02  0.7815553E-02  0.1125453E+00
         25   -1    0    0    0    0  0.00000000000E+00  0.00000000000E+00  0.99999998245E-14  0.12509000000E+03  0.12509000000E+03 0.  0.
        -13    1    3    3    0    0  0.29179220186E+02  0.12614654331E+02  0.33263001025E+02  0.46010811727E+02  0.10566000000E+00 0. -1.
         23    2    1    0    0    0  0.22881518132E+02 -0.13133249289E+02 -0.10105209982E+02  0.96838250007E+02  0.92625510993E+02 0.  0.
         13    1    3    3    0    0 -0.62977020541E+01 -0.25747903620E+02 -0.43368211007E+02  0.50827438279E+02  0.10566000000E+00 0.  1.
         22    1    1    0    0    0 -0.22881518132E+02  0.13133249289E+02  0.10105209982E+02  0.28251749993E+02  0.00000000000E+00 0.  1.
</event>
<event>
 5    1  0.1262391E-009  0.9118800E+02  0.7815553E-02  0.1125453E+00
         25   -1    0    0    0    0  0.00000000000E+00  0.00000000000E+00  0.99999998245E-14  0.12509000000E+03  0.12509000000E+03 0.  0.
        -13    1    3    3    0    0  0.27561536631E+02  0.58972511491E+01  0.26619756732E+02  0.38769040291E+02  0.10566000000E+00 0.  1.
         23    2    1    0    0    0 -0.26162360982E+02  0.10359867775E+02  0.74930895938E+01  0.95970549728E+02  0.91446181063E+02 0.  0.
         13    1    3    3    0    0 -0.53723897613E+02  0.44626166263E+01 -0.19126667139E+02  0.57201509436E+02  0.10566000000E+00 0. -1.
         22    1    1    0    0    0  0.26162360982E+02 -0.10359867775E+02 -0.74930895938E+01  0.29119450272E+02  0.00000000000E+00 0. -1.
</event>
<event>
 5    1  0.1262391E-009  0.9118800E+02  0.7815553E-02  0.1125453E+00
         25   -1    0    0    0    0  0.00000000000E+00  0.00000000000E+00  0.99999998245E-14  0.12509000000E+03  0.12509000000E+03 0.  0.
        -13    1    3    3    0    0 -0.46888439014E+02 -0.23922644631E+02 -0.22745489109E+02  0.57342715999E+02  0.10566000000E+00 0. -1.
         23    2    1    0    0    0 -0.23597536650E+02  0.57771371626E+01 -0.16802872171E+02  0.95550948509E+02  0.90870392307E+02 0.  0.
         13    1    3    3    0    0  0.23290902364E+02  0.29699781793E+02  0.59426169373E+01  0.38208232511E+02  0.10566000000E+00 0.  1.
         22    1    1    0    0    0  0.23597536650E+02 -0.57771371626E+01  0.16802872171E+02  0.29539051491E+02  0.00000000000E+00 0. -1.
</event>
<event>
 5    1  0.1262391E-009  0.9118800E+02  0.7815553E-02  0.1125453E+00
         25   -1    0    0    0    0  0.00000000000E+00  0.00000000000E+00  0.99999998245E-14  0.12509000000E+03  0.12509000000E+03 0.  0.
        -13    1    3    3    0    0 -0.26726465177E+02 -0.14657453628E+02  0.23213404275E+02  0.38314725495E+02  0.10566000000E+00 0. -1.
         23    2    1    0    0    0 -0.48592217112E+01 -0.33110368902E+02 -0.16909875165E+02  0.87595301141E+02  0.79164918615E+02 0.  0.
         13    1    3    3    0    0  0.21867243466E+02 -0.18452915275E+02 -0.40123279440E+02  0.49280575646E+02  0.10566000000E+00 0.  1.
         22    1    1    0    0    0  0.48592217112E+01  0.33110368902E+02  0.16909875165E+02  0.37494698859E+02  0.00000000000E+00 0. -1.
</event>
<event>
 5    1  0.1262391E-009  0.9118800E+02  0.7815553E-02  0.1125453E+00
         25   -1    0    0    0    0  0.00000000000E+00  0.00000000000E+00  0.99999998245E-14  0.12509000000E+03  0.12509000000E+03 0.  0.
        -13    1    3    3    0    0 -0.21972613864E+02 -0.39420586774E+01  0.12405581131E+02  0.25539091485E+02  0.10566000000E+00 0.  1.
         23    2    1    0    0    0  0.35055724361E+02  0.13901195196E+02 -0.30356853668E+01  0.87256649316E+02  0.78627987548E+02 0.  0.
         13    1    3    3    0    0  0.57028338225E+02  0.17843253874E+02 -0.15441266498E+02  0.61717557831E+02  0.10566000000E+00 0. -1.
         22    1    1    0    0    0 -0.35055724361E+02 -0.13901195196E+02  0.30356853668E+01  0.37833350684E+02  0.00000000000E+00 0. -1.
</event>
<event>
 5    1  0.1262391E-009  0.9118800E+02  0.7815553E-02  0.1125453E+00
         25   -1    0    0    0    0  0.00000000000E+00  0.00000000000E+00  0.99999998245E-14  0.12509000000E+03  0.12509000000E+03 0.  0.
        -13    1    3    3    0    0 -0.37316271361E+01  0.33674151595E+02  0.26260312430E+02  0.42865938689E+02  0.10566000000E+00 0. -1.
         23    2    1    0    0    0 -0.26768288377E+02 -0.99694439812E+01  0.92831315743E+01  0.95054893745E+02  0.90184950059E+02 0.  0.
         13    1    3    3    0    0 -0.23036661241E+02 -0.43643595576E+02 -0.16977180856E+02  0.52188955056E+02  0.10566000000E+00 0.  1.
         22    1    1    0    0    0  0.26768288377E+02  0.99694439812E+01 -0.92831315743E+01  0.30035106255E+02  0.00000000000E+00 0. -1.
</event>
<event>
 5    1  0.1262391E-009  0.9118800E+02  0.7815553E-02  0.1125453E+00
         25   -1    0    0    0    0  0.00000000000E+00  0.00000000000E+00  0.99999998245E-14  0.12509000000E+03  0.12509000000E+03 0.  0.
        -13    1    3    3    0    0  0.29919720241E+02  0.29220491072E+02 -0.42785705782E+02  0.59830214282E+02  0.10566000000E+00 0. -1.
         23    2    1    0    0    0  0.28569267777E+01  0.10401019057E+02 -0.26253834802E+02  0.96706781898E+02  0.92447793890E+02 0.  0.
         13    1    3    3    0    0 -0.27062793463E+02 -0.18819472015E+02  0.16531870980E+02  0.36876567615E+02  0.10566000000E+00 0.  1.
         22    1    1    0    0    0 -0.28569267777E+01 -0.10401019057E+02  0.26253834802E+02  0.28383218102E+02  0.00000000000E+00 0. -1.
</event>
<event>
 5    1  0.1262391E-009  0.9118800E+02  0.7815553E-02  0.1125453E+00
         25   -1    0    0    0    0  0.00000000000E+00  0.00000000000E+00  0.99999998245E-14  0.12509000000E+03  0.12509000000E+03 0.  0.
        -13    1    3    3    0    0 -0.10654668724E+02 -0.57365026788E+02 -0.31867602749E+01  0.58433165831E+02  0.10566000000E+00 0. -1.
         23    2    1    0    0    0 -0.24700268387E-01 -0.32907676084E+02  0.13088439330E+02  0.89674989066E+02  0.82385561020E+02 0.  0.
         13    1    3    3    0    0  0.10629968455E+02  0.24457350704E+02  0.16275199605E+02  0.31241823235E+02  0.10566000000E+00 0.  1.
         22    1    1    0    0    0  0.24700268387E-01  0.32907676084E+02 -0.13088439330E+02  0.35415010934E+02  0.00000000000E+00 0. -1.
</event>
<event>
 5    1  0.1262391E-009  0.9118800E+02  0.7815553E-02  0.1125453E+00
         25   -1    0    0    0    0  0.00000000000E+00  0.00000000000E+00  0.99999998245E-14  0.12509000000E+03  0.12509000000E+03 0.  0.
        -13    1    3    3    0    0  0.33768886547E+02  0.32513308319E+02 -0.26887509306E+02  0.54040746083E+02  0.10566000000E+00 0. -1.
         23    2    1    0    0    0  0.29208796528E+02 -0.10427011496E+01 -0.25339121072E+01  0.95752963154E+02  0.91148056600E+02 0.  0.
         13    1    3    3    0    0 -0.45600900183E+01 -0.33556009469E+02  0.24353597199E+02  0.41712217072E+02  0.10566000000E+00 0.  1.
         22    1    1    0    0    0 -0.29208796528E+02  0.10427011496E+01  0.25339121072E+01  0.29337036846E+02  0.00000000000E+00 0. -1.
</event>
<event>
 5    1  0.1262391E-009  0.9118800E+02  0.7815553E-02  0.1125453E+00
         25   -1    0    0    0    0  0.00000000000E+00  0.00000000000E+00  0.99999998245E-14  0.12509000000E+03  0.12509000000E+03 0.  0.
        -13    1    3    3    0    0  0.45222335531E+02  0.14851890662E+02  0.10000158087E+02  0.48637975008E+02  0.10566000000E+00 0.  1.
         23    2    1    0    0    0  0.15735025023E+02 -0.36374649797E+01 -0.23255729438E+02  0.96776555920E+02  0.92542156124E+02 0.  0.
         13    1    3    3    0    0 -0.29487310508E+02 -0.18489355642E+02 -0.33255887526E+02  0.48138580912E+02  0.10566000000E+00 0. -1.
         22    1    1    0    0    0 -0.15735025023E+02  0.36374649797E+01  0.23255729438E+02  0.28313444080E+02  0.00000000000E+00 0.  1.
</event>
<event>
 5    1  0.1262391E-009  0.9118800E+02  0.7815553E-02  0.1125453E+00
         25   -1    0    0    0    0  0.00000000000E+00  0.00000000000E+00  0.99999998245E-14  0.12509000000E+03  0.12509000000E+03 0.  0.
        -13    1    3    3    0    0 -0.29850681492E+02  0.17122549353E+02  0.57872784875E+01  0.34896255361E+02  0.10566000000E+00 0. -1.
         23    2    1    0    0    0  0.88162615177E+01 -0.13842757605E+02 -0.26422875221E+02  0.93985068877E+02  0.88688648832E+02 0.  0.
         13    1    3    3    0    0  0.38666943010E+02 -0.30965306958E+02 -0.32210153708E+02  0.59088813516E+02  0.10566000000E+00 0.  1.
         22    1    1    0    0    0 -0.88162615177E+01  0.13842757605E+02  0.26422875221E+02  0.31104931123E+02  0.00000000000E+00 0.  1.
</event>
<event>
 5    1  0.1262391E-009  0.9118800E+02  0.7815553E-02  0.1125453E+00
         25   -1    0    0    0    0  0.00000000000E+00  0.00000000000E+00  0.99999998245E-14  0.12509000000E+03  0.12509000000E+03 0.  0.
        -13    1    3    3    0    0  0.43380248506E+02  0.87053492746E+01 -0.39471700071E+02  0.59292961952E+02  0.10566000000E+00 0.  1.
         23    2    1    0    0    0  0.27095944786E+02 -0.88010399522E+01 -0.18295730862E+02  0.91231732238E+02  0.84716271585E+02 0.  0.
         13    1    3    3    0    0 -0.16284303720E+02 -0.17506389227E+02  0.21175969210E+02  0.31938770287E+02  0.10566000000E+00 0. -1.
         22    1    1    0    0    0 -0.27095944786E+02  0.88010399522E+01  0.18295730862E+02  0.33858267762E+02  0.00000000000E+00 0.  1.
</event>
<event>
 5    1  0.1262391E-009  0.9118800E+02  0.7815553E-02  0.1125453E+00
         25   -1    0    0    0    0  0.00000000000E+00  0.00000000000E+00  0.99999998245E-14  0.12509000000E+03  0.12509000000E+03 0.  0.
        -13    1    3    3    0    0 -0.27555080677E+02 -0.49180881047E+02  0.25846233814E+02  0.62016775941E+02  0.10566000000E+00 0.  1.
         23    2    1    0    0    0 -0.77881370762E+01 -0.25471671203E+02  0.12989540926E+02  0.95455741338E+02  0.90739237752E+02 0.  0.
         13    1    3    3    0    0  0.19766943600E+02  0.23709209845E+02 -0.12856692888E+02  0.33438965397E+02  0.10566000000E+00 0. -1.
         22    1    1    0    0    0  0.77881370762E+01  0.25471671203E+02 -0.12989540926E+02  0.29634258662E+02  0.00000000000E+00 0.  1.
</event>
<event>
 5    1  0.1262391E-009  0.9118800E+02  0.7815553E-02  0.1125453E+00
         25   -1    0    0    0    0  0.00000000000E+00  0.00000000000E+00  0.99999998245E-14  0.12509000000E+03  0.12509000000E+03 0.  0.
        -13    1    3    3    0    0 -0.33519564480E+02  0.23519276805E+01  0.93979341904E+01  0.34891619307E+02  0.10566000000E+00 0. -1.
         23    2    1    0    0    0  0.44102085348E+01  0.27385114961E+02 -0.21626501678E+02  0.89917567108E+02  0.82753059393E+02 0.  0.
         13    1    3    3    0    0  0.37929773015E+02  0.25033187281E+02 -0.31024435868E+02  0.55025947801E+02  0.10566000000E+00 0.  1.
         22    1    1    0    0    0 -0.44102085348E+01 -0.27385114961E+02  0.21626501678E+02  0.35172432892E+02  0.00000000000E+00 0.  1.
</event>
<event>
 5    1  0.1262391E-009  0.9118800E+02  0.7815553E-02  0.1125453E+00
         25   -1    0    0    0    0  0.00000000000E+00  0.00000000000E+00  0.99999998245E-14  0.12509000000E+03  0.12509000000E+03 0.  0.
        -13    1    3    3    0    0  0.25442979027E+02 -0.24627598615E+02  0.12408270177E+02  0.37521195719E+02  0.10566000000E+00 0. -1.
         23    2    1    0    0    0 -0.23310883751E+02 -0.12372185457E+02 -0.14954890174E+02  0.94756569360E+02  0.89770208992E+02 0.  0.
         13    1    3    3    0    0 -0.48753862778E+02  0.12255413158E+02 -0.27363160351E+02  0.57235373642E+02  0.10566000000E+00 0.  1.
         22    1    1    0    0    0  0.23310883751E+02  0.12372185457E+02  0.14954890174E+02  0.30333430640E+02  0.00000000000E+00 0.  1.
</event>
<event>
 5    1  0.1262391E-009  0.9118800E+02  0.7815553E-02  0.1125453E+00
         25   -1    0    0    0    0  0.00000000000E+00  0.00000000000E+00  0.99999998245E-14  0.12509000000E+03  0.12509000000E+03 0.  0.
        -13    1    3    3    0    0 -0.25885752368E+02 -0.12393106999E+02 -0.41445206120E+01  0.28997404916E+02  0.10566000000E+00 0. -1.
         23    2    1    0    0    0  0.31196732914E+02  0.10996239007E+02  0.58748104111E+01  0.91494363168E+02  0.85103182534E+02 0.  0.
         13    1    3    3    0    0  0.57082485282E+02  0.23389346006E+02  0.10019331023E+02  0.62496958252E+02  0.10566000000E+00 0.  1.
         22    1    1    0    0    0 -0.31196732914E+02 -0.10996239007E+02 -0.58748104111E+01  0.33595636832E+02  0.00000000000E+00 0.  1.
</event>
<event>
 5    1  0.1262391E-009  0.9118800E+02  0.7815553E-02  0.1125453E+00
         25   -1    0    0    0    0  0.00000000000E+00  0.00000000000E+00  0.99999998245E-14  0.12509000000E+03  0.12509000000E+03 0.  0.
        -13    1    3    3    0    0 -0.60444619420E+02 -0.10602664064E+02 -0.10554028451E+02  0.62268508756E+02  0.10566000000E+00 0.  1.
         23    2    1    0    0    0 -0.25716462154E+02 -0.83300295914E+01 -0.28989438729E+01  0.97903060226E+02  0.94052535890E+02 0.  0.
         13    1    3    3    0    0  0.34728157266E+02  0.22726344727E+01  0.76550845780E+01  0.35634551470E+02  0.10566000000E+00 0. -1.
         22    1    1    0    0    0  0.25716462154E+02  0.83300295914E+01  0.28989438729E+01  0.27186939774E+02  0.00000000000E+00 0.  1.
</event>
<event>
 5    1  0.1262391E-009  0.9118800E+02  0.7815553E-02  0.1125453E+00
         25   -1    0    0    0    0  0.00000000000E+00  0.00000000000E+00  0.99999998245E-14  0.12509000000E+03  0.12509000000E+03 0.  0.
        -13    1    3    3    0    0  0.43495845218E+01  0.15722567967E+02  0.37154915107E+02  0.40578527692E+02  0.10566000000E+00 0. -1.
         23    2    1    0    0    0  0.25070903103E+01 -0.28867093711E+02  0.47567001510E+01  0.95726403533E+02  0.91111599349E+02 0.  0.
         13    1    3    3    0    0 -0.18424942115E+01 -0.44589661678E+02 -0.32398214956E+02  0.55147875841E+02  0.10566000000E+00 0.  1.
         22    1    1    0    0    0 -0.25070903103E+01  0.28867093711E+02 -0.47567001510E+01  0.29363596467E+02  0.00000000000E+00 0.  1.
</event>
<event>
 5    1  0.1262391E-009  0.9118800E+02  0.7815553E-02  0.1125453E+00
         25   -1    0    0    0    0  0.00000000000E+00  0.00000000000E+00  0.99999998245E-14  0.12509000000E+03  0.12509000000E+03 0.  0.
        -13    1    3    3    0    0  0.59767750356E+02 -0.16397256219E+02 -0.65658643422E+01  0.62323155671E+02  0.10566000000E+00 0.  1.
         23    2    1    0    0    0  0.25131381626E+02 -0.41390952775E+01 -0.15725631841E+00  0.99619562593E+02  0.96308431975E+02 0.  0.
         13    1    3    3    0    0 -0.34636368730E+02  0.12258160942E+02  0.64086080238E+01  0.37296406922E+02  0.10566000000E+00 0. -1.
         22    1    1    0    0    0 -0.25131381626E+02  0.41390952775E+01  0.15725631841E+00  0.25470437407E+02  0.00000000000E+00 0.  1.
</event>
<event>
 5    1  0.1262391E-009  0.9118800E+02  0.7815553E-02  0.1125453E+00
         25   -1    0    0    0    0  0.00000000000E+00  0.00000000000E+00  0.99999998245E-14  0.12509000000E+03  0.12509000000E+03 0.  0.
        -13    1    3    3    0    0 -0.40344077722E+02 -0.45469029190E+02  0.95440140077E+01  0.61531915216E+02  0.10566000000E+00 0.  1.
         23    2    1    0    0    0 -0.12495961394E+02 -0.25112095593E+02  0.73321043542E+01  0.96098170970E+02  0.91620588916E+02 0.  0.
         13    1    3    3    0    0  0.27848116328E+02  0.20356933598E+02 -0.22119096534E+01  0.34566255754E+02  0.10566000000E+00 0. -1.
         22    1    1    0    0    0  0.12495961394E+02  0.25112095593E+02 -0.73321043542E+01  0.28991829030E+02  0.00000000000E+00 0.  1.
</event>
<event>
 5    1  0.1262391E-009  0.9118800E+02  0.7815553E-02  0.1125453E+00
         25   -1    0    0    0    0  0.00000000000E+00  0.00000000000E+00  0.99999998245E-14  0.12509000000E+03  0.12509000000E+03 0.  0.
        -13    1    3    3    0    0  0.34624556585E+02 -0.33099585398E+02 -0.16230996636E+02  0.50575674865E+02  0.10566000000E+00 0. -1.
         23    2    1    0    0    0  0.64092782198E+00 -0.27914392868E+02  0.11647555792E+02  0.94836245298E+02  0.89881164593E+02 0.  0.
         13    1    3    3    0    0 -0.33983628763E+02  0.51851925305E+01  0.27878552428E+02  0.44260570432E+02  0.10566000000E+00 0.  1.
         22    1    1    0    0    0 -0.64092782198E+00  0.27914392868E+02 -0.11647555792E+02  0.30253754702E+02  0.00000000000E+00 0. -1.
</event>
<event>
 5    1  0.1262391E-009  0.9118800E+02  0.7815553E-02  0.1125453E+00
         25   -1    0    0    0    0  0.00000000000E+00  0.00000000000E+00  0.99999998245E-14  0.12509000000E+03  0.12509000000E+03 0.  0.
        -13    1    3    3    0    0 -0.48492873670E+02 -0.14468088869E+02  0.29324890613E+02  0.58487988218E+02  0.10566000000E+00 0.  1.
         23    2    1    0    0    0 -0.27687268357E+02 -0.46186064325E+01 -0.15238896057E+01  0.96978817279E+02  0.92815151817E+02 0.  0.
         13    1    3    3    0    0  0.20805605313E+02  0.98494824367E+01 -0.30848780219E+02  0.38490829060E+02  0.10566000000E+00 0. -1.
         22    1    1    0    0    0  0.27687268357E+02  0.46186064325E+01  0.15238896057E+01  0.28111182721E+02  0.00000000000E+00 0.  1.
</event>
<event>
 5    1  0.1262391E-009  0.9118800E+02  0.7815553E-02  0.1125453E+00
         25   -1    0    0    0    0  0.00000000000E+00  0.00000000000E+00  0.99999998245E-14  0.12509000000E+03  0.12509000000E+03 0.  0.
        -13    1    3    3    0    0 -0.16394687748E+02 -0.47876962402E+02 -0.61578370511E+01  0.50979598237E+02  0.10566000000E+00 0.  1.
         23    2    1    0    0    0  0.18681027989E+02 -0.27631869810E+02 -0.26083035557E+01  0.91633994808E+02  0.85308174996E+02 0.  0.
         13    1    3    3    0    0  0.35075715737E+02  0.20245092592E+02  0.35495334954E+01  0.40654396571E+02  0.10566000000E+00 0. -1.
         22    1    1    0    0    0 -0.18681027989E+02  0.27631869810E+02  0.26083035557E+01  0.33456005192E+02  0.00000000000E+00 0.  1.
</event>
<event>
 5    1  0.1262391E-009  0.9118800E+02  0.7815553E-02  0.1125453E+00
         25   -1    0    0    0    0  0.00000000000E+00  0.00000000000E+00  0.99999998245E-14  0.12509000000E+03  0.12509000000E+03 0.  0.
        -13    1    3    3    0    0 -0.10398914947E+01  0.41034335044E+02 -0.14800839849E+02  0.43634551116E+02  0.10566000000E+00 0.  1.
         23    2    1    0    0    0  0.29221150122E+02  0.79380058868E+00 -0.99242170339E+01  0.94219369660E+02  0.89018502580E+02 0.  0.
         13    1    3    3    0    0  0.30261041617E+02 -0.40240534456E+02  0.48766228147E+01  0.50584818544E+02  0.10566000000E+00 0. -1.
         22    1    1    0    0    0 -0.29221150122E+02 -0.79380058868E+00  0.99242170339E+01  0.30870630340E+02  0.00000000000E+00 0. -1.
</event>
<event>
 5    1  0.1262391E-009  0.9118800E+02  0.7815553E-02  0.1125453E+00
         25   -1    0    0    0    0  0.00000000000E+00  0.00000000000E+00  0.99999998245E-14  0.12509000000E+03  0.12509000000E+03 0.  0.
        -13    1    3    3    0    0  0.17586805024E+02 -0.11639466335E+02  0.45872873071E+02  0.50488657492E+02  0.10566000000E+00 0.  1.
         23    2    1    0    0    0  0.27762280676E+02 -0.51550155637E+01  0.11294321739E+01  0.96830593941E+02  0.92615170961E+02 0.  0.
         13    1    3    3    0    0  0.10175475652E+02  0.64844507714E+01 -0.44743440897E+02  0.46341936449E+02  0.10566000000E+00 0. -1.
         22    1    1    0    0    0 -0.27762280676E+02  0.51550155637E+01 -0.11294321739E+01  0.28259406059E+02  0.00000000000E+00 0.  1.
</event>
<event>
 5    1  0.1262391E-009  0.9118800E+02  0.7815553E-02  0.1125453E+00
         25   -1    0    0    0    0  0.00000000000E+00  0.00000000000E+00  0.99999998245E-14  0.12509000000E+03  0.12509000000E+03 0.  0.
        -13    1    3    3    0    0 -0.33964261896E+02 -0.40409520585E+00 -0.17519625543E+02  0.38218880443E+02  0.10566000000E+00 0.  1.
         23    2    1    0    0    0  0.13066002460E+02 -0.26286627102E+02  0.27642838528E+01  0.95605284470E+02  0.90945159127E+02 0.  0.
         13    1    3    3    0    0  0.47030264356E+02 -0.25882531896E+02  0.20283909396E+02  0.57386404027E+02  0.10566000000E+00 0. -1.
         22    1    1    0    0    0 -0.13066002460E+02  0.26286627102E+02 -0.27642838528E+01  0.29484715530E+02  0.00000000000E+00 0. -1.
</event>
<event>
 5    1  0.1262391E-009  0.9118800E+02  0.7815553E-02  0.1125453E+00
         25   -1    0    0    0    0  0.00000000000E+00  0.00000000000E+00  0.99999998245E-14  0.12509000000E+03  0.12509000000E+03 0.  0.
        -13    1    3    3    0    0  0.90997039234E+01  0.11774502324E+02  0.31133101027E+02  0.34506878446E+02  0.10566000000E+00 0. -1.
         23    2    1    0    0    0  0.39972367858E+01 -0.17278316976E+02 -0.22935009344E+02  0.96098056412E+02  0.91620432509E+02 0.  0.
         13    1    3    3    0    0 -0.51024671376E+01 -0.29052819300E+02 -0.54068110370E+02  0.61591177966E+02  0.10566000000E+00 0.  1.
         22    1    1    0    0    0 -0.39972367858E+01  0.17278316976E+02  0.22935009344E+02  0.28991943588E+02  0.00000000000E+00 0.  1.
</event>
<event>
 5    1  0.1262391E-009  0.9118800E+02  0.7815553E-02  0.1125453E+00
         25   -1    0    0    0    0  0.00000000000E+00  0.00000000000E+00  0.99999998245E-14  0.12509000000E+03  0.12509000000E+03 0.  0.
        -13    1    3    3    0    0 -0.59236739118E+01 -0.36321968182E+02  0.14487516081E+02  0.39550911133E+02  0.10566000000E+00 0. -1.
         23    2    1    0    0    0 -0.20042747554E+02  0.48429921110E+01 -0.20966050907E+02  0.95683511044E+02  0.91052691849E+02 0.  0.
         13    1    3    3    0    0 -0.14119073642E+02  0.41164960293E+02 -0.35453566988E+02  0.56132599910E+02  0.10566000000E+00 0.  1.
         22    1    1    0    0    0  0.20042747554E+02 -0.48429921110E+01  0.20966050907E+02  0.29406488956E+02  0.00000000000E+00 0.  1.
</event>
<event>
 5    1  0.1262391E-009  0.9118800E+02  0.7815553E-02  0.1125453E+00
         25   -1    0    0    0    0  0.00000000000E+00  0.00000000000E+00  0.99999998245E-14  0.12509000000E+03  0.12509000000E+03 0.  0.
        -13    1    3    3    0    0 -0.25597896267E+02 -0.88108615196E+01  0.26637510409E+02  0.37979622153E+02  0.10566000000E+00 0.  1.
         23    2    1    0    0    0  0.28164587651E+02 -0.73673464590E+01  0.10705857912E+02  0.94071663729E+02  0.88810701673E+02 0.  0.
         13    1    3    3    0    0  0.53762483918E+02  0.14435150606E+01 -0.15931652498E+02  0.56092041576E+02  0.10566000000E+00 0. -1.
         22    1    1    0    0    0 -0.28164587651E+02  0.73673464590E+01 -0.10705857912E+02  0.31018336271E+02  0.00000000000E+00 0. -1.
</event>
<event>
 5    1  0.1262391E-009  0.9118800E+02  0.7815553E-02  0.1125453E+00
         25   -1    0    0    0    0  0.00000000000E+00  0.00000000000E+00  0.99999998245E-14  0.12509000000E+03  0.12509000000E+03 0.  0.
        -13    1    3    3    0    0  0.42825857567E+02 -0.29021413012E+02 -0.39571925104E+01  0.51884169321E+02  0.10566000000E+00 0. -1.
         23    2    1    0    0    0  0.94442806024E+01 -0.95381323526E+01 -0.25601357808E+02  0.96183254655E+02  0.91736680502E+02 0.  0.
         13    1    3    3    0    0 -0.33381576965E+02  0.19483280660E+02 -0.21644165297E+02  0.44299085333E+02  0.10566000000E+00 0.  1.
         22    1    1    0    0    0 -0.94442806024E+01  0.95381323526E+01  0.25601357808E+02  0.28906745345E+02  0.00000000000E+00 0.  1.
</event>
<event>
 5    1  0.1262391E-009  0.9118800E+02  0.7815553E-02  0.1125453E+00
         25   -1    0    0    0    0  0.00000000000E+00  0.00000000000E+00  0.99999998245E-14  0.12509000000E+03  0.12509000000E+03 0.  0.
        -13    1    3    3    0    0 -0.19133227259E+01 -0.20722725597E+02 -0.53834884616E+02  0.57717398812E+02  0.10566000000E+00 0. -1.
         23    2    1    0    0    0  0.10940027928E+02 -0.81509731484E+01 -0.45599483631E+02  0.77493408927E+02  0.61153846530E+02 0.  0.
         13    1    3    3    0    0  0.12853350653E+02  0.12571752449E+02  0.82354009847E+01  0.19776010115E+02  0.10566000000E+00 0.  1.
         22    1    1    0    0    0 -0.10940027928E+02  0.81509731484E+01  0.45599483631E+02  0.47596591073E+02  0.00000000000E+00 0. -1.
</event>
<event>
 5    1  0.1262391E-009  0.9118800E+02  0.7815553E-02  0.1125453E+00
         25   -1    0    0    0    0  0.00000000000E+00  0.00000000000E+00  0.99999998245E-14  0.12509000000E+03  0.12509000000E+03 0.  0.
        -13    1    3    3    0    0 -0.32538329340E+01 -0.11425879483E+02  0.50304883282E+02  0.51688785986E+02  0.10566000000E+00 0. -1.
         23    2    1    0    0    0  0.15131926289E+01 -0.29373824576E+02  0.13896704081E+02  0.92559557235E+02  0.86654728256E+02 0.  0.
         13    1    3    3    0    0  0.47670255629E+01 -0.17947945092E+02 -0.36408179201E+02  0.40870771249E+02  0.10566000000E+00 0.  1.
         22    1    1    0    0    0 -0.15131926289E+01  0.29373824576E+02 -0.13896704081E+02  0.32530442765E+02  0.00000000000E+00 0.  1.
</event>
<event>
 5    1  0.1262391E-009  0.9118800E+02  0.7815553E-02  0.1125453E+00
         25   -1    0    0    0    0  0.00000000000E+00  0.00000000000E+00  0.99999998245E-14  0.12509000000E+03  0.12509000000E+03 0.  0.
        -13    1    3    3    0    0 -0.43704505029E+01 -0.48379793424E+02  0.45666796668E+01  0.48791095259E+02  0.10566000000E+00 0.  1.
         23    2    1    0    0    0 -0.24604678855E+02 -0.98156232317E+01  0.16417178613E+02  0.93924948506E+02  0.88603812092E+02 0.  0.
         13    1    3    3    0    0 -0.20234228353E+02  0.38564170192E+02  0.11850498946E+02  0.45133853247E+02  0.10566000000E+00 0. -1.
         22    1    1    0    0    0  0.24604678855E+02  0.98156232317E+01 -0.16417178613E+02  0.31165051494E+02  0.00000000000E+00 0.  1.
</event>
<event>
 5    1  0.1262391E-009  0.9118800E+02  0.7815553E-02  0.1125453E+00
         25   -1    0    0    0    0  0.00000000000E+00  0.00000000000E+00  0.99999998245E-14  0.12509000000E+03  0.12509000000E+03 0.  0.
        -13    1    3    3    0    0 -0.13769803186E+02 -0.50382674530E+02 -0.22805763368E+02  0.56992415104E+02  0.10566000000E+00 0.  1.
         23    2    1    0    0    0  0.12026135317E+02 -0.25731254650E+02 -0.11813786899E+02  0.94328157445E+02  0.89171241606E+02 0.  0.
         13    1    3    3    0    0  0.25795938503E+02  0.24651419881E+02  0.10991976469E+02  0.37335742340E+02  0.10566000000E+00 0. -1.
         22    1    1    0    0    0 -0.12026135317E+02  0.25731254650E+02  0.11813786899E+02  0.30761842555E+02  0.00000000000E+00 0.  1.
</event>
<event>
 5    1  0.1262391E-009  0.9118800E+02  0.7815553E-02  0.1125453E+00
         25   -1    0    0    0    0  0.00000000000E+00  0.00000000000E+00  0.99999998245E-14  0.12509000000E+03  0.12509000000E+03 0.  0.
        -13    1    3    3    0    0 -0.55011138829E+01 -0.56111808747E+02 -0.22776937183E+02  0.60807872568E+02  0.10566000000E+00 0.  1.
         23    2    1    0    0    0  0.78455674207E+00 -0.22416953650E+02 -0.19725583332E+02  0.95219714129E+02  0.90413273256E+02 0.  0.
         13    1    3    3    0    0  0.62856706250E+01  0.33694855097E+02  0.30513538505E+01  0.34411841561E+02  0.10566000000E+00 0. -1.
         22    1    1    0    0    0 -0.78455674207E+00  0.22416953650E+02  0.19725583332E+02  0.29870285871E+02  0.00000000000E+00 0.  1.
</event>
<event>
 5    1  0.1262391E-009  0.9118800E+02  0.7815553E-02  0.1125453E+00
         25   -1    0    0    0    0  0.00000000000E+00  0.00000000000E+00  0.99999998245E-14  0.12509000000E+03  0.12509000000E+03 0.  0.
        -13    1    3    3    0    0 -0.31211074798E+02 -0.32541246748E+02 -0.43308471626E+02  0.62519587399E+02  0.10566000000E+00 0.  1.
         23    2    1    0    0    0 -0.15647648414E+02 -0.15326861236E+02 -0.19564818297E+02  0.95720905850E+02  0.91104051092E+02 0.  0.
         13    1    3    3    0    0  0.15563426384E+02  0.17214385512E+02  0.23743653329E+02  0.33201318450E+02  0.10566000000E+00 0. -1.
         22    1    1    0    0    0  0.15647648414E+02  0.15326861236E+02  0.19564818297E+02  0.29369094150E+02  0.00000000000E+00 0.  1.
</event>
<event>
 5    1  0.1262391E-009  0.9118800E+02  0.7815553E-02  0.1125453E+00
         25   -1    0    0    0    0  0.00000000000E+00  0.00000000000E+00  0.99999998245E-14  0.12509000000E+03  0.12509000000E+03 0.  0.
        -13    1    3    3    0    0 -0.32217995790E+01 -0.28767342203E+02 -0.19529635723E+02  0.34919304195E+02  0.10566000000E+00 0.  1.
         23    2    1    0    0    0  0.22596472199E+01  0.29234106921E+02 -0.22756647561E+01  0.95680517463E+02  0.91048579115E+02 0.  0.
         13    1    3    3    0    0  0.54814467990E+01  0.58001449125E+02  0.17253970967E+02  0.60761213267E+02  0.10566000000E+00 0. -1.
         22    1    1    0    0    0 -0.22596472199E+01 -0.29234106921E+02  0.22756647561E+01  0.29409482537E+02  0.00000000000E+00 0. -1.
</event>
<event>
 5    1  0.1262391E-009  0.9118800E+02  0.7815553E-02  0.1125453E+00
         25   -1    0    0    0    0  0.00000000000E+00  0.00000000000E+00  0.99999998245E-14  0.12509000000E+03  0.12509000000E+03 0.  0.
        -13    1    3    3    0    0  0.26858422998E+02 -0.47190197644E+02 -0.11964379480E+02  0.55600783988E+02  0.10566000000E+00 0.  1.
         23    2    1    0    0    0  0.28612772077E+02 -0.89832191679E+01 -0.79897702940E+01  0.94054127499E+02  0.88785998433E+02 0.  0.
         13    1    3    3    0    0  0.17543490786E+01  0.38206978476E+02  0.39746091857E+01  0.38453343511E+02  0.10566000000E+00 0. -1.
         22    1    1    0    0    0 -0.28612772077E+02  0.89832191679E+01  0.79897702940E+01  0.31035872501E+02  0.00000000000E+00 0.  1.
</event>
<event>
 5    1  0.1262391E-009  0.9118800E+02  0.7815553E-02  0.1125453E+00
         25   -1    0    0    0    0  0.00000000000E+00  0.00000000000E+00  0.99999998245E-14  0.12509000000E+03  0.12509000000E+03 0.  0.
        -13    1    3    3    0    0 -0.39679041971E+02  0.10062372701E+02  0.15376944379E+02  0.43728015031E+02  0.10566000000E+00 0. -1.
         23    2    1    0    0    0 -0.22804925244E+01  0.20536131766E+02 -0.20051748379E+02  0.96297536279E+02  0.91892380132E+02 0.  0.
         13    1    3    3    0    0  0.37398549446E+02  0.10473759065E+02 -0.35428692758E+02  0.52569521248E+02  0.10566000000E+00 0.  1.
         22    1    1    0    0    0  0.22804925244E+01 -0.20536131766E+02  0.20051748379E+02  0.28792463721E+02  0.00000000000E+00 0.  1.
</event>
<event>
 5    1  0.1262391E-009  0.9118800E+02  0.7815553E-02  0.1125453E+00
         25   -1    0    0    0    0  0.00000000000E+00  0.00000000000E+00  0.99999998245E-14  0.12509000000E+03  0.12509000000E+03 0.  0.
        -13    1    3    3    0    0  0.49048783428E+02  0.81449179596E+01  0.34227776806E+01  0.49838232467E+02  0.10566000000E+00 0. -1.
         23    2    1    0    0    0  0.12219465650E+02 -0.97045859416E+01  0.24629715661E+02  0.95933230244E+02  0.91395117169E+02 0.  0.
         13    1    3    3    0    0 -0.36829317778E+02 -0.17849503901E+02  0.21206937981E+02  0.46094997777E+02  0.10566000000E+00 0.  1.
         22    1    1    0    0    0 -0.12219465650E+02  0.97045859416E+01 -0.24629715661E+02  0.29156769756E+02  0.00000000000E+00 0. -1.
</event>
<event>
 5    1  0.1262391E-009  0.9118800E+02  0.7815553E-02  0.1125453E+00
         25   -1    0    0    0    0  0.00000000000E+00  0.00000000000E+00  0.99999998245E-14  0.12509000000E+03  0.12509000000E+03 0.  0.
        -13    1    3    3    0    0 -0.25570514841E+02 -0.44219226143E+02  0.10189853161E+02  0.52086806981E+02  0.10566000000E+00 0. -1.
         23    2    1    0    0    0 -0.71947745577E+00 -0.20361701221E+02 -0.18993295746E+02  0.97235703963E+02  0.93160723041E+02 0.  0.
         13    1    3    3    0    0  0.24851037386E+02  0.23857524922E+02 -0.29183148907E+02  0.45148896982E+02  0.10566000000E+00 0.  1.
         22    1    1    0    0    0  0.71947745577E+00  0.20361701221E+02  0.18993295746E+02  0.27854296037E+02  0.00000000000E+00 0. -1.
</event>
<event>
 5    1  0.1262391E-009  0.9118800E+02  0.7815553E-02  0.1125453E+00
         25   -1    0    0    0    0  0.00000000000E+00  0.00000000000E+00  0.99999998245E-14  0.12509000000E+03  0.12509000000E+03 0.  0.
        -13    1    3    3    0    0  0.38862928903E+01  0.33611000948E+01 -0.37445719860E+02  0.37796737507E+02  0.10566000000E+00 0. -1.
         23    2    1    0    0    0 -0.25618245507E+02 -0.18195686555E+02  0.44109436504E+01  0.93359353364E+02  0.87801679509E+02 0.  0.
         13    1    3    3    0    0 -0.29504538397E+02 -0.21556786650E+02  0.41856663510E+02  0.55562615858E+02  0.10566000000E+00 0.  1.
         22    1    1    0    0    0  0.25618245507E+02  0.18195686555E+02 -0.44109436504E+01  0.31730646636E+02  0.00000000000E+00 0.  1.
</event>
<event>
 5    1  0.1262391E-009  0.9118800E+02  0.7815553E-02  0.1125453E+00
         25   -1    0    0    0    0  0.00000000000E+00  0.00000000000E+00  0.99999998245E-14  0.12509000000E+03  0.12509000000E+03 0.  0.
        -13    1    3    3    0    0 -0.39376296011E+02 -0.34815360834E+02  0.19652138701E+01  0.52597293344E+02  0.10566000000E+00 0.  1.
         23    2    1    0    0    0  0.22508279732E+01 -0.28094604493E+02  0.93285917537E+01  0.95401691657E+02  0.90664696099E+02 0.  0.
         13    1    3    3    0    0  0.41627123984E+02  0.67207563410E+01  0.73633778836E+01  0.42804398312E+02  0.10566000000E+00 0. -1.
         22    1    1    0    0    0 -0.22508279732E+01  0.28094604493E+02 -0.93285917537E+01  0.29688308343E+02  0.00000000000E+00 0.  1.
</event>
<event>
 5    1  0.1262391E-009  0.9118800E+02  0.7815553E-02  0.1125453E+00
         25   -1    0    0    0    0  0.00000000000E+00  0.00000000000E+00  0.99999998245E-14  0.12509000000E+03  0.12509000000E+03 0.  0.
        -13    1    3    3    0    0  0.13964185003E+02 -0.17175565649E+02  0.36616220840E+02  0.42787349892E+02  0.10566000000E+00 0.  1.
         23    2    1    0    0    0 -0.44394764680E+01 -0.25995963056E+02 -0.12448500571E+02  0.95927280425E+02  0.91386973453E+02 0.  0.
         13    1    3    3    0    0 -0.18403661471E+02 -0.88203974068E+01 -0.49064721410E+02  0.53139930533E+02  0.10566000000E+00 0. -1.
         22    1    1    0    0    0  0.44394764680E+01  0.25995963056E+02  0.12448500571E+02  0.29162719575E+02  0.00000000000E+00 0. -1.
</event>
<event>
 5    1  0.1262391E-009  0.9118800E+02  0.7815553E-02  0.1125453E+00
         25   -1    0    0    0    0  0.00000000000E+00  0.00000000000E+00  0.99999998245E-14  0.12509000000E+03  0.12509000000E+03 0.  0.
        -13    1    3    3    0    0  0.38745929146E+02  0.80240969288E+01  0.13895183442E+02  0.41937101042E+02  0.10566000000E+00 0. -1.
         23    2    1    0    0    0  0.87325442211E+01  0.77534904832E+01 -0.28734440989E+02  0.94073197421E+02  0.88812861855E+02 0.  0.
         13    1    3    3    0    0 -0.30013384925E+02 -0.27060644555E+00 -0.42629624431E+02  0.52136096379E+02  0.10566000000E+00 0.  1.
         22    1    1    0    0    0 -0.87325442211E+01 -0.77534904832E+01  0.28734440989E+02  0.31016802579E+02  0.00000000000E+00 0. -1.
</event>
<event>
 5    1  0.1262391E-009  0.9118800E+02  0.7815553E-02  0.1125453E+00
         25   -1    0    0    0    0  0.00000000000E+00  0.00000000000E+00  0.99999998245E-14  0.12509000000E+03  0.12509000000E+03 0.  0.
        -13    1    3    3    0    0  0.30927929928E+02 -0.15825366514E+02  0.19895766278E+02  0.40035381287E+02  0.10566000000E+00 0.  1.
         23    2    1    0    0    0 -0.20095382477E+02 -0.15675220760E+02 -0.82434587364E+01  0.98303967171E+02  0.94584239739E+02 0.  0.
         13    1    3    3    0    0 -0.51023312405E+02  0.15014575467E+00 -0.28139225014E+02  0.58268585885E+02  0.10566000000E+00 0. -1.
         22    1    1    0    0    0  0.20095382477E+02  0.15675220760E+02  0.82434587364E+01  0.26786032829E+02  0.00000000000E+00 0. -1.
</event>
<event>
 5    1  0.1262391E-009  0.9118800E+02  0.7815553E-02  0.1125453E+00
         25   -1    0    0    0    0  0.00000000000E+00  0.00000000000E+00  0.99999998245E-14  0.12509000000E+03  0.12509000000E+03 0.  0.
        -13    1    3    3    0    0 -0.36695887816E+02  0.19099786077E+02 -0.26228586607E+02  0.48983057583E+02  0.10566000000E+00 0.  1.
         23    2    1    0    0    0 -0.17268095343E+02 -0.20360536623E+02 -0.15359320637E+02  0.94289881514E+02  0.89117531705E+02 0.  0.
         13    1    3    3    0    0  0.19427792473E+02 -0.39460322700E+02  0.10869265970E+02  0.45306823931E+02  0.10566000000E+00 0. -1.
         22    1    1    0    0    0  0.17268095343E+02  0.20360536623E+02  0.15359320637E+02  0.30800118486E+02  0.00000000000E+00 0. -1.
</event>
<event>
 5    1  0.1262391E-009  0.9118800E+02  0.7815553E-02  0.1125453E+00
         25   -1    0    0    0    0  0.00000000000E+00  0.00000000000E+00  0.99999998245E-14  0.12509000000E+03  0.12509000000E+03 0.  0.
        -13    1    3    3    0    0  0.26137409899E+02 -0.18317229555E+02  0.37108006618E+02  0.48945892718E+02  0.10566000000E+00 0.  1.
         23    2    1    0    0    0  0.28645902462E+02 -0.64119767911E+01 -0.71759189049E+01  0.94870883759E+02  0.89929358937E+02 0.  0.
         13    1    3    3    0    0  0.25084925636E+01  0.11905252764E+02 -0.44283925523E+02  0.45924991041E+02  0.10566000000E+00 0. -1.
         22    1    1    0    0    0 -0.28645902462E+02  0.64119767911E+01  0.71759189049E+01  0.30219116241E+02  0.00000000000E+00 0.  1.
</event>
<event>
 5    1  0.1262391E-009  0.9118800E+02  0.7815553E-02  0.1125453E+00
         25   -1    0    0    0    0  0.00000000000E+00  0.00000000000E+00  0.99999998245E-14  0.12509000000E+03  0.12509000000E+03 0.  0.
        -13    1    3    3    0    0  0.77694344741E+01  0.65182704495E+01 -0.35820043164E+02  0.37228196545E+02  0.10566000000E+00 0. -1.
         23    2    1    0    0    0  0.19877436562E+02  0.19731867280E+01  0.21355642866E+02  0.95848429721E+02  0.91278979221E+02 0.  0.
         13    1    3    3    0    0  0.12108002088E+02 -0.45450837215E+01  0.57175686030E+02  0.58620233176E+02  0.10566000000E+00 0.  1.
         22    1    1    0    0    0 -0.19877436562E+02 -0.19731867280E+01 -0.21355642866E+02  0.29241570279E+02  0.00000000000E+00 0.  1.
</event>
<event>
 5    1  0.1262391E-009  0.9118800E+02  0.7815553E-02  0.1125453E+00
         25   -1    0    0    0    0  0.00000000000E+00  0.00000000000E+00  0.99999998245E-14  0.12509000000E+03  0.12509000000E+03 0.  0.
        -13    1    3    3    0    0  0.34926871843E+02 -0.95965897610E+01  0.30089832044E+02  0.47089171454E+02  0.10566000000E+00 0.  1.
         23    2    1    0    0    0 -0.11280184552E+02 -0.47405883418E+01  0.29056497960E+02  0.93562300829E+02  0.88090341816E+02 0.  0.
         13    1    3    3    0    0 -0.46207056395E+02  0.48560014192E+01 -0.10333340843E+01  0.46473129374E+02  0.10566000000E+00 0. -1.
         22    1    1    0    0    0  0.11280184552E+02  0.47405883418E+01 -0.29056497960E+02  0.31527699171E+02  0.00000000000E+00 0. -1.
</event>
<event>
 5    1  0.1262391E-009  0.9118800E+02  0.7815553E-02  0.1125453E+00
         25   -1    0    0    0    0  0.00000000000E+00  0.00000000000E+00  0.99999998245E-14  0.12509000000E+03  0.12509000000E+03 0.  0.
        -13    1    3    3    0    0 -0.43644342774E+02  0.25616366644E+02 -0.12818665528E+01  0.50622931978E+02  0.10566000000E+00 0.  1.
         23    2    1    0    0    0 -0.20524184271E+02 -0.14733985502E+02 -0.99633417335E+01  0.97931195769E+02  0.94089948759E+02 0.  0.
         13    1    3    3    0    0  0.23120158503E+02 -0.40350352146E+02 -0.86814751807E+01  0.47308263790E+02  0.10566000000E+00 0. -1.
         22    1    1    0    0    0  0.20524184271E+02  0.14733985502E+02  0.99633417335E+01  0.27158804231E+02  0.00000000000E+00 0.  1.
</event>
<event>
 5    1  0.1262391E-009  0.9118800E+02  0.7815553E-02  0.1125453E+00
         25   -1    0    0    0    0  0.00000000000E+00  0.00000000000E+00  0.99999998245E-14  0.12509000000E+03  0.12509000000E+03 0.  0.
        -13    1    3    3    0    0  0.39784755155E+01  0.29271219019E+02 -0.17985917400E+02  0.34585212433E+02  0.10566000000E+00 0. -1.
         23    2    1    0    0    0 -0.12213200776E+02 -0.21271837004E+02  0.14290193665E+02  0.96702274524E+02  0.92441694816E+02 0.  0.
         13    1    3    3    0    0 -0.16191676292E+02 -0.50543056023E+02  0.32276111065E+02  0.62117062091E+02  0.10566000000E+00 0.  1.
         22    1    1    0    0    0  0.12213200776E+02  0.21271837004E+02 -0.14290193665E+02  0.28387725476E+02  0.00000000000E+00 0.  1.
</event>
<event>
 5    1  0.1262391E-009  0.9118800E+02  0.7815553E-02  0.1125453E+00
         25   -1    0    0    0    0  0.00000000000E+00  0.00000000000E+00  0.99999998245E-14  0.12509000000E+03  0.12509000000E+03 0.  0.
        -13    1    3    3    0    0 -0.86411627509E+00  0.86369596835E+01  0.50994997221E+02  0.51728567302E+02  0.10566000000E+00 0.  1.
         23    2    1    0    0    0  0.24634191203E+02  0.10771092607E+02  0.22448290497E+02  0.90064501311E+02  0.82974868714E+02 0.  0.
         13    1    3    3    0    0  0.25498307478E+02  0.21341329232E+01 -0.28546706724E+02  0.38335934009E+02  0.10566000000E+00 0. -1.
         22    1    1    0    0    0 -0.24634191203E+02 -0.10771092607E+02 -0.22448290497E+02  0.35025498689E+02  0.00000000000E+00 0. -1.
</event>
<event>
 5    1  0.1262391E-009  0.9118800E+02  0.7815553E-02  0.1125453E+00
         25   -1    0    0    0    0  0.00000000000E+00  0.00000000000E+00  0.99999998245E-14  0.12509000000E+03  0.12509000000E+03 0.  0.
        -13    1    3    3    0    0 -0.31012069747E+02 -0.27227389224E+02  0.93719627809E+01  0.42319310538E+02  0.10566000000E+00 0.  1.
         23    2    1    0    0    0  0.16208229507E+02 -0.33562691288E+01  0.22807085883E+02  0.96909609430E+02  0.92721831233E+02 0.  0.
         13    1    3    3    0    0  0.47220299254E+02  0.23871120096E+02  0.13435123102E+02  0.54590298892E+02  0.10566000000E+00 0. -1.
         22    1    1    0    0    0 -0.16208229507E+02  0.33562691288E+01 -0.22807085883E+02  0.28180390570E+02  0.00000000000E+00 0. -1.
</event>
<event>
 5    1  0.1262391E-009  0.9118800E+02  0.7815553E-02  0.1125453E+00
         25   -1    0    0    0    0  0.00000000000E+00  0.00000000000E+00  0.99999998245E-14  0.12509000000E+03  0.12509000000E+03 0.  0.
        -13    1    3    3    0    0 -0.40342640057E+02 -0.10060919133E+02  0.82980904825E+01  0.42398351032E+02  0.10566000000E+00 0. -1.
         23    2    1    0    0    0  0.41129252446E+01  0.86882309397E+01  0.28730423934E+02  0.94794145988E+02  0.89822554758E+02 0.  0.
         13    1    3    3    0    0  0.44455565301E+02  0.18749150073E+02  0.20432333451E+02  0.52395794956E+02  0.10566000000E+00 0.  1.
         22    1    1    0    0    0 -0.41129252446E+01 -0.86882309397E+01 -0.28730423934E+02  0.30295854012E+02  0.00000000000E+00 0. -1.
</event>
<event>
 5    1  0.1262391E-009  0.9118800E+02  0.7815553E-02  0.1125453E+00
         25   -1    0    0    0    0  0.00000000000E+00  0.00000000000E+00  0.99999998245E-14  0.12509000000E+03  0.12509000000E+03 0.  0.
        -13    1    3    3    0    0 -0.16602621608E+02 -0.11307383496E+02  0.38724896435E+02  0.43624909556E+02  0.10566000000E+00 0.  1.
         23    2    1    0    0    0  0.82516041152E+01  0.24830552247E+02  0.23104900136E+02  0.90183242693E+02  0.83153686371E+02 0.  0.
         13    1    3    3    0    0  0.24854225723E+02  0.36137935744E+02 -0.15619996299E+02  0.46558333138E+02  0.10566000000E+00 0. -1.
         22    1    1    0    0    0 -0.82516041152E+01 -0.24830552247E+02 -0.23104900136E+02  0.34906757307E+02  0.00000000000E+00 0.  1.
</event>
<event>
 5    1  0.1262391E-009  0.9118800E+02  0.7815553E-02  0.1125453E+00
         25   -1    0    0    0    0  0.00000000000E+00  0.00000000000E+00  0.99999998245E-14  0.12509000000E+03  0.12509000000E+03 0.  0.
        -13    1    3    3    0    0 -0.24661741614E+02 -0.30290259483E+02  0.46034947182E+02  0.60373246103E+02  0.10566000000E+00 0. -1.
         23    2    1    0    0    0 -0.55898752511E+01 -0.23001147831E+02  0.16671366387E+02  0.96137729553E+02  0.91674582516E+02 0.  0.
         13    1    3    3    0    0  0.19071866363E+02  0.72891116519E+01 -0.29363580795E+02  0.35764483449E+02  0.10566000000E+00 0.  1.
         22    1    1    0    0    0  0.55898752511E+01  0.23001147831E+02 -0.16671366387E+02  0.28952270447E+02  0.00000000000E+00 0. -1.
</event>
<event>
 5    1  0.1262391E-009  0.9118800E+02  0.7815553E-02  0.1125453E+00
         25   -1    0    0    0    0  0.00000000000E+00  0.00000000000E+00  0.99999998245E-14  0.12509000000E+03  0.12509000000E+03 0.  0.
        -13    1    3    3    0    0 -0.89401066184E+01 -0.49365393822E+02  0.60656987308E+01  0.50533864672E+02  0.10566000000E+00 0.  1.
         23    2    1    0    0    0 -0.22617651061E+02 -0.20295525938E+02 -0.17173114076E+02  0.90184665741E+02  0.83155827067E+02 0.  0.
         13    1    3    3    0    0 -0.13677544443E+02  0.29069867884E+02 -0.23238812807E+02  0.39650801070E+02  0.10566000000E+00 0. -1.
         22    1    1    0    0    0  0.22617651061E+02  0.20295525938E+02  0.17173114076E+02  0.34905334259E+02  0.00000000000E+00 0.  1.
</event>
<event>
 5    1  0.1262391E-009  0.9118800E+02  0.7815553E-02  0.1125453E+00
         25   -1    0    0    0    0  0.00000000000E+00  0.00000000000E+00  0.99999998245E-14  0.12509000000E+03  0.12509000000E+03 0.  0.
        -13    1    3    3    0    0  0.22720966658E+02  0.24066623192E+01  0.48132470243E+02  0.53280204627E+02  0.10566000000E+00 0.  1.
         23    2    1    0    0    0  0.29239383079E+01 -0.21792983282E+02  0.21190705661E+02  0.94552653325E+02  0.89485611742E+02 0.  0.
         13    1    3    3    0    0 -0.19797028350E+02 -0.24199645601E+02 -0.26941764582E+02  0.41272448698E+02  0.10566000000E+00 0. -1.
         22    1    1    0    0    0 -0.29239383079E+01  0.21792983282E+02 -0.21190705661E+02  0.30537346675E+02  0.00000000000E+00 0.  1.
</event>
<event>
 5    1  0.1262391E-009  0.9118800E+02  0.7815553E-02  0.1125453E+00
         25   -1    0    0    0    0  0.00000000000E+00  0.00000000000E+00  0.99999998245E-14  0.12509000000E+03  0.12509000000E+03 0.  0.
        -13    1    3    3    0    0 -0.27598464963E+02 -0.27763160657E+02  0.60518774215E+01  0.39611926768E+02  0.10566000000E+00 0. -1.
         23    2    1    0    0    0 -0.16755529135E+01  0.12183625127E+02  0.29819040337E+02  0.92834405672E+02  0.87050580188E+02 0.  0.
         13    1    3    3    0    0  0.25922912049E+02  0.39946785784E+02  0.23767162916E+02  0.53222478904E+02  0.10566000000E+00 0.  1.
         22    1    1    0    0    0  0.16755529135E+01 -0.12183625127E+02 -0.29819040337E+02  0.32255594328E+02  0.00000000000E+00 0. -1.
</event>
<event>
 5    1  0.1262391E-009  0.9118800E+02  0.7815553E-02  0.1125453E+00
         25   -1    0    0    0    0  0.00000000000E+00  0.00000000000E+00  0.99999998245E-14  0.12509000000E+03  0.12509000000E+03 0.  0.
        -13    1    3    3    0    0  0.20623506576E+02  0.14595453280E+02  0.39089359622E+02  0.46544016583E+02  0.10566000000E+00 0.  1.
         23    2    1    0    0    0 -0.12183448232E+02 -0.16506447075E+02  0.22353307686E+02  0.94749110587E+02  0.89759814987E+02 0.  0.
         13    1    3    3    0    0 -0.32806954809E+02 -0.31101900355E+02 -0.16736051936E+02  0.48205094004E+02  0.10566000000E+00 0. -1.
         22    1    1    0    0    0  0.12183448232E+02  0.16506447075E+02 -0.22353307686E+02  0.30340889413E+02  0.00000000000E+00 0. -1.
</event>
<event>
 5    1  0.1262391E-009  0.9118800E+02  0.7815553E-02  0.1125453E+00
         25   -1    0    0    0    0  0.00000000000E+00  0.00000000000E+00  0.99999998245E-14  0.12509000000E+03  0.12509000000E+03 0.  0.
        -13    1    3    3    0    0  0.11148100765E+01  0.57443771056E+02  0.48031695791E+01  0.57655105903E+02  0.10566000000E+00 0.  1.
         23    2    1    0    0    0  0.10018410644E+02  0.25503642949E+02 -0.12404333632E+02  0.95012236646E+02  0.90125763598E+02 0.  0.
         13    1    3    3    0    0  0.89036005674E+01 -0.31940128107E+02 -0.17207503211E+02  0.37357130743E+02  0.10566000000E+00 0. -1.
         22    1    1    0    0    0 -0.10018410644E+02 -0.25503642949E+02  0.12404333632E+02  0.30077763354E+02  0.00000000000E+00 0.  1.
</event>
<event>
 5    1  0.1262391E-009  0.9118800E+02  0.7815553E-02  0.1125453E+00
         25   -1    0    0    0    0  0.00000000000E+00  0.00000000000E+00  0.99999998245E-14  0.12509000000E+03  0.12509000000E+03 0.  0.
        -13    1    3    3    0    0 -0.34539689738E+02 -0.39301138251E+02  0.22276297399E+02  0.56866635427E+02  0.10566000000E+00 0.  1.
         23    2    1    0    0    0 -0.20239006830E+02 -0.21587166462E+02 -0.77052434798E+01  0.94512329545E+02  0.89429226239E+02 0.  0.
         13    1    3    3    0    0  0.14300682908E+02  0.17713971789E+02 -0.29981540878E+02  0.37645694118E+02  0.10566000000E+00 0. -1.
         22    1    1    0    0    0  0.20239006830E+02  0.21587166462E+02  0.77052434798E+01  0.30577670455E+02  0.00000000000E+00 0.  1.
</event>
<event>
 5    1  0.1262391E-009  0.9118800E+02  0.7815553E-02  0.1125453E+00
         25   -1    0    0    0    0  0.00000000000E+00  0.00000000000E+00  0.99999998245E-14  0.12509000000E+03  0.12509000000E+03 0.  0.
        -13    1    3    3    0    0  0.48622323156E+02 -0.54384883655E+01  0.29376714644E+02  0.57067591434E+02  0.10566000000E+00 0.  1.
         23    2    1    0    0    0  0.13267769170E+02  0.66929268311E+01  0.26689669452E+02  0.94542210820E+02  0.89471013200E+02 0.  0.
         13    1    3    3    0    0 -0.35354553986E+02  0.12131415197E+02 -0.26870451925E+01  0.37474619386E+02  0.10566000000E+00 0. -1.
         22    1    1    0    0    0 -0.13267769170E+02 -0.66929268311E+01 -0.26689669452E+02  0.30547789180E+02  0.00000000000E+00 0.  1.
</event>
<event>
 5    1  0.1262391E-009  0.9118800E+02  0.7815553E-02  0.1125453E+00
         25   -1    0    0    0    0  0.00000000000E+00  0.00000000000E+00  0.99999998245E-14  0.12509000000E+03  0.12509000000E+03 0.  0.
        -13    1    3    3    0    0  0.51644610506E+02  0.96478937767E+01  0.21316020722E+02  0.56697720872E+02  0.10566000000E+00 0.  1.
         23    2    1    0    0    0  0.27142136450E+02 -0.11372960916E+02 -0.49206442582E+00  0.95657332121E+02  0.91016719619E+02 0.  0.
         13    1    3    3    0    0 -0.24502474056E+02 -0.21020854693E+02 -0.21808085147E+02  0.38959611250E+02  0.10566000000E+00 0. -1.
         22    1    1    0    0    0 -0.27142136450E+02  0.11372960916E+02  0.49206442582E+00  0.29432667879E+02  0.00000000000E+00 0.  1.
</event>
<event>
 5    1  0.1262391E-009  0.9118800E+02  0.7815553E-02  0.1125453E+00
         25   -1    0    0    0    0  0.00000000000E+00  0.00000000000E+00  0.99999998245E-14  0.12509000000E+03  0.12509000000E+03 0.  0.
        -13    1    3    3    0    0  0.58774565135E+02  0.11971859054E+02 -0.31847562836E+01  0.60066036599E+02  0.10566000000E+00 0. -1.
         23    2    1    0    0    0  0.28055959117E+02 -0.23272197291E+01  0.81270688717E+01  0.95788088082E+02  0.91196248696E+02 0.  0.
         13    1    3    3    0    0 -0.30718606019E+02 -0.14299078783E+02  0.11311825155E+02  0.35722051483E+02  0.10566000000E+00 0.  1.
         22    1    1    0    0    0 -0.28055959117E+02  0.23272197291E+01 -0.81270688717E+01  0.29301911918E+02  0.00000000000E+00 0. -1.
</event>
<event>
 5    1  0.1262391E-009  0.9118800E+02  0.7815553E-02  0.1125453E+00
         25   -1    0    0    0    0  0.00000000000E+00  0.00000000000E+00  0.99999998245E-14  0.12509000000E+03  0.12509000000E+03 0.  0.
        -13    1    3    3    0    0  0.41678912607E+02  0.16706752651E+02  0.37113557348E+02  0.58255254212E+02  0.10566000000E+00 0. -1.
         23    2    1    0    0    0  0.23283324470E+02 -0.80823749136E+01  0.14845868475E+02  0.96317829533E+02  0.91920000503E+02 0.  0.
         13    1    3    3    0    0 -0.18395588137E+02 -0.24789127565E+02 -0.22267688873E+02  0.38062575321E+02  0.10566000000E+00 0.  1.
         22    1    1    0    0    0 -0.23283324470E+02  0.80823749136E+01 -0.14845868475E+02  0.28772170467E+02  0.00000000000E+00 0. -1.
</event>
<event>
 5    1  0.1262391E-009  0.9118800E+02  0.7815553E-02  0.1125453E+00
         25   -1    0    0    0    0  0.00000000000E+00  0.00000000000E+00  0.99999998245E-14  0.12509000000E+03  0.12509000000E+03 0.  0.
        -13    1    3    3    0    0  0.13115726410E+01  0.47251046102E+02 -0.10314563605E+02  0.48381638737E+02  0.10566000000E+00 0.  1.
         23    2    1    0    0    0  0.15311523209E+02 -0.75291400522E+01 -0.10748340982E+02  0.10492424867E+03  0.10296815251E+03 0.  0.
         13    1    3    3    0    0  0.13999950568E+02 -0.54780186154E+02 -0.43377737621E+00  0.56542609931E+02  0.10566000000E+00 0. -1.
         22    1    1    0    0    0 -0.15311523209E+02  0.75291400522E+01  0.10748340982E+02  0.20165751331E+02  0.00000000000E+00 0. -1.
</event>
<event>
 5    1  0.1262391E-009  0.9118800E+02  0.7815553E-02  0.1125453E+00
         25   -1    0    0    0    0  0.00000000000E+00  0.00000000000E+00  0.99999998245E-14  0.12509000000E+03  0.12509000000E+03 0.  0.
        -13    1    3    3    0    0 -0.79921622367E+01  0.36269995528E+01 -0.33216269370E+02  0.34356389477E+02  0.10566000000E+00 0.  1.
         23    2    1    0    0    0 -0.39189011510E+01  0.16652427130E+02  0.25358738339E+02  0.94500349369E+02  0.89412467281E+02 0.  0.
         13    1    3    3    0    0  0.40732610856E+01  0.13025427577E+02  0.58575007709E+02  0.60143959893E+02  0.10566000000E+00 0. -1.
         22    1    1    0    0    0  0.39189011510E+01 -0.16652427130E+02 -0.25358738339E+02  0.30589650631E+02  0.00000000000E+00 0. -1.
</event>
<event>
 5    1  0.1262391E-009  0.9118800E+02  0.7815553E-02  0.1125453E+00
         25   -1    0    0    0    0  0.00000000000E+00  0.00000000000E+00  0.99999998245E-14  0.12509000000E+03  0.12509000000E+03 0.  0.
        -13    1    3    3    0    0  0.14731190963E+02 -0.60866216333E+01 -0.32834575215E+02  0.36498978667E+02  0.10566000000E+00 0. -1.
         23    2    1    0    0    0 -0.81430659576E+01  0.24499860545E+02  0.13018750780E+02  0.96175633990E+02  0.91726288552E+02 0.  0.
         13    1    3    3    0    0 -0.22874256921E+02  0.30586482178E+02  0.45853325995E+02  0.59676655323E+02  0.10566000000E+00 0.  1.
         22    1    1    0    0    0  0.81430659576E+01 -0.24499860545E+02 -0.13018750780E+02  0.28914366010E+02  0.00000000000E+00 0.  1.
</event>
<event>
 5    1  0.1262391E-009  0.9118800E+02  0.7815553E-02  0.1125453E+00
         25   -1    0    0    0    0  0.00000000000E+00  0.00000000000E+00  0.99999998245E-14  0.12509000000E+03  0.12509000000E+03 0.  0.
        -13    1    3    3    0    0  0.21338907363E+02  0.20807977761E+02  0.28824255632E+02  0.41462872341E+02  0.10566000000E+00 0.  1.
         23    2    1    0    0    0  0.92243307696E+00  0.16138260331E+02 -0.22781268455E+02  0.97156498220E+02  0.93054310081E+02 0.  0.
         13    1    3    3    0    0 -0.20416474286E+02 -0.46697174304E+01 -0.51605524087E+02  0.55693625879E+02  0.10566000000E+00 0. -1.
         22    1    1    0    0    0 -0.92243307696E+00 -0.16138260331E+02  0.22781268455E+02  0.27933501780E+02  0.00000000000E+00 0. -1.
</event>
<event>
 5    1  0.1262391E-009  0.9118800E+02  0.7815553E-02  0.1125453E+00
         25   -1    0    0    0    0  0.00000000000E+00  0.00000000000E+00  0.99999998245E-14  0.12509000000E+03  0.12509000000E+03 0.  0.
        -13    1    3    3    0    0 -0.13530511157E+02 -0.25852178552E+02  0.39563129422E+02  0.49159559007E+02  0.10566000000E+00 0.  1.
         23    2    1    0    0    0 -0.25826997564E+02  0.78929849806E+01  0.26149103049E+02  0.87498663161E+02  0.79012071544E+02 0.  0.
         13    1    3    3    0    0 -0.12296486406E+02  0.33745163532E+02 -0.13414026373E+02  0.38339104154E+02  0.10566000000E+00 0. -1.
         22    1    1    0    0    0  0.25826997564E+02 -0.78929849806E+01 -0.26149103049E+02  0.37591336839E+02  0.00000000000E+00 0. -1.
</event>
<event>
 5    1  0.1262391E-009  0.9118800E+02  0.7815553E-02  0.1125453E+00
         25   -1    0    0    0    0  0.00000000000E+00  0.00000000000E+00  0.99999998245E-14  0.12509000000E+03  0.12509000000E+03 0.  0.
        -13    1    3    3    0    0  0.50155098219E+02  0.22668313152E+02  0.14175197846E+02  0.56836024637E+02  0.10566000000E+00 0. -1.
         23    2    1    0    0    0  0.11530891130E+02  0.25548392123E+02  0.55747281184E+01  0.96510997500E+02  0.92182499719E+02 0.  0.
         13    1    3    3    0    0 -0.38624207089E+02  0.28800789707E+01 -0.86004697277E+01  0.39674972863E+02  0.10566000000E+00 0.  1.
         22    1    1    0    0    0 -0.11530891130E+02 -0.25548392123E+02 -0.55747281184E+01  0.28579002500E+02  0.00000000000E+00 0. -1.
</event>
<event>
 5    1  0.1262391E-009  0.9118800E+02  0.7815553E-02  0.1125453E+00
         25   -1    0    0    0    0  0.00000000000E+00  0.00000000000E+00  0.99999998245E-14  0.12509000000E+03  0.12509000000E+03 0.  0.
        -13    1    3    3    0    0 -0.36752299030E+02  0.45492594060E+02 -0.12592706854E+02  0.59823866710E+02  0.10566000000E+00 0.  1.
         23    2    1    0    0    0 -0.26269274343E+02  0.12364945465E+02 -0.86571658790E+01  0.94792918096E+02  0.89820844737E+02 0.  0.
         13    1    3    3    0    0  0.10483024687E+02 -0.33127648595E+02  0.39355409752E+01  0.34969051386E+02  0.10566000000E+00 0. -1.
         22    1    1    0    0    0  0.26269274343E+02 -0.12364945465E+02  0.86571658790E+01  0.30297081904E+02  0.00000000000E+00 0.  1.
</event>
<event>
 5    1  0.1262391E-009  0.9118800E+02  0.7815553E-02  0.1125453E+00
         25   -1    0    0    0    0  0.00000000000E+00  0.00000000000E+00  0.99999998245E-14  0.12509000000E+03  0.12509000000E+03 0.  0.
        -13    1    3    3    0    0 -0.28474050429E+02  0.39412784474E+01 -0.20629007318E+02  0.35381807905E+02  0.10566000000E+00 0. -1.
         23    2    1    0    0    0  0.15754099820E+02  0.11605012382E+02  0.20847788949E+02  0.96498073210E+02  0.92164960021E+02 0.  0.
         13    1    3    3    0    0  0.44228150250E+02  0.76637339342E+01  0.41476796266E+02  0.61116265305E+02  0.10566000000E+00 0.  1.
         22    1    1    0    0    0 -0.15754099820E+02 -0.11605012382E+02 -0.20847788949E+02  0.28591926790E+02  0.00000000000E+00 0.  1.
</event>
<event>
 5    1  0.1262391E-009  0.9118800E+02  0.7815553E-02  0.1125453E+00
         25   -1    0    0    0    0  0.00000000000E+00  0.00000000000E+00  0.99999998245E-14  0.12509000000E+03  0.12509000000E+03 0.  0.
        -13    1    3    3    0    0 -0.10315021861E+02 -0.29698979328E+02  0.17750637140E+02  0.36104367215E+02  0.10566000000E+00 0.  1.
         23    2    1    0    0    0 -0.65418118106E+01  0.28300980061E+02  0.69675051030E+01  0.95218828253E+02  0.90412047606E+02 0.  0.
         13    1    3    3    0    0  0.37732100504E+01  0.57999959389E+02 -0.10783132037E+02  0.59114461038E+02  0.10566000000E+00 0. -1.
         22    1    1    0    0    0  0.65418118106E+01 -0.28300980061E+02 -0.69675051030E+01  0.29871171747E+02  0.00000000000E+00 0. -1.
</event>
<event>
 5    1  0.1262391E-009  0.9118800E+02  0.7815553E-02  0.1125453E+00
         25   -1    0    0    0    0  0.00000000000E+00  0.00000000000E+00  0.99999998245E-14  0.12509000000E+03  0.12509000000E+03 0.  0.
        -13    1    3    3    0    0 -0.40791012644E+02  0.21107302032E+02  0.73454797511E+00  0.45934471112E+02  0.10566000000E+00 0.  1.
         23    2    1    0    0    0 -0.17481498357E+02 -0.22145678587E+02  0.83750683123E+01  0.95659138067E+02  0.91019201609E+02 0.  0.
         13    1    3    3    0    0  0.23309514287E+02 -0.43252980619E+02  0.76405203372E+01  0.49724666955E+02  0.10566000000E+00 0. -1.
         22    1    1    0    0    0  0.17481498357E+02  0.22145678587E+02 -0.83750683123E+01  0.29430861933E+02  0.00000000000E+00 0.  1.
</event>
<event>
 5    1  0.1262391E-009  0.9118800E+02  0.7815553E-02  0.1125453E+00
         25   -1    0    0    0    0  0.00000000000E+00  0.00000000000E+00  0.99999998245E-14  0.12509000000E+03  0.12509000000E+03 0.  0.
        -13    1    3    3    0    0 -0.22004696024E+02  0.17106844558E+01  0.35092571927E+02  0.41456397056E+02  0.10566000000E+00 0. -1.
         23    2    1    0    0    0 -0.19803081623E+02  0.76486061100E+01 -0.19409686364E+02  0.96325453385E+02  0.91930374893E+02 0.  0.
         13    1    3    3    0    0  0.22016144002E+01  0.59379216542E+01 -0.54502258291E+02  0.54869056329E+02  0.10566000000E+00 0.  1.
         22    1    1    0    0    0  0.19803081623E+02 -0.76486061100E+01  0.19409686364E+02  0.28764546615E+02  0.00000000000E+00 0.  1.
</event>
<event>
 5    1  0.1262391E-009  0.9118800E+02  0.7815553E-02  0.1125453E+00
         25   -1    0    0    0    0  0.00000000000E+00  0.00000000000E+00  0.99999998245E-14  0.12509000000E+03  0.12509000000E+03 0.  0.
        -13    1    3    3    0    0  0.25498333480E+02 -0.26372482904E+02  0.50510302829E+02  0.62425753665E+02  0.10566000000E+00 0. -1.
         23    2    1    0    0    0  0.10755133009E+02 -0.14690114863E+02  0.22911393956E+02  0.95825613218E+02  0.91247705806E+02 0.  0.
         13    1    3    3    0    0 -0.14743200471E+02  0.11682368041E+02 -0.27598908873E+02  0.33399859553E+02  0.10566000000E+00 0.  1.
         22    1    1    0    0    0 -0.10755133009E+02  0.14690114863E+02 -0.22911393956E+02  0.29264386782E+02  0.00000000000E+00 0. -1.
</event>
<event>
 5    1  0.1262391E-009  0.9118800E+02  0.7815553E-02  0.1125453E+00
         25   -1    0    0    0    0  0.00000000000E+00  0.00000000000E+00  0.99999998245E-14  0.12509000000E+03  0.12509000000E+03 0.  0.
        -13    1    3    3    0    0 -0.20162663696E+02  0.36298149123E+02 -0.18999731566E+02  0.45662781351E+02  0.10566000000E+00 0.  1.
         23    2    1    0    0    0 -0.13824128795E+02 -0.13630425731E+02 -0.21585375054E+02  0.96058578079E+02  0.91566516608E+02 0.  0.
         13    1    3    3    0    0  0.63385349006E+01 -0.49928574853E+02 -0.25856434879E+01  0.50395796728E+02  0.10566000000E+00 0. -1.
         22    1    1    0    0    0  0.13824128795E+02  0.13630425731E+02  0.21585375054E+02  0.29031421921E+02  0.00000000000E+00 0. -1.
</event>
<event>
 5    1  0.1262391E-009  0.9118800E+02  0.7815553E-02  0.1125453E+00
         25   -1    0    0    0    0  0.00000000000E+00  0.00000000000E+00  0.99999998245E-14  0.12509000000E+03  0.12509000000E+03 0.  0.
        -13    1    3    3    0    0  0.24568784988E+02  0.13838256925E+01  0.28947720890E+02  0.37993708402E+02  0.10566000000E+00 0.  1.
         23    2    1    0    0    0 -0.17109566219E+02  0.22425762759E+02 -0.59231430079E+01  0.96267513733E+02  0.91851502360E+02 0.  0.
         13    1    3    3    0    0 -0.41678351207E+02  0.21041937066E+02 -0.34870863898E+02  0.58273805332E+02  0.10566000000E+00 0. -1.
         22    1    1    0    0    0  0.17109566219E+02 -0.22425762759E+02  0.59231430079E+01  0.28822486267E+02  0.00000000000E+00 0. -1.
</event>
<event>
 5    1  0.1262391E-009  0.9118800E+02  0.7815553E-02  0.1125453E+00
         25   -1    0    0    0    0  0.00000000000E+00  0.00000000000E+00  0.99999998245E-14  0.12509000000E+03  0.12509000000E+03 0.  0.
        -13    1    3    3    0    0  0.11648449176E+02  0.24591076822E+02 -0.20690368607E+02  0.34183474730E+02  0.10566000000E+00 0.  1.
         23    2    1    0    0    0 -0.18759990967E+02 -0.10309694209E+02  0.19984666169E+02  0.95804953685E+02  0.91219379591E+02 0.  0.
         13    1    3    3    0    0 -0.30408440144E+02 -0.34900771030E+02  0.40675034777E+02  0.61621478955E+02  0.10566000000E+00 0. -1.
         22    1    1    0    0    0  0.18759990967E+02  0.10309694209E+02 -0.19984666169E+02  0.29285046315E+02  0.00000000000E+00 0. -1.
</event>
<event>
 5    1  0.1262391E-009  0.9118800E+02  0.7815553E-02  0.1125453E+00
         25   -1    0    0    0    0  0.00000000000E+00  0.00000000000E+00  0.99999998245E-14  0.12509000000E+03  0.12509000000E+03 0.  0.
        -13    1    3    3    0    0  0.53592477301E+02  0.18052992357E+02 -0.16968036260E+02  0.59042269391E+02  0.10566000000E+00 0. -1.
         23    2    1    0    0    0  0.12783818153E+02  0.15542579471E+02 -0.15026711900E+02  0.99974270791E+02  0.96768047239E+02 0.  0.
         13    1    3    3    0    0 -0.40808659148E+02 -0.25104128859E+01  0.19413243601E+01  0.40932001400E+02  0.10566000000E+00 0.  1.
         22    1    1    0    0    0 -0.12783818153E+02 -0.15542579471E+02  0.15026711900E+02  0.25115729209E+02  0.00000000000E+00 0. -1.
</event>
<event>
 5    1  0.1262391E-009  0.9118800E+02  0.7815553E-02  0.1125453E+00
         25   -1    0    0    0    0  0.00000000000E+00  0.00000000000E+00  0.99999998245E-14  0.12509000000E+03  0.12509000000E+03 0.  0.
        -13    1    3    3    0    0  0.23655007006E+02  0.22075963581E+02  0.18874189281E+02  0.37458693377E+02  0.10566000000E+00 0. -1.
         23    2    1    0    0    0  0.17689211528E+02 -0.21120754216E+02 -0.15942580547E+02  0.93259820333E+02  0.87659761298E+02 0.  0.
         13    1    3    3    0    0 -0.59657954777E+01 -0.43196717798E+02 -0.34816769828E+02  0.55801126955E+02  0.10566000000E+00 0.  1.
         22    1    1    0    0    0 -0.17689211528E+02  0.21120754216E+02  0.15942580547E+02  0.31830179667E+02  0.00000000000E+00 0. -1.
</event>
<event>
 5    1  0.1262391E-009  0.9118800E+02  0.7815553E-02  0.1125453E+00
         25   -1    0    0    0    0  0.00000000000E+00  0.00000000000E+00  0.99999998245E-14  0.12509000000E+03  0.12509000000E+03 0.  0.
        -13    1    3    3    0    0  0.46759428836E+02  0.35446887501E+02  0.14294739289E+02  0.60392687918E+02  0.10566000000E+00 0.  1.
         23    2    1    0    0    0  0.16701067132E+02  0.19445727359E+02  0.16646209860E+02  0.94525997340E+02  0.89448342157E+02 0.  0.
         13    1    3    3    0    0 -0.30058361704E+02 -0.16001160142E+02  0.23514705709E+01  0.34133309422E+02  0.10566000000E+00 0. -1.
         22    1    1    0    0    0 -0.16701067132E+02 -0.19445727359E+02 -0.16646209860E+02  0.30564002660E+02  0.00000000000E+00 0.  1.
</event>
<event>
 5    1  0.1262391E-009  0.9118800E+02  0.7815553E-02  0.1125453E+00
         25   -1    0    0    0    0  0.00000000000E+00  0.00000000000E+00  0.99999998245E-14  0.12509000000E+03  0.12509000000E+03 0.  0.
        -13    1    3    3    0    0 -0.21538742480E+02 -0.45467293236E+01  0.32548685230E+02  0.39293997626E+02  0.10566000000E+00 0.  1.
         23    2    1    0    0    0 -0.13717069692E+02 -0.60587204360E+00 -0.24496606238E+02  0.97007820615E+02  0.92854232329E+02 0.  0.
         13    1    3    3    0    0  0.78216727883E+01  0.39408572800E+01 -0.57045291468E+02  0.57713822989E+02  0.10566000000E+00 0. -1.
         22    1    1    0    0    0  0.13717069692E+02  0.60587204360E+00  0.24496606238E+02  0.28082179385E+02  0.00000000000E+00 0. -1.
</event>
<event>
 5    1  0.1262391E-009  0.9118800E+02  0.7815553E-02  0.1125453E+00
         25   -1    0    0    0    0  0.00000000000E+00  0.00000000000E+00  0.99999998245E-14  0.12509000000E+03  0.12509000000E+03 0.  0.
        -13    1    3    3    0    0 -0.28945910617E+01 -0.23713569179E+02 -0.19727994787E+02  0.30982526737E+02  0.10566000000E+00 0.  1.
         23    2    1    0    0    0  0.27549894895E+02  0.79570012787E+01  0.19932128629E+02  0.90167223338E+02  0.83129584593E+02 0.  0.
         13    1    3    3    0    0  0.30444485957E+02  0.31670570458E+02  0.39660123417E+02  0.59184696601E+02  0.10566000000E+00 0. -1.
         22    1    1    0    0    0 -0.27549894895E+02 -0.79570012787E+01 -0.19932128629E+02  0.34922776662E+02  0.00000000000E+00 0. -1.
</event>
<event>
 5    1  0.1262391E-009  0.9118800E+02  0.7815553E-02  0.1125453E+00
         25   -1    0    0    0    0  0.00000000000E+00  0.00000000000E+00  0.99999998245E-14  0.12509000000E+03  0.12509000000E+03 0.  0.
        -13    1    3    3    0    0 -0.41338704206E+02  0.61971529432E+01  0.18088813810E+02  0.45546783850E+02  0.10566000000E+00 0. -1.
         23    2    1    0    0    0  0.14638894396E+01 -0.21306192225E+02  0.19106296535E+02  0.96434330984E+02  0.92078405860E+02 0.  0.
         13    1    3    3    0    0  0.42802593645E+02 -0.27503345168E+02  0.10174827255E+01  0.50887547134E+02  0.10566000000E+00 0.  1.
         22    1    1    0    0    0 -0.14638894396E+01  0.21306192225E+02 -0.19106296535E+02  0.28655669016E+02  0.00000000000E+00 0.  1.
</event>
<event>
 5    1  0.1262391E-009  0.9118800E+02  0.7815553E-02  0.1125453E+00
         25   -1    0    0    0    0  0.00000000000E+00  0.00000000000E+00  0.99999998245E-14  0.12509000000E+03  0.12509000000E+03 0.  0.
        -13    1    3    3    0    0 -0.35598072947E+02  0.73201416389E+01  0.50503043388E+02  0.62220381120E+02  0.10566000000E+00 0. -1.
         23    2    1    0    0    0 -0.17250594084E+02 -0.90653282110E+00  0.25141472097E+02  0.94585927859E+02  0.89532113410E+02 0.  0.
         13    1    3    3    0    0  0.18347478863E+02 -0.82266744600E+01 -0.25361571291E+02  0.32365546739E+02  0.10566000000E+00 0.  1.
         22    1    1    0    0    0  0.17250594084E+02  0.90653282110E+00 -0.25141472097E+02  0.30504072141E+02  0.00000000000E+00 0. -1.
</event>
<event>
 5    1  0.1262391E-009  0.9118800E+02  0.7815553E-02  0.1125453E+00
         25   -1    0    0    0    0  0.00000000000E+00  0.00000000000E+00  0.99999998245E-14  0.12509000000E+03  0.12509000000E+03 0.  0.
        -13    1    3    3    0    0  0.17025171168E+01  0.40485465104E+02 -0.18148407170E+02  0.44399856937E+02  0.10566000000E+00 0.  1.
         23    2    1    0    0    0 -0.25174056358E+02 -0.47752334158E+00 -0.19234749128E+02  0.93405039592E+02  0.87866744022E+02 0.  0.
         13    1    3    3    0    0 -0.26876573474E+02 -0.40962988446E+02 -0.10863419585E+01  0.49005182655E+02  0.10566000000E+00 0. -1.
         22    1    1    0    0    0  0.25174056358E+02  0.47752334158E+00  0.19234749128E+02  0.31684960408E+02  0.00000000000E+00 0. -1.
</event>
<event>
 5    1  0.1262391E-009  0.9118800E+02  0.7815553E-02  0.1125453E+00
         25   -1    0    0    0    0  0.00000000000E+00  0.00000000000E+00  0.99999998245E-14  0.12509000000E+03  0.12509000000E+03 0.  0.
        -13    1    3    3    0    0  0.34758355806E+00 -0.46093534597E+02  0.28626645682E+02  0.54260766241E+02  0.10566000000E+00 0.  1.
         23    2    1    0    0    0 -0.76745537076E+01 -0.28755854920E+02 -0.68458536019E+01  0.94550457136E+02  0.89482541684E+02 0.  0.
         13    1    3    3    0    0 -0.80221372657E+01  0.17337679677E+02 -0.35472499284E+02  0.40289690895E+02  0.10566000000E+00 0. -1.
         22    1    1    0    0    0  0.76745537076E+01  0.28755854920E+02  0.68458536019E+01  0.30539542864E+02  0.00000000000E+00 0.  1.
</event>
<event>
 5    1  0.1262391E-009  0.9118800E+02  0.7815553E-02  0.1125453E+00
         25   -1    0    0    0    0  0.00000000000E+00  0.00000000000E+00  0.99999998245E-14  0.12509000000E+03  0.12509000000E+03 0.  0.
        -13    1    3    3    0    0 -0.19900182061E+01 -0.24501187313E+02  0.18745108575E+02  0.30913728532E+02  0.10566000000E+00 0.  1.
         23    2    1    0    0    0  0.79871328627E+01 -0.28706395132E+02 -0.31157816423E+02  0.81977809878E+02  0.69725894582E+02 0.  0.
         13    1    3    3    0    0  0.99771510688E+01 -0.42052078191E+01 -0.49902924999E+02  0.51064081346E+02  0.10566000000E+00 0. -1.
         22    1    1    0    0    0 -0.79871328627E+01  0.28706395132E+02  0.31157816423E+02  0.43112190122E+02  0.00000000000E+00 0. -1.
</event>
<event>
 5    1  0.1262391E-009  0.9118800E+02  0.7815553E-02  0.1125453E+00
         25   -1    0    0    0    0  0.00000000000E+00  0.00000000000E+00  0.99999998245E-14  0.12509000000E+03  0.12509000000E+03 0.  0.
        -13    1    3    3    0    0  0.20908814167E+02  0.15179486270E+02 -0.56207777059E+02  0.61862110206E+02  0.10566000000E+00 0.  1.
         23    2    1    0    0    0  0.47182169584E+01  0.40080268386E+01 -0.29002948154E+02  0.95433687822E+02  0.90708830437E+02 0.  0.
         13    1    3    3    0    0 -0.16190597209E+02 -0.11171459431E+02  0.27204828905E+02  0.33571577615E+02  0.10566000000E+00 0. -1.
         22    1    1    0    0    0 -0.47182169584E+01 -0.40080268386E+01  0.29002948154E+02  0.29656312178E+02  0.00000000000E+00 0.  1.
</event>
<event>
 5    1  0.1262391E-009  0.9118800E+02  0.7815553E-02  0.1125453E+00
         25   -1    0    0    0    0  0.00000000000E+00  0.00000000000E+00  0.99999998245E-14  0.12509000000E+03  0.12509000000E+03 0.  0.
        -13    1    3    3    0    0 -0.31654594466E+02  0.16649961905E+02 -0.49931077894E+02  0.61419526911E+02  0.10566000000E+00 0. -1.
         23    2    1    0    0    0 -0.11610677986E+02  0.12249291535E+01 -0.27455652274E+02  0.95255102036E+02  0.90462220442E+02 0.  0.
         13    1    3    3    0    0  0.20043916480E+02 -0.15425032752E+02  0.22475425620E+02  0.33835575125E+02  0.10566000000E+00 0.  1.
         22    1    1    0    0    0  0.11610677986E+02 -0.12249291535E+01  0.27455652274E+02  0.29834897964E+02  0.00000000000E+00 0. -1.
</event>
<event>
 5    1  0.1262391E-009  0.9118800E+02  0.7815553E-02  0.1125453E+00
         25   -1    0    0    0    0  0.00000000000E+00  0.00000000000E+00  0.99999998245E-14  0.12509000000E+03  0.12509000000E+03 0.  0.
        -13    1    3    3    0    0  0.29873523364E+02 -0.30860168165E+01 -0.39767804736E+02  0.49834128421E+02  0.10566000000E+00 0. -1.
         23    2    1    0    0    0 -0.14328915725E+01 -0.23878486672E+02 -0.25743781212E+02  0.89947752276E+02  0.82798674895E+02 0.  0.
         13    1    3    3    0    0 -0.31306414937E+02 -0.20792469856E+02  0.14024023524E+02  0.40113623854E+02  0.10566000000E+00 0.  1.
         22    1    1    0    0    0  0.14328915725E+01  0.23878486672E+02  0.25743781212E+02  0.35142247724E+02  0.00000000000E+00 0. -1.
</event>
<event>
 5    1  0.1262391E-009  0.9118800E+02  0.7815553E-02  0.1125453E+00
         25   -1    0    0    0    0  0.00000000000E+00  0.00000000000E+00  0.99999998245E-14  0.12509000000E+03  0.12509000000E+03 0.  0.
        -13    1    3    3    0    0 -0.21637845145E+02 -0.36743777216E+02 -0.45041884473E+02  0.62024866204E+02  0.10566000000E+00 0. -1.
         23    2    1    0    0    0 -0.47875472528E+01 -0.19272521264E+02 -0.19612423830E+02  0.97179466987E+02  0.93085181156E+02 0.  0.
         13    1    3    3    0    0  0.16850297893E+02  0.17471255952E+02  0.25429460643E+02  0.35154600784E+02  0.10566000000E+00 0.  1.
         22    1    1    0    0    0  0.47875472528E+01  0.19272521264E+02  0.19612423830E+02  0.27910533013E+02  0.00000000000E+00 0. -1.
</event>
<event>
 5    1  0.1262391E-009  0.9118800E+02  0.7815553E-02  0.1125453E+00
         25   -1    0    0    0    0  0.00000000000E+00  0.00000000000E+00  0.99999998245E-14  0.12509000000E+03  0.12509000000E+03 0.  0.
        -13    1    3    3    0    0  0.95765642362E+00  0.38093841275E+02 -0.11325759059E+02  0.39753513445E+02  0.10566000000E+00 0.  1.
         23    2    1    0    0    0  0.22569573779E+02 -0.13949871596E+02 -0.11662469526E+02  0.96107284917E+02  0.91633031384E+02 0.  0.
         13    1    3    3    0    0  0.21611917356E+02 -0.52043712871E+02 -0.33671046754E+00  0.56353771472E+02  0.10566000000E+00 0. -1.
         22    1    1    0    0    0 -0.22569573779E+02  0.13949871596E+02  0.11662469526E+02  0.28982715083E+02  0.00000000000E+00 0. -1.
</event>
<event>
 5    1  0.1262391E-009  0.9118800E+02  0.7815553E-02  0.1125453E+00
         25   -1    0    0    0    0  0.00000000000E+00  0.00000000000E+00  0.99999998245E-14  0.12509000000E+03  0.12509000000E+03 0.  0.
        -13    1    3    3    0    0  0.57834807643E+02 -0.78013217393E+01 -0.99257097798E+01  0.59196760677E+02  0.10566000000E+00 0.  1.
         23    2    1    0    0    0  0.15612999097E+02 -0.10113592004E+02 -0.14185521253E+02  0.10169599442E+03  0.98968660611E+02 0.  0.
         13    1    3    3    0    0 -0.42221808546E+02 -0.23122702643E+01 -0.42598114729E+01  0.42499233740E+02  0.10566000000E+00 0. -1.
         22    1    1    0    0    0 -0.15612999097E+02  0.10113592004E+02  0.14185521253E+02  0.23394005583E+02  0.00000000000E+00 0.  1.
</event>
<event>
 5    1  0.1262391E-009  0.9118800E+02  0.7815553E-02  0.1125453E+00
         25   -1    0    0    0    0  0.00000000000E+00  0.00000000000E+00  0.99999998245E-14  0.12509000000E+03  0.12509000000E+03 0.  0.
        -13    1    3    3    0    0  0.62845050167E+01  0.33456972125E+02  0.14106322438E+02  0.36849199229E+02  0.10566000000E+00 0.  1.
         23    2    1    0    0    0 -0.25346011340E+02 -0.14296689051E+02  0.10171588176E+02  0.94263439785E+02  0.89080408987E+02 0.  0.
         13    1    3    3    0    0 -0.31630516357E+02 -0.47753661176E+02 -0.39347342614E+01  0.57414240555E+02  0.10566000000E+00 0. -1.
         22    1    1    0    0    0  0.25346011340E+02  0.14296689051E+02 -0.10171588176E+02  0.30826560215E+02  0.00000000000E+00 0. -1.
</event>
<event>
 5    1  0.1262391E-009  0.9118800E+02  0.7815553E-02  0.1125453E+00
         25   -1    0    0    0    0  0.00000000000E+00  0.00000000000E+00  0.99999998245E-14  0.12509000000E+03  0.12509000000E+03 0.  0.
        -13    1    3    3    0    0  0.22426137175E+02  0.19977456372E+02 -0.29192119629E+02  0.41883426366E+02  0.10566000000E+00 0. -1.
         23    2    1    0    0    0  0.38288715669E+02 -0.12018146720E+02 -0.58798324732E+01  0.84530980928E+02  0.74165036969E+02 0.  0.
         13    1    3    3    0    0  0.15862578493E+02 -0.31995603092E+02  0.23312287156E+02  0.42647554562E+02  0.10566000000E+00 0.  1.
         22    1    1    0    0    0 -0.38288715669E+02  0.12018146720E+02  0.58798324732E+01  0.40559019072E+02  0.00000000000E+00 0.  1.
</event>
<event>
 5    1  0.1262391E-009  0.9118800E+02  0.7815553E-02  0.1125453E+00
         25   -1    0    0    0    0  0.00000000000E+00  0.00000000000E+00  0.99999998245E-14  0.12509000000E+03  0.12509000000E+03 0.  0.
        -13    1    3    3    0    0 -0.98436990751E+00 -0.42597231104E+02  0.89696576033E+01  0.43542611353E+02  0.10566000000E+00 0.  1.
         23    2    1    0    0    0 -0.53642914537E+01 -0.65741932077E+01 -0.28290839253E+02  0.95554136634E+02  0.90874780897E+02 0.  0.
         13    1    3    3    0    0 -0.43799215462E+01  0.36023037896E+02 -0.37260496857E+02  0.52011525281E+02  0.10566000000E+00 0. -1.
         22    1    1    0    0    0  0.53642914537E+01  0.65741932077E+01  0.28290839253E+02  0.29535863366E+02  0.00000000000E+00 0. -1.
</event>
<event>
 5    1  0.1262391E-009  0.9118800E+02  0.7815553E-02  0.1125453E+00
         25   -1    0    0    0    0  0.00000000000E+00  0.00000000000E+00  0.99999998245E-14  0.12509000000E+03  0.12509000000E+03 0.  0.
        -13    1    3    3    0    0  0.96970548924E+01  0.15910955443E+02 -0.42237775594E+02  0.46165270798E+02  0.10566000000E+00 0. -1.
         23    2    1    0    0    0  0.23240500847E+02 -0.17593791733E+02 -0.10996496159E+02  0.93935781748E+02  0.88619105038E+02 0.  0.
         13    1    3    3    0    0  0.13543445954E+02 -0.33504747175E+02  0.31241279435E+02  0.47770510950E+02  0.10566000000E+00 0.  1.
         22    1    1    0    0    0 -0.23240500847E+02  0.17593791733E+02  0.10996496159E+02  0.31154218252E+02  0.00000000000E+00 0. -1.
</event>
<event>
 5    1  0.1262391E-009  0.9118800E+02  0.7815553E-02  0.1125453E+00
         25   -1    0    0    0    0  0.00000000000E+00  0.00000000000E+00  0.99999998245E-14  0.12509000000E+03  0.12509000000E+03 0.  0.
        -13    1    3    3    0    0 -0.48993824140E+01 -0.11615064397E+02  0.35575969717E+02  0.37743535265E+02  0.10566000000E+00 0. -1.
         23    2    1    0    0    0 -0.36554811845E+00  0.28773562372E+02 -0.57931806167E+01  0.95736764086E+02  0.91125822569E+02 0.  0.
         13    1    3    3    0    0  0.45338342956E+01  0.40388626769E+02 -0.41369150334E+02  0.57993228820E+02  0.10566000000E+00 0.  1.
         22    1    1    0    0    0  0.36554811845E+00 -0.28773562372E+02  0.57931806167E+01  0.29353235914E+02  0.00000000000E+00 0.  1.
</event>
<event>
 5    1  0.1262391E-009  0.9118800E+02  0.7815553E-02  0.1125453E+00
         25   -1    0    0    0    0  0.00000000000E+00  0.00000000000E+00  0.99999998245E-14  0.12509000000E+03  0.12509000000E+03 0.  0.
        -13    1    3    3    0    0 -0.45519205370E+01  0.43608081267E+02  0.40628586000E+02  0.59775228119E+02  0.10566000000E+00 0. -1.
         23    2    1    0    0    0 -0.58366710257E+00  0.98058299256E+01  0.26861378182E+02  0.96488800626E+02  0.92152374036E+02 0.  0.
         13    1    3    3    0    0  0.39682534344E+01 -0.33802251341E+02 -0.13767207818E+02  0.36713572506E+02  0.10566000000E+00 0.  1.
         22    1    1    0    0    0  0.58366710257E+00 -0.98058299256E+01 -0.26861378182E+02  0.28601199374E+02  0.00000000000E+00 0. -1.
</event>
<event>
 5    1  0.1262391E-009  0.9118800E+02  0.7815553E-02  0.1125453E+00
         25   -1    0    0    0    0  0.00000000000E+00  0.00000000000E+00  0.99999998245E-14  0.12509000000E+03  0.12509000000E+03 0.  0.
        -13    1    3    3    0    0 -0.82808434998E+01  0.23938228261E+02  0.46671075257E+02  0.53101897998E+02  0.10566000000E+00 0. -1.
         23    2    1    0    0    0 -0.18242086255E+02 -0.88756587907E+01  0.20583737854E+02  0.96189458587E+02  0.91745139649E+02 0.  0.
         13    1    3    3    0    0 -0.99612427552E+01 -0.32813887052E+02 -0.26087337403E+02  0.43087560589E+02  0.10566000000E+00 0.  1.
         22    1    1    0    0    0  0.18242086255E+02  0.88756587907E+01 -0.20583737854E+02  0.28900541413E+02  0.00000000000E+00 0. -1.
</event>
<event>
 5    1  0.1262391E-009  0.9118800E+02  0.7815553E-02  0.1125453E+00
         25   -1    0    0    0    0  0.00000000000E+00  0.00000000000E+00  0.99999998245E-14  0.12509000000E+03  0.12509000000E+03 0.  0.
        -13    1    3    3    0    0 -0.11356306997E+02  0.37901919628E+02  0.79880755919E+01  0.40365105423E+02  0.10566000000E+00 0. -1.
         23    2    1    0    0    0 -0.21301545556E+02 -0.17708259370E+02  0.50385238774E+01  0.96934627230E+02  0.92755576330E+02 0.  0.
         13    1    3    3    0    0 -0.99452385586E+01 -0.55610178997E+02 -0.29495517145E+01  0.56569521807E+02  0.10566000000E+00 0.  1.
         22    1    1    0    0    0  0.21301545556E+02  0.17708259370E+02 -0.50385238774E+01  0.28155372770E+02  0.00000000000E+00 0.  1.
</event>
<event>
 5    1  0.1262391E-009  0.9118800E+02  0.7815553E-02  0.1125453E+00
         25   -1    0    0    0    0  0.00000000000E+00  0.00000000000E+00  0.99999998245E-14  0.12509000000E+03  0.12509000000E+03 0.  0.
        -13    1    3    3    0    0 -0.93068534376E+01  0.46662924783E+02  0.35272905162E+02  0.59230356008E+02  0.10566000000E+00 0. -1.
         23    2    1    0    0    0  0.31497304715E+01  0.14076843343E+02  0.26046675077E+02  0.95315722459E+02  0.90546006785E+02 0.  0.
         13    1    3    3    0    0  0.12456583909E+02 -0.32586081440E+02 -0.92262300852E+01  0.36085366451E+02  0.10566000000E+00 0.  1.
         22    1    1    0    0    0 -0.31497304715E+01 -0.14076843343E+02 -0.26046675077E+02  0.29774277541E+02  0.00000000000E+00 0. -1.
</event>
<event>
 5    1  0.1262391E-009  0.9118800E+02  0.7815553E-02  0.1125453E+00
         25   -1    0    0    0    0  0.00000000000E+00  0.00000000000E+00  0.99999998245E-14  0.12509000000E+03  0.12509000000E+03 0.  0.
        -13    1    3    3    0    0  0.29122184933E+01 -0.27743924385E+02 -0.18042537179E+02  0.33222743245E+02  0.10566000000E+00 0.  1.
         23    2    1    0    0    0 -0.89219698268E+01  0.14816025982E+02  0.24862303352E+02  0.94803859615E+02  0.89836081272E+02 0.  0.
         13    1    3    3    0    0 -0.11834188320E+02  0.42559950366E+02  0.42904840531E+02  0.61581116370E+02  0.10566000000E+00 0. -1.
         22    1    1    0    0    0  0.89219698268E+01 -0.14816025982E+02 -0.24862303352E+02  0.30286140385E+02  0.00000000000E+00 0. -1.
</event>
<event>
 5    1  0.1262391E-009  0.9118800E+02  0.7815553E-02  0.1125453E+00
         25   -1    0    0    0    0  0.00000000000E+00  0.00000000000E+00  0.99999998245E-14  0.12509000000E+03  0.12509000000E+03 0.  0.
        -13    1    3    3    0    0  0.38008725266E+02 -0.36023002403E+02  0.39049683255E+01  0.52512663617E+02  0.10566000000E+00 0. -1.
         23    2    1    0    0    0  0.71075528453E+01 -0.11709050100E+02  0.24590581837E+02  0.96941893904E+02  0.92765375636E+02 0.  0.
         13    1    3    3    0    0 -0.30901172421E+02  0.24313952303E+02  0.20685613512E+02  0.44429230287E+02  0.10566000000E+00 0.  1.
         22    1    1    0    0    0 -0.71075528453E+01  0.11709050100E+02 -0.24590581837E+02  0.28148106096E+02  0.00000000000E+00 0. -1.
</event>
<event>
 5    1  0.1262391E-009  0.9118800E+02  0.7815553E-02  0.1125453E+00
         25   -1    0    0    0    0  0.00000000000E+00  0.00000000000E+00  0.99999998245E-14  0.12509000000E+03  0.12509000000E+03 0.  0.
        -13    1    3    3    0    0  0.16543759122E+02  0.34302381398E+02 -0.11399030321E+02  0.39752967081E+02  0.10566000000E+00 0.  1.
         23    2    1    0    0    0 -0.49600325568E+00 -0.17244416776E+02 -0.24044816501E+02  0.95496603274E+02  0.90795551142E+02 0.  0.
         13    1    3    3    0    0 -0.17039762377E+02 -0.51546798174E+02 -0.12645786180E+02  0.55743636193E+02  0.10566000000E+00 0. -1.
         22    1    1    0    0    0  0.49600325568E+00  0.17244416776E+02  0.24044816501E+02  0.29593396726E+02  0.00000000000E+00 0. -1.
</event>
<event>
 5    1  0.1262391E-009  0.9118800E+02  0.7815553E-02  0.1125453E+00
         25   -1    0    0    0    0  0.00000000000E+00  0.00000000000E+00  0.99999998245E-14  0.12509000000E+03  0.12509000000E+03 0.  0.
        -13    1    3    3    0    0  0.55291962538E+02  0.11190416269E+02  0.24820941065E+01  0.56467676531E+02  0.10566000000E+00 0. -1.
         23    2    1    0    0    0  0.16027035605E+02  0.20081669637E+02 -0.82002422129E+01  0.98119955542E+02  0.94340565917E+02 0.  0.
         13    1    3    3    0    0 -0.39264926933E+02  0.88912533689E+01 -0.10682336319E+02  0.41652279011E+02  0.10566000000E+00 0.  1.
         22    1    1    0    0    0 -0.16027035605E+02 -0.20081669637E+02  0.82002422129E+01  0.26970044458E+02  0.00000000000E+00 0. -1.
</event>
<event>
 5    1  0.1262391E-009  0.9118800E+02  0.7815553E-02  0.1125453E+00
         25   -1    0    0    0    0  0.00000000000E+00  0.00000000000E+00  0.99999998245E-14  0.12509000000E+03  0.12509000000E+03 0.  0.
        -13    1    3    3    0    0 -0.81466715476E+01  0.25366607377E+02  0.36072011713E+02  0.44844556193E+02  0.10566000000E+00 0.  1.
         23    2    1    0    0    0  0.10389217340E+02 -0.18864266467E+02  0.20733458640E+02  0.95195641110E+02  0.90379961235E+02 0.  0.
         13    1    3    3    0    0  0.18535888887E+02 -0.44230873844E+02 -0.15338553073E+02  0.50351084916E+02  0.10566000000E+00 0. -1.
         22    1    1    0    0    0 -0.10389217340E+02  0.18864266467E+02 -0.20733458640E+02  0.29894358890E+02  0.00000000000E+00 0.  1.
</event>
<event>
 5    1  0.1262391E-009  0.9118800E+02  0.7815553E-02  0.1125453E+00
         25   -1    0    0    0    0  0.00000000000E+00  0.00000000000E+00  0.99999998245E-14  0.12509000000E+03  0.12509000000E+03 0.  0.
        -13    1    3    3    0    0 -0.37489361822E+02 -0.11641292389E+02  0.16801648391E+00  0.39255717188E+02  0.10566000000E+00 0.  1.
         23    2    1    0    0    0  0.29574211038E+01  0.21082213313E+02 -0.20779473714E+02  0.95341175055E+02  0.90581162916E+02 0.  0.
         13    1    3    3    0    0  0.40446782926E+02  0.32723505703E+02 -0.20947490198E+02  0.56085457867E+02  0.10566000000E+00 0. -1.
         22    1    1    0    0    0 -0.29574211038E+01 -0.21082213313E+02  0.20779473714E+02  0.29748824945E+02  0.00000000000E+00 0. -1.
</event>
<event>
 5    1  0.1262391E-009  0.9118800E+02  0.7815553E-02  0.1125453E+00
         25   -1    0    0    0    0  0.00000000000E+00  0.00000000000E+00  0.99999998245E-14  0.12509000000E+03  0.12509000000E+03 0.  0.
        -13    1    3    3    0    0 -0.30388209500E+02 -0.52846262029E+02  0.10247182619E+02  0.61815747207E+02  0.10566000000E+00 0. -1.
         23    2    1    0    0    0 -0.19783057503E+02 -0.21010139777E+02  0.38531357351E+01  0.95975708104E+02  0.91453236976E+02 0.  0.
         13    1    3    3    0    0  0.10605151997E+02  0.31836122252E+02 -0.63940468837E+01  0.34159960897E+02  0.10566000000E+00 0.  1.
         22    1    1    0    0    0  0.19783057503E+02  0.21010139777E+02 -0.38531357351E+01  0.29114291896E+02  0.00000000000E+00 0. -1.
</event>
<event>
 5    1  0.1262391E-009  0.9118800E+02  0.7815553E-02  0.1125453E+00
         25   -1    0    0    0    0  0.00000000000E+00  0.00000000000E+00  0.99999998245E-14  0.12509000000E+03  0.12509000000E+03 0.  0.
        -13    1    3    3    0    0 -0.15935031471E+02 -0.26010592021E+02  0.20931621302E+02  0.36994865314E+02  0.10566000000E+00 0.  1.
         23    2    1    0    0    0  0.14223134602E+02  0.23281584786E+02  0.22983579554E+01  0.97710953316E+02  0.93796685446E+02 0.  0.
         13    1    3    3    0    0  0.30158166073E+02  0.49292176806E+02 -0.18633263347E+02  0.60716088001E+02  0.10566000000E+00 0. -1.
         22    1    1    0    0    0 -0.14223134602E+02 -0.23281584786E+02 -0.22983579554E+01  0.27379046684E+02  0.00000000000E+00 0. -1.
</event>
<event>
 5    1  0.1262391E-009  0.9118800E+02  0.7815553E-02  0.1125453E+00
         25   -1    0    0    0    0  0.00000000000E+00  0.00000000000E+00  0.99999998245E-14  0.12509000000E+03  0.12509000000E+03 0.  0.
        -13    1    3    3    0    0 -0.54346164252E+02  0.15708369071E+01  0.34840497415E+01  0.54480481496E+02  0.10566000000E+00 0. -1.
         23    2    1    0    0    0 -0.18307926336E+02  0.36283067524E+01  0.22963653304E+02  0.95498208069E+02  0.90797762058E+02 0.  0.
         13    1    3    3    0    0  0.36038237916E+02  0.20574698453E+01  0.19479603562E+02  0.41017726573E+02  0.10566000000E+00 0.  1.
         22    1    1    0    0    0  0.18307926336E+02 -0.36283067524E+01 -0.22963653304E+02  0.29591791931E+02  0.00000000000E+00 0. -1.
</event>
<event>
 5    1  0.1262391E-009  0.9118800E+02  0.7815553E-02  0.1125453E+00
         25   -1    0    0    0    0  0.00000000000E+00  0.00000000000E+00  0.99999998245E-14  0.12509000000E+03  0.12509000000E+03 0.  0.
        -13    1    3    3    0    0  0.15999053236E+01 -0.14767430229E+02 -0.55635167773E+02  0.57584023390E+02  0.10566000000E+00 0. -1.
         23    2    1    0    0    0  0.16563024636E+02 -0.12107645467E+02 -0.19501228510E+02  0.96784050497E+02  0.92552286052E+02 0.  0.
         13    1    3    3    0    0  0.14963119312E+02  0.26597847622E+01  0.36133939263E+02  0.39200027107E+02  0.10566000000E+00 0.  1.
         22    1    1    0    0    0 -0.16563024636E+02  0.12107645467E+02  0.19501228510E+02  0.28305949503E+02  0.00000000000E+00 0. -1.
</event>
<event>
 5    1  0.1262391E-009  0.9118800E+02  0.7815553E-02  0.1125453E+00
         25   -1    0    0    0    0  0.00000000000E+00  0.00000000000E+00  0.99999998245E-14  0.12509000000E+03  0.12509000000E+03 0.  0.
        -13    1    3    3    0    0  0.25963595551E+02  0.43316873498E+02 -0.25280342386E+02  0.56476248979E+02  0.10566000000E+00 0. -1.
         23    2    1    0    0    0  0.17807801833E+02  0.45480274756E+01 -0.22280289500E+02  0.96207242856E+02  0.91769384425E+02 0.  0.
         13    1    3    3    0    0 -0.81557937182E+01 -0.38768846022E+02  0.30000528861E+01  0.39730993877E+02  0.10566000000E+00 0.  1.
         22    1    1    0    0    0 -0.17807801833E+02 -0.45480274756E+01  0.22280289500E+02  0.28882757144E+02  0.00000000000E+00 0.  1.
</event>
<event>
 5    1  0.1262391E-009  0.9118800E+02  0.7815553E-02  0.1125453E+00
         25   -1    0    0    0    0  0.00000000000E+00  0.00000000000E+00  0.99999998245E-14  0.12509000000E+03  0.12509000000E+03 0.  0.
        -13    1    3    3    0    0 -0.42324073014E+01 -0.40409479244E+02 -0.15749345932E+01  0.40661171495E+02  0.10566000000E+00 0.  1.
         23    2    1    0    0    0  0.15941175347E+02  0.64792430767E+01  0.22225561483E+02  0.96981687252E+02  0.92819019693E+02 0.  0.
         13    1    3    3    0    0  0.20173582648E+02  0.46888722320E+02  0.23800496076E+02  0.56320515758E+02  0.10566000000E+00 0. -1.
         22    1    1    0    0    0 -0.15941175347E+02 -0.64792430767E+01 -0.22225561483E+02  0.28108312748E+02  0.00000000000E+00 0. -1.
</event>
<event>
 5    1  0.1262391E-009  0.9118800E+02  0.7815553E-02  0.1125453E+00
         25   -1    0    0    0    0  0.00000000000E+00  0.00000000000E+00  0.99999998245E-14  0.12509000000E+03  0.12509000000E+03 0.  0.
        -13    1    3    3    0    0  0.22230141110E+02  0.31571764363E+02  0.17867471139E+02  0.42546599955E+02  0.10566000000E+00 0.  1.
         23    2    1    0    0    0 -0.25615805611E+02  0.93841379371E+01  0.10761943900E+02  0.95763374241E+02  0.91162343473E+02 0.  0.
         13    1    3    3    0    0 -0.47845946720E+02 -0.22187626426E+02 -0.71055272393E+01  0.53216774286E+02  0.10566000000E+00 0. -1.
         22    1    1    0    0    0  0.25615805611E+02 -0.93841379371E+01 -0.10761943900E+02  0.29326625759E+02  0.00000000000E+00 0. -1.
</event>
<event>
 5    1  0.1262391E-009  0.9118800E+02  0.7815553E-02  0.1125453E+00
         25   -1    0    0    0    0  0.00000000000E+00  0.00000000000E+00  0.99999998245E-14  0.12509000000E+03  0.12509000000E+03 0.  0.
        -13    1    3    3    0    0 -0.11579196026E+02 -0.60300815152E+01 -0.30696520488E+02  0.33357565825E+02  0.10566000000E+00 0. -1.
         23    2    1    0    0    0  0.10537106555E+02 -0.44990797923E+01  0.27319571442E+02  0.95465157092E+02  0.90752217060E+02 0.  0.
         13    1    3    3    0    0  0.22116302582E+02  0.15310017229E+01  0.58016091930E+02  0.62107591267E+02  0.10566000000E+00 0.  1.
         22    1    1    0    0    0 -0.10537106555E+02  0.44990797923E+01 -0.27319571442E+02  0.29624842908E+02  0.00000000000E+00 0.  1.
</event>
<event>
 5    1  0.1262391E-009  0.9118800E+02  0.7815553E-02  0.1125453E+00
         25   -1    0    0    0    0  0.00000000000E+00  0.00000000000E+00  0.99999998245E-14  0.12509000000E+03  0.12509000000E+03 0.  0.
        -13    1    3    3    0    0  0.25575193371E+02  0.54569258363E+02 -0.84517471721E+01  0.60855054585E+02  0.10566000000E+00 0.  1.
         23    2    1    0    0    0  0.18703104101E+02  0.30802570278E+02  0.44885842947E+01  0.88775377219E+02  0.81008121647E+02 0.  0.
         13    1    3    3    0    0 -0.68720892702E+01 -0.23766688085E+02  0.12940331467E+02  0.27920322634E+02  0.10566000000E+00 0. -1.
         22    1    1    0    0    0 -0.18703104101E+02 -0.30802570278E+02 -0.44885842947E+01  0.36314622781E+02  0.00000000000E+00 0.  1.
</event>
<event>
 5    1  0.1262391E-009  0.9118800E+02  0.7815553E-02  0.1125453E+00
         25   -1    0    0    0    0  0.00000000000E+00  0.00000000000E+00  0.99999998245E-14  0.12509000000E+03  0.12509000000E+03 0.  0.
        -13    1    3    3    0    0 -0.19452760862E+02 -0.38003850707E+02  0.19998490717E+02  0.47145024857E+02  0.10566000000E+00 0.  1.
         23    2    1    0    0    0 -0.28978369044E+02 -0.91159597748E+01 -0.13019919518E+02  0.92039055999E+02  0.85900075261E+02 0.  0.
         13    1    3    3    0    0 -0.95256081818E+01  0.28887890933E+02 -0.33018410235E+02  0.44894031143E+02  0.10566000000E+00 0. -1.
         22    1    1    0    0    0  0.28978369044E+02  0.91159597748E+01  0.13019919518E+02  0.33050944001E+02  0.00000000000E+00 0.  1.
</event>
<event>
 5    1  0.1262391E-009  0.9118800E+02  0.7815553E-02  0.1125453E+00
         25   -1    0    0    0    0  0.00000000000E+00  0.00000000000E+00  0.99999998245E-14  0.12509000000E+03  0.12509000000E+03 0.  0.
        -13    1    3    3    0    0  0.31093894713E+02  0.24162240323E+02 -0.63299679034E+01  0.39883878993E+02  0.10566000000E+00 0. -1.
         23    2    1    0    0    0  0.17269408826E+01 -0.10860143795E+02  0.26659600657E+02  0.96251495267E+02  0.91829684666E+02 0.  0.
         13    1    3    3    0    0 -0.29366953830E+02 -0.35022384118E+02  0.32989568560E+02  0.56367616274E+02  0.10566000000E+00 0.  1.
         22    1    1    0    0    0 -0.17269408826E+01  0.10860143795E+02 -0.26659600657E+02  0.28838504733E+02  0.00000000000E+00 0.  1.
</event>
<event>
 5    1  0.1262391E-009  0.9118800E+02  0.7815553E-02  0.1125453E+00
         25   -1    0    0    0    0  0.00000000000E+00  0.00000000000E+00  0.99999998245E-14  0.12509000000E+03  0.12509000000E+03 0.  0.
        -13    1    3    3    0    0 -0.32072383040E+02 -0.15997953304E+02  0.44632762446E+02  0.57242177731E+02  0.10566000000E+00 0. -1.
         23    2    1    0    0    0 -0.23904510030E+02 -0.17329028958E+02  0.84210470941E+01  0.94387640505E+02  0.89254645826E+02 0.  0.
         13    1    3    3    0    0  0.81678730103E+01 -0.13310756541E+01 -0.36211715352E+02  0.37145462774E+02  0.10566000000E+00 0.  1.
         22    1    1    0    0    0  0.23904510030E+02  0.17329028958E+02 -0.84210470941E+01  0.30702359495E+02  0.00000000000E+00 0.  1.
</event>
<event>
 5    1  0.1262391E-009  0.9118800E+02  0.7815553E-02  0.1125453E+00
         25   -1    0    0    0    0  0.00000000000E+00  0.00000000000E+00  0.99999998245E-14  0.12509000000E+03  0.12509000000E+03 0.  0.
        -13    1    3    3    0    0  0.27033517856E+02  0.41400872151E+02 -0.33185801188E+02  0.59549574869E+02  0.10566000000E+00 0.  1.
         23    2    1    0    0    0  0.20361436616E+02  0.71030095778E+01 -0.13320603150E+02  0.99742824331E+02  0.96468397370E+02 0.  0.
         13    1    3    3    0    0 -0.66720812400E+01 -0.34297862574E+02  0.19865198038E+02  0.40193249462E+02  0.10566000000E+00 0. -1.
         22    1    1    0    0    0 -0.20361436616E+02 -0.71030095778E+01  0.13320603150E+02  0.25347175669E+02  0.00000000000E+00 0.  1.
</event>
<event>
 5    1  0.1262391E-009  0.9118800E+02  0.7815553E-02  0.1125453E+00
         25   -1    0    0    0    0  0.00000000000E+00  0.00000000000E+00  0.99999998245E-14  0.12509000000E+03  0.12509000000E+03 0.  0.
        -13    1    3    3    0    0  0.43965059909E+02  0.37133319692E+02 -0.20870152905E+02  0.61215883318E+02  0.10566000000E+00 0. -1.
         23    2    1    0    0    0  0.25129470098E+02  0.16477544563E+02 -0.19386975415E+01  0.94977572493E+02  0.90077638658E+02 0.  0.
         13    1    3    3    0    0 -0.18835589811E+02 -0.20655775128E+02  0.18931455364E+02  0.33761689174E+02  0.10566000000E+00 0.  1.
         22    1    1    0    0    0 -0.25129470098E+02 -0.16477544563E+02  0.19386975415E+01  0.30112427507E+02  0.00000000000E+00 0. -1.
</event>
<event>
 5    1  0.1262391E-009  0.9118800E+02  0.7815553E-02  0.1125453E+00
         25   -1    0    0    0    0  0.00000000000E+00  0.00000000000E+00  0.99999998245E-14  0.12509000000E+03  0.12509000000E+03 0.  0.
        -13    1    3    3    0    0 -0.36987794773E+01 -0.42578327234E+02  0.43251490837E+02  0.60805407188E+02  0.10566000000E+00 0. -1.
         23    2    1    0    0    0 -0.10984117128E+02 -0.17626981546E+02  0.25110384553E+02  0.92503304557E+02  0.86573486900E+02 0.  0.
         13    1    3    3    0    0 -0.72853376511E+01  0.24951345688E+02 -0.18141106284E+02  0.31697897368E+02  0.10566000000E+00 0.  1.
         22    1    1    0    0    0  0.10984117128E+02  0.17626981546E+02 -0.25110384553E+02  0.32586695443E+02  0.00000000000E+00 0. -1.
</event>
<event>
 5    1  0.1262391E-009  0.9118800E+02  0.7815553E-02  0.1125453E+00
         25   -1    0    0    0    0  0.00000000000E+00  0.00000000000E+00  0.99999998245E-14  0.12509000000E+03  0.12509000000E+03 0.  0.
        -13    1    3    3    0    0  0.29301976267E+02  0.19550322887E+02 -0.12954456997E+02  0.37531987134E+02  0.10566000000E+00 0.  1.
         23    2    1    0    0    0 -0.14316106013E+02  0.12160692175E+02  0.23605090972E+02  0.94923236081E+02  0.90002150545E+02 0.  0.
         13    1    3    3    0    0 -0.43618082280E+02 -0.73896307121E+01  0.36559547969E+02  0.57391248946E+02  0.10566000000E+00 0. -1.
         22    1    1    0    0    0  0.14316106013E+02 -0.12160692175E+02 -0.23605090972E+02  0.30166763919E+02  0.00000000000E+00 0. -1.
</event>
<event>
 5    1  0.1262391E-009  0.9118800E+02  0.7815553E-02  0.1125453E+00
         25   -1    0    0    0    0  0.00000000000E+00  0.00000000000E+00  0.99999998245E-14  0.12509000000E+03  0.12509000000E+03 0.  0.
        -13    1    3    3    0    0  0.80425410058E+01 -0.41437073521E+02 -0.37405775167E+02  0.56399616202E+02  0.10566000000E+00 0. -1.
         23    2    1    0    0    0  0.20076461135E+02 -0.84472370876E+01 -0.19674498813E+02  0.95738577383E+02  0.91128311680E+02 0.  0.
         13    1    3    3    0    0  0.12033920130E+02  0.32989836434E+02  0.17731276354E+02  0.39338961181E+02  0.10566000000E+00 0.  1.
         22    1    1    0    0    0 -0.20076461135E+02  0.84472370876E+01  0.19674498813E+02  0.29351422617E+02  0.00000000000E+00 0. -1.
</event>
<event>
 5    1  0.1262391E-009  0.9118800E+02  0.7815553E-02  0.1125453E+00
         25   -1    0    0    0    0  0.00000000000E+00  0.00000000000E+00  0.99999998245E-14  0.12509000000E+03  0.12509000000E+03 0.  0.
        -13    1    3    3    0    0 -0.18819383872E+02  0.28675601931E+02 -0.86523354579E+01  0.35374191557E+02  0.10566000000E+00 0.  1.
         23    2    1    0    0    0  0.18051441641E+00 -0.28725281968E+02 -0.72907499604E+00  0.96354900210E+02  0.91970434567E+02 0.  0.
         13    1    3    3    0    0  0.18999898288E+02 -0.57400883899E+02  0.79232604619E+01  0.60980708652E+02  0.10566000000E+00 0. -1.
         22    1    1    0    0    0 -0.18051441641E+00  0.28725281968E+02  0.72907499604E+00  0.28735099790E+02  0.00000000000E+00 0. -1.
</event>
<event>
 5    1  0.1262391E-009  0.9118800E+02  0.7815553E-02  0.1125453E+00
         25   -1    0    0    0    0  0.00000000000E+00  0.00000000000E+00  0.99999998245E-14  0.12509000000E+03  0.12509000000E+03 0.  0.
        -13    1    3    3    0    0 -0.16497376770E+02  0.18371142631E+02 -0.51280922776E+02  0.56915784512E+02  0.10566000000E+00 0.  1.
         23    2    1    0    0    0 -0.57732241727E+01  0.24838490483E+02 -0.14533657398E+02  0.95738544769E+02  0.91128266911E+02 0.  0.
         13    1    3    3    0    0  0.10724152597E+02  0.64673478520E+01  0.36747265378E+02  0.38822760257E+02  0.10566000000E+00 0. -1.
         22    1    1    0    0    0  0.57732241727E+01 -0.24838490483E+02  0.14533657398E+02  0.29351455231E+02  0.00000000000E+00 0.  1.
</event>
<event>
 5    1  0.1262391E-009  0.9118800E+02  0.7815553E-02  0.1125453E+00
         25   -1    0    0    0    0  0.00000000000E+00  0.00000000000E+00  0.99999998245E-14  0.12509000000E+03  0.12509000000E+03 0.  0.
        -13    1    3    3    0    0 -0.34420164575E+02  0.72422346553E+01  0.41492008339E+02  0.54394812365E+02  0.10566000000E+00 0. -1.
         23    2    1    0    0    0 -0.27253257134E+02  0.82050359872E+01 -0.11751905303E+00  0.96628157989E+02  0.92341347540E+02 0.  0.
         13    1    3    3    0    0  0.71669074414E+01  0.96280133183E+00 -0.41609527392E+02  0.42233345623E+02  0.10566000000E+00 0.  1.
         22    1    1    0    0    0  0.27253257134E+02 -0.82050359872E+01  0.11751905303E+00  0.28461842011E+02  0.00000000000E+00 0. -1.
</event>
<event>
 5    1  0.1262391E-009  0.9118800E+02  0.7815553E-02  0.1125453E+00
         25   -1    0    0    0    0  0.00000000000E+00  0.00000000000E+00  0.99999998245E-14  0.12509000000E+03  0.12509000000E+03 0.  0.
        -13    1    3    3    0    0  0.14896864668E+02 -0.32718145956E+02  0.46854243204E+02  0.59056963365E+02  0.10566000000E+00 0. -1.
         23    2    1    0    0    0  0.69708769588E+01 -0.25957678615E+02  0.11603748966E+02  0.95814734080E+02  0.91232790553E+02 0.  0.
         13    1    3    3    0    0 -0.79259877087E+01  0.67604673408E+01 -0.35250494238E+02  0.36757770714E+02  0.10566000000E+00 0.  1.
         22    1    1    0    0    0 -0.69708769588E+01  0.25957678615E+02 -0.11603748966E+02  0.29275265920E+02  0.00000000000E+00 0. -1.
</event>
<event>
 5    1  0.1262391E-009  0.9118800E+02  0.7815553E-02  0.1125453E+00
         25   -1    0    0    0    0  0.00000000000E+00  0.00000000000E+00  0.99999998245E-14  0.12509000000E+03  0.12509000000E+03 0.  0.
        -13    1    3    3    0    0  0.50315228596E+01 -0.57096263093E+02 -0.10676884707E+02  0.58303572040E+02  0.10566000000E+00 0.  1.
         23    2    1    0    0    0  0.31280127399E+01 -0.27085455662E+02  0.11326767478E+02  0.95565399518E+02  0.90890283041E+02 0.  0.
         13    1    3    3    0    0 -0.19035101197E+01  0.30010807431E+02  0.22003652186E+02  0.37261827478E+02  0.10566000000E+00 0. -1.
         22    1    1    0    0    0 -0.31280127399E+01  0.27085455662E+02 -0.11326767478E+02  0.29524600482E+02  0.00000000000E+00 0.  1.
</event>
<event>
 5    1  0.1262391E-009  0.9118800E+02  0.7815553E-02  0.1125453E+00
         25   -1    0    0    0    0  0.00000000000E+00  0.00000000000E+00  0.99999998245E-14  0.12509000000E+03  0.12509000000E+03 0.  0.
        -13    1    3    3    0    0  0.33386541609E+02  0.13039183411E+02  0.10298514620E+02  0.37292787936E+02  0.10566000000E+00 0.  1.
         23    2    1    0    0    0 -0.16438022149E+02 -0.98332285046E+01 -0.17838509193E+02  0.98915329702E+02  0.95389355196E+02 0.  0.
         13    1    3    3    0    0 -0.49824563758E+02 -0.22872411916E+02 -0.28137023813E+02  0.61622541765E+02  0.10566000000E+00 0. -1.
         22    1    1    0    0    0  0.16438022149E+02  0.98332285046E+01  0.17838509193E+02  0.26174670298E+02  0.00000000000E+00 0. -1.
</event>
<event>
 5    1  0.1262391E-009  0.9118800E+02  0.7815553E-02  0.1125453E+00
         25   -1    0    0    0    0  0.00000000000E+00  0.00000000000E+00  0.99999998245E-14  0.12509000000E+03  0.12509000000E+03 0.  0.
        -13    1    3    3    0    0 -0.13563476539E+02  0.16044234276E+02  0.54055432919E+02  0.57994709598E+02  0.10566000000E+00 0. -1.
         23    2    1    0    0    0 -0.23999115510E+02  0.15062508962E+02  0.32437465186E+02  0.82019988749E+02  0.69801523516E+02 0.  0.
         13    1    3    3    0    0 -0.10435638972E+02 -0.98172531329E+00 -0.21617967733E+02  0.24025279151E+02  0.10566000000E+00 0.  1.
         22    1    1    0    0    0  0.23999115510E+02 -0.15062508962E+02 -0.32437465186E+02  0.43070011251E+02  0.00000000000E+00 0. -1.
</event>
<event>
 5    1  0.1262391E-009  0.9118800E+02  0.7815553E-02  0.1125453E+00
         25   -1    0    0    0    0  0.00000000000E+00  0.00000000000E+00  0.99999998245E-14  0.12509000000E+03  0.12509000000E+03 0.  0.
        -13    1    3    3    0    0 -0.90292508623E+01  0.37059657022E+02  0.34973202529E+02  0.51750184627E+02  0.10566000000E+00 0.  1.
         23    2    1    0    0    0 -0.26707260206E+02  0.11126346336E+02  0.39346386080E+01  0.95891460456E+02  0.91337930111E+02 0.  0.
         13    1    3    3    0    0 -0.17678009344E+02 -0.25933310686E+02 -0.31038563921E+02  0.44141275829E+02  0.10566000000E+00 0. -1.
         22    1    1    0    0    0  0.26707260206E+02 -0.11126346336E+02 -0.39346386080E+01  0.29198539544E+02  0.00000000000E+00 0.  1.
</event>
<event>
 5    1  0.1262391E-009  0.9118800E+02  0.7815553E-02  0.1125453E+00
         25   -1    0    0    0    0  0.00000000000E+00  0.00000000000E+00  0.99999998245E-14  0.12509000000E+03  0.12509000000E+03 0.  0.
        -13    1    3    3    0    0 -0.24612720590E+02 -0.66622928488E+01  0.26705740237E+02  0.36923974414E+02  0.10566000000E+00 0. -1.
         23    2    1    0    0    0  0.27287905047E+02 -0.10242687764E+02 -0.11190051605E+01  0.95921616654E+02  0.91379220583E+02 0.  0.
         13    1    3    3    0    0  0.51900625638E+02 -0.35803949148E+01 -0.27824745398E+02  0.58997642240E+02  0.10566000000E+00 0.  1.
         22    1    1    0    0    0 -0.27287905047E+02  0.10242687764E+02  0.11190051605E+01  0.29168383346E+02  0.00000000000E+00 0.  1.
</event>
<event>
 5    1  0.1262391E-009  0.9118800E+02  0.7815553E-02  0.1125453E+00
         25   -1    0    0    0    0  0.00000000000E+00  0.00000000000E+00  0.99999998245E-14  0.12509000000E+03  0.12509000000E+03 0.  0.
        -13    1    3    3    0    0  0.51525609451E+02  0.90931498251E+01  0.32171510598E+02  0.61421421843E+02  0.10566000000E+00 0.  1.
         23    2    1    0    0    0  0.22314387033E+02  0.12213684935E+02  0.17089668102E+02  0.94444238071E+02  0.89333931855E+02 0.  0.
         13    1    3    3    0    0 -0.29211222418E+02  0.31205351098E+01 -0.15081842496E+02  0.33022816228E+02  0.10566000000E+00 0. -1.
         22    1    1    0    0    0 -0.22314387033E+02 -0.12213684935E+02 -0.17089668102E+02  0.30645761929E+02  0.00000000000E+00 0.  1.
</event>
<event>
 5    1  0.1262391E-009  0.9118800E+02  0.7815553E-02  0.1125453E+00
         25   -1    0    0    0    0  0.00000000000E+00  0.00000000000E+00  0.99999998245E-14  0.12509000000E+03  0.12509000000E+03 0.  0.
        -13    1    3    3    0    0 -0.39350050410E+02 -0.12507947984E+02  0.11266392693E+01  0.41305637752E+02  0.10566000000E+00 0. -1.
         23    2    1    0    0    0 -0.45711136148E+01  0.10482169017E+02  0.30639926783E+02  0.92385626283E+02  0.86403286300E+02 0.  0.
         13    1    3    3    0    0  0.34778936795E+02  0.22990117002E+02  0.29513287513E+02  0.51079988530E+02  0.10566000000E+00 0.  1.
         22    1    1    0    0    0  0.45711136148E+01 -0.10482169017E+02 -0.30639926783E+02  0.32704373717E+02  0.00000000000E+00 0.  1.
</event>
<event>
 5    1  0.1262391E-009  0.9118800E+02  0.7815553E-02  0.1125453E+00
         25   -1    0    0    0    0  0.00000000000E+00  0.00000000000E+00  0.99999998245E-14  0.12509000000E+03  0.12509000000E+03 0.  0.
        -13    1    3    3    0    0 -0.13103961107E+01 -0.76445456479E+01  0.33520918908E+02  0.34406676454E+02  0.10566000000E+00 0. -1.
         23    2    1    0    0    0 -0.30318202021E+02 -0.64682347423E+01 -0.14768577711E+02  0.90751358179E+02  0.84003968295E+02 0.  0.
         13    1    3    3    0    0 -0.29007805911E+02  0.11763109056E+01 -0.48289496618E+02  0.56344681726E+02  0.10566000000E+00 0.  1.
         22    1    1    0    0    0  0.30318202021E+02  0.64682347423E+01  0.14768577711E+02  0.34338641821E+02  0.00000000000E+00 0.  1.
</event>
<event>
 5    1  0.1262391E-009  0.9118800E+02  0.7815553E-02  0.1125453E+00
         25   -1    0    0    0    0  0.00000000000E+00  0.00000000000E+00  0.99999998245E-14  0.12509000000E+03  0.12509000000E+03 0.  0.
        -13    1    3    3    0    0 -0.10919411712E+01  0.45769356213E+02 -0.18290116231E+02  0.49300768954E+02  0.10566000000E+00 0. -1.
         23    2    1    0    0    0 -0.15731568021E+02  0.18206314593E+02  0.16405425314E+02  0.95968013406E+02  0.91442711541E+02 0.  0.
         13    1    3    3    0    0 -0.14639626850E+02 -0.27563041620E+02  0.34695541544E+02  0.46667244452E+02  0.10566000000E+00 0.  1.
         22    1    1    0    0    0  0.15731568021E+02 -0.18206314593E+02 -0.16405425314E+02  0.29121986594E+02  0.00000000000E+00 0. -1.
</event>
<event>
 5    1  0.1262391E-009  0.9118800E+02  0.7815553E-02  0.1125453E+00
         25   -1    0    0    0    0  0.00000000000E+00  0.00000000000E+00  0.99999998245E-14  0.12509000000E+03  0.12509000000E+03 0.  0.
        -13    1    3    3    0    0  0.36999146557E+02  0.53162668495E+01  0.52506826051E+01  0.37746263007E+02  0.10566000000E+00 0. -1.
         23    2    1    0    0    0 -0.18159659766E+02 -0.11613094371E+02  0.18198556104E+02  0.96879635806E+02  0.92681385326E+02 0.  0.
         13    1    3    3    0    0 -0.55158806323E+02 -0.16929361221E+02  0.12947873499E+02  0.59133372798E+02  0.10566000000E+00 0.  1.
         22    1    1    0    0    0  0.18159659766E+02  0.11613094371E+02 -0.18198556104E+02  0.28210364194E+02  0.00000000000E+00 0.  1.
</event>
<event>
 5    1  0.1262391E-009  0.9118800E+02  0.7815553E-02  0.1125453E+00
         25   -1    0    0    0    0  0.00000000000E+00  0.00000000000E+00  0.99999998245E-14  0.12509000000E+03  0.12509000000E+03 0.  0.
        -13    1    3    3    0    0 -0.57912481496E+02  0.11440440991E+02  0.36898231476E+01  0.59146979314E+02  0.10566000000E+00 0.  1.
         23    2    1    0    0    0 -0.27693335960E+02 -0.68108929166E+01 -0.63966270553E+01  0.95862855826E+02  0.91298746818E+02 0.  0.
         13    1    3    3    0    0  0.30219145536E+02 -0.18251333907E+02 -0.10086450203E+02  0.36715876512E+02  0.10566000000E+00 0. -1.
         22    1    1    0    0    0  0.27693335960E+02  0.68108929166E+01  0.63966270553E+01  0.29227144174E+02  0.00000000000E+00 0.  1.
</event>
<event>
 5    1  0.1262391E-009  0.9118800E+02  0.7815553E-02  0.1125453E+00
         25   -1    0    0    0    0  0.00000000000E+00  0.00000000000E+00  0.99999998245E-14  0.12509000000E+03  0.12509000000E+03 0.  0.
        -13    1    3    3    0    0 -0.32534829412E+02  0.69768931014E+01  0.73461279919E+01  0.34075928787E+02  0.10566000000E+00 0. -1.
         23    2    1    0    0    0  0.15748280857E+02 -0.18080363450E+02 -0.18980410732E+02  0.94509550625E+02  0.89425339112E+02 0.  0.
         13    1    3    3    0    0  0.48283110269E+02 -0.25057256551E+02 -0.26326538724E+02  0.60433621837E+02  0.10566000000E+00 0.  1.
         22    1    1    0    0    0 -0.15748280857E+02  0.18080363450E+02  0.18980410732E+02  0.30580449375E+02  0.00000000000E+00 0.  1.
</event>
<event>
 5    1  0.1262391E-009  0.9118800E+02  0.7815553E-02  0.1125453E+00
         25   -1    0    0    0    0  0.00000000000E+00  0.00000000000E+00  0.99999998245E-14  0.12509000000E+03  0.12509000000E+03 0.  0.
        -13    1    3    3    0    0  0.30832300738E+02 -0.21358755172E+02 -0.13842907395E+00  0.37508099365E+02  0.10566000000E+00 0. -1.
         23    2    1    0    0    0 -0.17365522482E+02 -0.14532705153E+01  0.24372878573E+02  0.95128181361E+02  0.90286545580E+02 0.  0.
         13    1    3    3    0    0 -0.48197823220E+02  0.19905484657E+02  0.24511307647E+02  0.57620081996E+02  0.10566000000E+00 0.  1.
         22    1    1    0    0    0  0.17365522482E+02  0.14532705153E+01 -0.24372878573E+02  0.29961818639E+02  0.00000000000E+00 0.  1.
</event>
<event>
 5    1  0.1262391E-009  0.9118800E+02  0.7815553E-02  0.1125453E+00
         25   -1    0    0    0    0  0.00000000000E+00  0.00000000000E+00  0.99999998245E-14  0.12509000000E+03  0.12509000000E+03 0.  0.
        -13    1    3    3    0    0 -0.41308529632E+02  0.14952780023E+02 -0.32071416587E+02  0.54392712533E+02  0.10566000000E+00 0.  1.
         23    2    1    0    0    0 -0.21424019870E+02 -0.15602354317E+02 -0.12182175955E+02  0.95921052494E+02  0.91378448296E+02 0.  0.
         13    1    3    3    0    0  0.19884509763E+02 -0.30555134339E+02  0.19889240631E+02  0.41528339961E+02  0.10566000000E+00 0. -1.
         22    1    1    0    0    0  0.21424019870E+02  0.15602354317E+02  0.12182175955E+02  0.29168947506E+02  0.00000000000E+00 0.  1.
</event>
<event>
 5    1  0.1262391E-009  0.9118800E+02  0.7815553E-02  0.1125453E+00
         25   -1    0    0    0    0  0.00000000000E+00  0.00000000000E+00  0.99999998245E-14  0.12509000000E+03  0.12509000000E+03 0.  0.
        -13    1    3    3    0    0 -0.63231308437E+01 -0.83104063476E+01 -0.46289464338E+02  0.47452824047E+02  0.10566000000E+00 0.  1.
         23    2    1    0    0    0 -0.27412296331E+02  0.87204368200E+01 -0.64996356401E+01  0.95598895037E+02  0.90936370394E+02 0.  0.
         13    1    3    3    0    0 -0.21089165487E+02  0.17030843168E+02  0.39789828698E+02  0.48146070990E+02  0.10566000000E+00 0. -1.
         22    1    1    0    0    0  0.27412296331E+02 -0.87204368200E+01  0.64996356401E+01  0.29491104963E+02  0.00000000000E+00 0. -1.
</event>
<event>
 5    1  0.1262391E-009  0.9118800E+02  0.7815553E-02  0.1125453E+00
         25   -1    0    0    0    0  0.00000000000E+00  0.00000000000E+00  0.99999998245E-14  0.12509000000E+03  0.12509000000E+03 0.  0.
        -13    1    3    3    0    0  0.28327980903E+02  0.90701587264E+01 -0.49645492857E+02  0.57874246487E+02  0.10566000000E+00 0. -1.
         23    2    1    0    0    0  0.10373483915E+02 -0.12546187397E+02 -0.25031252720E+02  0.95230669809E+02  0.90428429560E+02 0.  0.
         13    1    3    3    0    0 -0.17954496989E+02 -0.21616346124E+02  0.24614240137E+02  0.37356423322E+02  0.10566000000E+00 0.  1.
         22    1    1    0    0    0 -0.10373483915E+02  0.12546187397E+02  0.25031252720E+02  0.29859330191E+02  0.00000000000E+00 0. -1.
</event>
<event>
 5    1  0.1262391E-009  0.9118800E+02  0.7815553E-02  0.1125453E+00
         25   -1    0    0    0    0  0.00000000000E+00  0.00000000000E+00  0.99999998245E-14  0.12509000000E+03  0.12509000000E+03 0.  0.
        -13    1    3    3    0    0 -0.10705695381E+02 -0.22387294595E+02 -0.25537614380E+02  0.35608759949E+02  0.10566000000E+00 0. -1.
         23    2    1    0    0    0  0.84874314045E+01  0.27865746952E+02  0.17112393594E+01  0.95910132194E+02  0.91363498030E+02 0.  0.
         13    1    3    3    0    0  0.19193126785E+02  0.50253041547E+02  0.27248853739E+02  0.60301372245E+02  0.10566000000E+00 0.  1.
         22    1    1    0    0    0 -0.84874314045E+01 -0.27865746952E+02 -0.17112393594E+01  0.29179867806E+02  0.00000000000E+00 0.  1.
</event>
<event>
 5    1  0.1262391E-009  0.9118800E+02  0.7815553E-02  0.1125453E+00
         25   -1    0    0    0    0  0.00000000000E+00  0.00000000000E+00  0.99999998245E-14  0.12509000000E+03  0.12509000000E+03 0.  0.
        -13    1    3    3    0    0 -0.23773137162E+02 -0.17146428198E+02 -0.31614906962E+02  0.43112359674E+02  0.10566000000E+00 0.  1.
         23    2    1    0    0    0 -0.21732144397E+02 -0.70486637209E+00  0.18903414201E+02  0.96278162066E+02  0.91866002882E+02 0.  0.
         13    1    3    3    0    0  0.20409927649E+01  0.16441561826E+02  0.50518321163E+02  0.53165802391E+02  0.10566000000E+00 0. -1.
         22    1    1    0    0    0  0.21732144397E+02  0.70486637209E+00 -0.18903414201E+02  0.28811837934E+02  0.00000000000E+00 0.  1.
</event>
<event>
 5    1  0.1262391E-009  0.9118800E+02  0.7815553E-02  0.1125453E+00
         25   -1    0    0    0    0  0.00000000000E+00  0.00000000000E+00  0.99999998245E-14  0.12509000000E+03  0.12509000000E+03 0.  0.
        -13    1    3    3    0    0  0.21610392666E+02  0.27562736834E+02 -0.11007496252E+02  0.36713616966E+02  0.10566000000E+00 0. -1.
         23    2    1    0    0    0  0.14290136808E+02 -0.26897968078E+02  0.56046681768E+01  0.94120321247E+02  0.88879209434E+02 0.  0.
         13    1    3    3    0    0 -0.73202558587E+01 -0.54460704912E+02  0.16612164429E+02  0.57406704281E+02  0.10566000000E+00 0.  1.
         22    1    1    0    0    0 -0.14290136808E+02  0.26897968078E+02 -0.56046681768E+01  0.30969678753E+02  0.00000000000E+00 0.  1.
</event>
<event>
 5    1  0.1262391E-009  0.9118800E+02  0.7815553E-02  0.1125453E+00
         25   -1    0    0    0    0  0.00000000000E+00  0.00000000000E+00  0.99999998245E-14  0.12509000000E+03  0.12509000000E+03 0.  0.
        -13    1    3    3    0    0 -0.18654910042E+02 -0.58916795762E+02  0.35726269264E+01  0.61902902345E+02  0.10566000000E+00 0.  1.
         23    2    1    0    0    0 -0.94764983391E+01 -0.29499151902E+02 -0.45548101337E+01  0.93773067215E+02  0.88389127475E+02 0.  0.
         13    1    3    3    0    0  0.91784117025E+01  0.29417643860E+02 -0.81274370601E+01  0.31870164870E+02  0.10566000000E+00 0. -1.
         22    1    1    0    0    0  0.94764983391E+01  0.29499151902E+02  0.45548101337E+01  0.31316932785E+02  0.00000000000E+00 0.  1.
</event>
<event>
 5    1  0.1262391E-009  0.9118800E+02  0.7815553E-02  0.1125453E+00
         25   -1    0    0    0    0  0.00000000000E+00  0.00000000000E+00  0.99999998245E-14  0.12509000000E+03  0.12509000000E+03 0.  0.
        -13    1    3    3    0    0 -0.43124857490E+02 -0.15510530601E+02  0.20118186211E+02  0.50050798930E+02  0.10566000000E+00 0.  1.
         23    2    1    0    0    0  0.63726542919E+00 -0.25492673086E+01  0.28511690081E+02  0.96457477542E+02  0.92109845464E+02 0.  0.
         13    1    3    3    0    0  0.43762122919E+02  0.12961263293E+02  0.83935038700E+01  0.46406678612E+02  0.10566000000E+00 0. -1.
         22    1    1    0    0    0 -0.63726542919E+00  0.25492673086E+01 -0.28511690081E+02  0.28632522458E+02  0.00000000000E+00 0.  1.
</event>
<event>
 5    1  0.1262391E-009  0.9118800E+02  0.7815553E-02  0.1125453E+00
         25   -1    0    0    0    0  0.00000000000E+00  0.00000000000E+00  0.99999998245E-14  0.12509000000E+03  0.12509000000E+03 0.  0.
        -13    1    3    3    0    0 -0.18156815846E+02 -0.10707199838E+01 -0.42182951695E+02  0.45937228701E+02  0.10566000000E+00 0.  1.
         23    2    1    0    0    0 -0.43617604865E+01  0.27900208386E+02 -0.28367897488E+01  0.96708774540E+02  0.92450490071E+02 0.  0.
         13    1    3    3    0    0  0.13795055359E+02  0.28970928370E+02  0.39346161946E+02  0.50771545839E+02  0.10566000000E+00 0. -1.
         22    1    1    0    0    0  0.43617604865E+01 -0.27900208386E+02  0.28367897488E+01  0.28381225460E+02  0.00000000000E+00 0.  1.
</event>
<event>
 5    1  0.1262391E-009  0.9118800E+02  0.7815553E-02  0.1125453E+00
         25   -1    0    0    0    0  0.00000000000E+00  0.00000000000E+00  0.99999998245E-14  0.12509000000E+03  0.12509000000E+03 0.  0.
        -13    1    3    3    0    0 -0.24456829234E+02  0.36813069379E+01  0.38431378918E+02  0.45701975521E+02  0.10566000000E+00 0.  1.
         23    2    1    0    0    0 -0.16368079191E+02 -0.25829228464E+02  0.40818005341E+00  0.94508475015E+02  0.89423834515E+02 0.  0.
         13    1    3    3    0    0  0.80887500426E+01 -0.29510535401E+02 -0.38023198865E+02  0.48806499494E+02  0.10566000000E+00 0. -1.
         22    1    1    0    0    0  0.16368079191E+02  0.25829228464E+02 -0.40818005341E+00  0.30581524985E+02  0.00000000000E+00 0. -1.
</event>
<event>
 5    1  0.1262391E-009  0.9118800E+02  0.7815553E-02  0.1125453E+00
         25   -1    0    0    0    0  0.00000000000E+00  0.00000000000E+00  0.99999998245E-14  0.12509000000E+03  0.12509000000E+03 0.  0.
        -13    1    3    3    0    0 -0.60865726191E+01  0.38800575728E+02 -0.14915823246E+02  0.42012188591E+02  0.10566000000E+00 0. -1.
         23    2    1    0    0    0 -0.23820662770E+02 -0.54358132374E+01  0.13172498168E+02  0.97332356939E+02  0.93290411934E+02 0.  0.
         13    1    3    3    0    0 -0.17734090151E+02 -0.44236388965E+02  0.28088321413E+02  0.55320168348E+02  0.10566000000E+00 0.  1.
         22    1    1    0    0    0  0.23820662770E+02  0.54358132374E+01 -0.13172498168E+02  0.27757643061E+02  0.00000000000E+00 0. -1.
</event>
<event>
 5    1  0.1262391E-009  0.9118800E+02  0.7815553E-02  0.1125453E+00
         25   -1    0    0    0    0  0.00000000000E+00  0.00000000000E+00  0.99999998245E-14  0.12509000000E+03  0.12509000000E+03 0.  0.
        -13    1    3    3    0    0 -0.89709288068E+01  0.27970417807E+02 -0.17184904656E+02  0.34031660965E+02  0.10566000000E+00 0.  1.
         23    2    1    0    0    0  0.13431232375E+02 -0.25544042680E+02  0.43301013682E+01  0.95907027269E+02  0.91359246834E+02 0.  0.
         13    1    3    3    0    0  0.22402161182E+02 -0.53514460488E+02  0.21515006025E+02  0.61875366303E+02  0.10566000000E+00 0. -1.
         22    1    1    0    0    0 -0.13431232375E+02  0.25544042680E+02 -0.43301013682E+01  0.29182972731E+02  0.00000000000E+00 0. -1.
</event>
<event>
 5    1  0.1262391E-009  0.9118800E+02  0.7815553E-02  0.1125453E+00
         25   -1    0    0    0    0  0.00000000000E+00  0.00000000000E+00  0.99999998245E-14  0.12509000000E+03  0.12509000000E+03 0.  0.
        -13    1    3    3    0    0  0.20319454220E+02  0.51314406361E+02 -0.17076487574E+02  0.57772537697E+02  0.10566000000E+00 0. -1.
         23    2    1    0    0    0  0.24396243568E+02  0.15713372914E+02 -0.10653511939E+02  0.94177476564E+02  0.88959614358E+02 0.  0.
         13    1    3    3    0    0  0.40767893471E+01 -0.35601033447E+02  0.64229756352E+01  0.36404938867E+02  0.10566000000E+00 0.  1.
         22    1    1    0    0    0 -0.24396243568E+02 -0.15713372914E+02  0.10653511939E+02  0.30912523436E+02  0.00000000000E+00 0. -1.
</event>
<event>
 5    1  0.1262391E-009  0.9118800E+02  0.7815553E-02  0.1125453E+00
         25   -1    0    0    0    0  0.00000000000E+00  0.00000000000E+00  0.99999998245E-14  0.12509000000E+03  0.12509000000E+03 0.  0.
        -13    1    3    3    0    0 -0.32126688529E+02 -0.23653918569E+02 -0.82338896731E+01  0.40736225681E+02  0.10566000000E+00 0.  1.
         23    2    1    0    0    0 -0.61888902728E+01  0.94045427717E+01  0.27168401158E+02  0.95681331056E+02  0.91049696890E+02 0.  0.
         13    1    3    3    0    0  0.25937798257E+02  0.33058461341E+02  0.35402290831E+02  0.54945105376E+02  0.10566000000E+00 0. -1.
         22    1    1    0    0    0  0.61888902728E+01 -0.94045427717E+01 -0.27168401158E+02  0.29408668944E+02  0.00000000000E+00 0. -1.
</event>
<event>
 5    1  0.1262391E-009  0.9118800E+02  0.7815553E-02  0.1125453E+00
         25   -1    0    0    0    0  0.00000000000E+00  0.00000000000E+00  0.99999998245E-14  0.12509000000E+03  0.12509000000E+03 0.  0.
        -13    1    3    3    0    0 -0.48094803845E+01 -0.50385483332E+02 -0.14868433917E+02  0.52753289218E+02  0.10566000000E+00 0. -1.
         23    2    1    0    0    0 -0.24406668384E+02 -0.11041202675E+02 -0.69422132876E+01  0.97417126216E+02  0.93404007070E+02 0.  0.
         13    1    3    3    0    0 -0.19597188000E+02  0.39344280657E+02  0.79262206291E+01  0.44663836998E+02  0.10566000000E+00 0.  1.
         22    1    1    0    0    0  0.24406668384E+02  0.11041202675E+02  0.69422132876E+01  0.27672873784E+02  0.00000000000E+00 0.  1.
</event>
<event>
 5    1  0.1262391E-009  0.9118800E+02  0.7815553E-02  0.1125453E+00
         25   -1    0    0    0    0  0.00000000000E+00  0.00000000000E+00  0.99999998245E-14  0.12509000000E+03  0.12509000000E+03 0.  0.
        -13    1    3    3    0    0 -0.25219227167E+02 -0.17800357659E+02 -0.19838720345E+02  0.36693979624E+02  0.10566000000E+00 0.  1.
         23    2    1    0    0    0  0.11650431864E+02  0.22170382234E+02  0.92832783362E+01  0.98379746020E+02  0.94684406104E+02 0.  0.
         13    1    3    3    0    0  0.36869659031E+02  0.39970739893E+02  0.29121998681E+02  0.61685766396E+02  0.10566000000E+00 0. -1.
         22    1    1    0    0    0 -0.11650431864E+02 -0.22170382234E+02 -0.92832783362E+01  0.26710253980E+02  0.00000000000E+00 0. -1.
</event>
<event>
 5    1  0.1262391E-009  0.9118800E+02  0.7815553E-02  0.1125453E+00
         25   -1    0    0    0    0  0.00000000000E+00  0.00000000000E+00  0.99999998245E-14  0.12509000000E+03  0.12509000000E+03 0.  0.
        -13    1    3    3    0    0  0.30149168085E+02  0.28374637986E+02  0.65837216467E+01  0.41921939028E+02  0.10566000000E+00 0. -1.
         23    2    1    0    0    0 -0.21911687249E+02  0.16335471549E+02  0.11194792342E+02  0.95555392428E+02  0.90876509493E+02 0.  0.
         13    1    3    3    0    0 -0.52060855334E+02 -0.12039166437E+02  0.46110706956E+01  0.53633453400E+02  0.10566000000E+00 0.  1.
         22    1    1    0    0    0  0.21911687249E+02 -0.16335471549E+02 -0.11194792342E+02  0.29534607572E+02  0.00000000000E+00 0.  1.
</event>
<event>
 5    1  0.1262391E-009  0.9118800E+02  0.7815553E-02  0.1125453E+00
         25   -1    0    0    0    0  0.00000000000E+00  0.00000000000E+00  0.99999998245E-14  0.12509000000E+03  0.12509000000E+03 0.  0.
        -13    1    3    3    0    0  0.66726951286E+01  0.38771598216E+02 -0.90919833840E+01  0.40378670290E+02  0.10566000000E+00 0.  1.
         23    2    1    0    0    0 -0.27850362621E+02 -0.24341913611E+01  0.65729361679E+01  0.96371165142E+02  0.91992554021E+02 0.  0.
         13    1    3    3    0    0 -0.34523057750E+02 -0.41205789578E+02  0.15664919552E+02  0.55992494852E+02  0.10566000000E+00 0. -1.
         22    1    1    0    0    0  0.27850362621E+02  0.24341913611E+01 -0.65729361679E+01  0.28718834858E+02  0.00000000000E+00 0. -1.
</event>
<event>
 5    1  0.1262391E-009  0.9118800E+02  0.7815553E-02  0.1125453E+00
         25   -1    0    0    0    0  0.00000000000E+00  0.00000000000E+00  0.99999998245E-14  0.12509000000E+03  0.12509000000E+03 0.  0.
        -13    1    3    3    0    0  0.17631539237E+02  0.63943403781E+00  0.14886778179E+02  0.23084786773E+02  0.10566000000E+00 0.  1.
         23    2    1    0    0    0 -0.31903054155E+02 -0.13827570568E+02 -0.19622605345E+02  0.85164404040E+02  0.75225810084E+02 0.  0.
         13    1    3    3    0    0 -0.49534593392E+02 -0.14467004605E+02 -0.34509383524E+02  0.62079617267E+02  0.10566000000E+00 0. -1.
         22    1    1    0    0    0  0.31903054155E+02  0.13827570568E+02  0.19622605345E+02  0.39925595960E+02  0.00000000000E+00 0. -1.
</event>
<event>
 5    1  0.1262391E-009  0.9118800E+02  0.7815553E-02  0.1125453E+00
         25   -1    0    0    0    0  0.00000000000E+00  0.00000000000E+00  0.99999998245E-14  0.12509000000E+03  0.12509000000E+03 0.  0.
        -13    1    3    3    0    0  0.14148386289E+02  0.36230855407E+02 -0.61175112627E+01  0.39373681898E+02  0.10566000000E+00 0.  1.
         23    2    1    0    0    0 -0.19601798353E+02  0.28934469420E+01  0.22762074945E+02  0.94911951858E+02  0.89986465736E+02 0.  0.
         13    1    3    3    0    0 -0.33750184642E+02 -0.33337408465E+02  0.28879586208E+02  0.55538269960E+02  0.10566000000E+00 0. -1.
         22    1    1    0    0    0  0.19601798353E+02 -0.28934469420E+01 -0.22762074945E+02  0.30178048142E+02  0.00000000000E+00 0. -1.
</event>
<event>
 5    1  0.1262391E-009  0.9118800E+02  0.7815553E-02  0.1125453E+00
         25   -1    0    0    0    0  0.00000000000E+00  0.00000000000E+00  0.99999998245E-14  0.12509000000E+03  0.12509000000E+03 0.  0.
        -13    1    3    3    0    0  0.63438263606E+00 -0.81175891573E+01  0.37080642378E+02  0.37964231828E+02  0.10566000000E+00 0. -1.
         23    2    1    0    0    0 -0.13365205391E+02  0.23535449572E+02 -0.98592326250E+01  0.96284608670E+02  0.91874780528E+02 0.  0.
         13    1    3    3    0    0 -0.13999588027E+02  0.31653038729E+02 -0.46939875003E+02  0.58320376843E+02  0.10566000000E+00 0.  1.
         22    1    1    0    0    0  0.13365205391E+02 -0.23535449572E+02  0.98592326250E+01  0.28805391330E+02  0.00000000000E+00 0.  1.
</event>
<event>
 5    1  0.1262391E-009  0.9118800E+02  0.7815553E-02  0.1125453E+00
         25   -1    0    0    0    0  0.00000000000E+00  0.00000000000E+00  0.99999998245E-14  0.12509000000E+03  0.12509000000E+03 0.  0.
        -13    1    3    3    0    0  0.12642413012E+02 -0.55855236546E+02  0.23702642130E+02  0.61979548759E+02  0.10566000000E+00 0. -1.
         23    2    1    0    0    0  0.12583439888E+02 -0.28745628422E+02  0.12513816800E+02  0.91307612226E+02  0.84828240149E+02 0.  0.
         13    1    3    3    0    0 -0.58973123171E-01  0.27109608124E+02 -0.11188825330E+02  0.29328063468E+02  0.10566000000E+00 0.  1.
         22    1    1    0    0    0 -0.12583439888E+02  0.28745628422E+02 -0.12513816800E+02  0.33782387774E+02  0.00000000000E+00 0. -1.
</event>
<event>
 5    1  0.1262391E-009  0.9118800E+02  0.7815553E-02  0.1125453E+00
         25   -1    0    0    0    0  0.00000000000E+00  0.00000000000E+00  0.99999998245E-14  0.12509000000E+03  0.12509000000E+03 0.  0.
        -13    1    3    3    0    0  0.47394690876E+01 -0.21055925503E+02  0.50390530971E+02  0.54818166164E+02  0.10566000000E+00 0.  1.
         23    2    1    0    0    0 -0.11063218035E+02 -0.24170666116E+02  0.13065368978E+02  0.95470415932E+02  0.90759465390E+02 0.  0.
         13    1    3    3    0    0 -0.15802687123E+02 -0.31147406133E+01 -0.37325161993E+02  0.40652249768E+02  0.10566000000E+00 0. -1.
         22    1    1    0    0    0  0.11063218035E+02  0.24170666116E+02 -0.13065368978E+02  0.29619584068E+02  0.00000000000E+00 0.  1.
</event>
<event>
 5    1  0.1262391E-009  0.9118800E+02  0.7815553E-02  0.1125453E+00
         25   -1    0    0    0    0  0.00000000000E+00  0.00000000000E+00  0.99999998245E-14  0.12509000000E+03  0.12509000000E+03 0.  0.
        -13    1    3    3    0    0 -0.19091811018E+02 -0.17665533863E+02 -0.24540873571E+02  0.35760788223E+02  0.10566000000E+00 0.  1.
         23    2    1    0    0    0 -0.12469649213E+01  0.21483025417E+02  0.18569069180E+02  0.96666670976E+02  0.92393504343E+02 0.  0.
         13    1    3    3    0    0  0.17844846097E+02  0.39148559281E+02  0.43109942751E+02  0.60905882754E+02  0.10566000000E+00 0. -1.
         22    1    1    0    0    0  0.12469649213E+01 -0.21483025417E+02 -0.18569069180E+02  0.28423329024E+02  0.00000000000E+00 0. -1.
</event>
<event>
 5    1  0.1262391E-009  0.9118800E+02  0.7815553E-02  0.1125453E+00
         25   -1    0    0    0    0  0.00000000000E+00  0.00000000000E+00  0.99999998245E-14  0.12509000000E+03  0.12509000000E+03 0.  0.
        -13    1    3    3    0    0  0.41233346633E+01 -0.40467844548E+02  0.15958360192E+02  0.43695866568E+02  0.10566000000E+00 0. -1.
         23    2    1    0    0    0 -0.11810345334E+02  0.93429830237E+01  0.24148666737E+02  0.96630665962E+02  0.92344744899E+02 0.  0.
         13    1    3    3    0    0 -0.15933679997E+02  0.49810827571E+02  0.81903065452E+01  0.52934799395E+02  0.10566000000E+00 0.  1.
         22    1    1    0    0    0  0.11810345334E+02 -0.93429830237E+01 -0.24148666737E+02  0.28459334038E+02  0.00000000000E+00 0.  1.
</event>
<event>
 5    1  0.1262391E-009  0.9118800E+02  0.7815553E-02  0.1125453E+00
         25   -1    0    0    0    0  0.00000000000E+00  0.00000000000E+00  0.99999998245E-14  0.12509000000E+03  0.12509000000E+03 0.  0.
        -13    1    3    3    0    0  0.56379494027E+01  0.43829968852E+01  0.38743157311E+02  0.39395945700E+02  0.10566000000E+00 0.  1.
         23    2    1    0    0    0 -0.30634061837E+01  0.26645624827E+02 -0.12166969705E+02  0.95638193066E+02  0.90990411810E+02 0.  0.
         13    1    3    3    0    0 -0.87013555863E+01  0.22262627942E+02 -0.50910127016E+02  0.56242247366E+02  0.10566000000E+00 0. -1.
         22    1    1    0    0    0  0.30634061837E+01 -0.26645624827E+02  0.12166969705E+02  0.29451806934E+02  0.00000000000E+00 0. -1.
</event>
<event>
 5    1  0.1262391E-009  0.9118800E+02  0.7815553E-02  0.1125453E+00
         25   -1    0    0    0    0  0.00000000000E+00  0.00000000000E+00  0.99999998245E-14  0.12509000000E+03  0.12509000000E+03 0.  0.
        -13    1    3    3    0    0 -0.85733925948E+01  0.24859921245E+02 -0.21966694389E+02  0.34264640248E+02  0.10566000000E+00 0. -1.
         23    2    1    0    0    0  0.21735603615E+02 -0.17593529435E+02  0.99404193338E+01  0.95412050627E+02  0.90678987234E+02 0.  0.
         13    1    3    3    0    0  0.30308996210E+02 -0.42453450679E+02  0.31907113723E+02  0.61147410379E+02  0.10566000000E+00 0.  1.
         22    1    1    0    0    0 -0.21735603615E+02  0.17593529435E+02 -0.99404193338E+01  0.29677949373E+02  0.00000000000E+00 0.  1.
</event>
<event>
 5    1  0.1262391E-009  0.9118800E+02  0.7815553E-02  0.1125453E+00
         25   -1    0    0    0    0  0.00000000000E+00  0.00000000000E+00  0.99999998245E-14  0.12509000000E+03  0.12509000000E+03 0.  0.
        -13    1    3    3    0    0 -0.90788621570E+01 -0.29890845847E+02 -0.15485443957E+02  0.34866868831E+02  0.10566000000E+00 0. -1.
         23    2    1    0    0    0  0.42792577643E+01  0.11648160831E+02  0.26754926425E+02  0.95597326575E+02  0.90934212827E+02 0.  0.
         13    1    3    3    0    0  0.13358119921E+02  0.41539006678E+02  0.42240370382E+02  0.60730457743E+02  0.10566000000E+00 0.  1.
         22    1    1    0    0    0 -0.42792577643E+01 -0.11648160831E+02 -0.26754926425E+02  0.29492673425E+02  0.00000000000E+00 0.  1.
</event>
<event>
 5    1  0.1262391E-009  0.9118800E+02  0.7815553E-02  0.1125453E+00
         25   -1    0    0    0    0  0.00000000000E+00  0.00000000000E+00  0.99999998245E-14  0.12509000000E+03  0.12509000000E+03 0.  0.
        -13    1    3    3    0    0  0.13478406943E+02  0.26537895758E+01 -0.38631848803E+02  0.41001718974E+02  0.10566000000E+00 0. -1.
         23    2    1    0    0    0  0.36174541711E+01  0.27278120621E+02  0.95170528863E+01  0.95973747925E+02  0.91450555798E+02 0.  0.
         13    1    3    3    0    0 -0.98609527722E+01  0.24624331045E+02  0.48148901690E+02  0.54972028950E+02  0.10566000000E+00 0.  1.
         22    1    1    0    0    0 -0.36174541711E+01 -0.27278120621E+02 -0.95170528863E+01  0.29116252075E+02  0.00000000000E+00 0.  1.
</event>
<event>
 5    1  0.1262391E-009  0.9118800E+02  0.7815553E-02  0.1125453E+00
         25   -1    0    0    0    0  0.00000000000E+00  0.00000000000E+00  0.99999998245E-14  0.12509000000E+03  0.12509000000E+03 0.  0.
        -13    1    3    3    0    0 -0.11315685378E+02 -0.34639408166E+02 -0.29857999933E+01  0.36563089302E+02  0.10566000000E+00 0. -1.
         23    2    1    0    0    0  0.14666616500E+02  0.14445180759E+02  0.19739018933E+02  0.96569800927E+02  0.92262260410E+02 0.  0.
         13    1    3    3    0    0  0.25982301877E+02  0.49084588925E+02  0.22724818926E+02  0.60006711625E+02  0.10566000000E+00 0.  1.
         22    1    1    0    0    0 -0.14666616500E+02 -0.14445180759E+02 -0.19739018933E+02  0.28520199073E+02  0.00000000000E+00 0.  1.
</event>
<event>
 5    1  0.1262391E-009  0.9118800E+02  0.7815553E-02  0.1125453E+00
         25   -1    0    0    0    0  0.00000000000E+00  0.00000000000E+00  0.99999998245E-14  0.12509000000E+03  0.12509000000E+03 0.  0.
        -13    1    3    3    0    0  0.42963607835E+02 -0.23687037024E+01 -0.93018691507E+01  0.44022929130E+02  0.10566000000E+00 0. -1.
         23    2    1    0    0    0  0.16963126415E+01 -0.30401448809E+02 -0.79758139309E+00  0.94630819079E+02  0.89594811330E+02 0.  0.
         13    1    3    3    0    0 -0.41267295194E+02 -0.28032745107E+02  0.85042877576E+01  0.50607889949E+02  0.10566000000E+00 0.  1.
         22    1    1    0    0    0 -0.16963126415E+01  0.30401448809E+02  0.79758139309E+00  0.30459180921E+02  0.00000000000E+00 0.  1.
</event>
<event>
 5    1  0.1262391E-009  0.9118800E+02  0.7815553E-02  0.1125453E+00
         25   -1    0    0    0    0  0.00000000000E+00  0.00000000000E+00  0.99999998245E-14  0.12509000000E+03  0.12509000000E+03 0.  0.
        -13    1    3    3    0    0 -0.31619468385E+02 -0.18725559557E+02 -0.47447226662E+01  0.37053487270E+02  0.10566000000E+00 0.  1.
         23    2    1    0    0    0  0.35494971306E+01  0.23284873731E+02  0.17045034734E+02  0.96015655921E+02  0.91507861402E+02 0.  0.
         13    1    3    3    0    0  0.35168965516E+02  0.42010433288E+02  0.21789757400E+02  0.58962168651E+02  0.10566000000E+00 0. -1.
         22    1    1    0    0    0 -0.35494971306E+01 -0.23284873731E+02 -0.17045034734E+02  0.29074344079E+02  0.00000000000E+00 0. -1.
</event>
<event>
 5    1  0.1262391E-009  0.9118800E+02  0.7815553E-02  0.1125453E+00
         25   -1    0    0    0    0  0.00000000000E+00  0.00000000000E+00  0.99999998245E-14  0.12509000000E+03  0.12509000000E+03 0.  0.
        -13    1    3    3    0    0  0.16976052983E+02 -0.97699889957E+01  0.32600069240E+02  0.38031759601E+02  0.10566000000E+00 0. -1.
         23    2    1    0    0    0 -0.20598873155E+02 -0.25693173659E+02 -0.27788101518E+01  0.92041936005E+02  0.85904269101E+02 0.  0.
         13    1    3    3    0    0 -0.37574926138E+02 -0.15923184664E+02 -0.35378879392E+02  0.54010176404E+02  0.10566000000E+00 0.  1.
         22    1    1    0    0    0  0.20598873155E+02  0.25693173659E+02  0.27788101518E+01  0.33048063995E+02  0.00000000000E+00 0.  1.
</event>
<event>
 5    1  0.1262391E-009  0.9118800E+02  0.7815553E-02  0.1125453E+00
         25   -1    0    0    0    0  0.00000000000E+00  0.00000000000E+00  0.99999998245E-14  0.12509000000E+03  0.12509000000E+03 0.  0.
        -13    1    3    3    0    0  0.18204086415E+02  0.14831631892E+02  0.31033225018E+02  0.38915784533E+02  0.10566000000E+00 0. -1.
         23    2    1    0    0    0 -0.28666142349E+02 -0.20907822635E+01  0.20331394102E+02  0.89883684178E+02  0.82701825903E+02 0.  0.
         13    1    3    3    0    0 -0.46870228763E+02 -0.16922414156E+02 -0.10701830916E+02  0.50967899645E+02  0.10566000000E+00 0.  1.
         22    1    1    0    0    0  0.28666142349E+02  0.20907822635E+01 -0.20331394102E+02  0.35206315822E+02  0.00000000000E+00 0.  1.
</event>
<event>
 5    1  0.1262391E-009  0.9118800E+02  0.7815553E-02  0.1125453E+00
         25   -1    0    0    0    0  0.00000000000E+00  0.00000000000E+00  0.99999998245E-14  0.12509000000E+03  0.12509000000E+03 0.  0.
        -13    1    3    3    0    0 -0.33773808824E+02 -0.22375210404E+02  0.91138046175E+01  0.41525808863E+02  0.10566000000E+00 0.  1.
         23    2    1    0    0    0  0.13608128432E+02  0.42430721446E+01 -0.17893064972E+02  0.10221323024E+03  0.99620268224E+02 0.  0.
         13    1    3    3    0    0  0.47381937257E+02  0.26618282548E+02 -0.27006869589E+02  0.60687421375E+02  0.10566000000E+00 0. -1.
         22    1    1    0    0    0 -0.13608128432E+02 -0.42430721446E+01  0.17893064972E+02  0.22876769762E+02  0.00000000000E+00 0. -1.
</event>
<event>
 5    1  0.1262391E-009  0.9118800E+02  0.7815553E-02  0.1125453E+00
         25   -1    0    0    0    0  0.00000000000E+00  0.00000000000E+00  0.99999998245E-14  0.12509000000E+03  0.12509000000E+03 0.  0.
        -13    1    3    3    0    0 -0.76341124975E+01  0.40318109987E+02 -0.22134327685E+02  0.46623698831E+02  0.10566000000E+00 0. -1.
         23    2    1    0    0    0  0.15974084993E+02 -0.34318430654E+01 -0.23632320321E+02  0.96359606652E+02  0.91976835628E+02 0.  0.
         13    1    3    3    0    0  0.23608197491E+02 -0.43749953052E+02 -0.14979926352E+01  0.49735907821E+02  0.10566000000E+00 0.  1.
         22    1    1    0    0    0 -0.15974084993E+02  0.34318430654E+01  0.23632320321E+02  0.28730393348E+02  0.00000000000E+00 0.  1.
</event>
<event>
 5    1  0.1262391E-009  0.9118800E+02  0.7815553E-02  0.1125453E+00
         25   -1    0    0    0    0  0.00000000000E+00  0.00000000000E+00  0.99999998245E-14  0.12509000000E+03  0.12509000000E+03 0.  0.
        -13    1    3    3    0    0 -0.27068661479E+02 -0.15632834826E+02  0.34877487700E+02  0.46835331442E+02  0.10566000000E+00 0. -1.
         23    2    1    0    0    0 -0.14963837485E+02  0.23503931467E+02  0.70821267994E+01  0.96340952248E+02  0.91951461834E+02 0.  0.
         13    1    3    3    0    0  0.12104823995E+02  0.39136766293E+02 -0.27795360900E+02  0.49505620806E+02  0.10566000000E+00 0.  1.
         22    1    1    0    0    0  0.14963837485E+02 -0.23503931467E+02 -0.70821267994E+01  0.28749047752E+02  0.00000000000E+00 0.  1.
</event>
<event>
 5    1  0.1262391E-009  0.9118800E+02  0.7815553E-02  0.1125453E+00
         25   -1    0    0    0    0  0.00000000000E+00  0.00000000000E+00  0.99999998245E-14  0.12509000000E+03  0.12509000000E+03 0.  0.
        -13    1    3    3    0    0 -0.14561646722E+02 -0.28903035036E+02  0.32961619510E+02  0.46194225984E+02  0.10566000000E+00 0.  1.
         23    2    1    0    0    0  0.34245462737E+01  0.15301124054E+02  0.26425092839E+02  0.94363180346E+02  0.89220358433E+02 0.  0.
         13    1    3    3    0    0  0.17986192995E+02  0.44204159090E+02 -0.65365266706E+01  0.48168954361E+02  0.10566000000E+00 0. -1.
         22    1    1    0    0    0 -0.34245462737E+01 -0.15301124054E+02 -0.26425092839E+02  0.30726819654E+02  0.00000000000E+00 0. -1.
</event>
<event>
 5    1  0.1262391E-009  0.9118800E+02  0.7815553E-02  0.1125453E+00
         25   -1    0    0    0    0  0.00000000000E+00  0.00000000000E+00  0.99999998245E-14  0.12509000000E+03  0.12509000000E+03 0.  0.
        -13    1    3    3    0    0  0.33393064172E+02  0.12634277956E+02  0.18318993244E+02  0.40128772617E+02  0.10566000000E+00 0.  1.
         23    2    1    0    0    0 -0.13216002846E+02  0.27808714251E+02 -0.40987017076E+01  0.94028984640E+02  0.88750567757E+02 0.  0.
         13    1    3    3    0    0 -0.46609067018E+02  0.15174436295E+02 -0.22417694952E+02  0.53900212023E+02  0.10566000000E+00 0. -1.
         22    1    1    0    0    0  0.13216002846E+02 -0.27808714251E+02  0.40987017076E+01  0.31061015360E+02  0.00000000000E+00 0. -1.
</event>
<event>
 5    1  0.1262391E-009  0.9118800E+02  0.7815553E-02  0.1125453E+00
         25   -1    0    0    0    0  0.00000000000E+00  0.00000000000E+00  0.99999998245E-14  0.12509000000E+03  0.12509000000E+03 0.  0.
        -13    1    3    3    0    0 -0.16958334216E+02  0.28527259743E+02 -0.46590418336E+02  0.57201992034E+02  0.10566000000E+00 0.  1.
         23    2    1    0    0    0 -0.12688063732E+02  0.25828124556E+02 -0.92781073926E+01  0.94854883726E+02  0.89907100446E+02 0.  0.
         13    1    3    3    0    0  0.42702704847E+01 -0.26991351875E+01  0.37312310944E+02  0.37652891692E+02  0.10566000000E+00 0. -1.
         22    1    1    0    0    0  0.12688063732E+02 -0.25828124556E+02  0.92781073926E+01  0.30235116274E+02  0.00000000000E+00 0.  1.
</event>
<event>
 5    1  0.1262391E-009  0.9118800E+02  0.7815553E-02  0.1125453E+00
         25   -1    0    0    0    0  0.00000000000E+00  0.00000000000E+00  0.99999998245E-14  0.12509000000E+03  0.12509000000E+03 0.  0.
        -13    1    3    3    0    0  0.31759412725E+02 -0.23633921636E+01 -0.26682620934E+02  0.41547795887E+02  0.10566000000E+00 0. -1.
         23    2    1    0    0    0 -0.12081863964E+02  0.24796525076E+02 -0.99516932647E+01  0.95766369742E+02  0.91166453710E+02 0.  0.
         13    1    3    3    0    0 -0.43841276689E+02  0.27159917239E+02  0.16730927669E+02  0.54218573855E+02  0.10566000000E+00 0.  1.
         22    1    1    0    0    0  0.12081863964E+02 -0.24796525076E+02  0.99516932647E+01  0.29323630258E+02  0.00000000000E+00 0. -1.
</event>
<event>
 5    1  0.1262391E-009  0.9118800E+02  0.7815553E-02  0.1125453E+00
         25   -1    0    0    0    0  0.00000000000E+00  0.00000000000E+00  0.99999998245E-14  0.12509000000E+03  0.12509000000E+03 0.  0.
        -13    1    3    3    0    0 -0.31777408097E+02  0.39678603491E+02  0.15648979203E+02  0.53189256006E+02  0.10566000000E+00 0. -1.
         23    2    1    0    0    0 -0.39856216761E+00  0.23610465446E+02 -0.12563498676E+02  0.98342020088E+02  0.94634552282E+02 0.  0.
         13    1    3    3    0    0  0.31378845930E+02 -0.16068138044E+02 -0.28212477879E+02  0.45152764082E+02  0.10566000000E+00 0.  1.
         22    1    1    0    0    0  0.39856216761E+00 -0.23610465446E+02  0.12563498676E+02  0.26747979912E+02  0.00000000000E+00 0. -1.
</event>
<event>
 5    1  0.1262391E-009  0.9118800E+02  0.7815553E-02  0.1125453E+00
         25   -1    0    0    0    0  0.00000000000E+00  0.00000000000E+00  0.99999998245E-14  0.12509000000E+03  0.12509000000E+03 0.  0.
        -13    1    3    3    0    0 -0.58612801359E+02  0.14265232460E+01 -0.10766270295E+02  0.59610562754E+02  0.10566000000E+00 0. -1.
         23    2    1    0    0    0 -0.26677818284E+02  0.12578856563E+02  0.14097257261E+01  0.95561692438E+02  0.90885180939E+02 0.  0.
         13    1    3    3    0    0  0.31934983075E+02  0.11152333317E+02  0.12175996021E+02  0.35951129684E+02  0.10566000000E+00 0.  1.
         22    1    1    0    0    0  0.26677818284E+02 -0.12578856563E+02 -0.14097257261E+01  0.29528307562E+02  0.00000000000E+00 0. -1.
</event>
<event>
 5    1  0.1262391E-009  0.9118800E+02  0.7815553E-02  0.1125453E+00
         25   -1    0    0    0    0  0.00000000000E+00  0.00000000000E+00  0.99999998245E-14  0.12509000000E+03  0.12509000000E+03 0.  0.
        -13    1    3    3    0    0 -0.25295138238E+02  0.33132601795E+02  0.31120130272E+02  0.52020063364E+02  0.10566000000E+00 0.  1.
         23    2    1    0    0    0 -0.17562344073E+02  0.23636200275E+02 -0.92640738224E+01  0.94220452601E+02  0.89020024331E+02 0.  0.
         13    1    3    3    0    0  0.77327941650E+01 -0.94964015201E+01 -0.40384204094E+02  0.42200389237E+02  0.10566000000E+00 0. -1.
         22    1    1    0    0    0  0.17562344073E+02 -0.23636200275E+02  0.92640738224E+01  0.30869547399E+02  0.00000000000E+00 0.  1.
</event>
<event>
 5    1  0.1262391E-009  0.9118800E+02  0.7815553E-02  0.1125453E+00
         25   -1    0    0    0    0  0.00000000000E+00  0.00000000000E+00  0.99999998245E-14  0.12509000000E+03  0.12509000000E+03 0.  0.
        -13    1    3    3    0    0  0.28988586119E+02  0.44233170604E+02 -0.90904934126E+01  0.53661529436E+02  0.10566000000E+00 0. -1.
         23    2    1    0    0    0 -0.97472433914E+01  0.22414036299E+02  0.46810827718E+01  0.10020405391E+03  0.97064628506E+02 0.  0.
         13    1    3    3    0    0 -0.38735829510E+02 -0.21819134306E+02  0.13771576184E+02  0.46542524473E+02  0.10566000000E+00 0.  1.
         22    1    1    0    0    0  0.97472433914E+01 -0.22414036299E+02 -0.46810827718E+01  0.24885946091E+02  0.00000000000E+00 0. -1.
</event>
<event>
 5    1  0.1262391E-009  0.9118800E+02  0.7815553E-02  0.1125453E+00
         25   -1    0    0    0    0  0.00000000000E+00  0.00000000000E+00  0.99999998245E-14  0.12509000000E+03  0.12509000000E+03 0.  0.
        -13    1    3    3    0    0 -0.23569419296E+02  0.75788327354E+01  0.51430657083E+01  0.25286726172E+02  0.10566000000E+00 0. -1.
         23    2    1    0    0    0  0.21127709371E+02 -0.29831139504E+02  0.17012855376E+02  0.84769853232E+02  0.74566841032E+02 0.  0.
         13    1    3    3    0    0  0.44697128667E+02 -0.37409972239E+02  0.11869789668E+02  0.59483127060E+02  0.10566000000E+00 0.  1.
         22    1    1    0    0    0 -0.21127709371E+02  0.29831139504E+02 -0.17012855376E+02  0.40320146768E+02  0.00000000000E+00 0.  1.
</event>
<event>
 5    1  0.1262391E-009  0.9118800E+02  0.7815553E-02  0.1125453E+00
         25   -1    0    0    0    0  0.00000000000E+00  0.00000000000E+00  0.99999998245E-14  0.12509000000E+03  0.12509000000E+03 0.  0.
        -13    1    3    3    0    0  0.20158222136E+02 -0.28810187484E+02 -0.21941082265E+02  0.41446387991E+02  0.10566000000E+00 0. -1.
         23    2    1    0    0    0  0.27885952568E+02  0.38163202033E+01  0.16506893101E+02  0.92460746708E+02  0.86511973225E+02 0.  0.
         13    1    3    3    0    0  0.77277304321E+01  0.32626507687E+02  0.38447975366E+02  0.51014358717E+02  0.10566000000E+00 0.  1.
         22    1    1    0    0    0 -0.27885952568E+02 -0.38163202033E+01 -0.16506893101E+02  0.32629253292E+02  0.00000000000E+00 0.  1.
</event>
<event>
 5    1  0.1262391E-009  0.9118800E+02  0.7815553E-02  0.1125453E+00
         25   -1    0    0    0    0  0.00000000000E+00  0.00000000000E+00  0.99999998245E-14  0.12509000000E+03  0.12509000000E+03 0.  0.
        -13    1    3    3    0    0  0.59025136007E+02  0.14206209189E+02 -0.11448983065E+02  0.61780850086E+02  0.10566000000E+00 0.  1.
         23    2    1    0    0    0  0.26382829674E+02  0.12974080944E+02 -0.28984301322E+01  0.95547126491E+02  0.90865130856E+02 0.  0.
         13    1    3    3    0    0 -0.32642306333E+02 -0.12321282452E+01  0.85505529332E+01  0.33766276405E+02  0.10566000000E+00 0. -1.
         22    1    1    0    0    0 -0.26382829674E+02 -0.12974080944E+02  0.28984301322E+01  0.29542873509E+02  0.00000000000E+00 0.  1.
</event>
<event>
 5    1  0.1262391E-009  0.9118800E+02  0.7815553E-02  0.1125453E+00
         25   -1    0    0    0    0  0.00000000000E+00  0.00000000000E+00  0.99999998245E-14  0.12509000000E+03  0.12509000000E+03 0.  0.
        -13    1    3    3    0    0  0.44045346669E+02 -0.32898738927E+02 -0.22727143009E+01  0.55022686053E+02  0.10566000000E+00 0. -1.
         23    2    1    0    0    0  0.11491096646E+02 -0.18177629608E+02 -0.20715630184E+02  0.95230179937E+02  0.90427751916E+02 0.  0.
         13    1    3    3    0    0 -0.32554250023E+02  0.14721109319E+02 -0.18442915883E+02  0.40207493884E+02  0.10566000000E+00 0.  1.
         22    1    1    0    0    0 -0.11491096646E+02  0.18177629608E+02  0.20715630184E+02  0.29859820063E+02  0.00000000000E+00 0.  1.
</event>
<event>
 5    1  0.1262391E-009  0.9118800E+02  0.7815553E-02  0.1125453E+00
         25   -1    0    0    0    0  0.00000000000E+00  0.00000000000E+00  0.99999998245E-14  0.12509000000E+03  0.12509000000E+03 0.  0.
        -13    1    3    3    0    0 -0.29731548512E+02  0.26093311894E+02 -0.37269868359E+01  0.39733203966E+02  0.10566000000E+00 0.  1.
         23    2    1    0    0    0  0.91700602510E+01 -0.84555695378E+01 -0.25941276519E+02  0.96305690235E+02  0.91903479167E+02 0.  0.
         13    1    3    3    0    0  0.38901608763E+02 -0.34548881431E+02 -0.22214289683E+02  0.56572486269E+02  0.10566000000E+00 0. -1.
         22    1    1    0    0    0 -0.91700602510E+01  0.84555695378E+01  0.25941276519E+02  0.28784309765E+02  0.00000000000E+00 0. -1.
</event>
<event>
 5    1  0.1262391E-009  0.9118800E+02  0.7815553E-02  0.1125453E+00
         25   -1    0    0    0    0  0.00000000000E+00  0.00000000000E+00  0.99999998245E-14  0.12509000000E+03  0.12509000000E+03 0.  0.
        -13    1    3    3    0    0 -0.51169502968E+02  0.22324808262E+01  0.23390409267E+02  0.56306521952E+02  0.10566000000E+00 0.  1.
         23    2    1    0    0    0 -0.25092250603E+02  0.15730161433E+02 -0.23860425249E+01  0.95378853641E+02  0.90633181032E+02 0.  0.
         13    1    3    3    0    0  0.26077252364E+02  0.13497680607E+02 -0.25776451792E+02  0.39072331689E+02  0.10566000000E+00 0. -1.
         22    1    1    0    0    0  0.25092250603E+02 -0.15730161433E+02  0.23860425249E+01  0.29711146359E+02  0.00000000000E+00 0.  1.
</event>
<event>
 5    1  0.1262391E-009  0.9118800E+02  0.7815553E-02  0.1125453E+00
         25   -1    0    0    0    0  0.00000000000E+00  0.00000000000E+00  0.99999998245E-14  0.12509000000E+03  0.12509000000E+03 0.  0.
        -13    1    3    3    0    0 -0.22325919795E+02  0.34285634070E+02  0.14530080424E+02  0.43417574776E+02  0.10566000000E+00 0.  1.
         23    2    1    0    0    0 -0.32326704492E+00  0.80774993810E+01 -0.26812642786E+02  0.97085209142E+02  0.92958429005E+02 0.  0.
         13    1    3    3    0    0  0.22002652750E+02 -0.26208134689E+02 -0.41342723210E+02  0.53667634365E+02  0.10566000000E+00 0. -1.
         22    1    1    0    0    0  0.32326704492E+00 -0.80774993810E+01  0.26812642786E+02  0.28004790858E+02  0.00000000000E+00 0. -1.
</event>
<event>
 5    1  0.1262391E-009  0.9118800E+02  0.7815553E-02  0.1125453E+00
         25   -1    0    0    0    0  0.00000000000E+00  0.00000000000E+00  0.99999998245E-14  0.12509000000E+03  0.12509000000E+03 0.  0.
        -13    1    3    3    0    0  0.50679195739E+02  0.25648669271E+02  0.77347682394E+01  0.57324278625E+02  0.10566000000E+00 0.  1.
         23    2    1    0    0    0  0.25063388837E+02 -0.26411938708E+01  0.14396961051E+02  0.96065495654E+02  0.91575966294E+02 0.  0.
         13    1    3    3    0    0 -0.25615806902E+02 -0.28289863141E+02  0.66621928119E+01  0.38741217029E+02  0.10566000000E+00 0. -1.
         22    1    1    0    0    0 -0.25063388837E+02  0.26411938708E+01 -0.14396961051E+02  0.29024504346E+02  0.00000000000E+00 0.  1.
</event>
<event>
 5    1  0.1262391E-009  0.9118800E+02  0.7815553E-02  0.1125453E+00
         25   -1    0    0    0    0  0.00000000000E+00  0.00000000000E+00  0.99999998245E-14  0.12509000000E+03  0.12509000000E+03 0.  0.
        -13    1    3    3    0    0  0.22911957162E+02  0.34235516422E+02 -0.18433748895E+02  0.45131392933E+02  0.10566000000E+00 0.  1.
         23    2    1    0    0    0 -0.53274299834E+01 -0.32186066183E+01 -0.30821125227E+02  0.93646674809E+02  0.88210073142E+02 0.  0.
         13    1    3    3    0    0 -0.28239387146E+02 -0.37454123040E+02 -0.12387376333E+02  0.48515281876E+02  0.10566000000E+00 0. -1.
         22    1    1    0    0    0  0.53274299834E+01  0.32186066183E+01  0.30821125227E+02  0.31443325191E+02  0.00000000000E+00 0. -1.
</event>
<event>
 5    1  0.1262391E-009  0.9118800E+02  0.7815553E-02  0.1125453E+00
         25   -1    0    0    0    0  0.00000000000E+00  0.00000000000E+00  0.99999998245E-14  0.12509000000E+03  0.12509000000E+03 0.  0.
        -13    1    3    3    0    0 -0.47431112225E+02 -0.36644018883E+02 -0.13613600629E+02  0.61464101823E+02  0.10566000000E+00 0. -1.
         23    2    1    0    0    0 -0.21516122960E+02 -0.22090094468E+02  0.23002904096E+00  0.94252219045E+02  0.89064651017E+02 0.  0.
         13    1    3    3    0    0  0.25914989265E+02  0.14553924415E+02  0.13843629670E+02  0.32788117222E+02  0.10566000000E+00 0.  1.
         22    1    1    0    0    0  0.21516122960E+02  0.22090094468E+02 -0.23002904096E+00  0.30837780955E+02  0.00000000000E+00 0. -1.
</event>
<event>
 5    1  0.1262391E-009  0.9118800E+02  0.7815553E-02  0.1125453E+00
         25   -1    0    0    0    0  0.00000000000E+00  0.00000000000E+00  0.99999998245E-14  0.12509000000E+03  0.12509000000E+03 0.  0.
        -13    1    3    3    0    0 -0.36403804067E+02 -0.25783960095E+02 -0.25254006821E+02  0.51262321185E+02  0.10566000000E+00 0.  1.
         23    2    1    0    0    0 -0.91927678098E+01 -0.24957231938E+02  0.10752594791E+02  0.96402220359E+02  0.92034772718E+02 0.  0.
         13    1    3    3    0    0  0.27211036257E+02  0.82672815745E+00  0.36006601612E+02  0.45139899173E+02  0.10566000000E+00 0. -1.
         22    1    1    0    0    0  0.91927678098E+01  0.24957231938E+02 -0.10752594791E+02  0.28687779641E+02  0.00000000000E+00 0.  1.
</event>
<event>
 5    1  0.1262391E-009  0.9118800E+02  0.7815553E-02  0.1125453E+00
         25   -1    0    0    0    0  0.00000000000E+00  0.00000000000E+00  0.99999998245E-14  0.12509000000E+03  0.12509000000E+03 0.  0.
        -13    1    3    3    0    0 -0.13104909989E+02 -0.34393931752E+02  0.29422534128E+01  0.36923559232E+02  0.10566000000E+00 0. -1.
         23    2    1    0    0    0  0.28589890546E+02  0.19682090809E+01  0.13768881135E+02  0.93296324903E+02  0.87711837652E+02 0.  0.
         13    1    3    3    0    0  0.41694800535E+02  0.36362140833E+02  0.10826627722E+02  0.56372765672E+02  0.10566000000E+00 0.  1.
         22    1    1    0    0    0 -0.28589890546E+02 -0.19682090809E+01 -0.13768881135E+02  0.31793675097E+02  0.00000000000E+00 0.  1.
</event>
<event>
 5    1  0.1262391E-009  0.9118800E+02  0.7815553E-02  0.1125453E+00
         25   -1    0    0    0    0  0.00000000000E+00  0.00000000000E+00  0.99999998245E-14  0.12509000000E+03  0.12509000000E+03 0.  0.
        -13    1    3    3    0    0 -0.20967048786E+02 -0.52781017510E+02  0.58203552798E+01  0.57090635343E+02  0.10566000000E+00 0. -1.
         23    2    1    0    0    0 -0.22564970164E+02 -0.10586399093E+02  0.65386143361E+01  0.99321740421E+02  0.95920826303E+02 0.  0.
         13    1    3    3    0    0 -0.15979213783E+01  0.42194618417E+02  0.71825905632E+00  0.42231105079E+02  0.10566000000E+00 0.  1.
         22    1    1    0    0    0  0.22564970164E+02  0.10586399093E+02 -0.65386143361E+01  0.25768259579E+02  0.00000000000E+00 0. -1.
</event>
<event>
 4    1  0.1262391E-009  0.9118800E+02  0.7815553E-02  0.1125453E+00
         25   -1    0    0    0    0  0.00000000000E+00  0.00000000000E+00  0.99999998245E-14  0.12509000000E+03  0.12509000000E+03 0.  0.
        -13    1    1    0    0    0 -0.32738125925E+02  0.16501962737E+02 -0.31397621425E+02  0.48269259974E+02  0.10566000000E+00 0.  1.
         13    1    1    0    0    0 -0.12744039022E+02 -0.33393433589E+01 -0.78366009538E+01  0.15329227743E+02  0.10566000000E+00 0. -1.
         22    1    1    0    0    0  0.45482164947E+02 -0.13162619378E+02  0.39234222379E+02  0.61491512283E+02  0.00000000000E+00 0.  1.
</event>
<event>
 5    1  0.1262391E-009  0.9118800E+02  0.7815553E-02  0.1125453E+00
         25   -1    0    0    0    0  0.00000000000E+00  0.00000000000E+00  0.99999998245E-14  0.12509000000E+03  0.12509000000E+03 0.  0.
        -13    1    3    3    0    0 -0.87536627040E+01 -0.50321394778E+01  0.33991239540E+02  0.35459336823E+02  0.10566000000E+00 0.  1.
         23    2    1    0    0    0  0.31095889494E+02  0.39146831771E+01 -0.66218249331E+01  0.93056772669E+02  0.87369532941E+02 0.  0.
         13    1    3    3    0    0  0.39849552198E+02  0.89468226549E+01 -0.40613064473E+02  0.57597435845E+02  0.10566000000E+00 0. -1.
         22    1    1    0    0    0 -0.31095889494E+02 -0.39146831771E+01  0.66218249331E+01  0.32033227331E+02  0.00000000000E+00 0. -1.
</event>
<event>
 5    1  0.1262391E-009  0.9118800E+02  0.7815553E-02  0.1125453E+00
         25   -1    0    0    0    0  0.00000000000E+00  0.00000000000E+00  0.99999998245E-14  0.12509000000E+03  0.12509000000E+03 0.  0.
        -13    1    3    3    0    0  0.26453172122E+02 -0.31294674879E+02  0.31106925290E+02  0.51446855648E+02  0.10566000000E+00 0. -1.
         23    2    1    0    0    0  0.30071956524E+02 -0.70514490031E+00  0.30494842213E+02  0.82255957462E+02  0.70223125378E+02 0.  0.
         13    1    3    3    0    0  0.36187844027E+01  0.30589529978E+02 -0.61208307682E+00  0.30809101814E+02  0.10566000000E+00 0.  1.
         22    1    1    0    0    0 -0.30071956524E+02  0.70514490031E+00 -0.30494842213E+02  0.42834042538E+02  0.00000000000E+00 0. -1.
</event>
<event>
 5    1  0.1262391E-009  0.9118800E+02  0.7815553E-02  0.1125453E+00
         25   -1    0    0    0    0  0.00000000000E+00  0.00000000000E+00  0.99999998245E-14  0.12509000000E+03  0.12509000000E+03 0.  0.
        -13    1    3    3    0    0 -0.26173374313E+02  0.29796404051E+02  0.36405650428E+02  0.53835432239E+02  0.10566000000E+00 0. -1.
         23    2    1    0    0    0  0.77328445360E+01  0.17447663845E+02  0.28522588706E+02  0.90771551248E+02  0.84034032339E+02 0.  0.
         13    1    3    3    0    0  0.33906218849E+02 -0.12348740206E+02 -0.78830617224E+01  0.36936119009E+02  0.10566000000E+00 0.  1.
         22    1    1    0    0    0 -0.77328445360E+01 -0.17447663845E+02 -0.28522588706E+02  0.34318448752E+02  0.00000000000E+00 0. -1.
</event>
<event>
 5    1  0.1262391E-009  0.9118800E+02  0.7815553E-02  0.1125453E+00
         25   -1    0    0    0    0  0.00000000000E+00  0.00000000000E+00  0.99999998245E-14  0.12509000000E+03  0.12509000000E+03 0.  0.
        -13    1    3    3    0    0 -0.32978471335E+02  0.37549911636E+02  0.30846946532E+02  0.58729215131E+02  0.10566000000E+00 0. -1.
         23    2    1    0    0    0 -0.25565067889E+02  0.59465292019E+01  0.12479418173E+02  0.96026796742E+02  0.91523089485E+02 0.  0.
         13    1    3    3    0    0  0.74134034465E+01 -0.31603382434E+02 -0.18367528359E+02  0.37297581611E+02  0.10566000000E+00 0.  1.
         22    1    1    0    0    0  0.25565067889E+02 -0.59465292019E+01 -0.12479418173E+02  0.29063203258E+02  0.00000000000E+00 0. -1.
</event>
<event>
 5    1  0.1262391E-009  0.9118800E+02  0.7815553E-02  0.1125453E+00
         25   -1    0    0    0    0  0.00000000000E+00  0.00000000000E+00  0.99999998245E-14  0.12509000000E+03  0.12509000000E+03 0.  0.
        -13    1    3    3    0    0  0.23260020733E+02  0.39288104390E+02 -0.10774951157E+01  0.45670076317E+02  0.10566000000E+00 0.  1.
         23    2    1    0    0    0  0.88546255006E+01 -0.12282791576E+01  0.26747247337E+02  0.96888434395E+02  0.92693259825E+02 0.  0.
         13    1    3    3    0    0 -0.14405395233E+02 -0.40516383547E+02  0.27824742453E+02  0.51218358078E+02  0.10566000000E+00 0. -1.
         22    1    1    0    0    0 -0.88546255006E+01  0.12282791576E+01 -0.26747247337E+02  0.28201565605E+02  0.00000000000E+00 0. -1.
</event>
<event>
 5    1  0.1262391E-009  0.9118800E+02  0.7815553E-02  0.1125453E+00
         25   -1    0    0    0    0  0.00000000000E+00  0.00000000000E+00  0.99999998245E-14  0.12509000000E+03  0.12509000000E+03 0.  0.
        -13    1    3    3    0    0  0.20500777321E+02 -0.31671229423E+02 -0.19759653068E+02  0.42588774311E+02  0.10566000000E+00 0.  1.
         23    2    1    0    0    0 -0.26381586178E+02 -0.83951781829E+01 -0.51740012649E+01  0.96925529562E+02  0.92743306420E+02 0.  0.
         13    1    3    3    0    0 -0.46882363499E+02  0.23276051240E+02  0.14585651803E+02  0.54336755250E+02  0.10566000000E+00 0. -1.
         22    1    1    0    0    0  0.26381586178E+02  0.83951781829E+01  0.51740012649E+01  0.28164470438E+02  0.00000000000E+00 0. -1.
</event>
<event>
 5    1  0.1262391E-009  0.9118800E+02  0.7815553E-02  0.1125453E+00
         25   -1    0    0    0    0  0.00000000000E+00  0.00000000000E+00  0.99999998245E-14  0.12509000000E+03  0.12509000000E+03 0.  0.
        -13    1    3    3    0    0  0.16735299210E+02  0.22507319717E+02 -0.77361369795E+01  0.29094821875E+02  0.10566000000E+00 0. -1.
         23    2    1    0    0    0 -0.29407623775E+02 -0.13726073225E+02  0.11222899664E+02  0.90751000318E+02  0.84003435403E+02 0.  0.
         13    1    3    3    0    0 -0.46142922985E+02 -0.36233392942E+02  0.18959036644E+02  0.61656178443E+02  0.10566000000E+00 0.  1.
         22    1    1    0    0    0  0.29407623775E+02  0.13726073225E+02 -0.11222899664E+02  0.34338999682E+02  0.00000000000E+00 0.  1.
</event>
<event>
 5    1  0.1262391E-009  0.9118800E+02  0.7815553E-02  0.1125453E+00
         25   -1    0    0    0    0  0.00000000000E+00  0.00000000000E+00  0.99999998245E-14  0.12509000000E+03  0.12509000000E+03 0.  0.
        -13    1    3    3    0    0  0.41807785317E+02 -0.24654560100E+02  0.35131970909E+02  0.59916648695E+02  0.10566000000E+00 0. -1.
         23    2    1    0    0    0  0.13694318386E+02 -0.22936941116E+02  0.17825033353E+02  0.92975058962E+02  0.87252462149E+02 0.  0.
         13    1    3    3    0    0 -0.28113466931E+02  0.17176189843E+01 -0.17306937555E+02  0.33058410267E+02  0.10566000000E+00 0.  1.
         22    1    1    0    0    0 -0.13694318386E+02  0.22936941116E+02 -0.17825033353E+02  0.32114941038E+02  0.00000000000E+00 0. -1.
</event>
<event>
 5    1  0.1262391E-009  0.9118800E+02  0.7815553E-02  0.1125453E+00
         25   -1    0    0    0    0  0.00000000000E+00  0.00000000000E+00  0.99999998245E-14  0.12509000000E+03  0.12509000000E+03 0.  0.
        -13    1    3    3    0    0  0.23265826525E+02 -0.13676145128E+02  0.37315079252E+02  0.46051731054E+02  0.10566000000E+00 0.  1.
         23    2    1    0    0    0 -0.19929045616E+02  0.63555881484E+01  0.18212212279E+02  0.97354732993E+02  0.93320410416E+02 0.  0.
         13    1    3    3    0    0 -0.43194872140E+02  0.20031733277E+02 -0.19102866974E+02  0.51303001939E+02  0.10566000000E+00 0. -1.
         22    1    1    0    0    0  0.19929045616E+02 -0.63555881484E+01 -0.18212212279E+02  0.27735267007E+02  0.00000000000E+00 0. -1.
</event>
<event>
 5    1  0.1262391E-009  0.9118800E+02  0.7815553E-02  0.1125453E+00
         25   -1    0    0    0    0  0.00000000000E+00  0.00000000000E+00  0.99999998245E-14  0.12509000000E+03  0.12509000000E+03 0.  0.
        -13    1    3    3    0    0 -0.17046960848E+02 -0.39488005898E+02  0.97590785310E+01  0.44103880348E+02  0.10566000000E+00 0.  1.
         23    2    1    0    0    0 -0.19896219377E+02  0.95455499294E+01  0.21149834112E+02  0.94523800499E+02  0.89445269908E+02 0.  0.
         13    1    3    3    0    0 -0.28492585291E+01  0.49033555828E+02  0.11390755581E+02  0.50419920151E+02  0.10566000000E+00 0. -1.
         22    1    1    0    0    0  0.19896219377E+02 -0.95455499294E+01 -0.21149834112E+02  0.30566199501E+02  0.00000000000E+00 0. -1.
</event>
<event>
 5    1  0.1262391E-009  0.9118800E+02  0.7815553E-02  0.1125453E+00
         25   -1    0    0    0    0  0.00000000000E+00  0.00000000000E+00  0.99999998245E-14  0.12509000000E+03  0.12509000000E+03 0.  0.
        -13    1    3    3    0    0  0.51124939255E+02 -0.17181330739E+02 -0.15193378227E+02  0.56033984740E+02  0.10566000000E+00 0.  1.
         23    2    1    0    0    0  0.21770458946E+02 -0.16142410278E+02  0.11429049756E+02  0.95676508697E+02  0.91043071378E+02 0.  0.
         13    1    3    3    0    0 -0.29354480309E+02  0.10389204614E+01  0.26622427983E+02  0.39642523957E+02  0.10566000000E+00 0. -1.
         22    1    1    0    0    0 -0.21770458946E+02  0.16142410278E+02 -0.11429049756E+02  0.29413491303E+02  0.00000000000E+00 0.  1.
</event>
<event>
 5    1  0.1262391E-009  0.9118800E+02  0.7815553E-02  0.1125453E+00
         25   -1    0    0    0    0  0.00000000000E+00  0.00000000000E+00  0.99999998245E-14  0.12509000000E+03  0.12509000000E+03 0.  0.
        -13    1    3    3    0    0 -0.69637833413E+01  0.26356746322E+02 -0.29167418559E+02  0.39923950513E+02  0.10566000000E+00 0.  1.
         23    2    1    0    0    0  0.67872830668E+01 -0.24611182651E+02 -0.17918095713E+02  0.93899686169E+02  0.88568139789E+02 0.  0.
         13    1    3    3    0    0  0.13751066408E+02 -0.50967928972E+02  0.11249322847E+02  0.53975735656E+02  0.10566000000E+00 0. -1.
         22    1    1    0    0    0 -0.67872830668E+01  0.24611182651E+02  0.17918095713E+02  0.31190313831E+02  0.00000000000E+00 0.  1.
</event>
<event>
 5    1  0.1262391E-009  0.9118800E+02  0.7815553E-02  0.1125453E+00
         25   -1    0    0    0    0  0.00000000000E+00  0.00000000000E+00  0.99999998245E-14  0.12509000000E+03  0.12509000000E+03 0.  0.
        -13    1    3    3    0    0  0.45979338672E+02  0.23406067193E+02  0.21116736277E+02  0.55748285007E+02  0.10566000000E+00 0.  1.
         23    2    1    0    0    0  0.23708456696E+02  0.99705475187E+01 -0.11034578189E+02  0.97103134286E+02  0.92982546941E+02 0.  0.
         13    1    3    3    0    0 -0.22270881977E+02 -0.13435519674E+02 -0.32151314466E+02  0.41354849279E+02  0.10566000000E+00 0. -1.
         22    1    1    0    0    0 -0.23708456696E+02 -0.99705475187E+01  0.11034578189E+02  0.27986865714E+02  0.00000000000E+00 0.  1.
</event>
<event>
 5    1  0.1262391E-009  0.9118800E+02  0.7815553E-02  0.1125453E+00
         25   -1    0    0    0    0  0.00000000000E+00  0.00000000000E+00  0.99999998245E-14  0.12509000000E+03  0.12509000000E+03 0.  0.
        -13    1    3    3    0    0 -0.43231264242E+02  0.54329987029E+01 -0.89075975483E+01  0.44472644861E+02  0.10566000000E+00 0.  1.
         23    2    1    0    0    0  0.31127300283E+00 -0.13724871736E+02 -0.26542754449E+02  0.95207115119E+02  0.90395840394E+02 0.  0.
         13    1    3    3    0    0  0.43542537244E+02 -0.19157870438E+02 -0.17635156901E+02  0.50734470258E+02  0.10566000000E+00 0. -1.
         22    1    1    0    0    0 -0.31127300283E+00  0.13724871736E+02  0.26542754449E+02  0.29882884881E+02  0.00000000000E+00 0.  1.
</event>
<event>
 5    1  0.1262391E-009  0.9118800E+02  0.7815553E-02  0.1125453E+00
         25   -1    0    0    0    0  0.00000000000E+00  0.00000000000E+00  0.99999998245E-14  0.12509000000E+03  0.12509000000E+03 0.  0.
        -13    1    3    3    0    0  0.18628950301E+01 -0.28982989875E+02 -0.46771311599E+02  0.55054980090E+02  0.10566000000E+00 0. -1.
         23    2    1    0    0    0 -0.10478209689E+02 -0.25995510786E+02 -0.78671340982E+01  0.95978983902E+02  0.91457717513E+02 0.  0.
         13    1    3    3    0    0 -0.12341104719E+02  0.29874790894E+01  0.38904177500E+02  0.40924003812E+02  0.10566000000E+00 0.  1.
         22    1    1    0    0    0  0.10478209689E+02  0.25995510786E+02  0.78671340982E+01  0.29111016098E+02  0.00000000000E+00 0. -1.
</event>
<event>
 5    1  0.1262391E-009  0.9118800E+02  0.7815553E-02  0.1125453E+00
         25   -1    0    0    0    0  0.00000000000E+00  0.00000000000E+00  0.99999998245E-14  0.12509000000E+03  0.12509000000E+03 0.  0.
        -13    1    3    3    0    0  0.51112148554E+02  0.31680421725E+02 -0.45069227176E+01  0.60302772464E+02  0.10566000000E+00 0.  1.
         23    2    1    0    0    0  0.21892352106E+02  0.16090613127E+02  0.95634954490E+01  0.96286469718E+02  0.91877314360E+02 0.  0.
         13    1    3    3    0    0 -0.29219796448E+02 -0.15589808598E+02  0.14070418167E+02  0.35983697253E+02  0.10566000000E+00 0. -1.
         22    1    1    0    0    0 -0.21892352106E+02 -0.16090613127E+02 -0.95634954490E+01  0.28803530282E+02  0.00000000000E+00 0.  1.
</event>
<event>
 5    1  0.1262391E-009  0.9118800E+02  0.7815553E-02  0.1125453E+00
         25   -1    0    0    0    0  0.00000000000E+00  0.00000000000E+00  0.99999998245E-14  0.12509000000E+03  0.12509000000E+03 0.  0.
        -13    1    3    3    0    0  0.52827015532E+02  0.24454888961E+02 -0.19177360353E+00  0.58213255408E+02  0.10566000000E+00 0.  1.
         23    2    1    0    0    0  0.25058296701E+02  0.47069299723E+01 -0.15155782504E+02  0.95429063288E+02  0.90702452852E+02 0.  0.
         13    1    3    3    0    0 -0.27768718831E+02 -0.19747958988E+02 -0.14964008901E+02  0.37215807880E+02  0.10566000000E+00 0. -1.
         22    1    1    0    0    0 -0.25058296701E+02 -0.47069299723E+01  0.15155782504E+02  0.29660936712E+02  0.00000000000E+00 0.  1.
</event>
<event>
 5    1  0.1262391E-009  0.9118800E+02  0.7815553E-02  0.1125453E+00
         25   -1    0    0    0    0  0.00000000000E+00  0.00000000000E+00  0.99999998245E-14  0.12509000000E+03  0.12509000000E+03 0.  0.
        -13    1    3    3    0    0  0.77423785520E+00 -0.35001468953E+02 -0.32300316872E+02  0.47634272401E+02  0.10566000000E+00 0.  1.
         23    2    1    0    0    0  0.80284181115E+01 -0.23925284256E+02  0.14303139038E+02  0.96082164672E+02  0.91598732838E+02 0.  0.
         13    1    3    3    0    0  0.72541802563E+01  0.11076184697E+02  0.46603455910E+02  0.48447892270E+02  0.10566000000E+00 0. -1.
         22    1    1    0    0    0 -0.80284181115E+01  0.23925284256E+02 -0.14303139038E+02  0.29007835328E+02  0.00000000000E+00 0. -1.
</event>
<event>
 5    1  0.1262391E-009  0.9118800E+02  0.7815553E-02  0.1125453E+00
         25   -1    0    0    0    0  0.00000000000E+00  0.00000000000E+00  0.99999998245E-14  0.12509000000E+03  0.12509000000E+03 0.  0.
        -13    1    3    3    0    0  0.15462050148E+02  0.88878252051E+01  0.52380036495E+02  0.55333062620E+02  0.10566000000E+00 0.  1.
         23    2    1    0    0    0 -0.49382636821E+01  0.21310328017E+02  0.21026594037E+02  0.94748045792E+02  0.89758331068E+02 0.  0.
         13    1    3    3    0    0 -0.20400313830E+02  0.12422502812E+02 -0.31353442458E+02  0.39414983172E+02  0.10566000000E+00 0. -1.
         22    1    1    0    0    0  0.49382636821E+01 -0.21310328017E+02 -0.21026594037E+02  0.30341954208E+02  0.00000000000E+00 0.  1.
</event>
<event>
 5    1  0.1262391E-009  0.9118800E+02  0.7815553E-02  0.1125453E+00
         25   -1    0    0    0    0  0.00000000000E+00  0.00000000000E+00  0.99999998245E-14  0.12509000000E+03  0.12509000000E+03 0.  0.
        -13    1    3    3    0    0  0.47191519601E+01  0.44711243652E+01 -0.40298821339E+02  0.40819940148E+02  0.10566000000E+00 0.  1.
         23    2    1    0    0    0 -0.27414040505E+01  0.28071251804E+02  0.85805356777E+01  0.95608886274E+02  0.90950113073E+02 0.  0.
         13    1    3    3    0    0 -0.74605560106E+01  0.23600127439E+02  0.48879357017E+02  0.54788946126E+02  0.10566000000E+00 0. -1.
         22    1    1    0    0    0  0.27414040505E+01 -0.28071251804E+02 -0.85805356777E+01  0.29481113726E+02  0.00000000000E+00 0. -1.
</event>
<event>
 5    1  0.1262391E-009  0.9118800E+02  0.7815553E-02  0.1125453E+00
         25   -1    0    0    0    0  0.00000000000E+00  0.00000000000E+00  0.99999998245E-14  0.12509000000E+03  0.12509000000E+03 0.  0.
        -13    1    3    3    0    0 -0.39881129072E+02  0.25766998942E+02  0.16791265068E+02  0.50362688939E+02  0.10566000000E+00 0.  1.
         23    2    1    0    0    0 -0.19164807431E+02 -0.13854232521E+02  0.18438178465E+02  0.95103402532E+02  0.90252208535E+02 0.  0.
         13    1    3    3    0    0  0.20716321641E+02 -0.39621231463E+02  0.16469133970E+01  0.44740713593E+02  0.10566000000E+00 0. -1.
         22    1    1    0    0    0  0.19164807431E+02  0.13854232521E+02 -0.18438178465E+02  0.29986597468E+02  0.00000000000E+00 0. -1.
</event>
<event>
 5    1  0.1262391E-009  0.9118800E+02  0.7815553E-02  0.1125453E+00
         25   -1    0    0    0    0  0.00000000000E+00  0.00000000000E+00  0.99999998245E-14  0.12509000000E+03  0.12509000000E+03 0.  0.
        -13    1    3    3    0    0  0.24923827692E+02 -0.90116333129E+01 -0.15964634337E+02  0.30940061980E+02  0.10566000000E+00 0.  1.
         23    2    1    0    0    0 -0.22401849433E+02 -0.22588131603E+02  0.15837711612E+02  0.89552700490E+02  0.82199674626E+02 0.  0.
         13    1    3    3    0    0 -0.47325677125E+02 -0.13576498291E+02  0.31802345949E+02  0.58612638510E+02  0.10566000000E+00 0. -1.
         22    1    1    0    0    0  0.22401849433E+02  0.22588131603E+02 -0.15837711612E+02  0.35537299510E+02  0.00000000000E+00 0. -1.
</event>
<event>
 5    1  0.1262391E-009  0.9118800E+02  0.7815553E-02  0.1125453E+00
         25   -1    0    0    0    0  0.00000000000E+00  0.00000000000E+00  0.99999998245E-14  0.12509000000E+03  0.12509000000E+03 0.  0.
        -13    1    3    3    0    0 -0.33592008291E+02  0.14082144685E+01 -0.42808532618E+02  0.54433332784E+02  0.10566000000E+00 0. -1.
         23    2    1    0    0    0  0.27352198573E+01 -0.17824868118E+01 -0.32633665851E+02  0.92293432591E+02  0.86269710013E+02 0.  0.
         13    1    3    3    0    0  0.36327228149E+02 -0.31907012803E+01  0.10174866767E+02  0.37860099807E+02  0.10566000000E+00 0.  1.
         22    1    1    0    0    0 -0.27352198573E+01  0.17824868118E+01  0.32633665851E+02  0.32796567409E+02  0.00000000000E+00 0. -1.
</event>
<event>
 5    1  0.1262391E-009  0.9118800E+02  0.7815553E-02  0.1125453E+00
         25   -1    0    0    0    0  0.00000000000E+00  0.00000000000E+00  0.99999998245E-14  0.12509000000E+03  0.12509000000E+03 0.  0.
        -13    1    3    3    0    0  0.61145294290E+02 -0.64658494901E+01 -0.10210844156E+02  0.62328378175E+02  0.10566000000E+00 0. -1.
         23    2    1    0    0    0  0.28024973868E+02 -0.42214637267E+01 -0.82035432967E+01  0.95585457317E+02  0.90917883894E+02 0.  0.
         13    1    3    3    0    0 -0.33120320422E+02  0.22443857634E+01  0.20073008591E+01  0.33257079143E+02  0.10566000000E+00 0.  1.
         22    1    1    0    0    0 -0.28024973868E+02  0.42214637267E+01  0.82035432967E+01  0.29504542683E+02  0.00000000000E+00 0. -1.
</event>
<event>
 5    1  0.1262391E-009  0.9118800E+02  0.7815553E-02  0.1125453E+00
         25   -1    0    0    0    0  0.00000000000E+00  0.00000000000E+00  0.99999998245E-14  0.12509000000E+03  0.12509000000E+03 0.  0.
        -13    1    3    3    0    0  0.14558150414E+02 -0.21337432691E+02 -0.26426417453E+02  0.36953923753E+02  0.10566000000E+00 0. -1.
         23    2    1    0    0    0  0.30198811983E+02 -0.85969531865E+01  0.20198291260E+02  0.87755742017E+02  0.79418029677E+02 0.  0.
         13    1    3    3    0    0  0.15640661569E+02  0.12740479504E+02  0.46624708713E+02  0.50801818264E+02  0.10566000000E+00 0.  1.
         22    1    1    0    0    0 -0.30198811983E+02  0.85969531865E+01 -0.20198291260E+02  0.37334257983E+02  0.00000000000E+00 0. -1.
</event>
<event>
 5    1  0.1262391E-009  0.9118800E+02  0.7815553E-02  0.1125453E+00
         25   -1    0    0    0    0  0.00000000000E+00  0.00000000000E+00  0.99999998245E-14  0.12509000000E+03  0.12509000000E+03 0.  0.
        -13    1    3    3    0    0 -0.25824295240E+02  0.46229457588E+02  0.27102290022E+02  0.59486151851E+02  0.10566000000E+00 0.  1.
         23    2    1    0    0    0 -0.12675868353E+02  0.15383150578E+02  0.25044995427E+02  0.93081083178E+02  0.87404332212E+02 0.  0.
         13    1    3    3    0    0  0.13148426887E+02 -0.30846307010E+02 -0.20572945952E+01  0.33594931327E+02  0.10566000000E+00 0. -1.
         22    1    1    0    0    0  0.12675868353E+02 -0.15383150578E+02 -0.25044995427E+02  0.32008916822E+02  0.00000000000E+00 0.  1.
</event>
<event>
 5    1  0.1262391E-009  0.9118800E+02  0.7815553E-02  0.1125453E+00
         25   -1    0    0    0    0  0.00000000000E+00  0.00000000000E+00  0.99999998245E-14  0.12509000000E+03  0.12509000000E+03 0.  0.
        -13    1    3    3    0    0  0.30068371615E+02  0.30000697547E+02  0.29426135912E-01  0.42475414710E+02  0.10566000000E+00 0.  1.
         23    2    1    0    0    0 -0.60880514799E+01 -0.12166860154E+01 -0.27016722525E+02  0.97369105504E+02  0.93339673852E+02 0.  0.
         13    1    3    3    0    0 -0.36156423095E+02 -0.31217383562E+02 -0.27046148661E+02  0.54893690793E+02  0.10566000000E+00 0. -1.
         22    1    1    0    0    0  0.60880514799E+01  0.12166860154E+01  0.27016722525E+02  0.27720894496E+02  0.00000000000E+00 0. -1.
</event>
<event>
 5    1  0.1262391E-009  0.9118800E+02  0.7815553E-02  0.1125453E+00
         25   -1    0    0    0    0  0.00000000000E+00  0.00000000000E+00  0.99999998245E-14  0.12509000000E+03  0.12509000000E+03 0.  0.
        -13    1    3    3    0    0 -0.13793988826E+02  0.40041437127E+02  0.11853886968E+02  0.43978592692E+02  0.10566000000E+00 0.  1.
         23    2    1    0    0    0 -0.99570823352E+01  0.20565703727E-01 -0.24788840997E+02  0.98376135630E+02  0.94679636205E+02 0.  0.
         13    1    3    3    0    0  0.38369064908E+01 -0.40020871423E+02 -0.36642727965E+02  0.54397542938E+02  0.10566000000E+00 0. -1.
         22    1    1    0    0    0  0.99570823352E+01 -0.20565703727E-01  0.24788840997E+02  0.26713864370E+02  0.00000000000E+00 0. -1.
</event>
<event>
 5    1  0.1262391E-009  0.9118800E+02  0.7815553E-02  0.1125453E+00
         25   -1    0    0    0    0  0.00000000000E+00  0.00000000000E+00  0.99999998245E-14  0.12509000000E+03  0.12509000000E+03 0.  0.
        -13    1    3    3    0    0  0.31480959642E+02 -0.67908464901E+01 -0.90516589279E+01  0.33453103136E+02  0.10566000000E+00 0.  1.
         23    2    1    0    0    0 -0.28169261516E+02 -0.23509132412E+00  0.79406699238E+01  0.95821983307E+02  0.91242729485E+02 0.  0.
         13    1    3    3    0    0 -0.59650221158E+02  0.65557551660E+01  0.16992328852E+02  0.62368880171E+02  0.10566000000E+00 0. -1.
         22    1    1    0    0    0  0.28169261516E+02  0.23509132412E+00 -0.79406699238E+01  0.29268016693E+02  0.00000000000E+00 0. -1.
</event>
<event>
 5    1  0.1262391E-009  0.9118800E+02  0.7815553E-02  0.1125453E+00
         25   -1    0    0    0    0  0.00000000000E+00  0.00000000000E+00  0.99999998245E-14  0.12509000000E+03  0.12509000000E+03 0.  0.
        -13    1    3    3    0    0 -0.16767528478E+00 -0.48613440046E+02  0.60195314073E+01  0.48985105803E+02  0.10566000000E+00 0. -1.
         23    2    1    0    0    0  0.23405138796E+02 -0.91234270087E+01  0.14982138151E+02  0.95841035813E+02  0.91268845942E+02 0.  0.
         13    1    3    3    0    0  0.23572814081E+02  0.39490013038E+02  0.89626067438E+01  0.46855930010E+02  0.10566000000E+00 0.  1.
         22    1    1    0    0    0 -0.23405138796E+02  0.91234270087E+01 -0.14982138151E+02  0.29248964187E+02  0.00000000000E+00 0.  1.
</event>
<event>
 5    1  0.1262391E-009  0.9118800E+02  0.7815553E-02  0.1125453E+00
         25   -1    0    0    0    0  0.00000000000E+00  0.00000000000E+00  0.99999998245E-14  0.12509000000E+03  0.12509000000E+03 0.  0.
        -13    1    3    3    0    0 -0.79186398822E+01 -0.23809236507E+02  0.23600519885E+02  0.34446774936E+02  0.10566000000E+00 0.  1.
         23    2    1    0    0    0  0.13029665987E+02  0.10204327141E+01 -0.27295473253E+02  0.94826881543E+02  0.89868131863E+02 0.  0.
         13    1    3    3    0    0  0.20948305869E+02  0.24829669221E+02 -0.50895993137E+02  0.60380106607E+02  0.10566000000E+00 0. -1.
         22    1    1    0    0    0 -0.13029665987E+02 -0.10204327141E+01  0.27295473253E+02  0.30263118457E+02  0.00000000000E+00 0. -1.
</event>
<event>
 5    1  0.1262391E-009  0.9118800E+02  0.7815553E-02  0.1125453E+00
         25   -1    0    0    0    0  0.00000000000E+00  0.00000000000E+00  0.99999998245E-14  0.12509000000E+03  0.12509000000E+03 0.  0.
        -13    1    3    3    0    0  0.31099501578E+02  0.33273566193E+02 -0.40487398661E+01  0.45724311522E+02  0.10566000000E+00 0.  1.
         23    2    1    0    0    0  0.23067449563E+02 -0.10377322768E+02  0.16763149434E+02  0.94745326067E+02  0.89754540695E+02 0.  0.
         13    1    3    3    0    0 -0.80320520148E+01 -0.43650888961E+02  0.20811889300E+02  0.49021014544E+02  0.10566000000E+00 0. -1.
         22    1    1    0    0    0 -0.23067449563E+02  0.10377322768E+02 -0.16763149434E+02  0.30344673933E+02  0.00000000000E+00 0.  1.
</event>
<event>
 5    1  0.1262391E-009  0.9118800E+02  0.7815553E-02  0.1125453E+00
         25   -1    0    0    0    0  0.00000000000E+00  0.00000000000E+00  0.99999998245E-14  0.12509000000E+03  0.12509000000E+03 0.  0.
        -13    1    3    3    0    0 -0.27648241501E+02  0.15040796958E+02  0.43353770558E+02  0.53574354097E+02  0.10566000000E+00 0.  1.
         23    2    1    0    0    0 -0.80566436703E+01  0.30519688854E+02  0.20283435302E+02  0.87569623368E+02  0.79124334273E+02 0.  0.
         13    1    3    3    0    0  0.19591597831E+02  0.15478891896E+02 -0.23070335257E+02  0.33995269271E+02  0.10566000000E+00 0. -1.
         22    1    1    0    0    0  0.80566436703E+01 -0.30519688854E+02 -0.20283435302E+02  0.37520376632E+02  0.00000000000E+00 0.  1.
</event>
<event>
 5    1  0.1262391E-009  0.9118800E+02  0.7815553E-02  0.1125453E+00
         25   -1    0    0    0    0  0.00000000000E+00  0.00000000000E+00  0.99999998245E-14  0.12509000000E+03  0.12509000000E+03 0.  0.
        -13    1    3    3    0    0 -0.33261534128E+02  0.14360227807E+02  0.15131570542E+02  0.39262213212E+02  0.10566000000E+00 0. -1.
         23    2    1    0    0    0  0.10720612074E+02 -0.17776838935E+02  0.22781246546E+02  0.94269021431E+02  0.89088246596E+02 0.  0.
         13    1    3    3    0    0  0.43982146202E+02 -0.32137066743E+02  0.76496760043E+01  0.55006808219E+02  0.10566000000E+00 0.  1.
         22    1    1    0    0    0 -0.10720612074E+02  0.17776838935E+02 -0.22781246546E+02  0.30820978569E+02  0.00000000000E+00 0.  1.
</event>
<event>
 5    1  0.1262391E-009  0.9118800E+02  0.7815553E-02  0.1125453E+00
         25   -1    0    0    0    0  0.00000000000E+00  0.00000000000E+00  0.99999998245E-14  0.12509000000E+03  0.12509000000E+03 0.  0.
        -13    1    3    3    0    0  0.42589496494E+01 -0.11888413650E+02  0.47203379703E+02  0.48863516561E+02  0.10566000000E+00 0. -1.
         23    2    1    0    0    0  0.19538397653E+02 -0.22958315433E+02  0.57630052729E+01  0.94397240917E+02  0.89268099748E+02 0.  0.
         13    1    3    3    0    0  0.15279448003E+02 -0.11069901783E+02 -0.41440374430E+02  0.45533724356E+02  0.10566000000E+00 0.  1.
         22    1    1    0    0    0 -0.19538397653E+02  0.22958315433E+02 -0.57630052729E+01  0.30692759083E+02  0.00000000000E+00 0. -1.
</event>
<event>
 5    1  0.1262391E-009  0.9118800E+02  0.7815553E-02  0.1125453E+00
         25   -1    0    0    0    0  0.00000000000E+00  0.00000000000E+00  0.99999998245E-14  0.12509000000E+03  0.12509000000E+03 0.  0.
        -13    1    3    3    0    0  0.32570326388E+02  0.40127293467E+02  0.36543600611E+01  0.51811112258E+02  0.10566000000E+00 0. -1.
         23    2    1    0    0    0 -0.67638892958E+01  0.29025022725E+02 -0.78504601001E+01  0.94270657593E+02  0.89090543924E+02 0.  0.
         13    1    3    3    0    0 -0.39334215684E+02 -0.11102270741E+02 -0.11504820161E+02  0.42459545335E+02  0.10566000000E+00 0.  1.
         22    1    1    0    0    0  0.67638892958E+01 -0.29025022725E+02  0.78504601001E+01  0.30819342407E+02  0.00000000000E+00 0. -1.
</event>
<event>
 5    1  0.1262391E-009  0.9118800E+02  0.7815553E-02  0.1125453E+00
         25   -1    0    0    0    0  0.00000000000E+00  0.00000000000E+00  0.99999998245E-14  0.12509000000E+03  0.12509000000E+03 0.  0.
        -13    1    3    3    0    0  0.32728819731E+02  0.42986650966E+02  0.14468020950E+02  0.55931767328E+02  0.10566000000E+00 0.  1.
         23    2    1    0    0    0  0.19691632603E+02  0.47464488791E+01  0.19897191640E+02  0.96696560499E+02  0.92433962404E+02 0.  0.
         13    1    3    3    0    0 -0.13037187128E+02 -0.38240202087E+02  0.54291706901E+01  0.40764793171E+02  0.10566000000E+00 0. -1.
         22    1    1    0    0    0 -0.19691632603E+02 -0.47464488791E+01 -0.19897191640E+02  0.28393439501E+02  0.00000000000E+00 0.  1.
</event>
<event>
 5    1  0.1262391E-009  0.9118800E+02  0.7815553E-02  0.1125453E+00
         25   -1    0    0    0    0  0.00000000000E+00  0.00000000000E+00  0.99999998245E-14  0.12509000000E+03  0.12509000000E+03 0.  0.
        -13    1    3    3    0    0 -0.32815059849E+02 -0.25309662756E+02 -0.27806536972E+02  0.49906130327E+02  0.10566000000E+00 0.  1.
         23    2    1    0    0    0  0.85439026248E+01 -0.24855252711E+02 -0.20153631798E+02  0.91969753412E+02  0.85799095617E+02 0.  0.
         13    1    3    3    0    0  0.41358962474E+02  0.45441004461E+00  0.76529051745E+01  0.42063623086E+02  0.10566000000E+00 0. -1.
         22    1    1    0    0    0 -0.85439026248E+01  0.24855252711E+02  0.20153631798E+02  0.33120246588E+02  0.00000000000E+00 0.  1.
</event>
<event>
 5    1  0.1262391E-009  0.9118800E+02  0.7815553E-02  0.1125453E+00
         25   -1    0    0    0    0  0.00000000000E+00  0.00000000000E+00  0.99999998245E-14  0.12509000000E+03  0.12509000000E+03 0.  0.
        -13    1    3    3    0    0  0.21336938689E+02  0.25838440644E+02  0.36728678810E+02  0.49718175537E+02  0.10566000000E+00 0. -1.
         23    2    1    0    0    0  0.27985196029E+02 -0.26196371986E+01 -0.41364730666E+00  0.96979418364E+02  0.92815961916E+02 0.  0.
         13    1    3    3    0    0  0.66482573392E+01 -0.28458077843E+02 -0.37142326117E+02  0.47261242827E+02  0.10566000000E+00 0.  1.
         22    1    1    0    0    0 -0.27985196029E+02  0.26196371986E+01  0.41364730666E+00  0.28110581636E+02  0.00000000000E+00 0.  1.
</event>
<event>
 5    1  0.1262391E-009  0.9118800E+02  0.7815553E-02  0.1125453E+00
         25   -1    0    0    0    0  0.00000000000E+00  0.00000000000E+00  0.99999998245E-14  0.12509000000E+03  0.12509000000E+03 0.  0.
        -13    1    3    3    0    0  0.27158595681E+02 -0.23796775948E+02 -0.12944667536E+02  0.38359502689E+02  0.10566000000E+00 0. -1.
         23    2    1    0    0    0  0.17129799530E+02  0.18228085161E+02  0.20300693498E+02  0.92874921588E+02  0.87108781320E+02 0.  0.
         13    1    3    3    0    0 -0.10028796151E+02  0.42024861109E+02  0.33245361034E+02  0.54515418899E+02  0.10566000000E+00 0.  1.
         22    1    1    0    0    0 -0.17129799530E+02 -0.18228085161E+02 -0.20300693498E+02  0.32215078412E+02  0.00000000000E+00 0.  1.
</event>
<event>
 5    1  0.1262391E-009  0.9118800E+02  0.7815553E-02  0.1125453E+00
         25   -1    0    0    0    0  0.00000000000E+00  0.00000000000E+00  0.99999998245E-14  0.12509000000E+03  0.12509000000E+03 0.  0.
        -13    1    3    3    0    0 -0.33334605089E+02  0.74723391109E-02 -0.41428103599E+02  0.53174193780E+02  0.10566000000E+00 0.  1.
         23    2    1    0    0    0 -0.70310306417E+01  0.22873892077E+02 -0.16685549699E+02  0.95917103343E+02  0.91373042054E+02 0.  0.
         13    1    3    3    0    0  0.26303574448E+02  0.22866419738E+02  0.24742553900E+02  0.42742909563E+02  0.10566000000E+00 0. -1.
         22    1    1    0    0    0  0.70310306417E+01 -0.22873892077E+02  0.16685549699E+02  0.29172896657E+02  0.00000000000E+00 0. -1.
</event>
<event>
 5    1  0.1262391E-009  0.9118800E+02  0.7815553E-02  0.1125453E+00
         25   -1    0    0    0    0  0.00000000000E+00  0.00000000000E+00  0.99999998245E-14  0.12509000000E+03  0.12509000000E+03 0.  0.
        -13    1    3    3    0    0  0.16569979929E+02 -0.32058930286E+02  0.92387493511E+01  0.37251911355E+02  0.10566000000E+00 0.  1.
         23    2    1    0    0    0  0.18115364212E+02  0.21755298314E+02 -0.10931305340E+02  0.94742794829E+02  0.89751012865E+02 0.  0.
         13    1    3    3    0    0  0.15453842821E+01  0.53814228600E+02 -0.20170054692E+02  0.57490883475E+02  0.10566000000E+00 0. -1.
         22    1    1    0    0    0 -0.18115364212E+02 -0.21755298314E+02  0.10931305340E+02  0.30347205171E+02  0.00000000000E+00 0. -1.
</event>
<event>
 5    1  0.1262391E-009  0.9118800E+02  0.7815553E-02  0.1125453E+00
         25   -1    0    0    0    0  0.00000000000E+00  0.00000000000E+00  0.99999998245E-14  0.12509000000E+03  0.12509000000E+03 0.  0.
        -13    1    3    3    0    0  0.18575731601E+02  0.39219340086E+02  0.97965960982E+01  0.44488188325E+02  0.10566000000E+00 0. -1.
         23    2    1    0    0    0 -0.10965675239E+02  0.15356253669E+02 -0.23470817232E+02  0.94974558417E+02  0.90073452942E+02 0.  0.
         13    1    3    3    0    0 -0.29541406840E+02 -0.23863086417E+02 -0.33267413330E+02  0.50486370093E+02  0.10566000000E+00 0.  1.
         22    1    1    0    0    0  0.10965675239E+02 -0.15356253669E+02  0.23470817232E+02  0.30115441583E+02  0.00000000000E+00 0.  1.
</event>
<event>
 5    1  0.1262391E-009  0.9118800E+02  0.7815553E-02  0.1125453E+00
         25   -1    0    0    0    0  0.00000000000E+00  0.00000000000E+00  0.99999998245E-14  0.12509000000E+03  0.12509000000E+03 0.  0.
        -13    1    3    3    0    0  0.28965998511E+02 -0.29711739700E+02 -0.41789513927E+01  0.41704812007E+02  0.10566000000E+00 0.  1.
         23    2    1    0    0    0 -0.56612804594E+01  0.14312821171E+02 -0.19948949047E+02  0.99893422566E+02  0.96663479958E+02 0.  0.
         13    1    3    3    0    0 -0.34627278970E+02  0.44024560871E+02 -0.15769997654E+02  0.58188610559E+02  0.10566000000E+00 0. -1.
         22    1    1    0    0    0  0.56612804594E+01 -0.14312821171E+02  0.19948949047E+02  0.25196577434E+02  0.00000000000E+00 0. -1.
</event>
<event>
 5    1  0.1262391E-009  0.9118800E+02  0.7815553E-02  0.1125453E+00
         25   -1    0    0    0    0  0.00000000000E+00  0.00000000000E+00  0.99999998245E-14  0.12509000000E+03  0.12509000000E+03 0.  0.
        -13    1    3    3    0    0 -0.20135125925E+01  0.37299747226E+02  0.42886846079E+02  0.56873703121E+02  0.10566000000E+00 0. -1.
         23    2    1    0    0    0  0.11311820861E+02  0.46718666317E+01  0.26824412424E+02  0.95605551032E+02  0.90945525769E+02 0.  0.
         13    1    3    3    0    0  0.13325333453E+02 -0.32627880594E+02 -0.16062433655E+02  0.38731847912E+02  0.10566000000E+00 0.  1.
         22    1    1    0    0    0 -0.11311820861E+02 -0.46718666317E+01 -0.26824412424E+02  0.29484448968E+02  0.00000000000E+00 0. -1.
</event>
<event>
 5    1  0.1262391E-009  0.9118800E+02  0.7815553E-02  0.1125453E+00
         25   -1    0    0    0    0  0.00000000000E+00  0.00000000000E+00  0.99999998245E-14  0.12509000000E+03  0.12509000000E+03 0.  0.
        -13    1    3    3    0    0 -0.17088363697E+02 -0.20655182851E+02 -0.27277914277E+02  0.38245843223E+02  0.10566000000E+00 0.  1.
         23    2    1    0    0    0  0.25372825112E+02 -0.10096578001E+02  0.10282195872E+02  0.95910474756E+02  0.91363967047E+02 0.  0.
         13    1    3    3    0    0  0.42461188809E+02  0.10558604851E+02  0.37560110149E+02  0.57664631534E+02  0.10566000000E+00 0. -1.
         22    1    1    0    0    0 -0.25372825112E+02  0.10096578001E+02 -0.10282195872E+02  0.29179525244E+02  0.00000000000E+00 0. -1.
</event>
<event>
 5    1  0.1262391E-009  0.9118800E+02  0.7815553E-02  0.1125453E+00
         25   -1    0    0    0    0  0.00000000000E+00  0.00000000000E+00  0.99999998245E-14  0.12509000000E+03  0.12509000000E+03 0.  0.
        -13    1    3    3    0    0 -0.12165359207E+02 -0.11696649735E+02  0.34376672007E+02  0.38295878655E+02  0.10566000000E+00 0.  1.
         23    2    1    0    0    0  0.11714578278E+02  0.27778986257E+02  0.15819364879E+01  0.94900499429E+02  0.89970544331E+02 0.  0.
         13    1    3    3    0    0  0.23879937484E+02  0.39475635992E+02 -0.32794735519E+02  0.56604620774E+02  0.10566000000E+00 0. -1.
         22    1    1    0    0    0 -0.11714578278E+02 -0.27778986257E+02 -0.15819364879E+01  0.30189500571E+02  0.00000000000E+00 0.  1.
</event>
<event>
 5    1  0.1262391E-009  0.9118800E+02  0.7815553E-02  0.1125453E+00
         25   -1    0    0    0    0  0.00000000000E+00  0.00000000000E+00  0.99999998245E-14  0.12509000000E+03  0.12509000000E+03 0.  0.
        -13    1    3    3    0    0 -0.21500968792E+02 -0.45753596697E+02  0.28578717611E+02  0.58072691810E+02  0.10566000000E+00 0.  1.
         23    2    1    0    0    0 -0.71100963899E+01 -0.32934324975E+02  0.14302149575E+01  0.91366584588E+02  0.84915157847E+02 0.  0.
         13    1    3    3    0    0  0.14390872402E+02  0.12819271721E+02 -0.27148502653E+02  0.33293892778E+02  0.10566000000E+00 0. -1.
         22    1    1    0    0    0  0.71100963899E+01  0.32934324975E+02 -0.14302149575E+01  0.33723415412E+02  0.00000000000E+00 0.  1.
</event>
<event>
 5    1  0.1262391E-009  0.9118800E+02  0.7815553E-02  0.1125453E+00
         25   -1    0    0    0    0  0.00000000000E+00  0.00000000000E+00  0.99999998245E-14  0.12509000000E+03  0.12509000000E+03 0.  0.
        -13    1    3    3    0    0 -0.13765044948E-02  0.30970163321E+02  0.15838806509E+02  0.34785485101E+02  0.10566000000E+00 0.  1.
         23    2    1    0    0    0  0.14497446798E+02 -0.15572108554E+02 -0.20466739954E+02  0.95567907038E+02  0.90893734013E+02 0.  0.
         13    1    3    3    0    0  0.14498823303E+02 -0.46542271875E+02 -0.36305546463E+02  0.60782421937E+02  0.10566000000E+00 0. -1.
         22    1    1    0    0    0 -0.14497446798E+02  0.15572108554E+02  0.20466739954E+02  0.29522092962E+02  0.00000000000E+00 0. -1.
</event>
<event>
 5    1  0.1262391E-009  0.9118800E+02  0.7815553E-02  0.1125453E+00
         25   -1    0    0    0    0  0.00000000000E+00  0.00000000000E+00  0.99999998245E-14  0.12509000000E+03  0.12509000000E+03 0.  0.
        -13    1    3    3    0    0 -0.14859937212E+02  0.55152554658E+02  0.17398237073E+02  0.59710399735E+02  0.10566000000E+00 0.  1.
         23    2    1    0    0    0  0.36485060363E+01  0.22220283381E+02  0.15913417378E+02  0.97516653405E+02  0.93537202485E+02 0.  0.
         13    1    3    3    0    0  0.18508443249E+02 -0.32932271277E+02 -0.14848196954E+01  0.37806253669E+02  0.10566000000E+00 0. -1.
         22    1    1    0    0    0 -0.36485060363E+01 -0.22220283381E+02 -0.15913417378E+02  0.27573346595E+02  0.00000000000E+00 0.  1.
</event>
<event>
 5    1  0.1262391E-009  0.9118800E+02  0.7815553E-02  0.1125453E+00
         25   -1    0    0    0    0  0.00000000000E+00  0.00000000000E+00  0.99999998245E-14  0.12509000000E+03  0.12509000000E+03 0.  0.
        -13    1    3    3    0    0  0.19200404099E+02 -0.35467450233E+02 -0.22741611974E+02  0.46301054230E+02  0.10566000000E+00 0.  1.
         23    2    1    0    0    0  0.26161803302E+02  0.11047486154E+02 -0.81833416963E+01  0.95535745084E+02  0.90849461226E+02 0.  0.
         13    1    3    3    0    0  0.69613992031E+01  0.46514936387E+02  0.14558270278E+02  0.49234690854E+02  0.10566000000E+00 0. -1.
         22    1    1    0    0    0 -0.26161803302E+02 -0.11047486154E+02  0.81833416963E+01  0.29554254916E+02  0.00000000000E+00 0.  1.
</event>
<event>
 5    1  0.1262391E-009  0.9118800E+02  0.7815553E-02  0.1125453E+00
         25   -1    0    0    0    0  0.00000000000E+00  0.00000000000E+00  0.99999998245E-14  0.12509000000E+03  0.12509000000E+03 0.  0.
        -13    1    3    3    0    0 -0.22992302292E+02  0.30110303034E+02  0.23895676187E+02  0.44791637813E+02  0.10566000000E+00 0. -1.
         23    2    1    0    0    0  0.22795650636E+02  0.62196638198E+01  0.58712462235E+00  0.10145378581E+03  0.98662049612E+02 0.  0.
         13    1    3    3    0    0  0.45787952928E+02 -0.23890639215E+02 -0.23308551565E+02  0.56662147996E+02  0.10566000000E+00 0.  1.
         22    1    1    0    0    0 -0.22795650636E+02 -0.62196638198E+01 -0.58712462235E+00  0.23636214191E+02  0.00000000000E+00 0.  1.
</event>
<event>
 5    1  0.1262391E-009  0.9118800E+02  0.7815553E-02  0.1125453E+00
         25   -1    0    0    0    0  0.00000000000E+00  0.00000000000E+00  0.99999998245E-14  0.12509000000E+03  0.12509000000E+03 0.  0.
        -13    1    3    3    0    0  0.50349738611E+02  0.11262087333E+02 -0.44691297109E+01  0.51787209557E+02  0.10566000000E+00 0.  1.
         23    2    1    0    0    0  0.15027464141E+02  0.15867485341E+02  0.20370672096E+02  0.95214156059E+02  0.90405583139E+02 0.  0.
         13    1    3    3    0    0 -0.35322274470E+02  0.46053980081E+01  0.24839801807E+02  0.43426946501E+02  0.10566000000E+00 0. -1.
         22    1    1    0    0    0 -0.15027464141E+02 -0.15867485341E+02 -0.20370672096E+02  0.29875843941E+02  0.00000000000E+00 0.  1.
</event>
<event>
 5    1  0.1262391E-009  0.9118800E+02  0.7815553E-02  0.1125453E+00
         25   -1    0    0    0    0  0.00000000000E+00  0.00000000000E+00  0.99999998245E-14  0.12509000000E+03  0.12509000000E+03 0.  0.
        -13    1    3    3    0    0 -0.18224619731E+02 -0.30126889861E+02 -0.42802551284E+02  0.55424144716E+02  0.10566000000E+00 0. -1.
         23    2    1    0    0    0 -0.21887229522E+02 -0.21129619326E+02 -0.52435371941E+01  0.94219199697E+02  0.89018263746E+02 0.  0.
         13    1    3    3    0    0 -0.36626097910E+01  0.89972705352E+01  0.37559014090E+02  0.38795054981E+02  0.10566000000E+00 0.  1.
         22    1    1    0    0    0  0.21887229522E+02  0.21129619326E+02  0.52435371941E+01  0.30870800303E+02  0.00000000000E+00 0. -1.
</event>
<event>
 5    1  0.1262391E-009  0.9118800E+02  0.7815553E-02  0.1125453E+00
         25   -1    0    0    0    0  0.00000000000E+00  0.00000000000E+00  0.99999998245E-14  0.12509000000E+03  0.12509000000E+03 0.  0.
        -13    1    3    3    0    0 -0.88737459116E+01 -0.80512757843E+01 -0.31642755253E+02  0.33835506976E+02  0.10566000000E+00 0.  1.
         23    2    1    0    0    0  0.99518000485E+01 -0.73922128695E+01  0.26973409163E+02  0.95404179526E+02  0.90668128545E+02 0.  0.
         13    1    3    3    0    0  0.18825545960E+02  0.65906291482E+00  0.58616164417E+02  0.61568672550E+02  0.10566000000E+00 0. -1.
         22    1    1    0    0    0 -0.99518000485E+01  0.73922128695E+01 -0.26973409163E+02  0.29685820474E+02  0.00000000000E+00 0. -1.
</event>
<event>
 5    1  0.1262391E-009  0.9118800E+02  0.7815553E-02  0.1125453E+00
         25   -1    0    0    0    0  0.00000000000E+00  0.00000000000E+00  0.99999998245E-14  0.12509000000E+03  0.12509000000E+03 0.  0.
        -13    1    3    3    0    0 -0.46548782647E+02  0.32741512119E+02 -0.69302237515E+01  0.57330924875E+02  0.10566000000E+00 0.  1.
         23    2    1    0    0    0 -0.12932055922E+02  0.23136952431E+02  0.10723461738E+02  0.96497181500E+02  0.92163749748E+02 0.  0.
         13    1    3    3    0    0  0.33616726726E+02 -0.96045596880E+01  0.17653685489E+02  0.39166256624E+02  0.10566000000E+00 0. -1.
         22    1    1    0    0    0  0.12932055922E+02 -0.23136952431E+02 -0.10723461738E+02  0.28592818500E+02  0.00000000000E+00 0.  1.
</event>
<event>
 5    1  0.1262391E-009  0.9118800E+02  0.7815553E-02  0.1125453E+00
         25   -1    0    0    0    0  0.00000000000E+00  0.00000000000E+00  0.99999998245E-14  0.12509000000E+03  0.12509000000E+03 0.  0.
        -13    1    3    3    0    0 -0.21729313452E+02 -0.24596179127E+02 -0.20468891553E+02  0.38679733404E+02  0.10566000000E+00 0. -1.
         23    2    1    0    0    0  0.23494226507E+02 -0.86314800373E+01  0.12730866167E+02  0.97008759284E+02  0.92855496863E+02 0.  0.
         13    1    3    3    0    0  0.45223539959E+02  0.15964699090E+02  0.33199757720E+02  0.58329025880E+02  0.10566000000E+00 0.  1.
         22    1    1    0    0    0 -0.23494226507E+02  0.86314800373E+01 -0.12730866167E+02  0.28081240716E+02  0.00000000000E+00 0.  1.
</event>
<event>
 5    1  0.1262391E-009  0.9118800E+02  0.7815553E-02  0.1125453E+00
         25   -1    0    0    0    0  0.00000000000E+00  0.00000000000E+00  0.99999998245E-14  0.12509000000E+03  0.12509000000E+03 0.  0.
        -13    1    3    3    0    0  0.44709130544E+02  0.28759740398E+02 -0.78664853167E+01  0.53739387576E+02  0.10566000000E+00 0. -1.
         23    2    1    0    0    0  0.97002059709E+01  0.25741818505E+02 -0.20179675224E+02  0.90973222485E+02  0.84333698492E+02 0.  0.
         13    1    3    3    0    0 -0.35008924573E+02 -0.30179218930E+01 -0.12313189908E+02  0.37233834909E+02  0.10566000000E+00 0.  1.
         22    1    1    0    0    0 -0.97002059709E+01 -0.25741818505E+02  0.20179675224E+02  0.34116777515E+02  0.00000000000E+00 0. -1.
</event>
<event>
 5    1  0.1262391E-009  0.9118800E+02  0.7815553E-02  0.1125453E+00
         25   -1    0    0    0    0  0.00000000000E+00  0.00000000000E+00  0.99999998245E-14  0.12509000000E+03  0.12509000000E+03 0.  0.
        -13    1    3    3    0    0  0.40054509022E+02  0.35974979758E+02  0.24793228958E+02  0.59272913104E+02  0.10566000000E+00 0.  1.
         23    2    1    0    0    0  0.10251256918E+02  0.23935936497E+02  0.20998337680E+02  0.91639327216E+02  0.85315993711E+02 0.  0.
         13    1    3    3    0    0 -0.29803252104E+02 -0.12039043262E+02 -0.37948912777E+01  0.32366414113E+02  0.10566000000E+00 0. -1.
         22    1    1    0    0    0 -0.10251256918E+02 -0.23935936497E+02 -0.20998337680E+02  0.33450672784E+02  0.00000000000E+00 0.  1.
</event>
<event>
 5    1  0.1262391E-009  0.9118800E+02  0.7815553E-02  0.1125453E+00
         25   -1    0    0    0    0  0.00000000000E+00  0.00000000000E+00  0.99999998245E-14  0.12509000000E+03  0.12509000000E+03 0.  0.
        -13    1    3    3    0    0  0.20141960110E+02  0.83519461757E+01 -0.27557332097E+02  0.35140735312E+02  0.10566000000E+00 0. -1.
         23    2    1    0    0    0 -0.79874147213E+01 -0.20080908258E+02  0.18855554414E+02  0.96409456026E+02  0.92044606624E+02 0.  0.
         13    1    3    3    0    0 -0.28129374831E+02 -0.28432854434E+02  0.46412886510E+02  0.61268720714E+02  0.10566000000E+00 0.  1.
         22    1    1    0    0    0  0.79874147213E+01  0.20080908258E+02 -0.18855554414E+02  0.28680543974E+02  0.00000000000E+00 0.  1.
</event>
<event>
 5    1  0.1262391E-009  0.9118800E+02  0.7815553E-02  0.1125453E+00
         25   -1    0    0    0    0  0.00000000000E+00  0.00000000000E+00  0.99999998245E-14  0.12509000000E+03  0.12509000000E+03 0.  0.
        -13    1    3    3    0    0 -0.30373711240E+02  0.15786935543E+02 -0.14492699903E+02  0.37173097569E+02  0.10566000000E+00 0. -1.
         23    2    1    0    0    0  0.29417766395E+00 -0.18659337356E+02  0.22185161550E+02  0.96099677406E+02  0.91622645637E+02 0.  0.
         13    1    3    3    0    0  0.30667888904E+02 -0.34446272899E+02  0.36677861454E+02  0.58926579837E+02  0.10566000000E+00 0.  1.
         22    1    1    0    0    0 -0.29417766395E+00  0.18659337356E+02 -0.22185161550E+02  0.28990322594E+02  0.00000000000E+00 0.  1.
</event>
<event>
 5    1  0.1262391E-009  0.9118800E+02  0.7815553E-02  0.1125453E+00
         25   -1    0    0    0    0  0.00000000000E+00  0.00000000000E+00  0.99999998245E-14  0.12509000000E+03  0.12509000000E+03 0.  0.
        -13    1    3    3    0    0  0.64844883761E+01  0.36952933058E+00  0.43769714901E+02  0.44249115788E+02  0.10566000000E+00 0. -1.
         23    2    1    0    0    0  0.15515753046E+02  0.24644918724E+02 -0.97673763318E+00  0.95951286440E+02  0.91419826852E+02 0.  0.
         13    1    3    3    0    0  0.90312646703E+01  0.24275389393E+02 -0.44746452534E+02  0.51702170653E+02  0.10566000000E+00 0.  1.
         22    1    1    0    0    0 -0.15515753046E+02 -0.24644918724E+02  0.97673763318E+00  0.29138713560E+02  0.00000000000E+00 0.  1.
</event>
<event>
 5    1  0.1262391E-009  0.9118800E+02  0.7815553E-02  0.1125453E+00
         25   -1    0    0    0    0  0.00000000000E+00  0.00000000000E+00  0.99999998245E-14  0.12509000000E+03  0.12509000000E+03 0.  0.
        -13    1    3    3    0    0  0.72213897684E+00  0.28819023232E+02 -0.77245790066E+01  0.29845231941E+02  0.10566000000E+00 0. -1.
         23    2    1    0    0    0 -0.19841246707E+01 -0.31275134975E+02  0.93682251533E+01  0.92381675969E+02  0.86397567060E+02 0.  0.
         13    1    3    3    0    0 -0.27062636475E+01 -0.60094158207E+02  0.17092804160E+02  0.62536444028E+02  0.10566000000E+00 0.  1.
         22    1    1    0    0    0  0.19841246707E+01  0.31275134975E+02 -0.93682251533E+01  0.32708324031E+02  0.00000000000E+00 0.  1.
</event>
<event>
 5    1  0.1262391E-009  0.9118800E+02  0.7815553E-02  0.1125453E+00
         25   -1    0    0    0    0  0.00000000000E+00  0.00000000000E+00  0.99999998245E-14  0.12509000000E+03  0.12509000000E+03 0.  0.
        -13    1    3    3    0    0 -0.29593625183E+02 -0.42362104360E+02 -0.46859402681E+01  0.51887375512E+02  0.10566000000E+00 0.  1.
         23    2    1    0    0    0 -0.14342372528E+02 -0.54865010227E+01 -0.24294017020E+02  0.96349704139E+02  0.91963367063E+02 0.  0.
         13    1    3    3    0    0  0.15251252655E+02  0.36875603337E+02 -0.19608076752E+02  0.44462328627E+02  0.10566000000E+00 0. -1.
         22    1    1    0    0    0  0.14342372528E+02  0.54865010227E+01  0.24294017020E+02  0.28740295861E+02  0.00000000000E+00 0. -1.
</event>
<event>
 5    1  0.1262391E-009  0.9118800E+02  0.7815553E-02  0.1125453E+00
         25   -1    0    0    0    0  0.00000000000E+00  0.00000000000E+00  0.99999998245E-14  0.12509000000E+03  0.12509000000E+03 0.  0.
        -13    1    3    3    0    0 -0.48365560000E+02 -0.74061957468E+01  0.84599316260E+01  0.49655420013E+02  0.10566000000E+00 0.  1.
         23    2    1    0    0    0 -0.84657650545E+01 -0.25999898222E+02 -0.79180898902E+01  0.96623176626E+02  0.92334599302E+02 0.  0.
         13    1    3    3    0    0  0.39899794945E+02 -0.18593702475E+02 -0.16378021516E+02  0.46967756613E+02  0.10566000000E+00 0. -1.
         22    1    1    0    0    0  0.84657650545E+01  0.25999898222E+02  0.79180898902E+01  0.28466823374E+02  0.00000000000E+00 0. -1.
</event>
<event>
 5    1  0.1262391E-009  0.9118800E+02  0.7815553E-02  0.1125453E+00
         25   -1    0    0    0    0  0.00000000000E+00  0.00000000000E+00  0.99999998245E-14  0.12509000000E+03  0.12509000000E+03 0.  0.
        -13    1    3    3    0    0 -0.20571195571E+02 -0.35638028659E+02 -0.79062063950E+01  0.41901819024E+02  0.10566000000E+00 0.  1.
         23    2    1    0    0    0 -0.16111440699E+02  0.11583376742E+02  0.19985685685E+02  0.96926534829E+02  0.92744662291E+02 0.  0.
         13    1    3    3    0    0  0.44597548722E+01  0.47221405401E+02  0.27891892080E+02  0.55024715805E+02  0.10566000000E+00 0. -1.
         22    1    1    0    0    0  0.16111440699E+02 -0.11583376742E+02 -0.19985685685E+02  0.28163465171E+02  0.00000000000E+00 0. -1.
</event>
<event>
 5    1  0.1262391E-009  0.9118800E+02  0.7815553E-02  0.1125453E+00
         25   -1    0    0    0    0  0.00000000000E+00  0.00000000000E+00  0.99999998245E-14  0.12509000000E+03  0.12509000000E+03 0.  0.
        -13    1    3    3    0    0  0.72896450716E+01  0.29724589909E+02  0.30541604877E+02  0.43237610515E+02  0.10566000000E+00 0. -1.
         23    2    1    0    0    0 -0.29212485580E+02  0.10110354731E+01  0.84717894351E+01  0.94657078308E+02  0.89631466300E+02 0.  0.
         13    1    3    3    0    0 -0.36502130652E+02 -0.28713554435E+02 -0.22069815442E+02  0.51419467793E+02  0.10566000000E+00 0.  1.
         22    1    1    0    0    0  0.29212485580E+02 -0.10110354731E+01 -0.84717894351E+01  0.30432921692E+02  0.00000000000E+00 0.  1.
</event>
<event>
 5    1  0.1262391E-009  0.9118800E+02  0.7815553E-02  0.1125453E+00
         25   -1    0    0    0    0  0.00000000000E+00  0.00000000000E+00  0.99999998245E-14  0.12509000000E+03  0.12509000000E+03 0.  0.
        -13    1    3    3    0    0 -0.36502375993E+02  0.35374276687E+02  0.20778422724E+02  0.54913722504E+02  0.10566000000E+00 0. -1.
         23    2    1    0    0    0 -0.27578809239E+02  0.82359123479E+01 -0.77453884673E+01  0.95283758812E+02  0.90501837990E+02 0.  0.
         13    1    3    3    0    0  0.89235667539E+01 -0.27138364339E+02 -0.28523811191E+02  0.40370036308E+02  0.10566000000E+00 0.  1.
         22    1    1    0    0    0  0.27578809239E+02 -0.82359123479E+01  0.77453884673E+01  0.29806241188E+02  0.00000000000E+00 0. -1.
</event>
<event>
 5    1  0.1262391E-009  0.9118800E+02  0.7815553E-02  0.1125453E+00
         25   -1    0    0    0    0  0.00000000000E+00  0.00000000000E+00  0.99999998245E-14  0.12509000000E+03  0.12509000000E+03 0.  0.
        -13    1    3    3    0    0 -0.40679840301E+01  0.10101540485E+02  0.31480544093E+02  0.33311040732E+02  0.10566000000E+00 0. -1.
         23    2    1    0    0    0 -0.19470585152E+02  0.26602480526E+01 -0.25552797238E+02  0.92854521835E+02  0.87079481926E+02 0.  0.
         13    1    3    3    0    0 -0.15402601122E+02 -0.74412924328E+01 -0.57033341331E+02  0.59543481102E+02  0.10566000000E+00 0.  1.
         22    1    1    0    0    0  0.19470585152E+02 -0.26602480526E+01  0.25552797238E+02  0.32235478165E+02  0.00000000000E+00 0.  1.
</event>
<event>
 5    1  0.1262391E-009  0.9118800E+02  0.7815553E-02  0.1125453E+00
         25   -1    0    0    0    0  0.00000000000E+00  0.00000000000E+00  0.99999998245E-14  0.12509000000E+03  0.12509000000E+03 0.  0.
        -13    1    3    3    0    0 -0.16340276211E+02 -0.35046645377E+02 -0.12554818680E+02  0.40655954238E+02  0.10566000000E+00 0. -1.
         23    2    1    0    0    0  0.22380340081E+02  0.76718288496E+01 -0.12543917262E+02  0.98311530284E+02  0.94594241614E+02 0.  0.
         13    1    3    3    0    0  0.38720616293E+02  0.42718474227E+02  0.10901418827E-01  0.57655576046E+02  0.10566000000E+00 0.  1.
         22    1    1    0    0    0 -0.22380340081E+02 -0.76718288496E+01  0.12543917262E+02  0.26778469716E+02  0.00000000000E+00 0.  1.
</event>
<event>
 5    1  0.1262391E-009  0.9118800E+02  0.7815553E-02  0.1125453E+00
         25   -1    0    0    0    0  0.00000000000E+00  0.00000000000E+00  0.99999998245E-14  0.12509000000E+03  0.12509000000E+03 0.  0.
        -13    1    3    3    0    0  0.17175513188E+01  0.25795621413E+02 -0.53912003041E+02  0.59790294384E+02  0.10566000000E+00 0. -1.
         23    2    1    0    0    0 -0.60834592903E+01  0.21718562312E+02 -0.19613849408E+02  0.95200076707E+02  0.90386100096E+02 0.  0.
         13    1    3    3    0    0 -0.78010106091E+01 -0.40770591004E+01  0.34298153634E+02  0.35409782323E+02  0.10566000000E+00 0.  1.
         22    1    1    0    0    0  0.60834592903E+01 -0.21718562312E+02  0.19613849408E+02  0.29889923293E+02  0.00000000000E+00 0. -1.
</event>
<event>
 5    1  0.1262391E-009  0.9118800E+02  0.7815553E-02  0.1125453E+00
         25   -1    0    0    0    0  0.00000000000E+00  0.00000000000E+00  0.99999998245E-14  0.12509000000E+03  0.12509000000E+03 0.  0.
        -13    1    3    3    0    0  0.35391618818E+02 -0.25408526373E+02 -0.10531658312E+02  0.44822838887E+02  0.10566000000E+00 0. -1.
         23    2    1    0    0    0  0.15196886745E+02  0.15033582849E+02  0.17023445668E+02  0.97763242373E+02  0.93866393756E+02 0.  0.
         13    1    3    3    0    0 -0.20194732073E+02  0.40442109222E+02  0.27555103981E+02  0.52940403486E+02  0.10566000000E+00 0.  1.
         22    1    1    0    0    0 -0.15196886745E+02 -0.15033582849E+02 -0.17023445668E+02  0.27326757627E+02  0.00000000000E+00 0.  1.
</event>
<event>
 5    1  0.1262391E-009  0.9118800E+02  0.7815553E-02  0.1125453E+00
         25   -1    0    0    0    0  0.00000000000E+00  0.00000000000E+00  0.99999998245E-14  0.12509000000E+03  0.12509000000E+03 0.  0.
        -13    1    3    3    0    0 -0.29984223281E+02 -0.16141531501E+02 -0.45220768096E+02  0.56608583415E+02  0.10566000000E+00 0.  1.
         23    2    1    0    0    0 -0.24257713478E+02  0.81063573979E+01 -0.16393355060E+02  0.94710865984E+02  0.89706501168E+02 0.  0.
         13    1    3    3    0    0  0.57265098031E+01  0.24247888898E+02  0.28827413036E+02  0.38102282569E+02  0.10566000000E+00 0. -1.
         22    1    1    0    0    0  0.24257713478E+02 -0.81063573979E+01  0.16393355060E+02  0.30379134016E+02  0.00000000000E+00 0.  1.
</event>
<event>
 5    1  0.1262391E-009  0.9118800E+02  0.7815553E-02  0.1125453E+00
         25   -1    0    0    0    0  0.00000000000E+00  0.00000000000E+00  0.99999998245E-14  0.12509000000E+03  0.12509000000E+03 0.  0.
        -13    1    3    3    0    0 -0.35096179228E+02  0.11551693066E+01 -0.11492069377E+02  0.36948004480E+02  0.10566000000E+00 0.  1.
         23    2    1    0    0    0  0.21489447715E+02  0.17912677291E+02 -0.76450130173E+01  0.96088162216E+02  0.91606922900E+02 0.  0.
         13    1    3    3    0    0  0.56585626942E+02  0.16757507985E+02  0.38470563593E+01  0.59140157735E+02  0.10566000000E+00 0. -1.
         22    1    1    0    0    0 -0.21489447715E+02 -0.17912677291E+02  0.76450130173E+01  0.29001837784E+02  0.00000000000E+00 0. -1.
</event>
<event>
 5    1  0.1262391E-009  0.9118800E+02  0.7815553E-02  0.1125453E+00
         25   -1    0    0    0    0  0.00000000000E+00  0.00000000000E+00  0.99999998245E-14  0.12509000000E+03  0.12509000000E+03 0.  0.
        -13    1    3    3    0    0  0.92765330500E+01  0.50751911651E+02  0.32952919634E+02  0.61218597486E+02  0.10566000000E+00 0.  1.
         23    2    1    0    0    0  0.98974301564E+01  0.17942283018E+02  0.19872885823E+02  0.96545013846E+02  0.92228647740E+02 0.  0.
         13    1    3    3    0    0  0.62089710633E+00 -0.32809628634E+02 -0.13080033811E+02  0.35326416360E+02  0.10566000000E+00 0. -1.
         22    1    1    0    0    0 -0.98974301564E+01 -0.17942283018E+02 -0.19872885823E+02  0.28544986154E+02  0.00000000000E+00 0.  1.
</event>
<event>
 5    1  0.1262391E-009  0.9118800E+02  0.7815553E-02  0.1125453E+00
         25   -1    0    0    0    0  0.00000000000E+00  0.00000000000E+00  0.99999998245E-14  0.12509000000E+03  0.12509000000E+03 0.  0.
        -13    1    3    3    0    0 -0.36766198840E+02 -0.17099530172E+02 -0.37177374224E+02  0.55011958949E+02  0.10566000000E+00 0. -1.
         23    2    1    0    0    0 -0.16437500021E+02  0.13788377100E+02 -0.19901589498E+02  0.95825960386E+02  0.91248181731E+02 0.  0.
         13    1    3    3    0    0  0.20328698819E+02  0.30887907272E+02  0.17275784726E+02  0.40814001436E+02  0.10566000000E+00 0.  1.
         22    1    1    0    0    0  0.16437500021E+02 -0.13788377100E+02  0.19901589498E+02  0.29264039614E+02  0.00000000000E+00 0.  1.
</event>
<event>
 5    1  0.1262391E-009  0.9118800E+02  0.7815553E-02  0.1125453E+00
         25   -1    0    0    0    0  0.00000000000E+00  0.00000000000E+00  0.99999998245E-14  0.12509000000E+03  0.12509000000E+03 0.  0.
        -13    1    3    3    0    0  0.34335904225E+02  0.25772798245E+02  0.42607700451E+02  0.60486517094E+02  0.10566000000E+00 0. -1.
         23    2    1    0    0    0  0.62085466022E+01  0.17922273540E+02  0.20851157316E+02  0.96902685457E+02  0.92712489706E+02 0.  0.
         13    1    3    3    0    0 -0.28127357623E+02 -0.78505247051E+01 -0.21756543136E+02  0.36416168363E+02  0.10566000000E+00 0.  1.
         22    1    1    0    0    0 -0.62085466022E+01 -0.17922273540E+02 -0.20851157316E+02  0.28187314543E+02  0.00000000000E+00 0. -1.
</event>
<event>
 5    1  0.1262391E-009  0.9118800E+02  0.7815553E-02  0.1125453E+00
         25   -1    0    0    0    0  0.00000000000E+00  0.00000000000E+00  0.99999998245E-14  0.12509000000E+03  0.12509000000E+03 0.  0.
        -13    1    3    3    0    0 -0.36648163738E+02 -0.29195256689E+02 -0.15808457437E+02  0.49450676528E+02  0.10566000000E+00 0. -1.
         23    2    1    0    0    0  0.75563512997E+01 -0.27936947787E+02 -0.84282892890E+00  0.96136902459E+02  0.91673453940E+02 0.  0.
         13    1    3    3    0    0  0.44204515038E+02  0.12583089027E+01  0.14965628508E+02  0.46686225931E+02  0.10566000000E+00 0.  1.
         22    1    1    0    0    0 -0.75563512997E+01  0.27936947787E+02  0.84282892890E+00  0.28953097541E+02  0.00000000000E+00 0.  1.
</event>
<event>
 5    1  0.1262391E-009  0.9118800E+02  0.7815553E-02  0.1125453E+00
         25   -1    0    0    0    0  0.00000000000E+00  0.00000000000E+00  0.99999998245E-14  0.12509000000E+03  0.12509000000E+03 0.  0.
        -13    1    3    3    0    0 -0.32910831716E+02 -0.20605064897E+01 -0.44020116135E+02  0.55001366526E+02  0.10566000000E+00 0.  1.
         23    2    1    0    0    0 -0.22928616412E+02 -0.16121392609E+02 -0.64667073416E+01  0.96324759621E+02  0.91929430880E+02 0.  0.
         13    1    3    3    0    0  0.99822153036E+01 -0.14060886120E+02  0.37553408793E+02  0.41323393095E+02  0.10566000000E+00 0. -1.
         22    1    1    0    0    0  0.22928616412E+02  0.16121392609E+02  0.64667073416E+01  0.28765240379E+02  0.00000000000E+00 0.  1.
</event>
<event>
 5    1  0.1262391E-009  0.9118800E+02  0.7815553E-02  0.1125453E+00
         25   -1    0    0    0    0  0.00000000000E+00  0.00000000000E+00  0.99999998245E-14  0.12509000000E+03  0.12509000000E+03 0.  0.
        -13    1    3    3    0    0  0.39816396269E+01  0.39954428546E+02 -0.28129683711E+02  0.49025504426E+02  0.10566000000E+00 0.  1.
         23    2    1    0    0    0 -0.25828404768E+02  0.14808974346E+02 -0.35933492083E+01  0.95101262571E+02  0.90249242490E+02 0.  0.
         13    1    3    3    0    0 -0.29810044395E+02 -0.25145454200E+02  0.24536334503E+02  0.46075758145E+02  0.10566000000E+00 0. -1.
         22    1    1    0    0    0  0.25828404768E+02 -0.14808974346E+02  0.35933492083E+01  0.29988737429E+02  0.00000000000E+00 0.  1.
</event>
<event>
 5    1  0.1262391E-009  0.9118800E+02  0.7815553E-02  0.1125453E+00
         25   -1    0    0    0    0  0.00000000000E+00  0.00000000000E+00  0.99999998245E-14  0.12509000000E+03  0.12509000000E+03 0.  0.
        -13    1    3    3    0    0  0.22407706054E+02  0.41435025442E+02  0.23681816899E+02  0.52723867837E+02  0.10566000000E+00 0.  1.
         23    2    1    0    0    0  0.25415387298E+02 -0.45220785327E+00  0.14893516479E+02  0.95628784197E+02  0.90977475951E+02 0.  0.
         13    1    3    3    0    0  0.30076812446E+01 -0.41887233295E+02 -0.87883004199E+01  0.42904916361E+02  0.10566000000E+00 0. -1.
         22    1    1    0    0    0 -0.25415387298E+02  0.45220785327E+00 -0.14893516479E+02  0.29461215803E+02  0.00000000000E+00 0.  1.
</event>
<event>
 5    1  0.1262391E-009  0.9118800E+02  0.7815553E-02  0.1125453E+00
         25   -1    0    0    0    0  0.00000000000E+00  0.00000000000E+00  0.99999998245E-14  0.12509000000E+03  0.12509000000E+03 0.  0.
        -13    1    3    3    0    0  0.22508629517E+02 -0.33751371815E+02  0.20286443212E+02  0.45357958996E+02  0.10566000000E+00 0.  1.
         23    2    1    0    0    0 -0.18390499819E+02 -0.34467124101E+01  0.21898594373E+02  0.96286549763E+02  0.91877423341E+02 0.  0.
         13    1    3    3    0    0 -0.40899129336E+02  0.30304659405E+02  0.16121511610E+01  0.50928590767E+02  0.10566000000E+00 0. -1.
         22    1    1    0    0    0  0.18390499819E+02  0.34467124101E+01 -0.21898594373E+02  0.28803450237E+02  0.00000000000E+00 0. -1.
</event>
<event>
 5    1  0.1262391E-009  0.9118800E+02  0.7815553E-02  0.1125453E+00
         25   -1    0    0    0    0  0.00000000000E+00  0.00000000000E+00  0.99999998245E-14  0.12509000000E+03  0.12509000000E+03 0.  0.
        -13    1    3    3    0    0 -0.47201396039E+02 -0.24869315398E+02  0.26926640439E+02  0.59762109784E+02  0.10566000000E+00 0.  1.
         23    2    1    0    0    0 -0.29440937146E+02 -0.72408494311E+01  0.26023544883E+01  0.94660229554E+02  0.89635864083E+02 0.  0.
         13    1    3    3    0    0  0.17760458893E+02  0.17628465967E+02 -0.24324285951E+02  0.34898119770E+02  0.10566000000E+00 0. -1.
         22    1    1    0    0    0  0.29440937146E+02  0.72408494311E+01 -0.26023544883E+01  0.30429770446E+02  0.00000000000E+00 0.  1.
</event>
<event>
 5    1  0.1262391E-009  0.9118800E+02  0.7815553E-02  0.1125453E+00
         25   -1    0    0    0    0  0.00000000000E+00  0.00000000000E+00  0.99999998245E-14  0.12509000000E+03  0.12509000000E+03 0.  0.
        -13    1    3    3    0    0  0.52882211889E+01  0.49971323433E+02  0.58433033359E+01  0.50589068057E+02  0.10566000000E+00 0.  1.
         23    2    1    0    0    0 -0.11578346572E+02  0.11235141808E+02 -0.19441437313E+02  0.99826270949E+02  0.96576541489E+02 0.  0.
         13    1    3    3    0    0 -0.16866567761E+02 -0.38736181625E+02 -0.25284740649E+02  0.49237202892E+02  0.10566000000E+00 0. -1.
         22    1    1    0    0    0  0.11578346572E+02 -0.11235141808E+02  0.19441437313E+02  0.25263729051E+02  0.00000000000E+00 0.  1.
</event>
<event>
 5    1  0.1262391E-009  0.9118800E+02  0.7815553E-02  0.1125453E+00
         25   -1    0    0    0    0  0.00000000000E+00  0.00000000000E+00  0.99999998245E-14  0.12509000000E+03  0.12509000000E+03 0.  0.
        -13    1    3    3    0    0 -0.36747786800E+02  0.14819575335E+02  0.42701968487E+02  0.58253660181E+02  0.10566000000E+00 0. -1.
         23    2    1    0    0    0 -0.17908858042E+02 -0.97861147950E+01  0.16081605168E+02  0.99107058212E+02  0.95640450248E+02 0.  0.
         13    1    3    3    0    0  0.18838928758E+02 -0.24605690130E+02 -0.26620363318E+02  0.40853398032E+02  0.10566000000E+00 0.  1.
         22    1    1    0    0    0  0.17908858042E+02  0.97861147950E+01 -0.16081605168E+02  0.25982941788E+02  0.00000000000E+00 0. -1.
</event>
<event>
 5    1  0.1262391E-009  0.9118800E+02  0.7815553E-02  0.1125453E+00
         25   -1    0    0    0    0  0.00000000000E+00  0.00000000000E+00  0.99999998245E-14  0.12509000000E+03  0.12509000000E+03 0.  0.
        -13    1    3    3    0    0  0.88734111364E+01 -0.22991136185E+02  0.26047474742E+02  0.35858219040E+02  0.10566000000E+00 0. -1.
         23    2    1    0    0    0  0.80893777072E+01  0.25608307532E+02 -0.10064186218E+02  0.96410542359E+02  0.92046082956E+02 0.  0.
         13    1    3    3    0    0 -0.78403342927E+00  0.48599443717E+02 -0.36111660959E+02  0.60552323319E+02  0.10566000000E+00 0.  1.
         22    1    1    0    0    0 -0.80893777072E+01 -0.25608307532E+02  0.10064186218E+02  0.28679457641E+02  0.00000000000E+00 0.  1.
</event>
<event>
 5    1  0.1262391E-009  0.9118800E+02  0.7815553E-02  0.1125453E+00
         25   -1    0    0    0    0  0.00000000000E+00  0.00000000000E+00  0.99999998245E-14  0.12509000000E+03  0.12509000000E+03 0.  0.
        -13    1    3    3    0    0  0.12908966730E+02  0.17258111154E+02 -0.55651471068E+02  0.59678984732E+02  0.10566000000E+00 0.  1.
         23    2    1    0    0    0  0.25381803152E+01 -0.43880011069E+01 -0.29427154604E+02  0.95229418273E+02  0.90426698289E+02 0.  0.
         13    1    3    3    0    0 -0.10370786415E+02 -0.21646112260E+02  0.26224316464E+02  0.35550433540E+02  0.10566000000E+00 0. -1.
         22    1    1    0    0    0 -0.25381803152E+01  0.43880011069E+01  0.29427154604E+02  0.29860581727E+02  0.00000000000E+00 0.  1.
</event>
<event>
 5    1  0.1262391E-009  0.9118800E+02  0.7815553E-02  0.1125453E+00
         25   -1    0    0    0    0  0.00000000000E+00  0.00000000000E+00  0.99999998245E-14  0.12509000000E+03  0.12509000000E+03 0.  0.
        -13    1    3    3    0    0 -0.50050671890E+02  0.16422437648E+02 -0.10093104551E+02  0.53634393242E+02  0.10566000000E+00 0.  1.
         23    2    1    0    0    0 -0.20325123366E+02  0.12455216264E+02  0.18381222409E+02  0.94988299229E+02  0.90092533549E+02 0.  0.
         13    1    3    3    0    0  0.29725548524E+02 -0.39672213836E+01  0.28474326960E+02  0.41353905988E+02  0.10566000000E+00 0. -1.
         22    1    1    0    0    0  0.20325123366E+02 -0.12455216264E+02 -0.18381222409E+02  0.30101700771E+02  0.00000000000E+00 0.  1.
</event>
<event>
 5    1  0.1262391E-009  0.9118800E+02  0.7815553E-02  0.1125453E+00
         25   -1    0    0    0    0  0.00000000000E+00  0.00000000000E+00  0.99999998245E-14  0.12509000000E+03  0.12509000000E+03 0.  0.
        -13    1    3    3    0    0 -0.12216445449E+02  0.13076461013E+02 -0.40047184361E+02  0.43863692404E+02  0.10566000000E+00 0. -1.
         23    2    1    0    0    0  0.17097636008E+02 -0.19817269920E+02 -0.10639642974E+02  0.96836586990E+02  0.92623265074E+02 0.  0.
         13    1    3    3    0    0  0.29314081457E+02 -0.32893730932E+02  0.29407541387E+02  0.52972894585E+02  0.10566000000E+00 0.  1.
         22    1    1    0    0    0 -0.17097636008E+02  0.19817269920E+02  0.10639642974E+02  0.28253413010E+02  0.00000000000E+00 0.  1.
</event>
<event>
 5    1  0.1262391E-009  0.9118800E+02  0.7815553E-02  0.1125453E+00
         25   -1    0    0    0    0  0.00000000000E+00  0.00000000000E+00  0.99999998245E-14  0.12509000000E+03  0.12509000000E+03 0.  0.
        -13    1    3    3    0    0  0.38908885647E+02  0.21884646591E+02  0.35848490942E+01  0.44785058287E+02  0.10566000000E+00 0.  1.
         23    2    1    0    0    0  0.10374177176E+02  0.28039448586E+02  0.28962230274E+02  0.83464947309E+02  0.72344677881E+02 0.  0.
         13    1    3    3    0    0 -0.28534708472E+02  0.61548019952E+01  0.25377381180E+02  0.38679889022E+02  0.10566000000E+00 0. -1.
         22    1    1    0    0    0 -0.10374177176E+02 -0.28039448586E+02 -0.28962230274E+02  0.41625052691E+02  0.00000000000E+00 0.  1.
</event>
<event>
 5    1  0.1262391E-009  0.9118800E+02  0.7815553E-02  0.1125453E+00
         25   -1    0    0    0    0  0.00000000000E+00  0.00000000000E+00  0.99999998245E-14  0.12509000000E+03  0.12509000000E+03 0.  0.
        -13    1    3    3    0    0 -0.31530939448E+02  0.17382480037E+02  0.96574501946E+01  0.37277718050E+02  0.10566000000E+00 0. -1.
         23    2    1    0    0    0  0.20510052715E+02 -0.79265799935E+01  0.19163935194E+02  0.95922392198E+02  0.91380282228E+02 0.  0.
         13    1    3    3    0    0  0.52040992163E+02 -0.25309060031E+02  0.95064849992E+01  0.58644674149E+02  0.10566000000E+00 0.  1.
         22    1    1    0    0    0 -0.20510052715E+02  0.79265799935E+01 -0.19163935194E+02  0.29167607802E+02  0.00000000000E+00 0.  1.
</event>
<event>
 5    1  0.1262391E-009  0.9118800E+02  0.7815553E-02  0.1125453E+00
         25   -1    0    0    0    0  0.00000000000E+00  0.00000000000E+00  0.99999998245E-14  0.12509000000E+03  0.12509000000E+03 0.  0.
        -13    1    3    3    0    0 -0.21947920215E+02  0.89288910554E+01  0.29679106140E+02  0.37977582895E+02  0.10566000000E+00 0.  1.
         23    2    1    0    0    0  0.27885177239E+02  0.69120434354E+01 -0.65766989241E+00  0.96353403406E+02  0.91968398725E+02 0.  0.
         13    1    3    3    0    0  0.49833097455E+02 -0.20168476200E+01 -0.30336776032E+02  0.58375820511E+02  0.10566000000E+00 0. -1.
         22    1    1    0    0    0 -0.27885177239E+02 -0.69120434354E+01  0.65766989241E+00  0.28736596594E+02  0.00000000000E+00 0. -1.
</event>
<event>
 5    1  0.1262391E-009  0.9118800E+02  0.7815553E-02  0.1125453E+00
         25   -1    0    0    0    0  0.00000000000E+00  0.00000000000E+00  0.99999998245E-14  0.12509000000E+03  0.12509000000E+03 0.  0.
        -13    1    3    3    0    0 -0.17412328326E+02  0.15101823233E+02 -0.22168850250E+02  0.31980045781E+02  0.10566000000E+00 0.  1.
         23    2    1    0    0    0  0.20124037768E+01 -0.81212429768E+01  0.30899673151E+02  0.93077593697E+02  0.87399338048E+02 0.  0.
         13    1    3    3    0    0  0.19424732103E+02 -0.23223066209E+02  0.53068523401E+02  0.61097547917E+02  0.10566000000E+00 0. -1.
         22    1    1    0    0    0 -0.20124037768E+01  0.81212429768E+01 -0.30899673151E+02  0.32012406303E+02  0.00000000000E+00 0. -1.
</event>
<event>
 5    1  0.1262391E-009  0.9118800E+02  0.7815553E-02  0.1125453E+00
         25   -1    0    0    0    0  0.00000000000E+00  0.00000000000E+00  0.99999998245E-14  0.12509000000E+03  0.12509000000E+03 0.  0.
        -13    1    3    3    0    0 -0.46971095689E+01 -0.34070013203E+02 -0.39715592995E+01  0.34620991974E+02  0.10566000000E+00 0. -1.
         23    2    1    0    0    0  0.56116889174E+01  0.22752441226E+02  0.17083736847E+02  0.96089677607E+02  0.91608992155E+02 0.  0.
         13    1    3    3    0    0  0.10308798486E+02  0.56822454429E+02  0.21055296146E+02  0.61468685633E+02  0.10566000000E+00 0.  1.
         22    1    1    0    0    0 -0.56116889174E+01 -0.22752441226E+02 -0.17083736847E+02  0.29000322393E+02  0.00000000000E+00 0.  1.
</event>
<event>
 5    1  0.1262391E-009  0.9118800E+02  0.7815553E-02  0.1125453E+00
         25   -1    0    0    0    0  0.00000000000E+00  0.00000000000E+00  0.99999998245E-14  0.12509000000E+03  0.12509000000E+03 0.  0.
        -13    1    3    3    0    0 -0.13212142750E+02 -0.94837580918E+01  0.29217322458E+02  0.33438981432E+02  0.10566000000E+00 0. -1.
         23    2    1    0    0    0  0.66428970321E+01  0.82754740512E+01 -0.27234877397E+02  0.95860732158E+02  0.91295837097E+02 0.  0.
         13    1    3    3    0    0  0.19855039782E+02  0.17759232143E+02 -0.56452199855E+02  0.62421750725E+02  0.10566000000E+00 0.  1.
         22    1    1    0    0    0 -0.66428970321E+01 -0.82754740512E+01  0.27234877397E+02  0.29229267842E+02  0.00000000000E+00 0.  1.
</event>
<event>
 5    1  0.1262391E-009  0.9118800E+02  0.7815553E-02  0.1125453E+00
         25   -1    0    0    0    0  0.00000000000E+00  0.00000000000E+00  0.99999998245E-14  0.12509000000E+03  0.12509000000E+03 0.  0.
        -13    1    3    3    0    0  0.44661713559E+02  0.37579821176E+01 -0.16855322382E+02  0.47884278675E+02  0.10566000000E+00 0.  1.
         23    2    1    0    0    0  0.48862756870E+01 -0.23607184292E+02 -0.15970575917E+02  0.96172286823E+02  0.91721723803E+02 0.  0.
         13    1    3    3    0    0 -0.39775437872E+02 -0.27365166410E+02  0.88474646539E+00  0.48288008148E+02  0.10566000000E+00 0. -1.
         22    1    1    0    0    0 -0.48862756870E+01  0.23607184292E+02  0.15970575917E+02  0.28917713177E+02  0.00000000000E+00 0. -1.
</event>
<event>
 5    1  0.1262391E-009  0.9118800E+02  0.7815553E-02  0.1125453E+00
         25   -1    0    0    0    0  0.00000000000E+00  0.00000000000E+00  0.99999998245E-14  0.12509000000E+03  0.12509000000E+03 0.  0.
        -13    1    3    3    0    0 -0.12842857090E+01 -0.39460421924E+02  0.11080403803E+02  0.41006838463E+02  0.10566000000E+00 0.  1.
         23    2    1    0    0    0 -0.97801100979E+01  0.30045499250E+01  0.33704397104E+02  0.89866935711E+02  0.82676489259E+02 0.  0.
         13    1    3    3    0    0 -0.84958243889E+01  0.42464971849E+02  0.22623993301E+02  0.48860097249E+02  0.10566000000E+00 0. -1.
         22    1    1    0    0    0  0.97801100979E+01 -0.30045499250E+01 -0.33704397104E+02  0.35223064289E+02  0.00000000000E+00 0. -1.
</event>
<event>
 5    1  0.1262391E-009  0.9118800E+02  0.7815553E-02  0.1125453E+00
         25   -1    0    0    0    0  0.00000000000E+00  0.00000000000E+00  0.99999998245E-14  0.12509000000E+03  0.12509000000E+03 0.  0.
        -13    1    3    3    0    0  0.27048510661E+02  0.95673827415E+01 -0.37897057815E+02  0.47532671885E+02  0.10566000000E+00 0. -1.
         23    2    1    0    0    0  0.53811451641E+01  0.31267845621E+02 -0.42145993615E+01  0.93083785903E+02  0.87408200171E+02 0.  0.
         13    1    3    3    0    0 -0.21667365497E+02  0.21700462879E+02  0.33682458453E+02  0.45551114018E+02  0.10566000000E+00 0.  1.
         22    1    1    0    0    0 -0.53811451641E+01 -0.31267845621E+02  0.42145993615E+01  0.32006214097E+02  0.00000000000E+00 0.  1.
</event>
<event>
 5    1  0.1262391E-009  0.9118800E+02  0.7815553E-02  0.1125453E+00
         25   -1    0    0    0    0  0.00000000000E+00  0.00000000000E+00  0.99999998245E-14  0.12509000000E+03  0.12509000000E+03 0.  0.
        -13    1    3    3    0    0  0.46724921558E+00  0.33712984013E+02  0.63880041831E+01  0.34316196969E+02  0.10566000000E+00 0. -1.
         23    2    1    0    0    0  0.28605563668E+02 -0.10791213157E+02  0.19817794594E+02  0.88655489756E+02  0.80822783465E+02 0.  0.
         13    1    3    3    0    0  0.28138314453E+02 -0.44504197171E+02  0.13429790410E+02  0.54339292787E+02  0.10566000000E+00 0.  1.
         22    1    1    0    0    0 -0.28605563668E+02  0.10791213157E+02 -0.19817794594E+02  0.36434510244E+02  0.00000000000E+00 0.  1.
</event>
<event>
 5    1  0.1262391E-009  0.9118800E+02  0.7815553E-02  0.1125453E+00
         25   -1    0    0    0    0  0.00000000000E+00  0.00000000000E+00  0.99999998245E-14  0.12509000000E+03  0.12509000000E+03 0.  0.
        -13    1    3    3    0    0 -0.20216149937E+02 -0.14750051665E+00 -0.35161224760E+02  0.40559060212E+02  0.10566000000E+00 0.  1.
         23    2    1    0    0    0 -0.19178047204E+02 -0.10612560569E+02  0.19214036172E+02  0.95942047714E+02  0.91407184604E+02 0.  0.
         13    1    3    3    0    0  0.10381027325E+01 -0.10465060052E+02  0.54375260932E+02  0.55382987502E+02  0.10566000000E+00 0. -1.
         22    1    1    0    0    0  0.19178047204E+02  0.10612560569E+02 -0.19214036172E+02  0.29147952286E+02  0.00000000000E+00 0. -1.
</event>
<event>
 5    1  0.1262391E-009  0.9118800E+02  0.7815553E-02  0.1125453E+00
         25   -1    0    0    0    0  0.00000000000E+00  0.00000000000E+00  0.99999998245E-14  0.12509000000E+03  0.12509000000E+03 0.  0.
        -13    1    3    3    0    0  0.49736804045E+02  0.30785527850E+02 -0.15887761604E+02  0.60612956819E+02  0.10566000000E+00 0.  1.
         23    2    1    0    0    0  0.26076139917E+02  0.44012983693E+01 -0.11237787162E+02  0.96356320100E+02  0.91972365755E+02 0.  0.
         13    1    3    3    0    0 -0.23660664128E+02 -0.26384229480E+02  0.46499744419E+01  0.35743363280E+02  0.10566000000E+00 0. -1.
         22    1    1    0    0    0 -0.26076139917E+02 -0.44012983693E+01  0.11237787162E+02  0.28733679900E+02  0.00000000000E+00 0.  1.
</event>
<event>
 5    1  0.1262391E-009  0.9118800E+02  0.7815553E-02  0.1125453E+00
         25   -1    0    0    0    0  0.00000000000E+00  0.00000000000E+00  0.99999998245E-14  0.12509000000E+03  0.12509000000E+03 0.  0.
        -13    1    3    3    0    0  0.16826529731E+02 -0.12448820669E+02 -0.47905697154E+02  0.52278793240E+02  0.10566000000E+00 0. -1.
         23    2    1    0    0    0  0.25103562513E+02 -0.17911687412E+02 -0.82344484591E+01  0.93170984693E+02  0.87532901531E+02 0.  0.
         13    1    3    3    0    0  0.82770327815E+01 -0.54628667429E+01  0.39671248695E+02  0.40892191452E+02  0.10566000000E+00 0.  1.
         22    1    1    0    0    0 -0.25103562513E+02  0.17911687412E+02  0.82344484591E+01  0.31919015307E+02  0.00000000000E+00 0. -1.
</event>
<event>
 5    1  0.1262391E-009  0.9118800E+02  0.7815553E-02  0.1125453E+00
         25   -1    0    0    0    0  0.00000000000E+00  0.00000000000E+00  0.99999998245E-14  0.12509000000E+03  0.12509000000E+03 0.  0.
        -13    1    3    3    0    0  0.13359297325E+02  0.43045507592E+02 -0.95008979009E+01  0.46061532474E+02  0.10566000000E+00 0. -1.
         23    2    1    0    0    0 -0.15627782395E+02  0.18625698097E+02  0.19610620330E+02  0.93853472633E+02  0.88502845623E+02 0.  0.
         13    1    3    3    0    0 -0.28987079720E+02 -0.24419809494E+02  0.29111518231E+02  0.47791940160E+02  0.10566000000E+00 0.  1.
         22    1    1    0    0    0  0.15627782395E+02 -0.18625698097E+02 -0.19610620330E+02  0.31236527367E+02  0.00000000000E+00 0.  1.
</event>
<event>
 5    1  0.1262391E-009  0.9118800E+02  0.7815553E-02  0.1125453E+00
         25   -1    0    0    0    0  0.00000000000E+00  0.00000000000E+00  0.99999998245E-14  0.12509000000E+03  0.12509000000E+03 0.  0.
        -13    1    3    3    0    0 -0.78811976791E+00  0.46336297869E+02  0.24279625878E+02  0.52318113783E+02  0.10566000000E+00 0. -1.
         23    2    1    0    0    0  0.40511889479E+01  0.30612854718E+02 -0.11848064642E+02  0.92015302093E+02  0.85865477217E+02 0.  0.
         13    1    3    3    0    0  0.48393087158E+01 -0.15723443152E+02 -0.36127690520E+02  0.39697188310E+02  0.10566000000E+00 0.  1.
         22    1    1    0    0    0 -0.40511889479E+01 -0.30612854718E+02  0.11848064642E+02  0.33074697907E+02  0.00000000000E+00 0. -1.
</event>
<event>
 5    1  0.1262391E-009  0.9118800E+02  0.7815553E-02  0.1125453E+00
         25   -1    0    0    0    0  0.00000000000E+00  0.00000000000E+00  0.99999998245E-14  0.12509000000E+03  0.12509000000E+03 0.  0.
        -13    1    3    3    0    0  0.19442436243E+02  0.26346622184E+02 -0.32107899757E+02  0.45859363476E+02  0.10566000000E+00 0. -1.
         23    2    1    0    0    0  0.22860624486E+02 -0.33840822582E+01  0.11913676637E+02  0.99090079700E+02  0.95618241143E+02 0.  0.
         13    1    3    3    0    0  0.34181882427E+01 -0.29730704442E+02  0.44021576394E+02  0.53230716224E+02  0.10566000000E+00 0.  1.
         22    1    1    0    0    0 -0.22860624486E+02  0.33840822582E+01 -0.11913676637E+02  0.25999920300E+02  0.00000000000E+00 0.  1.
</event>
<event>
 5    1  0.1262391E-009  0.9118800E+02  0.7815553E-02  0.1125453E+00
         25   -1    0    0    0    0  0.00000000000E+00  0.00000000000E+00  0.99999998245E-14  0.12509000000E+03  0.12509000000E+03 0.  0.
        -13    1    3    3    0    0  0.34307316163E+02  0.17221164806E+02 -0.31434850543E+02  0.49615737950E+02  0.10566000000E+00 0.  1.
         23    2    1    0    0    0 -0.71713502406E+01  0.22242349007E+02 -0.23119121347E+02  0.92216847953E+02  0.86158591684E+02 0.  0.
         13    1    3    3    0    0 -0.41478666404E+02  0.50211842013E+01  0.83157291959E+01  0.42601110003E+02  0.10566000000E+00 0. -1.
         22    1    1    0    0    0  0.71713502406E+01 -0.22242349007E+02  0.23119121347E+02  0.32873152047E+02  0.00000000000E+00 0. -1.
</event>
<event>
 5    1  0.1262391E-009  0.9118800E+02  0.7815553E-02  0.1125453E+00
         25   -1    0    0    0    0  0.00000000000E+00  0.00000000000E+00  0.99999998245E-14  0.12509000000E+03  0.12509000000E+03 0.  0.
        -13    1    3    3    0    0 -0.51401222156E+02  0.28759851259E+02 -0.98080863397E+01  0.59711174878E+02  0.10566000000E+00 0.  1.
         23    2    1    0    0    0 -0.26438080275E+02  0.65872259222E+00 -0.84613773557E+01  0.97323096845E+02  0.93277994557E+02 0.  0.
         13    1    3    3    0    0  0.24963141881E+02 -0.28101128667E+02  0.13467089840E+01  0.37611921967E+02  0.10566000000E+00 0. -1.
         22    1    1    0    0    0  0.26438080275E+02 -0.65872259222E+00  0.84613773557E+01  0.27766903155E+02  0.00000000000E+00 0.  1.
</event>
<event>
 5    1  0.1262391E-009  0.9118800E+02  0.7815553E-02  0.1125453E+00
         25   -1    0    0    0    0  0.00000000000E+00  0.00000000000E+00  0.99999998245E-14  0.12509000000E+03  0.12509000000E+03 0.  0.
        -13    1    3    3    0    0 -0.17487448529E+02  0.16944996001E+02  0.34488994094E+02  0.42219019685E+02  0.10566000000E+00 0. -1.
         23    2    1    0    0    0  0.27537471493E+02  0.22948556189E+01  0.87870623098E+01  0.96093600869E+02  0.91614349124E+02 0.  0.
         13    1    3    3    0    0  0.45024920022E+02 -0.14650140382E+02 -0.25701931784E+02  0.53874581183E+02  0.10566000000E+00 0.  1.
         22    1    1    0    0    0 -0.27537471493E+02 -0.22948556189E+01 -0.87870623098E+01  0.28996399131E+02  0.00000000000E+00 0.  1.
</event>
<event>
 5    1  0.1262391E-009  0.9118800E+02  0.7815553E-02  0.1125453E+00
         25   -1    0    0    0    0  0.00000000000E+00  0.00000000000E+00  0.99999998245E-14  0.12509000000E+03  0.12509000000E+03 0.  0.
        -13    1    3    3    0    0  0.17070404867E+01  0.37898280708E+02  0.32771100675E+02  0.50131326247E+02  0.10566000000E+00 0. -1.
         23    2    1    0    0    0  0.24770599408E+02  0.21710246852E+02  0.16543713525E+01  0.92110394818E+02  0.86003898025E+02 0.  0.
         13    1    3    3    0    0  0.23063558922E+02 -0.16188033856E+02 -0.31116729323E+02  0.41979068570E+02  0.10566000000E+00 0.  1.
         22    1    1    0    0    0 -0.24770599408E+02 -0.21710246852E+02 -0.16543713525E+01  0.32979605182E+02  0.00000000000E+00 0. -1.
</event>
<event>
 5    1  0.1262391E-009  0.9118800E+02  0.7815553E-02  0.1125453E+00
         25   -1    0    0    0    0  0.00000000000E+00  0.00000000000E+00  0.99999998245E-14  0.12509000000E+03  0.12509000000E+03 0.  0.
        -13    1    3    3    0    0  0.35112870080E+02 -0.15198612330E+02  0.24323554329E+02  0.45338261118E+02  0.10566000000E+00 0.  1.
         23    2    1    0    0    0  0.13692289785E+02  0.25817170985E+02  0.51960875534E+01  0.95408280995E+02  0.90673786947E+02 0.  0.
         13    1    3    3    0    0 -0.21420580295E+02  0.41015783316E+02 -0.19127466776E+02  0.50070019877E+02  0.10566000000E+00 0. -1.
         22    1    1    0    0    0 -0.13692289785E+02 -0.25817170985E+02 -0.51960875534E+01  0.29681719005E+02  0.00000000000E+00 0. -1.
</event>
<event>
 5    1  0.1262391E-009  0.9118800E+02  0.7815553E-02  0.1125453E+00
         25   -1    0    0    0    0  0.00000000000E+00  0.00000000000E+00  0.99999998245E-14  0.12509000000E+03  0.12509000000E+03 0.  0.
        -13    1    3    3    0    0  0.13798634450E+02 -0.70570529388E+01  0.46140345680E+02  0.48673883885E+02  0.10566000000E+00 0. -1.
         23    2    1    0    0    0  0.58097755770E+01  0.25266042428E+02  0.11477794820E+02  0.96737466319E+02  0.92489303293E+02 0.  0.
         13    1    3    3    0    0 -0.79888588735E+01  0.32323095367E+02 -0.34662550860E+02  0.48063582434E+02  0.10566000000E+00 0.  1.
         22    1    1    0    0    0 -0.58097755770E+01 -0.25266042428E+02 -0.11477794820E+02  0.28352533681E+02  0.00000000000E+00 0.  1.
</event>
<event>
 5    1  0.1262391E-009  0.9118800E+02  0.7815553E-02  0.1125453E+00
         25   -1    0    0    0    0  0.00000000000E+00  0.00000000000E+00  0.99999998245E-14  0.12509000000E+03  0.12509000000E+03 0.  0.
        -13    1    3    3    0    0 -0.40347087054E+02 -0.21318981218E+01  0.33958610374E+01  0.40545967241E+02  0.10566000000E+00 0. -1.
         23    2    1    0    0    0  0.79399400982E+01 -0.26603467348E+02 -0.86626124041E+01  0.96006878136E+02  0.91495861503E+02 0.  0.
         13    1    3    3    0    0  0.48287027152E+02 -0.24471569226E+02 -0.12058473441E+02  0.55460910895E+02  0.10566000000E+00 0.  1.
         22    1    1    0    0    0 -0.79399400982E+01  0.26603467348E+02  0.86626124041E+01  0.29083121864E+02  0.00000000000E+00 0.  1.
</event>
<event>
 5    1  0.1262391E-009  0.9118800E+02  0.7815553E-02  0.1125453E+00
         25   -1    0    0    0    0  0.00000000000E+00  0.00000000000E+00  0.99999998245E-14  0.12509000000E+03  0.12509000000E+03 0.  0.
        -13    1    3    3    0    0 -0.81114745780E+01  0.37846484995E+02  0.33608828871E+02  0.51261262064E+02  0.10566000000E+00 0. -1.
         23    2    1    0    0    0 -0.26694376399E+02  0.11631376559E+02  0.27010969856E+01  0.95846631915E+02  0.91276515449E+02 0.  0.
         13    1    3    3    0    0 -0.18582901821E+02 -0.26215108436E+02 -0.30907731885E+02  0.44585369851E+02  0.10566000000E+00 0.  1.
         22    1    1    0    0    0  0.26694376399E+02 -0.11631376559E+02 -0.27010969856E+01  0.29243368085E+02  0.00000000000E+00 0. -1.
</event>
<event>
 5    1  0.1262391E-009  0.9118800E+02  0.7815553E-02  0.1125453E+00
         25   -1    0    0    0    0  0.00000000000E+00  0.00000000000E+00  0.99999998245E-14  0.12509000000E+03  0.12509000000E+03 0.  0.
        -13    1    3    3    0    0  0.31825791239E+02 -0.22562527577E+02 -0.29119537214E+02  0.48681693174E+02  0.10566000000E+00 0.  1.
         23    2    1    0    0    0  0.21342553785E+02 -0.11277344868E+02  0.15847612978E+02  0.96213886230E+02  0.91778439500E+02 0.  0.
         13    1    3    3    0    0 -0.10483237454E+02  0.11285182710E+02  0.44967150192E+02  0.47532193056E+02  0.10566000000E+00 0. -1.
         22    1    1    0    0    0 -0.21342553785E+02  0.11277344868E+02 -0.15847612978E+02  0.28876113770E+02  0.00000000000E+00 0.  1.
</event>
<event>
 5    1  0.1262391E-009  0.9118800E+02  0.7815553E-02  0.1125453E+00
         25   -1    0    0    0    0  0.00000000000E+00  0.00000000000E+00  0.99999998245E-14  0.12509000000E+03  0.12509000000E+03 0.  0.
        -13    1    3    3    0    0  0.35959868075E+02 -0.30149251155E+01 -0.12368276262E+02  0.38146917400E+02  0.10566000000E+00 0.  1.
         23    2    1    0    0    0 -0.14777027694E+02 -0.25730111455E+02  0.12915496056E+01  0.95390382438E+02  0.90649091436E+02 0.  0.
         13    1    3    3    0    0 -0.50736895769E+02 -0.22715186339E+02  0.13659825867E+02  0.57243465037E+02  0.10566000000E+00 0. -1.
         22    1    1    0    0    0  0.14777027694E+02  0.25730111455E+02 -0.12915496056E+01  0.29699617562E+02  0.00000000000E+00 0. -1.
</event>
<event>
 5    1  0.1262391E-009  0.9118800E+02  0.7815553E-02  0.1125453E+00
         25   -1    0    0    0    0  0.00000000000E+00  0.00000000000E+00  0.99999998245E-14  0.12509000000E+03  0.12509000000E+03 0.  0.
        -13    1    3    3    0    0  0.55012118277E+02 -0.39314897572E+01  0.28152049010E+02  0.61922038052E+02  0.10566000000E+00 0.  1.
         23    2    1    0    0    0  0.28661963698E+02  0.17371320116E+01  0.89598764049E+01  0.95010020348E+02  0.90122687436E+02 0.  0.
         13    1    3    3    0    0 -0.26350154579E+02  0.56686217689E+01 -0.19192172605E+02  0.33087982296E+02  0.10566000000E+00 0. -1.
         22    1    1    0    0    0 -0.28661963698E+02 -0.17371320116E+01 -0.89598764049E+01  0.30079979652E+02  0.00000000000E+00 0.  1.
</event>
<event>
 5    1  0.1262391E-009  0.9118800E+02  0.7815553E-02  0.1125453E+00
         25   -1    0    0    0    0  0.00000000000E+00  0.00000000000E+00  0.99999998245E-14  0.12509000000E+03  0.12509000000E+03 0.  0.
        -13    1    3    3    0    0  0.24324465159E+02 -0.12030759975E+02 -0.37640998376E+02  0.46403391186E+02  0.10566000000E+00 0. -1.
         23    2    1    0    0    0 -0.36881867512E+01  0.23246925533E+02 -0.17560938539E+02  0.95723201900E+02  0.91107203620E+02 0.  0.
         13    1    3    3    0    0 -0.28012651910E+02  0.35277685508E+02  0.20080059836E+02  0.49319810714E+02  0.10566000000E+00 0.  1.
         22    1    1    0    0    0  0.36881867512E+01 -0.23246925533E+02  0.17560938539E+02  0.29366798100E+02  0.00000000000E+00 0. -1.
</event>
<event>
 5    1  0.1262391E-009  0.9118800E+02  0.7815553E-02  0.1125453E+00
         25   -1    0    0    0    0  0.00000000000E+00  0.00000000000E+00  0.99999998245E-14  0.12509000000E+03  0.12509000000E+03 0.  0.
        -13    1    3    3    0    0  0.43209593604E+02  0.12274184192E+02 -0.26008786843E+02  0.51905613705E+02  0.10566000000E+00 0. -1.
         23    2    1    0    0    0  0.22385518724E+02 -0.19929492667E+02 -0.96019745871E+01  0.93617884684E+02  0.88169236643E+02 0.  0.
         13    1    3    3    0    0 -0.20824074880E+02 -0.32203676858E+02  0.16406812256E+02  0.41712270979E+02  0.10566000000E+00 0.  1.
         22    1    1    0    0    0 -0.22385518724E+02  0.19929492667E+02  0.96019745871E+01  0.31472115316E+02  0.00000000000E+00 0. -1.
</event>
<event>
 5    1  0.1262391E-009  0.9118800E+02  0.7815553E-02  0.1125453E+00
         25   -1    0    0    0    0  0.00000000000E+00  0.00000000000E+00  0.99999998245E-14  0.12509000000E+03  0.12509000000E+03 0.  0.
        -13    1    3    3    0    0 -0.29392605327E+01 -0.51144072490E+02 -0.35368425635E+02  0.62251844144E+02  0.10566000000E+00 0.  1.
         23    2    1    0    0    0 -0.39820594774E+01 -0.18636793562E+02 -0.16686506961E+02  0.99759654829E+02  0.96490218909E+02 0.  0.
         13    1    3    3    0    0 -0.10427989447E+01  0.32507278929E+02  0.18681918674E+02  0.37507810685E+02  0.10566000000E+00 0. -1.
         22    1    1    0    0    0  0.39820594774E+01  0.18636793562E+02  0.16686506961E+02  0.25330345171E+02  0.00000000000E+00 0.  1.
</event>
<event>
 5    1  0.1262391E-009  0.9118800E+02  0.7815553E-02  0.1125453E+00
         25   -1    0    0    0    0  0.00000000000E+00  0.00000000000E+00  0.99999998245E-14  0.12509000000E+03  0.12509000000E+03 0.  0.
        -13    1    3    3    0    0 -0.38099708210E+02 -0.23975961357E+02 -0.56710741438E+01  0.45371871624E+02  0.10566000000E+00 0. -1.
         23    2    1    0    0    0 -0.35579193984E+02 -0.12451326086E+01 -0.29833365740E+02  0.78641543501E+02  0.63458909958E+02 0.  0.
         13    1    3    3    0    0  0.25205142264E+01  0.22730828749E+02 -0.24162291597E+02  0.33269671877E+02  0.10566000000E+00 0.  1.
         22    1    1    0    0    0  0.35579193984E+02  0.12451326086E+01  0.29833365740E+02  0.46448456499E+02  0.00000000000E+00 0. -1.
</event>
<event>
 5    1  0.1262391E-009  0.9118800E+02  0.7815553E-02  0.1125453E+00
         25   -1    0    0    0    0  0.00000000000E+00  0.00000000000E+00  0.99999998245E-14  0.12509000000E+03  0.12509000000E+03 0.  0.
        -13    1    3    3    0    0 -0.20411165607E+02  0.57263289706E+02 -0.97378765359E+01  0.61567340635E+02  0.10566000000E+00 0. -1.
         23    2    1    0    0    0 -0.12418989943E+02  0.24402199263E+02 -0.11408333768E+02  0.95427755995E+02  0.90700649914E+02 0.  0.
         13    1    3    3    0    0  0.79921756642E+01 -0.32861090443E+02 -0.16704572321E+01  0.33860415360E+02  0.10566000000E+00 0.  1.
         22    1    1    0    0    0  0.12418989943E+02 -0.24402199263E+02  0.11408333768E+02  0.29662244005E+02  0.00000000000E+00 0. -1.
</event>
<event>
 5    1  0.1262391E-009  0.9118800E+02  0.7815553E-02  0.1125453E+00
         25   -1    0    0    0    0  0.00000000000E+00  0.00000000000E+00  0.99999998245E-14  0.12509000000E+03  0.12509000000E+03 0.  0.
        -13    1    3    3    0    0 -0.20179163171E+02  0.82476207542E+01  0.29277781307E+02  0.36502349468E+02  0.10566000000E+00 0.  1.
         23    2    1    0    0    0  0.11286725611E+02 -0.33322413174E+01 -0.23372249456E+02  0.98922156148E+02  0.95398306720E+02 0.  0.
         13    1    3    3    0    0  0.31465888782E+02 -0.11579862072E+02 -0.52650030764E+02  0.62419806680E+02  0.10566000000E+00 0. -1.
         22    1    1    0    0    0 -0.11286725611E+02  0.33322413174E+01  0.23372249456E+02  0.26167843852E+02  0.00000000000E+00 0. -1.
</event>
<event>
 5    1  0.1262391E-009  0.9118800E+02  0.7815553E-02  0.1125453E+00
         25   -1    0    0    0    0  0.00000000000E+00  0.00000000000E+00  0.99999998245E-14  0.12509000000E+03  0.12509000000E+03 0.  0.
        -13    1    3    3    0    0 -0.13727367936E+02  0.33197394942E+02  0.14446632143E+02  0.38719814123E+02  0.10566000000E+00 0.  1.
         23    2    1    0    0    0  0.14026661235E+01  0.30974663908E+01 -0.30227091308E+02  0.94672261437E+02  0.89652653426E+02 0.  0.
         13    1    3    3    0    0  0.15130034059E+02 -0.30099928551E+02 -0.44673723452E+02  0.55952447315E+02  0.10566000000E+00 0. -1.
         22    1    1    0    0    0 -0.14026661235E+01 -0.30974663908E+01  0.30227091308E+02  0.30417738563E+02  0.00000000000E+00 0. -1.
</event>
<event>
 5    1  0.1262391E-009  0.9118800E+02  0.7815553E-02  0.1125453E+00
         25   -1    0    0    0    0  0.00000000000E+00  0.00000000000E+00  0.99999998245E-14  0.12509000000E+03  0.12509000000E+03 0.  0.
        -13    1    3    3    0    0  0.35307268154E+02 -0.33166449080E+02 -0.38268007340E+02  0.61733848729E+02  0.10566000000E+00 0. -1.
         23    2    1    0    0    0  0.21913019051E+02 -0.11206967162E+02 -0.16208395709E+02  0.95619869218E+02  0.90965217423E+02 0.  0.
         13    1    3    3    0    0 -0.13394249104E+02  0.21959481919E+02  0.22059611631E+02  0.33886020488E+02  0.10566000000E+00 0.  1.
         22    1    1    0    0    0 -0.21913019051E+02  0.11206967162E+02  0.16208395709E+02  0.29470130782E+02  0.00000000000E+00 0. -1.
</event>
<event>
 5    1  0.1262391E-009  0.9118800E+02  0.7815553E-02  0.1125453E+00
         25   -1    0    0    0    0  0.00000000000E+00  0.00000000000E+00  0.99999998245E-14  0.12509000000E+03  0.12509000000E+03 0.  0.
        -13    1    3    3    0    0  0.30265926491E+01  0.67516926049E+01 -0.37907448704E+02  0.38622939393E+02  0.10566000000E+00 0.  1.
         23    2    1    0    0    0  0.17809301257E+02 -0.14374376273E+02  0.15170256737E+02  0.97632203403E+02  0.93691603398E+02 0.  0.
         13    1    3    3    0    0  0.14782708608E+02 -0.21126068878E+02  0.53077705441E+02  0.59009264009E+02  0.10566000000E+00 0. -1.
         22    1    1    0    0    0 -0.17809301257E+02  0.14374376273E+02 -0.15170256737E+02  0.27457796597E+02  0.00000000000E+00 0. -1.
</event>
<event>
 5    1  0.1262391E-009  0.9118800E+02  0.7815553E-02  0.1125453E+00
         25   -1    0    0    0    0  0.00000000000E+00  0.00000000000E+00  0.99999998245E-14  0.12509000000E+03  0.12509000000E+03 0.  0.
        -13    1    3    3    0    0  0.28841165361E+02 -0.30961344801E+02 -0.29083262766E+02  0.51344571558E+02  0.10566000000E+00 0. -1.
         23    2    1    0    0    0 -0.43976924859E+01  0.80395088568E+00 -0.27374217466E+02  0.97353132511E+02  0.93318265048E+02 0.  0.
         13    1    3    3    0    0 -0.33238857847E+02  0.31765295687E+02  0.17090452996E+01  0.46008560953E+02  0.10566000000E+00 0.  1.
         22    1    1    0    0    0  0.43976924859E+01 -0.80395088568E+00  0.27374217466E+02  0.27736867489E+02  0.00000000000E+00 0. -1.
</event>
<event>
 5    1  0.1262391E-009  0.9118800E+02  0.7815553E-02  0.1125453E+00
         25   -1    0    0    0    0  0.00000000000E+00  0.00000000000E+00  0.99999998245E-14  0.12509000000E+03  0.12509000000E+03 0.  0.
        -13    1    3    3    0    0  0.32265478345E+02 -0.45114763100E+02  0.21074953556E+02  0.59334372617E+02  0.10566000000E+00 0.  1.
         23    2    1    0    0    0  0.12874713355E+02 -0.25032982589E+02 -0.37498464352E+01  0.96691587905E+02  0.92427232794E+02 0.  0.
         13    1    3    3    0    0 -0.19390764990E+02  0.20081780512E+02 -0.24824799991E+02  0.37357215288E+02  0.10566000000E+00 0. -1.
         22    1    1    0    0    0 -0.12874713355E+02  0.25032982589E+02  0.37498464352E+01  0.28398412095E+02  0.00000000000E+00 0.  1.
</event>
<event>
 5    1  0.1262391E-009  0.9118800E+02  0.7815553E-02  0.1125453E+00
         25   -1    0    0    0    0  0.00000000000E+00  0.00000000000E+00  0.99999998245E-14  0.12509000000E+03  0.12509000000E+03 0.  0.
        -13    1    3    3    0    0 -0.57332248572E+02 -0.21526681126E+01  0.15248255586E+02  0.59364477331E+02  0.10566000000E+00 0.  1.
         23    2    1    0    0    0 -0.26263216127E+02  0.12871383817E+02  0.45874805213E+01  0.95484696079E+02  0.90779144990E+02 0.  0.
         13    1    3    3    0    0  0.31069032445E+02  0.15024051930E+02 -0.10660775064E+02  0.36120218749E+02  0.10566000000E+00 0. -1.
         22    1    1    0    0    0  0.26263216127E+02 -0.12871383817E+02 -0.45874805213E+01  0.29605303921E+02  0.00000000000E+00 0.  1.
</event>
<event>
 5    1  0.1262391E-009  0.9118800E+02  0.7815553E-02  0.1125453E+00
         25   -1    0    0    0    0  0.00000000000E+00  0.00000000000E+00  0.99999998245E-14  0.12509000000E+03  0.12509000000E+03 0.  0.
        -13    1    3    3    0    0 -0.97734734774E+01  0.28266088234E+02  0.54742366058E+02  0.62379726943E+02  0.10566000000E+00 0.  1.
         23    2    1    0    0    0 -0.18278694108E+01  0.14872095193E+02  0.25368540965E+02  0.95626748436E+02  0.90974676827E+02 0.  0.
         13    1    3    3    0    0  0.79456040666E+01 -0.13393993041E+02 -0.29373825093E+02  0.33247021493E+02  0.10566000000E+00 0. -1.
         22    1    1    0    0    0  0.18278694108E+01 -0.14872095193E+02 -0.25368540965E+02  0.29463251564E+02  0.00000000000E+00 0.  1.
</event>
<event>
 5    1  0.1262391E-009  0.9118800E+02  0.7815553E-02  0.1125453E+00
         25   -1    0    0    0    0  0.00000000000E+00  0.00000000000E+00  0.99999998245E-14  0.12509000000E+03  0.12509000000E+03 0.  0.
        -13    1    3    3    0    0 -0.16004891079E+02  0.17610440238E+02 -0.45004557623E+02  0.50908796045E+02  0.10566000000E+00 0. -1.
         23    2    1    0    0    0  0.11706346599E+02 -0.11172713039E+02 -0.24260252473E+02  0.95927902726E+02  0.91387825251E+02 0.  0.
         13    1    3    3    0    0  0.27711237679E+02 -0.28783153276E+02  0.20744305150E+02  0.45019106682E+02  0.10566000000E+00 0.  1.
         22    1    1    0    0    0 -0.11706346599E+02  0.11172713039E+02  0.24260252473E+02  0.29162097274E+02  0.00000000000E+00 0. -1.
</event>
<event>
 5    1  0.1262391E-009  0.9118800E+02  0.7815553E-02  0.1125453E+00
         25   -1    0    0    0    0  0.00000000000E+00  0.00000000000E+00  0.99999998245E-14  0.12509000000E+03  0.12509000000E+03 0.  0.
        -13    1    3    3    0    0 -0.30693162542E+02  0.21659279061E+02  0.71462486033E-01  0.37566086663E+02  0.10566000000E+00 0.  1.
         23    2    1    0    0    0  0.21680119831E+02  0.30128620444E+01 -0.18759544300E+02  0.96262488211E+02  0.91844657987E+02 0.  0.
         13    1    3    3    0    0  0.52373282373E+02 -0.18646417017E+02 -0.18831006786E+02  0.58696401548E+02  0.10566000000E+00 0. -1.
         22    1    1    0    0    0 -0.21680119831E+02 -0.30128620444E+01  0.18759544300E+02  0.28827511789E+02  0.00000000000E+00 0. -1.
</event>
<event>
 5    1  0.1262391E-009  0.9118800E+02  0.7815553E-02  0.1125453E+00
         25   -1    0    0    0    0  0.00000000000E+00  0.00000000000E+00  0.99999998245E-14  0.12509000000E+03  0.12509000000E+03 0.  0.
        -13    1    3    3    0    0 -0.20145392104E+02  0.46129131277E+02 -0.10912836006E+02  0.51505676669E+02  0.10566000000E+00 0.  1.
         23    2    1    0    0    0  0.13839501450E+01  0.22803421365E+02  0.19191297136E+02  0.95253491664E+02  0.90459993613E+02 0.  0.
         13    1    3    3    0    0  0.21529342249E+02 -0.23325709913E+02  0.30104133142E+02  0.43747814995E+02  0.10566000000E+00 0. -1.
         22    1    1    0    0    0 -0.13839501450E+01 -0.22803421365E+02 -0.19191297136E+02  0.29836508336E+02  0.00000000000E+00 0.  1.
</event>
<event>
 5    1  0.1262391E-009  0.9118800E+02  0.7815553E-02  0.1125453E+00
         25   -1    0    0    0    0  0.00000000000E+00  0.00000000000E+00  0.99999998245E-14  0.12509000000E+03  0.12509000000E+03 0.  0.
        -13    1    3    3    0    0  0.45805246301E+02 -0.32843383368E+02 -0.87076435699E+01  0.57031944034E+02  0.10566000000E+00 0.  1.
         23    2    1    0    0    0  0.10821591524E+02 -0.20436047758E+02 -0.18562714698E+02  0.95436783176E+02  0.90713098916E+02 0.  0.
         13    1    3    3    0    0 -0.34983654777E+02  0.12407335610E+02 -0.98550711280E+01  0.38404839142E+02  0.10566000000E+00 0. -1.
         22    1    1    0    0    0 -0.10821591524E+02  0.20436047758E+02  0.18562714698E+02  0.29653216824E+02  0.00000000000E+00 0.  1.
</event>
<event>
 5    1  0.1262391E-009  0.9118800E+02  0.7815553E-02  0.1125453E+00
         25   -1    0    0    0    0  0.00000000000E+00  0.00000000000E+00  0.99999998245E-14  0.12509000000E+03  0.12509000000E+03 0.  0.
        -13    1    3    3    0    0  0.13543892463E+02 -0.34147144758E+02  0.21345215362E+02  0.42486396659E+02  0.10566000000E+00 0.  1.
         23    2    1    0    0    0  0.31866336905E+02  0.37638276450E+01 -0.56571050818E+01  0.92507295014E+02  0.86579252518E+02 0.  0.
         13    1    3    3    0    0  0.18322444442E+02  0.37910972403E+02 -0.27002320443E+02  0.50020898355E+02  0.10566000000E+00 0. -1.
         22    1    1    0    0    0 -0.31866336905E+02 -0.37638276450E+01  0.56571050818E+01  0.32582704986E+02  0.00000000000E+00 0.  1.
</event>
<event>
 5    1  0.1262391E-009  0.9118800E+02  0.7815553E-02  0.1125453E+00
         25   -1    0    0    0    0  0.00000000000E+00  0.00000000000E+00  0.99999998245E-14  0.12509000000E+03  0.12509000000E+03 0.  0.
        -13    1    3    3    0    0 -0.27343258314E+02  0.11873982589E+00  0.51058044871E+02  0.57918934594E+02  0.10566000000E+00 0. -1.
         23    2    1    0    0    0 -0.14868281740E+02  0.16392534482E+02  0.19278761636E+02  0.95739503601E+02  0.91129583072E+02 0.  0.
         13    1    3    3    0    0  0.12474976574E+02  0.16273794657E+02 -0.31779283235E+02  0.37820569007E+02  0.10566000000E+00 0.  1.
         22    1    1    0    0    0  0.14868281740E+02 -0.16392534482E+02 -0.19278761636E+02  0.29350496399E+02  0.00000000000E+00 0. -1.
</event>
<event>
 5    1  0.1262391E-009  0.9118800E+02  0.7815553E-02  0.1125453E+00
         25   -1    0    0    0    0  0.00000000000E+00  0.00000000000E+00  0.99999998245E-14  0.12509000000E+03  0.12509000000E+03 0.  0.
        -13    1    3    3    0    0 -0.21389979919E+02 -0.16418980340E+02 -0.38408435853E+02  0.46929023696E+02  0.10566000000E+00 0.  1.
         23    2    1    0    0    0 -0.14986315501E+02 -0.19818098447E+02  0.11747517326E+02  0.97606353196E+02  0.93657083782E+02 0.  0.
         13    1    3    3    0    0  0.64036644189E+01 -0.33991181068E+01  0.50155953179E+02  0.50677329500E+02  0.10566000000E+00 0. -1.
         22    1    1    0    0    0  0.14986315501E+02  0.19818098447E+02 -0.11747517326E+02  0.27483646804E+02  0.00000000000E+00 0. -1.
</event>
<event>
 5    1  0.1262391E-009  0.9118800E+02  0.7815553E-02  0.1125453E+00
         25   -1    0    0    0    0  0.00000000000E+00  0.00000000000E+00  0.99999998245E-14  0.12509000000E+03  0.12509000000E+03 0.  0.
        -13    1    3    3    0    0 -0.18462756691E+02  0.24202190863E+01 -0.42587131066E+02  0.46480165034E+02  0.10566000000E+00 0.  1.
         23    2    1    0    0    0  0.27526643754E+01 -0.27684815661E+02 -0.10413831105E+02  0.95383535087E+02  0.90639642034E+02 0.  0.
         13    1    3    3    0    0  0.21215421066E+02 -0.30105034747E+02  0.32173299962E+02  0.48903370054E+02  0.10566000000E+00 0. -1.
         22    1    1    0    0    0 -0.27526643754E+01  0.27684815661E+02  0.10413831105E+02  0.29706464913E+02  0.00000000000E+00 0. -1.
</event>
<event>
 5    1  0.1262391E-009  0.9118800E+02  0.7815553E-02  0.1125453E+00
         25   -1    0    0    0    0  0.00000000000E+00  0.00000000000E+00  0.99999998245E-14  0.12509000000E+03  0.12509000000E+03 0.  0.
        -13    1    3    3    0    0  0.47600667429E+02 -0.21053513310E+02  0.10427184964E+01  0.52059316057E+02  0.10566000000E+00 0. -1.
         23    2    1    0    0    0  0.22665384238E+02 -0.25800726091E+01 -0.24031022093E+02  0.91955932333E+02  0.85778942936E+02 0.  0.
         13    1    3    3    0    0 -0.24935283191E+02  0.18473440701E+02 -0.25073740589E+02  0.39896616277E+02  0.10566000000E+00 0.  1.
         22    1    1    0    0    0 -0.22665384238E+02  0.25800726091E+01  0.24031022093E+02  0.33134067667E+02  0.00000000000E+00 0. -1.
</event>
<event>
 5    1  0.1262391E-009  0.9118800E+02  0.7815553E-02  0.1125453E+00
         25   -1    0    0    0    0  0.00000000000E+00  0.00000000000E+00  0.99999998245E-14  0.12509000000E+03  0.12509000000E+03 0.  0.
        -13    1    3    3    0    0  0.55413408509E+01  0.53055864892E+02  0.85539164145E+01  0.54026029911E+02  0.10566000000E+00 0. -1.
         23    2    1    0    0    0 -0.13751120559E+02  0.18440160416E+02 -0.12510148773E+02  0.98905335498E+02  0.95376248274E+02 0.  0.
         13    1    3    3    0    0 -0.19292461410E+02 -0.34615704477E+02 -0.21064065188E+02  0.44879305587E+02  0.10566000000E+00 0.  1.
         22    1    1    0    0    0  0.13751120559E+02 -0.18440160416E+02  0.12510148773E+02  0.26184664502E+02  0.00000000000E+00 0.  1.
</event>
<event>
 5    1  0.1262391E-009  0.9118800E+02  0.7815553E-02  0.1125453E+00
         25   -1    0    0    0    0  0.00000000000E+00  0.00000000000E+00  0.99999998245E-14  0.12509000000E+03  0.12509000000E+03 0.  0.
        -13    1    3    3    0    0 -0.51155440666E+02  0.15443907792E+02  0.13628661636E+02  0.55146577225E+02  0.10566000000E+00 0.  1.
         23    2    1    0    0    0 -0.11891126526E+02  0.24254494299E+02  0.12298796556E+02  0.95409370281E+02  0.90675289671E+02 0.  0.
         13    1    3    3    0    0  0.39264314140E+02  0.88105865075E+01 -0.13298650800E+01  0.40262793056E+02  0.10566000000E+00 0. -1.
         22    1    1    0    0    0  0.11891126526E+02 -0.24254494299E+02 -0.12298796556E+02  0.29680629719E+02  0.00000000000E+00 0.  1.
</event>
<event>
 5    1  0.1262391E-009  0.9118800E+02  0.7815553E-02  0.1125453E+00
         25   -1    0    0    0    0  0.00000000000E+00  0.00000000000E+00  0.99999998245E-14  0.12509000000E+03  0.12509000000E+03 0.  0.
        -13    1    3    3    0    0  0.89161910822E+00 -0.29653421570E+02 -0.19608052164E+02  0.35561317033E+02  0.10566000000E+00 0. -1.
         23    2    1    0    0    0 -0.13896931140E+02  0.10719361763E+02  0.23043516887E+02  0.96123932227E+02  0.91655754126E+02 0.  0.
         13    1    3    3    0    0 -0.14788550248E+02  0.40372783333E+02  0.42651569051E+02  0.60562615193E+02  0.10566000000E+00 0.  1.
         22    1    1    0    0    0  0.13896931140E+02 -0.10719361763E+02 -0.23043516887E+02  0.28966067773E+02  0.00000000000E+00 0.  1.
</event>
<event>
 5    1  0.1262391E-009  0.9118800E+02  0.7815553E-02  0.1125453E+00
         25   -1    0    0    0    0  0.00000000000E+00  0.00000000000E+00  0.99999998245E-14  0.12509000000E+03  0.12509000000E+03 0.  0.
        -13    1    3    3    0    0 -0.18749043531E+02 -0.44429826948E+02  0.15453940999E+02  0.50639624924E+02  0.10566000000E+00 0.  1.
         23    2    1    0    0    0  0.18332988865E+02 -0.22662038909E+02  0.11255965271E+02  0.93843188284E+02  0.88488308521E+02 0.  0.
         13    1    3    3    0    0  0.37082032396E+02  0.21767788039E+02 -0.41979757283E+01  0.43203563360E+02  0.10566000000E+00 0. -1.
         22    1    1    0    0    0 -0.18332988865E+02  0.22662038909E+02 -0.11255965271E+02  0.31246811716E+02  0.00000000000E+00 0.  1.
</event>
<event>
 5    1  0.1262391E-009  0.9118800E+02  0.7815553E-02  0.1125453E+00
         25   -1    0    0    0    0  0.00000000000E+00  0.00000000000E+00  0.99999998245E-14  0.12509000000E+03  0.12509000000E+03 0.  0.
        -13    1    3    3    0    0  0.20471731660E+02  0.10204376768E+02  0.52815876031E+02  0.57556485537E+02  0.10566000000E+00 0.  1.
         23    2    1    0    0    0 -0.77743476028E+01  0.10123027606E+02  0.23996293135E+02  0.97910260252E+02  0.94062111447E+02 0.  0.
         13    1    3    3    0    0 -0.28246079263E+02 -0.81349162473E-01 -0.28819582896E+02  0.40353774715E+02  0.10566000000E+00 0. -1.
         22    1    1    0    0    0  0.77743476028E+01 -0.10123027606E+02 -0.23996293135E+02  0.27179739748E+02  0.00000000000E+00 0.  1.
</event>
<event>
 5    1  0.1262391E-009  0.9118800E+02  0.7815553E-02  0.1125453E+00
         25   -1    0    0    0    0  0.00000000000E+00  0.00000000000E+00  0.99999998245E-14  0.12509000000E+03  0.12509000000E+03 0.  0.
        -13    1    3    3    0    0  0.24018912732E+02 -0.26509292772E+02 -0.29485919085E+02  0.46358185474E+02  0.10566000000E+00 0.  1.
         23    2    1    0    0    0 -0.15194609868E+02 -0.25266359104E+02  0.28030980108E+00  0.95605365951E+02  0.90945271200E+02 0.  0.
         13    1    3    3    0    0 -0.39213522600E+02  0.12429336677E+01  0.29766228886E+02  0.49247180477E+02  0.10566000000E+00 0. -1.
         22    1    1    0    0    0  0.15194609868E+02  0.25266359104E+02 -0.28030980108E+00  0.29484634049E+02  0.00000000000E+00 0.  1.
</event>
<event>
 5    1  0.1262391E-009  0.9118800E+02  0.7815553E-02  0.1125453E+00
         25   -1    0    0    0    0  0.00000000000E+00  0.00000000000E+00  0.99999998245E-14  0.12509000000E+03  0.12509000000E+03 0.  0.
        -13    1    3    3    0    0 -0.59443052126E+01 -0.24345100633E+02  0.11877849612E+02  0.27732889585E+02  0.10566000000E+00 0. -1.
         23    2    1    0    0    0 -0.19500454292E+02  0.32657639545E+02  0.48355640174E+01  0.86747180364E+02  0.77813247480E+02 0.  0.
         13    1    3    3    0    0 -0.13556149080E+02  0.57002740178E+02 -0.70422855944E+01  0.59014290779E+02  0.10566000000E+00 0.  1.
         22    1    1    0    0    0  0.19500454292E+02 -0.32657639545E+02 -0.48355640174E+01  0.38342819636E+02  0.00000000000E+00 0.  1.
</event>
<event>
 5    1  0.1262391E-009  0.9118800E+02  0.7815553E-02  0.1125453E+00
         25   -1    0    0    0    0  0.00000000000E+00  0.00000000000E+00  0.99999998245E-14  0.12509000000E+03  0.12509000000E+03 0.  0.
        -13    1    3    3    0    0  0.36556188958E+02 -0.19497428382E+02  0.13500987355E+02  0.43575136124E+02  0.10566000000E+00 0. -1.
         23    2    1    0    0    0 -0.16260205294E+02 -0.14081558731E+02  0.18250622416E+02  0.96880608105E+02  0.92682697608E+02 0.  0.
         13    1    3    3    0    0 -0.52816394252E+02  0.54158696509E+01  0.47496350610E+01  0.53305471981E+02  0.10566000000E+00 0.  1.
         22    1    1    0    0    0  0.16260205294E+02  0.14081558731E+02 -0.18250622416E+02  0.28209391895E+02  0.00000000000E+00 0.  1.
</event>
<event>
 5    1  0.1262391E-009  0.9118800E+02  0.7815553E-02  0.1125453E+00
         25   -1    0    0    0    0  0.00000000000E+00  0.00000000000E+00  0.99999998245E-14  0.12509000000E+03  0.12509000000E+03 0.  0.
        -13    1    3    3    0    0 -0.31521535638E+02 -0.12992170174E+02  0.24089133631E+02  0.41745673044E+02  0.10566000000E+00 0.  1.
         23    2    1    0    0    0  0.23332135435E+02 -0.78788135733E+01  0.90518935635E+01  0.98852602561E+02  0.95307061694E+02 0.  0.
         13    1    3    3    0    0  0.54853671073E+02  0.51133566004E+01 -0.15037240067E+02  0.57106929517E+02  0.10566000000E+00 0. -1.
         22    1    1    0    0    0 -0.23332135435E+02  0.78788135733E+01 -0.90518935635E+01  0.26237397439E+02  0.00000000000E+00 0.  1.
</event>
<event>
 5    1  0.1262391E-009  0.9118800E+02  0.7815553E-02  0.1125453E+00
         25   -1    0    0    0    0  0.00000000000E+00  0.00000000000E+00  0.99999998245E-14  0.12509000000E+03  0.12509000000E+03 0.  0.
        -13    1    3    3    0    0 -0.10058697586E+02 -0.10491289113E+02  0.32598093699E+02  0.35691615559E+02  0.10566000000E+00 0. -1.
         23    2    1    0    0    0 -0.16202787746E+02 -0.37233635995E+00 -0.25440677209E+02  0.94925500635E+02  0.90005297893E+02 0.  0.
         13    1    3    3    0    0 -0.61440901598E+01  0.10118952753E+02 -0.58038770907E+02  0.59233885076E+02  0.10566000000E+00 0.  1.
         22    1    1    0    0    0  0.16202787746E+02  0.37233635995E+00  0.25440677209E+02  0.30164499365E+02  0.00000000000E+00 0.  1.
</event>
<event>
 5    1  0.1262391E-009  0.9118800E+02  0.7815553E-02  0.1125453E+00
         25   -1    0    0    0    0  0.00000000000E+00  0.00000000000E+00  0.99999998245E-14  0.12509000000E+03  0.12509000000E+03 0.  0.
        -13    1    3    3    0    0 -0.45231455971E+02  0.17020069052E+02  0.16741957550E+02  0.51145592835E+02  0.10566000000E+00 0.  1.
         23    2    1    0    0    0 -0.33583265762E+01  0.18831459456E+02  0.24743244204E+02  0.93814924359E+02  0.88448344677E+02 0.  0.
         13    1    3    3    0    0  0.41873129395E+02  0.18113904042E+01  0.80012866540E+01  0.42669331524E+02  0.10566000000E+00 0. -1.
         22    1    1    0    0    0  0.33583265762E+01 -0.18831459456E+02 -0.24743244204E+02  0.31275075641E+02  0.00000000000E+00 0.  1.
</event>
<event>
 5    1  0.1262391E-009  0.9118800E+02  0.7815553E-02  0.1125453E+00
         25   -1    0    0    0    0  0.00000000000E+00  0.00000000000E+00  0.99999998245E-14  0.12509000000E+03  0.12509000000E+03 0.  0.
        -13    1    3    3    0    0 -0.48313127350E+02 -0.19985201910E+02  0.33529280833E+02  0.62111113393E+02  0.10566000000E+00 0. -1.
         23    2    1    0    0    0 -0.20089292797E+02 -0.13900628696E+02  0.15960977412E+02  0.95908499642E+02  0.91361262799E+02 0.  0.
         13    1    3    3    0    0  0.28223834553E+02  0.60845732140E+01 -0.17568303421E+02  0.33797386248E+02  0.10566000000E+00 0.  1.
         22    1    1    0    0    0  0.20089292797E+02  0.13900628696E+02 -0.15960977412E+02  0.29181500358E+02  0.00000000000E+00 0. -1.
</event>
<event>
 5    1  0.1262391E-009  0.9118800E+02  0.7815553E-02  0.1125453E+00
         25   -1    0    0    0    0  0.00000000000E+00  0.00000000000E+00  0.99999998245E-14  0.12509000000E+03  0.12509000000E+03 0.  0.
        -13    1    3    3    0    0 -0.21052847295E+02  0.12646788124E+02  0.28621480023E+02  0.37714240174E+02  0.10566000000E+00 0.  1.
         23    2    1    0    0    0 -0.64532207789E+01 -0.13669247285E+02 -0.23058681609E+02  0.97518362811E+02  0.93539488496E+02 0.  0.
         13    1    3    3    0    0  0.14599626516E+02 -0.26316035409E+02 -0.51680161632E+02  0.59804122637E+02  0.10566000000E+00 0. -1.
         22    1    1    0    0    0  0.64532207789E+01  0.13669247285E+02  0.23058681609E+02  0.27571637189E+02  0.00000000000E+00 0. -1.
</event>
<event>
 5    1  0.1262391E-009  0.9118800E+02  0.7815553E-02  0.1125453E+00
         25   -1    0    0    0    0  0.00000000000E+00  0.00000000000E+00  0.99999998245E-14  0.12509000000E+03  0.12509000000E+03 0.  0.
        -13    1    3    3    0    0  0.53000823763E+02  0.29560915618E+02 -0.95604093717E+01  0.61435719602E+02  0.10566000000E+00 0. -1.
         23    2    1    0    0    0  0.22710938606E+02  0.14961985744E+02 -0.12440018823E+02  0.95183448576E+02  0.90363084635E+02 0.  0.
         13    1    3    3    0    0 -0.30289885156E+02 -0.14598929874E+02 -0.28796094511E+01  0.33747728974E+02  0.10566000000E+00 0.  1.
         22    1    1    0    0    0 -0.22710938606E+02 -0.14961985744E+02  0.12440018823E+02  0.29906551424E+02  0.00000000000E+00 0. -1.
</event>
<event>
 5    1  0.1262391E-009  0.9118800E+02  0.7815553E-02  0.1125453E+00
         25   -1    0    0    0    0  0.00000000000E+00  0.00000000000E+00  0.99999998245E-14  0.12509000000E+03  0.12509000000E+03 0.  0.
        -13    1    3    3    0    0  0.22432793261E+02  0.28241242088E+02 -0.38673175823E+02  0.52881222191E+02  0.10566000000E+00 0.  1.
         23    2    1    0    0    0 -0.11874766546E+02  0.23115437726E+02 -0.13028852958E+02  0.96019662004E+02  0.91513337498E+02 0.  0.
         13    1    3    3    0    0 -0.34307559807E+02 -0.51258043615E+01  0.25644322864E+02  0.43138439813E+02  0.10566000000E+00 0. -1.
         22    1    1    0    0    0  0.11874766546E+02 -0.23115437726E+02  0.13028852958E+02  0.29070337996E+02  0.00000000000E+00 0.  1.
</event>
<event>
 5    1  0.1262391E-009  0.9118800E+02  0.7815553E-02  0.1125453E+00
         25   -1    0    0    0    0  0.00000000000E+00  0.00000000000E+00  0.99999998245E-14  0.12509000000E+03  0.12509000000E+03 0.  0.
        -13    1    3    3    0    0  0.39691391305E+02  0.20090434105E+02  0.74047962504E+01  0.45098495073E+02  0.10566000000E+00 0. -1.
         23    2    1    0    0    0  0.17239296679E+02 -0.24356955294E+02  0.34237519922E+01  0.95053743594E+02  0.90183354741E+02 0.  0.
         13    1    3    3    0    0 -0.22452094626E+02 -0.44447389398E+02 -0.39810442582E+01  0.49955248522E+02  0.10566000000E+00 0.  1.
         22    1    1    0    0    0 -0.17239296679E+02  0.24356955294E+02 -0.34237519922E+01  0.30036256406E+02  0.00000000000E+00 0.  1.
</event>
<event>
 5    1  0.1262391E-009  0.9118800E+02  0.7815553E-02  0.1125453E+00
         25   -1    0    0    0    0  0.00000000000E+00  0.00000000000E+00  0.99999998245E-14  0.12509000000E+03  0.12509000000E+03 0.  0.
        -13    1    3    3    0    0 -0.80519147223E+01  0.20801282455E+02 -0.25676734989E+02  0.34012241417E+02  0.10566000000E+00 0.  1.
         23    2    1    0    0    0 -0.36987658100E+01 -0.16523222871E+01  0.30320335117E+02  0.94500234406E+02  0.89412306445E+02 0.  0.
         13    1    3    3    0    0  0.43531489123E+01 -0.22453604742E+02  0.55997070107E+02  0.60487992989E+02  0.10566000000E+00 0. -1.
         22    1    1    0    0    0  0.36987658100E+01  0.16523222871E+01 -0.30320335117E+02  0.30589765594E+02  0.00000000000E+00 0. -1.
</event>
<event>
 5    1  0.1262391E-009  0.9118800E+02  0.7815553E-02  0.1125453E+00
         25   -1    0    0    0    0  0.00000000000E+00  0.00000000000E+00  0.99999998245E-14  0.12509000000E+03  0.12509000000E+03 0.  0.
        -13    1    3    3    0    0 -0.32001971939E+02  0.34418792725E+02  0.39785439572E+01  0.47165871949E+02  0.10566000000E+00 0.  1.
         23    2    1    0    0    0 -0.15876757325E+02 -0.70995062894E+00 -0.24993502019E+02  0.95471583496E+02  0.90761074581E+02 0.  0.
         13    1    3    3    0    0  0.16125214614E+02 -0.35128743354E+02 -0.28972045976E+02  0.48305711547E+02  0.10566000000E+00 0. -1.
         22    1    1    0    0    0  0.15876757325E+02  0.70995062894E+00  0.24993502019E+02  0.29618416504E+02  0.00000000000E+00 0.  1.
</event>
<event>
 5    1  0.1262391E-009  0.9118800E+02  0.7815553E-02  0.1125453E+00
         25   -1    0    0    0    0  0.00000000000E+00  0.00000000000E+00  0.99999998245E-14  0.12509000000E+03  0.12509000000E+03 0.  0.
        -13    1    3    3    0    0 -0.25959464712E+02  0.28688499580E+02  0.76890210083E+01  0.39446875977E+02  0.10566000000E+00 0.  1.
         23    2    1    0    0    0  0.23258811573E+02  0.82397139301E+01 -0.13689260246E+02  0.96871902128E+02  0.92670946766E+02 0.  0.
         13    1    3    3    0    0  0.49218276285E+02 -0.20448785650E+02 -0.21378281254E+02  0.57425026151E+02  0.10566000000E+00 0. -1.
         22    1    1    0    0    0 -0.23258811573E+02 -0.82397139301E+01  0.13689260246E+02  0.28218097872E+02  0.00000000000E+00 0. -1.
</event>
<event>
 5    1  0.1262391E-009  0.9118800E+02  0.7815553E-02  0.1125453E+00
         25   -1    0    0    0    0  0.00000000000E+00  0.00000000000E+00  0.99999998245E-14  0.12509000000E+03  0.12509000000E+03 0.  0.
        -13    1    3    3    0    0 -0.60950305050E+02 -0.10610859461E+02  0.51055402281E+01  0.62077433334E+02  0.10566000000E+00 0.  1.
         23    2    1    0    0    0 -0.29166290730E+02 -0.27917276464E+01 -0.25085762580E+01  0.95683211446E+02  0.91052280254E+02 0.  0.
         13    1    3    3    0    0  0.31784014320E+02  0.78191318149E+01 -0.76141164861E+01  0.33605778112E+02  0.10566000000E+00 0. -1.
         22    1    1    0    0    0  0.29166290730E+02  0.27917276464E+01  0.25085762580E+01  0.29406788554E+02  0.00000000000E+00 0.  1.
</event>
<event>
 5    1  0.1262391E-009  0.9118800E+02  0.7815553E-02  0.1125453E+00
         25   -1    0    0    0    0  0.00000000000E+00  0.00000000000E+00  0.99999998245E-14  0.12509000000E+03  0.12509000000E+03 0.  0.
        -13    1    3    3    0    0 -0.36426901535E+02  0.21617213845E+02  0.84738962362E+01  0.43197698681E+02  0.10566000000E+00 0. -1.
         23    2    1    0    0    0  0.14208313814E+02  0.13027431757E+02  0.21531392830E+02  0.96190328085E+02  0.91746325159E+02 0.  0.
         13    1    3    3    0    0  0.50635215349E+02 -0.85897820878E+01  0.13057496593E+02  0.52992629404E+02  0.10566000000E+00 0.  1.
         22    1    1    0    0    0 -0.14208313814E+02 -0.13027431757E+02 -0.21531392830E+02  0.28899671915E+02  0.00000000000E+00 0.  1.
</event>
<event>
 5    1  0.1262391E-009  0.9118800E+02  0.7815553E-02  0.1125453E+00
         25   -1    0    0    0    0  0.00000000000E+00  0.00000000000E+00  0.99999998245E-14  0.12509000000E+03  0.12509000000E+03 0.  0.
        -13    1    3    3    0    0  0.14502208203E+02 -0.16144595468E+02  0.33963423932E+02  0.40304929411E+02  0.10566000000E+00 0.  1.
         23    2    1    0    0    0  0.15451227857E+02 -0.14585414832E+02 -0.20951191572E+02  0.95249973251E+02  0.90455128146E+02 0.  0.
         13    1    3    3    0    0  0.94901965349E+00  0.15591806359E+01 -0.54914615504E+02  0.54945043840E+02  0.10566000000E+00 0. -1.
         22    1    1    0    0    0 -0.15451227857E+02  0.14585414832E+02  0.20951191572E+02  0.29840026749E+02  0.00000000000E+00 0. -1.
</event>
<event>
 5    1  0.1262391E-009  0.9118800E+02  0.7815553E-02  0.1125453E+00
         25   -1    0    0    0    0  0.00000000000E+00  0.00000000000E+00  0.99999998245E-14  0.12509000000E+03  0.12509000000E+03 0.  0.
        -13    1    3    3    0    0 -0.10123692158E+02 -0.24164249171E+02  0.18220740625E+02  0.31912483982E+02  0.10566000000E+00 0.  1.
         23    2    1    0    0    0 -0.13589921002E+02  0.31463207346E+02 -0.81094567418E+00  0.90807686744E+02  0.84087805118E+02 0.  0.
         13    1    3    3    0    0 -0.34662288434E+01  0.55627456517E+02 -0.19031686300E+02  0.58895202762E+02  0.10566000000E+00 0. -1.
         22    1    1    0    0    0  0.13589921002E+02 -0.31463207346E+02  0.81094567418E+00  0.34282313256E+02  0.00000000000E+00 0. -1.
</event>
<event>
 5    1  0.1262391E-009  0.9118800E+02  0.7815553E-02  0.1125453E+00
         25   -1    0    0    0    0  0.00000000000E+00  0.00000000000E+00  0.99999998245E-14  0.12509000000E+03  0.12509000000E+03 0.  0.
        -13    1    3    3    0    0  0.31802972331E+02  0.78808879244E+01  0.60127885821E+01  0.33312193475E+02  0.10566000000E+00 0.  1.
         23    2    1    0    0    0 -0.24897410282E+02 -0.13273797743E+02 -0.86453886498E+01  0.95580383090E+02  0.90910902214E+02 0.  0.
         13    1    3    3    0    0 -0.56700382613E+02 -0.21154685668E+02 -0.14658177232E+02  0.62268189615E+02  0.10566000000E+00 0. -1.
         22    1    1    0    0    0  0.24897410282E+02  0.13273797743E+02  0.86453886498E+01  0.29509616910E+02  0.00000000000E+00 0. -1.
</event>
<event>
 5    1  0.1262391E-009  0.9118800E+02  0.7815553E-02  0.1125453E+00
         25   -1    0    0    0    0  0.00000000000E+00  0.00000000000E+00  0.99999998245E-14  0.12509000000E+03  0.12509000000E+03 0.  0.
        -13    1    3    3    0    0  0.35373791608E+02  0.28823548266E+02  0.84856634521E+01  0.46412495253E+02  0.10566000000E+00 0.  1.
         23    2    1    0    0    0  0.26956823104E+02 -0.28920197271E+01 -0.21209583109E+02  0.90667906722E+02  0.83879608987E+02 0.  0.
         13    1    3    3    0    0 -0.84169685039E+01 -0.31715567994E+02 -0.29695246561E+02  0.44255411469E+02  0.10566000000E+00 0. -1.
         22    1    1    0    0    0 -0.26956823104E+02  0.28920197271E+01  0.21209583109E+02  0.34422093278E+02  0.00000000000E+00 0. -1.
</event>
<event>
 5    1  0.1262391E-009  0.9118800E+02  0.7815553E-02  0.1125453E+00
         25   -1    0    0    0    0  0.00000000000E+00  0.00000000000E+00  0.99999998245E-14  0.12509000000E+03  0.12509000000E+03 0.  0.
        -13    1    3    3    0    0 -0.47843276725E+01 -0.49267055630E+01  0.27915657199E+02  0.28748170374E+02  0.10566000000E+00 0. -1.
         23    2    1    0    0    0  0.10144505632E+02 -0.21119343445E+01 -0.32465368494E+02  0.91011100185E+02  0.84389862805E+02 0.  0.
         13    1    3    3    0    0  0.14928833304E+02  0.28147712185E+01 -0.60381025693E+02  0.62262929810E+02  0.10566000000E+00 0.  1.
         22    1    1    0    0    0 -0.10144505632E+02  0.21119343445E+01  0.32465368494E+02  0.34078899815E+02  0.00000000000E+00 0.  1.
</event>
<event>
 5    1  0.1262391E-009  0.9118800E+02  0.7815553E-02  0.1125453E+00
         25   -1    0    0    0    0  0.00000000000E+00  0.00000000000E+00  0.99999998245E-14  0.12509000000E+03  0.12509000000E+03 0.  0.
        -13    1    3    3    0    0 -0.40631997158E+02  0.17393070938E+02 -0.40529416012E+02  0.59967681596E+02  0.10566000000E+00 0. -1.
         23    2    1    0    0    0 -0.10197601183E+02  0.63918217739E+01 -0.27896850077E+02  0.94707756836E+02  0.89702165554E+02 0.  0.
         13    1    3    3    0    0  0.30434395975E+02 -0.11001249164E+02  0.12632565935E+02  0.34740075240E+02  0.10566000000E+00 0.  1.
         22    1    1    0    0    0  0.10197601183E+02 -0.63918217739E+01  0.27896850077E+02  0.30382243164E+02  0.00000000000E+00 0. -1.
</event>
<event>
 5    1  0.1262391E-009  0.9118800E+02  0.7815553E-02  0.1125453E+00
         25   -1    0    0    0    0  0.00000000000E+00  0.00000000000E+00  0.99999998245E-14  0.12509000000E+03  0.12509000000E+03 0.  0.
        -13    1    3    3    0    0  0.22671665797E+02 -0.16540080967E+02 -0.31264886616E+02  0.42012890969E+02  0.10566000000E+00 0. -1.
         23    2    1    0    0    0 -0.49355769726E+01  0.25581959834E+02 -0.15445712986E+02  0.94801939008E+02  0.89833406933E+02 0.  0.
         13    1    3    3    0    0 -0.27607242769E+02  0.42122040801E+02  0.15819173630E+02  0.52789048040E+02  0.10566000000E+00 0.  1.
         22    1    1    0    0    0  0.49355769726E+01 -0.25581959834E+02  0.15445712986E+02  0.30288060992E+02  0.00000000000E+00 0.  1.
</event>
<event>
 5    1  0.1262391E-009  0.9118800E+02  0.7815553E-02  0.1125453E+00
         25   -1    0    0    0    0  0.00000000000E+00  0.00000000000E+00  0.99999998245E-14  0.12509000000E+03  0.12509000000E+03 0.  0.
        -13    1    3    3    0    0  0.33279384934E+02  0.29684518501E+02  0.91336088318E+01  0.45520567599E+02  0.10566000000E+00 0.  1.
         23    2    1    0    0    0 -0.92990370725E+01  0.13982175405E+01  0.24458329726E+02  0.98886240809E+02  0.95351201490E+02 0.  0.
         13    1    3    3    0    0 -0.42578422007E+02 -0.28286300960E+02  0.15324720894E+02  0.53365673210E+02  0.10566000000E+00 0. -1.
         22    1    1    0    0    0  0.92990370725E+01 -0.13982175405E+01 -0.24458329726E+02  0.26203759191E+02  0.00000000000E+00 0. -1.
</event>
<event>
 5    1  0.1262391E-009  0.9118800E+02  0.7815553E-02  0.1125453E+00
         25   -1    0    0    0    0  0.00000000000E+00  0.00000000000E+00  0.99999998245E-14  0.12509000000E+03  0.12509000000E+03 0.  0.
        -13    1    3    3    0    0  0.14257607927E+02 -0.17879427272E+02  0.32675348357E+02  0.39882864211E+02  0.10566000000E+00 0. -1.
         23    2    1    0    0    0 -0.23070201828E+01 -0.28523124195E+02 -0.15939681282E+02  0.92333864768E+02  0.86328316256E+02 0.  0.
         13    1    3    3    0    0 -0.16564628110E+02 -0.10643696924E+02 -0.48615029639E+02  0.52451000557E+02  0.10566000000E+00 0.  1.
         22    1    1    0    0    0  0.23070201828E+01  0.28523124195E+02  0.15939681282E+02  0.32756135232E+02  0.00000000000E+00 0.  1.
</event>
<event>
 5    1  0.1262391E-009  0.9118800E+02  0.7815553E-02  0.1125453E+00
         25   -1    0    0    0    0  0.00000000000E+00  0.00000000000E+00  0.99999998245E-14  0.12509000000E+03  0.12509000000E+03 0.  0.
        -13    1    3    3    0    0 -0.14554801936E+02 -0.36800761396E+02 -0.33655883351E+02  0.51950629899E+02  0.10566000000E+00 0.  1.
         23    2    1    0    0    0  0.17275925213E+02 -0.24190062434E+02 -0.93873007650E+01  0.93917285518E+02  0.88592992900E+02 0.  0.
         13    1    3    3    0    0  0.31830727148E+02  0.12610698963E+02  0.24268582586E+02  0.41966655619E+02  0.10566000000E+00 0. -1.
         22    1    1    0    0    0 -0.17275925213E+02  0.24190062434E+02  0.93873007650E+01  0.31172714482E+02  0.00000000000E+00 0.  1.
</event>
<event>
 5    1  0.1262391E-009  0.9118800E+02  0.7815553E-02  0.1125453E+00
         25   -1    0    0    0    0  0.00000000000E+00  0.00000000000E+00  0.99999998245E-14  0.12509000000E+03  0.12509000000E+03 0.  0.
        -13    1    3    3    0    0  0.43567156043E+02 -0.34502352893E+02 -0.24040965205E+02  0.60551536833E+02  0.10566000000E+00 0.  1.
         23    2    1    0    0    0  0.22388325869E+02 -0.20144630117E+02 -0.10434825770E+01  0.94954769560E+02  0.90045966864E+02 0.  0.
         13    1    3    3    0    0 -0.21178830173E+02  0.14357722776E+02  0.22997482628E+02  0.34403232727E+02  0.10566000000E+00 0. -1.
         22    1    1    0    0    0 -0.22388325869E+02  0.20144630117E+02  0.10434825770E+01  0.30135230440E+02  0.00000000000E+00 0.  1.
</event>
<event>
 5    1  0.1262391E-009  0.9118800E+02  0.7815553E-02  0.1125453E+00
         25   -1    0    0    0    0  0.00000000000E+00  0.00000000000E+00  0.99999998245E-14  0.12509000000E+03  0.12509000000E+03 0.  0.
        -13    1    3    3    0    0  0.15547489271E+02  0.14289433161E+02  0.49180870985E+02  0.53522720013E+02  0.10566000000E+00 0. -1.
         23    2    1    0    0    0  0.64579543406E+01  0.26806989002E+02  0.98113864183E+01  0.95822558412E+02  0.91243517927E+02 0.  0.
         13    1    3    3    0    0 -0.90895349302E+01  0.12517555841E+02 -0.39369484567E+02  0.42299838399E+02  0.10566000000E+00 0.  1.
         22    1    1    0    0    0 -0.64579543406E+01 -0.26806989002E+02 -0.98113864183E+01  0.29267441588E+02  0.00000000000E+00 0. -1.
</event>
<event>
 5    1  0.1262391E-009  0.9118800E+02  0.7815553E-02  0.1125453E+00
         25   -1    0    0    0    0  0.00000000000E+00  0.00000000000E+00  0.99999998245E-14  0.12509000000E+03  0.12509000000E+03 0.  0.
        -13    1    3    3    0    0 -0.15506925825E+02 -0.69138366317E+01 -0.30030133322E+02  0.34497622482E+02  0.10566000000E+00 0. -1.
         23    2    1    0    0    0  0.18639826742E+02  0.20195497808E+02  0.12040612570E+02  0.95085373295E+02  0.90227216464E+02 0.  0.
         13    1    3    3    0    0  0.34146752567E+02  0.27109334439E+02  0.42070745892E+02  0.60587750813E+02  0.10566000000E+00 0.  1.
         22    1    1    0    0    0 -0.18639826742E+02 -0.20195497808E+02 -0.12040612570E+02  0.30004626705E+02  0.00000000000E+00 0.  1.
</event>
<event>
 4    1  0.1262391E-009  0.9118800E+02  0.7815553E-02  0.1125453E+00
         25   -1    0    0    0    0  0.00000000000E+00  0.00000000000E+00  0.99999998245E-14  0.12509000000E+03  0.12509000000E+03 0.  0.
        -13    1    1    0    0    0  0.30127648876E+01  0.30022621468E+02 -0.25596478632E+02  0.39567984969E+02  0.10566000000E+00 0.  1.
         13    1    1    0    0    0  0.29419359799E+01  0.24722722681E+02  0.16077199588E+02  0.29637063193E+02  0.10566000000E+00 0. -1.
         22    1    1    0    0    0 -0.59547008674E+01 -0.54745344149E+02  0.95192790441E+01  0.55884951838E+02  0.00000000000E+00 0.  1.
</event>
<event>
 5    1  0.1262391E-009  0.9118800E+02  0.7815553E-02  0.1125453E+00
         25   -1    0    0    0    0  0.00000000000E+00  0.00000000000E+00  0.99999998245E-14  0.12509000000E+03  0.12509000000E+03 0.  0.
        -13    1    3    3    0    0  0.24616251978E+02  0.25602305822E+02 -0.21177314085E+02  0.41351272299E+02  0.10566000000E+00 0.  1.
         23    2    1    0    0    0  0.12674631508E+02 -0.25532512792E+02 -0.73121716843E+01  0.95661725363E+02  0.91022757327E+02 0.  0.
         13    1    3    3    0    0 -0.11941620470E+02 -0.51134818614E+02  0.13865142401E+02  0.54310453064E+02  0.10566000000E+00 0. -1.
         22    1    1    0    0    0 -0.12674631508E+02  0.25532512792E+02  0.73121716843E+01  0.29428274637E+02  0.00000000000E+00 0. -1.
</event>
<event>
 5    1  0.1262391E-009  0.9118800E+02  0.7815553E-02  0.1125453E+00
         25   -1    0    0    0    0  0.00000000000E+00  0.00000000000E+00  0.99999998245E-14  0.12509000000E+03  0.12509000000E+03 0.  0.
        -13    1    3    3    0    0 -0.28988084096E+02  0.20553842199E+02 -0.17366623574E+02  0.39552246802E+02  0.10566000000E+00 0. -1.
         23    2    1    0    0    0  0.22251108284E+02 -0.31399148274E+01 -0.18449650293E+02  0.96014916494E+02  0.91506850609E+02 0.  0.
         13    1    3    3    0    0  0.51239192380E+02 -0.23693757027E+02 -0.10830267192E+01  0.56462669691E+02  0.10566000000E+00 0.  1.
         22    1    1    0    0    0 -0.22251108284E+02  0.31399148274E+01  0.18449650293E+02  0.29075083506E+02  0.00000000000E+00 0.  1.
</event>
<event>
 5    1  0.1262391E-009  0.9118800E+02  0.7815553E-02  0.1125453E+00
         25   -1    0    0    0    0  0.00000000000E+00  0.00000000000E+00  0.99999998245E-14  0.12509000000E+03  0.12509000000E+03 0.  0.
        -13    1    3    3    0    0 -0.18073442355E+02  0.99215905370E+01 -0.35978478266E+02  0.41467449158E+02  0.10566000000E+00 0.  1.
         23    2    1    0    0    0  0.21315417583E+02  0.24327580386E+02 -0.83688129609E+01  0.91680192689E+02  0.85375889495E+02 0.  0.
         13    1    3    3    0    0  0.39388859937E+02  0.14405989849E+02  0.27609665305E+02  0.50212743531E+02  0.10566000000E+00 0. -1.
         22    1    1    0    0    0 -0.21315417583E+02 -0.24327580386E+02  0.83688129609E+01  0.33409807311E+02  0.00000000000E+00 0.  1.
</event>
<event>
 5    1  0.1262391E-009  0.9118800E+02  0.7815553E-02  0.1125453E+00
         25   -1    0    0    0    0  0.00000000000E+00  0.00000000000E+00  0.99999998245E-14  0.12509000000E+03  0.12509000000E+03 0.  0.
        -13    1    3    3    0    0  0.63876117600E+01  0.16324986079E+02 -0.46704552218E+02  0.49886201663E+02  0.10566000000E+00 0.  1.
         23    2    1    0    0    0 -0.11558961106E+02 -0.11804958370E+02  0.14864852911E+01  0.10850156239E+03  0.10722598928E+03 0.  0.
         13    1    3    3    0    0 -0.17946572866E+02 -0.28129944449E+02  0.48191037509E+02  0.58615360722E+02  0.10566000000E+00 0. -1.
         22    1    1    0    0    0  0.11558961106E+02  0.11804958370E+02 -0.14864852911E+01  0.16588437615E+02  0.00000000000E+00 0. -1.
</event>
<event>
 5    1  0.1262391E-009  0.9118800E+02  0.7815553E-02  0.1125453E+00
         25   -1    0    0    0    0  0.00000000000E+00  0.00000000000E+00  0.99999998245E-14  0.12509000000E+03  0.12509000000E+03 0.  0.
        -13    1    3    3    0    0  0.16796267198E+02 -0.27403640436E+02 -0.74296585819E+01  0.32989166276E+02  0.10566000000E+00 0.  1.
         23    2    1    0    0    0 -0.23030382597E+02  0.16607374146E+02  0.10218798139E+02  0.94913399231E+02  0.89988477704E+02 0.  0.
         13    1    3    3    0    0 -0.39826649795E+02  0.44011014581E+02  0.17648456721E+02  0.61924232955E+02  0.10566000000E+00 0. -1.
         22    1    1    0    0    0  0.23030382597E+02 -0.16607374146E+02 -0.10218798139E+02  0.30176600769E+02  0.00000000000E+00 0. -1.
</event>
<event>
 5    1  0.1262391E-009  0.9118800E+02  0.7815553E-02  0.1125453E+00
         25   -1    0    0    0    0  0.00000000000E+00  0.00000000000E+00  0.99999998245E-14  0.12509000000E+03  0.12509000000E+03 0.  0.
        -13    1    3    3    0    0  0.27229117366E+01 -0.42915352991E+02  0.10101146891E+02  0.44172232264E+02  0.10566000000E+00 0.  1.
         23    2    1    0    0    0  0.25101715394E+02 -0.68588851198E+00 -0.12500139078E+02  0.97039687422E+02  0.92897152266E+02 0.  0.
         13    1    3    3    0    0  0.22378803658E+02  0.42229464479E+02 -0.22601285969E+02  0.52867455157E+02  0.10566000000E+00 0. -1.
         22    1    1    0    0    0 -0.25101715394E+02  0.68588851198E+00  0.12500139078E+02  0.28050312578E+02  0.00000000000E+00 0. -1.
</event>
<event>
 5    1  0.1262391E-009  0.9118800E+02  0.7815553E-02  0.1125453E+00
         25   -1    0    0    0    0  0.00000000000E+00  0.00000000000E+00  0.99999998245E-14  0.12509000000E+03  0.12509000000E+03 0.  0.
        -13    1    3    3    0    0  0.31823806165E+02 -0.44844046975E+02  0.22747964905E+01  0.55035707055E+02  0.10566000000E+00 0. -1.
         23    2    1    0    0    0  0.35773040028E+01 -0.19957493539E+02  0.19968439608E+02  0.96632360733E+02  0.92347040603E+02 0.  0.
         13    1    3    3    0    0 -0.28246502163E+02  0.24886553437E+02  0.17693643117E+02  0.41596653678E+02  0.10566000000E+00 0.  1.
         22    1    1    0    0    0 -0.35773040028E+01  0.19957493539E+02 -0.19968439608E+02  0.28457639267E+02  0.00000000000E+00 0. -1.
</event>
<event>
 5    1  0.1262391E-009  0.9118800E+02  0.7815553E-02  0.1125453E+00
         25   -1    0    0    0    0  0.00000000000E+00  0.00000000000E+00  0.99999998245E-14  0.12509000000E+03  0.12509000000E+03 0.  0.
        -13    1    3    3    0    0 -0.15297402629E+02 -0.27928745614E+02 -0.10885247255E+02  0.33653010721E+02  0.10566000000E+00 0.  1.
         23    2    1    0    0    0  0.29684332897E+01  0.26057499099E+02  0.13441072605E+02  0.95620230943E+02  0.90965714845E+02 0.  0.
         13    1    3    3    0    0  0.18265835918E+02  0.53986244713E+02  0.24326319861E+02  0.61967220222E+02  0.10566000000E+00 0. -1.
         22    1    1    0    0    0 -0.29684332897E+01 -0.26057499099E+02 -0.13441072605E+02  0.29469769057E+02  0.00000000000E+00 0. -1.
</event>
<event>
 5    1  0.1262391E-009  0.9118800E+02  0.7815553E-02  0.1125453E+00
         25   -1    0    0    0    0  0.00000000000E+00  0.00000000000E+00  0.99999998245E-14  0.12509000000E+03  0.12509000000E+03 0.  0.
        -13    1    3    3    0    0  0.23274268798E+02  0.47735991829E+02 -0.10142518216E+02  0.54067535026E+02  0.10566000000E+00 0.  1.
         23    2    1    0    0    0  0.61255323256E+01  0.18269224488E+02  0.18336475733E+02  0.98490882497E+02  0.94831117694E+02 0.  0.
         13    1    3    3    0    0 -0.17148736473E+02 -0.29466767341E+02  0.28478993949E+02  0.44423347471E+02  0.10566000000E+00 0. -1.
         22    1    1    0    0    0 -0.61255323256E+01 -0.18269224488E+02 -0.18336475733E+02  0.26599117503E+02  0.00000000000E+00 0.  1.
</event>
<event>
 5    1  0.1262391E-009  0.9118800E+02  0.7815553E-02  0.1125453E+00
         25   -1    0    0    0    0  0.00000000000E+00  0.00000000000E+00  0.99999998245E-14  0.12509000000E+03  0.12509000000E+03 0.  0.
        -13    1    3    3    0    0 -0.70929502859E+01 -0.42113290240E+02 -0.64493190078E+01  0.43190786497E+02  0.10566000000E+00 0.  1.
         23    2    1    0    0    0  0.25857519774E+02 -0.33649030841E+01 -0.15355610087E+02  0.94828991048E+02  0.89871068094E+02 0.  0.
         13    1    3    3    0    0  0.32950470060E+02  0.38748387156E+02 -0.89062910795E+01  0.51638204550E+02  0.10566000000E+00 0. -1.
         22    1    1    0    0    0 -0.25857519774E+02  0.33649030841E+01  0.15355610087E+02  0.30261008952E+02  0.00000000000E+00 0. -1.
</event>
<event>
 5    1  0.1262391E-009  0.9118800E+02  0.7815553E-02  0.1125453E+00
         25   -1    0    0    0    0  0.00000000000E+00  0.00000000000E+00  0.99999998245E-14  0.12509000000E+03  0.12509000000E+03 0.  0.
        -13    1    3    3    0    0  0.16514585292E+02  0.17873485353E+02  0.49461864709E+02  0.55124225441E+02  0.10566000000E+00 0.  1.
         23    2    1    0    0    0 -0.55592075594E+01 -0.92203134951E+01  0.25252410954E+02  0.97638165296E+02  0.93699562932E+02 0.  0.
         13    1    3    3    0    0 -0.22073792851E+02 -0.27093798848E+02 -0.24209453754E+02  0.42513939855E+02  0.10566000000E+00 0. -1.
         22    1    1    0    0    0  0.55592075594E+01  0.92203134951E+01 -0.25252410954E+02  0.27451834704E+02  0.00000000000E+00 0.  1.
</event>
<event>
 5    1  0.1262391E-009  0.9118800E+02  0.7815553E-02  0.1125453E+00
         25   -1    0    0    0    0  0.00000000000E+00  0.00000000000E+00  0.99999998245E-14  0.12509000000E+03  0.12509000000E+03 0.  0.
        -13    1    3    3    0    0 -0.89492031822E+01 -0.18040057977E+02 -0.27935423894E+02  0.34437348933E+02  0.10566000000E+00 0. -1.
         23    2    1    0    0    0  0.92633900844E+01  0.28227402792E+02  0.61888614670E+01  0.94743687695E+02  0.89752257284E+02 0.  0.
         13    1    3    3    0    0  0.18212593267E+02  0.46267460769E+02  0.34124285361E+02  0.60306338762E+02  0.10566000000E+00 0.  1.
         22    1    1    0    0    0 -0.92633900844E+01 -0.28227402792E+02 -0.61888614670E+01  0.30346312305E+02  0.00000000000E+00 0.  1.
</event>
<event>
 5    1  0.1262391E-009  0.9118800E+02  0.7815553E-02  0.1125453E+00
         25   -1    0    0    0    0  0.00000000000E+00  0.00000000000E+00  0.99999998245E-14  0.12509000000E+03  0.12509000000E+03 0.  0.
        -13    1    3    3    0    0  0.16945482808E+02  0.35471858426E+02 -0.24433382288E+02  0.46286104415E+02  0.10566000000E+00 0.  1.
         23    2    1    0    0    0  0.63097235758E+01  0.34758777627E+02  0.14686145671E+02  0.86832084369E+02  0.77949616853E+02 0.  0.
         13    1    3    3    0    0 -0.10635759232E+02 -0.71308079926E+00  0.39119527959E+02  0.40545979955E+02  0.10566000000E+00 0. -1.
         22    1    1    0    0    0 -0.63097235758E+01 -0.34758777627E+02 -0.14686145671E+02  0.38257915631E+02  0.00000000000E+00 0. -1.
</event>
<event>
 5    1  0.1262391E-009  0.9118800E+02  0.7815553E-02  0.1125453E+00
         25   -1    0    0    0    0  0.00000000000E+00  0.00000000000E+00  0.99999998245E-14  0.12509000000E+03  0.12509000000E+03 0.  0.
        -13    1    3    3    0    0  0.28374160901E+02 -0.35144721754E+02 -0.11596975493E+02  0.46634166430E+02  0.10566000000E+00 0.  1.
         23    2    1    0    0    0  0.57731479897E+01  0.41795463157E+01 -0.29009170656E+02  0.95218109748E+02  0.90411053509E+02 0.  0.
         13    1    3    3    0    0 -0.22601012911E+02  0.39324268070E+02 -0.17412195163E+02  0.48583943317E+02  0.10566000000E+00 0. -1.
         22    1    1    0    0    0 -0.57731479897E+01 -0.41795463157E+01  0.29009170656E+02  0.29871890252E+02  0.00000000000E+00 0. -1.
</event>
<event>
 5    1  0.1262391E-009  0.9118800E+02  0.7815553E-02  0.1125453E+00
         25   -1    0    0    0    0  0.00000000000E+00  0.00000000000E+00  0.99999998245E-14  0.12509000000E+03  0.12509000000E+03 0.  0.
        -13    1    3    3    0    0  0.35825389919E+02 -0.42543039475E+02 -0.12877078568E+02  0.57089395575E+02  0.10566000000E+00 0.  1.
         23    2    1    0    0    0  0.24509346696E+02 -0.72328894671E+01 -0.17000680522E+02  0.94397233691E+02  0.89268089622E+02 0.  0.
         13    1    3    3    0    0 -0.11316043222E+02  0.35310150008E+02 -0.41236019535E+01  0.37307838116E+02  0.10566000000E+00 0. -1.
         22    1    1    0    0    0 -0.24509346696E+02  0.72328894671E+01  0.17000680522E+02  0.30692766309E+02  0.00000000000E+00 0.  1.
</event>
<event>
 5    1  0.1262391E-009  0.9118800E+02  0.7815553E-02  0.1125453E+00
         25   -1    0    0    0    0  0.00000000000E+00  0.00000000000E+00  0.99999998245E-14  0.12509000000E+03  0.12509000000E+03 0.  0.
        -13    1    3    3    0    0  0.27774597538E+02  0.15707565205E+02  0.36258504335E+02  0.48299546309E+02  0.10566000000E+00 0.  1.
         23    2    1    0    0    0  0.21539310107E+02  0.15934693242E+02 -0.11115598874E+02  0.96082882478E+02  0.91599713091E+02 0.  0.
         13    1    3    3    0    0 -0.62352874306E+01  0.22712803706E+00 -0.47374103209E+02  0.47783336169E+02  0.10566000000E+00 0. -1.
         22    1    1    0    0    0 -0.21539310107E+02 -0.15934693242E+02  0.11115598874E+02  0.29007117522E+02  0.00000000000E+00 0. -1.
</event>
<event>
 5    1  0.1262391E-009  0.9118800E+02  0.7815553E-02  0.1125453E+00
         25   -1    0    0    0    0  0.00000000000E+00  0.00000000000E+00  0.99999998245E-14  0.12509000000E+03  0.12509000000E+03 0.  0.
        -13    1    3    3    0    0 -0.41479971014E+02 -0.39189375054E+02  0.12509971732E+02  0.58420079332E+02  0.10566000000E+00 0.  1.
         23    2    1    0    0    0 -0.67222899968E+01 -0.28160846922E+02  0.70478668411E+01  0.95292434510E+02  0.90513828588E+02 0.  0.
         13    1    3    3    0    0  0.34757681017E+02  0.11028528132E+02 -0.54621048906E+01  0.36872355177E+02  0.10566000000E+00 0. -1.
         22    1    1    0    0    0  0.67222899968E+01  0.28160846922E+02 -0.70478668411E+01  0.29797565490E+02  0.00000000000E+00 0.  1.
</event>
<event>
 5    1  0.1262391E-009  0.9118800E+02  0.7815553E-02  0.1125453E+00
         25   -1    0    0    0    0  0.00000000000E+00  0.00000000000E+00  0.99999998245E-14  0.12509000000E+03  0.12509000000E+03 0.  0.
        -13    1    3    3    0    0 -0.46279497719E+02 -0.20061372290E+02 -0.35140363661E+02  0.61474440945E+02  0.10566000000E+00 0.  1.
         23    2    1    0    0    0 -0.21253839648E+02 -0.16111738155E+02 -0.11788026265E+02  0.95930586951E+02  0.91391499295E+02 0.  0.
         13    1    3    3    0    0  0.25025658071E+02  0.39496341349E+01  0.23352337396E+02  0.34456146006E+02  0.10566000000E+00 0. -1.
         22    1    1    0    0    0  0.21253839648E+02  0.16111738155E+02  0.11788026265E+02  0.29159413049E+02  0.00000000000E+00 0.  1.
</event>
<event>
 5    1  0.1262391E-009  0.9118800E+02  0.7815553E-02  0.1125453E+00
         25   -1    0    0    0    0  0.00000000000E+00  0.00000000000E+00  0.99999998245E-14  0.12509000000E+03  0.12509000000E+03 0.  0.
        -13    1    3    3    0    0  0.15215928984E+02  0.25719349753E+02  0.22200946993E+02  0.37227713574E+02  0.10566000000E+00 0.  1.
         23    2    1    0    0    0  0.77814295291E+01 -0.27022631123E+02 -0.41697885754E+01  0.96661838345E+02  0.92386961294E+02 0.  0.
         13    1    3    3    0    0 -0.74344994554E+01 -0.52741980876E+02 -0.26370735568E+02  0.59434124771E+02  0.10566000000E+00 0. -1.
         22    1    1    0    0    0 -0.77814295291E+01  0.27022631123E+02  0.41697885754E+01  0.28428161655E+02  0.00000000000E+00 0. -1.
</event>
<event>
 5    1  0.1262391E-009  0.9118800E+02  0.7815553E-02  0.1125453E+00
         25   -1    0    0    0    0  0.00000000000E+00  0.00000000000E+00  0.99999998245E-14  0.12509000000E+03  0.12509000000E+03 0.  0.
        -13    1    3    3    0    0 -0.92772119320E+01  0.29269693177E+02  0.11085106023E+02  0.32644637223E+02  0.10566000000E+00 0.  1.
         23    2    1    0    0    0  0.13633847187E+02 -0.19073697676E+02 -0.19786725116E+02  0.94410980736E+02  0.89287351067E+02 0.  0.
         13    1    3    3    0    0  0.22911059119E+02 -0.48343390853E+02 -0.30871831138E+02  0.61766343513E+02  0.10566000000E+00 0. -1.
         22    1    1    0    0    0 -0.13633847187E+02  0.19073697676E+02  0.19786725116E+02  0.30679019264E+02  0.00000000000E+00 0. -1.
</event>
<event>
 5    1  0.1262391E-009  0.9118800E+02  0.7815553E-02  0.1125453E+00
         25   -1    0    0    0    0  0.00000000000E+00  0.00000000000E+00  0.99999998245E-14  0.12509000000E+03  0.12509000000E+03 0.  0.
        -13    1    3    3    0    0 -0.15178359464E+02 -0.25765536016E+02 -0.17900740970E+02  0.34852448028E+02  0.10566000000E+00 0.  1.
         23    2    1    0    0    0  0.21812461291E+02  0.20001472610E+02 -0.63251881015E+01  0.94826980014E+02  0.89868268927E+02 0.  0.
         13    1    3    3    0    0  0.36990820756E+02  0.45767008626E+02  0.11575552869E+02  0.59974531986E+02  0.10566000000E+00 0. -1.
         22    1    1    0    0    0 -0.21812461291E+02 -0.20001472610E+02  0.63251881015E+01  0.30263019986E+02  0.00000000000E+00 0. -1.
</event>
<event>
 5    1  0.1262391E-009  0.9118800E+02  0.7815553E-02  0.1125453E+00
         25   -1    0    0    0    0  0.00000000000E+00  0.00000000000E+00  0.99999998245E-14  0.12509000000E+03  0.12509000000E+03 0.  0.
        -13    1    3    3    0    0 -0.27848087228E+02 -0.68344203347E+01  0.46310334923E+02  0.54469106366E+02  0.10566000000E+00 0.  1.
         23    2    1    0    0    0 -0.15192413186E+01 -0.19030050409E+02  0.34222944284E+02  0.85902491426E+02  0.76443294049E+02 0.  0.
         13    1    3    3    0    0  0.26328845910E+02 -0.12195630075E+02 -0.12087390639E+02  0.31433385060E+02  0.10566000000E+00 0. -1.
         22    1    1    0    0    0  0.15192413186E+01  0.19030050409E+02 -0.34222944284E+02  0.39187508574E+02  0.00000000000E+00 0.  1.
</event>
<event>
 5    1  0.1262391E-009  0.9118800E+02  0.7815553E-02  0.1125453E+00
         25   -1    0    0    0    0  0.00000000000E+00  0.00000000000E+00  0.99999998245E-14  0.12509000000E+03  0.12509000000E+03 0.  0.
        -13    1    3    3    0    0  0.10419910065E+02  0.27457634838E+02 -0.23229272930E+02  0.37444712865E+02  0.10566000000E+00 0.  1.
         23    2    1    0    0    0  0.17722045411E+02 -0.13010469834E+02  0.18739812989E+02  0.96201874244E+02  0.91762066227E+02 0.  0.
         13    1    3    3    0    0  0.73021353456E+01 -0.40468104672E+02  0.41969085919E+02  0.58757161378E+02  0.10566000000E+00 0. -1.
         22    1    1    0    0    0 -0.17722045411E+02  0.13010469834E+02 -0.18739812989E+02  0.28888125756E+02  0.00000000000E+00 0. -1.
</event>
<event>
 5    1  0.1262391E-009  0.9118800E+02  0.7815553E-02  0.1125453E+00
         25   -1    0    0    0    0  0.00000000000E+00  0.00000000000E+00  0.99999998245E-14  0.12509000000E+03  0.12509000000E+03 0.  0.
        -13    1    3    3    0    0 -0.34189959263E+02  0.36691803657E+02 -0.65035478430E+01  0.50572216370E+02  0.10566000000E+00 0.  1.
         23    2    1    0    0    0 -0.25213403992E+02 -0.65921138720E+01 -0.14152606114E+02  0.95434174839E+02  0.90709502045E+02 0.  0.
         13    1    3    3    0    0  0.89765552711E+01 -0.43283917529E+02 -0.76490582713E+01  0.44861958469E+02  0.10566000000E+00 0. -1.
         22    1    1    0    0    0  0.25213403992E+02  0.65921138720E+01  0.14152606114E+02  0.29655825161E+02  0.00000000000E+00 0. -1.
</event>
<event>
 5    1  0.1262391E-009  0.9118800E+02  0.7815553E-02  0.1125453E+00
         25   -1    0    0    0    0  0.00000000000E+00  0.00000000000E+00  0.99999998245E-14  0.12509000000E+03  0.12509000000E+03 0.  0.
        -13    1    3    3    0    0 -0.77931943090E+01  0.77197827443E+01 -0.35429888585E+02  0.37089312374E+02  0.10566000000E+00 0. -1.
         23    2    1    0    0    0  0.20416261043E+02 -0.10237601554E+02  0.15120212411E+02  0.97699252951E+02  0.93781080200E+02 0.  0.
         13    1    3    3    0    0  0.28209455352E+02 -0.17957384298E+02  0.50550100996E+02  0.60609940578E+02  0.10566000000E+00 0.  1.
         22    1    1    0    0    0 -0.20416261043E+02  0.10237601554E+02 -0.15120212411E+02  0.27390747049E+02  0.00000000000E+00 0.  1.
</event>
<event>
 5    1  0.1262391E-009  0.9118800E+02  0.7815553E-02  0.1125453E+00
         25   -1    0    0    0    0  0.00000000000E+00  0.00000000000E+00  0.99999998245E-14  0.12509000000E+03  0.12509000000E+03 0.  0.
        -13    1    3    3    0    0  0.18572192547E+02 -0.38441723061E+02 -0.44863947604E+02  0.61931230946E+02  0.10566000000E+00 0.  1.
         23    2    1    0    0    0  0.45479981716E+01 -0.14687130504E+02 -0.24284146321E+02  0.96347768835E+02  0.91960734595E+02 0.  0.
         13    1    3    3    0    0 -0.14024194375E+02  0.23754592557E+02  0.20579801283E+02  0.34416537890E+02  0.10566000000E+00 0. -1.
         22    1    1    0    0    0 -0.45479981716E+01  0.14687130504E+02  0.24284146321E+02  0.28742231165E+02  0.00000000000E+00 0.  1.
</event>
<event>
 5    1  0.1262391E-009  0.9118800E+02  0.7815553E-02  0.1125453E+00
         25   -1    0    0    0    0  0.00000000000E+00  0.00000000000E+00  0.99999998245E-14  0.12509000000E+03  0.12509000000E+03 0.  0.
        -13    1    3    3    0    0  0.31201275015E+02 -0.55883591434E+01 -0.15231884571E+02  0.35167752161E+02  0.10566000000E+00 0. -1.
         23    2    1    0    0    0 -0.27508573862E+02 -0.92811562795E+01  0.47318085019E+00  0.96054067125E+02  0.91560353938E+02 0.  0.
         13    1    3    3    0    0 -0.58709848877E+02 -0.36927971361E+01  0.15705065421E+02  0.60886314963E+02  0.10566000000E+00 0.  1.
         22    1    1    0    0    0  0.27508573862E+02  0.92811562795E+01 -0.47318085019E+00  0.29035932875E+02  0.00000000000E+00 0.  1.
</event>
<event>
 5    1  0.1262391E-009  0.9118800E+02  0.7815553E-02  0.1125453E+00
         25   -1    0    0    0    0  0.00000000000E+00  0.00000000000E+00  0.99999998245E-14  0.12509000000E+03  0.12509000000E+03 0.  0.
        -13    1    3    3    0    0 -0.79792493845E+01  0.24037488232E+02  0.25604516182E+02  0.36014881288E+02  0.10566000000E+00 0.  1.
         23    2    1    0    0    0 -0.10162601449E+02 -0.19887580350E+02 -0.16827249339E+02  0.97126619648E+02  0.93014136580E+02 0.  0.
         13    1    3    3    0    0 -0.21833520647E+01 -0.43925068582E+02 -0.42431765521E+02  0.61111738360E+02  0.10566000000E+00 0. -1.
         22    1    1    0    0    0  0.10162601449E+02  0.19887580350E+02  0.16827249339E+02  0.27963380352E+02  0.00000000000E+00 0. -1.
</event>
<event>
 5    1  0.1262391E-009  0.9118800E+02  0.7815553E-02  0.1125453E+00
         25   -1    0    0    0    0  0.00000000000E+00  0.00000000000E+00  0.99999998245E-14  0.12509000000E+03  0.12509000000E+03 0.  0.
        -13    1    3    3    0    0  0.30198733294E+02  0.50307546652E+02  0.37868551319E+01  0.58797654533E+02  0.10566000000E+00 0.  1.
         23    2    1    0    0    0  0.21540795112E+02  0.15637467773E+02  0.12655007408E+02  0.95616529473E+02  0.90960624687E+02 0.  0.
         13    1    3    3    0    0 -0.86579381812E+01 -0.34670078879E+02  0.88681522758E+01  0.36818874940E+02  0.10566000000E+00 0. -1.
         22    1    1    0    0    0 -0.21540795112E+02 -0.15637467773E+02 -0.12655007408E+02  0.29473470527E+02  0.00000000000E+00 0.  1.
</event>
<event>
 5    1  0.1262391E-009  0.9118800E+02  0.7815553E-02  0.1125453E+00
         25   -1    0    0    0    0  0.00000000000E+00  0.00000000000E+00  0.99999998245E-14  0.12509000000E+03  0.12509000000E+03 0.  0.
        -13    1    3    3    0    0  0.12216006159E+02 -0.14262547869E+02  0.36582884391E+02  0.41121401637E+02  0.10566000000E+00 0.  1.
         23    2    1    0    0    0  0.13418378243E+01 -0.22875101622E+02 -0.17055756185E+02  0.96524818012E+02  0.92201251999E+02 0.  0.
         13    1    3    3    0    0 -0.10874168335E+02 -0.86125537534E+01 -0.53638640576E+02  0.55403416375E+02  0.10566000000E+00 0. -1.
         22    1    1    0    0    0 -0.13418378243E+01  0.22875101622E+02  0.17055756185E+02  0.28565181988E+02  0.00000000000E+00 0. -1.
</event>
<event>
 5    1  0.1262391E-009  0.9118800E+02  0.7815553E-02  0.1125453E+00
         25   -1    0    0    0    0  0.00000000000E+00  0.00000000000E+00  0.99999998245E-14  0.12509000000E+03  0.12509000000E+03 0.  0.
        -13    1    3    3    0    0 -0.14100705736E+02 -0.15939243993E+02 -0.35738117538E+02  0.41594634395E+02  0.10566000000E+00 0.  1.
         23    2    1    0    0    0  0.50898609357E+01  0.27154223376E+02 -0.79605720754E+01  0.96338839340E+02  0.91948587407E+02 0.  0.
         13    1    3    3    0    0  0.19190566672E+02  0.43093467369E+02  0.27777545462E+02  0.54744204945E+02  0.10566000000E+00 0. -1.
         22    1    1    0    0    0 -0.50898609357E+01 -0.27154223376E+02  0.79605720754E+01  0.28751160660E+02  0.00000000000E+00 0. -1.
</event>
<event>
 5    1  0.1262391E-009  0.9118800E+02  0.7815553E-02  0.1125453E+00
         25   -1    0    0    0    0  0.00000000000E+00  0.00000000000E+00  0.99999998245E-14  0.12509000000E+03  0.12509000000E+03 0.  0.
        -13    1    3    3    0    0 -0.32004132822E+02  0.26109470068E+02 -0.45498660972E+01  0.41553355947E+02  0.10566000000E+00 0.  1.
         23    2    1    0    0    0  0.18767111429E+02  0.13078610513E+02 -0.18359274919E+02  0.95758830574E+02  0.91156108588E+02 0.  0.
         13    1    3    3    0    0  0.50771244250E+02 -0.13030859555E+02 -0.13809408822E+02  0.54205474627E+02  0.10566000000E+00 0. -1.
         22    1    1    0    0    0 -0.18767111429E+02 -0.13078610513E+02  0.18359274919E+02  0.29331169426E+02  0.00000000000E+00 0. -1.
</event>
<event>
 5    1  0.1262391E-009  0.9118800E+02  0.7815553E-02  0.1125453E+00
         25   -1    0    0    0    0  0.00000000000E+00  0.00000000000E+00  0.99999998245E-14  0.12509000000E+03  0.12509000000E+03 0.  0.
        -13    1    3    3    0    0  0.16484991196E+02 -0.23236885628E+02  0.15427673092E+02  0.32399568662E+02  0.10566000000E+00 0.  1.
         23    2    1    0    0    0 -0.11138505579E+02  0.24370823390E+02 -0.14046604523E+02  0.94835902131E+02  0.89880686997E+02 0.  0.
         13    1    3    3    0    0 -0.27623496775E+02  0.47607709018E+02 -0.29474277615E+02  0.62436333469E+02  0.10566000000E+00 0. -1.
         22    1    1    0    0    0  0.11138505579E+02 -0.24370823390E+02  0.14046604523E+02  0.30254097869E+02  0.00000000000E+00 0. -1.
</event>
<event>
 5    1  0.1262391E-009  0.9118800E+02  0.7815553E-02  0.1125453E+00
         25   -1    0    0    0    0  0.00000000000E+00  0.00000000000E+00  0.99999998245E-14  0.12509000000E+03  0.12509000000E+03 0.  0.
        -13    1    3    3    0    0 -0.34900370098E+02  0.48277772209E+02 -0.11150703929E+02  0.60606340300E+02  0.10566000000E+00 0. -1.
         23    2    1    0    0    0 -0.24948025515E+02  0.19947448252E+02  0.13195089816E+01  0.93120549382E+02  0.87460796614E+02 0.  0.
         13    1    3    3    0    0  0.99523445827E+01 -0.28330323956E+02  0.12470212910E+02  0.32514209082E+02  0.10566000000E+00 0.  1.
         22    1    1    0    0    0  0.24948025515E+02 -0.19947448252E+02 -0.13195089816E+01  0.31969450618E+02  0.00000000000E+00 0. -1.
</event>
<event>
 5    1  0.1262391E-009  0.9118800E+02  0.7815553E-02  0.1125453E+00
         25   -1    0    0    0    0  0.00000000000E+00  0.00000000000E+00  0.99999998245E-14  0.12509000000E+03  0.12509000000E+03 0.  0.
        -13    1    3    3    0    0 -0.17523727502E+02 -0.19261645068E+02 -0.47070612664E+02  0.53793547354E+02  0.10566000000E+00 0. -1.
         23    2    1    0    0    0  0.15579404663E+02 -0.83934782345E+01 -0.22674054244E+02  0.96327505978E+02  0.91933167820E+02 0.  0.
         13    1    3    3    0    0  0.33103132165E+02  0.10868166833E+02  0.24396558420E+02  0.42533958624E+02  0.10566000000E+00 0.  1.
         22    1    1    0    0    0 -0.15579404663E+02  0.83934782345E+01  0.22674054244E+02  0.28762494022E+02  0.00000000000E+00 0. -1.
</event>
<event>
 5    1  0.1262391E-009  0.9118800E+02  0.7815553E-02  0.1125453E+00
         25   -1    0    0    0    0  0.00000000000E+00  0.00000000000E+00  0.99999998245E-14  0.12509000000E+03  0.12509000000E+03 0.  0.
        -13    1    3    3    0    0 -0.25101847158E+02 -0.39711943117E+02 -0.24923527526E+02  0.53182088575E+02  0.10566000000E+00 0.  1.
         23    2    1    0    0    0 -0.22247227112E+02 -0.16069280130E+02  0.10364620428E+02  0.95754249887E+02  0.91149822472E+02 0.  0.
         13    1    3    3    0    0  0.28546200456E+01  0.23642662987E+02  0.35288147954E+02  0.42572161312E+02  0.10566000000E+00 0. -1.
         22    1    1    0    0    0  0.22247227112E+02  0.16069280130E+02 -0.10364620428E+02  0.29335750113E+02  0.00000000000E+00 0.  1.
</event>
<event>
 5    1  0.1262391E-009  0.9118800E+02  0.7815553E-02  0.1125453E+00
         25   -1    0    0    0    0  0.00000000000E+00  0.00000000000E+00  0.99999998245E-14  0.12509000000E+03  0.12509000000E+03 0.  0.
        -13    1    3    3    0    0  0.41842494242E+02  0.42210926594E+02 -0.15731372239E+02  0.61482061489E+02  0.10566000000E+00 0.  1.
         23    2    1    0    0    0  0.14225827611E+02  0.25918175798E+02 -0.73180063398E+01  0.94632173014E+02  0.89596701640E+02 0.  0.
         13    1    3    3    0    0 -0.27616666631E+02 -0.16292750797E+02  0.84133658991E+01  0.33150111525E+02  0.10566000000E+00 0. -1.
         22    1    1    0    0    0 -0.14225827611E+02 -0.25918175798E+02  0.73180063398E+01  0.30457826986E+02  0.00000000000E+00 0.  1.
</event>
<event>
 5    1  0.1262391E-009  0.9118800E+02  0.7815553E-02  0.1125453E+00
         25   -1    0    0    0    0  0.00000000000E+00  0.00000000000E+00  0.99999998245E-14  0.12509000000E+03  0.12509000000E+03 0.  0.
        -13    1    3    3    0    0  0.19728291295E+02 -0.19766737168E+02 -0.20458139779E+02  0.34619012450E+02  0.10566000000E+00 0.  1.
         23    2    1    0    0    0  0.66693343078E-01  0.24564991342E+02  0.16418390452E+02  0.95543311647E+02  0.90859878977E+02 0.  0.
         13    1    3    3    0    0 -0.19661597952E+02  0.44331728510E+02  0.36876530232E+02  0.60924299197E+02  0.10566000000E+00 0. -1.
         22    1    1    0    0    0 -0.66693343078E-01 -0.24564991342E+02 -0.16418390452E+02  0.29546688353E+02  0.00000000000E+00 0. -1.
</event>
<event>
 5    1  0.1262391E-009  0.9118800E+02  0.7815553E-02  0.1125453E+00
         25   -1    0    0    0    0  0.00000000000E+00  0.00000000000E+00  0.99999998245E-14  0.12509000000E+03  0.12509000000E+03 0.  0.
        -13    1    3    3    0    0  0.19554963071E+01 -0.59384710675E+02  0.35341071625E+01  0.59522003538E+02  0.10566000000E+00 0. -1.
         23    2    1    0    0    0 -0.80454891656E+01 -0.28943266907E+02 -0.86911833979E+01  0.93817339992E+02  0.88451760972E+02 0.  0.
         13    1    3    3    0    0 -0.10000985473E+02  0.30441443768E+02 -0.12225290560E+02  0.34295336453E+02  0.10566000000E+00 0.  1.
         22    1    1    0    0    0  0.80454891656E+01  0.28943266907E+02  0.86911833979E+01  0.31272660008E+02  0.00000000000E+00 0. -1.
</event>
<event>
 5    1  0.1262391E-009  0.9118800E+02  0.7815553E-02  0.1125453E+00
         25   -1    0    0    0    0  0.00000000000E+00  0.00000000000E+00  0.99999998245E-14  0.12509000000E+03  0.12509000000E+03 0.  0.
        -13    1    3    3    0    0 -0.48142548349E+02  0.34393966019E+02  0.15707099839E+02  0.61215798691E+02  0.10566000000E+00 0.  1.
         23    2    1    0    0    0 -0.16473074634E+02  0.20853304311E+02  0.12236962027E+02  0.95833108021E+02  0.91257979732E+02 0.  0.
         13    1    3    3    0    0  0.31669473714E+02 -0.13540661708E+02 -0.34701378115E+01  0.34617309330E+02  0.10566000000E+00 0. -1.
         22    1    1    0    0    0  0.16473074634E+02 -0.20853304311E+02 -0.12236962027E+02  0.29256891979E+02  0.00000000000E+00 0.  1.
</event>
<event>
 5    1  0.1262391E-009  0.9118800E+02  0.7815553E-02  0.1125453E+00
         25   -1    0    0    0    0  0.00000000000E+00  0.00000000000E+00  0.99999998245E-14  0.12509000000E+03  0.12509000000E+03 0.  0.
        -13    1    3    3    0    0  0.22838761345E+02  0.14782620218E+02 -0.27321704086E+02  0.38556731688E+02  0.10566000000E+00 0.  1.
         23    2    1    0    0    0 -0.28183309958E+02  0.93727280679E+01 -0.33113047053E+01  0.95205025004E+02  0.90392948041E+02 0.  0.
         13    1    3    3    0    0 -0.51022071303E+02 -0.54098921503E+01  0.24010399381E+02  0.56648293316E+02  0.10566000000E+00 0. -1.
         22    1    1    0    0    0  0.28183309958E+02 -0.93727280679E+01  0.33113047053E+01  0.29884974996E+02  0.00000000000E+00 0. -1.
</event>
<event>
 5    1  0.1262391E-009  0.9118800E+02  0.7815553E-02  0.1125453E+00
         25   -1    0    0    0    0  0.00000000000E+00  0.00000000000E+00  0.99999998245E-14  0.12509000000E+03  0.12509000000E+03 0.  0.
        -13    1    3    3    0    0  0.21185256531E+02  0.72195900287E+01 -0.57100744043E+02  0.61330609884E+02  0.10566000000E+00 0. -1.
         23    2    1    0    0    0  0.14517736217E+02  0.88038499750E+01 -0.20957468152E+02  0.98118016191E+02  0.94337994417E+02 0.  0.
         13    1    3    3    0    0 -0.66675203138E+01  0.15842599463E+01  0.36143275890E+02  0.36787406307E+02  0.10566000000E+00 0.  1.
         22    1    1    0    0    0 -0.14517736217E+02 -0.88038499750E+01  0.20957468152E+02  0.26971983809E+02  0.00000000000E+00 0. -1.
</event>
<event>
 5    1  0.1262391E-009  0.9118800E+02  0.7815553E-02  0.1125453E+00
         25   -1    0    0    0    0  0.00000000000E+00  0.00000000000E+00  0.99999998245E-14  0.12509000000E+03  0.12509000000E+03 0.  0.
        -13    1    3    3    0    0  0.43673548003E+02 -0.42469248817E+02  0.90674713791E+01  0.61589334235E+02  0.10566000000E+00 0. -1.
         23    2    1    0    0    0  0.18784658816E+02 -0.21002679958E+02  0.11738058531E+02  0.94565288858E+02  0.89503272937E+02 0.  0.
         13    1    3    3    0    0 -0.24888889187E+02  0.21466568859E+02  0.26705871517E+01  0.32975954623E+02  0.10566000000E+00 0.  1.
         22    1    1    0    0    0 -0.18784658816E+02  0.21002679958E+02 -0.11738058531E+02  0.30524711142E+02  0.00000000000E+00 0. -1.
</event>
<event>
 5    1  0.1262391E-009  0.9118800E+02  0.7815553E-02  0.1125453E+00
         25   -1    0    0    0    0  0.00000000000E+00  0.00000000000E+00  0.99999998245E-14  0.12509000000E+03  0.12509000000E+03 0.  0.
        -13    1    3    3    0    0 -0.52091486097E+01 -0.11068271283E+02 -0.29169930589E+02  0.31631279978E+02  0.10566000000E+00 0.  1.
         23    2    1    0    0    0 -0.48865662131E+01  0.30443018644E+02  0.13739201822E+02  0.91334680712E+02  0.84868146678E+02 0.  0.
         13    1    3    3    0    0  0.32258239662E+00  0.41511289927E+02  0.42909132412E+02  0.59703400734E+02  0.10566000000E+00 0. -1.
         22    1    1    0    0    0  0.48865662131E+01 -0.30443018644E+02 -0.13739201822E+02  0.33755319288E+02  0.00000000000E+00 0. -1.
</event>
<event>
 5    1  0.1262391E-009  0.9118800E+02  0.7815553E-02  0.1125453E+00
         25   -1    0    0    0    0  0.00000000000E+00  0.00000000000E+00  0.99999998245E-14  0.12509000000E+03  0.12509000000E+03 0.  0.
        -13    1    3    3    0    0 -0.47807826911E+01 -0.28614657437E+02 -0.16332053544E+02  0.33292666465E+02  0.10566000000E+00 0.  1.
         23    2    1    0    0    0 -0.10095306689E+02  0.26779686348E+02  0.98899625168E+01  0.94810003689E+02  0.89844636027E+02 0.  0.
         13    1    3    3    0    0 -0.53145239975E+01  0.55394343785E+02  0.26222016061E+02  0.61517337223E+02  0.10566000000E+00 0. -1.
         22    1    1    0    0    0  0.10095306689E+02 -0.26779686348E+02 -0.98899625168E+01  0.30279996311E+02  0.00000000000E+00 0. -1.
</event>
<event>
 5    1  0.1262391E-009  0.9118800E+02  0.7815553E-02  0.1125453E+00
         25   -1    0    0    0    0  0.00000000000E+00  0.00000000000E+00  0.99999998245E-14  0.12509000000E+03  0.12509000000E+03 0.  0.
        -13    1    3    3    0    0 -0.52359988197E+01  0.37866569893E+02  0.48884222623E+02  0.62056193765E+02  0.10566000000E+00 0. -1.
         23    2    1    0    0    0 -0.50635128695E+01  0.22019703763E+02  0.20417858686E+02  0.94636831532E+02  0.89603205371E+02 0.  0.
         13    1    3    3    0    0  0.17248595015E+00 -0.15846866129E+02 -0.28466363937E+02  0.32580637768E+02  0.10566000000E+00 0.  1.
         22    1    1    0    0    0  0.50635128695E+01 -0.22019703763E+02 -0.20417858686E+02  0.30453168468E+02  0.00000000000E+00 0. -1.
</event>
<event>
 5    1  0.1262391E-009  0.9118800E+02  0.7815553E-02  0.1125453E+00
         25   -1    0    0    0    0  0.00000000000E+00  0.00000000000E+00  0.99999998245E-14  0.12509000000E+03  0.12509000000E+03 0.  0.
        -13    1    3    3    0    0  0.49103053835E+02 -0.23035512168E+02 -0.14631743847E+02  0.56176897465E+02  0.10566000000E+00 0. -1.
         23    2    1    0    0    0  0.26442976339E+02  0.91453268015E+01 -0.64274222784E+01  0.96381468914E+02  0.92006563858E+02 0.  0.
         13    1    3    3    0    0 -0.22660077497E+02  0.32180838970E+02  0.82043215689E+01  0.40204571449E+02  0.10566000000E+00 0.  1.
         22    1    1    0    0    0 -0.26442976339E+02 -0.91453268015E+01  0.64274222784E+01  0.28708531086E+02  0.00000000000E+00 0. -1.
</event>
<event>
 5    1  0.1262391E-009  0.9118800E+02  0.7815553E-02  0.1125453E+00
         25   -1    0    0    0    0  0.00000000000E+00  0.00000000000E+00  0.99999998245E-14  0.12509000000E+03  0.12509000000E+03 0.  0.
        -13    1    3    3    0    0  0.26256805444E+02 -0.23081435967E+02 -0.23640954384E+02  0.42202824629E+02  0.10566000000E+00 0.  1.
         23    2    1    0    0    0  0.15178772105E+02  0.24723052658E+02 -0.14930708749E+01  0.96040839668E+02  0.91542280768E+02 0.  0.
         13    1    3    3    0    0 -0.11078033340E+02  0.47804488625E+02  0.22147883509E+02  0.53838015039E+02  0.10566000000E+00 0. -1.
         22    1    1    0    0    0 -0.15178772105E+02 -0.24723052658E+02  0.14930708749E+01  0.29049160332E+02  0.00000000000E+00 0.  1.
</event>
<event>
 5    1  0.1262391E-009  0.9118800E+02  0.7815553E-02  0.1125453E+00
         25   -1    0    0    0    0  0.00000000000E+00  0.00000000000E+00  0.99999998245E-14  0.12509000000E+03  0.12509000000E+03 0.  0.
        -13    1    3    3    0    0  0.15073904620E+02 -0.26214930288E+02  0.39171449248E+02  0.49485945184E+02  0.10566000000E+00 0.  1.
         23    2    1    0    0    0 -0.25267247442E+01 -0.31154583902E+02 -0.12069257720E+01  0.93809828871E+02  0.88441137979E+02 0.  0.
         13    1    3    3    0    0 -0.17600629364E+02 -0.49396536137E+01 -0.40378375020E+02  0.44323883688E+02  0.10566000000E+00 0. -1.
         22    1    1    0    0    0  0.25267247442E+01  0.31154583902E+02  0.12069257720E+01  0.31280171129E+02  0.00000000000E+00 0.  1.
</event>
<event>
 5    1  0.1262391E-009  0.9118800E+02  0.7815553E-02  0.1125453E+00
         25   -1    0    0    0    0  0.00000000000E+00  0.00000000000E+00  0.99999998245E-14  0.12509000000E+03  0.12509000000E+03 0.  0.
        -13    1    3    3    0    0  0.24525745364E+02 -0.46160389118E+01  0.21619975290E+02  0.33019002052E+02  0.10566000000E+00 0.  1.
         23    2    1    0    0    0 -0.27554342360E+02 -0.12731189667E+02 -0.82929696612E+01  0.93624172202E+02  0.88178156600E+02 0.  0.
         13    1    3    3    0    0 -0.52080087725E+02 -0.81151507549E+01 -0.29912944951E+02  0.60605170150E+02  0.10566000000E+00 0. -1.
         22    1    1    0    0    0  0.27554342360E+02  0.12731189667E+02  0.82929696612E+01  0.31465827798E+02  0.00000000000E+00 0. -1.
</event>
<event>
 5    1  0.1262391E-009  0.9118800E+02  0.7815553E-02  0.1125453E+00
         25   -1    0    0    0    0  0.00000000000E+00  0.00000000000E+00  0.99999998245E-14  0.12509000000E+03  0.12509000000E+03 0.  0.
        -13    1    3    3    0    0 -0.20062337039E+00  0.15009365483E+02 -0.30428566547E+02  0.33929782317E+02  0.10566000000E+00 0.  1.
         23    2    1    0    0    0  0.17862042756E+02 -0.12840927495E+02  0.20696322815E+02  0.94886030585E+02  0.89950425412E+02 0.  0.
         13    1    3    3    0    0  0.18062666126E+02 -0.27850292978E+02  0.51124889362E+02  0.60956248268E+02  0.10566000000E+00 0. -1.
         22    1    1    0    0    0 -0.17862042756E+02  0.12840927495E+02 -0.20696322815E+02  0.30203969415E+02  0.00000000000E+00 0. -1.
</event>
<event>
 5    1  0.1262391E-009  0.9118800E+02  0.7815553E-02  0.1125453E+00
         25   -1    0    0    0    0  0.00000000000E+00  0.00000000000E+00  0.99999998245E-14  0.12509000000E+03  0.12509000000E+03 0.  0.
        -13    1    3    3    0    0 -0.35860044164E+02  0.10556806803E+02  0.34682499653E+02  0.50992900325E+02  0.10566000000E+00 0.  1.
         23    2    1    0    0    0 -0.11654116499E+01 -0.15912560641E+02  0.24579544597E+02  0.95786044924E+02  0.91193446141E+02 0.  0.
         13    1    3    3    0    0  0.34694632514E+02 -0.26469367445E+02 -0.10102955056E+02  0.44793144599E+02  0.10566000000E+00 0. -1.
         22    1    1    0    0    0  0.11654116499E+01  0.15912560641E+02 -0.24579544597E+02  0.29303955076E+02  0.00000000000E+00 0.  1.
</event>
<event>
 5    1  0.1262391E-009  0.9118800E+02  0.7815553E-02  0.1125453E+00
         25   -1    0    0    0    0  0.00000000000E+00  0.00000000000E+00  0.99999998245E-14  0.12509000000E+03  0.12509000000E+03 0.  0.
        -13    1    3    3    0    0 -0.42841744382E+02  0.35376792959E+02  0.27990033056E+02  0.62212423649E+02  0.10566000000E+00 0.  1.
         23    2    1    0    0    0 -0.16485008721E+02  0.17237835635E+02  0.15942613938E+02  0.96400883090E+02  0.92032955138E+02 0.  0.
         13    1    3    3    0    0  0.26356735661E+02 -0.18138957324E+02 -0.12047419118E+02  0.34188459441E+02  0.10566000000E+00 0. -1.
         22    1    1    0    0    0  0.16485008721E+02 -0.17237835635E+02 -0.15942613938E+02  0.28689116910E+02  0.00000000000E+00 0.  1.
</event>
<event>
 5    1  0.1262391E-009  0.9118800E+02  0.7815553E-02  0.1125453E+00
         25   -1    0    0    0    0  0.00000000000E+00  0.00000000000E+00  0.99999998245E-14  0.12509000000E+03  0.12509000000E+03 0.  0.
        -13    1    3    3    0    0 -0.32152188103E+02  0.71031130586E+01 -0.66461676480E+01  0.33591667470E+02  0.10566000000E+00 0. -1.
         23    2    1    0    0    0  0.25213670498E+02 -0.12905189870E+02  0.71146647172E+01  0.95885692790E+02  0.91330030779E+02 0.  0.
         13    1    3    3    0    0  0.57365858602E+02 -0.20008302929E+02  0.13760832365E+02  0.62294025320E+02  0.10566000000E+00 0.  1.
         22    1    1    0    0    0 -0.25213670498E+02  0.12905189870E+02 -0.71146647172E+01  0.29204307210E+02  0.00000000000E+00 0.  1.
</event>
<event>
 5    1  0.1262391E-009  0.9118800E+02  0.7815553E-02  0.1125453E+00
         25   -1    0    0    0    0  0.00000000000E+00  0.00000000000E+00  0.99999998245E-14  0.12509000000E+03  0.12509000000E+03 0.  0.
        -13    1    3    3    0    0 -0.24884705229E+02 -0.26729846590E+02  0.63903244119E+01  0.37075337668E+02  0.10566000000E+00 0.  1.
         23    2    1    0    0    0  0.26479044804E+02  0.23730565734E+01  0.11061007567E+02  0.96295606455E+02  0.91889753089E+02 0.  0.
         13    1    3    3    0    0  0.51363750033E+02  0.29102903163E+02  0.46706831555E+01  0.59220268787E+02  0.10566000000E+00 0. -1.
         22    1    1    0    0    0 -0.26479044804E+02 -0.23730565734E+01 -0.11061007567E+02  0.28794393545E+02  0.00000000000E+00 0. -1.
</event>
<event>
 5    1  0.1262391E-009  0.9118800E+02  0.7815553E-02  0.1125453E+00
         25   -1    0    0    0    0  0.00000000000E+00  0.00000000000E+00  0.99999998245E-14  0.12509000000E+03  0.12509000000E+03 0.  0.
        -13    1    3    3    0    0 -0.22900456424E+02 -0.17063285884E+02  0.17234411078E+02  0.33355999742E+02  0.10566000000E+00 0. -1.
         23    2    1    0    0    0  0.27577310891E+02  0.10094193420E+02 -0.58444542465E+01  0.95147413903E+02  0.90313187908E+02 0.  0.
         13    1    3    3    0    0  0.50477767315E+02  0.27157479303E+02 -0.23078865325E+02  0.61791414160E+02  0.10566000000E+00 0.  1.
         22    1    1    0    0    0 -0.27577310891E+02 -0.10094193420E+02  0.58444542465E+01  0.29942586097E+02  0.00000000000E+00 0.  1.
</event>
<event>
 5    1  0.1262391E-009  0.9118800E+02  0.7815553E-02  0.1125453E+00
         25   -1    0    0    0    0  0.00000000000E+00  0.00000000000E+00  0.99999998245E-14  0.12509000000E+03  0.12509000000E+03 0.  0.
        -13    1    3    3    0    0  0.11361894592E+02 -0.15963586997E+02 -0.54422913594E+02  0.57842834012E+02  0.10566000000E+00 0. -1.
         23    2    1    0    0    0  0.16831849149E+02 -0.15673340953E+02 -0.15029371802E+02  0.97615524952E+02  0.93669332935E+02 0.  0.
         13    1    3    3    0    0  0.54699545572E+01  0.29024604376E+00  0.39393541792E+02  0.39772690939E+02  0.10566000000E+00 0.  1.
         22    1    1    0    0    0 -0.16831849149E+02  0.15673340953E+02  0.15029371802E+02  0.27474475048E+02  0.00000000000E+00 0. -1.
</event>
<event>
 5    1  0.1262391E-009  0.9118800E+02  0.7815553E-02  0.1125453E+00
         25   -1    0    0    0    0  0.00000000000E+00  0.00000000000E+00  0.99999998245E-14  0.12509000000E+03  0.12509000000E+03 0.  0.
        -13    1    3    3    0    0  0.23808395176E+02  0.43409253231E+02 -0.22867497229E+02  0.54535644679E+02  0.10566000000E+00 0.  1.
         23    2    1    0    0    0 -0.59471317029E+01  0.28560997266E+02  0.16784455970E+01  0.95868156801E+02  0.91306009487E+02 0.  0.
         13    1    3    3    0    0 -0.29755526879E+02 -0.14848255965E+02  0.24545942827E+02  0.41332512122E+02  0.10566000000E+00 0. -1.
         22    1    1    0    0    0  0.59471317029E+01 -0.28560997266E+02 -0.16784455970E+01  0.29221843199E+02  0.00000000000E+00 0.  1.
</event>
<event>
 5    1  0.1262391E-009  0.9118800E+02  0.7815553E-02  0.1125453E+00
         25   -1    0    0    0    0  0.00000000000E+00  0.00000000000E+00  0.99999998245E-14  0.12509000000E+03  0.12509000000E+03 0.  0.
        -13    1    3    3    0    0 -0.37695048921E+02 -0.69532284223E+01  0.95843887004E+01  0.39511210680E+02  0.10566000000E+00 0. -1.
         23    2    1    0    0    0  0.45794732717E+01  0.28366724783E+02 -0.35346202004E+01  0.96139418135E+02  0.91676886559E+02 0.  0.
         13    1    3    3    0    0  0.42274522192E+02  0.35319953205E+02 -0.13119008901E+02  0.56628207455E+02  0.10566000000E+00 0.  1.
         22    1    1    0    0    0 -0.45794732717E+01 -0.28366724783E+02  0.35346202004E+01  0.28950581865E+02  0.00000000000E+00 0.  1.
</event>
<event>
 5    1  0.1262391E-009  0.9118800E+02  0.7815553E-02  0.1125453E+00
         25   -1    0    0    0    0  0.00000000000E+00  0.00000000000E+00  0.99999998245E-14  0.12509000000E+03  0.12509000000E+03 0.  0.
        -13    1    3    3    0    0  0.29884225247E+02 -0.11898314235E+02 -0.25681767497E+02  0.41160674752E+02  0.10566000000E+00 0. -1.
         23    2    1    0    0    0  0.13915413187E+02 -0.71014422490E+01  0.25607986862E+02  0.95092696833E+02  0.90237369164E+02 0.  0.
         13    1    3    3    0    0 -0.15968812060E+02  0.47968719861E+01  0.51289754359E+02  0.53932022080E+02  0.10566000000E+00 0.  1.
         22    1    1    0    0    0 -0.13915413187E+02  0.71014422490E+01 -0.25607986862E+02  0.29997303167E+02  0.00000000000E+00 0.  1.
</event>
<event>
 5    1  0.1262391E-009  0.9118800E+02  0.7815553E-02  0.1125453E+00
         25   -1    0    0    0    0  0.00000000000E+00  0.00000000000E+00  0.99999998245E-14  0.12509000000E+03  0.12509000000E+03 0.  0.
        -13    1    3    3    0    0  0.30163214019E+02  0.13927713786E+02  0.77289041497E+00  0.33232652842E+02  0.10566000000E+00 0.  1.
         23    2    1    0    0    0  0.33308080905E+02 -0.20723487323E+02  0.27563774028E+02  0.77145732156E+02  0.60438490806E+02 0.  0.
         13    1    3    3    0    0  0.31448668857E+01 -0.34651201109E+02  0.26790883613E+02  0.43913079314E+02  0.10566000000E+00 0. -1.
         22    1    1    0    0    0 -0.33308080905E+02  0.20723487323E+02 -0.27563774028E+02  0.47944267844E+02  0.00000000000E+00 0.  1.
</event>
<event>
 5    1  0.1262391E-009  0.9118800E+02  0.7815553E-02  0.1125453E+00
         25   -1    0    0    0    0  0.00000000000E+00  0.00000000000E+00  0.99999998245E-14  0.12509000000E+03  0.12509000000E+03 0.  0.
        -13    1    3    3    0    0 -0.52600097587E+02 -0.30147044496E+02  0.16432650463E+01  0.60649204793E+02  0.10566000000E+00 0.  1.
         23    2    1    0    0    0 -0.19757665221E+02 -0.22544187801E+02  0.56097177259E+01  0.94592874372E+02  0.89541818221E+02 0.  0.
         13    1    3    3    0    0  0.32842432365E+02  0.76028566948E+01  0.39664526796E+01  0.33943669579E+02  0.10566000000E+00 0. -1.
         22    1    1    0    0    0  0.19757665221E+02  0.22544187801E+02 -0.56097177259E+01  0.30497125628E+02  0.00000000000E+00 0.  1.
</event>
<event>
 5    1  0.1262391E-009  0.9118800E+02  0.7815553E-02  0.1125453E+00
         25   -1    0    0    0    0  0.00000000000E+00  0.00000000000E+00  0.99999998245E-14  0.12509000000E+03  0.12509000000E+03 0.  0.
        -13    1    3    3    0    0  0.47026039584E+02  0.31017164378E+02 -0.10269483668E+02  0.57262433967E+02  0.10566000000E+00 0. -1.
         23    2    1    0    0    0  0.28294946231E+02  0.36950548617E+00  0.51097616613E+01  0.96334997291E+02  0.91943360404E+02 0.  0.
         13    1    3    3    0    0 -0.18731093353E+02 -0.30647658892E+02  0.15379245330E+02  0.39072563324E+02  0.10566000000E+00 0.  1.
         22    1    1    0    0    0 -0.28294946231E+02 -0.36950548617E+00 -0.51097616613E+01  0.28755002709E+02  0.00000000000E+00 0. -1.
</event>
<event>
 5    1  0.1262391E-009  0.9118800E+02  0.7815553E-02  0.1125453E+00
         25   -1    0    0    0    0  0.00000000000E+00  0.00000000000E+00  0.99999998245E-14  0.12509000000E+03  0.12509000000E+03 0.  0.
        -13    1    3    3    0    0 -0.10335602377E+02 -0.20349514699E+02  0.36732692238E+02  0.43246147436E+02  0.10566000000E+00 0. -1.
         23    2    1    0    0    0 -0.43103071059E+01 -0.19543456177E+02 -0.17914244308E+02  0.98230261062E+02  0.94486711301E+02 0.  0.
         13    1    3    3    0    0  0.60252952712E+01  0.80605852153E+00 -0.54646936545E+02  0.54984113626E+02  0.10566000000E+00 0.  1.
         22    1    1    0    0    0  0.43103071059E+01  0.19543456177E+02  0.17914244308E+02  0.26859738938E+02  0.00000000000E+00 0.  1.
</event>
<event>
 5    1  0.1262391E-009  0.9118800E+02  0.7815553E-02  0.1125453E+00
         25   -1    0    0    0    0  0.00000000000E+00  0.00000000000E+00  0.99999998245E-14  0.12509000000E+03  0.12509000000E+03 0.  0.
        -13    1    3    3    0    0  0.49523617893E+02 -0.18647931080E+02  0.48921752793E+01  0.53143942325E+02  0.10566000000E+00 0.  1.
         23    2    1    0    0    0  0.11916636030E+02 -0.11343686167E+02  0.24029478777E+02  0.95967821503E+02  0.91442449025E+02 0.  0.
         13    1    3    3    0    0 -0.37606981864E+02  0.73042449134E+01  0.19137303498E+02  0.42823879178E+02  0.10566000000E+00 0. -1.
         22    1    1    0    0    0 -0.11916636030E+02  0.11343686167E+02 -0.24029478777E+02  0.29122178497E+02  0.00000000000E+00 0.  1.
</event>
<event>
 5    1  0.1262391E-009  0.9118800E+02  0.7815553E-02  0.1125453E+00
         25   -1    0    0    0    0  0.00000000000E+00  0.00000000000E+00  0.99999998245E-14  0.12509000000E+03  0.12509000000E+03 0.  0.
        -13    1    3    3    0    0 -0.42495247968E+02  0.60124703512E+01  0.91836112276E-01  0.42918708013E+02  0.10566000000E+00 0. -1.
         23    2    1    0    0    0  0.49890434940E+01  0.21663147843E+02 -0.18406888819E+02  0.96228328437E+02  0.91798121486E+02 0.  0.
         13    1    3    3    0    0  0.47484291462E+02  0.15650677491E+02 -0.18498724931E+02  0.53309620424E+02  0.10566000000E+00 0.  1.
         22    1    1    0    0    0 -0.49890434940E+01 -0.21663147843E+02  0.18406888819E+02  0.28861671563E+02  0.00000000000E+00 0.  1.
</event>
<event>
 5    1  0.1262391E-009  0.9118800E+02  0.7815553E-02  0.1125453E+00
         25   -1    0    0    0    0  0.00000000000E+00  0.00000000000E+00  0.99999998245E-14  0.12509000000E+03  0.12509000000E+03 0.  0.
        -13    1    3    3    0    0  0.16637910299E+02  0.18423182727E+02  0.23232911192E+02  0.34000191873E+02  0.10566000000E+00 0.  1.
         23    2    1    0    0    0  0.15077558938E+01 -0.20141479200E+02 -0.21923707448E+02  0.95280581011E+02  0.90497445584E+02 0.  0.
         13    1    3    3    0    0 -0.15130154405E+02 -0.38564661927E+02 -0.45156618640E+02  0.61280389138E+02  0.10566000000E+00 0. -1.
         22    1    1    0    0    0 -0.15077558938E+01  0.20141479200E+02  0.21923707448E+02  0.29809418989E+02  0.00000000000E+00 0. -1.
</event>
<event>
 5    1  0.1262391E-009  0.9118800E+02  0.7815553E-02  0.1125453E+00
         25   -1    0    0    0    0  0.00000000000E+00  0.00000000000E+00  0.99999998245E-14  0.12509000000E+03  0.12509000000E+03 0.  0.
        -13    1    3    3    0    0 -0.14666075804E+01 -0.32768417795E+02  0.36039930446E+02  0.48732000710E+02  0.10566000000E+00 0.  1.
         23    2    1    0    0    0  0.26215385630E+02 -0.26480967973E+01  0.12552809271E+02  0.95903840935E+02  0.91354883970E+02 0.  0.
         13    1    3    3    0    0  0.27681993210E+02  0.30120320998E+02 -0.23487121175E+02  0.47171840225E+02  0.10566000000E+00 0. -1.
         22    1    1    0    0    0 -0.26215385630E+02  0.26480967973E+01 -0.12552809271E+02  0.29186159065E+02  0.00000000000E+00 0.  1.
</event>
<event>
 5    1  0.1262391E-009  0.9118800E+02  0.7815553E-02  0.1125453E+00
         25   -1    0    0    0    0  0.00000000000E+00  0.00000000000E+00  0.99999998245E-14  0.12509000000E+03  0.12509000000E+03 0.  0.
        -13    1    3    3    0    0  0.26406095639E+02 -0.20915752637E+02  0.84033302143E+01  0.34718550056E+02  0.10566000000E+00 0. -1.
         23    2    1    0    0    0 -0.14865189917E+02  0.19909013614E+02  0.19104096584E+02  0.93748187661E+02  0.88353910435E+02 0.  0.
         13    1    3    3    0    0 -0.41271285556E+02  0.40824766251E+02  0.10700766370E+02  0.59029637606E+02  0.10566000000E+00 0.  1.
         22    1    1    0    0    0  0.14865189917E+02 -0.19909013614E+02 -0.19104096584E+02  0.31341812339E+02  0.00000000000E+00 0.  1.
</event>
<event>
 5    1  0.1262391E-009  0.9118800E+02  0.7815553E-02  0.1125453E+00
         25   -1    0    0    0    0  0.00000000000E+00  0.00000000000E+00  0.99999998245E-14  0.12509000000E+03  0.12509000000E+03 0.  0.
        -13    1    3    3    0    0  0.36698183756E+01 -0.50018183374E+02 -0.17700912245E+02  0.53184769374E+02  0.10566000000E+00 0.  1.
         23    2    1    0    0    0  0.17838325031E+02 -0.75481212876E+01 -0.18976001870E+02  0.97974162896E+02  0.94147055043E+02 0.  0.
         13    1    3    3    0    0  0.14168506655E+02  0.42470062087E+02 -0.12750896255E+01  0.44789393522E+02  0.10566000000E+00 0. -1.
         22    1    1    0    0    0 -0.17838325031E+02  0.75481212876E+01  0.18976001870E+02  0.27115837104E+02  0.00000000000E+00 0. -1.
</event>
<event>
 5    1  0.1262391E-009  0.9118800E+02  0.7815553E-02  0.1125453E+00
         25   -1    0    0    0    0  0.00000000000E+00  0.00000000000E+00  0.99999998245E-14  0.12509000000E+03  0.12509000000E+03 0.  0.
        -13    1    3    3    0    0  0.20756818607E+00 -0.30881967887E+02 -0.46183214983E+02  0.55557533560E+02  0.10566000000E+00 0. -1.
         23    2    1    0    0    0  0.19363287989E+02 -0.21164201482E+02 -0.17164224916E+02  0.91661405008E+02  0.85348357951E+02 0.  0.
         13    1    3    3    0    0  0.19155719803E+02  0.97177664041E+01  0.29018990066E+02  0.36103871448E+02  0.10566000000E+00 0.  1.
         22    1    1    0    0    0 -0.19363287989E+02  0.21164201482E+02  0.17164224916E+02  0.33428594992E+02  0.00000000000E+00 0. -1.
</event>
<event>
 5    1  0.1262391E-009  0.9118800E+02  0.7815553E-02  0.1125453E+00
         25   -1    0    0    0    0  0.00000000000E+00  0.00000000000E+00  0.99999998245E-14  0.12509000000E+03  0.12509000000E+03 0.  0.
        -13    1    3    3    0    0 -0.78663216443E+01  0.54046047120E+02  0.19906697226E+02  0.58130387785E+02  0.10566000000E+00 0. -1.
         23    2    1    0    0    0 -0.19930571910E+02  0.32535513078E+02  0.18100847228E+02  0.82859347882E+02  0.71289855893E+02 0.  0.
         13    1    3    3    0    0 -0.12064250266E+02 -0.21510534042E+02 -0.18058499984E+01  0.24728960098E+02  0.10566000000E+00 0.  1.
         22    1    1    0    0    0  0.19930571910E+02 -0.32535513078E+02 -0.18100847228E+02  0.42230652118E+02  0.00000000000E+00 0. -1.
</event>
<event>
 5    1  0.1262391E-009  0.9118800E+02  0.7815553E-02  0.1125453E+00
         25   -1    0    0    0    0  0.00000000000E+00  0.00000000000E+00  0.99999998245E-14  0.12509000000E+03  0.12509000000E+03 0.  0.
        -13    1    3    3    0    0 -0.88120358605E+01 -0.52893466531E+02 -0.11363404053E+02  0.54813400673E+02  0.10566000000E+00 0.  1.
         23    2    1    0    0    0 -0.23607571877E+02 -0.13592976764E+02 -0.64697305761E+01  0.97091002144E+02  0.92966224062E+02 0.  0.
         13    1    3    3    0    0 -0.14795536016E+02  0.39300489767E+02  0.48936734765E+01  0.42277601470E+02  0.10566000000E+00 0. -1.
         22    1    1    0    0    0  0.23607571877E+02  0.13592976764E+02  0.64697305761E+01  0.27998997856E+02  0.00000000000E+00 0.  1.
</event>
<event>
 5    1  0.1262391E-009  0.9118800E+02  0.7815553E-02  0.1125453E+00
         25   -1    0    0    0    0  0.00000000000E+00  0.00000000000E+00  0.99999998245E-14  0.12509000000E+03  0.12509000000E+03 0.  0.
        -13    1    3    3    0    0 -0.21887716813E+02  0.27425254656E+02  0.60502317079E+00  0.35094072966E+02  0.10566000000E+00 0.  1.
         23    2    1    0    0    0 -0.63865663114E+01 -0.29871215583E+02 -0.17126395647E+01  0.94495705042E+02  0.89405969529E+02 0.  0.
         13    1    3    3    0    0  0.15501150501E+02 -0.57296470240E+02 -0.23176627355E+01  0.59401632077E+02  0.10566000000E+00 0. -1.
         22    1    1    0    0    0  0.63865663114E+01  0.29871215583E+02  0.17126395647E+01  0.30594294958E+02  0.00000000000E+00 0. -1.
</event>
<event>
 5    1  0.1262391E-009  0.9118800E+02  0.7815553E-02  0.1125453E+00
         25   -1    0    0    0    0  0.00000000000E+00  0.00000000000E+00  0.99999998245E-14  0.12509000000E+03  0.12509000000E+03 0.  0.
        -13    1    3    3    0    0 -0.41643596369E+02 -0.27568333055E+02 -0.33476157514E+02  0.60123758964E+02  0.10566000000E+00 0. -1.
         23    2    1    0    0    0 -0.26505344953E+02 -0.39115134266E+01 -0.10873356197E+02  0.96175243847E+02  0.91725756501E+02 0.  0.
         13    1    3    3    0    0  0.15138251416E+02  0.23656819629E+02  0.22602801317E+02  0.36051484883E+02  0.10566000000E+00 0.  1.
         22    1    1    0    0    0  0.26505344953E+02  0.39115134266E+01  0.10873356197E+02  0.28914756153E+02  0.00000000000E+00 0. -1.
</event>
<event>
 5    1  0.1262391E-009  0.9118800E+02  0.7815553E-02  0.1125453E+00
         25   -1    0    0    0    0  0.00000000000E+00  0.00000000000E+00  0.99999998245E-14  0.12509000000E+03  0.12509000000E+03 0.  0.
        -13    1    3    3    0    0 -0.78485533585E+00 -0.31918128443E+02  0.19884717596E+02  0.37613775124E+02  0.10566000000E+00 0.  1.
         23    2    1    0    0    0  0.22019579750E+02 -0.12093533563E+02 -0.23636548759E+02  0.90596495052E+02  0.83773044782E+02 0.  0.
         13    1    3    3    0    0  0.22804435086E+02  0.19824594880E+02 -0.43521266355E+02  0.52982719928E+02  0.10566000000E+00 0. -1.
         22    1    1    0    0    0 -0.22019579750E+02  0.12093533563E+02  0.23636548759E+02  0.34493504948E+02  0.00000000000E+00 0.  1.
</event>
<event>
 5    1  0.1262391E-009  0.9118800E+02  0.7815553E-02  0.1125453E+00
         25   -1    0    0    0    0  0.00000000000E+00  0.00000000000E+00  0.99999998245E-14  0.12509000000E+03  0.12509000000E+03 0.  0.
        -13    1    3    3    0    0 -0.22342252619E+02  0.42641882922E+02 -0.37935326443E+02  0.61291162394E+02  0.10566000000E+00 0.  1.
         23    2    1    0    0    0 -0.80499051492E+01  0.24954347267E+02 -0.10704750493E+02  0.96768416295E+02  0.92531153071E+02 0.  0.
         13    1    3    3    0    0  0.14292347469E+02 -0.17687535655E+02  0.27230575950E+02  0.35477253901E+02  0.10566000000E+00 0. -1.
         22    1    1    0    0    0  0.80499051492E+01 -0.24954347267E+02  0.10704750493E+02  0.28321583705E+02  0.00000000000E+00 0.  1.
</event>
<event>
 5    1  0.1262391E-009  0.9118800E+02  0.7815553E-02  0.1125453E+00
         25   -1    0    0    0    0  0.00000000000E+00  0.00000000000E+00  0.99999998245E-14  0.12509000000E+03  0.12509000000E+03 0.  0.
        -13    1    3    3    0    0 -0.66503875402E+01 -0.89617717723E+01 -0.51212252784E+02  0.52414187077E+02  0.10566000000E+00 0. -1.
         23    2    1    0    0    0  0.18189393956E+02 -0.16090682806E+02 -0.16335137973E+02  0.95822255668E+02  0.91243102880E+02 0.  0.
         13    1    3    3    0    0  0.24839781496E+02 -0.71289110338E+01  0.34877114810E+02  0.43408068591E+02  0.10566000000E+00 0.  1.
         22    1    1    0    0    0 -0.18189393956E+02  0.16090682806E+02  0.16335137973E+02  0.29267744332E+02  0.00000000000E+00 0. -1.
</event>
<event>
 5    1  0.1262391E-009  0.9118800E+02  0.7815553E-02  0.1125453E+00
         25   -1    0    0    0    0  0.00000000000E+00  0.00000000000E+00  0.99999998245E-14  0.12509000000E+03  0.12509000000E+03 0.  0.
        -13    1    3    3    0    0  0.31113840676E+02  0.23858564773E+02  0.45376890201E+02  0.59969788419E+02  0.10566000000E+00 0.  1.
         23    2    1    0    0    0  0.89619881836E+01  0.21116947052E+01  0.28150952970E+02  0.95471548996E+02  0.90761027032E+02 0.  0.
         13    1    3    3    0    0 -0.22151852492E+02 -0.21746870068E+02 -0.17225937231E+02  0.35501760578E+02  0.10566000000E+00 0. -1.
         22    1    1    0    0    0 -0.89619881836E+01 -0.21116947052E+01 -0.28150952970E+02  0.29618451004E+02  0.00000000000E+00 0.  1.
</event>
<event>
 5    1  0.1262391E-009  0.9118800E+02  0.7815553E-02  0.1125453E+00
         25   -1    0    0    0    0  0.00000000000E+00  0.00000000000E+00  0.99999998245E-14  0.12509000000E+03  0.12509000000E+03 0.  0.
        -13    1    3    3    0    0  0.39294100959E+01  0.12123295072E+02 -0.50494536096E+02  0.52078055712E+02  0.10566000000E+00 0. -1.
         23    2    1    0    0    0  0.14796076321E+02 -0.16401809085E+02 -0.18776652939E+02  0.96098520021E+02  0.91621065476E+02 0.  0.
         13    1    3    3    0    0  0.10866666225E+02 -0.28525104157E+02  0.31717883158E+02  0.44020464310E+02  0.10566000000E+00 0.  1.
         22    1    1    0    0    0 -0.14796076321E+02  0.16401809085E+02  0.18776652939E+02  0.28991479979E+02  0.00000000000E+00 0. -1.
</event>
<event>
 5    1  0.1262391E-009  0.9118800E+02  0.7815553E-02  0.1125453E+00
         25   -1    0    0    0    0  0.00000000000E+00  0.00000000000E+00  0.99999998245E-14  0.12509000000E+03  0.12509000000E+03 0.  0.
        -13    1    3    3    0    0 -0.27322834137E+02 -0.44150528785E+02 -0.32616956268E+02  0.61316257693E+02  0.10566000000E+00 0. -1.
         23    2    1    0    0    0 -0.11039481958E+02 -0.17765669990E+02 -0.23491068423E+02  0.93636550464E+02  0.88195714720E+02 0.  0.
         13    1    3    3    0    0  0.16283352179E+02  0.26384858794E+02  0.91258878456E+01  0.32320292771E+02  0.10566000000E+00 0.  1.
         22    1    1    0    0    0  0.11039481958E+02  0.17765669990E+02  0.23491068423E+02  0.31453449536E+02  0.00000000000E+00 0. -1.
</event>
<event>
 5    1  0.1262391E-009  0.9118800E+02  0.7815553E-02  0.1125453E+00
         25   -1    0    0    0    0  0.00000000000E+00  0.00000000000E+00  0.99999998245E-14  0.12509000000E+03  0.12509000000E+03 0.  0.
        -13    1    3    3    0    0 -0.33678223636E+02  0.21028437291E+02 -0.30120836661E+02  0.49836672113E+02  0.10566000000E+00 0. -1.
         23    2    1    0    0    0  0.11291317825E+02  0.11498463828E+02 -0.23957877798E+02  0.96216336616E+02  0.91781779207E+02 0.  0.
         13    1    3    3    0    0  0.44969541460E+02 -0.95299734624E+01  0.61629588626E+01  0.46379664502E+02  0.10566000000E+00 0.  1.
         22    1    1    0    0    0 -0.11291317825E+02 -0.11498463828E+02  0.23957877798E+02  0.28873663384E+02  0.00000000000E+00 0. -1.
</event>
<event>
 5    1  0.1262391E-009  0.9118800E+02  0.7815553E-02  0.1125453E+00
         25   -1    0    0    0    0  0.00000000000E+00  0.00000000000E+00  0.99999998245E-14  0.12509000000E+03  0.12509000000E+03 0.  0.
        -13    1    3    3    0    0 -0.17878426877E+02 -0.55315640926E+02 -0.20416299322E+02  0.61614078917E+02  0.10566000000E+00 0.  1.
         23    2    1    0    0    0 -0.68764412629E+01 -0.27093547032E+02 -0.19957294688E+01  0.97066283771E+02  0.92932958490E+02 0.  0.
         13    1    3    3    0    0  0.11001985614E+02  0.28222093895E+02  0.18420569853E+02  0.35452204854E+02  0.10566000000E+00 0. -1.
         22    1    1    0    0    0  0.68764412629E+01  0.27093547032E+02  0.19957294688E+01  0.28023716229E+02  0.00000000000E+00 0.  1.
</event>
<event>
 5    1  0.1262391E-009  0.9118800E+02  0.7815553E-02  0.1125453E+00
         25   -1    0    0    0    0  0.00000000000E+00  0.00000000000E+00  0.99999998245E-14  0.12509000000E+03  0.12509000000E+03 0.  0.
        -13    1    3    3    0    0 -0.61233255269E+02  0.35134976383E+01 -0.48915791123E+01  0.61528813793E+02  0.10566000000E+00 0.  1.
         23    2    1    0    0    0 -0.26477663048E+02  0.18705002161E+01 -0.10057572011E+02  0.96704789655E+02  0.92445098171E+02 0.  0.
         13    1    3    3    0    0  0.34755592221E+02 -0.16429974222E+01 -0.51659928991E+01  0.35175975862E+02  0.10566000000E+00 0. -1.
         22    1    1    0    0    0  0.26477663048E+02 -0.18705002161E+01  0.10057572011E+02  0.28385210345E+02  0.00000000000E+00 0.  1.
</event>
<event>
 5    1  0.1262391E-009  0.9118800E+02  0.7815553E-02  0.1125453E+00
         25   -1    0    0    0    0  0.00000000000E+00  0.00000000000E+00  0.99999998245E-14  0.12509000000E+03  0.12509000000E+03 0.  0.
        -13    1    3    3    0    0 -0.17138364498E+02  0.52978004358E+02  0.15160665609E+02  0.57708313346E+02  0.10566000000E+00 0.  1.
         23    2    1    0    0    0  0.40741629831E+01  0.22943342592E+02  0.19461946131E+02  0.94729447955E+02  0.89732408802E+02 0.  0.
         13    1    3    3    0    0  0.21212527481E+02 -0.30034661767E+02  0.43012805220E+01  0.37021134609E+02  0.10566000000E+00 0. -1.
         22    1    1    0    0    0 -0.40741629831E+01 -0.22943342592E+02 -0.19461946131E+02  0.30360552045E+02  0.00000000000E+00 0.  1.
</event>
<event>
 5    1  0.1262391E-009  0.9118800E+02  0.7815553E-02  0.1125453E+00
         25   -1    0    0    0    0  0.00000000000E+00  0.00000000000E+00  0.99999998245E-14  0.12509000000E+03  0.12509000000E+03 0.  0.
        -13    1    3    3    0    0 -0.48100203566E+02 -0.24217011756E+02 -0.37411570488E+01  0.53982410668E+02  0.10566000000E+00 0. -1.
         23    2    1    0    0    0 -0.26911333789E+02  0.10886440693E+02 -0.73510614715E+01  0.95143838610E+02  0.90308235745E+02 0.  0.
         13    1    3    3    0    0  0.21188869777E+02  0.35103452448E+02 -0.36099044227E+01  0.41161427941E+02  0.10566000000E+00 0.  1.
         22    1    1    0    0    0  0.26911333789E+02 -0.10886440693E+02  0.73510614715E+01  0.29946161390E+02  0.00000000000E+00 0.  1.
</event>
<event>
 5    1  0.1262391E-009  0.9118800E+02  0.7815553E-02  0.1125453E+00
         25   -1    0    0    0    0  0.00000000000E+00  0.00000000000E+00  0.99999998245E-14  0.12509000000E+03  0.12509000000E+03 0.  0.
        -13    1    3    3    0    0 -0.12616651613E+02  0.24723280940E+02 -0.28283123271E+02  0.39627853139E+02  0.10566000000E+00 0. -1.
         23    2    1    0    0    0  0.30000976244E+02  0.30771633239E+01 -0.47548051371E+00  0.94927878200E+02  0.90008602190E+02 0.  0.
         13    1    3    3    0    0  0.42617627857E+02 -0.21646117616E+02  0.27807642758E+02  0.55300025062E+02  0.10566000000E+00 0.  1.
         22    1    1    0    0    0 -0.30000976244E+02 -0.30771633239E+01  0.47548051371E+00  0.30162121800E+02  0.00000000000E+00 0.  1.
</event>
<event>
 5    1  0.1262391E-009  0.9118800E+02  0.7815553E-02  0.1125453E+00
         25   -1    0    0    0    0  0.00000000000E+00  0.00000000000E+00  0.99999998245E-14  0.12509000000E+03  0.12509000000E+03 0.  0.
        -13    1    3    3    0    0  0.78179576434E+01  0.22291635563E+02  0.24640457200E+02  0.34135037320E+02  0.10566000000E+00 0. -1.
         23    2    1    0    0    0  0.17639457321E+01 -0.11856190032E+02 -0.26545680418E+02  0.95963484667E+02  0.91436516195E+02 0.  0.
         13    1    3    3    0    0 -0.60540119113E+01 -0.34147825595E+02 -0.51186137617E+02  0.61828447347E+02  0.10566000000E+00 0.  1.
         22    1    1    0    0    0 -0.17639457321E+01  0.11856190032E+02  0.26545680418E+02  0.29126515333E+02  0.00000000000E+00 0.  1.
</event>
<event>
 5    1  0.1262391E-009  0.9118800E+02  0.7815553E-02  0.1125453E+00
         25   -1    0    0    0    0  0.00000000000E+00  0.00000000000E+00  0.99999998245E-14  0.12509000000E+03  0.12509000000E+03 0.  0.
        -13    1    3    3    0    0  0.20756081696E+01  0.55795899616E+02 -0.27159129917E+01  0.55900607427E+02  0.10566000000E+00 0. -1.
         23    2    1    0    0    0  0.67687386929E+01  0.17518886132E+02 -0.19551665631E+02  0.97979212041E+02  0.94153763432E+02 0.  0.
         13    1    3    3    0    0  0.46931305233E+01 -0.38277013484E+02 -0.16835752639E+02  0.42078604615E+02  0.10566000000E+00 0.  1.
         22    1    1    0    0    0 -0.67687386929E+01 -0.17518886132E+02  0.19551665631E+02  0.27110787959E+02  0.00000000000E+00 0. -1.
</event>
<event>
 5    1  0.1262391E-009  0.9118800E+02  0.7815553E-02  0.1125453E+00
         25   -1    0    0    0    0  0.00000000000E+00  0.00000000000E+00  0.99999998245E-14  0.12509000000E+03  0.12509000000E+03 0.  0.
        -13    1    3    3    0    0  0.54869790341E+01 -0.11842201123E+02  0.55094267146E+02  0.56619202598E+02  0.10566000000E+00 0.  1.
         23    2    1    0    0    0  0.32742848167E+00 -0.23435150285E+02  0.18874851891E+02  0.94997251501E+02  0.90104962575E+02 0.  0.
         13    1    3    3    0    0 -0.51595505525E+01 -0.11592949162E+02 -0.36219415255E+02  0.38378048904E+02  0.10566000000E+00 0. -1.
         22    1    1    0    0    0 -0.32742848167E+00  0.23435150285E+02 -0.18874851891E+02  0.30092748499E+02  0.00000000000E+00 0. -1.
</event>
<event>
 5    1  0.1262391E-009  0.9118800E+02  0.7815553E-02  0.1125453E+00
         25   -1    0    0    0    0  0.00000000000E+00  0.00000000000E+00  0.99999998245E-14  0.12509000000E+03  0.12509000000E+03 0.  0.
        -13    1    3    3    0    0  0.15572735915E+02 -0.33088846287E+02 -0.29341414226E+02  0.46886155796E+02  0.10566000000E+00 0. -1.
         23    2    1    0    0    0  0.14547250231E+02  0.15797517960E+02 -0.17969744040E+02  0.97088289983E+02  0.92962574663E+02 0.  0.
         13    1    3    3    0    0 -0.10254856844E+01  0.48886364247E+02  0.11371670186E+02  0.50202134188E+02  0.10566000000E+00 0.  1.
         22    1    1    0    0    0 -0.14547250231E+02 -0.15797517960E+02  0.17969744040E+02  0.28001710017E+02  0.00000000000E+00 0.  1.
</event>
<event>
 5    1  0.1262391E-009  0.9118800E+02  0.7815553E-02  0.1125453E+00
         25   -1    0    0    0    0  0.00000000000E+00  0.00000000000E+00  0.99999998245E-14  0.12509000000E+03  0.12509000000E+03 0.  0.
        -13    1    3    3    0    0 -0.49621399736E+02 -0.78906054456E+01  0.25571767702E+02  0.56377933924E+02  0.10566000000E+00 0. -1.
         23    2    1    0    0    0 -0.29155393784E+02 -0.11484519468E+01 -0.66717136708E+01  0.95158951039E+02  0.90329166225E+02 0.  0.
         13    1    3    3    0    0  0.20466005952E+02  0.67421534988E+01 -0.32243481373E+02  0.38781017115E+02  0.10566000000E+00 0.  1.
         22    1    1    0    0    0  0.29155393784E+02  0.11484519468E+01  0.66717136708E+01  0.29931048961E+02  0.00000000000E+00 0. -1.
</event>
<event>
 5    1  0.1262391E-009  0.9118800E+02  0.7815553E-02  0.1125453E+00
         25   -1    0    0    0    0  0.00000000000E+00  0.00000000000E+00  0.99999998245E-14  0.12509000000E+03  0.12509000000E+03 0.  0.
        -13    1    3    3    0    0 -0.30635376182E+01 -0.45159555903E+02  0.52850821592E+01  0.45570977711E+02  0.10566000000E+00 0. -1.
         23    2    1    0    0    0  0.15733347073E+02 -0.31203444364E+01  0.24775141483E+02  0.95575894982E+02  0.90904726536E+02 0.  0.
         13    1    3    3    0    0  0.18796884691E+02  0.42039211466E+02  0.19490059324E+02  0.50004917271E+02  0.10566000000E+00 0.  1.
         22    1    1    0    0    0 -0.15733347073E+02  0.31203444364E+01 -0.24775141483E+02  0.29514105018E+02  0.00000000000E+00 0.  1.
</event>
<event>
 5    1  0.1262391E-009  0.9118800E+02  0.7815553E-02  0.1125453E+00
         25   -1    0    0    0    0  0.00000000000E+00  0.00000000000E+00  0.99999998245E-14  0.12509000000E+03  0.12509000000E+03 0.  0.
        -13    1    3    3    0    0  0.16384912440E+02 -0.17519084424E+01  0.29967880527E+02  0.34199701258E+02  0.10566000000E+00 0.  1.
         23    2    1    0    0    0 -0.17408848138E+02  0.12591975302E+02 -0.19684700341E+02  0.95950451908E+02  0.91418684952E+02 0.  0.
         13    1    3    3    0    0 -0.33793760578E+02  0.14343883745E+02 -0.49652580868E+02  0.61750750649E+02  0.10566000000E+00 0. -1.
         22    1    1    0    0    0  0.17408848138E+02 -0.12591975302E+02  0.19684700341E+02  0.29139548092E+02  0.00000000000E+00 0. -1.
</event>
<event>
 5    1  0.1262391E-009  0.9118800E+02  0.7815553E-02  0.1125453E+00
         25   -1    0    0    0    0  0.00000000000E+00  0.00000000000E+00  0.99999998245E-14  0.12509000000E+03  0.12509000000E+03 0.  0.
        -13    1    3    3    0    0 -0.42365678529E+02  0.41698576975E+02  0.18620096615E+02  0.62292384775E+02  0.10566000000E+00 0. -1.
         23    2    1    0    0    0 -0.16042325195E+02  0.18757173573E+02  0.11182016535E+02  0.97993408851E+02  0.94172623019E+02 0.  0.
         13    1    3    3    0    0  0.26323353334E+02 -0.22941403401E+02 -0.74380800794E+01  0.35701024076E+02  0.10566000000E+00 0.  1.
         22    1    1    0    0    0  0.16042325195E+02 -0.18757173573E+02 -0.11182016535E+02  0.27096591149E+02  0.00000000000E+00 0. -1.
</event>
<event>
 5    1  0.1262391E-009  0.9118800E+02  0.7815553E-02  0.1125453E+00
         25   -1    0    0    0    0  0.00000000000E+00  0.00000000000E+00  0.99999998245E-14  0.12509000000E+03  0.12509000000E+03 0.  0.
        -13    1    3    3    0    0  0.41522067190E+02  0.16494017564E+02 -0.38099226659E+02  0.58717092189E+02  0.10566000000E+00 0. -1.
         23    2    1    0    0    0  0.21499589784E+02 -0.75305591533E+01 -0.19494719420E+02  0.95106908643E+02  0.90257067892E+02 0.  0.
         13    1    3    3    0    0 -0.20022477406E+02 -0.24024576718E+02  0.18604507239E+02  0.36389816454E+02  0.10566000000E+00 0.  1.
         22    1    1    0    0    0 -0.21499589784E+02  0.75305591533E+01  0.19494719420E+02  0.29983091357E+02  0.00000000000E+00 0. -1.
</event>
<event>
 5    1  0.1262391E-009  0.9118800E+02  0.7815553E-02  0.1125453E+00
         25   -1    0    0    0    0  0.00000000000E+00  0.00000000000E+00  0.99999998245E-14  0.12509000000E+03  0.12509000000E+03 0.  0.
        -13    1    3    3    0    0  0.24661661561E+02  0.96948847377E+01  0.32250385893E+02  0.41740710288E+02  0.10566000000E+00 0.  1.
         23    2    1    0    0    0 -0.24467108442E+02 -0.55497270044E+01  0.14237384631E+02  0.96243128653E+02  0.91818286994E+02 0.  0.
         13    1    3    3    0    0 -0.49128770003E+02 -0.15244611742E+02 -0.18013001263E+02  0.54502418366E+02  0.10566000000E+00 0. -1.
         22    1    1    0    0    0  0.24467108442E+02  0.55497270044E+01 -0.14237384631E+02  0.28846871347E+02  0.00000000000E+00 0. -1.
</event>
<event>
 5    1  0.1262391E-009  0.9118800E+02  0.7815553E-02  0.1125453E+00
         25   -1    0    0    0    0  0.00000000000E+00  0.00000000000E+00  0.99999998245E-14  0.12509000000E+03  0.12509000000E+03 0.  0.
        -13    1    3    3    0    0  0.33436620353E+02 -0.22582581953E+01 -0.44184126977E+02  0.55455888339E+02  0.10566000000E+00 0.  1.
         23    2    1    0    0    0  0.15882443749E+02  0.19603236131E+02 -0.15976429400E+02  0.95227227480E+02  0.90423667648E+02 0.  0.
         13    1    3    3    0    0 -0.17554176604E+02  0.21861494326E+02  0.28207697577E+02  0.39771339141E+02  0.10566000000E+00 0. -1.
         22    1    1    0    0    0 -0.15882443749E+02 -0.19603236131E+02  0.15976429400E+02  0.29862772520E+02  0.00000000000E+00 0.  1.
</event>
<event>
 5    1  0.1262391E-009  0.9118800E+02  0.7815553E-02  0.1125453E+00
         25   -1    0    0    0    0  0.00000000000E+00  0.00000000000E+00  0.99999998245E-14  0.12509000000E+03  0.12509000000E+03 0.  0.
        -13    1    3    3    0    0 -0.35496145169E+02  0.20930551415E+02 -0.66682650725E+01  0.41743756749E+02  0.10566000000E+00 0. -1.
         23    2    1    0    0    0  0.52752242503E+01 -0.92386343701E+01 -0.26755947150E+02  0.96296579505E+02  0.91891077698E+02 0.  0.
         13    1    3    3    0    0  0.40771369420E+02 -0.30169185785E+02 -0.20087682077E+02  0.54552822756E+02  0.10566000000E+00 0.  1.
         22    1    1    0    0    0 -0.52752242503E+01  0.92386343701E+01  0.26755947150E+02  0.28793420495E+02  0.00000000000E+00 0.  1.
</event>
<event>
 5    1  0.1262391E-009  0.9118800E+02  0.7815553E-02  0.1125453E+00
         25   -1    0    0    0    0  0.00000000000E+00  0.00000000000E+00  0.99999998245E-14  0.12509000000E+03  0.12509000000E+03 0.  0.
        -13    1    3    3    0    0  0.44916551885E+02 -0.13129629211E+02 -0.74099239221E+01  0.47379340783E+02  0.10566000000E+00 0. -1.
         23    2    1    0    0    0 -0.10698875005E+01 -0.23819671549E+02 -0.17318344376E+02  0.95620584263E+02  0.90966200706E+02 0.  0.
         13    1    3    3    0    0 -0.45986439386E+02 -0.10690042338E+02 -0.99084204536E+01  0.48241243480E+02  0.10566000000E+00 0.  1.
         22    1    1    0    0    0  0.10698875005E+01  0.23819671549E+02  0.17318344376E+02  0.29469415737E+02  0.00000000000E+00 0. -1.
</event>
<event>
 5    1  0.1262391E-009  0.9118800E+02  0.7815553E-02  0.1125453E+00
         25   -1    0    0    0    0  0.00000000000E+00  0.00000000000E+00  0.99999998245E-14  0.12509000000E+03  0.12509000000E+03 0.  0.
        -13    1    3    3    0    0 -0.34809783383E+02 -0.39492630782E+02  0.26148038239E+02  0.58780268569E+02  0.10566000000E+00 0.  1.
         23    2    1    0    0    0 -0.18044820469E+02 -0.68998851596E+01  0.22225993130E+02  0.95641422248E+02  0.90994851053E+02 0.  0.
         13    1    3    3    0    0  0.16764962914E+02  0.32592745622E+02 -0.39220451084E+01  0.36861153680E+02  0.10566000000E+00 0. -1.
         22    1    1    0    0    0  0.18044820469E+02  0.68998851596E+01 -0.22225993130E+02  0.29448577752E+02  0.00000000000E+00 0.  1.
</event>
<event>
 5    1  0.1262391E-009  0.9118800E+02  0.7815553E-02  0.1125453E+00
         25   -1    0    0    0    0  0.00000000000E+00  0.00000000000E+00  0.99999998245E-14  0.12509000000E+03  0.12509000000E+03 0.  0.
        -13    1    3    3    0    0  0.41375356232E+02 -0.17845344344E+02  0.12685436815E+02  0.46811407683E+02  0.10566000000E+00 0.  1.
         23    2    1    0    0    0  0.74128425989E-01 -0.28461380874E+02 -0.97598925168E+01  0.95001610242E+02  0.90111013480E+02 0.  0.
         13    1    3    3    0    0 -0.41301227806E+02 -0.10616036530E+02 -0.22445329332E+02  0.48190202559E+02  0.10566000000E+00 0. -1.
         22    1    1    0    0    0 -0.74128425989E-01  0.28461380874E+02  0.97598925168E+01  0.30088389758E+02  0.00000000000E+00 0.  1.
</event>
<event>
 5    1  0.1262391E-009  0.9118800E+02  0.7815553E-02  0.1125453E+00
         25   -1    0    0    0    0  0.00000000000E+00  0.00000000000E+00  0.99999998245E-14  0.12509000000E+03  0.12509000000E+03 0.  0.
        -13    1    3    3    0    0  0.14312568099E+02  0.20811922944E+02 -0.33673573114E+02  0.42094018964E+02  0.10566000000E+00 0. -1.
         23    2    1    0    0    0 -0.23107357971E+02  0.17612470989E+02  0.45510005498E+01  0.95681485370E+02  0.91049908895E+02 0.  0.
         13    1    3    3    0    0 -0.37419926070E+02 -0.31994519551E+01  0.38224573664E+02  0.53587466405E+02  0.10566000000E+00 0.  1.
         22    1    1    0    0    0  0.23107357971E+02 -0.17612470989E+02 -0.45510005498E+01  0.29408514630E+02  0.00000000000E+00 0.  1.
</event>
<event>
 5    1  0.1262391E-009  0.9118800E+02  0.7815553E-02  0.1125453E+00
         25   -1    0    0    0    0  0.00000000000E+00  0.00000000000E+00  0.99999998245E-14  0.12509000000E+03  0.12509000000E+03 0.  0.
        -13    1    3    3    0    0  0.41778705833E+02  0.83201355002E+00  0.36151951005E+02  0.55255110471E+02  0.10566000000E+00 0. -1.
         23    2    1    0    0    0  0.64014411988E+01 -0.16697622153E+02  0.20906902474E+02  0.97578409605E+02  0.93619754406E+02 0.  0.
         13    1    3    3    0    0 -0.35377264634E+02 -0.17529635703E+02 -0.15245048531E+02  0.42323299135E+02  0.10566000000E+00 0.  1.
         22    1    1    0    0    0 -0.64014411988E+01  0.16697622153E+02 -0.20906902474E+02  0.27511590395E+02  0.00000000000E+00 0. -1.
</event>
<event>
 5    1  0.1262391E-009  0.9118800E+02  0.7815553E-02  0.1125453E+00
         25   -1    0    0    0    0  0.00000000000E+00  0.00000000000E+00  0.99999998245E-14  0.12509000000E+03  0.12509000000E+03 0.  0.
        -13    1    3    3    0    0 -0.59772968859E-01 -0.52278729982E+02 -0.40334596772E+01  0.52434236357E+02  0.10566000000E+00 0. -1.
         23    2    1    0    0    0  0.61081914627E+00 -0.15945997538E+02  0.22554302332E+02  0.97461310361E+02  0.93463161331E+02 0.  0.
         13    1    3    3    0    0  0.67059211513E+00  0.36332732444E+02  0.26587762009E+02  0.45027074004E+02  0.10566000000E+00 0.  1.
         22    1    1    0    0    0 -0.61081914627E+00  0.15945997538E+02 -0.22554302332E+02  0.27628689639E+02  0.00000000000E+00 0.  1.
</event>
<event>
 5    1  0.1262391E-009  0.9118800E+02  0.7815553E-02  0.1125453E+00
         25   -1    0    0    0    0  0.00000000000E+00  0.00000000000E+00  0.99999998245E-14  0.12509000000E+03  0.12509000000E+03 0.  0.
        -13    1    3    3    0    0  0.32930226299E+02  0.41040975536E+02  0.28227871457E+02  0.59712522707E+02  0.10566000000E+00 0.  1.
         23    2    1    0    0    0  0.18876180431E+02  0.21751871652E+02  0.51579479192E+00  0.96285136655E+02  0.91875499392E+02 0.  0.
         13    1    3    3    0    0 -0.14054045867E+02 -0.19289103884E+02 -0.27712076665E+02  0.36572613948E+02  0.10566000000E+00 0. -1.
         22    1    1    0    0    0 -0.18876180431E+02 -0.21751871652E+02 -0.51579479192E+00  0.28804863345E+02  0.00000000000E+00 0. -1.
</event>
<event>
 5    1  0.1262391E-009  0.9118800E+02  0.7815553E-02  0.1125453E+00
         25   -1    0    0    0    0  0.00000000000E+00  0.00000000000E+00  0.99999998245E-14  0.12509000000E+03  0.12509000000E+03 0.  0.
        -13    1    3    3    0    0 -0.48062182222E+02  0.12796352825E+02 -0.34685747567E+02  0.60636888557E+02  0.10566000000E+00 0.  1.
         23    2    1    0    0    0 -0.16495287262E+02  0.14260566558E+02 -0.20071209985E+02  0.95453675487E+02  0.90736389796E+02 0.  0.
         13    1    3    3    0    0  0.31566894960E+02  0.14642137325E+01  0.14614537582E+02  0.34816786929E+02  0.10566000000E+00 0. -1.
         22    1    1    0    0    0  0.16495287262E+02 -0.14260566558E+02  0.20071209985E+02  0.29636324513E+02  0.00000000000E+00 0.  1.
</event>
<event>
 5    1  0.1262391E-009  0.9118800E+02  0.7815553E-02  0.1125453E+00
         25   -1    0    0    0    0  0.00000000000E+00  0.00000000000E+00  0.99999998245E-14  0.12509000000E+03  0.12509000000E+03 0.  0.
        -13    1    3    3    0    0 -0.13356444547E+02 -0.77289879472E+01 -0.43622125758E+02  0.46271296560E+02  0.10566000000E+00 0.  1.
         23    2    1    0    0    0 -0.33980824097E+02  0.48338710320E+01 -0.71240807893E+01  0.90035538906E+02  0.82931194514E+02 0.  0.
         13    1    3    3    0    0 -0.20624379550E+02  0.12562858979E+02  0.36498044969E+02  0.43764242346E+02  0.10566000000E+00 0. -1.
         22    1    1    0    0    0  0.33980824097E+02 -0.48338710320E+01  0.71240807893E+01  0.35054461094E+02  0.00000000000E+00 0.  1.
</event>
<event>
 5    1  0.1262391E-009  0.9118800E+02  0.7815553E-02  0.1125453E+00
         25   -1    0    0    0    0  0.00000000000E+00  0.00000000000E+00  0.99999998245E-14  0.12509000000E+03  0.12509000000E+03 0.  0.
        -13    1    3    3    0    0 -0.34874581793E+02 -0.34365588314E+01 -0.25479053625E+02  0.43327124639E+02  0.10566000000E+00 0. -1.
         23    2    1    0    0    0  0.72805794521E+01 -0.27966725683E+02 -0.85889325922E+01  0.94941793658E+02  0.90027939204E+02 0.  0.
         13    1    3    3    0    0  0.42155161245E+02 -0.24530166852E+02  0.16890121033E+02  0.51614669019E+02  0.10566000000E+00 0.  1.
         22    1    1    0    0    0 -0.72805794521E+01  0.27966725683E+02  0.85889325922E+01  0.30148206342E+02  0.00000000000E+00 0.  1.
</event>
<event>
 5    1  0.1262391E-009  0.9118800E+02  0.7815553E-02  0.1125453E+00
         25   -1    0    0    0    0  0.00000000000E+00  0.00000000000E+00  0.99999998245E-14  0.12509000000E+03  0.12509000000E+03 0.  0.
        -13    1    3    3    0    0 -0.36727021154E+02  0.22287431021E+02  0.24963968310E+02  0.49687166775E+02  0.10566000000E+00 0.  1.
         23    2    1    0    0    0  0.23141818751E+01  0.30932196077E+02  0.85266945627E+01  0.92920748966E+02  0.87174565536E+02 0.  0.
         13    1    3    3    0    0  0.39041203029E+02  0.86447650557E+01 -0.16437273747E+02  0.43233582191E+02  0.10566000000E+00 0. -1.
         22    1    1    0    0    0 -0.23141818751E+01 -0.30932196077E+02 -0.85266945627E+01  0.32169251034E+02  0.00000000000E+00 0. -1.
</event>
<event>
 5    1  0.1262391E-009  0.9118800E+02  0.7815553E-02  0.1125453E+00
         25   -1    0    0    0    0  0.00000000000E+00  0.00000000000E+00  0.99999998245E-14  0.12509000000E+03  0.12509000000E+03 0.  0.
        -13    1    3    3    0    0 -0.22767642312E+02  0.48537449315E+01 -0.35257667792E+02  0.42249718087E+02  0.10566000000E+00 0. -1.
         23    2    1    0    0    0 -0.48754137229E+01  0.30294474937E+02  0.59059485000E+01  0.93842518528E+02  0.88487361726E+02 0.  0.
         13    1    3    3    0    0  0.17892228589E+02  0.25440730006E+02  0.41163616292E+02  0.51592800441E+02  0.10566000000E+00 0.  1.
         22    1    1    0    0    0  0.48754137229E+01 -0.30294474937E+02 -0.59059485000E+01  0.31247481472E+02  0.00000000000E+00 0.  1.
</event>
<event>
 5    1  0.1262391E-009  0.9118800E+02  0.7815553E-02  0.1125453E+00
         25   -1    0    0    0    0  0.00000000000E+00  0.00000000000E+00  0.99999998245E-14  0.12509000000E+03  0.12509000000E+03 0.  0.
        -13    1    3    3    0    0  0.10439815575E+02  0.23303689224E+02 -0.55128995182E+02  0.60755814162E+02  0.10566000000E+00 0. -1.
         23    2    1    0    0    0  0.42515692844E+00  0.20279965047E+01 -0.29420251868E+02  0.95596869475E+02  0.90933584033E+02 0.  0.
         13    1    3    3    0    0 -0.10014658646E+02 -0.21275692719E+02  0.25708743314E+02  0.34841055313E+02  0.10566000000E+00 0.  1.
         22    1    1    0    0    0 -0.42515692844E+00 -0.20279965047E+01  0.29420251868E+02  0.29493130525E+02  0.00000000000E+00 0. -1.
</event>
<event>
 5    1  0.1262391E-009  0.9118800E+02  0.7815553E-02  0.1125453E+00
         25   -1    0    0    0    0  0.00000000000E+00  0.00000000000E+00  0.99999998245E-14  0.12509000000E+03  0.12509000000E+03 0.  0.
        -13    1    3    3    0    0  0.25173054159E+02 -0.22372989628E+02 -0.32163402650E+02  0.46569614070E+02  0.10566000000E+00 0.  1.
         23    2    1    0    0    0 -0.17031404509E+02 -0.23665509600E+02 -0.99392468577E+01  0.94285556940E+02  0.89111461301E+02 0.  0.
         13    1    3    3    0    0 -0.42204458667E+02 -0.12925199715E+01  0.22224155792E+02  0.47715942870E+02  0.10566000000E+00 0. -1.
         22    1    1    0    0    0  0.17031404509E+02  0.23665509600E+02  0.99392468577E+01  0.30804443060E+02  0.00000000000E+00 0.  1.
</event>
<event>
 5    1  0.1262391E-009  0.9118800E+02  0.7815553E-02  0.1125453E+00
         25   -1    0    0    0    0  0.00000000000E+00  0.00000000000E+00  0.99999998245E-14  0.12509000000E+03  0.12509000000E+03 0.  0.
        -13    1    3    3    0    0  0.15685318523E+02 -0.24714325310E+01  0.37864795164E+02  0.41059603905E+02  0.10566000000E+00 0.  1.
         23    2    1    0    0    0 -0.97806839321E+01  0.26692379094E+02 -0.19493160693E+01  0.96595356415E+02  0.92296902266E+02 0.  0.
         13    1    3    3    0    0 -0.25466002455E+02  0.29163811625E+02 -0.39814111234E+02  0.55535752511E+02  0.10566000000E+00 0. -1.
         22    1    1    0    0    0  0.97806839321E+01 -0.26692379094E+02  0.19493160693E+01  0.28494643585E+02  0.00000000000E+00 0. -1.
</event>
<event>
 5    1  0.1262391E-009  0.9118800E+02  0.7815553E-02  0.1125453E+00
         25   -1    0    0    0    0  0.00000000000E+00  0.00000000000E+00  0.99999998245E-14  0.12509000000E+03  0.12509000000E+03 0.  0.
        -13    1    3    3    0    0  0.51460371026E+02  0.13895865199E+02  0.17123743443E+02  0.55986593121E+02  0.10566000000E+00 0.  1.
         23    2    1    0    0    0  0.23080368579E+02  0.16091176924E+02 -0.99263450606E+01  0.95254421997E+02  0.90461280088E+02 0.  0.
         13    1    3    3    0    0 -0.28380002448E+02  0.21953117244E+01 -0.27050088504E+02  0.39267828875E+02  0.10566000000E+00 0. -1.
         22    1    1    0    0    0 -0.23080368579E+02 -0.16091176924E+02  0.99263450606E+01  0.29835578003E+02  0.00000000000E+00 0.  1.
</event>
<event>
 5    1  0.1262391E-009  0.9118800E+02  0.7815553E-02  0.1125453E+00
         25   -1    0    0    0    0  0.00000000000E+00  0.00000000000E+00  0.99999998245E-14  0.12509000000E+03  0.12509000000E+03 0.  0.
        -13    1    3    3    0    0 -0.22793976559E+02 -0.30312857576E+02 -0.34997150420E+02  0.51606650767E+02  0.10566000000E+00 0. -1.
         23    2    1    0    0    0 -0.28802120413E+02 -0.58125338173E+01  0.11484860479E+01  0.95684784309E+02  0.91054441069E+02 0.  0.
         13    1    3    3    0    0 -0.60081438538E+01  0.24500323759E+02  0.36145636468E+02  0.44078133542E+02  0.10566000000E+00 0.  1.
         22    1    1    0    0    0  0.28802120413E+02  0.58125338173E+01 -0.11484860479E+01  0.29405215691E+02  0.00000000000E+00 0.  1.
</event>
<event>
 5    1  0.1262391E-009  0.9118800E+02  0.7815553E-02  0.1125453E+00
         25   -1    0    0    0    0  0.00000000000E+00  0.00000000000E+00  0.99999998245E-14  0.12509000000E+03  0.12509000000E+03 0.  0.
        -13    1    3    3    0    0  0.31697938979E+02  0.11103327006E+01 -0.17071636571E+02  0.36020051547E+02  0.10566000000E+00 0.  1.
         23    2    1    0    0    0  0.10291124060E+01  0.11033490778E+01  0.31548803186E+02  0.93505139164E+02  0.88009133709E+02 0.  0.
         13    1    3    3    0    0 -0.30668826573E+02 -0.69836228171E-02  0.48620439757E+02  0.57485087617E+02  0.10566000000E+00 0. -1.
         22    1    1    0    0    0 -0.10291124060E+01 -0.11033490778E+01 -0.31548803186E+02  0.31584860836E+02  0.00000000000E+00 0. -1.
</event>
<event>
 5    1  0.1262391E-009  0.9118800E+02  0.7815553E-02  0.1125453E+00
         25   -1    0    0    0    0  0.00000000000E+00  0.00000000000E+00  0.99999998245E-14  0.12509000000E+03  0.12509000000E+03 0.  0.
        -13    1    3    3    0    0  0.12314894573E+02 -0.29780488983E+01  0.32713350123E+02  0.35081331844E+02  0.10566000000E+00 0.  1.
         23    2    1    0    0    0  0.81316096475E+01  0.12621465241E+02 -0.25502485956E+02  0.95496060583E+02  0.90794803467E+02 0.  0.
         13    1    3    3    0    0 -0.41832849258E+01  0.15599514140E+02 -0.58215836079E+02  0.60414728739E+02  0.10566000000E+00 0. -1.
         22    1    1    0    0    0 -0.81316096475E+01 -0.12621465241E+02  0.25502485956E+02  0.29593939417E+02  0.00000000000E+00 0. -1.
</event>
<event>
 5    1  0.1262391E-009  0.9118800E+02  0.7815553E-02  0.1125453E+00
         25   -1    0    0    0    0  0.00000000000E+00  0.00000000000E+00  0.99999998245E-14  0.12509000000E+03  0.12509000000E+03 0.  0.
        -13    1    3    3    0    0 -0.13408723418E+02 -0.11352007527E+02  0.45224676158E+02  0.48517465270E+02  0.10566000000E+00 0.  1.
         23    2    1    0    0    0 -0.10354566144E+02  0.22054001686E+02  0.62562413176E+01  0.99935744180E+02  0.96718231885E+02 0.  0.
         13    1    3    3    0    0  0.30541572737E+01  0.33406009213E+02 -0.38968434840E+02  0.51418278911E+02  0.10566000000E+00 0. -1.
         22    1    1    0    0    0  0.10354566144E+02 -0.22054001686E+02 -0.62562413176E+01  0.25154255820E+02  0.00000000000E+00 0. -1.
</event>
<event>
 5    1  0.1262391E-009  0.9118800E+02  0.7815553E-02  0.1125453E+00
         25   -1    0    0    0    0  0.00000000000E+00  0.00000000000E+00  0.99999998245E-14  0.12509000000E+03  0.12509000000E+03 0.  0.
        -13    1    3    3    0    0  0.29429033196E+02 -0.50280231992E+02 -0.11267560950E+02  0.59339184506E+02  0.10566000000E+00 0. -1.
         23    2    1    0    0    0  0.19041722291E+02 -0.15909105402E+02 -0.16013940329E+02  0.95558100173E+02  0.90880236583E+02 0.  0.
         13    1    3    3    0    0 -0.10387310904E+02  0.34371126590E+02 -0.47463793793E+01  0.36218915668E+02  0.10566000000E+00 0.  1.
         22    1    1    0    0    0 -0.19041722291E+02  0.15909105402E+02  0.16013940329E+02  0.29531899827E+02  0.00000000000E+00 0. -1.
</event>
<event>
 5    1  0.1262391E-009  0.9118800E+02  0.7815553E-02  0.1125453E+00
         25   -1    0    0    0    0  0.00000000000E+00  0.00000000000E+00  0.99999998245E-14  0.12509000000E+03  0.12509000000E+03 0.  0.
        -13    1    3    3    0    0 -0.42092777155E+02 -0.40646492493E+02  0.22084724486E+02  0.62543468566E+02  0.10566000000E+00 0. -1.
         23    2    1    0    0    0 -0.20376928933E+02 -0.19507034135E+02  0.10347815453E+02  0.95043021814E+02  0.90168481729E+02 0.  0.
         13    1    3    3    0    0  0.21715848222E+02  0.21139458358E+02 -0.11736909033E+02  0.32499553248E+02  0.10566000000E+00 0.  1.
         22    1    1    0    0    0  0.20376928933E+02  0.19507034135E+02 -0.10347815453E+02  0.30046978186E+02  0.00000000000E+00 0. -1.
</event>
<event>
 5    1  0.1262391E-009  0.9118800E+02  0.7815553E-02  0.1125453E+00
         25   -1    0    0    0    0  0.00000000000E+00  0.00000000000E+00  0.99999998245E-14  0.12509000000E+03  0.12509000000E+03 0.  0.
        -13    1    3    3    0    0  0.33227479882E+02 -0.17167035587E+02 -0.16513204143E+02  0.40883610473E+02  0.10566000000E+00 0.  1.
         23    2    1    0    0    0  0.53470710781E+01 -0.53907290200E+01  0.28761668439E+02  0.95342988387E+02  0.90583667042E+02 0.  0.
         13    1    3    3    0    0 -0.27880408804E+02  0.11776306567E+02  0.45274872582E+02  0.54459377915E+02  0.10566000000E+00 0. -1.
         22    1    1    0    0    0 -0.53470710781E+01  0.53907290200E+01 -0.28761668439E+02  0.29747011613E+02  0.00000000000E+00 0. -1.
</event>
<event>
 5    1  0.1262391E-009  0.9118800E+02  0.7815553E-02  0.1125453E+00
         25   -1    0    0    0    0  0.00000000000E+00  0.00000000000E+00  0.99999998245E-14  0.12509000000E+03  0.12509000000E+03 0.  0.
        -13    1    3    3    0    0 -0.47281370528E+02  0.24035330898E+02 -0.15648684236E+02  0.55300249663E+02  0.10566000000E+00 0.  1.
         23    2    1    0    0    0 -0.22484627737E+02 -0.84577806310E+01 -0.16089894039E+02  0.96176729208E+02  0.91727782124E+02 0.  0.
         13    1    3    3    0    0  0.24796742791E+02 -0.32493111529E+02 -0.44120980306E+00  0.40876479545E+02  0.10566000000E+00 0. -1.
         22    1    1    0    0    0  0.22484627737E+02  0.84577806310E+01  0.16089894039E+02  0.28913270792E+02  0.00000000000E+00 0.  1.
</event>
<event>
 5    1  0.1262391E-009  0.9118800E+02  0.7815553E-02  0.1125453E+00
         25   -1    0    0    0    0  0.00000000000E+00  0.00000000000E+00  0.99999998245E-14  0.12509000000E+03  0.12509000000E+03 0.  0.
        -13    1    3    3    0    0 -0.22233666717E+02  0.29487675859E+02 -0.48486822988E+02  0.60949504762E+02  0.10566000000E+00 0.  1.
         23    2    1    0    0    0 -0.63611190671E+01  0.58056586371E+01 -0.27284093739E+02  0.96478965780E+02  0.92139022997E+02 0.  0.
         13    1    3    3    0    0  0.15872547649E+02 -0.23682017222E+02  0.21202729249E+02  0.35529461018E+02  0.10566000000E+00 0. -1.
         22    1    1    0    0    0  0.63611190671E+01 -0.58056586371E+01  0.27284093739E+02  0.28611034220E+02  0.00000000000E+00 0.  1.
</event>
<event>
 5    1  0.1262391E-009  0.9118800E+02  0.7815553E-02  0.1125453E+00
         25   -1    0    0    0    0  0.00000000000E+00  0.00000000000E+00  0.99999998245E-14  0.12509000000E+03  0.12509000000E+03 0.  0.
        -13    1    3    3    0    0 -0.26882195867E+02 -0.61441560125E+01 -0.20897135586E+02  0.34599198653E+02  0.10566000000E+00 0.  1.
         23    2    1    0    0    0  0.21877169556E+02  0.10428706273E+02  0.14274869573E+02  0.96962782512E+02  0.92793538723E+02 0.  0.
         13    1    3    3    0    0  0.48759365423E+02  0.16572862285E+02  0.35172005158E+02  0.62363583858E+02  0.10566000000E+00 0. -1.
         22    1    1    0    0    0 -0.21877169556E+02 -0.10428706273E+02 -0.14274869573E+02  0.28127217488E+02  0.00000000000E+00 0. -1.
</event>
<event>
 5    1  0.1262391E-009  0.9118800E+02  0.7815553E-02  0.1125453E+00
         25   -1    0    0    0    0  0.00000000000E+00  0.00000000000E+00  0.99999998245E-14  0.12509000000E+03  0.12509000000E+03 0.  0.
        -13    1    3    3    0    0  0.20847442624E+01 -0.30651933771E+00 -0.53439574110E+02  0.53481205651E+02  0.10566000000E+00 0. -1.
         23    2    1    0    0    0 -0.67764756603E+00  0.23145032197E+02 -0.19554430879E+02  0.94782781575E+02  0.89806726889E+02 0.  0.
         13    1    3    3    0    0 -0.27623918284E+01  0.23451551535E+02  0.33885143231E+02  0.41301575925E+02  0.10566000000E+00 0.  1.
         22    1    1    0    0    0  0.67764756603E+00 -0.23145032197E+02  0.19554430879E+02  0.30307218425E+02  0.00000000000E+00 0.  1.
</event>
<event>
 5    1  0.1262391E-009  0.9118800E+02  0.7815553E-02  0.1125453E+00
         25   -1    0    0    0    0  0.00000000000E+00  0.00000000000E+00  0.99999998245E-14  0.12509000000E+03  0.12509000000E+03 0.  0.
        -13    1    3    3    0    0 -0.51085114480E+02  0.74086982673E+01 -0.10830830085E+02  0.52743679961E+02  0.10566000000E+00 0.  1.
         23    2    1    0    0    0 -0.23414696852E+02 -0.17509000462E+01  0.19322515765E+02  0.94681558818E+02  0.89665624879E+02 0.  0.
         13    1    3    3    0    0  0.27670417628E+02 -0.91595983134E+01  0.30153345850E+02  0.41937878856E+02  0.10566000000E+00 0. -1.
         22    1    1    0    0    0  0.23414696852E+02  0.17509000462E+01 -0.19322515765E+02  0.30408441182E+02  0.00000000000E+00 0.  1.
</event>
<event>
 5    1  0.1262391E-009  0.9118800E+02  0.7815553E-02  0.1125453E+00
         25   -1    0    0    0    0  0.00000000000E+00  0.00000000000E+00  0.99999998245E-14  0.12509000000E+03  0.12509000000E+03 0.  0.
        -13    1    3    3    0    0 -0.31596225028E+02 -0.29226040910E+02  0.38137783135E+02  0.57506387209E+02  0.10566000000E+00 0.  1.
         23    2    1    0    0    0 -0.23905376822E+02 -0.16381840731E+02  0.26904956102E+01  0.95985524170E+02  0.91466662434E+02 0.  0.
         13    1    3    3    0    0  0.76908482060E+01  0.12844200179E+02 -0.35447287525E+02  0.38479136961E+02  0.10566000000E+00 0. -1.
         22    1    1    0    0    0  0.23905376822E+02  0.16381840731E+02 -0.26904956102E+01  0.29104475830E+02  0.00000000000E+00 0.  1.
</event>
<event>
 5    1  0.1262391E-009  0.9118800E+02  0.7815553E-02  0.1125453E+00
         25   -1    0    0    0    0  0.00000000000E+00  0.00000000000E+00  0.99999998245E-14  0.12509000000E+03  0.12509000000E+03 0.  0.
        -13    1    3    3    0    0 -0.68882361321E-01  0.36088696197E+02 -0.36777528072E+02  0.51526657888E+02  0.10566000000E+00 0. -1.
         23    2    1    0    0    0  0.20700339167E+02  0.21534273407E+02 -0.12292690515E+01  0.95194514133E+02  0.90378401435E+02 0.  0.
         13    1    3    3    0    0  0.20769221528E+02 -0.14554422790E+02  0.35548259020E+02  0.43667856245E+02  0.10566000000E+00 0.  1.
         22    1    1    0    0    0 -0.20700339167E+02 -0.21534273407E+02  0.12292690515E+01  0.29895485867E+02  0.00000000000E+00 0. -1.
</event>
<event>
 5    1  0.1262391E-009  0.9118800E+02  0.7815553E-02  0.1125453E+00
         25   -1    0    0    0    0  0.00000000000E+00  0.00000000000E+00  0.99999998245E-14  0.12509000000E+03  0.12509000000E+03 0.  0.
        -13    1    3    3    0    0  0.37503222526E+02  0.56222735266E+01 -0.29289606709E+02  0.47916530390E+02  0.10566000000E+00 0.  1.
         23    2    1    0    0    0  0.22246557625E+02  0.73814613202E+01  0.16639320839E+02  0.96345221424E+02  0.91957269402E+02 0.  0.
         13    1    3    3    0    0 -0.15256664901E+02  0.17591877936E+01  0.45928927547E+02  0.48428691034E+02  0.10566000000E+00 0. -1.
         22    1    1    0    0    0 -0.22246557625E+02 -0.73814613202E+01 -0.16639320839E+02  0.28744778576E+02  0.00000000000E+00 0.  1.
</event>
<event>
 5    1  0.1262391E-009  0.9118800E+02  0.7815553E-02  0.1125453E+00
         25   -1    0    0    0    0  0.00000000000E+00  0.00000000000E+00  0.99999998245E-14  0.12509000000E+03  0.12509000000E+03 0.  0.
        -13    1    3    3    0    0  0.30937700783E+02 -0.75870422354E+01 -0.20435094659E+02  0.37845855749E+02  0.10566000000E+00 0.  1.
         23    2    1    0    0    0 -0.17038357813E+02 -0.21375682941E+02  0.96170000348E+01  0.96112212855E+02  0.91639758359E+02 0.  0.
         13    1    3    3    0    0 -0.47976058595E+02 -0.13788640705E+02  0.30052094694E+02  0.58266357106E+02  0.10566000000E+00 0. -1.
         22    1    1    0    0    0  0.17038357813E+02  0.21375682941E+02 -0.96170000348E+01  0.28977787145E+02  0.00000000000E+00 0. -1.
</event>
<event>
 5    1  0.1262391E-009  0.9118800E+02  0.7815553E-02  0.1125453E+00
         25   -1    0    0    0    0  0.00000000000E+00  0.00000000000E+00  0.99999998245E-14  0.12509000000E+03  0.12509000000E+03 0.  0.
        -13    1    3    3    0    0 -0.34353668757E+02  0.10183585714E+02 -0.10132531237E+02  0.37236532174E+02  0.10566000000E+00 0.  1.
         23    2    1    0    0    0  0.19582623296E+02  0.13601385784E+02  0.15086025430E+02  0.96875376244E+02  0.92675636112E+02 0.  0.
         13    1    3    3    0    0  0.53936292052E+02  0.34178000701E+01  0.25218556667E+02  0.59638844071E+02  0.10566000000E+00 0. -1.
         22    1    1    0    0    0 -0.19582623296E+02 -0.13601385784E+02 -0.15086025430E+02  0.28214623756E+02  0.00000000000E+00 0. -1.
</event>
<event>
 5    1  0.1262391E-009  0.9118800E+02  0.7815553E-02  0.1125453E+00
         25   -1    0    0    0    0  0.00000000000E+00  0.00000000000E+00  0.99999998245E-14  0.12509000000E+03  0.12509000000E+03 0.  0.
        -13    1    3    3    0    0 -0.31552010922E+02 -0.92634605023E+01  0.22078065987E+02  0.39607994843E+02  0.10566000000E+00 0. -1.
         23    2    1    0    0    0 -0.78421506050E+01  0.18588051029E+02 -0.20898398740E+02  0.96042486559E+02  0.91544531172E+02 0.  0.
         13    1    3    3    0    0  0.23709860317E+02  0.27851511531E+02 -0.42976464727E+02  0.56434491717E+02  0.10566000000E+00 0.  1.
         22    1    1    0    0    0  0.78421506050E+01 -0.18588051029E+02  0.20898398740E+02  0.29047513441E+02  0.00000000000E+00 0.  1.
</event>
<event>
 5    1  0.1262391E-009  0.9118800E+02  0.7815553E-02  0.1125453E+00
         25   -1    0    0    0    0  0.00000000000E+00  0.00000000000E+00  0.99999998245E-14  0.12509000000E+03  0.12509000000E+03 0.  0.
        -13    1    3    3    0    0  0.23255648383E+02  0.49907002134E+02  0.97402590522E+01  0.55914379672E+02  0.10566000000E+00 0. -1.
         23    2    1    0    0    0  0.73021619812E+00  0.27277407158E+02 -0.12751344799E+02  0.94970455662E+02  0.90067755038E+02 0.  0.
         13    1    3    3    0    0 -0.22525432185E+02 -0.22629594976E+02 -0.22491603851E+02  0.39056075990E+02  0.10566000000E+00 0.  1.
         22    1    1    0    0    0 -0.73021619812E+00 -0.27277407158E+02  0.12751344799E+02  0.30119544338E+02  0.00000000000E+00 0. -1.
</event>
<event>
 5    1  0.1262391E-009  0.9118800E+02  0.7815553E-02  0.1125453E+00
         25   -1    0    0    0    0  0.00000000000E+00  0.00000000000E+00  0.99999998245E-14  0.12509000000E+03  0.12509000000E+03 0.  0.
        -13    1    3    3    0    0 -0.17615957087E+02 -0.98731961941E+01  0.34097272216E+02  0.39628740629E+02  0.10566000000E+00 0.  1.
         23    2    1    0    0    0 -0.82878103189E+01  0.24823334506E+02 -0.10494478539E+02  0.96893904247E+02  0.92700641123E+02 0.  0.
         13    1    3    3    0    0  0.93281467678E+01  0.34696530700E+02 -0.44591750756E+02  0.57265163619E+02  0.10566000000E+00 0. -1.
         22    1    1    0    0    0  0.82878103189E+01 -0.24823334506E+02  0.10494478539E+02  0.28196095753E+02  0.00000000000E+00 0. -1.
</event>
<event>
 5    1  0.1262391E-009  0.9118800E+02  0.7815553E-02  0.1125453E+00
         25   -1    0    0    0    0  0.00000000000E+00  0.00000000000E+00  0.99999998245E-14  0.12509000000E+03  0.12509000000E+03 0.  0.
        -13    1    3    3    0    0 -0.13990391530E+02  0.19785646802E+02  0.33777922599E+02  0.41571169020E+02  0.10566000000E+00 0.  1.
         23    2    1    0    0    0 -0.19684587031E+02  0.10574886007E+02 -0.19190444772E+02  0.95635215139E+02  0.90986317782E+02 0.  0.
         13    1    3    3    0    0 -0.56941955006E+01 -0.92107607951E+01 -0.52968367371E+02  0.54064046119E+02  0.10566000000E+00 0. -1.
         22    1    1    0    0    0  0.19684587031E+02 -0.10574886007E+02  0.19190444772E+02  0.29454784861E+02  0.00000000000E+00 0. -1.
</event>
<event>
 5    1  0.1262391E-009  0.9118800E+02  0.7815553E-02  0.1125453E+00
         25   -1    0    0    0    0  0.00000000000E+00  0.00000000000E+00  0.99999998245E-14  0.12509000000E+03  0.12509000000E+03 0.  0.
        -13    1    3    3    0    0  0.25035910989E+02 -0.23263783272E+02 -0.13195521586E+02  0.36635138940E+02  0.10566000000E+00 0. -1.
         23    2    1    0    0    0 -0.11646006762E+02  0.22693859859E+02 -0.15062939945E+02  0.95466818054E+02  0.90754506449E+02 0.  0.
         13    1    3    3    0    0 -0.36681917751E+02  0.45957643131E+02 -0.18674183588E+01  0.58831679114E+02  0.10566000000E+00 0.  1.
         22    1    1    0    0    0  0.11646006762E+02 -0.22693859859E+02  0.15062939945E+02  0.29623181946E+02  0.00000000000E+00 0.  1.
</event>
<event>
 5    1  0.1262391E-009  0.9118800E+02  0.7815553E-02  0.1125453E+00
         25   -1    0    0    0    0  0.00000000000E+00  0.00000000000E+00  0.99999998245E-14  0.12509000000E+03  0.12509000000E+03 0.  0.
        -13    1    3    3    0    0 -0.35031321847E+02  0.45682454218E+01 -0.58751813900E+01  0.35813283806E+02  0.10566000000E+00 0.  1.
         23    2    1    0    0    0  0.23379390861E+02  0.15273887284E+02 -0.10211397566E+02  0.95355168740E+02  0.90600485735E+02 0.  0.
         13    1    3    3    0    0  0.58410712708E+02  0.10705641862E+02 -0.43362161763E+01  0.59541884934E+02  0.10566000000E+00 0. -1.
         22    1    1    0    0    0 -0.23379390861E+02 -0.15273887284E+02  0.10211397566E+02  0.29734831260E+02  0.00000000000E+00 0. -1.
</event>
<event>
 5    1  0.1262391E-009  0.9118800E+02  0.7815553E-02  0.1125453E+00
         25   -1    0    0    0    0  0.00000000000E+00  0.00000000000E+00  0.99999998245E-14  0.12509000000E+03  0.12509000000E+03 0.  0.
        -13    1    3    3    0    0 -0.20904981751E+02  0.22645732172E+02 -0.29478666026E+02  0.42647981925E+02  0.10566000000E+00 0.  1.
         23    2    1    0    0    0  0.34835710586E+01 -0.23604067595E+02 -0.15018776171E+02  0.96896899567E+02  0.92704682911E+02 0.  0.
         13    1    3    3    0    0  0.24388552809E+02 -0.46249799767E+02  0.14459889855E+02  0.54248917641E+02  0.10566000000E+00 0. -1.
         22    1    1    0    0    0 -0.34835710586E+01  0.23604067595E+02  0.15018776171E+02  0.28193100433E+02  0.00000000000E+00 0. -1.
</event>
<event>
 5    1  0.1262391E-009  0.9118800E+02  0.7815553E-02  0.1125453E+00
         25   -1    0    0    0    0  0.00000000000E+00  0.00000000000E+00  0.99999998245E-14  0.12509000000E+03  0.12509000000E+03 0.  0.
        -13    1    3    3    0    0  0.49516860357E+01 -0.58303921561E+02 -0.61147300896E+01  0.58832538208E+02  0.10566000000E+00 0. -1.
         23    2    1    0    0    0  0.17481768937E+02 -0.26160875749E+02 -0.23055000699E+01  0.93541323393E+02  0.88060548411E+02 0.  0.
         13    1    3    3    0    0  0.12530082901E+02  0.32143045812E+02  0.38092300197E+01  0.34708785184E+02  0.10566000000E+00 0.  1.
         22    1    1    0    0    0 -0.17481768937E+02  0.26160875749E+02  0.23055000699E+01  0.31548676607E+02  0.00000000000E+00 0. -1.
</event>
<event>
 5    1  0.1262391E-009  0.9118800E+02  0.7815553E-02  0.1125453E+00
         25   -1    0    0    0    0  0.00000000000E+00  0.00000000000E+00  0.99999998245E-14  0.12509000000E+03  0.12509000000E+03 0.  0.
        -13    1    3    3    0    0 -0.54126892452E+02 -0.12052117853E+02  0.23227274511E+02  0.60120641019E+02  0.10566000000E+00 0.  1.
         23    2    1    0    0    0 -0.22761061563E+02 -0.17358850817E+02  0.81319493692E+01  0.95332240916E+02  0.90568824285E+02 0.  0.
         13    1    3    3    0    0  0.31365830889E+02 -0.53067329642E+01 -0.15095325142E+02  0.35211599897E+02  0.10566000000E+00 0. -1.
         22    1    1    0    0    0  0.22761061563E+02  0.17358850817E+02 -0.81319493692E+01  0.29757759084E+02  0.00000000000E+00 0.  1.
</event>
<event>
 5    1  0.1262391E-009  0.9118800E+02  0.7815553E-02  0.1125453E+00
         25   -1    0    0    0    0  0.00000000000E+00  0.00000000000E+00  0.99999998245E-14  0.12509000000E+03  0.12509000000E+03 0.  0.
        -13    1    3    3    0    0 -0.41300774524E+02 -0.34599330027E+02  0.30257139022E+02  0.61792986984E+02  0.10566000000E+00 0.  1.
         23    2    1    0    0    0 -0.17601995643E+02 -0.21899463879E+02  0.10768322369E+02  0.95000574358E+02  0.90109575479E+02 0.  0.
         13    1    3    3    0    0  0.23698778881E+02  0.12699866149E+02 -0.19488816653E+02  0.33207587374E+02  0.10566000000E+00 0. -1.
         22    1    1    0    0    0  0.17601995643E+02  0.21899463879E+02 -0.10768322369E+02  0.30089425642E+02  0.00000000000E+00 0.  1.
</event>
<event>
 5    1  0.1262391E-009  0.9118800E+02  0.7815553E-02  0.1125453E+00
         25   -1    0    0    0    0  0.00000000000E+00  0.00000000000E+00  0.99999998245E-14  0.12509000000E+03  0.12509000000E+03 0.  0.
        -13    1    3    3    0    0 -0.28475172745E+02  0.30322689209E+01  0.18290034299E+02  0.33978914585E+02  0.10566000000E+00 0. -1.
         23    2    1    0    0    0  0.11916057581E+02  0.32153950673E+02 -0.73991151073E+01  0.90009864930E+02  0.82892459899E+02 0.  0.
         13    1    3    3    0    0  0.40391230327E+02  0.29121681752E+02 -0.25689149406E+02  0.56030950345E+02  0.10566000000E+00 0.  1.
         22    1    1    0    0    0 -0.11916057581E+02 -0.32153950673E+02  0.73991151073E+01  0.35080135070E+02  0.00000000000E+00 0.  1.
</event>
<event>
 5    1  0.1262391E-009  0.9118800E+02  0.7815553E-02  0.1125453E+00
         25   -1    0    0    0    0  0.00000000000E+00  0.00000000000E+00  0.99999998245E-14  0.12509000000E+03  0.12509000000E+03 0.  0.
        -13    1    3    3    0    0 -0.62947144119E+01 -0.48593086502E+02 -0.18587461297E+02  0.52406262668E+02  0.10566000000E+00 0. -1.
         23    2    1    0    0    0 -0.92460301449E+01 -0.39243142035E+01 -0.25481505997E+02  0.97700285447E+02  0.93782457385E+02 0.  0.
         13    1    3    3    0    0 -0.29513157330E+01  0.44668772298E+02 -0.68940447003E+01  0.45294022779E+02  0.10566000000E+00 0.  1.
         22    1    1    0    0    0  0.92460301449E+01  0.39243142035E+01  0.25481505997E+02  0.27389714553E+02  0.00000000000E+00 0. -1.
</event>
<event>
 5    1  0.1262391E-009  0.9118800E+02  0.7815553E-02  0.1125453E+00
         25   -1    0    0    0    0  0.00000000000E+00  0.00000000000E+00  0.99999998245E-14  0.12509000000E+03  0.12509000000E+03 0.  0.
        -13    1    3    3    0    0 -0.14778937346E+02  0.50874608822E+02 -0.32736856074E+02  0.62276445960E+02  0.10566000000E+00 0.  1.
         23    2    1    0    0    0 -0.68837714666E+01  0.21702401153E+02 -0.18829026034E+02  0.95544903168E+02  0.90862070055E+02 0.  0.
         13    1    3    3    0    0  0.78951658792E+01 -0.29172207669E+02  0.13907830040E+02  0.33268457208E+02  0.10566000000E+00 0. -1.
         22    1    1    0    0    0  0.68837714666E+01 -0.21702401153E+02  0.18829026034E+02  0.29545096832E+02  0.00000000000E+00 0.  1.
</event>
<event>
 5    1  0.1262391E-009  0.9118800E+02  0.7815553E-02  0.1125453E+00
         25   -1    0    0    0    0  0.00000000000E+00  0.00000000000E+00  0.99999998245E-14  0.12509000000E+03  0.12509000000E+03 0.  0.
        -13    1    3    3    0    0 -0.51821367743E+01 -0.57489444490E+02 -0.14622851556E+02  0.59546030270E+02  0.10566000000E+00 0.  1.
         23    2    1    0    0    0  0.30705516893E+01 -0.22356544117E+02 -0.18589680250E+02  0.95852702513E+02  0.91284834528E+02 0.  0.
         13    1    3    3    0    0  0.82526884637E+01  0.35132900373E+02 -0.39668286940E+01  0.36306672243E+02  0.10566000000E+00 0. -1.
         22    1    1    0    0    0 -0.30705516893E+01  0.22356544117E+02  0.18589680250E+02  0.29237297487E+02  0.00000000000E+00 0.  1.
</event>
<event>
 5    1  0.1262391E-009  0.9118800E+02  0.7815553E-02  0.1125453E+00
         25   -1    0    0    0    0  0.00000000000E+00  0.00000000000E+00  0.99999998245E-14  0.12509000000E+03  0.12509000000E+03 0.  0.
        -13    1    3    3    0    0 -0.16246261533E+02  0.17901143905E+02  0.27714730815E+02  0.36776479373E+02  0.10566000000E+00 0.  1.
         23    2    1    0    0    0  0.16727345399E+02 -0.20000880962E+02 -0.73012123997E+01  0.98013312133E+02  0.94199056945E+02 0.  0.
         13    1    3    3    0    0  0.32973606932E+02 -0.37902024867E+02 -0.35015943215E+02  0.61236832759E+02  0.10566000000E+00 0. -1.
         22    1    1    0    0    0 -0.16727345399E+02  0.20000880962E+02  0.73012123997E+01  0.27076687867E+02  0.00000000000E+00 0. -1.
</event>
<event>
 5    1  0.1262391E-009  0.9118800E+02  0.7815553E-02  0.1125453E+00
         25   -1    0    0    0    0  0.00000000000E+00  0.00000000000E+00  0.99999998245E-14  0.12509000000E+03  0.12509000000E+03 0.  0.
        -13    1    3    3    0    0  0.28290912131E+02 -0.34174270852E+02  0.14590270346E+02  0.46702715663E+02  0.10566000000E+00 0.  1.
         23    2    1    0    0    0 -0.91625745096E+01 -0.62112859186E+01  0.27710750113E+02  0.95250118696E+02  0.90455329281E+02 0.  0.
         13    1    3    3    0    0 -0.37453486640E+02  0.27962984934E+02  0.13120479767E+02  0.48547403033E+02  0.10566000000E+00 0. -1.
         22    1    1    0    0    0  0.91625745096E+01  0.62112859186E+01 -0.27710750113E+02  0.29839881304E+02  0.00000000000E+00 0. -1.
</event>
<event>
 5    1  0.1262391E-009  0.9118800E+02  0.7815553E-02  0.1125453E+00
         25   -1    0    0    0    0  0.00000000000E+00  0.00000000000E+00  0.99999998245E-14  0.12509000000E+03  0.12509000000E+03 0.  0.
        -13    1    3    3    0    0  0.43068749929E+02  0.34510579985E+02 -0.25694155149E+02  0.60877730939E+02  0.10566000000E+00 0. -1.
         23    2    1    0    0    0  0.12791732782E+02  0.19917911105E+02 -0.17985445474E+02  0.95360757506E+02  0.90608201686E+02 0.  0.
         13    1    3    3    0    0 -0.30277017147E+02 -0.14592668880E+02  0.77087096752E+01  0.34483026567E+02  0.10566000000E+00 0.  1.
         22    1    1    0    0    0 -0.12791732782E+02 -0.19917911105E+02  0.17985445474E+02  0.29729242494E+02  0.00000000000E+00 0. -1.
</event>
<event>
 5    1  0.1262391E-009  0.9118800E+02  0.7815553E-02  0.1125453E+00
         25   -1    0    0    0    0  0.00000000000E+00  0.00000000000E+00  0.99999998245E-14  0.12509000000E+03  0.12509000000E+03 0.  0.
        -13    1    3    3    0    0 -0.23308832137E+02 -0.19655106887E+02 -0.95471698216E+01  0.31949718277E+02  0.10566000000E+00 0. -1.
         23    2    1    0    0    0  0.28504088983E+02  0.99459224519E+01  0.74482182571E+01  0.93995299207E+02  0.88703076923E+02 0.  0.
         13    1    3    3    0    0  0.51812921121E+02  0.29601029338E+02  0.16995388079E+02  0.62045580930E+02  0.10566000000E+00 0.  1.
         22    1    1    0    0    0 -0.28504088983E+02 -0.99459224519E+01 -0.74482182571E+01  0.31094700793E+02  0.00000000000E+00 0.  1.
</event>
<event>
 5    1  0.1262391E-009  0.9118800E+02  0.7815553E-02  0.1125453E+00
         25   -1    0    0    0    0  0.00000000000E+00  0.00000000000E+00  0.99999998245E-14  0.12509000000E+03  0.12509000000E+03 0.  0.
        -13    1    3    3    0    0 -0.17681403499E+02 -0.31495369806E+02 -0.92816148202E+01  0.37292759171E+02  0.10566000000E+00 0. -1.
         23    2    1    0    0    0  0.29322148405E+02  0.22274685528E+01 -0.45205264381E+01  0.95337938516E+02  0.90576693238E+02 0.  0.
         13    1    3    3    0    0  0.47003551904E+02  0.33722838359E+02  0.47610883821E+01  0.58045179345E+02  0.10566000000E+00 0.  1.
         22    1    1    0    0    0 -0.29322148405E+02 -0.22274685528E+01  0.45205264381E+01  0.29752061484E+02  0.00000000000E+00 0.  1.
</event>
<event>
 5    1  0.1262391E-009  0.9118800E+02  0.7815553E-02  0.1125453E+00
         25   -1    0    0    0    0  0.00000000000E+00  0.00000000000E+00  0.99999998245E-14  0.12509000000E+03  0.12509000000E+03 0.  0.
        -13    1    3    3    0    0 -0.43369991141E+02 -0.23065222037E+02 -0.74547523321E+01  0.49684455271E+02  0.10566000000E+00 0. -1.
         23    2    1    0    0    0 -0.24478727256E+02  0.16992824220E+02  0.28455944830E+01  0.95155712452E+02  0.90324681241E+02 0.  0.
         13    1    3    3    0    0  0.18891263885E+02  0.40058046257E+02  0.10300346815E+02  0.45471257182E+02  0.10566000000E+00 0.  1.
         22    1    1    0    0    0  0.24478727256E+02 -0.16992824220E+02 -0.28455944830E+01  0.29934287548E+02  0.00000000000E+00 0. -1.
</event>
<event>
 5    1  0.1262391E-009  0.9118800E+02  0.7815553E-02  0.1125453E+00
         25   -1    0    0    0    0  0.00000000000E+00  0.00000000000E+00  0.99999998245E-14  0.12509000000E+03  0.12509000000E+03 0.  0.
        -13    1    3    3    0    0  0.12203687234E+02 -0.54175893115E+02  0.54231151803E+01  0.55797658725E+02  0.10566000000E+00 0. -1.
         23    2    1    0    0    0  0.88753224852E+01 -0.17241035253E+02  0.21429616472E+02  0.96189254197E+02  0.91744860973E+02 0.  0.
         13    1    3    3    0    0 -0.33283647488E+01  0.36934857861E+02  0.16006501292E+02  0.40391595472E+02  0.10566000000E+00 0.  1.
         22    1    1    0    0    0 -0.88753224852E+01  0.17241035253E+02 -0.21429616472E+02  0.28900745803E+02  0.00000000000E+00 0. -1.
</event>
<event>
 5    1  0.1262391E-009  0.9118800E+02  0.7815553E-02  0.1125453E+00
         25   -1    0    0    0    0  0.00000000000E+00  0.00000000000E+00  0.99999998245E-14  0.12509000000E+03  0.12509000000E+03 0.  0.
        -13    1    3    3    0    0 -0.16514386226E+02  0.46434753266E+01  0.42108855589E+02  0.45469261030E+02  0.10566000000E+00 0.  1.
         23    2    1    0    0    0  0.19467302037E+02 -0.16677014379E+02  0.13751024010E+02  0.96000666585E+02  0.91487368889E+02 0.  0.
         13    1    3    3    0    0  0.35981688263E+02 -0.21320489706E+02 -0.28357831579E+02  0.50531405556E+02  0.10566000000E+00 0. -1.
         22    1    1    0    0    0 -0.19467302037E+02  0.16677014379E+02 -0.13751024010E+02  0.29089333415E+02  0.00000000000E+00 0. -1.
</event>
<event>
 5    1  0.1262391E-009  0.9118800E+02  0.7815553E-02  0.1125453E+00
         25   -1    0    0    0    0  0.00000000000E+00  0.00000000000E+00  0.99999998245E-14  0.12509000000E+03  0.12509000000E+03 0.  0.
        -13    1    3    3    0    0  0.28869360527E+02 -0.20679290018E+02  0.89948284688E+01  0.36633196913E+02  0.10566000000E+00 0.  1.
         23    2    1    0    0    0 -0.11425620835E+02  0.19199921725E+02  0.20825301650E+02  0.94546997617E+02  0.89477705401E+02 0.  0.
         13    1    3    3    0    0 -0.40294981361E+02  0.39879211744E+02  0.11830473182E+02  0.57913800704E+02  0.10566000000E+00 0. -1.
         22    1    1    0    0    0  0.11425620835E+02 -0.19199921725E+02 -0.20825301650E+02  0.30543002383E+02  0.00000000000E+00 0.  1.
</event>
<event>
 5    1  0.1262391E-009  0.9118800E+02  0.7815553E-02  0.1125453E+00
         25   -1    0    0    0    0  0.00000000000E+00  0.00000000000E+00  0.99999998245E-14  0.12509000000E+03  0.12509000000E+03 0.  0.
        -13    1    3    3    0    0  0.40151070863E+02  0.26367637489E+02 -0.13058632278E+02  0.49778507804E+02  0.10566000000E+00 0. -1.
         23    2    1    0    0    0 -0.33913017313E+01  0.30218908126E+02 -0.40042977466E+01  0.94418877813E+02  0.89298414046E+02 0.  0.
         13    1    3    3    0    0 -0.43542372594E+02  0.38512706379E+01  0.90543345314E+01  0.44640370009E+02  0.10566000000E+00 0.  1.
         22    1    1    0    0    0  0.33913017313E+01 -0.30218908126E+02  0.40042977466E+01  0.30671122187E+02  0.00000000000E+00 0.  1.
</event>
<event>
 5    1  0.1262391E-009  0.9118800E+02  0.7815553E-02  0.1125453E+00
         25   -1    0    0    0    0  0.00000000000E+00  0.00000000000E+00  0.99999998245E-14  0.12509000000E+03  0.12509000000E+03 0.  0.
        -13    1    3    3    0    0  0.23038041832E+02  0.35939194638E+02  0.21792991464E+02  0.47930394570E+02  0.10566000000E+00 0. -1.
         23    2    1    0    0    0  0.28917593181E+02 -0.73642550962E+01  0.45756353704E+01  0.94900665997E+02  0.89970775916E+02 0.  0.
         13    1    3    3    0    0  0.58795513497E+01 -0.43303449734E+02 -0.17217356093E+02  0.46970271426E+02  0.10566000000E+00 0.  1.
         22    1    1    0    0    0 -0.28917593181E+02  0.73642550962E+01 -0.45756353704E+01  0.30189334003E+02  0.00000000000E+00 0.  1.
</event>
<event>
 5    1  0.1262391E-009  0.9118800E+02  0.7815553E-02  0.1125453E+00
         25   -1    0    0    0    0  0.00000000000E+00  0.00000000000E+00  0.99999998245E-14  0.12509000000E+03  0.12509000000E+03 0.  0.
        -13    1    3    3    0    0 -0.26994365385E+01  0.45328520169E+02 -0.29930154590E+02  0.54385540506E+02  0.10566000000E+00 0.  1.
         23    2    1    0    0    0  0.20725110316E+02  0.19002476726E+02 -0.81395760396E+01  0.95817538241E+02  0.91236635280E+02 0.  0.
         13    1    3    3    0    0  0.23424546854E+02 -0.26326043443E+02  0.21790578550E+02  0.41431997735E+02  0.10566000000E+00 0. -1.
         22    1    1    0    0    0 -0.20725110316E+02 -0.19002476726E+02  0.81395760396E+01  0.29272461759E+02  0.00000000000E+00 0.  1.
</event>
<event>
 5    1  0.1262391E-009  0.9118800E+02  0.7815553E-02  0.1125453E+00
         25   -1    0    0    0    0  0.00000000000E+00  0.00000000000E+00  0.99999998245E-14  0.12509000000E+03  0.12509000000E+03 0.  0.
        -13    1    3    3    0    0  0.43890218511E+02 -0.93822579872E+01 -0.30855265466E+02  0.54465003598E+02  0.10566000000E+00 0.  1.
         23    2    1    0    0    0  0.39175308425E+01  0.15779804710E+02 -0.89543738344E+01  0.10652847810E+03  0.10489893493E+03 0.  0.
         13    1    3    3    0    0 -0.39972687668E+02  0.25162062697E+02  0.21900891632E+02  0.52063474499E+02  0.10566000000E+00 0. -1.
         22    1    1    0    0    0 -0.39175308425E+01 -0.15779804710E+02  0.89543738344E+01  0.18561521903E+02  0.00000000000E+00 0. -1.
</event>
<event>
 5    1  0.1262391E-009  0.9118800E+02  0.7815553E-02  0.1125453E+00
         25   -1    0    0    0    0  0.00000000000E+00  0.00000000000E+00  0.99999998245E-14  0.12509000000E+03  0.12509000000E+03 0.  0.
        -13    1    3    3    0    0  0.47096283706E+02 -0.20243906256E+02 -0.45517140247E+01  0.51464598939E+02  0.10566000000E+00 0.  1.
         23    2    1    0    0    0  0.13929845091E+02 -0.33392678831E+01  0.23149773982E+02  0.97866786934E+02  0.94004279983E+02 0.  0.
         13    1    3    3    0    0 -0.33166438615E+02  0.16904638373E+02  0.27701488006E+02  0.46402187995E+02  0.10566000000E+00 0. -1.
         22    1    1    0    0    0 -0.13929845091E+02  0.33392678831E+01 -0.23149773982E+02  0.27223213066E+02  0.00000000000E+00 0. -1.
</event>
<event>
 5    1  0.1262391E-009  0.9118800E+02  0.7815553E-02  0.1125453E+00
         25   -1    0    0    0    0  0.00000000000E+00  0.00000000000E+00  0.99999998245E-14  0.12509000000E+03  0.12509000000E+03 0.  0.
        -13    1    3    3    0    0 -0.53395401894E+02  0.19831739944E+02 -0.52821392520E+01  0.57203837387E+02  0.10566000000E+00 0. -1.
         23    2    1    0    0    0 -0.25631273521E+02  0.31830644415E+00 -0.18346768897E+02  0.93567509136E+02  0.88097737403E+02 0.  0.
         13    1    3    3    0    0  0.27764128373E+02 -0.19513433500E+02 -0.13064629645E+02  0.36363671749E+02  0.10566000000E+00 0.  1.
         22    1    1    0    0    0  0.25631273521E+02 -0.31830644415E+00  0.18346768897E+02  0.31522490864E+02  0.00000000000E+00 0. -1.
</event>
<event>
 5    1  0.1262391E-009  0.9118800E+02  0.7815553E-02  0.1125453E+00
         25   -1    0    0    0    0  0.00000000000E+00  0.00000000000E+00  0.99999998245E-14  0.12509000000E+03  0.12509000000E+03 0.  0.
        -13    1    3    3    0    0  0.75708324163E+01  0.12228153965E+01  0.32593726775E+02  0.33483950933E+02  0.10566000000E+00 0. -1.
         23    2    1    0    0    0  0.25789665537E+02 -0.11776448407E+02 -0.19834432725E+02  0.90489475335E+02  0.83613090119E+02 0.  0.
         13    1    3    3    0    0  0.18218833120E+02 -0.12999263804E+02 -0.52428159500E+02  0.57005524402E+02  0.10566000000E+00 0.  1.
         22    1    1    0    0    0 -0.25789665537E+02  0.11776448407E+02  0.19834432725E+02  0.34600524665E+02  0.00000000000E+00 0.  1.
</event>
<event>
 5    1  0.1262391E-009  0.9118800E+02  0.7815553E-02  0.1125453E+00
         25   -1    0    0    0    0  0.00000000000E+00  0.00000000000E+00  0.99999998245E-14  0.12509000000E+03  0.12509000000E+03 0.  0.
        -13    1    3    3    0    0 -0.31054877236E+01  0.57111804516E+02  0.23264758136E+02  0.61746760273E+02  0.10566000000E+00 0. -1.
         23    2    1    0    0    0 -0.84972175120E+01  0.26607296038E+02  0.10526939308E+02  0.95240923648E+02  0.90442612623E+02 0.  0.
         13    1    3    3    0    0 -0.53917297884E+01 -0.30504508479E+02 -0.12737818827E+02  0.33494163374E+02  0.10566000000E+00 0.  1.
         22    1    1    0    0    0  0.84972175120E+01 -0.26607296038E+02 -0.10526939308E+02  0.29849076352E+02  0.00000000000E+00 0. -1.
</event>
<event>
 5    1  0.1262391E-009  0.9118800E+02  0.7815553E-02  0.1125453E+00
         25   -1    0    0    0    0  0.00000000000E+00  0.00000000000E+00  0.99999998245E-14  0.12509000000E+03  0.12509000000E+03 0.  0.
        -13    1    3    3    0    0  0.39251502160E+02 -0.16098308790E+02  0.33750722350E+02  0.54212160913E+02  0.10566000000E+00 0.  1.
         23    2    1    0    0    0  0.26967982558E+02 -0.33349289837E+01 -0.55813784817E+01  0.97349314711E+02  0.93313147275E+02 0.  0.
         13    1    3    3    0    0 -0.12283519602E+02  0.12763379806E+02 -0.39332100832E+02  0.43137153798E+02  0.10566000000E+00 0. -1.
         22    1    1    0    0    0 -0.26967982558E+02  0.33349289837E+01  0.55813784817E+01  0.27740685289E+02  0.00000000000E+00 0.  1.
</event>
<event>
 5    1  0.1262391E-009  0.9118800E+02  0.7815553E-02  0.1125453E+00
         25   -1    0    0    0    0  0.00000000000E+00  0.00000000000E+00  0.99999998245E-14  0.12509000000E+03  0.12509000000E+03 0.  0.
        -13    1    3    3    0    0  0.35113322801E+02  0.15467391152E+02  0.43514788839E+02  0.58014943238E+02  0.10566000000E+00 0.  1.
         23    2    1    0    0    0 -0.55957211249E+00  0.46994625503E+01  0.25040887457E+02  0.99605806588E+02  0.96290563360E+02 0.  0.
         13    1    3    3    0    0 -0.35672894914E+02 -0.10767928601E+02 -0.18473901382E+02  0.41590863350E+02  0.10566000000E+00 0. -1.
         22    1    1    0    0    0  0.55957211249E+00 -0.46994625503E+01 -0.25040887457E+02  0.25484193412E+02  0.00000000000E+00 0.  1.
</event>
<event>
 5    1  0.1262391E-009  0.9118800E+02  0.7815553E-02  0.1125453E+00
         25   -1    0    0    0    0  0.00000000000E+00  0.00000000000E+00  0.99999998245E-14  0.12509000000E+03  0.12509000000E+03 0.  0.
        -13    1    3    3    0    0  0.57665310007E+02  0.10667026158E+02  0.12268646640E+02  0.59913306365E+02  0.10566000000E+00 0. -1.
         23    2    1    0    0    0  0.22931552822E+02  0.13862689265E+02  0.14039325368E+02  0.94838835968E+02  0.89884770025E+02 0.  0.
         13    1    3    3    0    0 -0.34733757184E+02  0.31956631069E+01  0.17706787278E+01  0.34925529603E+02  0.10566000000E+00 0.  1.
         22    1    1    0    0    0 -0.22931552822E+02 -0.13862689265E+02 -0.14039325368E+02  0.30251164032E+02  0.00000000000E+00 0. -1.
</event>
<event>
 5    1  0.1262391E-009  0.9118800E+02  0.7815553E-02  0.1125453E+00
         25   -1    0    0    0    0  0.00000000000E+00  0.00000000000E+00  0.99999998245E-14  0.12509000000E+03  0.12509000000E+03 0.  0.
        -13    1    3    3    0    0  0.48284958496E+02 -0.32344160922E+02  0.93957073009E+01  0.58871660775E+02  0.10566000000E+00 0.  1.
         23    2    1    0    0    0  0.34748143175E+02 -0.12244888530E+02 -0.62564907129E+01  0.87720033111E+02  0.79361765251E+02 0.  0.
         13    1    3    3    0    0 -0.13536815321E+02  0.20099272393E+02 -0.15652198014E+02  0.28848372336E+02  0.10566000000E+00 0. -1.
         22    1    1    0    0    0 -0.34748143175E+02  0.12244888530E+02  0.62564907129E+01  0.37369966889E+02  0.00000000000E+00 0.  1.
</event>
<event>
 5    1  0.1262391E-009  0.9118800E+02  0.7815553E-02  0.1125453E+00
         25   -1    0    0    0    0  0.00000000000E+00  0.00000000000E+00  0.99999998245E-14  0.12509000000E+03  0.12509000000E+03 0.  0.
        -13    1    3    3    0    0 -0.28664052610E+02  0.78144963883E+01 -0.19256500322E+02  0.35405059448E+02  0.10566000000E+00 0.  1.
         23    2    1    0    0    0  0.25867354589E+02  0.12974678602E+02  0.56958250776E+01  0.95595852419E+02  0.90932184941E+02 0.  0.
         13    1    3    3    0    0  0.54531407199E+02  0.51601822136E+01  0.24952325399E+02  0.60190792971E+02  0.10566000000E+00 0. -1.
         22    1    1    0    0    0 -0.25867354589E+02 -0.12974678602E+02 -0.56958250776E+01  0.29494147581E+02  0.00000000000E+00 0. -1.
</event>
<event>
 5    1  0.1262391E-009  0.9118800E+02  0.7815553E-02  0.1125453E+00
         25   -1    0    0    0    0  0.00000000000E+00  0.00000000000E+00  0.99999998245E-14  0.12509000000E+03  0.12509000000E+03 0.  0.
        -13    1    3    3    0    0  0.10191911944E+02 -0.89116056086E+01  0.57550032172E+02  0.59121139625E+02  0.10566000000E+00 0. -1.
         23    2    1    0    0    0  0.73484123155E+01 -0.17001215635E+02  0.19221866166E+02  0.98396917834E+02  0.94707089512E+02 0.  0.
         13    1    3    3    0    0 -0.28434996281E+01 -0.80896100263E+01 -0.38328166006E+02  0.39275778209E+02  0.10566000000E+00 0.  1.
         22    1    1    0    0    0 -0.73484123155E+01  0.17001215635E+02 -0.19221866166E+02  0.26693082166E+02  0.00000000000E+00 0. -1.
</event>
<event>
 5    1  0.1262391E-009  0.9118800E+02  0.7815553E-02  0.1125453E+00
         25   -1    0    0    0    0  0.00000000000E+00  0.00000000000E+00  0.99999998245E-14  0.12509000000E+03  0.12509000000E+03 0.  0.
        -13    1    3    3    0    0 -0.42414858581E+01 -0.19663625457E+02 -0.43621982282E+02  0.48036828274E+02  0.10566000000E+00 0.  1.
         23    2    1    0    0    0  0.84236125584E+01 -0.28037369738E+02  0.16310819340E+01  0.95769157949E+02  0.91170279343E+02 0.  0.
         13    1    3    3    0    0  0.12665098416E+02 -0.83737442808E+01  0.45253064216E+02  0.47732329674E+02  0.10566000000E+00 0. -1.
         22    1    1    0    0    0 -0.84236125584E+01  0.28037369738E+02 -0.16310819340E+01  0.29320842051E+02  0.00000000000E+00 0. -1.
</event>
<event>
 5    1  0.1262391E-009  0.9118800E+02  0.7815553E-02  0.1125453E+00
         25   -1    0    0    0    0  0.00000000000E+00  0.00000000000E+00  0.99999998245E-14  0.12509000000E+03  0.12509000000E+03 0.  0.
        -13    1    3    3    0    0  0.20053982665E+02  0.10825015140E+02 -0.13515244468E+02  0.26495587757E+02  0.10566000000E+00 0. -1.
         23    2    1    0    0    0 -0.19040795807E+02 -0.31787094529E+02 -0.16774019423E+02  0.84416433508E+02  0.73971583970E+02 0.  0.
         13    1    3    3    0    0 -0.39094778472E+02 -0.42612109669E+02 -0.32587749543E+01  0.57920845751E+02  0.10566000000E+00 0.  1.
         22    1    1    0    0    0  0.19040795807E+02  0.31787094529E+02  0.16774019423E+02  0.40673566492E+02  0.00000000000E+00 0.  1.
</event>
<event>
 5    1  0.1262391E-009  0.9118800E+02  0.7815553E-02  0.1125453E+00
         25   -1    0    0    0    0  0.00000000000E+00  0.00000000000E+00  0.99999998245E-14  0.12509000000E+03  0.12509000000E+03 0.  0.
        -13    1    3    3    0    0  0.12333597585E+02 -0.13528696164E+02 -0.36691651226E+02  0.41005264089E+02  0.10566000000E+00 0. -1.
         23    2    1    0    0    0  0.25174225421E+02  0.11156587391E+01  0.14667248494E+02  0.95933276962E+02  0.91395181111E+02 0.  0.
         13    1    3    3    0    0  0.12840627836E+02  0.14644354903E+02  0.51358899719E+02  0.54928012873E+02  0.10566000000E+00 0.  1.
         22    1    1    0    0    0 -0.25174225421E+02 -0.11156587391E+01 -0.14667248494E+02  0.29156723038E+02  0.00000000000E+00 0.  1.
</event>
<event>
 5    1  0.1262391E-009  0.9118800E+02  0.7815553E-02  0.1125453E+00
         25   -1    0    0    0    0  0.00000000000E+00  0.00000000000E+00  0.99999998245E-14  0.12509000000E+03  0.12509000000E+03 0.  0.
        -13    1    3    3    0    0 -0.24158220926E+02 -0.12291986018E+02  0.35255382740E+02  0.44470953833E+02  0.10566000000E+00 0. -1.
         23    2    1    0    0    0 -0.24845127252E+02  0.13686111783E+02 -0.86016103532E+01  0.95449188530E+02  0.90730203827E+02 0.  0.
         13    1    3    3    0    0 -0.68690632565E+00  0.25978097801E+02 -0.43856993094E+02  0.50978234698E+02  0.10566000000E+00 0.  1.
         22    1    1    0    0    0  0.24845127252E+02 -0.13686111783E+02  0.86016103532E+01  0.29640811470E+02  0.00000000000E+00 0.  1.
</event>
<event>
 5    1  0.1262391E-009  0.9118800E+02  0.7815553E-02  0.1125453E+00
         25   -1    0    0    0    0  0.00000000000E+00  0.00000000000E+00  0.99999998245E-14  0.12509000000E+03  0.12509000000E+03 0.  0.
        -13    1    3    3    0    0 -0.85371046164E+01  0.47676888101E+02 -0.29801218487E+01  0.48526900833E+02  0.10566000000E+00 0. -1.
         23    2    1    0    0    0 -0.21713946371E+02  0.36149599672E+01 -0.17730480162E+02  0.96824591294E+02  0.92607063175E+02 0.  0.
         13    1    3    3    0    0 -0.13176841755E+02 -0.44061928133E+02 -0.14750358313E+02  0.48297690461E+02  0.10566000000E+00 0.  1.
         22    1    1    0    0    0  0.21713946371E+02 -0.36149599672E+01  0.17730480162E+02  0.28265408706E+02  0.00000000000E+00 0.  1.
</event>
<event>
 5    1  0.1262391E-009  0.9118800E+02  0.7815553E-02  0.1125453E+00
         25   -1    0    0    0    0  0.00000000000E+00  0.00000000000E+00  0.99999998245E-14  0.12509000000E+03  0.12509000000E+03 0.  0.
        -13    1    3    3    0    0 -0.11754860843E+02  0.22944115949E+02 -0.26495292763E+02  0.36967836192E+02  0.10566000000E+00 0. -1.
         23    2    1    0    0    0 -0.13242423372E+02 -0.13254378532E+02  0.21157628217E+02  0.96828974562E+02  0.92612983733E+02 0.  0.
         13    1    3    3    0    0 -0.14875625293E+01 -0.36198494482E+02  0.47652920979E+02  0.59861138370E+02  0.10566000000E+00 0.  1.
         22    1    1    0    0    0  0.13242423372E+02  0.13254378532E+02 -0.21157628217E+02  0.28261025438E+02  0.00000000000E+00 0.  1.
</event>
<event>
 5    1  0.1262391E-009  0.9118800E+02  0.7815553E-02  0.1125453E+00
         25   -1    0    0    0    0  0.00000000000E+00  0.00000000000E+00  0.99999998245E-14  0.12509000000E+03  0.12509000000E+03 0.  0.
        -13    1    3    3    0    0  0.30767545835E+02  0.80788243589E+01 -0.48048743871E+02  0.57624666865E+02  0.10566000000E+00 0.  1.
         23    2    1    0    0    0  0.55836636567E+01  0.18534343902E+02 -0.25905273989E+02  0.92751440599E+02  0.86931279232E+02 0.  0.
         13    1    3    3    0    0 -0.25183882178E+02  0.10455519543E+02  0.22143469882E+02  0.35126773734E+02  0.10566000000E+00 0. -1.
         22    1    1    0    0    0 -0.55836636567E+01 -0.18534343902E+02  0.25905273989E+02  0.32338559401E+02  0.00000000000E+00 0.  1.
</event>
<event>
 5    1  0.1262391E-009  0.9118800E+02  0.7815553E-02  0.1125453E+00
         25   -1    0    0    0    0  0.00000000000E+00  0.00000000000E+00  0.99999998245E-14  0.12509000000E+03  0.12509000000E+03 0.  0.
        -13    1    3    3    0    0  0.36964809850E+02 -0.27281516068E+02 -0.29073573508E+02  0.54368760577E+02  0.10566000000E+00 0. -1.
         23    2    1    0    0    0 -0.28924835051E+01 -0.23335321904E+02 -0.16558672157E+02  0.96330769607E+02  0.91937608411E+02 0.  0.
         13    1    3    3    0    0 -0.39857293355E+02  0.39461941637E+01  0.12514901351E+02  0.41962009030E+02  0.10566000000E+00 0.  1.
         22    1    1    0    0    0  0.28924835051E+01  0.23335321904E+02  0.16558672157E+02  0.28759230393E+02  0.00000000000E+00 0.  1.
</event>
<event>
 5    1  0.1262391E-009  0.9118800E+02  0.7815553E-02  0.1125453E+00
         25   -1    0    0    0    0  0.00000000000E+00  0.00000000000E+00  0.99999998245E-14  0.12509000000E+03  0.12509000000E+03 0.  0.
        -13    1    3    3    0    0  0.38211732540E+02  0.31209310476E+02  0.36630462824E+02  0.61448836725E+02  0.10566000000E+00 0.  1.
         23    2    1    0    0    0  0.21355663058E+02  0.70895603111E+01  0.17974304394E+02  0.96290662708E+02  0.91883022894E+02 0.  0.
         13    1    3    3    0    0 -0.16856069482E+02 -0.24119750165E+02 -0.18656158430E+02  0.34841825983E+02  0.10566000000E+00 0. -1.
         22    1    1    0    0    0 -0.21355663058E+02 -0.70895603111E+01 -0.17974304394E+02  0.28799337292E+02  0.00000000000E+00 0.  1.
</event>
<event>
 5    1  0.1262391E-009  0.9118800E+02  0.7815553E-02  0.1125453E+00
         25   -1    0    0    0    0  0.00000000000E+00  0.00000000000E+00  0.99999998245E-14  0.12509000000E+03  0.12509000000E+03 0.  0.
        -13    1    3    3    0    0 -0.49841783910E+02  0.42808631342E+00 -0.13721807059E+02  0.51698025438E+02  0.10566000000E+00 0. -1.
         23    2    1    0    0    0 -0.93587577988E+01  0.10855125507E+02 -0.26114765783E+02  0.95300721908E+02  0.90525281038E+02 0.  0.
         13    1    3    3    0    0  0.40483026111E+02  0.10427039194E+02 -0.12392958724E+02  0.43602696470E+02  0.10566000000E+00 0.  1.
         22    1    1    0    0    0  0.93587577988E+01 -0.10855125507E+02  0.26114765783E+02  0.29789278092E+02  0.00000000000E+00 0. -1.
</event>
<event>
 5    1  0.1262391E-009  0.9118800E+02  0.7815553E-02  0.1125453E+00
         25   -1    0    0    0    0  0.00000000000E+00  0.00000000000E+00  0.99999998245E-14  0.12509000000E+03  0.12509000000E+03 0.  0.
        -13    1    3    3    0    0  0.36933140468E+02 -0.33094264520E+02 -0.32882054619E+02  0.59502335156E+02  0.10566000000E+00 0. -1.
         23    2    1    0    0    0  0.25958425933E+02 -0.71928780661E+01 -0.81814310255E+01  0.96938389293E+02  0.92760649702E+02 0.  0.
         13    1    3    3    0    0 -0.10974714535E+02  0.25901386454E+02  0.24700623594E+02  0.37436054137E+02  0.10566000000E+00 0.  1.
         22    1    1    0    0    0 -0.25958425933E+02  0.71928780661E+01  0.81814310255E+01  0.28151610707E+02  0.00000000000E+00 0. -1.
</event>
<event>
 5    1  0.1262391E-009  0.9118800E+02  0.7815553E-02  0.1125453E+00
         25   -1    0    0    0    0  0.00000000000E+00  0.00000000000E+00  0.99999998245E-14  0.12509000000E+03  0.12509000000E+03 0.  0.
        -13    1    3    3    0    0 -0.15657031032E+02  0.20689618875E+02  0.23789868790E+02  0.35201874538E+02  0.10566000000E+00 0.  1.
         23    2    1    0    0    0 -0.42795523320E+01 -0.15578873579E+02 -0.23933944624E+02  0.96213546350E+02  0.91777976257E+02 0.  0.
         13    1    3    3    0    0  0.11377478700E+02 -0.36268492453E+02 -0.47723813414E+02  0.61011671812E+02  0.10566000000E+00 0. -1.
         22    1    1    0    0    0  0.42795523320E+01  0.15578873579E+02  0.23933944624E+02  0.28876453650E+02  0.00000000000E+00 0. -1.
</event>
<event>
 5    1  0.1262391E-009  0.9118800E+02  0.7815553E-02  0.1125453E+00
         25   -1    0    0    0    0  0.00000000000E+00  0.00000000000E+00  0.99999998245E-14  0.12509000000E+03  0.12509000000E+03 0.  0.
        -13    1    3    3    0    0 -0.19794583766E+02  0.18504730364E+01 -0.87028813658E+01  0.21702559872E+02  0.10566000000E+00 0.  1.
         23    2    1    0    0    0  0.29724871365E+02  0.31298059827E+02 -0.14375760889E+02  0.79594956009E+02  0.65311239417E+02 0.  0.
         13    1    3    3    0    0  0.49519455131E+02  0.29447586791E+02 -0.56728795231E+01  0.57892396136E+02  0.10566000000E+00 0. -1.
         22    1    1    0    0    0 -0.29724871365E+02 -0.31298059827E+02  0.14375760889E+02  0.45495043991E+02  0.00000000000E+00 0. -1.
</event>
<event>
 5    1  0.1262391E-009  0.9118800E+02  0.7815553E-02  0.1125453E+00
         25   -1    0    0    0    0  0.00000000000E+00  0.00000000000E+00  0.99999998245E-14  0.12509000000E+03  0.12509000000E+03 0.  0.
        -13    1    3    3    0    0 -0.20361171561E+02 -0.37613612863E+02  0.29593840381E+01  0.42873421812E+02  0.10566000000E+00 0. -1.
         23    2    1    0    0    0  0.14227036302E+02 -0.87238729554E+01 -0.24351008217E+02  0.95569056206E+02  0.90895315510E+02 0.  0.
         13    1    3    3    0    0  0.34588207863E+02  0.28889739907E+02 -0.27310392255E+02  0.52695634395E+02  0.10566000000E+00 0.  1.
         22    1    1    0    0    0 -0.14227036302E+02  0.87238729554E+01  0.24351008217E+02  0.29520943794E+02  0.00000000000E+00 0.  1.
</event>
<event>
 5    1  0.1262391E-009  0.9118800E+02  0.7815553E-02  0.1125453E+00
         25   -1    0    0    0    0  0.00000000000E+00  0.00000000000E+00  0.99999998245E-14  0.12509000000E+03  0.12509000000E+03 0.  0.
        -13    1    3    3    0    0 -0.12219921920E+02 -0.42168891714E+02 -0.76998484429E+01  0.44573991859E+02  0.10566000000E+00 0.  1.
         23    2    1    0    0    0 -0.25445161467E+02  0.77022238945E+01 -0.11098925950E+02  0.96280858183E+02  0.91869673997E+02 0.  0.
         13    1    3    3    0    0 -0.13225239546E+02  0.49871115609E+02 -0.33990775071E+01  0.51706866324E+02  0.10566000000E+00 0. -1.
         22    1    1    0    0    0  0.25445161467E+02 -0.77022238945E+01  0.11098925950E+02  0.28809141817E+02  0.00000000000E+00 0. -1.
</event>
<event>
 5    1  0.1262391E-009  0.9118800E+02  0.7815553E-02  0.1125453E+00
         25   -1    0    0    0    0  0.00000000000E+00  0.00000000000E+00  0.99999998245E-14  0.12509000000E+03  0.12509000000E+03 0.  0.
        -13    1    3    3    0    0  0.24744724594E+02 -0.37865392684E+02  0.10648941820E+02  0.46470425910E+02  0.10566000000E+00 0.  1.
         23    2    1    0    0    0  0.18935602113E+02 -0.26359775702E+01 -0.22758163529E+02  0.95367291302E+02  0.90617221530E+02 0.  0.
         13    1    3    3    0    0 -0.58091224810E+01  0.35229415113E+02 -0.33407105350E+02  0.48896865391E+02  0.10566000000E+00 0. -1.
         22    1    1    0    0    0 -0.18935602113E+02  0.26359775702E+01  0.22758163529E+02  0.29722708698E+02  0.00000000000E+00 0.  1.
</event>
<event>
 5    1  0.1262391E-009  0.9118800E+02  0.7815553E-02  0.1125453E+00
         25   -1    0    0    0    0  0.00000000000E+00  0.00000000000E+00  0.99999998245E-14  0.12509000000E+03  0.12509000000E+03 0.  0.
        -13    1    3    3    0    0 -0.16520995283E+02  0.26682354059E+02 -0.20823782895E+02  0.37663409317E+02  0.10566000000E+00 0.  1.
         23    2    1    0    0    0  0.21069947302E+02  0.51306309372E+01  0.18807481150E+02  0.96384819277E+02  0.92011118821E+02 0.  0.
         13    1    3    3    0    0  0.37590942586E+02 -0.21551723121E+02  0.39631264044E+02  0.58721409961E+02  0.10566000000E+00 0. -1.
         22    1    1    0    0    0 -0.21069947302E+02 -0.51306309372E+01 -0.18807481150E+02  0.28705180723E+02  0.00000000000E+00 0. -1.
</event>
<event>
 5    1  0.1262391E-009  0.9118800E+02  0.7815553E-02  0.1125453E+00
         25   -1    0    0    0    0  0.00000000000E+00  0.00000000000E+00  0.99999998245E-14  0.12509000000E+03  0.12509000000E+03 0.  0.
        -13    1    3    3    0    0  0.22308211568E+02 -0.43323407017E+02 -0.10295614964E+02  0.49805469082E+02  0.10566000000E+00 0. -1.
         23    2    1    0    0    0 -0.98098192800E+01 -0.41175609671E+02 -0.43610199692E+01  0.82537892164E+02  0.70723558746E+02 0.  0.
         13    1    3    3    0    0 -0.32118030848E+02  0.21477973463E+01  0.59345949952E+01  0.32732423082E+02  0.10566000000E+00 0.  1.
         22    1    1    0    0    0  0.98098192800E+01  0.41175609671E+02  0.43610199692E+01  0.42552107836E+02  0.00000000000E+00 0. -1.
</event>
<event>
 5    1  0.1262391E-009  0.9118800E+02  0.7815553E-02  0.1125453E+00
         25   -1    0    0    0    0  0.00000000000E+00  0.00000000000E+00  0.99999998245E-14  0.12509000000E+03  0.12509000000E+03 0.  0.
        -13    1    3    3    0    0  0.17775487606E+02 -0.40314608174E+02  0.20819027524E+02  0.48730674764E+02  0.10566000000E+00 0.  1.
         23    2    1    0    0    0  0.49505905430E+01  0.65267597153E+01  0.26243071622E+02  0.97598078509E+02  0.93646031316E+02 0.  0.
         13    1    3    3    0    0 -0.12824897063E+02  0.46841367889E+02  0.54240440983E+01  0.48867403745E+02  0.10566000000E+00 0. -1.
         22    1    1    0    0    0 -0.49505905430E+01 -0.65267597153E+01 -0.26243071622E+02  0.27491921491E+02  0.00000000000E+00 0. -1.
</event>
<event>
 5    1  0.1262391E-009  0.9118800E+02  0.7815553E-02  0.1125453E+00
         25   -1    0    0    0    0  0.00000000000E+00  0.00000000000E+00  0.99999998245E-14  0.12509000000E+03  0.12509000000E+03 0.  0.
        -13    1    3    3    0    0 -0.86304692174E+01  0.41933539009E+02  0.12899725498E+02  0.44713764935E+02  0.10566000000E+00 0. -1.
         23    2    1    0    0    0 -0.73114235978E+00 -0.69948459132E+01  0.27757840539E+02  0.96455053695E+02  0.92106553694E+02 0.  0.
         13    1    3    3    0    0  0.78993268576E+01 -0.48928384922E+02  0.14858115041E+02  0.51741288760E+02  0.10566000000E+00 0.  1.
         22    1    1    0    0    0  0.73114235978E+00  0.69948459132E+01 -0.27757840539E+02  0.28634946305E+02  0.00000000000E+00 0. -1.
</event>
<event>
 5    1  0.1262391E-009  0.9118800E+02  0.7815553E-02  0.1125453E+00
         25   -1    0    0    0    0  0.00000000000E+00  0.00000000000E+00  0.99999998245E-14  0.12509000000E+03  0.12509000000E+03 0.  0.
        -13    1    3    3    0    0  0.19961634754E+02  0.44777762316E+02  0.24741463652E+02  0.54915080331E+02  0.10566000000E+00 0. -1.
         23    2    1    0    0    0 -0.99847451572E+01  0.26929799615E+02  0.25164485332E+01  0.96258736476E+02  0.91839548080E+02 0.  0.
         13    1    3    3    0    0 -0.29946379911E+02 -0.17847962701E+02 -0.22225015119E+02  0.41343656145E+02  0.10566000000E+00 0.  1.
         22    1    1    0    0    0  0.99847451572E+01 -0.26929799615E+02 -0.25164485332E+01  0.28831263524E+02  0.00000000000E+00 0. -1.
</event>
<event>
 5    1  0.1262391E-009  0.9118800E+02  0.7815553E-02  0.1125453E+00
         25   -1    0    0    0    0  0.00000000000E+00  0.00000000000E+00  0.99999998245E-14  0.12509000000E+03  0.12509000000E+03 0.  0.
        -13    1    3    3    0    0 -0.43049675989E+01 -0.34154431972E+02 -0.28789183790E+02  0.44876343843E+02  0.10566000000E+00 0.  1.
         23    2    1    0    0    0  0.14905042104E+02  0.13307398050E+02 -0.19984489633E+02  0.96830011520E+02  0.92614384315E+02 0.  0.
         13    1    3    3    0    0  0.19210009703E+02  0.47461830023E+02  0.88046941567E+01  0.51953667677E+02  0.10566000000E+00 0. -1.
         22    1    1    0    0    0 -0.14905042104E+02 -0.13307398050E+02  0.19984489633E+02  0.28259988480E+02  0.00000000000E+00 0.  1.
</event>
<event>
 5    1  0.1262391E-009  0.9118800E+02  0.7815553E-02  0.1125453E+00
         25   -1    0    0    0    0  0.00000000000E+00  0.00000000000E+00  0.99999998245E-14  0.12509000000E+03  0.12509000000E+03 0.  0.
        -13    1    3    3    0    0  0.77994946676E+01 -0.21408558434E+02  0.24836176453E+02  0.33704677956E+02  0.10566000000E+00 0.  1.
         23    2    1    0    0    0 -0.62231093578E+01  0.25383741085E+02 -0.13382553806E+02  0.95727538456E+02  0.91113157507E+02 0.  0.
         13    1    3    3    0    0 -0.14022604025E+02  0.46792299519E+02 -0.38218730259E+02  0.62022860500E+02  0.10566000000E+00 0. -1.
         22    1    1    0    0    0  0.62231093578E+01 -0.25383741085E+02  0.13382553806E+02  0.29362461544E+02  0.00000000000E+00 0. -1.
</event>
<event>
 5    1  0.1262391E-009  0.9118800E+02  0.7815553E-02  0.1125453E+00
         25   -1    0    0    0    0  0.00000000000E+00  0.00000000000E+00  0.99999998245E-14  0.12509000000E+03  0.12509000000E+03 0.  0.
        -13    1    3    3    0    0  0.67125730614E+01  0.10995915401E+02  0.14074672160E+02  0.19080784917E+02  0.10566000000E+00 0. -1.
         23    2    1    0    0    0 -0.20007619893E+02  0.21311148053E+02 -0.37179626349E+02  0.77795238128E+02  0.61768151784E+02 0.  0.
         13    1    3    3    0    0 -0.26720192954E+02  0.10315232652E+02 -0.51254298509E+02  0.58714453211E+02  0.10566000000E+00 0.  1.
         22    1    1    0    0    0  0.20007619893E+02 -0.21311148053E+02  0.37179626349E+02  0.47294761872E+02  0.00000000000E+00 0.  1.
</event>
<event>
 5    1  0.1262391E-009  0.9118800E+02  0.7815553E-02  0.1125453E+00
         25   -1    0    0    0    0  0.00000000000E+00  0.00000000000E+00  0.99999998245E-14  0.12509000000E+03  0.12509000000E+03 0.  0.
        -13    1    3    3    0    0 -0.13898328850E+02  0.16925040951E+01  0.42690469984E+02  0.44927892299E+02  0.10566000000E+00 0. -1.
         23    2    1    0    0    0  0.26766181804E+02  0.18563880591E+01  0.13015065456E+02  0.95269426668E+02  0.90482026192E+02 0.  0.
         13    1    3    3    0    0  0.40664510654E+02  0.16388396408E+00 -0.29675404529E+02  0.50341534369E+02  0.10566000000E+00 0.  1.
         22    1    1    0    0    0 -0.26766181804E+02 -0.18563880591E+01 -0.13015065456E+02  0.29820573332E+02  0.00000000000E+00 0.  1.
</event>
<event>
 5    1  0.1262391E-009  0.9118800E+02  0.7815553E-02  0.1125453E+00
         25   -1    0    0    0    0  0.00000000000E+00  0.00000000000E+00  0.99999998245E-14  0.12509000000E+03  0.12509000000E+03 0.  0.
        -13    1    3    3    0    0  0.54133431765E+01  0.22827303867E+02 -0.27875146790E+02  0.36433844963E+02  0.10566000000E+00 0.  1.
         23    2    1    0    0    0 -0.30657427296E+01 -0.28770139274E+02  0.94836419011E+00  0.96141440675E+02  0.91679646204E+02 0.  0.
         13    1    3    3    0    0 -0.84790859061E+01 -0.51597443141E+02  0.28823510980E+02  0.59707595712E+02  0.10566000000E+00 0. -1.
         22    1    1    0    0    0  0.30657427296E+01  0.28770139274E+02 -0.94836419011E+00  0.28948559325E+02  0.00000000000E+00 0. -1.
</event>
<event>
 5    1  0.1262391E-009  0.9118800E+02  0.7815553E-02  0.1125453E+00
         25   -1    0    0    0    0  0.00000000000E+00  0.00000000000E+00  0.99999998245E-14  0.12509000000E+03  0.12509000000E+03 0.  0.
        -13    1    3    3    0    0  0.25729266443E+02  0.28530722711E+01 -0.22437484098E+02  0.34257656513E+02  0.10566000000E+00 0. -1.
         23    2    1    0    0    0 -0.53119873267E+01 -0.62052930772E+01  0.28970530046E+02  0.94989925537E+02  0.90094791585E+02 0.  0.
         13    1    3    3    0    0 -0.31041253770E+02 -0.90583653482E+01  0.51408014144E+02  0.60732269023E+02  0.10566000000E+00 0.  1.
         22    1    1    0    0    0  0.53119873267E+01  0.62052930772E+01 -0.28970530046E+02  0.30100074463E+02  0.00000000000E+00 0.  1.
</event>
<event>
 5    1  0.1262391E-009  0.9118800E+02  0.7815553E-02  0.1125453E+00
         25   -1    0    0    0    0  0.00000000000E+00  0.00000000000E+00  0.99999998245E-14  0.12509000000E+03  0.12509000000E+03 0.  0.
        -13    1    3    3    0    0  0.45958971938E+02 -0.22242003999E+01  0.37267150574E+02  0.59211703615E+02  0.10566000000E+00 0. -1.
         23    2    1    0    0    0  0.22925820803E+02  0.12387047087E+02  0.11967998652E+02  0.96414833274E+02  0.92051914094E+02 0.  0.
         13    1    3    3    0    0 -0.23033151135E+02  0.14611247487E+02 -0.25299151923E+02  0.37203129659E+02  0.10566000000E+00 0.  1.
         22    1    1    0    0    0 -0.22925820803E+02 -0.12387047087E+02 -0.11967998652E+02  0.28675166726E+02  0.00000000000E+00 0. -1.
</event>
<event>
 5    1  0.1262391E-009  0.9118800E+02  0.7815553E-02  0.1125453E+00
         25   -1    0    0    0    0  0.00000000000E+00  0.00000000000E+00  0.99999998245E-14  0.12509000000E+03  0.12509000000E+03 0.  0.
        -13    1    3    3    0    0 -0.40667929647E+01 -0.57951310015E+01  0.41104174513E+02  0.41709551362E+02  0.10566000000E+00 0. -1.
         23    2    1    0    0    0  0.13955418531E+02  0.23106972790E+02 -0.35414862588E+01  0.97864496831E+02  0.94001232530E+02 0.  0.
         13    1    3    3    0    0  0.18022211496E+02  0.28902103792E+02 -0.44645660772E+02  0.56154945469E+02  0.10566000000E+00 0.  1.
         22    1    1    0    0    0 -0.13955418531E+02 -0.23106972790E+02  0.35414862588E+01  0.27225503169E+02  0.00000000000E+00 0.  1.
</event>
<event>
 5    1  0.1262391E-009  0.9118800E+02  0.7815553E-02  0.1125453E+00
         25   -1    0    0    0    0  0.00000000000E+00  0.00000000000E+00  0.99999998245E-14  0.12509000000E+03  0.12509000000E+03 0.  0.
        -13    1    3    3    0    0 -0.31848369654E+02 -0.46890775506E+02 -0.84767256941E+01  0.57314304670E+02  0.10566000000E+00 0. -1.
         23    2    1    0    0    0  0.54392149227E+00 -0.30764843362E+02 -0.76827245771E+00  0.94310758940E+02  0.89146831529E+02 0.  0.
         13    1    3    3    0    0  0.32392291146E+02  0.16125932145E+02  0.77084532364E+01  0.36996454270E+02  0.10566000000E+00 0.  1.
         22    1    1    0    0    0 -0.54392149227E+00  0.30764843362E+02  0.76827245771E+00  0.30779241060E+02  0.00000000000E+00 0. -1.
</event>
<event>
 5    1  0.1262391E-009  0.9118800E+02  0.7815553E-02  0.1125453E+00
         25   -1    0    0    0    0  0.00000000000E+00  0.00000000000E+00  0.99999998245E-14  0.12509000000E+03  0.12509000000E+03 0.  0.
        -13    1    3    3    0    0 -0.37040030541E+02  0.38805700847E+02 -0.23812139547E+02  0.58693061214E+02  0.10566000000E+00 0.  1.
         23    2    1    0    0    0 -0.87009211458E+01  0.30259000833E+02 -0.66442902767E+01  0.92911439537E+02  0.87161206069E+02 0.  0.
         13    1    3    3    0    0  0.28339109396E+02 -0.85467000145E+01  0.17167849271E+02  0.34218378324E+02  0.10566000000E+00 0. -1.
         22    1    1    0    0    0  0.87009211458E+01 -0.30259000833E+02  0.66442902767E+01  0.32178560463E+02  0.00000000000E+00 0.  1.
</event>
<event>
 5    1  0.1262391E-009  0.9118800E+02  0.7815553E-02  0.1125453E+00
         25   -1    0    0    0    0  0.00000000000E+00  0.00000000000E+00  0.99999998245E-14  0.12509000000E+03  0.12509000000E+03 0.  0.
        -13    1    3    3    0    0  0.46826568851E+02  0.18035626231E+02  0.10067033816E+02  0.51179758672E+02  0.10566000000E+00 0.  1.
         23    2    1    0    0    0  0.22345842693E+02 -0.18497393487E+02  0.69096509080E+01  0.95269981101E+02  0.90482792684E+02 0.  0.
         13    1    3    3    0    0 -0.24480726158E+02 -0.36533019718E+02 -0.31573829078E+01  0.44090222429E+02  0.10566000000E+00 0. -1.
         22    1    1    0    0    0 -0.22345842693E+02  0.18497393487E+02 -0.69096509080E+01  0.29820018899E+02  0.00000000000E+00 0.  1.
</event>
<event>
 5    1  0.1262391E-009  0.9118800E+02  0.7815553E-02  0.1125453E+00
         25   -1    0    0    0    0  0.00000000000E+00  0.00000000000E+00  0.99999998245E-14  0.12509000000E+03  0.12509000000E+03 0.  0.
        -13    1    3    3    0    0  0.27819825868E+02 -0.47198823855E+01  0.45110854522E+02  0.53209213119E+02  0.10566000000E+00 0.  1.
         23    2    1    0    0    0  0.12606457535E+02 -0.24267147641E+02  0.10441431612E+02  0.95818158235E+02  0.91237485319E+02 0.  0.
         13    1    3    3    0    0 -0.15213368333E+02 -0.19547265255E+02 -0.34669422910E+02  0.42608945116E+02  0.10566000000E+00 0. -1.
         22    1    1    0    0    0 -0.12606457535E+02  0.24267147641E+02 -0.10441431612E+02  0.29271841765E+02  0.00000000000E+00 0.  1.
</event>
<event>
 5    1  0.1262391E-009  0.9118800E+02  0.7815553E-02  0.1125453E+00
         25   -1    0    0    0    0  0.00000000000E+00  0.00000000000E+00  0.99999998245E-14  0.12509000000E+03  0.12509000000E+03 0.  0.
        -13    1    3    3    0    0  0.29690089892E+02  0.31001273395E+02 -0.22853183926E+02  0.48629821813E+02  0.10566000000E+00 0.  1.
         23    2    1    0    0    0  0.12050227292E+02  0.18227235843E+02  0.19209222484E+02  0.95996455481E+02  0.91481610896E+02 0.  0.
         13    1    3    3    0    0 -0.17639862600E+02 -0.12774037553E+02  0.42062406411E+02  0.47366633668E+02  0.10566000000E+00 0. -1.
         22    1    1    0    0    0 -0.12050227292E+02 -0.18227235843E+02 -0.19209222484E+02  0.29093544519E+02  0.00000000000E+00 0. -1.
</event>
<event>
 5    1  0.1262391E-009  0.9118800E+02  0.7815553E-02  0.1125453E+00
         25   -1    0    0    0    0  0.00000000000E+00  0.00000000000E+00  0.99999998245E-14  0.12509000000E+03  0.12509000000E+03 0.  0.
        -13    1    3    3    0    0 -0.84326788852E+01 -0.58111842456E+01 -0.32146913383E+02  0.33738926178E+02  0.10566000000E+00 0.  1.
         23    2    1    0    0    0  0.13638564537E+02 -0.23373084079E+02  0.18915196445E+02  0.92073395715E+02  0.85950067131E+02 0.  0.
         13    1    3    3    0    0  0.22071243422E+02 -0.17561899833E+02  0.51062109828E+02  0.58334469537E+02  0.10566000000E+00 0. -1.
         22    1    1    0    0    0 -0.13638564537E+02  0.23373084079E+02 -0.18915196445E+02  0.33016604285E+02  0.00000000000E+00 0. -1.
</event>
<event>
 5    1  0.1262391E-009  0.9118800E+02  0.7815553E-02  0.1125453E+00
         25   -1    0    0    0    0  0.00000000000E+00  0.00000000000E+00  0.99999998245E-14  0.12509000000E+03  0.12509000000E+03 0.  0.
        -13    1    3    3    0    0  0.24633924896E+02  0.28274797755E+02 -0.46708991822E+02  0.59900213063E+02  0.10566000000E+00 0. -1.
         23    2    1    0    0    0  0.13823974035E+02  0.22571267144E+02 -0.13313757068E+02  0.95461964529E+02  0.90747816425E+02 0.  0.
         13    1    3    3    0    0 -0.10809950861E+02 -0.57035306116E+01  0.33395234754E+02  0.35561751467E+02  0.10566000000E+00 0.  1.
         22    1    1    0    0    0 -0.13823974035E+02 -0.22571267144E+02  0.13313757068E+02  0.29628035471E+02  0.00000000000E+00 0. -1.
</event>
<event>
 5    1  0.1262391E-009  0.9118800E+02  0.7815553E-02  0.1125453E+00
         25   -1    0    0    0    0  0.00000000000E+00  0.00000000000E+00  0.99999998245E-14  0.12509000000E+03  0.12509000000E+03 0.  0.
        -13    1    3    3    0    0 -0.20402570507E+02 -0.14006592644E+02  0.20799669183E+02  0.32327804178E+02  0.10566000000E+00 0. -1.
         23    2    1    0    0    0  0.16966662232E+02  0.15037819818E+02 -0.20032253667E+02  0.94836159927E+02  0.89881045780E+02 0.  0.
         13    1    3    3    0    0  0.37369232739E+02  0.29044412463E+02 -0.40831922850E+02  0.62508355749E+02  0.10566000000E+00 0.  1.
         22    1    1    0    0    0 -0.16966662232E+02 -0.15037819818E+02  0.20032253667E+02  0.30253840073E+02  0.00000000000E+00 0.  1.
</event>
<event>
 5    1  0.1262391E-009  0.9118800E+02  0.7815553E-02  0.1125453E+00
         25   -1    0    0    0    0  0.00000000000E+00  0.00000000000E+00  0.99999998245E-14  0.12509000000E+03  0.12509000000E+03 0.  0.
        -13    1    3    3    0    0 -0.40686598634E+02 -0.28933799795E+02  0.65221464012E+01  0.50349911983E+02  0.10566000000E+00 0. -1.
         23    2    1    0    0    0 -0.46687128170E+01 -0.36443386354E+02  0.91191023143E+01  0.87234018764E+02  0.78591976145E+02 0.  0.
         13    1    3    3    0    0  0.36017885817E+02 -0.75095865587E+01  0.25969559131E+01  0.36884106781E+02  0.10566000000E+00 0.  1.
         22    1    1    0    0    0  0.46687128170E+01  0.36443386354E+02 -0.91191023143E+01  0.37855981236E+02  0.00000000000E+00 0.  1.
</event>
<event>
 5    1  0.1262391E-009  0.9118800E+02  0.7815553E-02  0.1125453E+00
         25   -1    0    0    0    0  0.00000000000E+00  0.00000000000E+00  0.99999998245E-14  0.12509000000E+03  0.12509000000E+03 0.  0.
        -13    1    3    3    0    0  0.46336055077E+02  0.81295127672E+01 -0.87129324178E+01  0.47843968619E+02  0.10566000000E+00 0. -1.
         23    2    1    0    0    0  0.12709187157E+02 -0.25012486067E+02 -0.10606241676E+02  0.95095996267E+02  0.90241942832E+02 0.  0.
         13    1    3    3    0    0 -0.33626867920E+02 -0.33141998834E+02 -0.18933092585E+01  0.47252027648E+02  0.10566000000E+00 0.  1.
         22    1    1    0    0    0 -0.12709187157E+02  0.25012486067E+02  0.10606241676E+02  0.29994003733E+02  0.00000000000E+00 0.  1.
</event>
<event>
 5    1  0.1262391E-009  0.9118800E+02  0.7815553E-02  0.1125453E+00
         25   -1    0    0    0    0  0.00000000000E+00  0.00000000000E+00  0.99999998245E-14  0.12509000000E+03  0.12509000000E+03 0.  0.
        -13    1    3    3    0    0 -0.79548242562E+01 -0.85032395879E+01 -0.45942846979E+02  0.47395576429E+02  0.10566000000E+00 0. -1.
         23    2    1    0    0    0 -0.20672163079E+02  0.58845743336E+01  0.60003889164E+01  0.10277473149E+03  0.10032284996E+03 0.  0.
         13    1    3    3    0    0 -0.12717338823E+02  0.14387813921E+02  0.51943235895E+02  0.55379155063E+02  0.10566000000E+00 0.  1.
         22    1    1    0    0    0  0.20672163079E+02 -0.58845743336E+01 -0.60003889164E+01  0.22315268508E+02  0.00000000000E+00 0.  1.
</event>
<event>
 5    1  0.1262391E-009  0.9118800E+02  0.7815553E-02  0.1125453E+00
         25   -1    0    0    0    0  0.00000000000E+00  0.00000000000E+00  0.99999998245E-14  0.12509000000E+03  0.12509000000E+03 0.  0.
        -13    1    3    3    0    0 -0.52661589720E+02  0.27127879152E+02  0.59432711526E+01  0.59535690935E+02  0.10566000000E+00 0.  1.
         23    2    1    0    0    0 -0.17079703767E+02  0.22449493371E+02  0.88096139391E+01  0.95538260100E+02  0.90852924069E+02 0.  0.
         13    1    3    3    0    0  0.35581885953E+02 -0.46783857809E+01  0.28663427865E+01  0.36002569165E+02  0.10566000000E+00 0. -1.
         22    1    1    0    0    0  0.17079703767E+02 -0.22449493371E+02 -0.88096139391E+01  0.29551739900E+02  0.00000000000E+00 0.  1.
</event>
<event>
 5    1  0.1262391E-009  0.9118800E+02  0.7815553E-02  0.1125453E+00
         25   -1    0    0    0    0  0.00000000000E+00  0.00000000000E+00  0.99999998245E-14  0.12509000000E+03  0.12509000000E+03 0.  0.
        -13    1    3    3    0    0 -0.40479823181E+02 -0.86099027637E+01  0.45986333874E+02  0.61866797053E+02  0.10566000000E+00 0.  1.
         23    2    1    0    0    0 -0.20383925463E+02 -0.10863244150E+02  0.22763402078E+02  0.92660276522E+02  0.86799999310E+02 0.  0.
         13    1    3    3    0    0  0.20095897718E+02 -0.22533413860E+01 -0.23222931797E+02  0.30793479468E+02  0.10566000000E+00 0. -1.
         22    1    1    0    0    0  0.20383925463E+02  0.10863244150E+02 -0.22763402078E+02  0.32429723478E+02  0.00000000000E+00 0.  1.
</event>
<event>
 5    1  0.1262391E-009  0.9118800E+02  0.7815553E-02  0.1125453E+00
         25   -1    0    0    0    0  0.00000000000E+00  0.00000000000E+00  0.99999998245E-14  0.12509000000E+03  0.12509000000E+03 0.  0.
        -13    1    3    3    0    0 -0.35099230791E+02  0.38191965248E+02 -0.13670087754E+02  0.53642004762E+02  0.10566000000E+00 0. -1.
         23    2    1    0    0    0 -0.19690602698E+02  0.12135514714E+02  0.16730236127E+02  0.96543698088E+02  0.92226863156E+02 0.  0.
         13    1    3    3    0    0  0.15408628093E+02 -0.26056450534E+02  0.30400323881E+02  0.42901693326E+02  0.10566000000E+00 0.  1.
         22    1    1    0    0    0  0.19690602698E+02 -0.12135514714E+02 -0.16730236127E+02  0.28546301912E+02  0.00000000000E+00 0. -1.
</event>
<event>
 5    1  0.1262391E-009  0.9118800E+02  0.7815553E-02  0.1125453E+00
         25   -1    0    0    0    0  0.00000000000E+00  0.00000000000E+00  0.99999998245E-14  0.12509000000E+03  0.12509000000E+03 0.  0.
        -13    1    3    3    0    0 -0.18613024322E+01  0.37465490913E+02 -0.11381168578E+02  0.39200377783E+02  0.10566000000E+00 0.  1.
         23    2    1    0    0    0 -0.25791537433E+02 -0.11596783289E+02  0.53820783800E+01  0.96303622085E+02  0.91900664160E+02 0.  0.
         13    1    3    3    0    0 -0.23930235001E+02 -0.49062274202E+02  0.16763246959E+02  0.57103244301E+02  0.10566000000E+00 0. -1.
         22    1    1    0    0    0  0.25791537433E+02  0.11596783289E+02 -0.53820783800E+01  0.28786377915E+02  0.00000000000E+00 0. -1.
</event>
<event>
 5    1  0.1262391E-009  0.9118800E+02  0.7815553E-02  0.1125453E+00
         25   -1    0    0    0    0  0.00000000000E+00  0.00000000000E+00  0.99999998245E-14  0.12509000000E+03  0.12509000000E+03 0.  0.
        -13    1    3    3    0    0  0.14081570458E+02  0.20380826858E+02  0.24546798017E+02  0.34874420238E+02  0.10566000000E+00 0.  1.
         23    2    1    0    0    0  0.42665731078E+01 -0.26929828988E+02 -0.11843372988E+02  0.95363163318E+02  0.90611522991E+02 0.  0.
         13    1    3    3    0    0 -0.98149973502E+01 -0.47310655846E+02 -0.36390171005E+02  0.60488743080E+02  0.10566000000E+00 0. -1.
         22    1    1    0    0    0 -0.42665731078E+01  0.26929828988E+02  0.11843372988E+02  0.29726836682E+02  0.00000000000E+00 0. -1.
</event>
<event>
 5    1  0.1262391E-009  0.9118800E+02  0.7815553E-02  0.1125453E+00
         25   -1    0    0    0    0  0.00000000000E+00  0.00000000000E+00  0.99999998245E-14  0.12509000000E+03  0.12509000000E+03 0.  0.
        -13    1    3    3    0    0  0.20757922591E+02 -0.30599664136E+02 -0.16934717943E+02  0.40669726227E+02  0.10566000000E+00 0. -1.
         23    2    1    0    0    0 -0.14196810166E+02  0.10942496202E+02 -0.23693143386E+02  0.95380528690E+02  0.90635492870E+02 0.  0.
         13    1    3    3    0    0 -0.34954732757E+02  0.41542160338E+02 -0.67584254429E+01  0.54710802463E+02  0.10566000000E+00 0.  1.
         22    1    1    0    0    0  0.14196810166E+02 -0.10942496202E+02  0.23693143386E+02  0.29709471310E+02  0.00000000000E+00 0.  1.
</event>
<event>
 5    1  0.1262391E-009  0.9118800E+02  0.7815553E-02  0.1125453E+00
         25   -1    0    0    0    0  0.00000000000E+00  0.00000000000E+00  0.99999998245E-14  0.12509000000E+03  0.12509000000E+03 0.  0.
        -13    1    3    3    0    0  0.26354385337E+02 -0.25565703515E+01  0.40374930204E+02  0.48282873066E+02  0.10566000000E+00 0.  1.
         23    2    1    0    0    0 -0.16929938909E+02 -0.26772271709E+01  0.26108363354E+02  0.93858012970E+02  0.88509262707E+02 0.  0.
         13    1    3    3    0    0 -0.43284324247E+02 -0.12065681938E+00 -0.14266566850E+02  0.45575139904E+02  0.10566000000E+00 0. -1.
         22    1    1    0    0    0  0.16929938909E+02  0.26772271709E+01 -0.26108363354E+02  0.31231987030E+02  0.00000000000E+00 0. -1.
</event>
<event>
 5    1  0.1262391E-009  0.9118800E+02  0.7815553E-02  0.1125453E+00
         25   -1    0    0    0    0  0.00000000000E+00  0.00000000000E+00  0.99999998245E-14  0.12509000000E+03  0.12509000000E+03 0.  0.
        -13    1    3    3    0    0  0.20957223015E+02  0.74785494018E+01 -0.40812493319E+02  0.46484456248E+02  0.10566000000E+00 0.  1.
         23    2    1    0    0    0  0.12297933020E+02 -0.25800390868E+02 -0.51077345431E+01  0.96055739588E+02  0.91562638834E+02 0.  0.
         13    1    3    3    0    0 -0.86592899954E+01 -0.33278940270E+02  0.35704758776E+02  0.49571283340E+02  0.10566000000E+00 0. -1.
         22    1    1    0    0    0 -0.12297933020E+02  0.25800390868E+02  0.51077345431E+01  0.29034260412E+02  0.00000000000E+00 0. -1.
</event>
<event>
 5    1  0.1262391E-009  0.9118800E+02  0.7815553E-02  0.1125453E+00
         25   -1    0    0    0    0  0.00000000000E+00  0.00000000000E+00  0.99999998245E-14  0.12509000000E+03  0.12509000000E+03 0.  0.
        -13    1    3    3    0    0  0.37136956560E+02 -0.15646747808E+02 -0.18671414888E+01  0.40341934025E+02  0.10566000000E+00 0.  1.
         23    2    1    0    0    0 -0.14008964476E+02 -0.16161339617E+02  0.19850112552E+02  0.95910093347E+02  0.91363444843E+02 0.  0.
         13    1    3    3    0    0 -0.51145921036E+02 -0.51459180898E+00  0.21717254041E+02  0.55568159322E+02  0.10566000000E+00 0. -1.
         22    1    1    0    0    0  0.14008964476E+02  0.16161339617E+02 -0.19850112552E+02  0.29179906653E+02  0.00000000000E+00 0. -1.
</event>
<event>
 5    1  0.1262391E-009  0.9118800E+02  0.7815553E-02  0.1125453E+00
         25   -1    0    0    0    0  0.00000000000E+00  0.00000000000E+00  0.99999998245E-14  0.12509000000E+03  0.12509000000E+03 0.  0.
        -13    1    3    3    0    0 -0.92255791898E+00 -0.30041990663E+02  0.19119160212E+02  0.35621984327E+02  0.10566000000E+00 0.  1.
         23    2    1    0    0    0 -0.21840612274E+01  0.28515744640E+02  0.32395149852E+01  0.96307848010E+02  0.91906416072E+02 0.  0.
         13    1    3    3    0    0 -0.12615033084E+01  0.58557735303E+02 -0.15879645227E+02  0.60685863683E+02  0.10566000000E+00 0. -1.
         22    1    1    0    0    0  0.21840612274E+01 -0.28515744640E+02 -0.32395149852E+01  0.28782151990E+02  0.00000000000E+00 0. -1.
</event>
<event>
 5    1  0.1262391E-009  0.9118800E+02  0.7815553E-02  0.1125453E+00
         25   -1    0    0    0    0  0.00000000000E+00  0.00000000000E+00  0.99999998245E-14  0.12509000000E+03  0.12509000000E+03 0.  0.
        -13    1    3    3    0    0 -0.84430236014E+01  0.15001099866E+02 -0.31345510760E+02  0.35761289876E+02  0.10566000000E+00 0.  1.
         23    2    1    0    0    0  0.20417069369E+02 -0.22711687093E+02  0.30509734765E+01  0.94398211336E+02  0.89269459571E+02 0.  0.
         13    1    3    3    0    0  0.28860092971E+02 -0.37712786959E+02  0.34396484237E+02  0.58636921460E+02  0.10566000000E+00 0. -1.
         22    1    1    0    0    0 -0.20417069369E+02  0.22711687093E+02 -0.30509734765E+01  0.30691788664E+02  0.00000000000E+00 0. -1.
</event>
<event>
 5    1  0.1262391E-009  0.9118800E+02  0.7815553E-02  0.1125453E+00
         25   -1    0    0    0    0  0.00000000000E+00  0.00000000000E+00  0.99999998245E-14  0.12509000000E+03  0.12509000000E+03 0.  0.
        -13    1    3    3    0    0  0.29074080323E+02 -0.64613756718E+01 -0.12904489649E+02  0.32459028626E+02  0.10566000000E+00 0.  1.
         23    2    1    0    0    0 -0.20867840910E+02  0.97782723161E+01  0.20121577048E+02  0.94496548795E+02  0.89407150036E+02 0.  0.
         13    1    3    3    0    0 -0.49941921233E+02  0.16239647988E+02  0.33026066697E+02  0.62037520169E+02  0.10566000000E+00 0. -1.
         22    1    1    0    0    0  0.20867840910E+02 -0.97782723161E+01 -0.20121577048E+02  0.30593451205E+02  0.00000000000E+00 0. -1.
</event>
<event>
 5    1  0.1262391E-009  0.9118800E+02  0.7815553E-02  0.1125453E+00
         25   -1    0    0    0    0  0.00000000000E+00  0.00000000000E+00  0.99999998245E-14  0.12509000000E+03  0.12509000000E+03 0.  0.
        -13    1    3    3    0    0  0.24742734217E+02  0.39309361311E+02  0.41202538860E+02  0.62089364273E+02  0.10566000000E+00 0. -1.
         23    2    1    0    0    0  0.67627007264E+01  0.19935969053E+02  0.20974258735E+02  0.95373060173E+02  0.90625184657E+02 0.  0.
         13    1    3    3    0    0 -0.17980033491E+02 -0.19373392259E+02 -0.20228280125E+02  0.33283695900E+02  0.10566000000E+00 0.  1.
         22    1    1    0    0    0 -0.67627007264E+01 -0.19935969053E+02 -0.20974258735E+02  0.29716939827E+02  0.00000000000E+00 0. -1.
</event>
<event>
 5    1  0.1262391E-009  0.9118800E+02  0.7815553E-02  0.1125453E+00
         25   -1    0    0    0    0  0.00000000000E+00  0.00000000000E+00  0.99999998245E-14  0.12509000000E+03  0.12509000000E+03 0.  0.
        -13    1    3    3    0    0 -0.19384406180E+02  0.22428497849E+02  0.19924769376E+02  0.35718347070E+02  0.10566000000E+00 0.  1.
         23    2    1    0    0    0  0.27958165266E+02 -0.93074372834E+01  0.16297417692E+01  0.95578248916E+02  0.90907965623E+02 0.  0.
         13    1    3    3    0    0  0.47342571445E+02 -0.31735935132E+02 -0.18295027607E+02  0.59859901846E+02  0.10566000000E+00 0. -1.
         22    1    1    0    0    0 -0.27958165266E+02  0.93074372834E+01 -0.16297417692E+01  0.29511751084E+02  0.00000000000E+00 0. -1.
</event>
<event>
 5    1  0.1262391E-009  0.9118800E+02  0.7815553E-02  0.1125453E+00
         25   -1    0    0    0    0  0.00000000000E+00  0.00000000000E+00  0.99999998245E-14  0.12509000000E+03  0.12509000000E+03 0.  0.
        -13    1    3    3    0    0  0.19382358879E+02  0.29857829307E+02  0.26308128998E+02  0.44263920093E+02  0.10566000000E+00 0.  1.
         23    2    1    0    0    0 -0.21997785942E+02  0.18162666215E+02 -0.31529930921E+01  0.96389365933E+02  0.92017299837E+02 0.  0.
         13    1    3    3    0    0 -0.41380144821E+02 -0.11695163092E+02 -0.29461122090E+02  0.52125445840E+02  0.10566000000E+00 0. -1.
         22    1    1    0    0    0  0.21997785942E+02 -0.18162666215E+02  0.31529930921E+01  0.28700634067E+02  0.00000000000E+00 0. -1.
</event>
<event>
 5    1  0.1262391E-009  0.9118800E+02  0.7815553E-02  0.1125453E+00
         25   -1    0    0    0    0  0.00000000000E+00  0.00000000000E+00  0.99999998245E-14  0.12509000000E+03  0.12509000000E+03 0.  0.
        -13    1    3    3    0    0  0.20339485254E+02 -0.25530815134E+02 -0.33382724315E+02  0.46689770063E+02  0.10566000000E+00 0.  1.
         23    2    1    0    0    0  0.27223174170E+02 -0.50711898404E+01  0.10404038942E+02  0.95508549654E+02  0.90812008305E+02 0.  0.
         13    1    3    3    0    0  0.68836889153E+01  0.20459625293E+02  0.43786763257E+02  0.48818779591E+02  0.10566000000E+00 0. -1.
         22    1    1    0    0    0 -0.27223174170E+02  0.50711898404E+01 -0.10404038942E+02  0.29581450346E+02  0.00000000000E+00 0.  1.
</event>
<event>
 5    1  0.1262391E-009  0.9118800E+02  0.7815553E-02  0.1125453E+00
         25   -1    0    0    0    0  0.00000000000E+00  0.00000000000E+00  0.99999998245E-14  0.12509000000E+03  0.12509000000E+03 0.  0.
        -13    1    3    3    0    0  0.55452326551E+02  0.28363865292E+02 -0.84956354640E-01  0.62285534081E+02  0.10566000000E+00 0. -1.
         23    2    1    0    0    0  0.27467620078E+02  0.10230055438E+02 -0.21831154805E+01  0.95697991219E+02  0.91072582829E+02 0.  0.
         13    1    3    3    0    0 -0.27984706473E+02 -0.18133809854E+02 -0.20981591259E+01  0.33412457137E+02  0.10566000000E+00 0.  1.
         22    1    1    0    0    0 -0.27467620078E+02 -0.10230055438E+02  0.21831154805E+01  0.29392008781E+02  0.00000000000E+00 0. -1.
</event>
<event>
 5    1  0.1262391E-009  0.9118800E+02  0.7815553E-02  0.1125453E+00
         25   -1    0    0    0    0  0.00000000000E+00  0.00000000000E+00  0.99999998245E-14  0.12509000000E+03  0.12509000000E+03 0.  0.
        -13    1    3    3    0    0 -0.41631154681E+02 -0.93549280122E+01  0.69219403320E+01  0.43227215272E+02  0.10566000000E+00 0.  1.
         23    2    1    0    0    0  0.70898823853E+01 -0.95538744943E+01  0.26738136585E+02  0.95824475947E+02  0.91246146726E+02 0.  0.
         13    1    3    3    0    0  0.48721037066E+02 -0.19894648202E+00  0.19816196253E+02  0.52597260675E+02  0.10566000000E+00 0. -1.
         22    1    1    0    0    0 -0.70898823853E+01  0.95538744943E+01 -0.26738136585E+02  0.29265524053E+02  0.00000000000E+00 0. -1.
</event>
<event>
 5    1  0.1262391E-009  0.9118800E+02  0.7815553E-02  0.1125453E+00
         25   -1    0    0    0    0  0.00000000000E+00  0.00000000000E+00  0.99999998245E-14  0.12509000000E+03  0.12509000000E+03 0.  0.
        -13    1    3    3    0    0  0.19735588330E+02  0.16163544761E+02 -0.37592041924E+02  0.45430456811E+02  0.10566000000E+00 0. -1.
         23    2    1    0    0    0 -0.10160563025E+02  0.27733562575E+02  0.92098942907E+00  0.95539437305E+02  0.90854544878E+02 0.  0.
         13    1    3    3    0    0 -0.29896151355E+02  0.11570017814E+02  0.38513031353E+02  0.50108980494E+02  0.10566000000E+00 0.  1.
         22    1    1    0    0    0  0.10160563025E+02 -0.27733562575E+02 -0.92098942907E+00  0.29550562695E+02  0.00000000000E+00 0. -1.
</event>
<event>
 5    1  0.1262391E-009  0.9118800E+02  0.7815553E-02  0.1125453E+00
         25   -1    0    0    0    0  0.00000000000E+00  0.00000000000E+00  0.99999998245E-14  0.12509000000E+03  0.12509000000E+03 0.  0.
        -13    1    3    3    0    0 -0.84133506504E+01 -0.31642446296E+02  0.32158851258E+02  0.45893700603E+02  0.10566000000E+00 0.  1.
         23    2    1    0    0    0  0.17513100672E+02 -0.20816662576E+02 -0.96151081697E+01  0.96237054898E+02  0.91810011951E+02 0.  0.
         13    1    3    3    0    0  0.25926451322E+02  0.10825783720E+02 -0.41773959428E+02  0.50343354295E+02  0.10566000000E+00 0. -1.
         22    1    1    0    0    0 -0.17513100672E+02  0.20816662576E+02  0.96151081697E+01  0.28852945102E+02  0.00000000000E+00 0. -1.
</event>
<event>
 5    1  0.1262391E-009  0.9118800E+02  0.7815553E-02  0.1125453E+00
         25   -1    0    0    0    0  0.00000000000E+00  0.00000000000E+00  0.99999998245E-14  0.12509000000E+03  0.12509000000E+03 0.  0.
        -13    1    3    3    0    0 -0.13722770361E+01 -0.29397869954E+02 -0.38975636869E+02  0.48838809726E+02  0.10566000000E+00 0. -1.
         23    2    1    0    0    0  0.25706291174E+02 -0.13885911902E+02 -0.41852688350E+01  0.95574776293E+02  0.90903187144E+02 0.  0.
         13    1    3    3    0    0  0.27078568210E+02  0.15511958052E+02  0.34790368034E+02  0.46735966567E+02  0.10566000000E+00 0.  1.
         22    1    1    0    0    0 -0.25706291174E+02  0.13885911902E+02  0.41852688350E+01  0.29515223707E+02  0.00000000000E+00 0. -1.
</event>
<event>
 5    1  0.1262391E-009  0.9118800E+02  0.7815553E-02  0.1125453E+00
         25   -1    0    0    0    0  0.00000000000E+00  0.00000000000E+00  0.99999998245E-14  0.12509000000E+03  0.12509000000E+03 0.  0.
        -13    1    3    3    0    0  0.97300094730E+01  0.42942719228E+02  0.37001780022E+02  0.57514286120E+02  0.10566000000E+00 0. -1.
         23    2    1    0    0    0  0.12439073532E+02  0.57600307913E+01  0.24821268472E+02  0.96735037937E+02  0.92486018895E+02 0.  0.
         13    1    3    3    0    0  0.27090640587E+01 -0.37182688437E+02 -0.12180511550E+02  0.39220751817E+02  0.10566000000E+00 0.  1.
         22    1    1    0    0    0 -0.12439073532E+02 -0.57600307913E+01 -0.24821268472E+02  0.28354962063E+02  0.00000000000E+00 0. -1.
</event>
<event>
 5    1  0.1262391E-009  0.9118800E+02  0.7815553E-02  0.1125453E+00
         25   -1    0    0    0    0  0.00000000000E+00  0.00000000000E+00  0.99999998245E-14  0.12509000000E+03  0.12509000000E+03 0.  0.
        -13    1    3    3    0    0  0.31338751962E+02  0.13169696567E+02 -0.14744013063E+02  0.37053412359E+02  0.10566000000E+00 0.  1.
         23    2    1    0    0    0  0.21611022455E+01  0.15960875401E+02  0.30288772181E+02  0.90785049530E+02  0.84054122989E+02 0.  0.
         13    1    3    3    0    0 -0.29177649717E+02  0.27911788345E+01  0.45032785244E+02  0.53731637171E+02  0.10566000000E+00 0. -1.
         22    1    1    0    0    0 -0.21611022455E+01 -0.15960875401E+02 -0.30288772181E+02  0.34304950470E+02  0.00000000000E+00 0. -1.
</event>
<event>
 5    1  0.1262391E-009  0.9118800E+02  0.7815553E-02  0.1125453E+00
         25   -1    0    0    0    0  0.00000000000E+00  0.00000000000E+00  0.99999998245E-14  0.12509000000E+03  0.12509000000E+03 0.  0.
        -13    1    3    3    0    0 -0.27024645620E+02 -0.19665783685E+02  0.35720169416E+02  0.48918464673E+02  0.10566000000E+00 0.  1.
         23    2    1    0    0    0 -0.26231375251E+02  0.13403104102E+02  0.29427825021E+01  0.95486145251E+02  0.90781141868E+02 0.  0.
         13    1    3    3    0    0  0.79327036823E+00  0.33068887788E+02 -0.32777386914E+02  0.46567680577E+02  0.10566000000E+00 0. -1.
         22    1    1    0    0    0  0.26231375251E+02 -0.13403104102E+02 -0.29427825021E+01  0.29603854749E+02  0.00000000000E+00 0. -1.
</event>
<event>
 5    1  0.1262391E-009  0.9118800E+02  0.7815553E-02  0.1125453E+00
         25   -1    0    0    0    0  0.00000000000E+00  0.00000000000E+00  0.99999998245E-14  0.12509000000E+03  0.12509000000E+03 0.  0.
        -13    1    3    3    0    0 -0.55597480149E+01  0.20334114583E+01 -0.37474808604E+02  0.37939662677E+02  0.10566000000E+00 0. -1.
         23    2    1    0    0    0 -0.21492795560E+02 -0.15208236428E+02  0.14544062530E+02  0.95010763455E+02  0.90123718860E+02 0.  0.
         13    1    3    3    0    0 -0.15933047546E+02 -0.17241647886E+02  0.52018871134E+02  0.57071100778E+02  0.10566000000E+00 0.  1.
         22    1    1    0    0    0  0.21492795560E+02  0.15208236428E+02 -0.14544062530E+02  0.30079236545E+02  0.00000000000E+00 0.  1.
</event>
<event>
 5    1  0.1262391E-009  0.9118800E+02  0.7815553E-02  0.1125453E+00
         25   -1    0    0    0    0  0.00000000000E+00  0.00000000000E+00  0.99999998245E-14  0.12509000000E+03  0.12509000000E+03 0.  0.
        -13    1    3    3    0    0 -0.33944870698E+02 -0.27292656374E+01  0.69793682835E+00  0.34061729514E+02  0.10566000000E+00 0. -1.
         23    2    1    0    0    0  0.26357264414E+02 -0.23608690623E+01  0.12998970498E+02  0.95606914610E+02  0.90947401267E+02 0.  0.
         13    1    3    3    0    0  0.60302135112E+02  0.36839657506E+00  0.12301033669E+02  0.61545185096E+02  0.10566000000E+00 0.  1.
         22    1    1    0    0    0 -0.26357264414E+02  0.23608690623E+01 -0.12998970498E+02  0.29483085390E+02  0.00000000000E+00 0.  1.
</event>
<event>
 5    1  0.1262391E-009  0.9118800E+02  0.7815553E-02  0.1125453E+00
         25   -1    0    0    0    0  0.00000000000E+00  0.00000000000E+00  0.99999998245E-14  0.12509000000E+03  0.12509000000E+03 0.  0.
        -13    1    3    3    0    0  0.33169190388E+02 -0.75253471972E+01 -0.11437563074E+02  0.35883910803E+02  0.10566000000E+00 0.  1.
         23    2    1    0    0    0 -0.14831705996E+02 -0.59684432709E+01  0.24477419331E+02  0.95853962736E+02  0.91286561427E+02 0.  0.
         13    1    3    3    0    0 -0.48000896384E+02  0.15569039263E+01  0.35914982405E+02  0.59970051932E+02  0.10566000000E+00 0. -1.
         22    1    1    0    0    0  0.14831705996E+02  0.59684432709E+01 -0.24477419331E+02  0.29236037264E+02  0.00000000000E+00 0. -1.
</event>
<event>
 5    1  0.1262391E-009  0.9118800E+02  0.7815553E-02  0.1125453E+00
         25   -1    0    0    0    0  0.00000000000E+00  0.00000000000E+00  0.99999998245E-14  0.12509000000E+03  0.12509000000E+03 0.  0.
        -13    1    3    3    0    0  0.19862262847E+02 -0.54241734103E+02  0.51047487512E+01  0.57989178540E+02  0.10566000000E+00 0. -1.
         23    2    1    0    0    0  0.47891592911E+00 -0.23989278789E+02  0.16828102871E+02  0.95783005894E+02  0.91189277410E+02 0.  0.
         13    1    3    3    0    0 -0.19383346918E+02  0.30252455314E+02  0.11723354120E+02  0.37793827355E+02  0.10566000000E+00 0.  1.
         22    1    1    0    0    0 -0.47891592911E+00  0.23989278789E+02 -0.16828102871E+02  0.29306994106E+02  0.00000000000E+00 0. -1.
</event>
<event>
 5    1  0.1262391E-009  0.9118800E+02  0.7815553E-02  0.1125453E+00
         25   -1    0    0    0    0  0.00000000000E+00  0.00000000000E+00  0.99999998245E-14  0.12509000000E+03  0.12509000000E+03 0.  0.
        -13    1    3    3    0    0  0.16956528565E+02  0.29909037136E+02  0.10556039457E+02  0.35965476452E+02  0.10566000000E+00 0.  1.
         23    2    1    0    0    0 -0.18511710096E+02 -0.16739043702E+02  0.16960058772E+02  0.94915133169E+02  0.89990887962E+02 0.  0.
         13    1    3    3    0    0 -0.35468238661E+02 -0.46648080838E+02  0.64040193147E+01  0.58949656717E+02  0.10566000000E+00 0. -1.
         22    1    1    0    0    0  0.18511710096E+02  0.16739043702E+02 -0.16960058772E+02  0.30174866831E+02  0.00000000000E+00 0. -1.
</event>
<event>
 5    1  0.1262391E-009  0.9118800E+02  0.7815553E-02  0.1125453E+00
         25   -1    0    0    0    0  0.00000000000E+00  0.00000000000E+00  0.99999998245E-14  0.12509000000E+03  0.12509000000E+03 0.  0.
        -13    1    3    3    0    0 -0.50784107275E+02 -0.78894168533E+00 -0.15480686115E+02  0.53097182480E+02  0.10566000000E+00 0. -1.
         23    2    1    0    0    0 -0.19267295614E+02 -0.22900926404E+02  0.13863053472E+01  0.95129977421E+02  0.90289033947E+02 0.  0.
         13    1    3    3    0    0  0.31516811662E+02 -0.22111984719E+02  0.16866991462E+02  0.42032794941E+02  0.10566000000E+00 0.  1.
         22    1    1    0    0    0  0.19267295614E+02  0.22900926404E+02 -0.13863053472E+01  0.29960022579E+02  0.00000000000E+00 0. -1.
</event>
<event>
 5    1  0.1262391E-009  0.9118800E+02  0.7815553E-02  0.1125453E+00
         25   -1    0    0    0    0  0.00000000000E+00  0.00000000000E+00  0.99999998245E-14  0.12509000000E+03  0.12509000000E+03 0.  0.
        -13    1    3    3    0    0 -0.41749998683E+02 -0.27672922043E+02  0.15291678355E+02  0.52370789524E+02  0.10566000000E+00 0. -1.
         23    2    1    0    0    0 -0.29041477360E+02  0.86011760062E+01 -0.24474624357E+01  0.94702869364E+02  0.89695349698E+02 0.  0.
         13    1    3    3    0    0  0.12708521323E+02  0.36274098050E+02 -0.17739140790E+02  0.42332079840E+02  0.10566000000E+00 0.  1.
         22    1    1    0    0    0  0.29041477360E+02 -0.86011760062E+01  0.24474624357E+01  0.30387130636E+02  0.00000000000E+00 0. -1.
</event>
<event>
 5    1  0.1262391E-009  0.9118800E+02  0.7815553E-02  0.1125453E+00
         25   -1    0    0    0    0  0.00000000000E+00  0.00000000000E+00  0.99999998245E-14  0.12509000000E+03  0.12509000000E+03 0.  0.
        -13    1    3    3    0    0  0.26680378991E+02  0.17796536423E+02 -0.13352355156E+01  0.32099117584E+02  0.10566000000E+00 0. -1.
         23    2    1    0    0    0 -0.13768145044E+02 -0.20385426805E+02 -0.22635243903E+02  0.91661244257E+02  0.85348122347E+02 0.  0.
         13    1    3    3    0    0 -0.40448524035E+02 -0.38181963228E+02 -0.21300008388E+02  0.59562126673E+02  0.10566000000E+00 0.  1.
         22    1    1    0    0    0  0.13768145044E+02  0.20385426805E+02  0.22635243903E+02  0.33428755743E+02  0.00000000000E+00 0.  1.
</event>
<event>
 5    1  0.1262391E-009  0.9118800E+02  0.7815553E-02  0.1125453E+00
         25   -1    0    0    0    0  0.00000000000E+00  0.00000000000E+00  0.99999998245E-14  0.12509000000E+03  0.12509000000E+03 0.  0.
        -13    1    3    3    0    0  0.28147092448E+01  0.27393404363E+02 -0.23583712600E+02  0.36256362955E+02  0.10566000000E+00 0.  1.
         23    2    1    0    0    0 -0.14006295614E+02  0.91119732874E+01  0.27415016532E+02  0.92984120391E+02  0.87265452153E+02 0.  0.
         13    1    3    3    0    0 -0.16821004859E+02 -0.18281431076E+02  0.50998729132E+02  0.56727757436E+02  0.10566000000E+00 0. -1.
         22    1    1    0    0    0  0.14006295614E+02 -0.91119732874E+01 -0.27415016532E+02  0.32105879609E+02  0.00000000000E+00 0. -1.
</event>
<event>
 5    1  0.1262391E-009  0.9118800E+02  0.7815553E-02  0.1125453E+00
         25   -1    0    0    0    0  0.00000000000E+00  0.00000000000E+00  0.99999998245E-14  0.12509000000E+03  0.12509000000E+03 0.  0.
        -13    1    3    3    0    0 -0.33023869446E+02 -0.18963549123E+02  0.50686634366E+01  0.38417374475E+02  0.10566000000E+00 0. -1.
         23    2    1    0    0    0  0.12155218047E+02 -0.20605532578E+01  0.29955606455E+02  0.92696581477E+02  0.86852303677E+02 0.  0.
         13    1    3    3    0    0  0.45179087493E+02  0.16902995865E+02  0.24886943019E+02  0.54279207002E+02  0.10566000000E+00 0.  1.
         22    1    1    0    0    0 -0.12155218047E+02  0.20605532578E+01 -0.29955606455E+02  0.32393418523E+02  0.00000000000E+00 0.  1.
</event>
<event>
 5    1  0.1262391E-009  0.9118800E+02  0.7815553E-02  0.1125453E+00
         25   -1    0    0    0    0  0.00000000000E+00  0.00000000000E+00  0.99999998245E-14  0.12509000000E+03  0.12509000000E+03 0.  0.
        -13    1    3    3    0    0 -0.18412574127E+02  0.15160555377E+02 -0.41505036227E+02  0.47870079607E+02  0.10566000000E+00 0.  1.
         23    2    1    0    0    0 -0.21771893990E+02 -0.17715227579E+02 -0.59763651764E+01  0.96392237077E+02  0.92021202839E+02 0.  0.
         13    1    3    3    0    0 -0.33593198635E+01 -0.32875782955E+02  0.35528671051E+02  0.48522157470E+02  0.10566000000E+00 0. -1.
         22    1    1    0    0    0  0.21771893990E+02  0.17715227579E+02  0.59763651764E+01  0.28697762923E+02  0.00000000000E+00 0. -1.
</event>
<event>
 5    1  0.1262391E-009  0.9118800E+02  0.7815553E-02  0.1125453E+00
         25   -1    0    0    0    0  0.00000000000E+00  0.00000000000E+00  0.99999998245E-14  0.12509000000E+03  0.12509000000E+03 0.  0.
        -13    1    3    3    0    0 -0.90271517564E+01 -0.29252539804E+02 -0.19992635062E+02  0.36563878003E+02  0.10566000000E+00 0. -1.
         23    2    1    0    0    0  0.22879932382E+02  0.43253323326E+01  0.17341650685E+02  0.96056697500E+02  0.91563947493E+02 0.  0.
         13    1    3    3    0    0  0.31907084138E+02  0.33577872137E+02  0.37334285747E+02  0.59492819497E+02  0.10566000000E+00 0.  1.
         22    1    1    0    0    0 -0.22879932382E+02 -0.43253323326E+01 -0.17341650685E+02  0.29033302500E+02  0.00000000000E+00 0. -1.
</event>
<event>
 5    1  0.1262391E-009  0.9118800E+02  0.7815553E-02  0.1125453E+00
         25   -1    0    0    0    0  0.00000000000E+00  0.00000000000E+00  0.99999998245E-14  0.12509000000E+03  0.12509000000E+03 0.  0.
        -13    1    3    3    0    0  0.31461367047E+02  0.19932417291E+02 -0.27588123551E+02  0.46349051777E+02  0.10566000000E+00 0. -1.
         23    2    1    0    0    0  0.11219596496E+02  0.16908439812E+02  0.19035377399E+02  0.97266982997E+02  0.93202712977E+02 0.  0.
         13    1    3    3    0    0 -0.20241770552E+02 -0.30239774786E+01  0.46623500950E+02  0.50917931220E+02  0.10566000000E+00 0.  1.
         22    1    1    0    0    0 -0.11219596496E+02 -0.16908439812E+02 -0.19035377399E+02  0.27823017003E+02  0.00000000000E+00 0. -1.
</event>
<event>
 5    1  0.1262391E-009  0.9118800E+02  0.7815553E-02  0.1125453E+00
         25   -1    0    0    0    0  0.00000000000E+00  0.00000000000E+00  0.99999998245E-14  0.12509000000E+03  0.12509000000E+03 0.  0.
        -13    1    3    3    0    0  0.12760869867E+02 -0.24868158304E+02 -0.52002787064E+02  0.59038683282E+02  0.10566000000E+00 0. -1.
         23    2    1    0    0    0 -0.76866679987E+01 -0.17101885678E+02 -0.21687759828E+02  0.96420882730E+02  0.92060134376E+02 0.  0.
         13    1    3    3    0    0 -0.20447537865E+02  0.77662726262E+01  0.30315027236E+02  0.37382199448E+02  0.10566000000E+00 0.  1.
         22    1    1    0    0    0  0.76866679987E+01  0.17101885678E+02  0.21687759828E+02  0.28669117270E+02  0.00000000000E+00 0. -1.
</event>
<event>
 5    1  0.1262391E-009  0.9118800E+02  0.7815553E-02  0.1125453E+00
         25   -1    0    0    0    0  0.00000000000E+00  0.00000000000E+00  0.99999998245E-14  0.12509000000E+03  0.12509000000E+03 0.  0.
        -13    1    3    3    0    0  0.31585513603E+02  0.13211953414E+02 -0.11113494653E+02  0.35996129098E+02  0.10566000000E+00 0.  1.
         23    2    1    0    0    0  0.50326994313E+01 -0.15891753246E+02  0.28632242441E+02  0.91958727884E+02  0.85783019544E+02 0.  0.
         13    1    3    3    0    0 -0.26552814172E+02 -0.29103706660E+02  0.39745737094E+02  0.55962598787E+02  0.10566000000E+00 0. -1.
         22    1    1    0    0    0 -0.50326994313E+01  0.15891753246E+02 -0.28632242441E+02  0.33131272116E+02  0.00000000000E+00 0. -1.
</event>
<event>
 5    1  0.1262391E-009  0.9118800E+02  0.7815553E-02  0.1125453E+00
         25   -1    0    0    0    0  0.00000000000E+00  0.00000000000E+00  0.99999998245E-14  0.12509000000E+03  0.12509000000E+03 0.  0.
        -13    1    3    3    0    0  0.24683007051E+02  0.65738068319E+01  0.24763445871E+02  0.35576750678E+02  0.10566000000E+00 0. -1.
         23    2    1    0    0    0  0.13512174426E+02 -0.14935154046E+02 -0.26219718547E+02  0.92027765883E+02  0.85883632717E+02 0.  0.
         13    1    3    3    0    0 -0.11170832625E+02 -0.21508960878E+02 -0.50983164418E+02  0.56451015205E+02  0.10566000000E+00 0.  1.
         22    1    1    0    0    0 -0.13512174426E+02  0.14935154046E+02  0.26219718547E+02  0.33062234117E+02  0.00000000000E+00 0.  1.
</event>
<event>
 5    1  0.1262391E-009  0.9118800E+02  0.7815553E-02  0.1125453E+00
         25   -1    0    0    0    0  0.00000000000E+00  0.00000000000E+00  0.99999998245E-14  0.12509000000E+03  0.12509000000E+03 0.  0.
        -13    1    3    3    0    0 -0.59638300426E+01 -0.25885795042E+02  0.26967026032E+01  0.26700655848E+02  0.10566000000E+00 0.  1.
         23    2    1    0    0    0  0.35308280382E+02 -0.16751396339E+02 -0.26320284403E+02  0.77972685626E+02  0.62126470927E+02 0.  0.
         13    1    3    3    0    0  0.41272110424E+02  0.91343987037E+01 -0.29016987006E+02  0.51272029778E+02  0.10566000000E+00 0. -1.
         22    1    1    0    0    0 -0.35308280382E+02  0.16751396339E+02  0.26320284403E+02  0.47117314374E+02  0.00000000000E+00 0. -1.
</event>
<event>
 5    1  0.1262391E-009  0.9118800E+02  0.7815553E-02  0.1125453E+00
         25   -1    0    0    0    0  0.00000000000E+00  0.00000000000E+00  0.99999998245E-14  0.12509000000E+03  0.12509000000E+03 0.  0.
        -13    1    3    3    0    0 -0.26714768759E+02  0.39875745471E+01  0.25650105320E+02  0.37249411909E+02  0.10566000000E+00 0. -1.
         23    2    1    0    0    0 -0.49520715763E+01 -0.10491080142E+02 -0.26819170534E+02  0.95869225137E+02  0.91307473105E+02 0.  0.
         13    1    3    3    0    0  0.21762697182E+02 -0.14478654689E+02 -0.52469275854E+02  0.58619813228E+02  0.10566000000E+00 0.  1.
         22    1    1    0    0    0  0.49520715763E+01  0.10491080142E+02  0.26819170534E+02  0.29220774863E+02  0.00000000000E+00 0.  1.
</event>
<event>
 5    1  0.1262391E-009  0.9118800E+02  0.7815553E-02  0.1125453E+00
         25   -1    0    0    0    0  0.00000000000E+00  0.00000000000E+00  0.99999998245E-14  0.12509000000E+03  0.12509000000E+03 0.  0.
        -13    1    3    3    0    0 -0.24091413950E+02 -0.29272904782E+02  0.49174184829E+02  0.62091954374E+02  0.10566000000E+00 0.  1.
         23    2    1    0    0    0 -0.73932025868E+01 -0.17250509151E+02  0.22149805208E+02  0.96058062737E+02  0.91565812592E+02 0.  0.
         13    1    3    3    0    0  0.16698211363E+02  0.12022395630E+02 -0.27024379620E+02  0.33966108363E+02  0.10566000000E+00 0. -1.
         22    1    1    0    0    0  0.73932025868E+01  0.17250509151E+02 -0.22149805208E+02  0.29031937263E+02  0.00000000000E+00 0.  1.
</event>
<event>
 5    1  0.1262391E-009  0.9118800E+02  0.7815553E-02  0.1125453E+00
         25   -1    0    0    0    0  0.00000000000E+00  0.00000000000E+00  0.99999998245E-14  0.12509000000E+03  0.12509000000E+03 0.  0.
        -13    1    3    3    0    0  0.27379960498E+02 -0.22474073580E+02  0.17021858381E+02  0.39300140546E+02  0.10566000000E+00 0.  1.
         23    2    1    0    0    0 -0.27290681234E+01  0.24180832236E+02  0.17977325698E+02  0.94835335901E+02  0.89879898953E+02 0.  0.
         13    1    3    3    0    0 -0.30109028621E+02  0.46654905817E+02  0.95546731695E+00  0.55535195355E+02  0.10566000000E+00 0. -1.
         22    1    1    0    0    0  0.27290681234E+01 -0.24180832236E+02 -0.17977325698E+02  0.30254664099E+02  0.00000000000E+00 0. -1.
</event>
<event>
 5    1  0.1262391E-009  0.9118800E+02  0.7815553E-02  0.1125453E+00
         25   -1    0    0    0    0  0.00000000000E+00  0.00000000000E+00  0.99999998245E-14  0.12509000000E+03  0.12509000000E+03 0.  0.
        -13    1    3    3    0    0 -0.16918878073E+02  0.10975448961E+02  0.41541931595E+02  0.46178481568E+02  0.10566000000E+00 0.  1.
         23    2    1    0    0    0 -0.71968944962E+01  0.28100628553E+02 -0.40115887242E+01  0.95806327766E+02  0.91221263861E+02 0.  0.
         13    1    3    3    0    0  0.97219835771E+01  0.17125179591E+02 -0.45553520320E+02  0.49627846198E+02  0.10566000000E+00 0. -1.
         22    1    1    0    0    0  0.71968944962E+01 -0.28100628553E+02  0.40115887242E+01  0.29283672234E+02  0.00000000000E+00 0. -1.
</event>
<event>
 5    1  0.1262391E-009  0.9118800E+02  0.7815553E-02  0.1125453E+00
         25   -1    0    0    0    0  0.00000000000E+00  0.00000000000E+00  0.99999998245E-14  0.12509000000E+03  0.12509000000E+03 0.  0.
        -13    1    3    3    0    0 -0.18141339804E+02  0.23429285718E+02  0.84552210331E+01  0.30814632334E+02  0.10566000000E+00 0.  1.
         23    2    1    0    0    0  0.28664705296E+02 -0.15691463953E+02 -0.83238928767E-01  0.92411347955E+02  0.86440516724E+02 0.  0.
         13    1    3    3    0    0  0.46806045100E+02 -0.39120749672E+02 -0.85384599619E+01  0.61596715621E+02  0.10566000000E+00 0. -1.
         22    1    1    0    0    0 -0.28664705296E+02  0.15691463953E+02  0.83238928767E-01  0.32678652045E+02  0.00000000000E+00 0. -1.
</event>
<event>
 5    1  0.1262391E-009  0.9118800E+02  0.7815553E-02  0.1125453E+00
         25   -1    0    0    0    0  0.00000000000E+00  0.00000000000E+00  0.99999998245E-14  0.12509000000E+03  0.12509000000E+03 0.  0.
        -13    1    3    3    0    0  0.32939410443E+02  0.31432503910E+02  0.29617603979E+02  0.54315934052E+02  0.10566000000E+00 0. -1.
         23    2    1    0    0    0  0.69129265251E+01 -0.82782789549E+00  0.28468984456E+02  0.95782033026E+02  0.91187942857E+02 0.  0.
         13    1    3    3    0    0 -0.26026483918E+02 -0.32260331806E+02 -0.11486195230E+01  0.41466098975E+02  0.10566000000E+00 0.  1.
         22    1    1    0    0    0 -0.69129265251E+01  0.82782789549E+00 -0.28468984456E+02  0.29307966974E+02  0.00000000000E+00 0. -1.
</event>
<event>
 5    1  0.1262391E-009  0.9118800E+02  0.7815553E-02  0.1125453E+00
         25   -1    0    0    0    0  0.00000000000E+00  0.00000000000E+00  0.99999998245E-14  0.12509000000E+03  0.12509000000E+03 0.  0.
        -13    1    3    3    0    0 -0.36877185481E+01 -0.30767381354E+02  0.43911068589E+02  0.53744061366E+02  0.10566000000E+00 0. -1.
         23    2    1    0    0    0 -0.23678088221E+02 -0.62359464398E+01  0.17039705606E+02  0.95258968222E+02  0.90467566397E+02 0.  0.
         13    1    3    3    0    0 -0.19990369673E+02  0.24531434915E+02 -0.26871362983E+02  0.41514906855E+02  0.10566000000E+00 0.  1.
         22    1    1    0    0    0  0.23678088221E+02  0.62359464398E+01 -0.17039705606E+02  0.29831031778E+02  0.00000000000E+00 0. -1.
</event>
<event>
 5    1  0.1262391E-009  0.9118800E+02  0.7815553E-02  0.1125453E+00
         25   -1    0    0    0    0  0.00000000000E+00  0.00000000000E+00  0.99999998245E-14  0.12509000000E+03  0.12509000000E+03 0.  0.
        -13    1    3    3    0    0  0.28505434441E+02 -0.23792431979E+02 -0.41117713182E+02  0.55401417974E+02  0.10566000000E+00 0.  1.
         23    2    1    0    0    0  0.21207646435E+02  0.86611363768E+01 -0.14807301441E+02  0.97812981713E+02  0.93932654945E+02 0.  0.
         13    1    3    3    0    0 -0.72977880064E+01  0.32453568356E+02  0.26310411741E+02  0.42411563739E+02  0.10566000000E+00 0. -1.
         22    1    1    0    0    0 -0.21207646435E+02 -0.86611363768E+01  0.14807301441E+02  0.27277018287E+02  0.00000000000E+00 0.  1.
</event>
<event>
 5    1  0.1262391E-009  0.9118800E+02  0.7815553E-02  0.1125453E+00
         25   -1    0    0    0    0  0.00000000000E+00  0.00000000000E+00  0.99999998245E-14  0.12509000000E+03  0.12509000000E+03 0.  0.
        -13    1    3    3    0    0  0.61157585280E+02  0.88592563040E+01 -0.26894859654E+01  0.61854516071E+02  0.10566000000E+00 0. -1.
         23    2    1    0    0    0  0.27320001211E+02  0.96923590075E+01 -0.45171067528E+01  0.95751824482E+02  0.91146493892E+02 0.  0.
         13    1    3    3    0    0 -0.33837584069E+02  0.83310270355E+00 -0.18276207874E+01  0.33897308411E+02  0.10566000000E+00 0.  1.
         22    1    1    0    0    0 -0.27320001211E+02 -0.96923590075E+01  0.45171067528E+01  0.29338175518E+02  0.00000000000E+00 0. -1.
</event>
<event>
 5    1  0.1262391E-009  0.9118800E+02  0.7815553E-02  0.1125453E+00
         25   -1    0    0    0    0  0.00000000000E+00  0.00000000000E+00  0.99999998245E-14  0.12509000000E+03  0.12509000000E+03 0.  0.
        -13    1    3    3    0    0 -0.24143306390E+02 -0.26565280403E+02  0.56852942862E+01  0.36344835967E+02  0.10566000000E+00 0.  1.
         23    2    1    0    0    0  0.26389413017E+02 -0.82681706622E+00 -0.12471001474E+02  0.95890503025E+02  0.91336618871E+02 0.  0.
         13    1    3    3    0    0  0.50532719407E+02  0.25738463336E+02 -0.18156295760E+02  0.59545667058E+02  0.10566000000E+00 0. -1.
         22    1    1    0    0    0 -0.26389413017E+02  0.82681706622E+00  0.12471001474E+02  0.29199496975E+02  0.00000000000E+00 0. -1.
</event>
<event>
 5    1  0.1262391E-009  0.9118800E+02  0.7815553E-02  0.1125453E+00
         25   -1    0    0    0    0  0.00000000000E+00  0.00000000000E+00  0.99999998245E-14  0.12509000000E+03  0.12509000000E+03 0.  0.
        -13    1    3    3    0    0 -0.67888707105E+01  0.56031265378E+02 -0.12218809396E+02  0.57748609788E+02  0.10566000000E+00 0.  1.
         23    2    1    0    0    0  0.26223317288E+00  0.20705148649E+02 -0.21799081425E+02  0.95023874580E+02  0.90141915014E+02 0.  0.
         13    1    3    3    0    0  0.70511038834E+01 -0.35326116729E+02 -0.95802720289E+01  0.37275264792E+02  0.10566000000E+00 0. -1.
         22    1    1    0    0    0 -0.26223317288E+00 -0.20705148649E+02  0.21799081425E+02  0.30066125420E+02  0.00000000000E+00 0.  1.
</event>
<event>
 5    1  0.1262391E-009  0.9118800E+02  0.7815553E-02  0.1125453E+00
         25   -1    0    0    0    0  0.00000000000E+00  0.00000000000E+00  0.99999998245E-14  0.12509000000E+03  0.12509000000E+03 0.  0.
        -13    1    3    3    0    0 -0.22185250913E+02  0.17753290093E+02  0.27022940190E+02  0.39212435881E+02  0.10566000000E+00 0. -1.
         23    2    1    0    0    0 -0.80234069834E+01 -0.25001912026E+02 -0.94659618817E+01  0.97178083210E+02  0.93083321585E+02 0.  0.
         13    1    3    3    0    0  0.14161843929E+02 -0.42755202119E+02 -0.36488902072E+02  0.57965647328E+02  0.10566000000E+00 0.  1.
         22    1    1    0    0    0  0.80234069834E+01  0.25001912026E+02  0.94659618817E+01  0.27911916790E+02  0.00000000000E+00 0. -1.
</event>
<event>
 5    1  0.1262391E-009  0.9118800E+02  0.7815553E-02  0.1125453E+00
         25   -1    0    0    0    0  0.00000000000E+00  0.00000000000E+00  0.99999998245E-14  0.12509000000E+03  0.12509000000E+03 0.  0.
        -13    1    3    3    0    0  0.13031249132E+02  0.27827571969E+02 -0.40704606836E+02  0.51000621538E+02  0.10566000000E+00 0.  1.
         23    2    1    0    0    0 -0.16379000963E+02  0.20230613451E+02 -0.38226386715E+01  0.98781028915E+02  0.95213075331E+02 0.  0.
         13    1    3    3    0    0 -0.29410250095E+02 -0.75969585183E+01  0.36881968164E+02  0.47780407376E+02  0.10566000000E+00 0. -1.
         22    1    1    0    0    0  0.16379000963E+02 -0.20230613451E+02  0.38226386715E+01  0.26308971085E+02  0.00000000000E+00 0. -1.
</event>
<event>
 5    1  0.1262391E-009  0.9118800E+02  0.7815553E-02  0.1125453E+00
         25   -1    0    0    0    0  0.00000000000E+00  0.00000000000E+00  0.99999998245E-14  0.12509000000E+03  0.12509000000E+03 0.  0.
        -13    1    3    3    0    0  0.40367815305E+01  0.32819782015E+02 -0.22046938417E+01  0.33140693047E+02  0.10566000000E+00 0. -1.
         23    2    1    0    0    0  0.31440252904E+01 -0.28775631385E+02 -0.81193859190E+01  0.95025963605E+02  0.90144813909E+02 0.  0.
         13    1    3    3    0    0 -0.89275624013E+00 -0.61595413400E+02 -0.59146920773E+01  0.61885270558E+02  0.10566000000E+00 0.  1.
         22    1    1    0    0    0 -0.31440252904E+01  0.28775631385E+02  0.81193859190E+01  0.30064036395E+02  0.00000000000E+00 0. -1.
</event>
<event>
 5    1  0.1262391E-009  0.9118800E+02  0.7815553E-02  0.1125453E+00
         25   -1    0    0    0    0  0.00000000000E+00  0.00000000000E+00  0.99999998245E-14  0.12509000000E+03  0.12509000000E+03 0.  0.
        -13    1    3    3    0    0 -0.21610187458E+02  0.32872048823E+02  0.14831570761E+02  0.42042341170E+02  0.10566000000E+00 0.  1.
         23    2    1    0    0    0  0.10691709732E+02  0.19072816147E+01  0.33009229892E+02  0.90340041177E+02  0.83389228330E+02 0.  0.
         13    1    3    3    0    0  0.32301897190E+02 -0.30964767208E+02  0.18177659132E+02  0.48297700006E+02  0.10566000000E+00 0. -1.
         22    1    1    0    0    0 -0.10691709732E+02 -0.19072816147E+01 -0.33009229892E+02  0.34749958823E+02  0.00000000000E+00 0. -1.
</event>
<event>
 5    1  0.1262391E-009  0.9118800E+02  0.7815553E-02  0.1125453E+00
         25   -1    0    0    0    0  0.00000000000E+00  0.00000000000E+00  0.99999998245E-14  0.12509000000E+03  0.12509000000E+03 0.  0.
        -13    1    3    3    0    0  0.21895289654E+02 -0.15698921773E+02  0.19262531200E+02  0.33119724125E+02  0.10566000000E+00 0.  1.
         23    2    1    0    0    0 -0.32925916653E+02 -0.92606788244E-01  0.65862203902E+01  0.91511690595E+02  0.85128647664E+02 0.  0.
         13    1    3    3    0    0 -0.54821206307E+02  0.15606314985E+02 -0.12676310810E+02  0.58391966469E+02  0.10566000000E+00 0. -1.
         22    1    1    0    0    0  0.32925916653E+02  0.92606788244E-01 -0.65862203902E+01  0.33578309405E+02  0.00000000000E+00 0. -1.
</event>
<event>
 5    1  0.1262391E-009  0.9118800E+02  0.7815553E-02  0.1125453E+00
         25   -1    0    0    0    0  0.00000000000E+00  0.00000000000E+00  0.99999998245E-14  0.12509000000E+03  0.12509000000E+03 0.  0.
        -13    1    3    3    0    0 -0.38641223506E+02 -0.33750249785E+02  0.19666955098E+02  0.54945644063E+02  0.10566000000E+00 0. -1.
         23    2    1    0    0    0 -0.23521002781E+02 -0.20107922597E+02 -0.11416641982E+02  0.92106582391E+02  0.85998352790E+02 0.  0.
         13    1    3    3    0    0  0.15120220725E+02  0.13642327188E+02 -0.31083597081E+02  0.37160938328E+02  0.10566000000E+00 0.  1.
         22    1    1    0    0    0  0.23521002781E+02  0.20107922597E+02  0.11416641982E+02  0.32983417609E+02  0.00000000000E+00 0. -1.
</event>
<event>
 5    1  0.1262391E-009  0.9118800E+02  0.7815553E-02  0.1125453E+00
         25   -1    0    0    0    0  0.00000000000E+00  0.00000000000E+00  0.99999998245E-14  0.12509000000E+03  0.12509000000E+03 0.  0.
        -13    1    3    3    0    0  0.51318708982E+02  0.11253170576E+02 -0.38333864204E+01  0.52677791859E+02  0.10566000000E+00 0.  1.
         23    2    1    0    0    0  0.14159188178E+02 -0.19428458141E+02 -0.28910214862E+01  0.10087625182E+03  0.97927077873E+02 0.  0.
         13    1    3    3    0    0 -0.37159520804E+02 -0.30681628717E+02  0.94236493421E+00  0.48198459963E+02  0.10566000000E+00 0. -1.
         22    1    1    0    0    0 -0.14159188178E+02  0.19428458141E+02  0.28910214862E+01  0.24213748178E+02  0.00000000000E+00 0.  1.
</event>
<event>
 5    1  0.1262391E-009  0.9118800E+02  0.7815553E-02  0.1125453E+00
         25   -1    0    0    0    0  0.00000000000E+00  0.00000000000E+00  0.99999998245E-14  0.12509000000E+03  0.12509000000E+03 0.  0.
        -13    1    3    3    0    0 -0.49295633100E+02  0.36911960024E+01  0.15228046386E+02  0.51726095265E+02  0.10566000000E+00 0.  1.
         23    2    1    0    0    0 -0.19164218266E+02  0.13783172678E+02 -0.16231964444E+02  0.96441792717E+02  0.92088542186E+02 0.  0.
         13    1    3    3    0    0  0.30131414834E+02  0.10091976675E+02 -0.31460010830E+02  0.44715697452E+02  0.10566000000E+00 0. -1.
         22    1    1    0    0    0  0.19164218266E+02 -0.13783172678E+02  0.16231964444E+02  0.28648207283E+02  0.00000000000E+00 0.  1.
</event>
<event>
 5    1  0.1262391E-009  0.9118800E+02  0.7815553E-02  0.1125453E+00
         25   -1    0    0    0    0  0.00000000000E+00  0.00000000000E+00  0.99999998245E-14  0.12509000000E+03  0.12509000000E+03 0.  0.
        -13    1    3    3    0    0  0.43357781137E+02  0.20166034697E+02 -0.37832942808E+02  0.60974657572E+02  0.10566000000E+00 0.  1.
         23    2    1    0    0    0  0.24817279452E+02  0.81718166046E+00 -0.15891500161E+02  0.95609414480E+02  0.90950839548E+02 0.  0.
         13    1    3    3    0    0 -0.18540501685E+02 -0.19348853036E+02  0.21941442647E+02  0.34634756907E+02  0.10566000000E+00 0. -1.
         22    1    1    0    0    0 -0.24817279452E+02 -0.81718166046E+00  0.15891500161E+02  0.29480585520E+02  0.00000000000E+00 0.  1.
</event>
<event>
 5    1  0.1262391E-009  0.9118800E+02  0.7815553E-02  0.1125453E+00
         25   -1    0    0    0    0  0.00000000000E+00  0.00000000000E+00  0.99999998245E-14  0.12509000000E+03  0.12509000000E+03 0.  0.
        -13    1    3    3    0    0 -0.26395728538E+02  0.43936786732E+02  0.26227980419E+02  0.57576851549E+02  0.10566000000E+00 0. -1.
         23    2    1    0    0    0 -0.20808686037E+02  0.22767315763E+02 -0.30049718483E+01  0.94099970355E+02  0.88850562650E+02 0.  0.
         13    1    3    3    0    0  0.55870425011E+01 -0.21169470969E+02 -0.29232952267E+02  0.36523118806E+02  0.10566000000E+00 0.  1.
         22    1    1    0    0    0  0.20808686037E+02 -0.22767315763E+02  0.30049718483E+01  0.30990029645E+02  0.00000000000E+00 0.  1.
</event>
<event>
 5    1  0.1262391E-009  0.9118800E+02  0.7815553E-02  0.1125453E+00
         25   -1    0    0    0    0  0.00000000000E+00  0.00000000000E+00  0.99999998245E-14  0.12509000000E+03  0.12509000000E+03 0.  0.
        -13    1    3    3    0    0 -0.13144585718E+02 -0.60435199954E+01  0.48620662905E+02  0.50727549645E+02  0.10566000000E+00 0.  1.
         23    2    1    0    0    0 -0.26744910649E+02 -0.12757745374E+02  0.75473158531E+01  0.94512029347E+02  0.89428806333E+02 0.  0.
         13    1    3    3    0    0 -0.13600324931E+02 -0.67142253787E+01 -0.41073347052E+02  0.43784479702E+02  0.10566000000E+00 0. -1.
         22    1    1    0    0    0  0.26744910649E+02  0.12757745374E+02 -0.75473158531E+01  0.30577970653E+02  0.00000000000E+00 0.  1.
</event>
<event>
 5    1  0.1262391E-009  0.9118800E+02  0.7815553E-02  0.1125453E+00
         25   -1    0    0    0    0  0.00000000000E+00  0.00000000000E+00  0.99999998245E-14  0.12509000000E+03  0.12509000000E+03 0.  0.
        -13    1    3    3    0    0 -0.29377151855E+02 -0.34489201408E+02  0.39685190253E+02  0.60228295296E+02  0.10566000000E+00 0.  1.
         23    2    1    0    0    0 -0.67858294995E+01 -0.87608973230E+01  0.25493553124E+02  0.97292121398E+02  0.93236445832E+02 0.  0.
         13    1    3    3    0    0  0.22591322356E+02  0.25728304085E+02 -0.14191637129E+02  0.37063826102E+02  0.10566000000E+00 0. -1.
         22    1    1    0    0    0  0.67858294995E+01  0.87608973230E+01 -0.25493553124E+02  0.27797878602E+02  0.00000000000E+00 0. -1.
</event>
<event>
 5    1  0.1262391E-009  0.9118800E+02  0.7815553E-02  0.1125453E+00
         25   -1    0    0    0    0  0.00000000000E+00  0.00000000000E+00  0.99999998245E-14  0.12509000000E+03  0.12509000000E+03 0.  0.
        -13    1    3    3    0    0  0.45741126848E+02 -0.24582882774E+02  0.24210195472E+02  0.57294969584E+02  0.10566000000E+00 0. -1.
         23    2    1    0    0    0  0.25801927376E+02 -0.13485046208E+02 -0.62087123700E+01  0.95321996425E+02  0.90554673903E+02 0.  0.
         13    1    3    3    0    0 -0.19939199472E+02  0.11097836566E+02 -0.30418907842E+02  0.38027026841E+02  0.10566000000E+00 0.  1.
         22    1    1    0    0    0 -0.25801927376E+02  0.13485046208E+02  0.62087123700E+01  0.29768003575E+02  0.00000000000E+00 0. -1.
</event>
<event>
 5    1  0.1262391E-009  0.9118800E+02  0.7815553E-02  0.1125453E+00
         25   -1    0    0    0    0  0.00000000000E+00  0.00000000000E+00  0.99999998245E-14  0.12509000000E+03  0.12509000000E+03 0.  0.
        -13    1    3    3    0    0 -0.40001143258E+02 -0.21899744518E+02 -0.22769482349E+02  0.50972058644E+02  0.10566000000E+00 0. -1.
         23    2    1    0    0    0 -0.56605296393E+01  0.69931295924E+01 -0.27553416033E+02  0.96104897061E+02  0.91629771617E+02 0.  0.
         13    1    3    3    0    0  0.34340613618E+02  0.28892874111E+02 -0.47839336842E+01  0.45132838417E+02  0.10566000000E+00 0.  1.
         22    1    1    0    0    0  0.56605296393E+01 -0.69931295924E+01  0.27553416033E+02  0.28985102939E+02  0.00000000000E+00 0. -1.
</event>
<event>
 5    1  0.1262391E-009  0.9118800E+02  0.7815553E-02  0.1125453E+00
         25   -1    0    0    0    0  0.00000000000E+00  0.00000000000E+00  0.99999998245E-14  0.12509000000E+03  0.12509000000E+03 0.  0.
        -13    1    3    3    0    0  0.34405343260E+02 -0.24547298641E+02 -0.42027124786E+02  0.59603589633E+02  0.10566000000E+00 0. -1.
         23    2    1    0    0    0  0.23408881043E+02 -0.15203364870E+02 -0.88098419608E+01  0.95820026812E+02  0.91240047171E+02 0.  0.
         13    1    3    3    0    0 -0.10996462217E+02  0.93439337704E+01  0.33217282825E+02  0.36216437178E+02  0.10566000000E+00 0.  1.
         22    1    1    0    0    0 -0.23408881043E+02  0.15203364870E+02  0.88098419608E+01  0.29269973188E+02  0.00000000000E+00 0. -1.
</event>
<event>
 5    1  0.1262391E-009  0.9118800E+02  0.7815553E-02  0.1125453E+00
         25   -1    0    0    0    0  0.00000000000E+00  0.00000000000E+00  0.99999998245E-14  0.12509000000E+03  0.12509000000E+03 0.  0.
        -13    1    3    3    0    0 -0.29904978547E+02  0.73333226500E+01  0.12795465306E+02  0.33343971860E+02  0.10566000000E+00 0. -1.
         23    2    1    0    0    0  0.30024716771E+02 -0.23012561817E+01  0.30069504154E+01  0.94827462962E+02  0.89868941152E+02 0.  0.
         13    1    3    3    0    0  0.59929695318E+02 -0.96345788317E+01 -0.97885148905E+01  0.61483491101E+02  0.10566000000E+00 0.  1.
         22    1    1    0    0    0 -0.30024716771E+02  0.23012561817E+01 -0.30069504154E+01  0.30262537038E+02  0.00000000000E+00 0.  1.
</event>
<event>
 5    1  0.1262391E-009  0.9118800E+02  0.7815553E-02  0.1125453E+00
         25   -1    0    0    0    0  0.00000000000E+00  0.00000000000E+00  0.99999998245E-14  0.12509000000E+03  0.12509000000E+03 0.  0.
        -13    1    3    3    0    0 -0.39688463969E+02  0.23370716852E+02 -0.95739003692E+01  0.47042909250E+02  0.10566000000E+00 0. -1.
         23    2    1    0    0    0 -0.17916837357E+02  0.71321018053E+01  0.26573070958E+02  0.92256967286E+02  0.86216819564E+02 0.  0.
         13    1    3    3    0    0  0.21771626612E+02 -0.16238615047E+02  0.36146971327E+02  0.45214058037E+02  0.10566000000E+00 0.  1.
         22    1    1    0    0    0  0.17916837357E+02 -0.71321018053E+01 -0.26573070958E+02  0.32833032714E+02  0.00000000000E+00 0. -1.
</event>
<event>
 5    1  0.1262391E-009  0.9118800E+02  0.7815553E-02  0.1125453E+00
         25   -1    0    0    0    0  0.00000000000E+00  0.00000000000E+00  0.99999998245E-14  0.12509000000E+03  0.12509000000E+03 0.  0.
        -13    1    3    3    0    0 -0.23109367926E+01 -0.24853861414E+02  0.23533666963E+02  0.34305968880E+02  0.10566000000E+00 0.  1.
         23    2    1    0    0    0  0.15033025480E+02  0.13819449974E+02 -0.21009493664E+02  0.95792084090E+02  0.91201729685E+02 0.  0.
         13    1    3    3    0    0  0.17343962273E+02  0.38673311387E+02 -0.44543160627E+02  0.61486115210E+02  0.10566000000E+00 0. -1.
         22    1    1    0    0    0 -0.15033025480E+02 -0.13819449974E+02  0.21009493664E+02  0.29297915910E+02  0.00000000000E+00 0. -1.
</event>
<event>
 5    1  0.1262391E-009  0.9118800E+02  0.7815553E-02  0.1125453E+00
         25   -1    0    0    0    0  0.00000000000E+00  0.00000000000E+00  0.99999998245E-14  0.12509000000E+03  0.12509000000E+03 0.  0.
        -13    1    3    3    0    0  0.13712183250E+01  0.34794994510E+00  0.56195568679E+02  0.56213471802E+02  0.10566000000E+00 0.  1.
         23    2    1    0    0    0  0.18031974441E+02  0.89798312922E+01  0.21707793488E+02  0.95475514180E+02  0.90766491821E+02 0.  0.
         13    1    3    3    0    0  0.16660756116E+02  0.86318813471E+01 -0.34487775192E+02  0.39262042378E+02  0.10566000000E+00 0. -1.
         22    1    1    0    0    0 -0.18031974441E+02 -0.89798312922E+01 -0.21707793488E+02  0.29614485820E+02  0.00000000000E+00 0.  1.
</event>
<event>
 5    1  0.1262391E-009  0.9118800E+02  0.7815553E-02  0.1125453E+00
         25   -1    0    0    0    0  0.00000000000E+00  0.00000000000E+00  0.99999998245E-14  0.12509000000E+03  0.12509000000E+03 0.  0.
        -13    1    3    3    0    0  0.29749627517E+02  0.49999846731E+02  0.15271129250E+02  0.60151837571E+02  0.10566000000E+00 0.  1.
         23    2    1    0    0    0  0.20939341679E+01  0.26687844200E+02  0.89026473657E+01  0.96878606585E+02  0.92679996198E+02 0.  0.
         13    1    3    3    0    0 -0.27655693350E+02 -0.23312002531E+02 -0.63684818842E+01  0.36726769014E+02  0.10566000000E+00 0. -1.
         22    1    1    0    0    0 -0.20939341679E+01 -0.26687844200E+02 -0.89026473657E+01  0.28211393415E+02  0.00000000000E+00 0.  1.
</event>
<event>
 5    1  0.1262391E-009  0.9118800E+02  0.7815553E-02  0.1125453E+00
         25   -1    0    0    0    0  0.00000000000E+00  0.00000000000E+00  0.99999998245E-14  0.12509000000E+03  0.12509000000E+03 0.  0.
        -13    1    3    3    0    0 -0.10628667283E+02 -0.17597661718E+02  0.33559867870E+02  0.39356348429E+02  0.10566000000E+00 0.  1.
         23    2    1    0    0    0 -0.96374240334E+01 -0.16566073361E+02 -0.22556379762E+02  0.95490929126E+02  0.90787733471E+02 0.  0.
         13    1    3    3    0    0  0.99124324990E+00  0.10315883567E+01 -0.56116247632E+02  0.56134580698E+02  0.10566000000E+00 0. -1.
         22    1    1    0    0    0  0.96374240334E+01  0.16566073361E+02  0.22556379762E+02  0.29599070874E+02  0.00000000000E+00 0. -1.
</event>
<event>
 5    1  0.1262391E-009  0.9118800E+02  0.7815553E-02  0.1125453E+00
         25   -1    0    0    0    0  0.00000000000E+00  0.00000000000E+00  0.99999998245E-14  0.12509000000E+03  0.12509000000E+03 0.  0.
        -13    1    3    3    0    0 -0.21405684343E+02 -0.33273226122E+02  0.40031900663E+01  0.39766161413E+02  0.10566000000E+00 0. -1.
         23    2    1    0    0    0  0.23905393978E+01  0.49612628042E+01 -0.28982365149E+02  0.95589045831E+02  0.90922821041E+02 0.  0.
         13    1    3    3    0    0  0.23796223741E+02  0.38234488927E+02 -0.32985555216E+02  0.55822884418E+02  0.10566000000E+00 0.  1.
         22    1    1    0    0    0 -0.23905393978E+01 -0.49612628042E+01  0.28982365149E+02  0.29500954169E+02  0.00000000000E+00 0.  1.
</event>
<event>
 5    1  0.1262391E-009  0.9118800E+02  0.7815553E-02  0.1125453E+00
         25   -1    0    0    0    0  0.00000000000E+00  0.00000000000E+00  0.99999998245E-14  0.12509000000E+03  0.12509000000E+03 0.  0.
        -13    1    3    3    0    0 -0.38390767562E+02  0.13650758486E+02  0.22295893931E+02  0.46446876014E+02  0.10566000000E+00 0. -1.
         23    2    1    0    0    0 -0.25352129971E+02 -0.24137975525E+02  0.14630595550E+02  0.87150222949E+02  0.78458490155E+02 0.  0.
         13    1    3    3    0    0  0.13038637591E+02 -0.37788734011E+02 -0.76652983812E+01  0.40703346935E+02  0.10566000000E+00 0.  1.
         22    1    1    0    0    0  0.25352129971E+02  0.24137975525E+02 -0.14630595550E+02  0.37939777051E+02  0.00000000000E+00 0. -1.
</event>
<event>
 5    1  0.1262391E-009  0.9118800E+02  0.7815553E-02  0.1125453E+00
         25   -1    0    0    0    0  0.00000000000E+00  0.00000000000E+00  0.99999998245E-14  0.12509000000E+03  0.12509000000E+03 0.  0.
        -13    1    3    3    0    0  0.60714672804E+02 -0.20142590603E+01  0.58366473229E+01  0.61027914509E+02  0.10566000000E+00 0.  1.
         23    2    1    0    0    0  0.23554756900E+02 -0.84680143634E+01  0.80158856123E+01  0.98807148899E+02  0.95247385326E+02 0.  0.
         13    1    3    3    0    0 -0.37159915904E+02 -0.64537553031E+01  0.21792382894E+01  0.37779234390E+02  0.10566000000E+00 0. -1.
         22    1    1    0    0    0 -0.23554756900E+02  0.84680143634E+01 -0.80158856123E+01  0.26282851101E+02  0.00000000000E+00 0.  1.
</event>
<event>
 5    1  0.1262391E-009  0.9118800E+02  0.7815553E-02  0.1125453E+00
         25   -1    0    0    0    0  0.00000000000E+00  0.00000000000E+00  0.99999998245E-14  0.12509000000E+03  0.12509000000E+03 0.  0.
        -13    1    3    3    0    0  0.45879105943E+02 -0.12926617540E+02 -0.11685377453E+02  0.49076970295E+02  0.10566000000E+00 0. -1.
         23    2    1    0    0    0  0.20212213257E+02  0.22999764192E+02 -0.12557604850E+01  0.94445267140E+02  0.89335372799E+02 0.  0.
         13    1    3    3    0    0 -0.25666892685E+02  0.35926381732E+02  0.10429616968E+02  0.45368296845E+02  0.10566000000E+00 0.  1.
         22    1    1    0    0    0 -0.20212213257E+02 -0.22999764192E+02  0.12557604850E+01  0.30644732860E+02  0.00000000000E+00 0.  1.
</event>
<event>
 5    1  0.1262391E-009  0.9118800E+02  0.7815553E-02  0.1125453E+00
         25   -1    0    0    0    0  0.00000000000E+00  0.00000000000E+00  0.99999998245E-14  0.12509000000E+03  0.12509000000E+03 0.  0.
        -13    1    3    3    0    0 -0.34790338428E+02 -0.12158742031E+02 -0.35956524926E+02  0.51488692977E+02  0.10566000000E+00 0.  1.
         23    2    1    0    0    0 -0.12068330122E+02 -0.26108861131E+02  0.92646409748E-01  0.96326728196E+02  0.91932109516E+02 0.  0.
         13    1    3    3    0    0  0.22722008306E+02 -0.13950119100E+02  0.36049171335E+02  0.44838035219E+02  0.10566000000E+00 0. -1.
         22    1    1    0    0    0  0.12068330122E+02  0.26108861131E+02 -0.92646409748E-01  0.28763271804E+02  0.00000000000E+00 0.  1.
</event>
<event>
 5    1  0.1262391E-009  0.9118800E+02  0.7815553E-02  0.1125453E+00
         25   -1    0    0    0    0  0.00000000000E+00  0.00000000000E+00  0.99999998245E-14  0.12509000000E+03  0.12509000000E+03 0.  0.
        -13    1    3    3    0    0 -0.23446675685E+02  0.87653748118E+01  0.20267109527E+02  0.32207845145E+02  0.10566000000E+00 0.  1.
         23    2    1    0    0    0  0.20096289362E+02  0.46204353288E+01 -0.23322230090E+02  0.93959055827E+02  0.88651951398E+02 0.  0.
         13    1    3    3    0    0  0.43542965047E+02 -0.41449394830E+01 -0.43589339617E+02  0.61751210682E+02  0.10566000000E+00 0. -1.
         22    1    1    0    0    0 -0.20096289362E+02 -0.46204353288E+01  0.23322230090E+02  0.31130944173E+02  0.00000000000E+00 0. -1.
</event>
<event>
 5    1  0.1262391E-009  0.9118800E+02  0.7815553E-02  0.1125453E+00
         25   -1    0    0    0    0  0.00000000000E+00  0.00000000000E+00  0.99999998245E-14  0.12509000000E+03  0.12509000000E+03 0.  0.
        -13    1    3    3    0    0  0.44913617408E+02 -0.35049028244E+02 -0.25534661142E+02  0.62431542454E+02  0.10566000000E+00 0. -1.
         23    2    1    0    0    0  0.17757256703E+02 -0.17069613267E+02 -0.11803291742E+02  0.97776824449E+02  0.93884492014E+02 0.  0.
         13    1    3    3    0    0 -0.27156360705E+02  0.17979414977E+02  0.13731369400E+02  0.35345281995E+02  0.10566000000E+00 0.  1.
         22    1    1    0    0    0 -0.17757256703E+02  0.17069613267E+02  0.11803291742E+02  0.27313175551E+02  0.00000000000E+00 0. -1.
</event>
<event>
 5    1  0.1262391E-009  0.9118800E+02  0.7815553E-02  0.1125453E+00
         25   -1    0    0    0    0  0.00000000000E+00  0.00000000000E+00  0.99999998245E-14  0.12509000000E+03  0.12509000000E+03 0.  0.
        -13    1    3    3    0    0 -0.34568382744E+02  0.43088257527E+02  0.68216552908E+01  0.55660732723E+02  0.10566000000E+00 0.  1.
         23    2    1    0    0    0 -0.18442469890E+02  0.17994181276E+02 -0.17326946594E+02  0.94039422973E+02  0.88765278906E+02 0.  0.
         13    1    3    3    0    0  0.16125912854E+02 -0.25094076251E+02 -0.24148601885E+02  0.38378690250E+02  0.10566000000E+00 0. -1.
         22    1    1    0    0    0  0.18442469890E+02 -0.17994181276E+02  0.17326946594E+02  0.31050577027E+02  0.00000000000E+00 0.  1.
</event>
<event>
 5    1  0.1262391E-009  0.9118800E+02  0.7815553E-02  0.1125453E+00
         25   -1    0    0    0    0  0.00000000000E+00  0.00000000000E+00  0.99999998245E-14  0.12509000000E+03  0.12509000000E+03 0.  0.
        -13    1    3    3    0    0 -0.21057982946E+02  0.56147184858E+02 -0.58531162672E+01  0.60251266770E+02  0.10566000000E+00 0.  1.
         23    2    1    0    0    0 -0.12980696194E+02  0.27495929062E+02  0.88078745166E+01  0.93433985687E+02  0.87907942981E+02 0.  0.
         13    1    3    3    0    0  0.80772867519E+01 -0.28651255796E+02  0.14660990784E+02  0.33182718917E+02  0.10566000000E+00 0. -1.
         22    1    1    0    0    0  0.12980696194E+02 -0.27495929062E+02 -0.88078745166E+01  0.31656014313E+02  0.00000000000E+00 0.  1.
</event>
<event>
 5    1  0.1262391E-009  0.9118800E+02  0.7815553E-02  0.1125453E+00
         25   -1    0    0    0    0  0.00000000000E+00  0.00000000000E+00  0.99999998245E-14  0.12509000000E+03  0.12509000000E+03 0.  0.
        -13    1    3    3    0    0 -0.69545737930E+01  0.36613872085E+02  0.26306167838E+02  0.45617621113E+02  0.10566000000E+00 0. -1.
         23    2    1    0    0    0 -0.22671508234E+02 -0.99458191377E+01  0.15334257937E+02  0.95968597726E+02  0.91443510864E+02 0.  0.
         13    1    3    3    0    0 -0.15716934441E+02 -0.46559691223E+02 -0.10971909901E+02  0.50350976613E+02  0.10566000000E+00 0.  1.
         22    1    1    0    0    0  0.22671508234E+02  0.99458191377E+01 -0.15334257937E+02  0.29121402274E+02  0.00000000000E+00 0. -1.
</event>
<event>
 5    1  0.1262391E-009  0.9118800E+02  0.7815553E-02  0.1125453E+00
         25   -1    0    0    0    0  0.00000000000E+00  0.00000000000E+00  0.99999998245E-14  0.12509000000E+03  0.12509000000E+03 0.  0.
        -13    1    3    3    0    0 -0.20180601140E+02 -0.32177036970E+01 -0.52302754897E+02  0.56153357987E+02  0.10566000000E+00 0. -1.
         23    2    1    0    0    0  0.19590052105E+01  0.14681874790E+02 -0.27238418284E+02  0.94084733038E+02  0.88829107907E+02 0.  0.
         13    1    3    3    0    0  0.22139606351E+02  0.17899578487E+02  0.25064336613E+02  0.37931375051E+02  0.10566000000E+00 0.  1.
         22    1    1    0    0    0 -0.19590052105E+01 -0.14681874790E+02  0.27238418284E+02  0.31005266962E+02  0.00000000000E+00 0. -1.
</event>
<event>
 5    1  0.1262391E-009  0.9118800E+02  0.7815553E-02  0.1125453E+00
         25   -1    0    0    0    0  0.00000000000E+00  0.00000000000E+00  0.99999998245E-14  0.12509000000E+03  0.12509000000E+03 0.  0.
        -13    1    3    3    0    0 -0.24230475248E+02  0.21258653694E+02 -0.38716660458E+02  0.50378936558E+02  0.10566000000E+00 0.  1.
         23    2    1    0    0    0  0.96876144048E+01  0.25776012860E+02 -0.78626236788E+01  0.96453073437E+02  0.92103864265E+02 0.  0.
         13    1    3    3    0    0  0.33918089653E+02  0.45173591666E+01  0.30854036780E+02  0.46074136879E+02  0.10566000000E+00 0. -1.
         22    1    1    0    0    0 -0.96876144048E+01 -0.25776012860E+02  0.78626236788E+01  0.28636926563E+02  0.00000000000E+00 0.  1.
</event>
<event>
 5    1  0.1262391E-009  0.9118800E+02  0.7815553E-02  0.1125453E+00
         25   -1    0    0    0    0  0.00000000000E+00  0.00000000000E+00  0.99999998245E-14  0.12509000000E+03  0.12509000000E+03 0.  0.
        -13    1    3    3    0    0 -0.39442668043E+02  0.45521526922E+02  0.56633813073E+01  0.60498086974E+02  0.10566000000E+00 0. -1.
         23    2    1    0    0    0 -0.15214807628E+02  0.22904628428E+02  0.13352072854E+02  0.94522202826E+02  0.89443035520E+02 0.  0.
         13    1    3    3    0    0  0.24227860415E+02 -0.22616898494E+02  0.76886915466E+01  0.34024115852E+02  0.10566000000E+00 0.  1.
         22    1    1    0    0    0  0.15214807628E+02 -0.22904628428E+02 -0.13352072854E+02  0.30567797174E+02  0.00000000000E+00 0. -1.
</event>
<event>
 4    1  0.1262391E-009  0.9118800E+02  0.7815553E-02  0.1125453E+00
         25   -1    0    0    0    0  0.00000000000E+00  0.00000000000E+00  0.99999998245E-14  0.12509000000E+03  0.12509000000E+03 0.  0.
        -13    1    1    0    0    0 -0.31790741330E+02  0.12561717757E+02  0.69875949418E-02  0.34182732485E+02  0.10566000000E+00 0. -1.
         13    1    1    0    0    0  0.12342032430E+02  0.34798570611E+02 -0.11032097156E+02  0.38535498087E+02  0.10566000000E+00 0.  1.
         22    1    1    0    0    0  0.19448708899E+02 -0.47360288368E+02  0.11025109561E+02  0.52371769428E+02  0.00000000000E+00 0. -1.
</event>
<event>
 5    1  0.1262391E-009  0.9118800E+02  0.7815553E-02  0.1125453E+00
         25   -1    0    0    0    0  0.00000000000E+00  0.00000000000E+00  0.99999998245E-14  0.12509000000E+03  0.12509000000E+03 0.  0.
        -13    1    3    3    0    0 -0.53393840442E+02 -0.22985753784E+02 -0.45391650977E+01  0.58308337808E+02  0.10566000000E+00 0.  1.
         23    2    1    0    0    0 -0.25313059352E+02 -0.18457197258E+02  0.12381331334E+02  0.91404447162E+02  0.84970915560E+02 0.  0.
         13    1    3    3    0    0  0.28080781090E+02  0.45285565263E+01  0.16920496432E+02  0.33096109354E+02  0.10566000000E+00 0. -1.
         22    1    1    0    0    0  0.25313059352E+02  0.18457197258E+02 -0.12381331334E+02  0.33685552838E+02  0.00000000000E+00 0.  1.
</event>
<event>
 5    1  0.1262391E-009  0.9118800E+02  0.7815553E-02  0.1125453E+00
         25   -1    0    0    0    0  0.00000000000E+00  0.00000000000E+00  0.99999998245E-14  0.12509000000E+03  0.12509000000E+03 0.  0.
        -13    1    3    3    0    0 -0.21427254328E+02  0.38807313520E+01 -0.28457974049E+02  0.35833709756E+02  0.10566000000E+00 0.  1.
         23    2    1    0    0    0  0.29114107370E+01  0.49041813276E+01  0.27574144626E+02  0.96932216728E+02  0.92752325474E+02 0.  0.
         13    1    3    3    0    0  0.24338665065E+02  0.10234499756E+01  0.56032118674E+02  0.61098506972E+02  0.10566000000E+00 0. -1.
         22    1    1    0    0    0 -0.29114107370E+01 -0.49041813276E+01 -0.27574144626E+02  0.28157783272E+02  0.00000000000E+00 0. -1.
</event>
<event>
 5    1  0.1262391E-009  0.9118800E+02  0.7815553E-02  0.1125453E+00
         25   -1    0    0    0    0  0.00000000000E+00  0.00000000000E+00  0.99999998245E-14  0.12509000000E+03  0.12509000000E+03 0.  0.
        -13    1    3    3    0    0 -0.61873504675E+01  0.32947568730E+02  0.11917314262E+02  0.35578914181E+02  0.10566000000E+00 0.  1.
         23    2    1    0    0    0 -0.23641089568E+02 -0.10646904969E+02 -0.19988824730E+02  0.92351478111E+02  0.86353834273E+02 0.  0.
         13    1    3    3    0    0 -0.17453739101E+02 -0.43594473699E+02 -0.31906138992E+02  0.56772563930E+02  0.10566000000E+00 0. -1.
         22    1    1    0    0    0  0.23641089568E+02  0.10646904969E+02  0.19988824730E+02  0.32738521889E+02  0.00000000000E+00 0. -1.
</event>
<event>
 5    1  0.1262391E-009  0.9118800E+02  0.7815553E-02  0.1125453E+00
         25   -1    0    0    0    0  0.00000000000E+00  0.00000000000E+00  0.99999998245E-14  0.12509000000E+03  0.12509000000E+03 0.  0.
        -13    1    3    3    0    0  0.29497889271E+02 -0.22561366027E+02 -0.42153789420E+02  0.56179122768E+02  0.10566000000E+00 0.  1.
         23    2    1    0    0    0 -0.49911444454E+01 -0.12736963316E+02 -0.26416658693E+02  0.95341359462E+02  0.90581417576E+02 0.  0.
         13    1    3    3    0    0 -0.34489033717E+02  0.98244027108E+01  0.15737130727E+02  0.39162236694E+02  0.10566000000E+00 0. -1.
         22    1    1    0    0    0  0.49911444454E+01  0.12736963316E+02  0.26416658693E+02  0.29748640538E+02  0.00000000000E+00 0.  1.
</event>
<event>
 5    1  0.1262391E-009  0.9118800E+02  0.7815553E-02  0.1125453E+00
         25   -1    0    0    0    0  0.00000000000E+00  0.00000000000E+00  0.99999998245E-14  0.12509000000E+03  0.12509000000E+03 0.  0.
        -13    1    3    3    0    0 -0.17438439994E+01 -0.35980176390E+02 -0.15097202583E+02  0.39058299692E+02  0.10566000000E+00 0. -1.
         23    2    1    0    0    0  0.24414848115E+02  0.62964007799E+01  0.13580320914E+02  0.96451658788E+02  0.92101942952E+02 0.  0.
         13    1    3    3    0    0  0.26158692114E+02  0.42276577170E+02  0.28677523497E+02  0.57393359096E+02  0.10566000000E+00 0.  1.
         22    1    1    0    0    0 -0.24414848115E+02 -0.62964007799E+01 -0.13580320914E+02  0.28638341212E+02  0.00000000000E+00 0.  1.
</event>
<event>
 5    1  0.1262391E-009  0.9118800E+02  0.7815553E-02  0.1125453E+00
         25   -1    0    0    0    0  0.00000000000E+00  0.00000000000E+00  0.99999998245E-14  0.12509000000E+03  0.12509000000E+03 0.  0.
        -13    1    3    3    0    0 -0.39950320462E+02 -0.33414805986E+02  0.59558381515E+01  0.52421947086E+02  0.10566000000E+00 0.  1.
         23    2    1    0    0    0 -0.25395367097E+02  0.22702061252E+01 -0.14191626762E+02  0.95909856478E+02  0.91363120534E+02 0.  0.
         13    1    3    3    0    0  0.14554953365E+02  0.35685012111E+02 -0.20147464913E+02  0.43487909392E+02  0.10566000000E+00 0. -1.
         22    1    1    0    0    0  0.25395367097E+02 -0.22702061252E+01  0.14191626762E+02  0.29180143522E+02  0.00000000000E+00 0.  1.
</event>
<event>
 5    1  0.1262391E-009  0.9118800E+02  0.7815553E-02  0.1125453E+00
         25   -1    0    0    0    0  0.00000000000E+00  0.00000000000E+00  0.99999998245E-14  0.12509000000E+03  0.12509000000E+03 0.  0.
        -13    1    3    3    0    0  0.51096637054E+02 -0.97165701500E+01  0.14521388241E+02  0.54001480852E+02  0.10566000000E+00 0.  1.
         23    2    1    0    0    0  0.13705883974E+02  0.11101396661E+02  0.21412681447E+02  0.97348421276E+02  0.93311949582E+02 0.  0.
         13    1    3    3    0    0 -0.37390753080E+02  0.20817966811E+02  0.68912932064E+01  0.43346940424E+02  0.10566000000E+00 0. -1.
         22    1    1    0    0    0 -0.13705883974E+02 -0.11101396661E+02 -0.21412681447E+02  0.27741578724E+02  0.00000000000E+00 0. -1.
</event>
<event>
 5    1  0.1262391E-009  0.9118800E+02  0.7815553E-02  0.1125453E+00
         25   -1    0    0    0    0  0.00000000000E+00  0.00000000000E+00  0.99999998245E-14  0.12509000000E+03  0.12509000000E+03 0.  0.
        -13    1    3    3    0    0  0.48879410940E+02 -0.11132482066E+02  0.21802497139E+02  0.54667074335E+02  0.10566000000E+00 0. -1.
         23    2    1    0    0    0  0.28806355325E+02 -0.50956125324E+01 -0.11201656810E+02  0.93765113895E+02  0.88377871066E+02 0.  0.
         13    1    3    3    0    0 -0.20073055615E+02  0.60368695334E+01 -0.33004153949E+02  0.39098039560E+02  0.10566000000E+00 0.  1.
         22    1    1    0    0    0 -0.28806355325E+02  0.50956125324E+01  0.11201656810E+02  0.31324886105E+02  0.00000000000E+00 0. -1.
</event>
<event>
 5    1  0.1262391E-009  0.9118800E+02  0.7815553E-02  0.1125453E+00
         25   -1    0    0    0    0  0.00000000000E+00  0.00000000000E+00  0.99999998245E-14  0.12509000000E+03  0.12509000000E+03 0.  0.
        -13    1    3    3    0    0  0.64708982836E+01  0.16025209116E+02 -0.49245886621E+02  0.52190500716E+02  0.10566000000E+00 0.  1.
         23    2    1    0    0    0  0.85059566740E+01  0.26360866692E+02 -0.59377273846E+01  0.96761512603E+02  0.92521819714E+02 0.  0.
         13    1    3    3    0    0  0.20350583904E+01  0.10335657576E+02  0.43308159237E+02  0.44571011888E+02  0.10566000000E+00 0. -1.
         22    1    1    0    0    0 -0.85059566740E+01 -0.26360866692E+02  0.59377273846E+01  0.28328487397E+02  0.00000000000E+00 0.  1.
</event>
<event>
 5    1  0.1262391E-009  0.9118800E+02  0.7815553E-02  0.1125453E+00
         25   -1    0    0    0    0  0.00000000000E+00  0.00000000000E+00  0.99999998245E-14  0.12509000000E+03  0.12509000000E+03 0.  0.
        -13    1    3    3    0    0 -0.21529791758E+02 -0.35132025054E+02 -0.17835610606E+02  0.44898900735E+02  0.10566000000E+00 0.  1.
         23    2    1    0    0    0 -0.26718062067E+02  0.11403615079E+02 -0.16368484666E+02  0.91745966534E+02  0.85472204883E+02 0.  0.
         13    1    3    3    0    0 -0.51882703096E+01  0.46535640133E+02  0.14671259401E+01  0.46847065799E+02  0.10566000000E+00 0. -1.
         22    1    1    0    0    0  0.26718062067E+02 -0.11403615079E+02  0.16368484666E+02  0.33344033466E+02  0.00000000000E+00 0. -1.
</event>
<event>
 5    1  0.1262391E-009  0.9118800E+02  0.7815553E-02  0.1125453E+00
         25   -1    0    0    0    0  0.00000000000E+00  0.00000000000E+00  0.99999998245E-14  0.12509000000E+03  0.12509000000E+03 0.  0.
        -13    1    3    3    0    0 -0.31128584037E+02  0.14989373549E+02 -0.23092188044E+02  0.41556351815E+02  0.10566000000E+00 0. -1.
         23    2    1    0    0    0  0.17731105461E+02  0.24347283218E+02 -0.46443450562E+01  0.94614563301E+02  0.89572112551E+02 0.  0.
         13    1    3    3    0    0  0.48859689497E+02  0.93579096692E+01  0.18447842987E+02  0.53058211486E+02  0.10566000000E+00 0.  1.
         22    1    1    0    0    0 -0.17731105461E+02 -0.24347283218E+02  0.46443450562E+01  0.30475436699E+02  0.00000000000E+00 0. -1.
</event>
<event>
 5    1  0.1262391E-009  0.9118800E+02  0.7815553E-02  0.1125453E+00
         25   -1    0    0    0    0  0.00000000000E+00  0.00000000000E+00  0.99999998245E-14  0.12509000000E+03  0.12509000000E+03 0.  0.
        -13    1    3    3    0    0 -0.10196390611E+02 -0.21243565256E+02 -0.33935883730E+02  0.41314777197E+02  0.10566000000E+00 0.  1.
         23    2    1    0    0    0  0.77502830238E+01 -0.15820391630E+02  0.20012548233E+02  0.98428159009E+02  0.94748344159E+02 0.  0.
         13    1    3    3    0    0  0.17946673635E+02  0.54231736264E+01  0.53948431963E+02  0.57113381812E+02  0.10566000000E+00 0. -1.
         22    1    1    0    0    0 -0.77502830238E+01  0.15820391630E+02 -0.20012548233E+02  0.26661840991E+02  0.00000000000E+00 0. -1.
</event>
<event>
 5    1  0.1262391E-009  0.9118800E+02  0.7815553E-02  0.1125453E+00
         25   -1    0    0    0    0  0.00000000000E+00  0.00000000000E+00  0.99999998245E-14  0.12509000000E+03  0.12509000000E+03 0.  0.
        -13    1    3    3    0    0  0.43285631907E+02  0.13638007134E+02 -0.25927699556E+01  0.45457395309E+02  0.10566000000E+00 0.  1.
         23    2    1    0    0    0 -0.21189301152E+01  0.16899518490E+02 -0.23918792446E+02  0.95726890115E+02  0.91112267390E+02 0.  0.
         13    1    3    3    0    0 -0.45404562022E+02  0.32615113556E+01 -0.21326022491E+02  0.50269494806E+02  0.10566000000E+00 0. -1.
         22    1    1    0    0    0  0.21189301152E+01 -0.16899518490E+02  0.23918792446E+02  0.29363109885E+02  0.00000000000E+00 0. -1.
</event>
<event>
 5    1  0.1262391E-009  0.9118800E+02  0.7815553E-02  0.1125453E+00
         25   -1    0    0    0    0  0.00000000000E+00  0.00000000000E+00  0.99999998245E-14  0.12509000000E+03  0.12509000000E+03 0.  0.
        -13    1    3    3    0    0  0.25134802475E+02  0.27967094732E+02 -0.27801350126E+01  0.37704867032E+02  0.10566000000E+00 0. -1.
         23    2    1    0    0    0  0.16332447471E+02 -0.25192794991E+02  0.10643336436E+02  0.93235543948E+02  0.87625112183E+02 0.  0.
         13    1    3    3    0    0 -0.88023550043E+01 -0.53159889723E+02  0.13423471449E+02  0.55530676916E+02  0.10566000000E+00 0.  1.
         22    1    1    0    0    0 -0.16332447471E+02  0.25192794991E+02 -0.10643336436E+02  0.31854456052E+02  0.00000000000E+00 0.  1.
</event>
<event>
 5    1  0.1262391E-009  0.9118800E+02  0.7815553E-02  0.1125453E+00
         25   -1    0    0    0    0  0.00000000000E+00  0.00000000000E+00  0.99999998245E-14  0.12509000000E+03  0.12509000000E+03 0.  0.
        -13    1    3    3    0    0  0.44139878047E+02 -0.31220996076E+02 -0.20210361569E+01  0.54103374951E+02  0.10566000000E+00 0. -1.
         23    2    1    0    0    0  0.88098682938E+01 -0.21049313535E+02 -0.19742034531E+02  0.94916579460E+02  0.89992898327E+02 0.  0.
         13    1    3    3    0    0 -0.35330009753E+02  0.10171682541E+02 -0.17720998374E+02  0.40813204509E+02  0.10566000000E+00 0.  1.
         22    1    1    0    0    0 -0.88098682938E+01  0.21049313535E+02  0.19742034531E+02  0.30173420540E+02  0.00000000000E+00 0. -1.
</event>
<event>
 5    1  0.1262391E-009  0.9118800E+02  0.7815553E-02  0.1125453E+00
         25   -1    0    0    0    0  0.00000000000E+00  0.00000000000E+00  0.99999998245E-14  0.12509000000E+03  0.12509000000E+03 0.  0.
        -13    1    3    3    0    0 -0.21448582021E+02 -0.25072638489E+02  0.27878079898E+02  0.43195802740E+02  0.10566000000E+00 0. -1.
         23    2    1    0    0    0  0.18329509041E+02  0.91940938140E+01  0.20287335016E+02  0.96244233850E+02  0.91819792662E+02 0.  0.
         13    1    3    3    0    0  0.39778091062E+02  0.34266732303E+02 -0.75907448820E+01  0.53048431109E+02  0.10566000000E+00 0.  1.
         22    1    1    0    0    0 -0.18329509041E+02 -0.91940938140E+01 -0.20287335016E+02  0.28845766150E+02  0.00000000000E+00 0. -1.
</event>
<event>
 5    1  0.1262391E-009  0.9118800E+02  0.7815553E-02  0.1125453E+00
         25   -1    0    0    0    0  0.00000000000E+00  0.00000000000E+00  0.99999998245E-14  0.12509000000E+03  0.12509000000E+03 0.  0.
        -13    1    3    3    0    0  0.11337147291E+02  0.10930700864E+02  0.35425305727E+02  0.38768216105E+02  0.10566000000E+00 0. -1.
         23    2    1    0    0    0  0.16828017992E+02  0.87633212403E+01 -0.21738564322E+02  0.96236175861E+02  0.91808814265E+02 0.  0.
         13    1    3    3    0    0  0.54908707011E+01 -0.21673796235E+01 -0.57163870049E+02  0.57467959756E+02  0.10566000000E+00 0.  1.
         22    1    1    0    0    0 -0.16828017992E+02 -0.87633212403E+01  0.21738564322E+02  0.28853824139E+02  0.00000000000E+00 0.  1.
</event>
<event>
 5    1  0.1262391E-009  0.9118800E+02  0.7815553E-02  0.1125453E+00
         25   -1    0    0    0    0  0.00000000000E+00  0.00000000000E+00  0.99999998245E-14  0.12509000000E+03  0.12509000000E+03 0.  0.
        -13    1    3    3    0    0 -0.43673546993E+02  0.24754817633E+02 -0.35537855698E+02  0.61507154499E+02  0.10566000000E+00 0. -1.
         23    2    1    0    0    0 -0.24218362101E+02  0.15291349366E+02 -0.10532170554E+02  0.94573102306E+02  0.89514192366E+02 0.  0.
         13    1    3    3    0    0  0.19455184892E+02 -0.94634682665E+01  0.25005685144E+02  0.33065947807E+02  0.10566000000E+00 0.  1.
         22    1    1    0    0    0  0.24218362101E+02 -0.15291349366E+02  0.10532170554E+02  0.30516897694E+02  0.00000000000E+00 0. -1.
</event>
<event>
 5    1  0.1262391E-009  0.9118800E+02  0.7815553E-02  0.1125453E+00
         25   -1    0    0    0    0  0.00000000000E+00  0.00000000000E+00  0.99999998245E-14  0.12509000000E+03  0.12509000000E+03 0.  0.
        -13    1    3    3    0    0  0.47274788870E+01 -0.12200935462E+02 -0.48544642249E+02  0.50277284512E+02  0.10566000000E+00 0.  1.
         23    2    1    0    0    0 -0.12873149712E+02 -0.27879749434E+02 -0.38353625737E+02  0.75957535995E+02  0.57927094310E+02 0.  0.
         13    1    3    3    0    0 -0.17600628599E+02 -0.15678813972E+02  0.10191016512E+02  0.25680251483E+02  0.10566000000E+00 0. -1.
         22    1    1    0    0    0  0.12873149712E+02  0.27879749434E+02  0.38353625737E+02  0.49132464005E+02  0.00000000000E+00 0. -1.
</event>
<event>
 5    1  0.1262391E-009  0.9118800E+02  0.7815553E-02  0.1125453E+00
         25   -1    0    0    0    0  0.00000000000E+00  0.00000000000E+00  0.99999998245E-14  0.12509000000E+03  0.12509000000E+03 0.  0.
        -13    1    3    3    0    0 -0.40547545281E+01 -0.25742076393E+02  0.24735387602E+02  0.35929738312E+02  0.10566000000E+00 0. -1.
         23    2    1    0    0    0 -0.13988666287E+02  0.24177196575E+01 -0.26382684315E+02  0.95130457539E+02  0.90289699119E+02 0.  0.
         13    1    3    3    0    0 -0.99339117592E+01  0.28159796050E+02 -0.51118071917E+02  0.59200719227E+02  0.10566000000E+00 0.  1.
         22    1    1    0    0    0  0.13988666287E+02 -0.24177196575E+01  0.26382684315E+02  0.29959542461E+02  0.00000000000E+00 0.  1.
</event>
<event>
 5    1  0.1262391E-009  0.9118800E+02  0.7815553E-02  0.1125453E+00
         25   -1    0    0    0    0  0.00000000000E+00  0.00000000000E+00  0.99999998245E-14  0.12509000000E+03  0.12509000000E+03 0.  0.
        -13    1    3    3    0    0 -0.19229350105E+02  0.37093244590E+02  0.14798003918E+02  0.44324584416E+02  0.10566000000E+00 0.  1.
         23    2    1    0    0    0  0.24858223225E+02  0.15299049315E+02 -0.71105875688E+00  0.95892435437E+02  0.91339265366E+02 0.  0.
         13    1    3    3    0    0  0.44087573330E+02 -0.21794195275E+02 -0.15509062675E+02  0.51567851021E+02  0.10566000000E+00 0. -1.
         22    1    1    0    0    0 -0.24858223225E+02 -0.15299049315E+02  0.71105875688E+00  0.29197564563E+02  0.00000000000E+00 0. -1.
</event>
<event>
 5    1  0.1262391E-009  0.9118800E+02  0.7815553E-02  0.1125453E+00
         25   -1    0    0    0    0  0.00000000000E+00  0.00000000000E+00  0.99999998245E-14  0.12509000000E+03  0.12509000000E+03 0.  0.
        -13    1    3    3    0    0 -0.42072909091E+02 -0.29869801116E+02 -0.98989837995E+01  0.52538897423E+02  0.10566000000E+00 0. -1.
         23    2    1    0    0    0  0.87192972248E+01 -0.15782716444E+02 -0.82157220000E+01  0.10527540007E+03  0.10339386582E+03 0.  0.
         13    1    3    3    0    0  0.50792206316E+02  0.14087084672E+02  0.16832617994E+01  0.52736502646E+02  0.10566000000E+00 0.  1.
         22    1    1    0    0    0 -0.87192972248E+01  0.15782716444E+02  0.82157220000E+01  0.19814599931E+02  0.00000000000E+00 0.  1.
</event>
<event>
 5    1  0.1262391E-009  0.9118800E+02  0.7815553E-02  0.1125453E+00
         25   -1    0    0    0    0  0.00000000000E+00  0.00000000000E+00  0.99999998245E-14  0.12509000000E+03  0.12509000000E+03 0.  0.
        -13    1    3    3    0    0 -0.47290041814E+02 -0.36797437673E+02 -0.96705187090E+01  0.60695383434E+02  0.10566000000E+00 0.  1.
         23    2    1    0    0    0 -0.27871779191E+02 -0.91328696217E+01 -0.34412836990E+00  0.95758041199E+02  0.91155025353E+02 0.  0.
         13    1    3    3    0    0  0.19418262623E+02  0.27664568051E+02  0.93263903391E+01  0.35062657765E+02  0.10566000000E+00 0. -1.
         22    1    1    0    0    0  0.27871779191E+02  0.91328696217E+01  0.34412836990E+00  0.29331958801E+02  0.00000000000E+00 0.  1.
</event>
<event>
 5    1  0.1262391E-009  0.9118800E+02  0.7815553E-02  0.1125453E+00
         25   -1    0    0    0    0  0.00000000000E+00  0.00000000000E+00  0.99999998245E-14  0.12509000000E+03  0.12509000000E+03 0.  0.
        -13    1    3    3    0    0 -0.13565927426E+02 -0.43389934062E+02 -0.21575731982E-01  0.45461328559E+02  0.10566000000E+00 0.  1.
         23    2    1    0    0    0  0.64972997000E+01 -0.47615696051E+01  0.27147466037E+02  0.96772649123E+02  0.92536875123E+02 0.  0.
         13    1    3    3    0    0  0.20063227126E+02  0.38628364457E+02  0.27169041769E+02  0.51311320564E+02  0.10566000000E+00 0. -1.
         22    1    1    0    0    0 -0.64972997000E+01  0.47615696051E+01 -0.27147466037E+02  0.28317350877E+02  0.00000000000E+00 0. -1.
</event>
<event>
 5    1  0.1262391E-009  0.9118800E+02  0.7815553E-02  0.1125453E+00
         25   -1    0    0    0    0  0.00000000000E+00  0.00000000000E+00  0.99999998245E-14  0.12509000000E+03  0.12509000000E+03 0.  0.
        -13    1    3    3    0    0  0.29079189454E+02 -0.29476040815E+02 -0.46732131951E+02  0.62436684426E+02  0.10566000000E+00 0. -1.
         23    2    1    0    0    0  0.12150354945E+02 -0.14380684729E+02 -0.24443138492E+02  0.94237087044E+02  0.89043395805E+02 0.  0.
         13    1    3    3    0    0 -0.16928834509E+02  0.15095356085E+02  0.22288993459E+02  0.31800402617E+02  0.10566000000E+00 0.  1.
         22    1    1    0    0    0 -0.12150354945E+02  0.14380684729E+02  0.24443138492E+02  0.30852912956E+02  0.00000000000E+00 0. -1.
</event>
<event>
 5    1  0.1262391E-009  0.9118800E+02  0.7815553E-02  0.1125453E+00
         25   -1    0    0    0    0  0.00000000000E+00  0.00000000000E+00  0.99999998245E-14  0.12509000000E+03  0.12509000000E+03 0.  0.
        -13    1    3    3    0    0  0.30691908344E+02 -0.13672787753E+02  0.35599703806E+01  0.33787910795E+02  0.10566000000E+00 0.  1.
         23    2    1    0    0    0 -0.26920375595E+02  0.94967839882E+01 -0.36883354706E+01  0.96306335417E+02  0.91904357321E+02 0.  0.
         13    1    3    3    0    0 -0.57612283940E+02  0.23169571741E+02 -0.72483058512E+01  0.62518424621E+02  0.10566000000E+00 0. -1.
         22    1    1    0    0    0  0.26920375595E+02 -0.94967839882E+01  0.36883354706E+01  0.28783664583E+02  0.00000000000E+00 0. -1.
</event>
<event>
 5    1  0.1262391E-009  0.9118800E+02  0.7815553E-02  0.1125453E+00
         25   -1    0    0    0    0  0.00000000000E+00  0.00000000000E+00  0.99999998245E-14  0.12509000000E+03  0.12509000000E+03 0.  0.
        -13    1    3    3    0    0 -0.67705189157E+01 -0.34453055097E+02  0.32639807732E+02  0.47939765798E+02  0.10566000000E+00 0.  1.
         23    2    1    0    0    0  0.19294085055E+02 -0.22747508288E+02 -0.46331368575E+01  0.94904294632E+02  0.89975820814E+02 0.  0.
         13    1    3    3    0    0  0.26064603971E+02  0.11705546810E+02 -0.37272944589E+02  0.46964528835E+02  0.10566000000E+00 0. -1.
         22    1    1    0    0    0 -0.19294085055E+02  0.22747508288E+02  0.46331368575E+01  0.30185705368E+02  0.00000000000E+00 0.  1.
</event>
<event>
 5    1  0.1262391E-009  0.9118800E+02  0.7815553E-02  0.1125453E+00
         25   -1    0    0    0    0  0.00000000000E+00  0.00000000000E+00  0.99999998245E-14  0.12509000000E+03  0.12509000000E+03 0.  0.
        -13    1    3    3    0    0  0.32634624886E+02 -0.10179764133E+02  0.13070312997E+02  0.36599051697E+02  0.10566000000E+00 0. -1.
         23    2    1    0    0    0 -0.16145333690E+02 -0.15443943761E+02 -0.19455071250E+02  0.95464217374E+02  0.90750921773E+02 0.  0.
         13    1    3    3    0    0 -0.48779958576E+02 -0.52641796282E+01 -0.32525384247E+02  0.58865165677E+02  0.10566000000E+00 0.  1.
         22    1    1    0    0    0  0.16145333690E+02  0.15443943761E+02  0.19455071250E+02  0.29625782626E+02  0.00000000000E+00 0.  1.
</event>
<event>
 5    1  0.1262391E-009  0.9118800E+02  0.7815553E-02  0.1125453E+00
         25   -1    0    0    0    0  0.00000000000E+00  0.00000000000E+00  0.99999998245E-14  0.12509000000E+03  0.12509000000E+03 0.  0.
        -13    1    3    3    0    0 -0.13323971596E+02 -0.34675065742E+02  0.11748656407E+02  0.38960627493E+02  0.10566000000E+00 0.  1.
         23    2    1    0    0    0  0.94229706232E+01  0.16066381259E+02  0.22793926553E+02  0.95653898529E+02  0.91012000494E+02 0.  0.
         13    1    3    3    0    0  0.22746942219E+02  0.50741447001E+02  0.11045270146E+02  0.56693271035E+02  0.10566000000E+00 0. -1.
         22    1    1    0    0    0 -0.94229706232E+01 -0.16066381259E+02 -0.22793926553E+02  0.29436101471E+02  0.00000000000E+00 0. -1.
</event>
<event>
 5    1  0.1262391E-009  0.9118800E+02  0.7815553E-02  0.1125453E+00
         25   -1    0    0    0    0  0.00000000000E+00  0.00000000000E+00  0.99999998245E-14  0.12509000000E+03  0.12509000000E+03 0.  0.
        -13    1    3    3    0    0 -0.56826291109E+02  0.16322741966E+02  0.12106991671E+01  0.59136589545E+02  0.10566000000E+00 0.  1.
         23    2    1    0    0    0 -0.32698102634E+02  0.13417589790E+02 -0.13166164613E+02  0.87373352187E+02  0.78813432549E+02 0.  0.
         13    1    3    3    0    0  0.24128188476E+02 -0.29051521764E+01 -0.14376863780E+02  0.28236762642E+02  0.10566000000E+00 0. -1.
         22    1    1    0    0    0  0.32698102634E+02 -0.13417589790E+02  0.13166164613E+02  0.37716647813E+02  0.00000000000E+00 0.  1.
</event>
<event>
 5    1  0.1262391E-009  0.9118800E+02  0.7815553E-02  0.1125453E+00
         25   -1    0    0    0    0  0.00000000000E+00  0.00000000000E+00  0.99999998245E-14  0.12509000000E+03  0.12509000000E+03 0.  0.
        -13    1    3    3    0    0 -0.13193054184E+02  0.18314825595E+01  0.33264731964E+02  0.35832451266E+02  0.10566000000E+00 0. -1.
         23    2    1    0    0    0 -0.19788860203E+02 -0.55487249806E+01 -0.23739730375E+02  0.93689965998E+02  0.88271442684E+02 0.  0.
         13    1    3    3    0    0 -0.65958060192E+01 -0.73802075401E+01 -0.57004462339E+02  0.57857514732E+02  0.10566000000E+00 0.  1.
         22    1    1    0    0    0  0.19788860203E+02  0.55487249806E+01  0.23739730375E+02  0.31400034002E+02  0.00000000000E+00 0.  1.
</event>
<event>
 5    1  0.1262391E-009  0.9118800E+02  0.7815553E-02  0.1125453E+00
         25   -1    0    0    0    0  0.00000000000E+00  0.00000000000E+00  0.99999998245E-14  0.12509000000E+03  0.12509000000E+03 0.  0.
        -13    1    3    3    0    0 -0.87461263215E+01  0.10587963165E+02 -0.47595777389E+02  0.49537550191E+02  0.10566000000E+00 0.  1.
         23    2    1    0    0    0 -0.18159864330E+02 -0.18550060204E+02 -0.12001837186E+02  0.96490533189E+02  0.92154725832E+02 0.  0.
         13    1    3    3    0    0 -0.94137380084E+01 -0.29138023369E+02  0.35593940203E+02  0.46952982998E+02  0.10566000000E+00 0. -1.
         22    1    1    0    0    0  0.18159864330E+02  0.18550060204E+02  0.12001837186E+02  0.28599466811E+02  0.00000000000E+00 0. -1.
</event>
<event>
 5    1  0.1262391E-009  0.9118800E+02  0.7815553E-02  0.1125453E+00
         25   -1    0    0    0    0  0.00000000000E+00  0.00000000000E+00  0.99999998245E-14  0.12509000000E+03  0.12509000000E+03 0.  0.
        -13    1    3    3    0    0 -0.25649883728E+01  0.34361606181E+02  0.69628271137E+01  0.35153822981E+02  0.10566000000E+00 0.  1.
         23    2    1    0    0    0 -0.48195010446E+01 -0.17899456410E+02 -0.23088273362E+02  0.95481107806E+02  0.90774200360E+02 0.  0.
         13    1    3    3    0    0 -0.22545126718E+01 -0.52261062591E+02 -0.30051100476E+02  0.60327284825E+02  0.10566000000E+00 0. -1.
         22    1    1    0    0    0  0.48195010446E+01  0.17899456410E+02  0.23088273362E+02  0.29608892194E+02  0.00000000000E+00 0. -1.
</event>
<event>
 5    1  0.1262391E-009  0.9118800E+02  0.7815553E-02  0.1125453E+00
         25   -1    0    0    0    0  0.00000000000E+00  0.00000000000E+00  0.99999998245E-14  0.12509000000E+03  0.12509000000E+03 0.  0.
        -13    1    3    3    0    0 -0.13417197601E+02  0.21445081876E+02 -0.34856210177E+02  0.43068309464E+02  0.10566000000E+00 0. -1.
         23    2    1    0    0    0 -0.23314335857E+02 -0.35029811249E+01  0.13169550482E+02  0.98085070948E+02  0.94294299667E+02 0.  0.
         13    1    3    3    0    0 -0.98971382560E+01 -0.24948063001E+02  0.48025760660E+02  0.55016761484E+02  0.10566000000E+00 0.  1.
         22    1    1    0    0    0  0.23314335857E+02  0.35029811249E+01 -0.13169550482E+02  0.27004929052E+02  0.00000000000E+00 0.  1.
</event>
<event>
 5    1  0.1262391E-009  0.9118800E+02  0.7815553E-02  0.1125453E+00
         25   -1    0    0    0    0  0.00000000000E+00  0.00000000000E+00  0.99999998245E-14  0.12509000000E+03  0.12509000000E+03 0.  0.
        -13    1    3    3    0    0  0.40828413248E+01 -0.52984035478E+02  0.74780479487E+01  0.53664792685E+02  0.10566000000E+00 0.  1.
         23    2    1    0    0    0  0.22964143846E+02 -0.15614328203E+02  0.99116319157E+01  0.95604417166E+02  0.90943966191E+02 0.  0.
         13    1    3    3    0    0  0.18881302521E+02  0.37369707274E+02  0.24335839670E+01  0.41939624481E+02  0.10566000000E+00 0. -1.
         22    1    1    0    0    0 -0.22964143846E+02  0.15614328203E+02 -0.99116319157E+01  0.29485582834E+02  0.00000000000E+00 0.  1.
</event>
<event>
 5    1  0.1262391E-009  0.9118800E+02  0.7815553E-02  0.1125453E+00
         25   -1    0    0    0    0  0.00000000000E+00  0.00000000000E+00  0.99999998245E-14  0.12509000000E+03  0.12509000000E+03 0.  0.
        -13    1    3    3    0    0 -0.13817672768E+02 -0.29026205627E+02 -0.18214400517E+02  0.36948941041E+02  0.10566000000E+00 0. -1.
         23    2    1    0    0    0  0.22048934911E+02 -0.16314825628E+02  0.20204523308E+02  0.91023127116E+02  0.84407688287E+02 0.  0.
         13    1    3    3    0    0  0.35866607679E+02  0.12711379999E+02  0.38418923824E+02  0.54074186075E+02  0.10566000000E+00 0.  1.
         22    1    1    0    0    0 -0.22048934911E+02  0.16314825628E+02 -0.20204523308E+02  0.34066872884E+02  0.00000000000E+00 0.  1.
</event>
<event>
 5    1  0.1262391E-009  0.9118800E+02  0.7815553E-02  0.1125453E+00
         25   -1    0    0    0    0  0.00000000000E+00  0.00000000000E+00  0.99999998245E-14  0.12509000000E+03  0.12509000000E+03 0.  0.
        -13    1    3    3    0    0 -0.49656008674E+01  0.45814538473E+02 -0.86392695319E+01  0.46885789633E+02  0.10566000000E+00 0. -1.
         23    2    1    0    0    0 -0.48636556734E+01  0.32538626567E+01 -0.30012802459E+02  0.94512049118E+02  0.89428833988E+02 0.  0.
         13    1    3    3    0    0  0.10194519393E+00 -0.42560675816E+02 -0.21373532927E+02  0.47626259485E+02  0.10566000000E+00 0.  1.
         22    1    1    0    0    0  0.48636556734E+01 -0.32538626567E+01  0.30012802459E+02  0.30577950882E+02  0.00000000000E+00 0. -1.
</event>
<event>
 5    1  0.1262391E-009  0.9118800E+02  0.7815553E-02  0.1125453E+00
         25   -1    0    0    0    0  0.00000000000E+00  0.00000000000E+00  0.99999998245E-14  0.12509000000E+03  0.12509000000E+03 0.  0.
        -13    1    3    3    0    0 -0.40226961763E+01  0.47998495624E+02 -0.25051006940E+02  0.54291820557E+02  0.10566000000E+00 0.  1.
         23    2    1    0    0    0  0.16619815546E+02  0.63842925046E+01 -0.14976864877E+02  0.10182449031E+03  0.99130938086E+02 0.  0.
         13    1    3    3    0    0  0.20642511723E+02 -0.41614203120E+02  0.10074142063E+02  0.47532669753E+02  0.10566000000E+00 0. -1.
         22    1    1    0    0    0 -0.16619815546E+02 -0.63842925046E+01  0.14976864877E+02  0.23265509690E+02  0.00000000000E+00 0.  1.
</event>
<event>
 5    1  0.1262391E-009  0.9118800E+02  0.7815553E-02  0.1125453E+00
         25   -1    0    0    0    0  0.00000000000E+00  0.00000000000E+00  0.99999998245E-14  0.12509000000E+03  0.12509000000E+03 0.  0.
        -13    1    3    3    0    0  0.25357273563E+02 -0.23878792688E+02 -0.26712185140E+02  0.43894647302E+02  0.10566000000E+00 0. -1.
         23    2    1    0    0    0 -0.78297657584E+01  0.16855653179E+02 -0.21463065463E+02  0.96698426338E+02  0.92436487391E+02 0.  0.
         13    1    3    3    0    0 -0.33187039321E+02  0.40734445868E+02  0.52491196770E+01  0.52803779036E+02  0.10566000000E+00 0.  1.
         22    1    1    0    0    0  0.78297657584E+01 -0.16855653179E+02  0.21463065463E+02  0.28391573662E+02  0.00000000000E+00 0.  1.
</event>
<event>
 5    1  0.1262391E-009  0.9118800E+02  0.7815553E-02  0.1125453E+00
         25   -1    0    0    0    0  0.00000000000E+00  0.00000000000E+00  0.99999998245E-14  0.12509000000E+03  0.12509000000E+03 0.  0.
        -13    1    3    3    0    0  0.43135297119E+02 -0.27140149646E+02  0.16298837451E+02  0.53506119712E+02  0.10566000000E+00 0.  1.
         23    2    1    0    0    0 -0.14119689499E+01 -0.79837124143E+01  0.21342559974E+02  0.10225935861E+03  0.99678173318E+02 0.  0.
         13    1    3    3    0    0 -0.44547266069E+02  0.19156437232E+02  0.50437225229E+01  0.48753238893E+02  0.10566000000E+00 0. -1.
         22    1    1    0    0    0  0.14119689499E+01  0.79837124143E+01 -0.21342559974E+02  0.22830641394E+02  0.00000000000E+00 0.  1.
</event>
<event>
 5    1  0.1262391E-009  0.9118800E+02  0.7815553E-02  0.1125453E+00
         25   -1    0    0    0    0  0.00000000000E+00  0.00000000000E+00  0.99999998245E-14  0.12509000000E+03  0.12509000000E+03 0.  0.
        -13    1    3    3    0    0 -0.38162441484E+02 -0.15953571838E+02 -0.24650225557E+02  0.48151149295E+02  0.10566000000E+00 0. -1.
         23    2    1    0    0    0  0.74678013698E+01 -0.20122240337E+02 -0.22459550995E+02  0.94023876258E+02  0.88743367426E+02 0.  0.
         13    1    3    3    0    0  0.45630242854E+02 -0.41686684994E+01  0.21906745616E+01  0.45872726963E+02  0.10566000000E+00 0.  1.
         22    1    1    0    0    0 -0.74678013698E+01  0.20122240337E+02  0.22459550995E+02  0.31066123742E+02  0.00000000000E+00 0. -1.
</event>
<event>
 5    1  0.1262391E-009  0.9118800E+02  0.7815553E-02  0.1125453E+00
         25   -1    0    0    0    0  0.00000000000E+00  0.00000000000E+00  0.99999998245E-14  0.12509000000E+03  0.12509000000E+03 0.  0.
        -13    1    3    3    0    0  0.15392810077E+02 -0.56608160267E+01 -0.31742507229E+02  0.35729278881E+02  0.10566000000E+00 0. -1.
         23    2    1    0    0    0 -0.11397383223E+02  0.23638272366E+02  0.13215709612E+02  0.95707637172E+02  0.91085830774E+02 0.  0.
         13    1    3    3    0    0 -0.26790193301E+02  0.29299088392E+02  0.44958216841E+02  0.59978358291E+02  0.10566000000E+00 0.  1.
         22    1    1    0    0    0  0.11397383223E+02 -0.23638272366E+02 -0.13215709612E+02  0.29382362828E+02  0.00000000000E+00 0.  1.
</event>
<event>
 5    1  0.1262391E-009  0.9118800E+02  0.7815553E-02  0.1125453E+00
         25   -1    0    0    0    0  0.00000000000E+00  0.00000000000E+00  0.99999998245E-14  0.12509000000E+03  0.12509000000E+03 0.  0.
        -13    1    3    3    0    0  0.18143976797E+01 -0.31397452026E+02  0.42368271158E+02  0.52765268858E+02  0.10566000000E+00 0.  1.
         23    2    1    0    0    0  0.23178473863E+02 -0.34768565635E+01  0.17902290560E+02  0.95597251917E+02  0.90934110127E+02 0.  0.
         13    1    3    3    0    0  0.21364076183E+02  0.27920595462E+02 -0.24465980598E+02  0.42831983059E+02  0.10566000000E+00 0. -1.
         22    1    1    0    0    0 -0.23178473863E+02  0.34768565635E+01 -0.17902290560E+02  0.29492748083E+02  0.00000000000E+00 0.  1.
</event>
<event>
 5    1  0.1262391E-009  0.9118800E+02  0.7815553E-02  0.1125453E+00
         25   -1    0    0    0    0  0.00000000000E+00  0.00000000000E+00  0.99999998245E-14  0.12509000000E+03  0.12509000000E+03 0.  0.
        -13    1    3    3    0    0 -0.39639198532E+02  0.29021188485E+02  0.37679656168E+02  0.61913351503E+02  0.10566000000E+00 0. -1.
         23    2    1    0    0    0 -0.12679807081E+02  0.14841022200E+02  0.20043840304E+02  0.97111633684E+02  0.92993980532E+02 0.  0.
         13    1    3    3    0    0  0.26959391452E+02 -0.14180166285E+02 -0.17635815863E+02  0.35198282181E+02  0.10566000000E+00 0.  1.
         22    1    1    0    0    0  0.12679807081E+02 -0.14841022200E+02 -0.20043840304E+02  0.27978366316E+02  0.00000000000E+00 0. -1.
</event>
<event>
 5    1  0.1262391E-009  0.9118800E+02  0.7815553E-02  0.1125453E+00
         25   -1    0    0    0    0  0.00000000000E+00  0.00000000000E+00  0.99999998245E-14  0.12509000000E+03  0.12509000000E+03 0.  0.
        -13    1    3    3    0    0  0.26283727111E+02  0.97850698972E+01  0.24115580463E+02  0.36988569705E+02  0.10566000000E+00 0.  1.
         23    2    1    0    0    0 -0.37490215974E+01 -0.25799925879E+02 -0.12454479127E+02  0.96197001045E+02  0.91755422845E+02 0.  0.
         13    1    3    3    0    0 -0.30032748708E+02 -0.35584995776E+02 -0.36570059590E+02  0.59208431340E+02  0.10566000000E+00 0. -1.
         22    1    1    0    0    0  0.37490215974E+01  0.25799925879E+02  0.12454479127E+02  0.28892998955E+02  0.00000000000E+00 0. -1.
</event>
<event>
 5    1  0.1262391E-009  0.9118800E+02  0.7815553E-02  0.1125453E+00
         25   -1    0    0    0    0  0.00000000000E+00  0.00000000000E+00  0.99999998245E-14  0.12509000000E+03  0.12509000000E+03 0.  0.
        -13    1    3    3    0    0 -0.26116216012E+02  0.40671420015E+02 -0.33573965799E+02  0.58851027929E+02  0.10566000000E+00 0. -1.
         23    2    1    0    0    0 -0.14587282226E+02  0.20224225745E+02  0.40603677965E+00  0.10015061397E+03  0.96995734456E+02 0.  0.
         13    1    3    3    0    0  0.11528933786E+02 -0.20447194270E+02  0.33980002579E+02  0.41299586039E+02  0.10566000000E+00 0.  1.
         22    1    1    0    0    0  0.14587282226E+02 -0.20224225745E+02 -0.40603677965E+00  0.24939386031E+02  0.00000000000E+00 0. -1.
</event>
<event>
 5    1  0.1262391E-009  0.9118800E+02  0.7815553E-02  0.1125453E+00
         25   -1    0    0    0    0  0.00000000000E+00  0.00000000000E+00  0.99999998245E-14  0.12509000000E+03  0.12509000000E+03 0.  0.
        -13    1    3    3    0    0 -0.27614509275E+02  0.15415776950E+01  0.31162365187E+02  0.41665834353E+02  0.10566000000E+00 0. -1.
         23    2    1    0    0    0  0.74195623207E+01  0.27838934561E+02 -0.13952157060E+01  0.96245541097E+02  0.91821573564E+02 0.  0.
         13    1    3    3    0    0  0.35034071595E+02  0.26297356866E+02 -0.32557580893E+02  0.54579706744E+02  0.10566000000E+00 0.  1.
         22    1    1    0    0    0 -0.74195623207E+01 -0.27838934561E+02  0.13952157060E+01  0.28844458903E+02  0.00000000000E+00 0.  1.
</event>
<event>
 5    1  0.1262391E-009  0.9118800E+02  0.7815553E-02  0.1125453E+00
         25   -1    0    0    0    0  0.00000000000E+00  0.00000000000E+00  0.99999998245E-14  0.12509000000E+03  0.12509000000E+03 0.  0.
        -13    1    3    3    0    0  0.18531487249E+02 -0.38531829815E+02 -0.10452751472E+02  0.44015782464E+02  0.10566000000E+00 0. -1.
         23    2    1    0    0    0 -0.24882366305E+01  0.47612480317E+01 -0.29003244648E+02  0.95593406901E+02  0.90928820725E+02 0.  0.
         13    1    3    3    0    0 -0.21019723880E+02  0.43293077846E+02 -0.18550493176E+02  0.51577624437E+02  0.10566000000E+00 0.  1.
         22    1    1    0    0    0  0.24882366305E+01 -0.47612480317E+01  0.29003244648E+02  0.29496593099E+02  0.00000000000E+00 0.  1.
</event>
<event>
 5    1  0.1262391E-009  0.9118800E+02  0.7815553E-02  0.1125453E+00
         25   -1    0    0    0    0  0.00000000000E+00  0.00000000000E+00  0.99999998245E-14  0.12509000000E+03  0.12509000000E+03 0.  0.
        -13    1    3    3    0    0  0.28717745594E+02 -0.33652141339E+02  0.33705512692E+02  0.55616978330E+02  0.10566000000E+00 0. -1.
         23    2    1    0    0    0  0.85379119363E+01 -0.30134260904E+02  0.15647534754E+01  0.93730502653E+02  0.88328868744E+02 0.  0.
         13    1    3    3    0    0 -0.20179833658E+02  0.35178804357E+01 -0.32140759217E+02  0.38113524322E+02  0.10566000000E+00 0.  1.
         22    1    1    0    0    0 -0.85379119363E+01  0.30134260904E+02 -0.15647534754E+01  0.31359497347E+02  0.00000000000E+00 0. -1.
</event>
<event>
 5    1  0.1262391E-009  0.9118800E+02  0.7815553E-02  0.1125453E+00
         25   -1    0    0    0    0  0.00000000000E+00  0.00000000000E+00  0.99999998245E-14  0.12509000000E+03  0.12509000000E+03 0.  0.
        -13    1    3    3    0    0 -0.26696184965E+02  0.62943652201E+01  0.17723585278E+02  0.32656423019E+02  0.10566000000E+00 0. -1.
         23    2    1    0    0    0  0.22497624939E+02  0.11445298714E+01 -0.20081202872E+02  0.94912064595E+02  0.89986622453E+02 0.  0.
         13    1    3    3    0    0  0.49193809904E+02 -0.51498353487E+01 -0.37804788151E+02  0.62255641577E+02  0.10566000000E+00 0.  1.
         22    1    1    0    0    0 -0.22497624939E+02 -0.11445298714E+01  0.20081202872E+02  0.30177935405E+02  0.00000000000E+00 0.  1.
</event>
<event>
 5    1  0.1262391E-009  0.9118800E+02  0.7815553E-02  0.1125453E+00
         25   -1    0    0    0    0  0.00000000000E+00  0.00000000000E+00  0.99999998245E-14  0.12509000000E+03  0.12509000000E+03 0.  0.
        -13    1    3    3    0    0  0.38415738454E+02  0.42832576835E+02  0.15752180587E+02  0.59653507496E+02  0.10566000000E+00 0.  1.
         23    2    1    0    0    0  0.28208243628E+02  0.11559365279E+02  0.54840725225E+01  0.94115833576E+02  0.88872893191E+02 0.  0.
         13    1    3    3    0    0 -0.10207494827E+02 -0.31273211556E+02 -0.10268108064E+02  0.34462326081E+02  0.10566000000E+00 0. -1.
         22    1    1    0    0    0 -0.28208243628E+02 -0.11559365279E+02 -0.54840725225E+01  0.30974166424E+02  0.00000000000E+00 0.  1.
</event>
<event>
 5    1  0.1262391E-009  0.9118800E+02  0.7815553E-02  0.1125453E+00
         25   -1    0    0    0    0  0.00000000000E+00  0.00000000000E+00  0.99999998245E-14  0.12509000000E+03  0.12509000000E+03 0.  0.
        -13    1    3    3    0    0  0.31670958031E+02 -0.35690846818E+02  0.40415758132E+02  0.62532637867E+02  0.10566000000E+00 0.  1.
         23    2    1    0    0    0  0.14502155933E+02 -0.17198275388E+02  0.19924574263E+02  0.95038679520E+02  0.90162457500E+02 0.  0.
         13    1    3    3    0    0 -0.17168802098E+02  0.18492571430E+02 -0.20491183869E+02  0.32506041653E+02  0.10566000000E+00 0. -1.
         22    1    1    0    0    0 -0.14502155933E+02  0.17198275388E+02 -0.19924574263E+02  0.30051320480E+02  0.00000000000E+00 0.  1.
</event>
<event>
 5    1  0.1262391E-009  0.9118800E+02  0.7815553E-02  0.1125453E+00
         25   -1    0    0    0    0  0.00000000000E+00  0.00000000000E+00  0.99999998245E-14  0.12509000000E+03  0.12509000000E+03 0.  0.
        -13    1    3    3    0    0 -0.10655362151E+02 -0.16946428823E+01  0.20191927706E+02  0.22893965703E+02  0.10566000000E+00 0.  1.
         23    2    1    0    0    0 -0.28049713651E+02  0.15615518642E+02 -0.31498961307E+02  0.80114279641E+02  0.66298434224E+02 0.  0.
         13    1    3    3    0    0 -0.17394351501E+02  0.17310161525E+02 -0.51690889014E+02  0.57220313938E+02  0.10566000000E+00 0. -1.
         22    1    1    0    0    0  0.28049713651E+02 -0.15615518642E+02  0.31498961307E+02  0.44975720359E+02  0.00000000000E+00 0. -1.
</event>
<event>
 5    1  0.1262391E-009  0.9118800E+02  0.7815553E-02  0.1125453E+00
         25   -1    0    0    0    0  0.00000000000E+00  0.00000000000E+00  0.99999998245E-14  0.12509000000E+03  0.12509000000E+03 0.  0.
        -13    1    3    3    0    0 -0.56186496616E+02  0.44968950493E+01  0.26405400535E+02  0.62244684982E+02  0.10566000000E+00 0. -1.
         23    2    1    0    0    0 -0.27998807258E+02 -0.15547985942E+01  0.10693112684E+02  0.95078447801E+02  0.90217614526E+02 0.  0.
         13    1    3    3    0    0  0.28187689358E+02 -0.60516936435E+01 -0.15712287851E+02  0.32833762819E+02  0.10566000000E+00 0.  1.
         22    1    1    0    0    0  0.27998807258E+02  0.15547985942E+01 -0.10693112684E+02  0.30011552199E+02  0.00000000000E+00 0. -1.
</event>
<event>
 5    1  0.1262391E-009  0.9118800E+02  0.7815553E-02  0.1125453E+00
         25   -1    0    0    0    0  0.00000000000E+00  0.00000000000E+00  0.99999998245E-14  0.12509000000E+03  0.12509000000E+03 0.  0.
        -13    1    3    3    0    0  0.44418844206E+02  0.12417334060E+02  0.60795058091E+00  0.46125965287E+02  0.10566000000E+00 0. -1.
         23    2    1    0    0    0  0.71188782440E+01  0.81852060027E+01  0.29604745401E+02  0.93560379403E+02  0.88087613312E+02 0.  0.
         13    1    3    3    0    0 -0.37299965962E+02 -0.42321280573E+01  0.28996794820E+02  0.47434414116E+02  0.10566000000E+00 0.  1.
         22    1    1    0    0    0 -0.71188782440E+01 -0.81852060027E+01 -0.29604745401E+02  0.31529620597E+02  0.00000000000E+00 0. -1.
</event>
<event>
 5    1  0.1262391E-009  0.9118800E+02  0.7815553E-02  0.1125453E+00
         25   -1    0    0    0    0  0.00000000000E+00  0.00000000000E+00  0.99999998245E-14  0.12509000000E+03  0.12509000000E+03 0.  0.
        -13    1    3    3    0    0  0.41998122641E+02  0.18407817045E+02 -0.13205291704E+02  0.47718769125E+02  0.10566000000E+00 0. -1.
         23    2    1    0    0    0  0.12239424248E+02 -0.21731622696E+02 -0.11261405873E+02  0.97724214918E+02  0.93814369839E+02 0.  0.
         13    1    3    3    0    0 -0.29758698393E+02 -0.40139439741E+02  0.19438858317E+01  0.50005445793E+02  0.10566000000E+00 0.  1.
         22    1    1    0    0    0 -0.12239424248E+02  0.21731622696E+02  0.11261405873E+02  0.27365785082E+02  0.00000000000E+00 0.  1.
</event>
<event>
 5    1  0.1262391E-009  0.9118800E+02  0.7815553E-02  0.1125453E+00
         25   -1    0    0    0    0  0.00000000000E+00  0.00000000000E+00  0.99999998245E-14  0.12509000000E+03  0.12509000000E+03 0.  0.
        -13    1    3    3    0    0  0.33686749481E+02 -0.14864790991E+02 -0.10855730287E+02  0.38387721290E+02  0.10566000000E+00 0.  1.
         23    2    1    0    0    0 -0.22630527893E+02 -0.96518985766E+01 -0.16861274951E+02  0.95263794545E+02  0.90474239534E+02 0.  0.
         13    1    3    3    0    0 -0.56317277374E+02  0.52128924143E+01 -0.60055446646E+01  0.56876073255E+02  0.10566000000E+00 0. -1.
         22    1    1    0    0    0  0.22630527893E+02  0.96518985766E+01  0.16861274951E+02  0.29826205455E+02  0.00000000000E+00 0. -1.
</event>
<event>
 5    1  0.1262391E-009  0.9118800E+02  0.7815553E-02  0.1125453E+00
         25   -1    0    0    0    0  0.00000000000E+00  0.00000000000E+00  0.99999998245E-14  0.12509000000E+03  0.12509000000E+03 0.  0.
        -13    1    3    3    0    0  0.26054915492E+02  0.34582419274E+02  0.15497443391E+02  0.45988958021E+02  0.10566000000E+00 0. -1.
         23    2    1    0    0    0  0.28423940559E+02 -0.81848279929E+01 -0.74579456195E+01  0.94585364958E+02  0.89531326949E+02 0.  0.
         13    1    3    3    0    0  0.23690250667E+01 -0.42767247267E+02 -0.22955389010E+02  0.48596406937E+02  0.10566000000E+00 0.  1.
         22    1    1    0    0    0 -0.28423940559E+02  0.81848279929E+01  0.74579456195E+01  0.30504635042E+02  0.00000000000E+00 0. -1.
</event>
<event>
 5    1  0.1262391E-009  0.9118800E+02  0.7815553E-02  0.1125453E+00
         25   -1    0    0    0    0  0.00000000000E+00  0.00000000000E+00  0.99999998245E-14  0.12509000000E+03  0.12509000000E+03 0.  0.
        -13    1    3    3    0    0 -0.42803987420E+01 -0.35732378728E+02 -0.10801632592E+02  0.37574075287E+02  0.10566000000E+00 0. -1.
         23    2    1    0    0    0  0.60872451291E+01  0.52617988235E+01  0.28605162923E+02  0.95374744222E+02  0.90627509121E+02 0.  0.
         13    1    3    3    0    0  0.10367643871E+02  0.40994177552E+02  0.39406795515E+02  0.57800668935E+02  0.10566000000E+00 0.  1.
         22    1    1    0    0    0 -0.60872451291E+01 -0.52617988235E+01 -0.28605162923E+02  0.29715255778E+02  0.00000000000E+00 0.  1.
</event>
<event>
 5    1  0.1262391E-009  0.9118800E+02  0.7815553E-02  0.1125453E+00
         25   -1    0    0    0    0  0.00000000000E+00  0.00000000000E+00  0.99999998245E-14  0.12509000000E+03  0.12509000000E+03 0.  0.
        -13    1    3    3    0    0 -0.77978542601E+01 -0.53932661023E+02  0.30930039199E+01  0.54581281529E+02  0.10566000000E+00 0.  1.
         23    2    1    0    0    0 -0.17407137548E+02 -0.15896429877E+02  0.16804853056E+02  0.96139904893E+02  0.91677550721E+02 0.  0.
         13    1    3    3    0    0 -0.96092832883E+01  0.38036231146E+02  0.13711849136E+02  0.41558623364E+02  0.10566000000E+00 0. -1.
         22    1    1    0    0    0  0.17407137548E+02  0.15896429877E+02 -0.16804853056E+02  0.28950095107E+02  0.00000000000E+00 0.  1.
</event>
<event>
 5    1  0.1262391E-009  0.9118800E+02  0.7815553E-02  0.1125453E+00
         25   -1    0    0    0    0  0.00000000000E+00  0.00000000000E+00  0.99999998245E-14  0.12509000000E+03  0.12509000000E+03 0.  0.
        -13    1    3    3    0    0  0.16438964226E+02 -0.37752283173E+02  0.43563482805E+02  0.59943828938E+02  0.10566000000E+00 0. -1.
         23    2    1    0    0    0  0.42247877192E+01 -0.26160977392E+02  0.11413650035E+02  0.96236629721E+02  0.91809432650E+02 0.  0.
         13    1    3    3    0    0 -0.12214176507E+02  0.11591305782E+02 -0.32149832770E+02  0.36292800783E+02  0.10566000000E+00 0.  1.
         22    1    1    0    0    0 -0.42247877192E+01  0.26160977392E+02 -0.11413650035E+02  0.28853370279E+02  0.00000000000E+00 0. -1.
</event>
<event>
 5    1  0.1262391E-009  0.9118800E+02  0.7815553E-02  0.1125453E+00
         25   -1    0    0    0    0  0.00000000000E+00  0.00000000000E+00  0.99999998245E-14  0.12509000000E+03  0.12509000000E+03 0.  0.
        -13    1    3    3    0    0  0.55965483335E+01  0.98047832768E+01 -0.45811683728E+02  0.47182376566E+02  0.10566000000E+00 0. -1.
         23    2    1    0    0    0  0.25832397806E+02 -0.13685698841E+02 -0.10859728236E+02  0.93904349028E+02  0.88574725175E+02 0.  0.
         13    1    3    3    0    0  0.20235849473E+02 -0.23490482118E+02  0.34951955492E+02  0.46721972462E+02  0.10566000000E+00 0.  1.
         22    1    1    0    0    0 -0.25832397806E+02  0.13685698841E+02  0.10859728236E+02  0.31185650972E+02  0.00000000000E+00 0. -1.
</event>
<event>
 5    1  0.1262391E-009  0.9118800E+02  0.7815553E-02  0.1125453E+00
         25   -1    0    0    0    0  0.00000000000E+00  0.00000000000E+00  0.99999998245E-14  0.12509000000E+03  0.12509000000E+03 0.  0.
        -13    1    3    3    0    0 -0.41322546835E+02  0.44496834275E+01  0.69155637839E+01  0.42132988810E+02  0.10566000000E+00 0. -1.
         23    2    1    0    0    0 -0.29404126125E+01 -0.21513651662E+02 -0.19870489911E+02  0.95656692278E+02  0.91015840238E+02 0.  0.
         13    1    3    3    0    0  0.38382134223E+02 -0.25963335089E+02 -0.26786053695E+02  0.53523703469E+02  0.10566000000E+00 0.  1.
         22    1    1    0    0    0  0.29404126125E+01  0.21513651662E+02  0.19870489911E+02  0.29433307722E+02  0.00000000000E+00 0.  1.
</event>
<event>
 5    1  0.1262391E-009  0.9118800E+02  0.7815553E-02  0.1125453E+00
         25   -1    0    0    0    0  0.00000000000E+00  0.00000000000E+00  0.99999998245E-14  0.12509000000E+03  0.12509000000E+03 0.  0.
        -13    1    3    3    0    0 -0.47648344169E+02 -0.95041532940E+01  0.35115241765E+02  0.59948185962E+02  0.10566000000E+00 0. -1.
         23    2    1    0    0    0 -0.18112806655E+02  0.60141085909E+01  0.22421696092E+02  0.95645548524E+02  0.91000523239E+02 0.  0.
         13    1    3    3    0    0  0.29535537514E+02  0.15518261885E+02 -0.12693545672E+02  0.35697362562E+02  0.10566000000E+00 0.  1.
         22    1    1    0    0    0  0.18112806655E+02 -0.60141085909E+01 -0.22421696092E+02  0.29444451476E+02  0.00000000000E+00 0. -1.
</event>
<event>
 5    1  0.1262391E-009  0.9118800E+02  0.7815553E-02  0.1125453E+00
         25   -1    0    0    0    0  0.00000000000E+00  0.00000000000E+00  0.99999998245E-14  0.12509000000E+03  0.12509000000E+03 0.  0.
        -13    1    3    3    0    0  0.56502443688E+02  0.21789912320E+02 -0.11641003940E+02  0.61667256777E+02  0.10566000000E+00 0.  1.
         23    2    1    0    0    0  0.26158134260E+02  0.13550749023E+02  0.11388840700E+01  0.95608347333E+02  0.90949371827E+02 0.  0.
         13    1    3    3    0    0 -0.30344309428E+02 -0.82391632974E+01  0.12779888010E+02  0.33941090556E+02  0.10566000000E+00 0. -1.
         22    1    1    0    0    0 -0.26158134260E+02 -0.13550749023E+02 -0.11388840700E+01  0.29481652667E+02  0.00000000000E+00 0.  1.
</event>
<event>
 5    1  0.1262391E-009  0.9118800E+02  0.7815553E-02  0.1125453E+00
         25   -1    0    0    0    0  0.00000000000E+00  0.00000000000E+00  0.99999998245E-14  0.12509000000E+03  0.12509000000E+03 0.  0.
        -13    1    3    3    0    0 -0.28678866902E+02  0.19916787847E+02  0.28820303068E+02  0.45274461652E+02  0.10566000000E+00 0. -1.
         23    2    1    0    0    0  0.11702208934E+02  0.27722089654E+02  0.89804161431E+00  0.94985807145E+02  0.90089073319E+02 0.  0.
         13    1    3    3    0    0  0.40381075836E+02  0.78053018069E+01 -0.27922261453E+02  0.49711345493E+02  0.10566000000E+00 0.  1.
         22    1    1    0    0    0 -0.11702208934E+02 -0.27722089654E+02 -0.89804161431E+00  0.30104192855E+02  0.00000000000E+00 0.  1.
</event>
<event>
 5    1  0.1262391E-009  0.9118800E+02  0.7815553E-02  0.1125453E+00
         25   -1    0    0    0    0  0.00000000000E+00  0.00000000000E+00  0.99999998245E-14  0.12509000000E+03  0.12509000000E+03 0.  0.
        -13    1    3    3    0    0 -0.32615174711E+01 -0.39010712041E+02 -0.21823083133E+02  0.44818871825E+02  0.10566000000E+00 0.  1.
         23    2    1    0    0    0 -0.18578270399E+02 -0.14443699847E+02  0.18985578295E+02  0.94853849790E+02  0.89905661894E+02 0.  0.
         13    1    3    3    0    0 -0.15316752928E+02  0.24567012194E+02  0.40808661428E+02  0.50034977966E+02  0.10566000000E+00 0. -1.
         22    1    1    0    0    0  0.18578270399E+02  0.14443699847E+02 -0.18985578295E+02  0.30236150210E+02  0.00000000000E+00 0. -1.
</event>
<event>
 5    1  0.1262391E-009  0.9118800E+02  0.7815553E-02  0.1125453E+00
         25   -1    0    0    0    0  0.00000000000E+00  0.00000000000E+00  0.99999998245E-14  0.12509000000E+03  0.12509000000E+03 0.  0.
        -13    1    3    3    0    0  0.38040309339E+02  0.15178393201E+01  0.97198041631E+01  0.39291916825E+02  0.10566000000E+00 0.  1.
         23    2    1    0    0    0 -0.34805123657E+01  0.23704409992E+02 -0.19064978454E+02  0.94471599930E+02  0.89372237135E+02 0.  0.
         13    1    3    3    0    0 -0.41520821704E+02  0.22186570672E+02 -0.28784782617E+02  0.55179683105E+02  0.10566000000E+00 0. -1.
         22    1    1    0    0    0  0.34805123657E+01 -0.23704409992E+02  0.19064978454E+02  0.30618400070E+02  0.00000000000E+00 0. -1.
</event>
<event>
 5    1  0.1262391E-009  0.9118800E+02  0.7815553E-02  0.1125453E+00
         25   -1    0    0    0    0  0.00000000000E+00  0.00000000000E+00  0.99999998245E-14  0.12509000000E+03  0.12509000000E+03 0.  0.
        -13    1    3    3    0    0  0.23672713673E+02 -0.56346416833E+02 -0.77532901744E+01  0.61607148409E+02  0.10566000000E+00 0. -1.
         23    2    1    0    0    0  0.39221936674E+01 -0.28039095746E+02 -0.58744502966E+01  0.96174888731E+02  0.91725272214E+02 0.  0.
         13    1    3    3    0    0 -0.19750520005E+02  0.28307321088E+02  0.18788398778E+01  0.34567740322E+02  0.10566000000E+00 0.  1.
         22    1    1    0    0    0 -0.39221936674E+01  0.28039095746E+02  0.58744502966E+01  0.28915111269E+02  0.00000000000E+00 0. -1.
</event>
<event>
 5    1  0.1262391E-009  0.9118800E+02  0.7815553E-02  0.1125453E+00
         25   -1    0    0    0    0  0.00000000000E+00  0.00000000000E+00  0.99999998245E-14  0.12509000000E+03  0.12509000000E+03 0.  0.
        -13    1    3    3    0    0 -0.31879954760E+02 -0.27356676110E+01  0.12252963772E+02  0.34263124172E+02  0.10566000000E+00 0.  1.
         23    2    1    0    0    0  0.28006082937E+02 -0.96148137100E+01  0.61135893264E+01  0.94854899560E+02  0.89907122477E+02 0.  0.
         13    1    3    3    0    0  0.59886037697E+02 -0.68791460990E+01 -0.61393744452E+01  0.60591775388E+02  0.10566000000E+00 0. -1.
         22    1    1    0    0    0 -0.28006082937E+02  0.96148137100E+01 -0.61135893264E+01  0.30235100440E+02  0.00000000000E+00 0. -1.
</event>
<event>
 5    1  0.1262391E-009  0.9118800E+02  0.7815553E-02  0.1125453E+00
         25   -1    0    0    0    0  0.00000000000E+00  0.00000000000E+00  0.99999998245E-14  0.12509000000E+03  0.12509000000E+03 0.  0.
        -13    1    3    3    0    0  0.33955291203E+02  0.93693913664E+01  0.16288239582E+02  0.38808055967E+02  0.10566000000E+00 0.  1.
         23    2    1    0    0    0 -0.19764291426E+02  0.21870730967E+02  0.37085669138E+01  0.95379571575E+02  0.90634171904E+02 0.  0.
         13    1    3    3    0    0 -0.53719582629E+02  0.12501339601E+02 -0.12579672668E+02  0.56571515608E+02  0.10566000000E+00 0. -1.
         22    1    1    0    0    0  0.19764291426E+02 -0.21870730967E+02 -0.37085669138E+01  0.29710428425E+02  0.00000000000E+00 0. -1.
</event>
<event>
 5    1  0.1262391E-009  0.9118800E+02  0.7815553E-02  0.1125453E+00
         25   -1    0    0    0    0  0.00000000000E+00  0.00000000000E+00  0.99999998245E-14  0.12509000000E+03  0.12509000000E+03 0.  0.
        -13    1    3    3    0    0  0.12954020540E+02  0.50233070295E+02 -0.14789685342E+02  0.53943618307E+02  0.10566000000E+00 0.  1.
         23    2    1    0    0    0  0.23636771019E+02  0.13488504408E+02  0.56032537162E+01  0.97304515524E+02  0.93253072839E+02 0.  0.
         13    1    3    3    0    0  0.10682750478E+02 -0.36744565888E+02  0.20392939058E+02  0.43360897218E+02  0.10566000000E+00 0. -1.
         22    1    1    0    0    0 -0.23636771019E+02 -0.13488504408E+02 -0.56032537162E+01  0.27785484476E+02  0.00000000000E+00 0. -1.
</event>
<event>
 5    1  0.1262391E-009  0.9118800E+02  0.7815553E-02  0.1125453E+00
         25   -1    0    0    0    0  0.00000000000E+00  0.00000000000E+00  0.99999998245E-14  0.12509000000E+03  0.12509000000E+03 0.  0.
        -13    1    3    3    0    0 -0.51271567228E+02  0.79723176100E+01  0.46718933024E+01  0.52097689058E+02  0.10566000000E+00 0.  1.
         23    2    1    0    0    0 -0.18109123776E+02  0.34086573365E+01 -0.23062888376E+02  0.95569564213E+02  0.90896014626E+02 0.  0.
         13    1    3    3    0    0  0.33162443451E+02 -0.45636602735E+01 -0.27734781679E+02  0.43471875156E+02  0.10566000000E+00 0. -1.
         22    1    1    0    0    0  0.18109123776E+02 -0.34086573365E+01  0.23062888376E+02  0.29520435787E+02  0.00000000000E+00 0.  1.
</event>
<event>
 5    1  0.1262391E-009  0.9118800E+02  0.7815553E-02  0.1125453E+00
         25   -1    0    0    0    0  0.00000000000E+00  0.00000000000E+00  0.99999998245E-14  0.12509000000E+03  0.12509000000E+03 0.  0.
        -13    1    3    3    0    0  0.44339356296E+01  0.17800487363E+02  0.45693837821E+02  0.49238756222E+02  0.10566000000E+00 0. -1.
         23    2    1    0    0    0  0.70315965874E+01  0.27920119012E+02 -0.19027692348E+00  0.96297421068E+02  0.91892223299E+02 0.  0.
         13    1    3    3    0    0  0.25976609578E+01  0.10119631650E+02 -0.45884114744E+02  0.47058664846E+02  0.10566000000E+00 0.  1.
         22    1    1    0    0    0 -0.70315965874E+01 -0.27920119012E+02  0.19027692348E+00  0.28792578932E+02  0.00000000000E+00 0. -1.
</event>
<event>
 5    1  0.1262391E-009  0.9118800E+02  0.7815553E-02  0.1125453E+00
         25   -1    0    0    0    0  0.00000000000E+00  0.00000000000E+00  0.99999998245E-14  0.12509000000E+03  0.12509000000E+03 0.  0.
        -13    1    3    3    0    0  0.24038578586E+02  0.23707008749E+02 -0.33032567345E+02  0.47233856435E+02  0.10566000000E+00 0. -1.
         23    2    1    0    0    0 -0.93448364098E+01 -0.10718973766E+02 -0.25662044157E+02  0.95751239351E+02  0.91145690851E+02 0.  0.
         13    1    3    3    0    0 -0.33383414996E+02 -0.34425982515E+02  0.73705231880E+01  0.48517382916E+02  0.10566000000E+00 0.  1.
         22    1    1    0    0    0  0.93448364098E+01  0.10718973766E+02  0.25662044157E+02  0.29338760649E+02  0.00000000000E+00 0. -1.
</event>
<event>
 5    1  0.1262391E-009  0.9118800E+02  0.7815553E-02  0.1125453E+00
         25   -1    0    0    0    0  0.00000000000E+00  0.00000000000E+00  0.99999998245E-14  0.12509000000E+03  0.12509000000E+03 0.  0.
        -13    1    3    3    0    0  0.24674120242E+02 -0.23458291799E+02 -0.13896814594E+02  0.36772765516E+02  0.10566000000E+00 0.  1.
         23    2    1    0    0    0  0.97524353534E+01  0.27317108281E+02  0.94040773473E+01  0.94597852308E+02  0.89548772132E+02 0.  0.
         13    1    3    3    0    0 -0.14921684888E+02  0.50775400080E+02  0.23300891941E+02  0.57825086791E+02  0.10566000000E+00 0. -1.
         22    1    1    0    0    0 -0.97524353534E+01 -0.27317108281E+02 -0.94040773473E+01  0.30492147692E+02  0.00000000000E+00 0. -1.
</event>
<event>
 5    1  0.1262391E-009  0.9118800E+02  0.7815553E-02  0.1125453E+00
         25   -1    0    0    0    0  0.00000000000E+00  0.00000000000E+00  0.99999998245E-14  0.12509000000E+03  0.12509000000E+03 0.  0.
        -13    1    3    3    0    0  0.22689302022E+02  0.27088735424E+01  0.35320260829E+02  0.42067498275E+02  0.10566000000E+00 0.  1.
         23    2    1    0    0    0  0.11361507525E+02  0.25978925919E+02 -0.10632585163E+02  0.94807326532E+02  0.89840908565E+02 0.  0.
         13    1    3    3    0    0 -0.11327794497E+02  0.23270052376E+02 -0.45952845991E+02  0.52739828256E+02  0.10566000000E+00 0. -1.
         22    1    1    0    0    0 -0.11361507525E+02 -0.25978925919E+02  0.10632585163E+02  0.30282673468E+02  0.00000000000E+00 0. -1.
</event>
<event>
 5    1  0.1262391E-009  0.9118800E+02  0.7815553E-02  0.1125453E+00
         25   -1    0    0    0    0  0.00000000000E+00  0.00000000000E+00  0.99999998245E-14  0.12509000000E+03  0.12509000000E+03 0.  0.
        -13    1    3    3    0    0  0.28379591223E+02 -0.36029803939E+02 -0.33063684656E+02  0.56539953811E+02  0.10566000000E+00 0.  1.
         23    2    1    0    0    0  0.42665902127E+01 -0.23661161666E+02  0.21235861865E+01  0.10095363777E+03  0.98025879221E+02 0.  0.
         13    1    3    3    0    0 -0.24113001010E+02  0.12368642273E+02  0.35187270842E+02  0.44413683958E+02  0.10566000000E+00 0. -1.
         22    1    1    0    0    0 -0.42665902127E+01  0.23661161666E+02 -0.21235861865E+01  0.24136362231E+02  0.00000000000E+00 0. -1.
</event>
<event>
 5    1  0.1262391E-009  0.9118800E+02  0.7815553E-02  0.1125453E+00
         25   -1    0    0    0    0  0.00000000000E+00  0.00000000000E+00  0.99999998245E-14  0.12509000000E+03  0.12509000000E+03 0.  0.
        -13    1    3    3    0    0  0.14181346542E+02 -0.66457863527E+01 -0.45823644369E+02  0.48426176943E+02  0.10566000000E+00 0. -1.
         23    2    1    0    0    0  0.27879069300E+02 -0.10796881756E+02 -0.13318823442E+01  0.95163605776E+02  0.90335611986E+02 0.  0.
         13    1    3    3    0    0  0.13697722758E+02 -0.41510954035E+01  0.44491762025E+02  0.46737428833E+02  0.10566000000E+00 0.  1.
         22    1    1    0    0    0 -0.27879069300E+02  0.10796881756E+02  0.13318823442E+01  0.29926394224E+02  0.00000000000E+00 0.  1.
</event>
<event>
 5    1  0.1262391E-009  0.9118800E+02  0.7815553E-02  0.1125453E+00
         25   -1    0    0    0    0  0.00000000000E+00  0.00000000000E+00  0.99999998245E-14  0.12509000000E+03  0.12509000000E+03 0.  0.
        -13    1    3    3    0    0  0.10140399649E+02  0.50334729313E+02  0.28378868039E+02  0.58666719656E+02  0.10566000000E+00 0. -1.
         23    2    1    0    0    0  0.16947198024E+02  0.26197710653E+02  0.40153337529E+01  0.93631289450E+02  0.88188252588E+02 0.  0.
         13    1    3    3    0    0  0.68067983754E+01 -0.24137018660E+02 -0.24363534286E+02  0.34964569794E+02  0.10566000000E+00 0.  1.
         22    1    1    0    0    0 -0.16947198024E+02 -0.26197710653E+02 -0.40153337529E+01  0.31458710550E+02  0.00000000000E+00 0. -1.
</event>
<event>
 5    1  0.1262391E-009  0.9118800E+02  0.7815553E-02  0.1125453E+00
         25   -1    0    0    0    0  0.00000000000E+00  0.00000000000E+00  0.99999998245E-14  0.12509000000E+03  0.12509000000E+03 0.  0.
        -13    1    3    3    0    0 -0.13387233714E+02 -0.14217344529E+02  0.32803932807E+02  0.38176695557E+02  0.10566000000E+00 0. -1.
         23    2    1    0    0    0  0.31897731001E+02 -0.14647037550E+02  0.12202528061E+02  0.87929501577E+02  0.79691245469E+02 0.  0.
         13    1    3    3    0    0  0.45284964715E+02 -0.42969302128E+00 -0.20601404746E+02  0.49752806020E+02  0.10566000000E+00 0.  1.
         22    1    1    0    0    0 -0.31897731001E+02  0.14647037550E+02 -0.12202528061E+02  0.37160498423E+02  0.00000000000E+00 0.  1.
</event>
<event>
 5    1  0.1262391E-009  0.9118800E+02  0.7815553E-02  0.1125453E+00
         25   -1    0    0    0    0  0.00000000000E+00  0.00000000000E+00  0.99999998245E-14  0.12509000000E+03  0.12509000000E+03 0.  0.
        -13    1    3    3    0    0 -0.33858042483E+02  0.82346959537E+00 -0.15932153717E+02  0.37428462820E+02  0.10566000000E+00 0. -1.
         23    2    1    0    0    0  0.16698840668E+02 -0.24314965335E+02 -0.23593532681E+01  0.95498863375E+02  0.90798664854E+02 0.  0.
         13    1    3    3    0    0  0.50556883150E+02 -0.25138434931E+02  0.13572800449E+02  0.58070400556E+02  0.10566000000E+00 0.  1.
         22    1    1    0    0    0 -0.16698840668E+02  0.24314965335E+02  0.23593532681E+01  0.29591136625E+02  0.00000000000E+00 0.  1.
</event>
<event>
 5    1  0.1262391E-009  0.9118800E+02  0.7815553E-02  0.1125453E+00
         25   -1    0    0    0    0  0.00000000000E+00  0.00000000000E+00  0.99999998245E-14  0.12509000000E+03  0.12509000000E+03 0.  0.
        -13    1    3    3    0    0  0.80741219399E+01  0.16473017095E+02 -0.43117143585E+02  0.46857773873E+02  0.10566000000E+00 0. -1.
         23    2    1    0    0    0 -0.19604778499E+02 -0.14007093464E+02 -0.16607772876E+02  0.95826300179E+02  0.91248647545E+02 0.  0.
         13    1    3    3    0    0 -0.27678900438E+02 -0.30480110559E+02  0.26509370709E+02  0.48968526307E+02  0.10566000000E+00 0.  1.
         22    1    1    0    0    0  0.19604778499E+02  0.14007093464E+02  0.16607772876E+02  0.29263699821E+02  0.00000000000E+00 0. -1.
</event>
<event>
 5    1  0.1262391E-009  0.9118800E+02  0.7815553E-02  0.1125453E+00
         25   -1    0    0    0    0  0.00000000000E+00  0.00000000000E+00  0.99999998245E-14  0.12509000000E+03  0.12509000000E+03 0.  0.
        -13    1    3    3    0    0 -0.20861368707E+02 -0.22971906151E+02  0.89443565135E+01  0.32294238712E+02  0.10566000000E+00 0.  1.
         23    2    1    0    0    0  0.20125708444E+02  0.20265370498E+02  0.16107128820E+02  0.92300230550E+02  0.86279566405E+02 0.  0.
         13    1    3    3    0    0  0.40987077150E+02  0.43237276648E+02  0.71627723063E+01  0.60005991838E+02  0.10566000000E+00 0. -1.
         22    1    1    0    0    0 -0.20125708444E+02 -0.20265370498E+02 -0.16107128820E+02  0.32789769450E+02  0.00000000000E+00 0. -1.
</event>
<event>
 5    1  0.1262391E-009  0.9118800E+02  0.7815553E-02  0.1125453E+00
         25   -1    0    0    0    0  0.00000000000E+00  0.00000000000E+00  0.99999998245E-14  0.12509000000E+03  0.12509000000E+03 0.  0.
        -13    1    3    3    0    0  0.47955704643E+02  0.13094922865E+01  0.34647028926E+02  0.59176787301E+02  0.10566000000E+00 0.  1.
         23    2    1    0    0    0  0.26024896397E+02 -0.13094979790E+02  0.13021243663E+02  0.93178771338E+02  0.87544028427E+02 0.  0.
         13    1    3    3    0    0 -0.21930808246E+02 -0.14404472077E+02 -0.21625785263E+02  0.34001984036E+02  0.10566000000E+00 0. -1.
         22    1    1    0    0    0 -0.26024896397E+02  0.13094979790E+02 -0.13021243663E+02  0.31911228662E+02  0.00000000000E+00 0.  1.
</event>
<event>
 5    1  0.1262391E-009  0.9118800E+02  0.7815553E-02  0.1125453E+00
         25   -1    0    0    0    0  0.00000000000E+00  0.00000000000E+00  0.99999998245E-14  0.12509000000E+03  0.12509000000E+03 0.  0.
        -13    1    3    3    0    0 -0.30964279517E+02 -0.18738049088E+02  0.52112572593E+01  0.36565960344E+02  0.10566000000E+00 0. -1.
         23    2    1    0    0    0  0.18669376073E+02  0.99853057959E+01  0.20188634630E+02  0.95835378091E+02  0.91261091330E+02 0.  0.
         13    1    3    3    0    0  0.49633655591E+02  0.28723354884E+02  0.14977377371E+02  0.59269417747E+02  0.10566000000E+00 0.  1.
         22    1    1    0    0    0 -0.18669376073E+02 -0.99853057959E+01 -0.20188634630E+02  0.29254621909E+02  0.00000000000E+00 0.  1.
</event>
<event>
 5    1  0.1262391E-009  0.9118800E+02  0.7815553E-02  0.1125453E+00
         25   -1    0    0    0    0  0.00000000000E+00  0.00000000000E+00  0.99999998245E-14  0.12509000000E+03  0.12509000000E+03 0.  0.
        -13    1    3    3    0    0 -0.28014290641E+02 -0.30647253914E+02  0.46762185612E+01  0.41784361149E+02  0.10566000000E+00 0. -1.
         23    2    1    0    0    0 -0.56422271849E+01  0.14182038085E+02  0.24957348805E+02  0.95835356074E+02  0.91261061153E+02 0.  0.
         13    1    3    3    0    0  0.22372063456E+02  0.44829291999E+02  0.20281130244E+02  0.54050994925E+02  0.10566000000E+00 0.  1.
         22    1    1    0    0    0  0.56422271849E+01 -0.14182038085E+02 -0.24957348805E+02  0.29254643926E+02  0.00000000000E+00 0.  1.
</event>
<event>
 5    1  0.1262391E-009  0.9118800E+02  0.7815553E-02  0.1125453E+00
         25   -1    0    0    0    0  0.00000000000E+00  0.00000000000E+00  0.99999998245E-14  0.12509000000E+03  0.12509000000E+03 0.  0.
        -13    1    3    3    0    0 -0.23033909899E+00 -0.47297564061E+02 -0.54031908517E+00  0.47301329062E+02  0.10566000000E+00 0. -1.
         23    2    1    0    0    0 -0.38762457368E+01 -0.46577054443E+01 -0.26868224170E+02  0.97546925170E+02  0.93577677034E+02 0.  0.
         13    1    3    3    0    0 -0.36459066378E+01  0.42639858617E+02 -0.26327905085E+02  0.50245596109E+02  0.10566000000E+00 0.  1.
         22    1    1    0    0    0  0.38762457368E+01  0.46577054443E+01  0.26868224170E+02  0.27543074830E+02  0.00000000000E+00 0. -1.
</event>
<event>
 5    1  0.1262391E-009  0.9118800E+02  0.7815553E-02  0.1125453E+00
         25   -1    0    0    0    0  0.00000000000E+00  0.00000000000E+00  0.99999998245E-14  0.12509000000E+03  0.12509000000E+03 0.  0.
        -13    1    3    3    0    0 -0.13281212695E+02 -0.52931624712E+02  0.15297048086E+02  0.56675906251E+02  0.10566000000E+00 0.  1.
         23    2    1    0    0    0  0.52760599352E+01 -0.18753455162E+02  0.21519841401E+02  0.96061867734E+02  0.91571010531E+02 0.  0.
         13    1    3    3    0    0  0.18557272630E+02  0.34178169549E+02  0.62227933149E+01  0.39385961482E+02  0.10566000000E+00 0. -1.
         22    1    1    0    0    0 -0.52760599352E+01  0.18753455162E+02 -0.21519841401E+02  0.29028132266E+02  0.00000000000E+00 0. -1.
</event>
<event>
 5    1  0.1262391E-009  0.9118800E+02  0.7815553E-02  0.1125453E+00
         25   -1    0    0    0    0  0.00000000000E+00  0.00000000000E+00  0.99999998245E-14  0.12509000000E+03  0.12509000000E+03 0.  0.
        -13    1    3    3    0    0  0.27582932338E+02 -0.13212930775E+02 -0.51613756559E+02  0.59994922504E+02  0.10566000000E+00 0.  1.
         23    2    1    0    0    0  0.10415974034E+02 -0.17527822456E+02 -0.18424884691E+02  0.97609216695E+02  0.93660908243E+02 0.  0.
         13    1    3    3    0    0 -0.17166958304E+02 -0.43148916816E+01  0.33188871868E+02  0.37614294192E+02  0.10566000000E+00 0. -1.
         22    1    1    0    0    0 -0.10415974034E+02  0.17527822456E+02  0.18424884691E+02  0.27480783305E+02  0.00000000000E+00 0.  1.
</event>
<event>
 5    1  0.1262391E-009  0.9118800E+02  0.7815553E-02  0.1125453E+00
         25   -1    0    0    0    0  0.00000000000E+00  0.00000000000E+00  0.99999998245E-14  0.12509000000E+03  0.12509000000E+03 0.  0.
        -13    1    3    3    0    0  0.22919027652E+02 -0.75787922909E+01  0.50881977623E+02  0.56317907738E+02  0.10566000000E+00 0. -1.
         23    2    1    0    0    0  0.20223868590E+02 -0.21452781372E+02  0.22575739628E+02  0.87956582314E+02  0.79733742313E+02 0.  0.
         13    1    3    3    0    0 -0.26951590624E+01 -0.13873989081E+02 -0.28306237996E+02  0.31638674576E+02  0.10566000000E+00 0.  1.
         22    1    1    0    0    0 -0.20223868590E+02  0.21452781372E+02 -0.22575739628E+02  0.37133417686E+02  0.00000000000E+00 0. -1.
</event>
<event>
 5    1  0.1262391E-009  0.9118800E+02  0.7815553E-02  0.1125453E+00
         25   -1    0    0    0    0  0.00000000000E+00  0.00000000000E+00  0.99999998245E-14  0.12509000000E+03  0.12509000000E+03 0.  0.
        -13    1    3    3    0    0  0.34730449930E+02 -0.38616455627E+02 -0.33610176049E+02  0.61863477882E+02  0.10566000000E+00 0.  1.
         23    2    1    0    0    0  0.21376953880E+02 -0.25770193037E+02 -0.14132658739E+02  0.88747063280E+02  0.80964388416E+02 0.  0.
         13    1    3    3    0    0 -0.13353496050E+02  0.12846262590E+02  0.19477517310E+02  0.26883585399E+02  0.10566000000E+00 0. -1.
         22    1    1    0    0    0 -0.21376953880E+02  0.25770193037E+02  0.14132658739E+02  0.36342936720E+02  0.00000000000E+00 0.  1.
</event>
<event>
 5    1  0.1262391E-009  0.9118800E+02  0.7815553E-02  0.1125453E+00
         25   -1    0    0    0    0  0.00000000000E+00  0.00000000000E+00  0.99999998245E-14  0.12509000000E+03  0.12509000000E+03 0.  0.
        -13    1    3    3    0    0 -0.23711428040E+02  0.46697492020E+02 -0.16826197338E+02  0.55009268870E+02  0.10566000000E+00 0.  1.
         23    2    1    0    0    0 -0.60284311716E+01  0.11348823528E+02 -0.26445134041E+02  0.95687910069E+02  0.91058735116E+02 0.  0.
         13    1    3    3    0    0  0.17682996868E+02 -0.35348668493E+02 -0.96189367037E+01  0.40678641199E+02  0.10566000000E+00 0. -1.
         22    1    1    0    0    0  0.60284311716E+01 -0.11348823528E+02  0.26445134041E+02  0.29402089931E+02  0.00000000000E+00 0.  1.
</event>
<event>
 5    1  0.1262391E-009  0.9118800E+02  0.7815553E-02  0.1125453E+00
         25   -1    0    0    0    0  0.00000000000E+00  0.00000000000E+00  0.99999998245E-14  0.12509000000E+03  0.12509000000E+03 0.  0.
        -13    1    3    3    0    0  0.32378106850E+02 -0.46525533767E+02  0.30157970928E+01  0.56763309378E+02  0.10566000000E+00 0.  1.
         23    2    1    0    0    0  0.28119876061E+02 -0.83845653091E+01  0.55559244965E+01  0.95225361008E+02  0.90421085578E+02 0.  0.
         13    1    3    3    0    0 -0.42582307889E+01  0.38140968457E+02  0.25401274037E+01  0.38462051630E+02  0.10566000000E+00 0. -1.
         22    1    1    0    0    0 -0.28119876061E+02  0.83845653091E+01 -0.55559244965E+01  0.29864638992E+02  0.00000000000E+00 0.  1.
</event>
<event>
 5    1  0.1262391E-009  0.9118800E+02  0.7815553E-02  0.1125453E+00
         25   -1    0    0    0    0  0.00000000000E+00  0.00000000000E+00  0.99999998245E-14  0.12509000000E+03  0.12509000000E+03 0.  0.
        -13    1    3    3    0    0  0.28450671465E+02  0.37884233345E+02 -0.50939426115E+01  0.47650973320E+02  0.10566000000E+00 0.  1.
         23    2    1    0    0    0  0.53425035719E+01  0.45807688124E+00 -0.27540199377E+02  0.97032652289E+02  0.92887678675E+02 0.  0.
         13    1    3    3    0    0 -0.23108167893E+02 -0.37426156464E+02 -0.22446256765E+02  0.49381678969E+02  0.10566000000E+00 0. -1.
         22    1    1    0    0    0 -0.53425035719E+01 -0.45807688124E+00  0.27540199377E+02  0.28057347711E+02  0.00000000000E+00 0.  1.
</event>
<event>
 5    1  0.1262391E-009  0.9118800E+02  0.7815553E-02  0.1125453E+00
         25   -1    0    0    0    0  0.00000000000E+00  0.00000000000E+00  0.99999998245E-14  0.12509000000E+03  0.12509000000E+03 0.  0.
        -13    1    3    3    0    0  0.67880890481E-01  0.30624720278E+02  0.12001023918E+02  0.32892458696E+02  0.10566000000E+00 0.  1.
         23    2    1    0    0    0  0.34960856203E+00 -0.20103044851E+02 -0.23012573602E+02  0.94531315765E+02  0.89455779455E+02 0.  0.
         13    1    3    3    0    0  0.28172767155E+00 -0.50727765129E+02 -0.35013597519E+02  0.61638857069E+02  0.10566000000E+00 0. -1.
         22    1    1    0    0    0 -0.34960856203E+00  0.20103044851E+02  0.23012573602E+02  0.30558684235E+02  0.00000000000E+00 0. -1.
</event>
<event>
 5    1  0.1262391E-009  0.9118800E+02  0.7815553E-02  0.1125453E+00
         25   -1    0    0    0    0  0.00000000000E+00  0.00000000000E+00  0.99999998245E-14  0.12509000000E+03  0.12509000000E+03 0.  0.
        -13    1    3    3    0    0  0.19548871316E+02 -0.20888807604E+02  0.47625567459E+02  0.55558136152E+02  0.10566000000E+00 0. -1.
         23    2    1    0    0    0  0.18863116222E+02 -0.18735612981E+02  0.52548627602E+01  0.97989189495E+02  0.94167018259E+02 0.  0.
         13    1    3    3    0    0 -0.68575509344E+00  0.21531946228E+01 -0.42370704699E+02  0.42431053343E+02  0.10566000000E+00 0.  1.
         22    1    1    0    0    0 -0.18863116222E+02  0.18735612981E+02 -0.52548627602E+01  0.27100810505E+02  0.00000000000E+00 0. -1.
</event>
<event>
 5    1  0.1262391E-009  0.9118800E+02  0.7815553E-02  0.1125453E+00
         25   -1    0    0    0    0  0.00000000000E+00  0.00000000000E+00  0.99999998245E-14  0.12509000000E+03  0.12509000000E+03 0.  0.
        -13    1    3    3    0    0  0.95465557290E+01  0.40015217819E+02 -0.38687280608E+01  0.41319881465E+02  0.10566000000E+00 0. -1.
         23    2    1    0    0    0 -0.28576292943E+02  0.28246571399E+00 -0.11020665674E+00  0.96512098560E+02  0.92183993826E+02 0.  0.
         13    1    3    3    0    0 -0.38122848672E+02 -0.39732752105E+02  0.37585214040E+01  0.55192217095E+02  0.10566000000E+00 0.  1.
         22    1    1    0    0    0  0.28576292943E+02 -0.28246571399E+00  0.11020665674E+00  0.28577901440E+02  0.00000000000E+00 0.  1.
</event>
<event>
 5    1  0.1262391E-009  0.9118800E+02  0.7815553E-02  0.1125453E+00
         25   -1    0    0    0    0  0.00000000000E+00  0.00000000000E+00  0.99999998245E-14  0.12509000000E+03  0.12509000000E+03 0.  0.
        -13    1    3    3    0    0  0.44176985241E+02 -0.34173965736E+02 -0.24842138469E+02  0.61127808458E+02  0.10566000000E+00 0.  1.
         23    2    1    0    0    0  0.20291156255E+02 -0.23053342482E+02 -0.53169603951E+01  0.93921783984E+02  0.88599344338E+02 0.  0.
         13    1    3    3    0    0 -0.23885828986E+02  0.11120623254E+02  0.19525178074E+02  0.32793975526E+02  0.10566000000E+00 0. -1.
         22    1    1    0    0    0 -0.20291156255E+02  0.23053342482E+02  0.53169603951E+01  0.31168216016E+02  0.00000000000E+00 0.  1.
</event>
<event>
 5    1  0.1262391E-009  0.9118800E+02  0.7815553E-02  0.1125453E+00
         25   -1    0    0    0    0  0.00000000000E+00  0.00000000000E+00  0.99999998245E-14  0.12509000000E+03  0.12509000000E+03 0.  0.
        -13    1    3    3    0    0 -0.46719052266E+02 -0.28791694942E+02 -0.22950431195E+02  0.59484157541E+02  0.10566000000E+00 0. -1.
         23    2    1    0    0    0 -0.19163022965E+02 -0.76335292215E+01 -0.22958179173E+02  0.94226263861E+02  0.89028189877E+02 0.  0.
         13    1    3    3    0    0  0.27556029301E+02  0.21158165720E+02 -0.77479776773E-02  0.34742106320E+02  0.10566000000E+00 0.  1.
         22    1    1    0    0    0  0.19163022965E+02  0.76335292215E+01  0.22958179173E+02  0.30863736139E+02  0.00000000000E+00 0. -1.
</event>
<event>
 5    1  0.1262391E-009  0.9118800E+02  0.7815553E-02  0.1125453E+00
         25   -1    0    0    0    0  0.00000000000E+00  0.00000000000E+00  0.99999998245E-14  0.12509000000E+03  0.12509000000E+03 0.  0.
        -13    1    3    3    0    0 -0.37081542710E+02  0.47612666737E+01 -0.26800310330E+02  0.45999763781E+02  0.10566000000E+00 0.  1.
         23    2    1    0    0    0  0.11245569461E+02  0.15641070790E+02 -0.22120423870E+02  0.95757099016E+02  0.91153732408E+02 0.  0.
         13    1    3    3    0    0  0.48327112171E+02  0.10879804116E+02  0.46798864604E+01  0.49757335235E+02  0.10566000000E+00 0. -1.
         22    1    1    0    0    0 -0.11245569461E+02 -0.15641070790E+02  0.22120423870E+02  0.29332900984E+02  0.00000000000E+00 0. -1.
</event>
<event>
 5    1  0.1262391E-009  0.9118800E+02  0.7815553E-02  0.1125453E+00
         25   -1    0    0    0    0  0.00000000000E+00  0.00000000000E+00  0.99999998245E-14  0.12509000000E+03  0.12509000000E+03 0.  0.
        -13    1    3    3    0    0 -0.27088533557E+02 -0.13669060225E+02  0.29279868613E+02  0.42165788594E+02  0.10566000000E+00 0.  1.
         23    2    1    0    0    0 -0.15950434368E+02  0.22506595066E+02 -0.90720196451E+01  0.96050979383E+02  0.91556135359E+02 0.  0.
         13    1    3    3    0    0  0.11138099190E+02  0.36175655291E+02 -0.38351888258E+02  0.53885190788E+02  0.10566000000E+00 0. -1.
         22    1    1    0    0    0  0.15950434368E+02 -0.22506595066E+02  0.90720196451E+01  0.29039020617E+02  0.00000000000E+00 0. -1.
</event>
<event>
 5    1  0.1262391E-009  0.9118800E+02  0.7815553E-02  0.1125453E+00
         25   -1    0    0    0    0  0.00000000000E+00  0.00000000000E+00  0.99999998245E-14  0.12509000000E+03  0.12509000000E+03 0.  0.
        -13    1    3    3    0    0 -0.22850076039E+02  0.10883966557E+02  0.27444570023E+02  0.37333661631E+02  0.10566000000E+00 0.  1.
         23    2    1    0    0    0  0.18957132839E+02  0.17816517334E+02 -0.13081795368E+02  0.95970684324E+02  0.91446365178E+02 0.  0.
         13    1    3    3    0    0  0.41807208878E+02  0.69325507766E+01 -0.40526365391E+02  0.58637022693E+02  0.10566000000E+00 0. -1.
         22    1    1    0    0    0 -0.18957132839E+02 -0.17816517334E+02  0.13081795368E+02  0.29119315676E+02  0.00000000000E+00 0. -1.
</event>
<event>
 5    1  0.1262391E-009  0.9118800E+02  0.7815553E-02  0.1125453E+00
         25   -1    0    0    0    0  0.00000000000E+00  0.00000000000E+00  0.99999998245E-14  0.12509000000E+03  0.12509000000E+03 0.  0.
        -13    1    3    3    0    0  0.35983013511E+02 -0.25636489592E+02 -0.15291672747E+02  0.46753109836E+02  0.10566000000E+00 0.  1.
         23    2    1    0    0    0  0.14088203501E+02 -0.64418971042E+01  0.24526028554E+02  0.96081353137E+02  0.91597624575E+02 0.  0.
         13    1    3    3    0    0 -0.21894810009E+02  0.19194592488E+02  0.39817701301E+02  0.49328243300E+02  0.10566000000E+00 0. -1.
         22    1    1    0    0    0 -0.14088203501E+02  0.64418971042E+01 -0.24526028554E+02  0.29008646863E+02  0.00000000000E+00 0. -1.
</event>
<event>
 5    1  0.1262391E-009  0.9118800E+02  0.7815553E-02  0.1125453E+00
         25   -1    0    0    0    0  0.00000000000E+00  0.00000000000E+00  0.99999998245E-14  0.12509000000E+03  0.12509000000E+03 0.  0.
        -13    1    3    3    0    0  0.27491428223E+02 -0.19576241971E+02  0.18549054244E+02  0.38510861492E+02  0.10566000000E+00 0.  1.
         23    2    1    0    0    0  0.29633470120E+02  0.25423021769E+02  0.40544405917E+01  0.85835559796E+02  0.76333690136E+02 0.  0.
         13    1    3    3    0    0  0.21420418974E+01  0.44999263740E+02 -0.14494613652E+02  0.47324698304E+02  0.10566000000E+00 0. -1.
         22    1    1    0    0    0 -0.29633470120E+02 -0.25423021769E+02 -0.40544405917E+01  0.39254440204E+02  0.00000000000E+00 0. -1.
</event>
<event>
 5    1  0.1262391E-009  0.9118800E+02  0.7815553E-02  0.1125453E+00
         25   -1    0    0    0    0  0.00000000000E+00  0.00000000000E+00  0.99999998245E-14  0.12509000000E+03  0.12509000000E+03 0.  0.
        -13    1    3    3    0    0  0.11232964737E+02  0.20939769343E+02  0.25647950113E+02  0.34964009295E+02  0.10566000000E+00 0.  1.
         23    2    1    0    0    0  0.22676495267E+01 -0.26317629611E+02 -0.12029919853E+02  0.96064514055E+02  0.91574625449E+02 0.  0.
         13    1    3    3    0    0 -0.89653152105E+01 -0.47257398954E+02 -0.37677869966E+02  0.61100504760E+02  0.10566000000E+00 0. -1.
         22    1    1    0    0    0 -0.22676495267E+01  0.26317629611E+02  0.12029919853E+02  0.29025485945E+02  0.00000000000E+00 0. -1.
</event>
<event>
 5    1  0.1262391E-009  0.9118800E+02  0.7815553E-02  0.1125453E+00
         25   -1    0    0    0    0  0.00000000000E+00  0.00000000000E+00  0.99999998245E-14  0.12509000000E+03  0.12509000000E+03 0.  0.
        -13    1    3    3    0    0 -0.56711512272E+02  0.92451620636E+00 -0.19241300455E+02  0.59893982683E+02  0.10566000000E+00 0.  1.
         23    2    1    0    0    0 -0.29710077916E+02 -0.25919263287E+01  0.30870224665E+01  0.95107729913E+02  0.90258206107E+02 0.  0.
         13    1    3    3    0    0  0.27001434357E+02 -0.35164425351E+01  0.22328322922E+02  0.35213747230E+02  0.10566000000E+00 0. -1.
         22    1    1    0    0    0  0.29710077916E+02  0.25919263287E+01 -0.30870224665E+01  0.29982270087E+02  0.00000000000E+00 0.  1.
</event>
<event>
 5    1  0.1262391E-009  0.9118800E+02  0.7815553E-02  0.1125453E+00
         25   -1    0    0    0    0  0.00000000000E+00  0.00000000000E+00  0.99999998245E-14  0.12509000000E+03  0.12509000000E+03 0.  0.
        -13    1    3    3    0    0  0.16457973109E+02  0.97103855786E+01  0.29652407449E+02  0.35276520498E+02  0.10566000000E+00 0.  1.
         23    2    1    0    0    0  0.69918613988E+01 -0.11418551382E+02 -0.26161115661E+02  0.95701678950E+02  0.91077647861E+02 0.  0.
         13    1    3    3    0    0 -0.94661117100E+01 -0.21128936961E+02 -0.55813523110E+02  0.60425158452E+02  0.10566000000E+00 0. -1.
         22    1    1    0    0    0 -0.69918613988E+01  0.11418551382E+02  0.26161115661E+02  0.29388321050E+02  0.00000000000E+00 0. -1.
</event>
<event>
 5    1  0.1262391E-009  0.9118800E+02  0.7815553E-02  0.1125453E+00
         25   -1    0    0    0    0  0.00000000000E+00  0.00000000000E+00  0.99999998245E-14  0.12509000000E+03  0.12509000000E+03 0.  0.
        -13    1    3    3    0    0 -0.14100504522E+02  0.89569627759E+01  0.33588244196E+02  0.37513100674E+02  0.10566000000E+00 0.  1.
         23    2    1    0    0    0  0.15461450666E+01 -0.28599662159E+02 -0.76511490800E+01  0.95444236013E+02  0.90723375519E+02 0.  0.
         13    1    3    3    0    0  0.15646649588E+02 -0.37556624935E+02 -0.41239393276E+02  0.57931135339E+02  0.10566000000E+00 0. -1.
         22    1    1    0    0    0 -0.15461450666E+01  0.28599662159E+02  0.76511490800E+01  0.29645763987E+02  0.00000000000E+00 0. -1.
</event>
<event>
 5    1  0.1262391E-009  0.9118800E+02  0.7815553E-02  0.1125453E+00
         25   -1    0    0    0    0  0.00000000000E+00  0.00000000000E+00  0.99999998245E-14  0.12509000000E+03  0.12509000000E+03 0.  0.
        -13    1    3    3    0    0 -0.18162735687E+02  0.31935717845E+01 -0.56176747422E+02  0.59126322254E+02  0.10566000000E+00 0.  1.
         23    2    1    0    0    0 -0.67908972426E+01 -0.13039171792E+02 -0.25736855316E+02  0.95450128072E+02  0.90731499166E+02 0.  0.
         13    1    3    3    0    0  0.11371838445E+02 -0.16232743577E+02  0.30439892106E+02  0.36323805818E+02  0.10566000000E+00 0. -1.
         22    1    1    0    0    0  0.67908972426E+01  0.13039171792E+02  0.25736855316E+02  0.29639871928E+02  0.00000000000E+00 0.  1.
</event>
<event>
 5    1  0.1262391E-009  0.9118800E+02  0.7815553E-02  0.1125453E+00
         25   -1    0    0    0    0  0.00000000000E+00  0.00000000000E+00  0.99999998245E-14  0.12509000000E+03  0.12509000000E+03 0.  0.
        -13    1    3    3    0    0 -0.11161949725E+02  0.21246027540E+02  0.78278857102E+00  0.24012636879E+02  0.10566000000E+00 0.  1.
         23    2    1    0    0    0  0.35242814877E+00 -0.12492948125E+02  0.43603408094E+02  0.79730820599E+02  0.65570943241E+02 0.  0.
         13    1    3    3    0    0  0.11514377874E+02 -0.33738975665E+02  0.42820619523E+02  0.55718183721E+02  0.10566000000E+00 0. -1.
         22    1    1    0    0    0 -0.35242814877E+00  0.12492948125E+02 -0.43603408094E+02  0.45359179401E+02  0.00000000000E+00 0. -1.
</event>
<event>
 5    1  0.1262391E-009  0.9118800E+02  0.7815553E-02  0.1125453E+00
         25   -1    0    0    0    0  0.00000000000E+00  0.00000000000E+00  0.99999998245E-14  0.12509000000E+03  0.12509000000E+03 0.  0.
        -13    1    3    3    0    0  0.45291715614E+02 -0.28975006743E+02 -0.31004079371E+02  0.62065728230E+02  0.10566000000E+00 0.  1.
         23    2    1    0    0    0  0.14857167738E+02 -0.14378941333E+02 -0.15710178841E+02  0.99122730096E+02  0.95660945612E+02 0.  0.
         13    1    3    3    0    0 -0.30434547876E+02  0.14596065410E+02  0.15293900529E+02  0.37057001866E+02  0.10566000000E+00 0. -1.
         22    1    1    0    0    0 -0.14857167738E+02  0.14378941333E+02  0.15710178841E+02  0.25967269904E+02  0.00000000000E+00 0.  1.
</event>
<event>
 5    1  0.1262391E-009  0.9118800E+02  0.7815553E-02  0.1125453E+00
         25   -1    0    0    0    0  0.00000000000E+00  0.00000000000E+00  0.99999998245E-14  0.12509000000E+03  0.12509000000E+03 0.  0.
        -13    1    3    3    0    0  0.33265875971E+02  0.38934325860E+02 -0.10648685896E+02  0.52305887907E+02  0.10566000000E+00 0.  1.
         23    2    1    0    0    0  0.29263491324E+02  0.71702458572E+01  0.13168456073E+02  0.92208811069E+02  0.86146922483E+02 0.  0.
         13    1    3    3    0    0 -0.40023846470E+01 -0.31764080003E+02  0.23817141969E+02  0.39902923163E+02  0.10566000000E+00 0. -1.
         22    1    1    0    0    0 -0.29263491324E+02 -0.71702458572E+01 -0.13168456073E+02  0.32881188931E+02  0.00000000000E+00 0.  1.
</event>
<event>
 5    1  0.1262391E-009  0.9118800E+02  0.7815553E-02  0.1125453E+00
         25   -1    0    0    0    0  0.00000000000E+00  0.00000000000E+00  0.99999998245E-14  0.12509000000E+03  0.12509000000E+03 0.  0.
        -13    1    3    3    0    0 -0.34981993572E+01 -0.30701683855E+02  0.18528581802E+02  0.36029852871E+02  0.10566000000E+00 0.  1.
         23    2    1    0    0    0 -0.19377125422E+02  0.16822786053E+02 -0.14086765158E+02  0.95816871147E+02  0.91235720656E+02 0.  0.
         13    1    3    3    0    0 -0.15878926065E+02  0.47524469908E+02 -0.32615346961E+02  0.59787018276E+02  0.10566000000E+00 0. -1.
         22    1    1    0    0    0  0.19377125422E+02 -0.16822786053E+02  0.14086765158E+02  0.29273128853E+02  0.00000000000E+00 0. -1.
</event>
<event>
 5    1  0.1262391E-009  0.9118800E+02  0.7815553E-02  0.1125453E+00
         25   -1    0    0    0    0  0.00000000000E+00  0.00000000000E+00  0.99999998245E-14  0.12509000000E+03  0.12509000000E+03 0.  0.
        -13    1    3    3    0    0 -0.19044252180E+02 -0.57767641225E+02  0.10553321518E+02  0.61734655364E+02  0.10566000000E+00 0.  1.
         23    2    1    0    0    0 -0.15846917503E+02 -0.25369602659E+02  0.53296782948E+01  0.94706665684E+02  0.89700643926E+02 0.  0.
         13    1    3    3    0    0  0.31973346773E+01  0.32398038566E+02 -0.52236432232E+01  0.32972010320E+02  0.10566000000E+00 0. -1.
         22    1    1    0    0    0  0.15846917503E+02  0.25369602659E+02 -0.53296782948E+01  0.30383334316E+02  0.00000000000E+00 0.  1.
</event>
<event>
 5    1  0.1262391E-009  0.9118800E+02  0.7815553E-02  0.1125453E+00
         25   -1    0    0    0    0  0.00000000000E+00  0.00000000000E+00  0.99999998245E-14  0.12509000000E+03  0.12509000000E+03 0.  0.
        -13    1    3    3    0    0 -0.20480758229E+02 -0.63932646769E+01  0.25415148466E+02  0.33260730997E+02  0.10566000000E+00 0.  1.
         23    2    1    0    0    0  0.28552156242E+02  0.80130436707E+01 -0.80663211453E+01  0.94357280762E+02  0.89212086631E+02 0.  0.
         13    1    3    3    0    0  0.49032914472E+02  0.14406308348E+02 -0.33481469611E+02  0.61096549765E+02  0.10566000000E+00 0. -1.
         22    1    1    0    0    0 -0.28552156242E+02 -0.80130436707E+01  0.80663211453E+01  0.30732719238E+02  0.00000000000E+00 0. -1.
</event>
<event>
 5    1  0.1262391E-009  0.9118800E+02  0.7815553E-02  0.1125453E+00
         25   -1    0    0    0    0  0.00000000000E+00  0.00000000000E+00  0.99999998245E-14  0.12509000000E+03  0.12509000000E+03 0.  0.
        -13    1    3    3    0    0  0.16771247984E+01  0.56416543667E+02 -0.14921027378E+02  0.58380539300E+02  0.10566000000E+00 0.  1.
         23    2    1    0    0    0  0.16685367105E+02  0.26959107767E+02 -0.43608174592E+01  0.93086692422E+02  0.87412359596E+02 0.  0.
         13    1    3    3    0    0  0.15008242306E+02 -0.29457435900E+02  0.10560209919E+02  0.34706153121E+02  0.10566000000E+00 0. -1.
         22    1    1    0    0    0 -0.16685367105E+02 -0.26959107767E+02  0.43608174592E+01  0.32003307578E+02  0.00000000000E+00 0.  1.
</event>
<event>
 5    1  0.1262391E-009  0.9118800E+02  0.7815553E-02  0.1125453E+00
         25   -1    0    0    0    0  0.00000000000E+00  0.00000000000E+00  0.99999998245E-14  0.12509000000E+03  0.12509000000E+03 0.  0.
        -13    1    3    3    0    0 -0.40235510801E+02 -0.11179168243E+02  0.12577120725E+02  0.43612673179E+02  0.10566000000E+00 0. -1.
         23    2    1    0    0    0 -0.94349602250E-01  0.18385308513E+02  0.24097088039E+02  0.94779966630E+02  0.89802805922E+02 0.  0.
         13    1    3    3    0    0  0.40141161199E+02  0.29564476756E+02  0.11519967313E+02  0.51167293451E+02  0.10566000000E+00 0.  1.
         22    1    1    0    0    0  0.94349602250E-01 -0.18385308513E+02 -0.24097088039E+02  0.30310033370E+02  0.00000000000E+00 0. -1.
</event>
<event>
 5    1  0.1262391E-009  0.9118800E+02  0.7815553E-02  0.1125453E+00
         25   -1    0    0    0    0  0.00000000000E+00  0.00000000000E+00  0.99999998245E-14  0.12509000000E+03  0.12509000000E+03 0.  0.
        -13    1    3    3    0    0 -0.52533954936E+01 -0.37866886486E+01  0.36815185660E+02  0.37380559577E+02  0.10566000000E+00 0.  1.
         23    2    1    0    0    0  0.77807630462E+00  0.25704402214E+02 -0.13524904859E+02  0.96034109937E+02  0.91533084314E+02 0.  0.
         13    1    3    3    0    0  0.60314717982E+01  0.29491090862E+02 -0.50340090519E+02  0.58653550360E+02  0.10566000000E+00 0. -1.
         22    1    1    0    0    0 -0.77807630462E+00 -0.25704402214E+02  0.13524904859E+02  0.29055890063E+02  0.00000000000E+00 0. -1.
</event>
<event>
 5    1  0.1262391E-009  0.9118800E+02  0.7815553E-02  0.1125453E+00
         25   -1    0    0    0    0  0.00000000000E+00  0.00000000000E+00  0.99999998245E-14  0.12509000000E+03  0.12509000000E+03 0.  0.
        -13    1    3    3    0    0 -0.21480450936E+02 -0.12959340140E+00  0.26981842918E+02  0.34488513714E+02  0.10566000000E+00 0. -1.
         23    2    1    0    0    0  0.21457454795E+02 -0.78316520841E+01 -0.17138215903E+02  0.96533466860E+02  0.92212985198E+02 0.  0.
         13    1    3    3    0    0  0.42937905731E+02 -0.77020586827E+01 -0.44120058821E+02  0.62044953146E+02  0.10566000000E+00 0.  1.
         22    1    1    0    0    0 -0.21457454795E+02  0.78316520841E+01  0.17138215903E+02  0.28556533140E+02  0.00000000000E+00 0.  1.
</event>
<event>
 5    1  0.1262391E-009  0.9118800E+02  0.7815553E-02  0.1125453E+00
         25   -1    0    0    0    0  0.00000000000E+00  0.00000000000E+00  0.99999998245E-14  0.12509000000E+03  0.12509000000E+03 0.  0.
        -13    1    3    3    0    0  0.18772995902E+02 -0.24408314673E+02 -0.45747925182E+01  0.31130870385E+02  0.10566000000E+00 0. -1.
         23    2    1    0    0    0 -0.29876284119E+02  0.12867354843E+02 -0.45343367131E+00  0.92557450522E+02  0.86651687067E+02 0.  0.
         13    1    3    3    0    0 -0.48649280021E+02  0.37275669516E+02  0.41213588469E+01  0.61426580137E+02  0.10566000000E+00 0.  1.
         22    1    1    0    0    0  0.29876284119E+02 -0.12867354843E+02  0.45343367131E+00  0.32532549478E+02  0.00000000000E+00 0.  1.
</event>
<event>
 5    1  0.1262391E-009  0.9118800E+02  0.7815553E-02  0.1125453E+00
         25   -1    0    0    0    0  0.00000000000E+00  0.00000000000E+00  0.99999998245E-14  0.12509000000E+03  0.12509000000E+03 0.  0.
        -13    1    3    3    0    0  0.23945925781E+02 -0.23846534327E+02 -0.19046451626E+02  0.38792306512E+02  0.10566000000E+00 0. -1.
         23    2    1    0    0    0 -0.24745918441E+02  0.56888245065E+00 -0.19994265336E+02  0.93270905842E+02  0.87675578832E+02 0.  0.
         13    1    3    3    0    0 -0.48691844222E+02  0.24415416778E+02 -0.94781371030E+00  0.54478599330E+02  0.10566000000E+00 0.  1.
         22    1    1    0    0    0  0.24745918441E+02 -0.56888245065E+00  0.19994265336E+02  0.31819094158E+02  0.00000000000E+00 0.  1.
</event>
<event>
 5    1  0.1262391E-009  0.9118800E+02  0.7815553E-02  0.1125453E+00
         25   -1    0    0    0    0  0.00000000000E+00  0.00000000000E+00  0.99999998245E-14  0.12509000000E+03  0.12509000000E+03 0.  0.
        -13    1    3    3    0    0  0.31317435646E+02 -0.26244325601E+02 -0.19264559053E+02  0.45173895130E+02  0.10566000000E+00 0. -1.
         23    2    1    0    0    0 -0.12177398371E+02  0.44780976974E+01 -0.23134611472E+02  0.98565433311E+02  0.94929405380E+02 0.  0.
         13    1    3    3    0    0 -0.43494834017E+02  0.30722423299E+02 -0.38700524189E+01  0.53391538181E+02  0.10566000000E+00 0.  1.
         22    1    1    0    0    0  0.12177398371E+02 -0.44780976974E+01  0.23134611472E+02  0.26524566689E+02  0.00000000000E+00 0. -1.
</event>
<event>
 5    1  0.1262391E-009  0.9118800E+02  0.7815553E-02  0.1125453E+00
         25   -1    0    0    0    0  0.00000000000E+00  0.00000000000E+00  0.99999998245E-14  0.12509000000E+03  0.12509000000E+03 0.  0.
        -13    1    3    3    0    0  0.28039401532E+02  0.50108204390E+02  0.45401124883E+01  0.57599166408E+02  0.10566000000E+00 0. -1.
         23    2    1    0    0    0  0.41408362824E+01  0.19394815006E+02  0.17524912083E+02  0.98624401240E+02  0.95007076590E+02 0.  0.
         13    1    3    3    0    0 -0.23898565250E+02 -0.30713389384E+02  0.12984799595E+02  0.41025234832E+02  0.10566000000E+00 0.  1.
         22    1    1    0    0    0 -0.41408362824E+01 -0.19394815006E+02 -0.17524912083E+02  0.26465598760E+02  0.00000000000E+00 0. -1.
</event>
<event>
 5    1  0.1262391E-009  0.9118800E+02  0.7815553E-02  0.1125453E+00
         25   -1    0    0    0    0  0.00000000000E+00  0.00000000000E+00  0.99999998245E-14  0.12509000000E+03  0.12509000000E+03 0.  0.
        -13    1    3    3    0    0  0.35894727822E+02  0.14668550429E+02 -0.31452046044E+02  0.49928350879E+02  0.10566000000E+00 0.  1.
         23    2    1    0    0    0 -0.96324536821E+01  0.64736302059E+01 -0.26137659534E+02  0.96491585745E+02  0.92156154552E+02 0.  0.
         13    1    3    3    0    0 -0.45527181504E+02 -0.81949202230E+01  0.53143865098E+01  0.46563234866E+02  0.10566000000E+00 0. -1.
         22    1    1    0    0    0  0.96324536821E+01 -0.64736302059E+01  0.26137659534E+02  0.28598414255E+02  0.00000000000E+00 0.  1.
</event>
<event>
 5    1  0.1262391E-009  0.9118800E+02  0.7815553E-02  0.1125453E+00
         25   -1    0    0    0    0  0.00000000000E+00  0.00000000000E+00  0.99999998245E-14  0.12509000000E+03  0.12509000000E+03 0.  0.
        -13    1    3    3    0    0 -0.12087433213E+02  0.24850466515E+02 -0.33017076888E+02  0.43055664644E+02  0.10566000000E+00 0.  1.
         23    2    1    0    0    0 -0.25745627581E+02 -0.15395563514E+02 -0.33081666108E+01  0.94910459218E+02  0.89984390798E+02 0.  0.
         13    1    3    3    0    0 -0.13658194369E+02 -0.40246030029E+02  0.29708910277E+02  0.51854794575E+02  0.10566000000E+00 0. -1.
         22    1    1    0    0    0  0.25745627581E+02  0.15395563514E+02  0.33081666108E+01  0.30179540782E+02  0.00000000000E+00 0. -1.
</event>
<event>
 5    1  0.1262391E-009  0.9118800E+02  0.7815553E-02  0.1125453E+00
         25   -1    0    0    0    0  0.00000000000E+00  0.00000000000E+00  0.99999998245E-14  0.12509000000E+03  0.12509000000E+03 0.  0.
        -13    1    3    3    0    0 -0.15854343906E+02 -0.58754340543E+01 -0.43193958552E+02  0.46385452088E+02  0.10566000000E+00 0.  1.
         23    2    1    0    0    0  0.14683326125E+02 -0.23731708029E+02 -0.85413071750E+01  0.95905278649E+02  0.91356852575E+02 0.  0.
         13    1    3    3    0    0  0.30537670031E+02 -0.17856273975E+02  0.34652651377E+02  0.49519826561E+02  0.10566000000E+00 0. -1.
         22    1    1    0    0    0 -0.14683326125E+02  0.23731708029E+02  0.85413071750E+01  0.29184721351E+02  0.00000000000E+00 0.  1.
</event>
<event>
 5    1  0.1262391E-009  0.9118800E+02  0.7815553E-02  0.1125453E+00
         25   -1    0    0    0    0  0.00000000000E+00  0.00000000000E+00  0.99999998245E-14  0.12509000000E+03  0.12509000000E+03 0.  0.
        -13    1    3    3    0    0 -0.41628667433E+02 -0.29583986747E+02 -0.21174436552E+02  0.55285858512E+02  0.10566000000E+00 0.  1.
         23    2    1    0    0    0 -0.10691269912E+02 -0.30110276427E+02  0.61820502746E+00  0.93131993549E+02  0.87477162998E+02 0.  0.
         13    1    3    3    0    0  0.30937397521E+02 -0.52628968034E+00  0.21792641580E+02  0.37846135037E+02  0.10566000000E+00 0. -1.
         22    1    1    0    0    0  0.10691269912E+02  0.30110276427E+02 -0.61820502746E+00  0.31958006451E+02  0.00000000000E+00 0.  1.
</event>
<event>
 5    1  0.1262391E-009  0.9118800E+02  0.7815553E-02  0.1125453E+00
         25   -1    0    0    0    0  0.00000000000E+00  0.00000000000E+00  0.99999998245E-14  0.12509000000E+03  0.12509000000E+03 0.  0.
        -13    1    3    3    0    0  0.43095444587E+02  0.18892143308E+02 -0.16517146752E+01  0.47083646294E+02  0.10566000000E+00 0.  1.
         23    2    1    0    0    0  0.13426902080E+02 -0.59115745705E+01  0.26420444585E+02  0.94869670659E+02  0.89927671523E+02 0.  0.
         13    1    3    3    0    0 -0.29668542507E+02 -0.24803717879E+02  0.28072159261E+02  0.47786024366E+02  0.10566000000E+00 0. -1.
         22    1    1    0    0    0 -0.13426902080E+02  0.59115745705E+01 -0.26420444585E+02  0.30220329341E+02  0.00000000000E+00 0. -1.
</event>
<event>
 5    1  0.1262391E-009  0.9118800E+02  0.7815553E-02  0.1125453E+00
         25   -1    0    0    0    0  0.00000000000E+00  0.00000000000E+00  0.99999998245E-14  0.12509000000E+03  0.12509000000E+03 0.  0.
        -13    1    3    3    0    0  0.10070931105E+02 -0.66130042820E+01  0.28967534161E+02  0.31373311562E+02  0.10566000000E+00 0. -1.
         23    2    1    0    0    0 -0.19119955415E+02 -0.10402497930E+02 -0.24444145037E+02  0.92359266968E+02  0.86365116280E+02 0.  0.
         13    1    3    3    0    0 -0.29190886520E+02 -0.37894936480E+01 -0.53411679198E+02  0.60985955406E+02  0.10566000000E+00 0.  1.
         22    1    1    0    0    0  0.19119955415E+02  0.10402497930E+02  0.24444145037E+02  0.32730733032E+02  0.00000000000E+00 0.  1.
</event>
<event>
 5    1  0.1262391E-009  0.9118800E+02  0.7815553E-02  0.1125453E+00
         25   -1    0    0    0    0  0.00000000000E+00  0.00000000000E+00  0.99999998245E-14  0.12509000000E+03  0.12509000000E+03 0.  0.
        -13    1    3    3    0    0 -0.22125476867E+02 -0.89609911678E+00 -0.24602515389E+02  0.33100372320E+02  0.10566000000E+00 0.  1.
         23    2    1    0    0    0  0.27813465117E+02  0.17787382144E+02  0.58541137603E+00  0.92069968022E+02  0.85945078392E+02 0.  0.
         13    1    3    3    0    0  0.49938941984E+02  0.18683481261E+02  0.25187926765E+02  0.58969595702E+02  0.10566000000E+00 0. -1.
         22    1    1    0    0    0 -0.27813465117E+02 -0.17787382144E+02 -0.58541137603E+00  0.33020031978E+02  0.00000000000E+00 0. -1.
</event>
<event>
 5    1  0.1262391E-009  0.9118800E+02  0.7815553E-02  0.1125453E+00
         25   -1    0    0    0    0  0.00000000000E+00  0.00000000000E+00  0.99999998245E-14  0.12509000000E+03  0.12509000000E+03 0.  0.
        -13    1    3    3    0    0  0.18546325305E+02 -0.12925406900E+02  0.38085611425E+02  0.44289471520E+02  0.10566000000E+00 0.  1.
         23    2    1    0    0    0  0.18894047830E+01 -0.22918478871E+02 -0.12810426663E+02  0.98766368877E+02  0.95193813170E+02 0.  0.
         13    1    3    3    0    0 -0.16656920522E+02 -0.99930719710E+01 -0.50896038088E+02  0.54476897358E+02  0.10566000000E+00 0. -1.
         22    1    1    0    0    0 -0.18894047830E+01  0.22918478871E+02  0.12810426663E+02  0.26323631123E+02  0.00000000000E+00 0. -1.
</event>
<event>
 5    1  0.1262391E-009  0.9118800E+02  0.7815553E-02  0.1125453E+00
         25   -1    0    0    0    0  0.00000000000E+00  0.00000000000E+00  0.99999998245E-14  0.12509000000E+03  0.12509000000E+03 0.  0.
        -13    1    3    3    0    0 -0.15970143835E+02  0.35070820973E+02 -0.12436534277E+02  0.40493042942E+02  0.10566000000E+00 0. -1.
         23    2    1    0    0    0 -0.29921628131E+02 -0.10980207736E+02  0.71170189847E+01  0.92432370705E+02  0.86470933862E+02 0.  0.
         13    1    3    3    0    0 -0.13951484296E+02 -0.46051028709E+02  0.19553553262E+02  0.51939327763E+02  0.10566000000E+00 0.  1.
         22    1    1    0    0    0  0.29921628131E+02  0.10980207736E+02 -0.71170189847E+01  0.32657629295E+02  0.00000000000E+00 0.  1.
</event>
<event>
 5    1  0.1262391E-009  0.9118800E+02  0.7815553E-02  0.1125453E+00
         25   -1    0    0    0    0  0.00000000000E+00  0.00000000000E+00  0.99999998245E-14  0.12509000000E+03  0.12509000000E+03 0.  0.
        -13    1    3    3    0    0 -0.18023820189E+02  0.77857015557E+01  0.51998209770E+02  0.55581473768E+02  0.10566000000E+00 0.  1.
         23    2    1    0    0    0  0.12287490294E+02  0.35662262016E+00  0.26484062192E+02  0.95892137962E+02  0.91338857970E+02 0.  0.
         13    1    3    3    0    0  0.30311310483E+02 -0.74290789355E+01 -0.25514147578E+02  0.40310664193E+02  0.10566000000E+00 0. -1.
         22    1    1    0    0    0 -0.12287490294E+02 -0.35662262016E+00 -0.26484062192E+02  0.29197862038E+02  0.00000000000E+00 0.  1.
</event>
<event>
 5    1  0.1262391E-009  0.9118800E+02  0.7815553E-02  0.1125453E+00
         25   -1    0    0    0    0  0.00000000000E+00  0.00000000000E+00  0.99999998245E-14  0.12509000000E+03  0.12509000000E+03 0.  0.
        -13    1    3    3    0    0 -0.37665540023E+02  0.21241946063E+02 -0.41690979151E+02  0.60067146464E+02  0.10566000000E+00 0.  1.
         23    2    1    0    0    0 -0.76492133914E+01  0.14652554320E+02 -0.25225567649E+02  0.94931467595E+02  0.90013590434E+02 0.  0.
         13    1    3    3    0    0  0.30016326631E+02 -0.65893917429E+01  0.16465411502E+02  0.34864321131E+02  0.10566000000E+00 0. -1.
         22    1    1    0    0    0  0.76492133914E+01 -0.14652554320E+02  0.25225567649E+02  0.30158532405E+02  0.00000000000E+00 0.  1.
</event>
<event>
 5    1  0.1262391E-009  0.9118800E+02  0.7815553E-02  0.1125453E+00
         25   -1    0    0    0    0  0.00000000000E+00  0.00000000000E+00  0.99999998245E-14  0.12509000000E+03  0.12509000000E+03 0.  0.
        -13    1    3    3    0    0  0.83275594215E+01 -0.21450692557E+02 -0.15896001066E+02  0.27967382270E+02  0.10566000000E+00 0. -1.
         23    2    1    0    0    0 -0.38434062848E+02 -0.13271934011E+01  0.10380419761E+02  0.85256700567E+02  0.75379130055E+02 0.  0.
         13    1    3    3    0    0 -0.46761622269E+02  0.20123499156E+02  0.26276420827E+02  0.57289318298E+02  0.10566000000E+00 0.  1.
         22    1    1    0    0    0  0.38434062848E+02  0.13271934011E+01 -0.10380419761E+02  0.39833299433E+02  0.00000000000E+00 0.  1.
</event>
<event>
 5    1  0.1262391E-009  0.9118800E+02  0.7815553E-02  0.1125453E+00
         25   -1    0    0    0    0  0.00000000000E+00  0.00000000000E+00  0.99999998245E-14  0.12509000000E+03  0.12509000000E+03 0.  0.
        -13    1    3    3    0    0  0.25663537330E+01 -0.18261874739E+01 -0.43832231691E+02  0.43945384640E+02  0.10566000000E+00 0. -1.
         23    2    1    0    0    0  0.22768017015E+02  0.13117207821E+02  0.45110493937E+01  0.98429292836E+02  0.94749841065E+02 0.  0.
         13    1    3    3    0    0  0.20201663282E+02  0.14943395295E+02  0.48343281084E+02  0.54483908196E+02  0.10566000000E+00 0.  1.
         22    1    1    0    0    0 -0.22768017015E+02 -0.13117207821E+02 -0.45110493937E+01  0.26660707164E+02  0.00000000000E+00 0.  1.
</event>
<event>
 5    1  0.1262391E-009  0.9118800E+02  0.7815553E-02  0.1125453E+00
         25   -1    0    0    0    0  0.00000000000E+00  0.00000000000E+00  0.99999998245E-14  0.12509000000E+03  0.12509000000E+03 0.  0.
        -13    1    3    3    0    0 -0.15413594330E+02  0.29010081932E+02 -0.49145014804E+02  0.59113512736E+02  0.10566000000E+00 0. -1.
         23    2    1    0    0    0  0.27031772653E+01  0.24135108651E+02 -0.20750923381E+02  0.93146120177E+02  0.87497361366E+02 0.  0.
         13    1    3    3    0    0  0.18116771595E+02 -0.48749732806E+01  0.28394091423E+02  0.34032607442E+02  0.10566000000E+00 0.  1.
         22    1    1    0    0    0 -0.27031772653E+01 -0.24135108651E+02  0.20750923381E+02  0.31943879823E+02  0.00000000000E+00 0. -1.
</event>
<event>
 5    1  0.1262391E-009  0.9118800E+02  0.7815553E-02  0.1125453E+00
         25   -1    0    0    0    0  0.00000000000E+00  0.00000000000E+00  0.99999998245E-14  0.12509000000E+03  0.12509000000E+03 0.  0.
        -13    1    3    3    0    0  0.30290559543E+02 -0.50603807406E+02  0.12738075497E+02  0.60336829987E+02  0.10566000000E+00 0. -1.
         23    2    1    0    0    0  0.22598541972E+02 -0.16611033578E+02  0.13188015644E+01  0.97012254838E+02  0.92860205769E+02 0.  0.
         13    1    3    3    0    0 -0.76920175711E+01  0.33992773828E+02 -0.11419273932E+02  0.36675424852E+02  0.10566000000E+00 0.  1.
         22    1    1    0    0    0 -0.22598541972E+02  0.16611033578E+02 -0.13188015644E+01  0.28077745162E+02  0.00000000000E+00 0. -1.
</event>
<event>
 5    1  0.1262391E-009  0.9118800E+02  0.7815553E-02  0.1125453E+00
         25   -1    0    0    0    0  0.00000000000E+00  0.00000000000E+00  0.99999998245E-14  0.12509000000E+03  0.12509000000E+03 0.  0.
        -13    1    3    3    0    0 -0.97759134055E+01  0.99705124169E+01 -0.59021839595E+02  0.60651202082E+02  0.10566000000E+00 0.  1.
         23    2    1    0    0    0 -0.12990189998E+02 -0.21903275039E+01 -0.27241245947E+02  0.94830653485E+02  0.89873381983E+02 0.  0.
         13    1    3    3    0    0 -0.32142765928E+01 -0.12160839921E+02  0.31780593648E+02  0.34179451404E+02  0.10566000000E+00 0. -1.
         22    1    1    0    0    0  0.12990189998E+02  0.21903275039E+01  0.27241245947E+02  0.30259346515E+02  0.00000000000E+00 0.  1.
</event>
<event>
 5    1  0.1262391E-009  0.9118800E+02  0.7815553E-02  0.1125453E+00
         25   -1    0    0    0    0  0.00000000000E+00  0.00000000000E+00  0.99999998245E-14  0.12509000000E+03  0.12509000000E+03 0.  0.
        -13    1    3    3    0    0 -0.88650403436E+01 -0.30231106179E+02  0.35411534713E+02  0.47397222238E+02  0.10566000000E+00 0. -1.
         23    2    1    0    0    0  0.25474168426E+02 -0.38313643927E+01  0.15003878618E+02  0.95278442112E+02  0.90494489046E+02 0.  0.
         13    1    3    3    0    0  0.34339208770E+02  0.26399741786E+02 -0.20407656096E+02  0.47881219874E+02  0.10566000000E+00 0.  1.
         22    1    1    0    0    0 -0.25474168426E+02  0.38313643927E+01 -0.15003878618E+02  0.29811557888E+02  0.00000000000E+00 0.  1.
</event>
<event>
 5    1  0.1262391E-009  0.9118800E+02  0.7815553E-02  0.1125453E+00
         25   -1    0    0    0    0  0.00000000000E+00  0.00000000000E+00  0.99999998245E-14  0.12509000000E+03  0.12509000000E+03 0.  0.
        -13    1    3    3    0    0 -0.13814606050E+02 -0.13795468884E+02  0.34018944109E+02  0.39223182231E+02  0.10566000000E+00 0.  1.
         23    2    1    0    0    0  0.26325425460E+01  0.13912852717E+02  0.48511275649E+02  0.74554451956E+02  0.54813544772E+02 0.  0.
         13    1    3    3    0    0  0.16447148596E+02  0.27708321601E+02  0.14492331540E+02  0.35331269725E+02  0.10566000000E+00 0. -1.
         22    1    1    0    0    0 -0.26325425460E+01 -0.13912852717E+02 -0.48511275649E+02  0.50535548044E+02  0.00000000000E+00 0.  1.
</event>
<event>
 5    1  0.1262391E-009  0.9118800E+02  0.7815553E-02  0.1125453E+00
         25   -1    0    0    0    0  0.00000000000E+00  0.00000000000E+00  0.99999998245E-14  0.12509000000E+03  0.12509000000E+03 0.  0.
        -13    1    3    3    0    0 -0.40633841470E+02 -0.63015369667E+01  0.45678590110E+02  0.61460257070E+02  0.10566000000E+00 0.  1.
         23    2    1    0    0    0 -0.24097383626E+02 -0.17920740142E+01  0.14866504103E+02  0.96719092875E+02  0.92464450225E+02 0.  0.
         13    1    3    3    0    0  0.16536457844E+02  0.45094629525E+01 -0.30812086007E+02  0.35258835804E+02  0.10566000000E+00 0. -1.
         22    1    1    0    0    0  0.24097383626E+02  0.17920740142E+01 -0.14866504103E+02  0.28370907125E+02  0.00000000000E+00 0.  1.
</event>
<event>
 5    1  0.1262391E-009  0.9118800E+02  0.7815553E-02  0.1125453E+00
         25   -1    0    0    0    0  0.00000000000E+00  0.00000000000E+00  0.99999998245E-14  0.12509000000E+03  0.12509000000E+03 0.  0.
        -13    1    3    3    0    0 -0.70530309432E+01  0.36413283775E+02 -0.20490049795E+01  0.37146763872E+02  0.10566000000E+00 0. -1.
         23    2    1    0    0    0  0.25854110964E+02 -0.12503375918E+02 -0.37549109672E+01  0.96126767800E+02  0.91659623980E+02 0.  0.
         13    1    3    3    0    0  0.32907141908E+02 -0.48916659693E+02 -0.17059059877E+01  0.58980003928E+02  0.10566000000E+00 0.  1.
         22    1    1    0    0    0 -0.25854110964E+02  0.12503375918E+02  0.37549109672E+01  0.28963232200E+02  0.00000000000E+00 0.  1.
</event>
<event>
 5    1  0.1262391E-009  0.9118800E+02  0.7815553E-02  0.1125453E+00
         25   -1    0    0    0    0  0.00000000000E+00  0.00000000000E+00  0.99999998245E-14  0.12509000000E+03  0.12509000000E+03 0.  0.
        -13    1    3    3    0    0  0.20981406249E+02  0.18563262418E+02  0.24233852996E+02  0.37041934545E+02  0.10566000000E+00 0.  1.
         23    2    1    0    0    0 -0.30031455644E+02  0.90450295292E+01  0.15182057541E+01  0.93689270136E+02  0.88270456567E+02 0.  0.
         13    1    3    3    0    0 -0.51012861893E+02 -0.95182328890E+01 -0.22715647242E+02  0.56647335590E+02  0.10566000000E+00 0. -1.
         22    1    1    0    0    0  0.30031455644E+02 -0.90450295292E+01 -0.15182057541E+01  0.31400729864E+02  0.00000000000E+00 0.  1.
</event>
<event>
 5    1  0.1262391E-009  0.9118800E+02  0.7815553E-02  0.1125453E+00
         25   -1    0    0    0    0  0.00000000000E+00  0.00000000000E+00  0.99999998245E-14  0.12509000000E+03  0.12509000000E+03 0.  0.
        -13    1    3    3    0    0 -0.54980994978E+02  0.29030352028E+02 -0.43228083573E+01  0.62324706046E+02  0.10566000000E+00 0. -1.
         23    2    1    0    0    0 -0.26490815791E+02  0.16882118469E+02 -0.48703119733E+01  0.93301807475E+02  0.87719656259E+02 0.  0.
         13    1    3    3    0    0  0.28490179187E+02 -0.12148233559E+02 -0.54750361605E+00  0.30977101429E+02  0.10566000000E+00 0.  1.
         22    1    1    0    0    0  0.26490815791E+02 -0.16882118469E+02  0.48703119733E+01  0.31788192525E+02  0.00000000000E+00 0. -1.
</event>
<event>
 5    1  0.1262391E-009  0.9118800E+02  0.7815553E-02  0.1125453E+00
         25   -1    0    0    0    0  0.00000000000E+00  0.00000000000E+00  0.99999998245E-14  0.12509000000E+03  0.12509000000E+03 0.  0.
        -13    1    3    3    0    0 -0.30721636943E+02 -0.26865755573E+02  0.10303131165E+02  0.42092202066E+02  0.10566000000E+00 0. -1.
         23    2    1    0    0    0  0.42058865316E+01 -0.46249762425E+01 -0.26726529291E+02  0.97642099266E+02  0.93704814680E+02 0.  0.
         13    1    3    3    0    0  0.34927523475E+02  0.22240779330E+02 -0.37029660457E+02  0.55549897199E+02  0.10566000000E+00 0.  1.
         22    1    1    0    0    0 -0.42058865316E+01  0.46249762425E+01  0.26726529291E+02  0.27447900734E+02  0.00000000000E+00 0. -1.
</event>
<event>
 5    1  0.1262391E-009  0.9118800E+02  0.7815553E-02  0.1125453E+00
         25   -1    0    0    0    0  0.00000000000E+00  0.00000000000E+00  0.99999998245E-14  0.12509000000E+03  0.12509000000E+03 0.  0.
        -13    1    3    3    0    0 -0.37563401647E+02  0.12597905323E+02  0.14815427814E+02  0.42299224900E+02  0.10566000000E+00 0.  1.
         23    2    1    0    0    0  0.11025839700E+02  0.14334082055E+01  0.28915690421E+02  0.94110313870E+02  0.88865123778E+02 0.  0.
         13    1    3    3    0    0  0.48589241347E+02 -0.11164497117E+02  0.14100262607E+02  0.51811088970E+02  0.10566000000E+00 0. -1.
         22    1    1    0    0    0 -0.11025839700E+02 -0.14334082055E+01 -0.28915690421E+02  0.30979686130E+02  0.00000000000E+00 0.  1.
</event>
<event>
 5    1  0.1262391E-009  0.9118800E+02  0.7815553E-02  0.1125453E+00
         25   -1    0    0    0    0  0.00000000000E+00  0.00000000000E+00  0.99999998245E-14  0.12509000000E+03  0.12509000000E+03 0.  0.
        -13    1    3    3    0    0 -0.65822808726E+01  0.51774089822E+02  0.30209793787E+02  0.60303611858E+02  0.10566000000E+00 0. -1.
         23    2    1    0    0    0  0.63320961133E+01  0.27407057289E+02  0.76344349534E+01  0.95943356497E+02  0.91408975645E+02 0.  0.
         13    1    3    3    0    0  0.12914376986E+02 -0.24367032534E+02 -0.22575358834E+02  0.35639744639E+02  0.10566000000E+00 0.  1.
         22    1    1    0    0    0 -0.63320961133E+01 -0.27407057289E+02 -0.76344349534E+01  0.29146643503E+02  0.00000000000E+00 0. -1.
</event>
<event>
 5    1  0.1262391E-009  0.9118800E+02  0.7815553E-02  0.1125453E+00
         25   -1    0    0    0    0  0.00000000000E+00  0.00000000000E+00  0.99999998245E-14  0.12509000000E+03  0.12509000000E+03 0.  0.
        -13    1    3    3    0    0  0.28136468551E+01 -0.58796304323E+02  0.75238773531E+01  0.59342580877E+02  0.10566000000E+00 0.  1.
         23    2    1    0    0    0  0.71668871763E+01 -0.28483246737E+02  0.16688683326E+02  0.91308766044E+02  0.84829941582E+02 0.  0.
         13    1    3    3    0    0  0.43532403212E+01  0.30313057587E+02  0.91648059726E+01  0.31966185167E+02  0.10566000000E+00 0. -1.
         22    1    1    0    0    0 -0.71668871763E+01  0.28483246737E+02 -0.16688683326E+02  0.33781233956E+02  0.00000000000E+00 0.  1.
</event>
<event>
 5    1  0.1262391E-009  0.9118800E+02  0.7815553E-02  0.1125453E+00
         25   -1    0    0    0    0  0.00000000000E+00  0.00000000000E+00  0.99999998245E-14  0.12509000000E+03  0.12509000000E+03 0.  0.
        -13    1    3    3    0    0  0.54183542799E+01 -0.44657479266E+02  0.47492182313E+01  0.45235110869E+02  0.10566000000E+00 0.  1.
         23    2    1    0    0    0 -0.26830337704E+02 -0.92876060488E+01 -0.94581129100E+01  0.95163714777E+02  0.90335762923E+02 0.  0.
         13    1    3    3    0    0 -0.32248691984E+02  0.35369873217E+02 -0.14207331141E+02  0.49928603908E+02  0.10566000000E+00 0. -1.
         22    1    1    0    0    0  0.26830337704E+02  0.92876060488E+01  0.94581129100E+01  0.29926285223E+02  0.00000000000E+00 0. -1.
</event>
<event>
 5    1  0.1262391E-009  0.9118800E+02  0.7815553E-02  0.1125453E+00
         25   -1    0    0    0    0  0.00000000000E+00  0.00000000000E+00  0.99999998245E-14  0.12509000000E+03  0.12509000000E+03 0.  0.
        -13    1    3    3    0    0 -0.19055944102E+02  0.32123456981E+02 -0.97637843141E+01  0.38605545485E+02  0.10566000000E+00 0.  1.
         23    2    1    0    0    0  0.24719913132E+02 -0.39024531412E+01 -0.15601352028E+02  0.95599231430E+02  0.90936833126E+02 0.  0.
         13    1    3    3    0    0  0.43775857234E+02 -0.36025910122E+02 -0.58375677140E+01  0.56993685945E+02  0.10566000000E+00 0. -1.
         22    1    1    0    0    0 -0.24719913132E+02  0.39024531412E+01  0.15601352028E+02  0.29490768570E+02  0.00000000000E+00 0. -1.
</event>
<event>
 5    1  0.1262391E-009  0.9118800E+02  0.7815553E-02  0.1125453E+00
         25   -1    0    0    0    0  0.00000000000E+00  0.00000000000E+00  0.99999998245E-14  0.12509000000E+03  0.12509000000E+03 0.  0.
        -13    1    3    3    0    0 -0.69209237392E+01  0.38428985354E+02  0.11723068102E+02  0.40769199042E+02  0.10566000000E+00 0. -1.
         23    2    1    0    0    0  0.24761666407E+02  0.51514085494E+01 -0.16685653005E+02  0.94790030536E+02  0.89816823255E+02 0.  0.
         13    1    3    3    0    0  0.31682590146E+02 -0.33277576805E+02 -0.28408721108E+02  0.54020831494E+02  0.10566000000E+00 0.  1.
         22    1    1    0    0    0 -0.24761666407E+02 -0.51514085494E+01  0.16685653005E+02  0.30299969464E+02  0.00000000000E+00 0. -1.
</event>
<event>
 5    1  0.1262391E-009  0.9118800E+02  0.7815553E-02  0.1125453E+00
         25   -1    0    0    0    0  0.00000000000E+00  0.00000000000E+00  0.99999998245E-14  0.12509000000E+03  0.12509000000E+03 0.  0.
        -13    1    3    3    0    0  0.95559925091E+01 -0.15441246979E+02  0.41453660544E+02  0.45256670642E+02  0.10566000000E+00 0.  1.
         23    2    1    0    0    0  0.66539251343E+01  0.25713598769E+02  0.12024720268E+02  0.95934249643E+02  0.91396512382E+02 0.  0.
         13    1    3    3    0    0 -0.29020673749E+01  0.41154845748E+02 -0.29428940275E+02  0.50677579001E+02  0.10566000000E+00 0. -1.
         22    1    1    0    0    0 -0.66539251343E+01 -0.25713598769E+02 -0.12024720268E+02  0.29155750357E+02  0.00000000000E+00 0. -1.
</event>
<event>
 5    1  0.1262391E-009  0.9118800E+02  0.7815553E-02  0.1125453E+00
         25   -1    0    0    0    0  0.00000000000E+00  0.00000000000E+00  0.99999998245E-14  0.12509000000E+03  0.12509000000E+03 0.  0.
        -13    1    3    3    0    0  0.30750768982E+02  0.14331417978E+02 -0.73177665892E+01  0.34706774643E+02  0.10566000000E+00 0.  1.
         23    2    1    0    0    0 -0.24895663917E+02 -0.11924716720E+02 -0.83671158933E+01  0.96245562424E+02  0.91821602617E+02 0.  0.
         13    1    3    3    0    0 -0.55646432899E+02 -0.26256134697E+02 -0.10493493041E+01  0.61538787781E+02  0.10566000000E+00 0. -1.
         22    1    1    0    0    0  0.24895663917E+02  0.11924716720E+02  0.83671158933E+01  0.28844437576E+02  0.00000000000E+00 0. -1.
</event>
<event>
 5    1  0.1262391E-009  0.9118800E+02  0.7815553E-02  0.1125453E+00
         25   -1    0    0    0    0  0.00000000000E+00  0.00000000000E+00  0.99999998245E-14  0.12509000000E+03  0.12509000000E+03 0.  0.
        -13    1    3    3    0    0  0.42648574829E+02  0.28102706717E+02  0.82257554509E+01  0.51733328489E+02  0.10566000000E+00 0.  1.
         23    2    1    0    0    0  0.18414704477E+02  0.35394742902E+01 -0.20988261157E+02  0.96945083485E+02  0.92769676545E+02 0.  0.
         13    1    3    3    0    0 -0.24233870351E+02 -0.24563232427E+02 -0.29214016608E+02  0.45211754996E+02  0.10566000000E+00 0. -1.
         22    1    1    0    0    0 -0.18414704477E+02 -0.35394742902E+01  0.20988261157E+02  0.28144916515E+02  0.00000000000E+00 0. -1.
</event>
<event>
 5    1  0.1262391E-009  0.9118800E+02  0.7815553E-02  0.1125453E+00
         25   -1    0    0    0    0  0.00000000000E+00  0.00000000000E+00  0.99999998245E-14  0.12509000000E+03  0.12509000000E+03 0.  0.
        -13    1    3    3    0    0  0.88136157641E+01 -0.93511101845E+01 -0.32051766943E+02  0.34531869523E+02  0.10566000000E+00 0. -1.
         23    2    1    0    0    0 -0.16939310951E+02 -0.19693923465E+01  0.23411218268E+02  0.96126162158E+02  0.91658797443E+02 0.  0.
         13    1    3    3    0    0 -0.25752926715E+02  0.73817178381E+01  0.55462985212E+02  0.61594292635E+02  0.10566000000E+00 0.  1.
         22    1    1    0    0    0  0.16939310951E+02  0.19693923465E+01 -0.23411218268E+02  0.28963837842E+02  0.00000000000E+00 0.  1.
</event>
<event>
 5    1  0.1262391E-009  0.9118800E+02  0.7815553E-02  0.1125453E+00
         25   -1    0    0    0    0  0.00000000000E+00  0.00000000000E+00  0.99999998245E-14  0.12509000000E+03  0.12509000000E+03 0.  0.
        -13    1    3    3    0    0  0.93464642329E+00 -0.13181579983E+02  0.35308814909E+02  0.37700811518E+02  0.10566000000E+00 0.  1.
         23    2    1    0    0    0 -0.29789284268E+02 -0.31779965050E+02  0.24016800688E+02  0.75348926921E+02  0.56597583315E+02 0.  0.
         13    1    3    3    0    0 -0.30723930692E+02 -0.18598385067E+02 -0.11292014221E+02  0.37648115403E+02  0.10566000000E+00 0. -1.
         22    1    1    0    0    0  0.29789284268E+02  0.31779965050E+02 -0.24016800688E+02  0.49741073079E+02  0.00000000000E+00 0. -1.
</event>
<event>
 5    1  0.1262391E-009  0.9118800E+02  0.7815553E-02  0.1125453E+00
         25   -1    0    0    0    0  0.00000000000E+00  0.00000000000E+00  0.99999998245E-14  0.12509000000E+03  0.12509000000E+03 0.  0.
        -13    1    3    3    0    0  0.29417379133E+02 -0.16136620605E+02  0.18265936775E+02  0.38202464971E+02  0.10566000000E+00 0. -1.
         23    2    1    0    0    0 -0.15077693364E+02 -0.16834882749E+02 -0.18466536499E+02  0.95905019537E+02  0.91356497786E+02 0.  0.
         13    1    3    3    0    0 -0.44495072496E+02 -0.69826214401E+00 -0.36732473274E+02  0.57702554565E+02  0.10566000000E+00 0.  1.
         22    1    1    0    0    0  0.15077693364E+02  0.16834882749E+02  0.18466536499E+02  0.29184980463E+02  0.00000000000E+00 0.  1.
</event>
<event>
 4    1  0.1262391E-009  0.9118800E+02  0.7815553E-02  0.1125453E+00
         25   -1    0    0    0    0  0.00000000000E+00  0.00000000000E+00  0.99999998245E-14  0.12509000000E+03  0.12509000000E+03 0.  0.
        -13    1    1    0    0    0 -0.30162019175E+02 -0.19505164651E+02 -0.22792832106E+01  0.35991737174E+02  0.10566000000E+00 0.  1.
         13    1    1    0    0    0 -0.62873568440E+01 -0.15169322387E+02  0.28103618627E+02  0.32549404630E+02  0.10566000000E+00 0. -1.
         22    1    1    0    0    0  0.36449376019E+02  0.34674487038E+02 -0.25824335417E+02  0.56548858196E+02  0.00000000000E+00 0. -1.
</event>
<event>
 5    1  0.1262391E-009  0.9118800E+02  0.7815553E-02  0.1125453E+00
         25   -1    0    0    0    0  0.00000000000E+00  0.00000000000E+00  0.99999998245E-14  0.12509000000E+03  0.12509000000E+03 0.  0.
        -13    1    3    3    0    0 -0.21925855757E+02 -0.53251971249E+02  0.18421942736E+02  0.60463995326E+02  0.10566000000E+00 0. -1.
         23    2    1    0    0    0 -0.14639984539E+02 -0.16857083480E+02  0.15926151613E+02  0.97664961879E+02  0.93735329854E+02 0.  0.
         13    1    3    3    0    0  0.72858712176E+01  0.36394887769E+02 -0.24957911224E+01  0.37200966553E+02  0.10566000000E+00 0.  1.
         22    1    1    0    0    0  0.14639984539E+02  0.16857083480E+02 -0.15926151613E+02  0.27425038121E+02  0.00000000000E+00 0. -1.
</event>
<event>
 5    1  0.1262391E-009  0.9118800E+02  0.7815553E-02  0.1125453E+00
         25   -1    0    0    0    0  0.00000000000E+00  0.00000000000E+00  0.99999998245E-14  0.12509000000E+03  0.12509000000E+03 0.  0.
        -13    1    3    3    0    0  0.40526696198E+02 -0.11347153555E+02 -0.88750040885E+00  0.42094771879E+02  0.10566000000E+00 0.  1.
         23    2    1    0    0    0 -0.57565933350E+00  0.57955427285E+01 -0.29494907640E+02  0.95025581232E+02  0.90144283305E+02 0.  0.
         13    1    3    3    0    0 -0.41102355532E+02  0.17142696284E+02 -0.28607407231E+02  0.52930809352E+02  0.10566000000E+00 0. -1.
         22    1    1    0    0    0  0.57565933350E+00 -0.57955427285E+01  0.29494907640E+02  0.30064418768E+02  0.00000000000E+00 0. -1.
</event>
<event>
 5    1  0.1262391E-009  0.9118800E+02  0.7815553E-02  0.1125453E+00
         25   -1    0    0    0    0  0.00000000000E+00  0.00000000000E+00  0.99999998245E-14  0.12509000000E+03  0.12509000000E+03 0.  0.
        -13    1    3    3    0    0 -0.23452617229E+02  0.30875213847E+02  0.59121481725E+01  0.39220769307E+02  0.10566000000E+00 0. -1.
         23    2    1    0    0    0  0.12415245892E+02  0.96481776437E+00 -0.26324396608E+02  0.95968821098E+02  0.91443816425E+02 0.  0.
         13    1    3    3    0    0  0.35867863121E+02 -0.29910396082E+02 -0.32236544780E+02  0.56748051791E+02  0.10566000000E+00 0.  1.
         22    1    1    0    0    0 -0.12415245892E+02 -0.96481776437E+00  0.26324396608E+02  0.29121178902E+02  0.00000000000E+00 0.  1.
</event>
<event>
 5    1  0.1262391E-009  0.9118800E+02  0.7815553E-02  0.1125453E+00
         25   -1    0    0    0    0  0.00000000000E+00  0.00000000000E+00  0.99999998245E-14  0.12509000000E+03  0.12509000000E+03 0.  0.
        -13    1    3    3    0    0 -0.12141942189E+02 -0.37071384638E+02  0.82380118224E+01  0.39869666689E+02  0.10566000000E+00 0. -1.
         23    2    1    0    0    0 -0.11360082235E+00  0.14635792650E+02  0.25495442904E+02  0.95692092924E+02  0.91064481043E+02 0.  0.
         13    1    3    3    0    0  0.12028341367E+02  0.51707177288E+02  0.17257431081E+02  0.55822426234E+02  0.10566000000E+00 0.  1.
         22    1    1    0    0    0  0.11360082235E+00 -0.14635792650E+02 -0.25495442904E+02  0.29397907076E+02  0.00000000000E+00 0.  1.
</event>
<event>
 5    1  0.1262391E-009  0.9118800E+02  0.7815553E-02  0.1125453E+00
         25   -1    0    0    0    0  0.00000000000E+00  0.00000000000E+00  0.99999998245E-14  0.12509000000E+03  0.12509000000E+03 0.  0.
        -13    1    3    3    0    0 -0.15461744904E+01 -0.13963733519E+02 -0.31534727991E+02  0.34522843782E+02  0.10566000000E+00 0.  1.
         23    2    1    0    0    0 -0.44800794553E+01 -0.10575942715E+02  0.28311834444E+02  0.94537068131E+02  0.89463822884E+02 0.  0.
         13    1    3    3    0    0 -0.29339049649E+01  0.33877908040E+01  0.59846562434E+02  0.60014224348E+02  0.10566000000E+00 0. -1.
         22    1    1    0    0    0  0.44800794553E+01  0.10575942715E+02 -0.28311834444E+02  0.30552931869E+02  0.00000000000E+00 0. -1.
</event>
<event>
 5    1  0.1262391E-009  0.9118800E+02  0.7815553E-02  0.1125453E+00
         25   -1    0    0    0    0  0.00000000000E+00  0.00000000000E+00  0.99999998245E-14  0.12509000000E+03  0.12509000000E+03 0.  0.
        -13    1    3    3    0    0 -0.70883273122E+01 -0.64918466808E+01  0.59748817326E+02  0.60517111575E+02  0.10566000000E+00 0.  1.
         23    2    1    0    0    0 -0.13971454423E+02 -0.50370335107E+01  0.24670975042E+02  0.96293641640E+02  0.91887078338E+02 0.  0.
         13    1    3    3    0    0 -0.68831271104E+01  0.14548131700E+01 -0.35077842284E+02  0.35776530066E+02  0.10566000000E+00 0. -1.
         22    1    1    0    0    0  0.13971454423E+02  0.50370335107E+01 -0.24670975042E+02  0.28796358360E+02  0.00000000000E+00 0.  1.
</event>
<event>
 5    1  0.1262391E-009  0.9118800E+02  0.7815553E-02  0.1125453E+00
         25   -1    0    0    0    0  0.00000000000E+00  0.00000000000E+00  0.99999998245E-14  0.12509000000E+03  0.12509000000E+03 0.  0.
        -13    1    3    3    0    0 -0.10908305903E+02 -0.12537463470E+02  0.57446903513E+02  0.59802483353E+02  0.10566000000E+00 0.  1.
         23    2    1    0    0    0  0.78507557139E+01 -0.32198928444E+01  0.27224810940E+02  0.96573471356E+02  0.92267236676E+02 0.  0.
         13    1    3    3    0    0  0.18759061617E+02  0.93175706252E+01 -0.30222092574E+02  0.36770988002E+02  0.10566000000E+00 0. -1.
         22    1    1    0    0    0 -0.78507557139E+01  0.32198928444E+01 -0.27224810940E+02  0.28516528644E+02  0.00000000000E+00 0.  1.
</event>
<event>
 5    1  0.1262391E-009  0.9118800E+02  0.7815553E-02  0.1125453E+00
         25   -1    0    0    0    0  0.00000000000E+00  0.00000000000E+00  0.99999998245E-14  0.12509000000E+03  0.12509000000E+03 0.  0.
        -13    1    3    3    0    0 -0.27238828344E+02 -0.35644983349E+02  0.86948182504E+01  0.45696057116E+02  0.10566000000E+00 0.  1.
         23    2    1    0    0    0  0.20562776363E+02 -0.19606765110E+02  0.48913936038E+01  0.96259829324E+02  0.91841036581E+02 0.  0.
         13    1    3    3    0    0  0.47801604707E+02  0.16038218240E+02 -0.38034246466E+01  0.50563772208E+02  0.10566000000E+00 0. -1.
         22    1    1    0    0    0 -0.20562776363E+02  0.19606765110E+02 -0.48913936038E+01  0.28830170676E+02  0.00000000000E+00 0.  1.
</event>
<event>
 5    1  0.1262391E-009  0.9118800E+02  0.7815553E-02  0.1125453E+00
         25   -1    0    0    0    0  0.00000000000E+00  0.00000000000E+00  0.99999998245E-14  0.12509000000E+03  0.12509000000E+03 0.  0.
        -13    1    3    3    0    0 -0.23989444037E+02  0.22914392491E+02 -0.50836411648E+02  0.60703498431E+02  0.10566000000E+00 0. -1.
         23    2    1    0    0    0 -0.20956201428E+02  0.71547380031E+01 -0.21055328477E+02  0.94533830222E+02  0.89459295465E+02 0.  0.
         13    1    3    3    0    0  0.30332426092E+01 -0.15759654488E+02  0.29781083171E+02  0.33830331792E+02  0.10566000000E+00 0.  1.
         22    1    1    0    0    0  0.20956201428E+02 -0.71547380031E+01  0.21055328477E+02  0.30556169778E+02  0.00000000000E+00 0. -1.
</event>
<event>
 5    1  0.1262391E-009  0.9118800E+02  0.7815553E-02  0.1125453E+00
         25   -1    0    0    0    0  0.00000000000E+00  0.00000000000E+00  0.99999998245E-14  0.12509000000E+03  0.12509000000E+03 0.  0.
        -13    1    3    3    0    0  0.14732357298E+02  0.19471294097E+01  0.43358556292E+02  0.45834585547E+02  0.10566000000E+00 0.  1.
         23    2    1    0    0    0  0.86452026180E+01  0.26174804335E+02 -0.18250803618E+01  0.97464091353E+02  0.93466883304E+02 0.  0.
         13    1    3    3    0    0 -0.60871546801E+01  0.24227674925E+02 -0.45183636654E+02  0.51629505805E+02  0.10566000000E+00 0. -1.
         22    1    1    0    0    0 -0.86452026180E+01 -0.26174804335E+02  0.18250803618E+01  0.27625908647E+02  0.00000000000E+00 0. -1.
</event>
<event>
 5    1  0.1262391E-009  0.9118800E+02  0.7815553E-02  0.1125453E+00
         25   -1    0    0    0    0  0.00000000000E+00  0.00000000000E+00  0.99999998245E-14  0.12509000000E+03  0.12509000000E+03 0.  0.
        -13    1    3    3    0    0 -0.31194454069E+02  0.13805648492E+02  0.22177561307E+02  0.40688392504E+02  0.10566000000E+00 0.  1.
         23    2    1    0    0    0 -0.13147444887E+02 -0.14225391881E+02 -0.21834454490E+02  0.95901637865E+02  0.91351867311E+02 0.  0.
         13    1    3    3    0    0  0.18047009182E+02 -0.28031040372E+02 -0.44012015798E+02  0.55213245362E+02  0.10566000000E+00 0. -1.
         22    1    1    0    0    0  0.13147444887E+02  0.14225391881E+02  0.21834454490E+02  0.29188362135E+02  0.00000000000E+00 0. -1.
</event>
<event>
 5    1  0.1262391E-009  0.9118800E+02  0.7815553E-02  0.1125453E+00
         25   -1    0    0    0    0  0.00000000000E+00  0.00000000000E+00  0.99999998245E-14  0.12509000000E+03  0.12509000000E+03 0.  0.
        -13    1    3    3    0    0 -0.29186702406E+02 -0.37806280379E+01 -0.18746066468E+02  0.34893880807E+02  0.10566000000E+00 0.  1.
         23    2    1    0    0    0  0.20004049878E+02 -0.35441330704E+01  0.19289884988E+02  0.97075315394E+02  0.92945114477E+02 0.  0.
         13    1    3    3    0    0  0.49190752284E+02  0.23649496742E+00  0.38035951456E+02  0.62181434587E+02  0.10566000000E+00 0. -1.
         22    1    1    0    0    0 -0.20004049878E+02  0.35441330704E+01 -0.19289884988E+02  0.28014684606E+02  0.00000000000E+00 0. -1.
</event>
<event>
 5    1  0.1262391E-009  0.9118800E+02  0.7815553E-02  0.1125453E+00
         25   -1    0    0    0    0  0.00000000000E+00  0.00000000000E+00  0.99999998245E-14  0.12509000000E+03  0.12509000000E+03 0.  0.
        -13    1    3    3    0    0 -0.16696192008E+02 -0.40186373576E+02 -0.32023786829E+02  0.54030005883E+02  0.10566000000E+00 0. -1.
         23    2    1    0    0    0  0.11924562662E+02 -0.27510692383E+02 -0.65229897434E+01  0.94404779042E+02  0.89278662180E+02 0.  0.
         13    1    3    3    0    0  0.28620754670E+02  0.12675681193E+02  0.25500797086E+02  0.40374773159E+02  0.10566000000E+00 0.  1.
         22    1    1    0    0    0 -0.11924562662E+02  0.27510692383E+02  0.65229897434E+01  0.30685220958E+02  0.00000000000E+00 0.  1.
</event>
<event>
 5    1  0.1262391E-009  0.9118800E+02  0.7815553E-02  0.1125453E+00
         25   -1    0    0    0    0  0.00000000000E+00  0.00000000000E+00  0.99999998245E-14  0.12509000000E+03  0.12509000000E+03 0.  0.
        -13    1    3    3    0    0  0.33327020911E+02  0.48969233068E+01 -0.20701928023E+02  0.39537971225E+02  0.10566000000E+00 0.  1.
         23    2    1    0    0    0  0.12084658784E+02  0.79767393731E+01  0.28447111244E+02  0.93169701018E+02  0.87531067061E+02 0.  0.
         13    1    3    3    0    0 -0.21242362126E+02  0.30798160664E+01  0.49149039267E+02  0.53631729794E+02  0.10566000000E+00 0. -1.
         22    1    1    0    0    0 -0.12084658784E+02 -0.79767393731E+01 -0.28447111244E+02  0.31920298982E+02  0.00000000000E+00 0. -1.
</event>
<event>
 5    1  0.1262391E-009  0.9118800E+02  0.7815553E-02  0.1125453E+00
         25   -1    0    0    0    0  0.00000000000E+00  0.00000000000E+00  0.99999998245E-14  0.12509000000E+03  0.12509000000E+03 0.  0.
        -13    1    3    3    0    0 -0.32571730736E+02 -0.10162424290E+02  0.17032705982E+02  0.38135505080E+02  0.10566000000E+00 0.  1.
         23    2    1    0    0    0 -0.22115071752E+01  0.11830074720E+02 -0.26739245913E+02  0.95767164123E+02  0.91167543679E+02 0.  0.
         13    1    3    3    0    0  0.30360223561E+02  0.21992499011E+02 -0.43771951895E+02  0.57631659044E+02  0.10566000000E+00 0. -1.
         22    1    1    0    0    0  0.22115071752E+01 -0.11830074720E+02  0.26739245913E+02  0.29322835877E+02  0.00000000000E+00 0. -1.
</event>
<event>
 5    1  0.1262391E-009  0.9118800E+02  0.7815553E-02  0.1125453E+00
         25   -1    0    0    0    0  0.00000000000E+00  0.00000000000E+00  0.99999998245E-14  0.12509000000E+03  0.12509000000E+03 0.  0.
        -13    1    3    3    0    0 -0.37842819775E+02 -0.25428955049E+02 -0.42375218310E+02  0.62244526300E+02  0.10566000000E+00 0.  1.
         23    2    1    0    0    0 -0.20653949134E+02 -0.12277920289E+02 -0.16679871658E+02  0.95840195557E+02  0.91267694308E+02 0.  0.
         13    1    3    3    0    0  0.17188870641E+02  0.13151034761E+02  0.25695346652E+02  0.33595669257E+02  0.10566000000E+00 0. -1.
         22    1    1    0    0    0  0.20653949134E+02  0.12277920289E+02  0.16679871658E+02  0.29249804443E+02  0.00000000000E+00 0.  1.
</event>
<event>
 5    1  0.1262391E-009  0.9118800E+02  0.7815553E-02  0.1125453E+00
         25   -1    0    0    0    0  0.00000000000E+00  0.00000000000E+00  0.99999998245E-14  0.12509000000E+03  0.12509000000E+03 0.  0.
        -13    1    3    3    0    0 -0.21501140698E+02  0.21888287047E+01  0.54858687882E+02  0.58962503530E+02  0.10566000000E+00 0. -1.
         23    2    1    0    0    0  0.43176707174E+01 -0.23200462956E+01  0.28634879982E+02  0.96038644665E+02  0.91539281307E+02 0.  0.
         13    1    3    3    0    0  0.25818811415E+02 -0.45088750004E+01 -0.26223807900E+02  0.37076141135E+02  0.10566000000E+00 0.  1.
         22    1    1    0    0    0 -0.43176707174E+01  0.23200462956E+01 -0.28634879982E+02  0.29051355335E+02  0.00000000000E+00 0. -1.
</event>
<event>
 5    1  0.1262391E-009  0.9118800E+02  0.7815553E-02  0.1125453E+00
         25   -1    0    0    0    0  0.00000000000E+00  0.00000000000E+00  0.99999998245E-14  0.12509000000E+03  0.12509000000E+03 0.  0.
        -13    1    3    3    0    0 -0.49737554102E+02  0.19600657078E+02  0.20667935913E+02  0.57316531515E+02  0.10566000000E+00 0.  1.
         23    2    1    0    0    0 -0.16086342887E+02  0.51960191956E+00  0.24052893427E+02  0.96148989377E+02  0.91689945264E+02 0.  0.
         13    1    3    3    0    0  0.33651211215E+02 -0.19081055159E+02  0.33849575141E+01  0.38832457862E+02  0.10566000000E+00 0. -1.
         22    1    1    0    0    0  0.16086342887E+02 -0.51960191956E+00 -0.24052893427E+02  0.28941010623E+02  0.00000000000E+00 0.  1.
</event>
<event>
 5    1  0.1262391E-009  0.9118800E+02  0.7815553E-02  0.1125453E+00
         25   -1    0    0    0    0  0.00000000000E+00  0.00000000000E+00  0.99999998245E-14  0.12509000000E+03  0.12509000000E+03 0.  0.
        -13    1    3    3    0    0  0.27806989317E+02 -0.30957493943E+02  0.48343959744E+01  0.41892453194E+02  0.10566000000E+00 0. -1.
         23    2    1    0    0    0 -0.94429068432E+01  0.30604371720E+01 -0.23378284166E+02  0.99691595800E+02  0.96401946751E+02 0.  0.
         13    1    3    3    0    0 -0.37249896161E+02  0.34017931115E+02 -0.28212680140E+02  0.57799142607E+02  0.10566000000E+00 0.  1.
         22    1    1    0    0    0  0.94429068432E+01 -0.30604371720E+01  0.23378284166E+02  0.25398404200E+02  0.00000000000E+00 0.  1.
</event>
<event>
 5    1  0.1262391E-009  0.9118800E+02  0.7815553E-02  0.1125453E+00
         25   -1    0    0    0    0  0.00000000000E+00  0.00000000000E+00  0.99999998245E-14  0.12509000000E+03  0.12509000000E+03 0.  0.
        -13    1    3    3    0    0  0.38083268190E+02  0.73680428980E+01 -0.13053344429E+02  0.40927061182E+02  0.10566000000E+00 0.  1.
         23    2    1    0    0    0 -0.16236760167E+02  0.36653463478E+01 -0.23425993704E+02  0.96352492704E+02  0.91967160034E+02 0.  0.
         13    1    3    3    0    0 -0.54320028357E+02 -0.37026965502E+01 -0.10372649275E+02  0.55425431522E+02  0.10566000000E+00 0. -1.
         22    1    1    0    0    0  0.16236760167E+02 -0.36653463478E+01  0.23425993704E+02  0.28737507296E+02  0.00000000000E+00 0. -1.
</event>
<event>
 5    1  0.1262391E-009  0.9118800E+02  0.7815553E-02  0.1125453E+00
         25   -1    0    0    0    0  0.00000000000E+00  0.00000000000E+00  0.99999998245E-14  0.12509000000E+03  0.12509000000E+03 0.  0.
        -13    1    3    3    0    0  0.40524351943E+02  0.67166281094E+01 -0.29346276744E+02  0.50483178548E+02  0.10566000000E+00 0. -1.
         23    2    1    0    0    0  0.18968348110E+02 -0.20899407494E+02  0.10238411131E+01  0.96847625556E+02  0.92638171731E+02 0.  0.
         13    1    3    3    0    0 -0.21556003833E+02 -0.27616035603E+02  0.30370117857E+02  0.46364447008E+02  0.10566000000E+00 0.  1.
         22    1    1    0    0    0 -0.18968348110E+02  0.20899407494E+02 -0.10238411131E+01  0.28242374444E+02  0.00000000000E+00 0. -1.
</event>
<event>
 5    1  0.1262391E-009  0.9118800E+02  0.7815553E-02  0.1125453E+00
         25   -1    0    0    0    0  0.00000000000E+00  0.00000000000E+00  0.99999998245E-14  0.12509000000E+03  0.12509000000E+03 0.  0.
        -13    1    3    3    0    0  0.31391288043E+02 -0.25214404028E+02 -0.13820190847E+02  0.42569801204E+02  0.10566000000E+00 0. -1.
         23    2    1    0    0    0 -0.14341029728E+01  0.18552163286E+02 -0.20172648681E+02  0.97645962966E+02  0.93709972334E+02 0.  0.
         13    1    3    3    0    0 -0.32825391016E+02  0.43766567314E+02 -0.63524578342E+01  0.55076161761E+02  0.10566000000E+00 0.  1.
         22    1    1    0    0    0  0.14341029728E+01 -0.18552163286E+02  0.20172648681E+02  0.27444037034E+02  0.00000000000E+00 0.  1.
</event>
<event>
 5    1  0.1262391E-009  0.9118800E+02  0.7815553E-02  0.1125453E+00
         25   -1    0    0    0    0  0.00000000000E+00  0.00000000000E+00  0.99999998245E-14  0.12509000000E+03  0.12509000000E+03 0.  0.
        -13    1    3    3    0    0 -0.49367635011E+02  0.26403901371E+02  0.26983669900E+02  0.62148684616E+02  0.10566000000E+00 0.  1.
         23    2    1    0    0    0 -0.27664209546E+02  0.17440245918E+02  0.20438822708E+02  0.86525558591E+02  0.77456156296E+02 0.  0.
         13    1    3    3    0    0  0.21703425465E+02 -0.89636554525E+01 -0.65448471914E+01  0.24376873975E+02  0.10566000000E+00 0. -1.
         22    1    1    0    0    0  0.27664209546E+02 -0.17440245918E+02 -0.20438822708E+02  0.38564441409E+02  0.00000000000E+00 0.  1.
</event>
<event>
 5    1  0.1262391E-009  0.9118800E+02  0.7815553E-02  0.1125453E+00
         25   -1    0    0    0    0  0.00000000000E+00  0.00000000000E+00  0.99999998245E-14  0.12509000000E+03  0.12509000000E+03 0.  0.
        -13    1    3    3    0    0  0.23790956636E+02  0.23764358187E+02 -0.16443569615E+02  0.37432024837E+02  0.10566000000E+00 0. -1.
         23    2    1    0    0    0 -0.28790953997E+02  0.47683027709E+01  0.66495913475E+00  0.95899283770E+02  0.91348643743E+02 0.  0.
         13    1    3    3    0    0 -0.52581910633E+02 -0.18996055416E+02  0.17108528749E+02  0.58467258933E+02  0.10566000000E+00 0.  1.
         22    1    1    0    0    0  0.28790953997E+02 -0.47683027709E+01 -0.66495913475E+00  0.29190716230E+02  0.00000000000E+00 0.  1.
</event>
<event>
 5    1  0.1262391E-009  0.9118800E+02  0.7815553E-02  0.1125453E+00
         25   -1    0    0    0    0  0.00000000000E+00  0.00000000000E+00  0.99999998245E-14  0.12509000000E+03  0.12509000000E+03 0.  0.
        -13    1    3    3    0    0  0.15251425665E+02 -0.66916328345E+01 -0.57662967000E+02  0.60020103816E+02  0.10566000000E+00 0. -1.
         23    2    1    0    0    0  0.17650057097E+02  0.22451232166E+01 -0.22364258197E+02  0.96511596642E+02  0.92183312741E+02 0.  0.
         13    1    3    3    0    0  0.23986314320E+01  0.89367560511E+01  0.35298708803E+02  0.36491492826E+02  0.10566000000E+00 0.  1.
         22    1    1    0    0    0 -0.17650057097E+02 -0.22451232166E+01  0.22364258197E+02  0.28578403358E+02  0.00000000000E+00 0. -1.
</event>
<event>
 5    1  0.1262391E-009  0.9118800E+02  0.7815553E-02  0.1125453E+00
         25   -1    0    0    0    0  0.00000000000E+00  0.00000000000E+00  0.99999998245E-14  0.12509000000E+03  0.12509000000E+03 0.  0.
        -13    1    3    3    0    0  0.15153575328E+02 -0.48243948687E+02 -0.35200252827E+02  0.61613134908E+02  0.10566000000E+00 0.  1.
         23    2    1    0    0    0  0.19756830111E+01 -0.23968307703E+02 -0.98606712998E+01  0.99097386896E+02  0.95627800109E+02 0.  0.
         13    1    3    3    0    0 -0.13177892317E+02  0.24275640984E+02  0.25339581527E+02  0.37484251988E+02  0.10566000000E+00 0. -1.
         22    1    1    0    0    0 -0.19756830111E+01  0.23968307703E+02  0.98606712998E+01  0.25992613104E+02  0.00000000000E+00 0.  1.
</event>
<event>
 5    1  0.1262391E-009  0.9118800E+02  0.7815553E-02  0.1125453E+00
         25   -1    0    0    0    0  0.00000000000E+00  0.00000000000E+00  0.99999998245E-14  0.12509000000E+03  0.12509000000E+03 0.  0.
        -13    1    3    3    0    0  0.26346086058E+02  0.43506507176E+02  0.26710634278E+02  0.57449121532E+02  0.10566000000E+00 0.  1.
         23    2    1    0    0    0  0.27271396073E+01  0.14820454718E+02  0.26496292042E+02  0.94608256932E+02  0.89563305093E+02 0.  0.
         13    1    3    3    0    0 -0.23618946451E+02 -0.28686052458E+02 -0.21434223606E+00  0.37159135400E+02  0.10566000000E+00 0. -1.
         22    1    1    0    0    0 -0.27271396073E+01 -0.14820454718E+02 -0.26496292042E+02  0.30481743068E+02  0.00000000000E+00 0.  1.
</event>
<event>
 5    1  0.1262391E-009  0.9118800E+02  0.7815553E-02  0.1125453E+00
         25   -1    0    0    0    0  0.00000000000E+00  0.00000000000E+00  0.99999998245E-14  0.12509000000E+03  0.12509000000E+03 0.  0.
        -13    1    3    3    0    0 -0.97788885891E+01  0.14016468496E+02 -0.11276239308E+02  0.20475663313E+02  0.10566000000E+00 0.  1.
         23    2    1    0    0    0  0.19470729537E+02 -0.31582849315E+02  0.19907900282E+02  0.82984060120E+02  0.71508349588E+02 0.  0.
         13    1    3    3    0    0  0.29249618126E+02 -0.45599317811E+02  0.31184139591E+02  0.62508396807E+02  0.10566000000E+00 0. -1.
         22    1    1    0    0    0 -0.19470729537E+02  0.31582849315E+02 -0.19907900282E+02  0.42105939880E+02  0.00000000000E+00 0. -1.
</event>
<event>
 5    1  0.1262391E-009  0.9118800E+02  0.7815553E-02  0.1125453E+00
         25   -1    0    0    0    0  0.00000000000E+00  0.00000000000E+00  0.99999998245E-14  0.12509000000E+03  0.12509000000E+03 0.  0.
        -13    1    3    3    0    0 -0.36206640285E+02 -0.13816482826E+02 -0.43235282541E+02  0.58061319472E+02  0.10566000000E+00 0. -1.
         23    2    1    0    0    0 -0.26063201147E+02 -0.89757497918E+01 -0.61035779748E+01  0.96856895274E+02  0.92650687853E+02 0.  0.
         13    1    3    3    0    0  0.10143439138E+02  0.48407330337E+01  0.37131704566E+02  0.38795575802E+02  0.10566000000E+00 0.  1.
         22    1    1    0    0    0  0.26063201147E+02  0.89757497918E+01  0.61035779748E+01  0.28233104726E+02  0.00000000000E+00 0. -1.
</event>
<event>
 5    1  0.1262391E-009  0.9118800E+02  0.7815553E-02  0.1125453E+00
         25   -1    0    0    0    0  0.00000000000E+00  0.00000000000E+00  0.99999998245E-14  0.12509000000E+03  0.12509000000E+03 0.  0.
        -13    1    3    3    0    0 -0.30490020123E+01  0.48551589855E+02 -0.11723190765E+02  0.50039960596E+02  0.10566000000E+00 0. -1.
         23    2    1    0    0    0 -0.32339565693E+01  0.54941346840E+01 -0.28226635321E+02  0.96152361317E+02  0.91694545390E+02 0.  0.
         13    1    3    3    0    0 -0.18495455708E+00 -0.43057455171E+02 -0.16503444555E+02  0.46112400721E+02  0.10566000000E+00 0.  1.
         22    1    1    0    0    0  0.32339565693E+01 -0.54941346840E+01  0.28226635321E+02  0.28937638683E+02  0.00000000000E+00 0.  1.
</event>
<event>
 5    1  0.1262391E-009  0.9118800E+02  0.7815553E-02  0.1125453E+00
         25   -1    0    0    0    0  0.00000000000E+00  0.00000000000E+00  0.99999998245E-14  0.12509000000E+03  0.12509000000E+03 0.  0.
        -13    1    3    3    0    0  0.60755606511E+01  0.38600767872E+02  0.29036988112E+02  0.48683565607E+02  0.10566000000E+00 0. -1.
         23    2    1    0    0    0  0.19338711384E+02 -0.62982971528E+01  0.20386195649E+02  0.96293276609E+02  0.91886581403E+02 0.  0.
         13    1    3    3    0    0  0.13263150733E+02 -0.44899065024E+02 -0.86507924628E+01  0.47609711002E+02  0.10566000000E+00 0.  1.
         22    1    1    0    0    0 -0.19338711384E+02  0.62982971528E+01 -0.20386195649E+02  0.28796723391E+02  0.00000000000E+00 0. -1.
</event>
<event>
 5    1  0.1262391E-009  0.9118800E+02  0.7815553E-02  0.1125453E+00
         25   -1    0    0    0    0  0.00000000000E+00  0.00000000000E+00  0.99999998245E-14  0.12509000000E+03  0.12509000000E+03 0.  0.
        -13    1    3    3    0    0 -0.25856165368E+02 -0.25488364021E+02  0.62661483547E+01  0.36843910857E+02  0.10566000000E+00 0.  1.
         23    2    1    0    0    0  0.27667416678E+02 -0.40291463600E+01  0.11734933887E+02  0.94767918288E+02  0.89786021725E+02 0.  0.
         13    1    3    3    0    0  0.53523582046E+02  0.21459217661E+02  0.54687855327E+01  0.57924007431E+02  0.10566000000E+00 0. -1.
         22    1    1    0    0    0 -0.27667416678E+02  0.40291463600E+01 -0.11734933887E+02  0.30322081712E+02  0.00000000000E+00 0. -1.
</event>
<event>
 5    1  0.1262391E-009  0.9118800E+02  0.7815553E-02  0.1125453E+00
         25   -1    0    0    0    0  0.00000000000E+00  0.00000000000E+00  0.99999998245E-14  0.12509000000E+03  0.12509000000E+03 0.  0.
        -13    1    3    3    0    0  0.14809908362E+02 -0.87235055626E+01 -0.36334480392E+02  0.40195006709E+02  0.10566000000E+00 0.  1.
         23    2    1    0    0    0 -0.66727280494E+00  0.32206954647E+02 -0.95932675189E+01  0.91478038404E+02  0.85079183987E+02 0.  0.
         13    1    3    3    0    0 -0.15477181167E+02  0.40930460210E+02  0.26741212873E+02  0.51283031695E+02  0.10566000000E+00 0. -1.
         22    1    1    0    0    0  0.66727280494E+00 -0.32206954647E+02  0.95932675189E+01  0.33611961596E+02  0.00000000000E+00 0.  1.
</event>
<event>
 5    1  0.1262391E-009  0.9118800E+02  0.7815553E-02  0.1125453E+00
         25   -1    0    0    0    0  0.00000000000E+00  0.00000000000E+00  0.99999998245E-14  0.12509000000E+03  0.12509000000E+03 0.  0.
        -13    1    3    3    0    0  0.14054786657E+02 -0.20315583328E+02  0.27143886767E+02  0.36702339255E+02  0.10566000000E+00 0. -1.
         23    2    1    0    0    0 -0.12931001877E+02  0.23359667879E+02 -0.58854664291E+01  0.97749122032E+02  0.93847574555E+02 0.  0.
         13    1    3    3    0    0 -0.26985788534E+02  0.43675251208E+02 -0.33029353196E+02  0.61046782777E+02  0.10566000000E+00 0.  1.
         22    1    1    0    0    0  0.12931001877E+02 -0.23359667879E+02  0.58854664291E+01  0.27340877968E+02  0.00000000000E+00 0.  1.
</event>
<event>
 5    1  0.1262391E-009  0.9118800E+02  0.7815553E-02  0.1125453E+00
         25   -1    0    0    0    0  0.00000000000E+00  0.00000000000E+00  0.99999998245E-14  0.12509000000E+03  0.12509000000E+03 0.  0.
        -13    1    3    3    0    0  0.16705298779E+02 -0.33964889089E+02 -0.48223309835E+02  0.61303992314E+02  0.10566000000E+00 0. -1.
         23    2    1    0    0    0  0.29007293795E+01 -0.10009439288E+02 -0.26968028804E+02  0.96178450693E+02  0.91730129698E+02 0.  0.
         13    1    3    3    0    0 -0.13804569399E+02  0.23955449801E+02  0.21255281031E+02  0.34874458379E+02  0.10566000000E+00 0.  1.
         22    1    1    0    0    0 -0.29007293795E+01  0.10009439288E+02  0.26968028804E+02  0.28911549307E+02  0.00000000000E+00 0. -1.
</event>
<event>
 5    1  0.1262391E-009  0.9118800E+02  0.7815553E-02  0.1125453E+00
         25   -1    0    0    0    0  0.00000000000E+00  0.00000000000E+00  0.99999998245E-14  0.12509000000E+03  0.12509000000E+03 0.  0.
        -13    1    3    3    0    0 -0.10976660499E+02 -0.88851041469E+00 -0.42322226559E+02  0.43731665317E+02  0.10566000000E+00 0.  1.
         23    2    1    0    0    0 -0.15662511941E+02  0.29383536456E+02 -0.59831715174E+01  0.91259468872E+02  0.84757216935E+02 0.  0.
         13    1    3    3    0    0 -0.46858514421E+01  0.30272046870E+02  0.36339055041E+02  0.47527803555E+02  0.10566000000E+00 0. -1.
         22    1    1    0    0    0  0.15662511941E+02 -0.29383536456E+02  0.59831715174E+01  0.33830531128E+02  0.00000000000E+00 0.  1.
</event>
<event>
 5    1  0.1262391E-009  0.9118800E+02  0.7815553E-02  0.1125453E+00
         25   -1    0    0    0    0  0.00000000000E+00  0.00000000000E+00  0.99999998245E-14  0.12509000000E+03  0.12509000000E+03 0.  0.
        -13    1    3    3    0    0 -0.27204707632E+02  0.13883701210E+02  0.19092199482E+02  0.36019113283E+02  0.10566000000E+00 0.  1.
         23    2    1    0    0    0  0.22727152928E+02 -0.16475999874E+02  0.10666831495E+02  0.95060625278E+02  0.90192899565E+02 0.  0.
         13    1    3    3    0    0  0.49931860559E+02 -0.30359701084E+02 -0.84253679870E+01  0.59041511995E+02  0.10566000000E+00 0. -1.
         22    1    1    0    0    0 -0.22727152928E+02  0.16475999874E+02 -0.10666831495E+02  0.30029374722E+02  0.00000000000E+00 0. -1.
</event>
<event>
 5    1  0.1262391E-009  0.9118800E+02  0.7815553E-02  0.1125453E+00
         25   -1    0    0    0    0  0.00000000000E+00  0.00000000000E+00  0.99999998245E-14  0.12509000000E+03  0.12509000000E+03 0.  0.
        -13    1    3    3    0    0  0.91206573585E+01 -0.68243287608E+01  0.61374403048E+02  0.62422643065E+02  0.10566000000E+00 0. -1.
         23    2    1    0    0    0  0.50743657161E+01 -0.51161552939E+00  0.28020088607E+02  0.96609545238E+02  0.92316130376E+02 0.  0.
         13    1    3    3    0    0 -0.40462916424E+01  0.63127132314E+01 -0.33354314440E+02  0.34186902173E+02  0.10566000000E+00 0.  1.
         22    1    1    0    0    0 -0.50743657161E+01  0.51161552939E+00 -0.28020088607E+02  0.28480454762E+02  0.00000000000E+00 0. -1.
</event>
<event>
 5    1  0.1262391E-009  0.9118800E+02  0.7815553E-02  0.1125453E+00
         25   -1    0    0    0    0  0.00000000000E+00  0.00000000000E+00  0.99999998245E-14  0.12509000000E+03  0.12509000000E+03 0.  0.
        -13    1    3    3    0    0 -0.40940634992E+02  0.27724465063E+02 -0.51898814848E+01  0.49716472023E+02  0.10566000000E+00 0.  1.
         23    2    1    0    0    0 -0.11856499486E+02  0.90223062920E+01  0.25241888753E+02  0.95779054285E+02  0.91183856582E+02 0.  0.
         13    1    3    3    0    0  0.29084135506E+02 -0.18702158771E+02  0.30431770237E+02  0.46062582262E+02  0.10566000000E+00 0. -1.
         22    1    1    0    0    0  0.11856499486E+02 -0.90223062920E+01 -0.25241888753E+02  0.29310945715E+02  0.00000000000E+00 0.  1.
</event>
<event>
 5    1  0.1262391E-009  0.9118800E+02  0.7815553E-02  0.1125453E+00
         25   -1    0    0    0    0  0.00000000000E+00  0.00000000000E+00  0.99999998245E-14  0.12509000000E+03  0.12509000000E+03 0.  0.
        -13    1    3    3    0    0 -0.45859394526E+02  0.28765868724E+02  0.18729211239E+02  0.57283102111E+02  0.10566000000E+00 0.  1.
         23    2    1    0    0    0 -0.11272212503E+02  0.13051212456E+02  0.23894235494E+02  0.95622536398E+02  0.90968885098E+02 0.  0.
         13    1    3    3    0    0  0.34587182023E+02 -0.15714656268E+02  0.51650242551E+01  0.38339434287E+02  0.10566000000E+00 0. -1.
         22    1    1    0    0    0  0.11272212503E+02 -0.13051212456E+02 -0.23894235494E+02  0.29467463602E+02  0.00000000000E+00 0.  1.
</event>
<event>
 5    1  0.1262391E-009  0.9118800E+02  0.7815553E-02  0.1125453E+00
         25   -1    0    0    0    0  0.00000000000E+00  0.00000000000E+00  0.99999998245E-14  0.12509000000E+03  0.12509000000E+03 0.  0.
        -13    1    3    3    0    0  0.12274584031E+01 -0.32894848496E+01  0.30176708867E+02  0.30380458963E+02  0.10566000000E+00 0. -1.
         23    2    1    0    0    0 -0.12722437516E+02 -0.39367507786E+02 -0.59301686871E+01  0.83294928684E+02  0.72050101722E+02 0.  0.
         13    1    3    3    0    0 -0.13949895919E+02 -0.36078022936E+02 -0.36106877554E+02  0.52914469721E+02  0.10566000000E+00 0.  1.
         22    1    1    0    0    0  0.12722437516E+02  0.39367507786E+02  0.59301686871E+01  0.41795071316E+02  0.00000000000E+00 0.  1.
</event>
<event>
 5    1  0.1262391E-009  0.9118800E+02  0.7815553E-02  0.1125453E+00
         25   -1    0    0    0    0  0.00000000000E+00  0.00000000000E+00  0.99999998245E-14  0.12509000000E+03  0.12509000000E+03 0.  0.
        -13    1    3    3    0    0  0.29529276787E+02 -0.57341079081E+01 -0.27286118227E+02  0.40612825474E+02  0.10566000000E+00 0.  1.
         23    2    1    0    0    0  0.65007333068E+01 -0.17865572355E+02  0.21794812049E+02  0.96168519379E+02  0.91716585622E+02 0.  0.
         13    1    3    3    0    0 -0.23028543480E+02 -0.12131464447E+02  0.49080930276E+02  0.55555693905E+02  0.10566000000E+00 0. -1.
         22    1    1    0    0    0 -0.65007333068E+01  0.17865572355E+02 -0.21794812049E+02  0.28921480621E+02  0.00000000000E+00 0. -1.
</event>
<event>
 5    1  0.1262391E-009  0.9118800E+02  0.7815553E-02  0.1125453E+00
         25   -1    0    0    0    0  0.00000000000E+00  0.00000000000E+00  0.99999998245E-14  0.12509000000E+03  0.12509000000E+03 0.  0.
        -13    1    3    3    0    0 -0.38057528030E+02  0.16103584005E+02 -0.45006366410E+02  0.61100614064E+02  0.10566000000E+00 0.  1.
         23    2    1    0    0    0 -0.14472857373E+02  0.16254246577E+02 -0.19118213836E+02  0.96121564892E+02  0.91652523177E+02 0.  0.
         13    1    3    3    0    0  0.23584670656E+02  0.15066257116E+00  0.25888152574E+02  0.35020950828E+02  0.10566000000E+00 0. -1.
         22    1    1    0    0    0  0.14472857373E+02 -0.16254246577E+02  0.19118213836E+02  0.28968435108E+02  0.00000000000E+00 0.  1.
</event>
<event>
 5    1  0.1262391E-009  0.9118800E+02  0.7815553E-02  0.1125453E+00
         25   -1    0    0    0    0  0.00000000000E+00  0.00000000000E+00  0.99999998245E-14  0.12509000000E+03  0.12509000000E+03 0.  0.
        -13    1    3    3    0    0 -0.80263223608E+00 -0.37511189875E+02 -0.20652829436E+02  0.42828543194E+02  0.10566000000E+00 0.  1.
         23    2    1    0    0    0  0.27878109553E+02 -0.40921731834E+01  0.85195890468E+01  0.95653317593E+02  0.91011202033E+02 0.  0.
         13    1    3    3    0    0  0.28680741789E+02  0.33419016691E+02  0.29172418483E+02  0.52824774400E+02  0.10566000000E+00 0. -1.
         22    1    1    0    0    0 -0.27878109553E+02  0.40921731834E+01 -0.85195890468E+01  0.29436682407E+02  0.00000000000E+00 0.  1.
</event>
<event>
 5    1  0.1262391E-009  0.9118800E+02  0.7815553E-02  0.1125453E+00
         25   -1    0    0    0    0  0.00000000000E+00  0.00000000000E+00  0.99999998245E-14  0.12509000000E+03  0.12509000000E+03 0.  0.
        -13    1    3    3    0    0 -0.18624795263E+02 -0.23411293434E+01 -0.43907806398E+02  0.47752178085E+02  0.10566000000E+00 0. -1.
         23    2    1    0    0    0  0.22440289020E+02 -0.17022065822E+01 -0.17528545665E+02  0.96564327498E+02  0.92254839188E+02 0.  0.
         13    1    3    3    0    0  0.41065084283E+02  0.63892276127E+00  0.26379260733E+02  0.48812149413E+02  0.10566000000E+00 0.  1.
         22    1    1    0    0    0 -0.22440289020E+02  0.17022065822E+01  0.17528545665E+02  0.28525672502E+02  0.00000000000E+00 0.  1.
</event>
<event>
 5    1  0.1262391E-009  0.9118800E+02  0.7815553E-02  0.1125453E+00
         25   -1    0    0    0    0  0.00000000000E+00  0.00000000000E+00  0.99999998245E-14  0.12509000000E+03  0.12509000000E+03 0.  0.
        -13    1    3    3    0    0 -0.91596979303E+01  0.44368768224E+02 -0.39296317653E+02  0.59972488735E+02  0.10566000000E+00 0.  1.
         23    2    1    0    0    0  0.72772338461E+01  0.17618404119E+02 -0.22571508525E+02  0.95546146270E+02  0.90863781419E+02 0.  0.
         13    1    3    3    0    0  0.16436931776E+02 -0.26750364105E+02  0.16724809128E+02  0.35573657535E+02  0.10566000000E+00 0. -1.
         22    1    1    0    0    0 -0.72772338461E+01 -0.17618404119E+02  0.22571508525E+02  0.29543853730E+02  0.00000000000E+00 0.  1.
</event>
<event>
 5    1  0.1262391E-009  0.9118800E+02  0.7815553E-02  0.1125453E+00
         25   -1    0    0    0    0  0.00000000000E+00  0.00000000000E+00  0.99999998245E-14  0.12509000000E+03  0.12509000000E+03 0.  0.
        -13    1    3    3    0    0 -0.14704587337E+02 -0.21797344476E+02 -0.90996794676E+01  0.27823810764E+02  0.10566000000E+00 0. -1.
         23    2    1    0    0    0  0.52046430719E+01  0.22145911390E+02  0.28238242953E+02  0.88828063126E+02  0.81089436629E+02 0.  0.
         13    1    3    3    0    0  0.19909230408E+02  0.43943255866E+02  0.37337922420E+02  0.61004252362E+02  0.10566000000E+00 0.  1.
         22    1    1    0    0    0 -0.52046430719E+01 -0.22145911390E+02 -0.28238242953E+02  0.36261936874E+02  0.00000000000E+00 0.  1.
</event>
<event>
 5    1  0.1262391E-009  0.9118800E+02  0.7815553E-02  0.1125453E+00
         25   -1    0    0    0    0  0.00000000000E+00  0.00000000000E+00  0.99999998245E-14  0.12509000000E+03  0.12509000000E+03 0.  0.
        -13    1    3    3    0    0  0.40029878872E+02  0.16915503095E+02 -0.38821128029E+02  0.58271919421E+02  0.10566000000E+00 0.  1.
         23    2    1    0    0    0  0.12454629922E+02 -0.41196308964E+01 -0.27272158585E+02  0.94826824372E+02  0.89868052285E+02 0.  0.
         13    1    3    3    0    0 -0.27575248951E+02 -0.21035133991E+02  0.11548969445E+02  0.36554904951E+02  0.10566000000E+00 0. -1.
         22    1    1    0    0    0 -0.12454629922E+02  0.41196308964E+01  0.27272158585E+02  0.30263175628E+02  0.00000000000E+00 0.  1.
</event>
<event>
 5    1  0.1262391E-009  0.9118800E+02  0.7815553E-02  0.1125453E+00
         25   -1    0    0    0    0  0.00000000000E+00  0.00000000000E+00  0.99999998245E-14  0.12509000000E+03  0.12509000000E+03 0.  0.
        -13    1    3    3    0    0 -0.34126284360E+02 -0.52146436765E+01 -0.15090980201E+02  0.37676844883E+02  0.10566000000E+00 0.  1.
         23    2    1    0    0    0  0.20864164303E+02 -0.20158309584E+02 -0.30636862153E+01  0.95917119261E+02  0.91373063847E+02 0.  0.
         13    1    3    3    0    0  0.54990448663E+02 -0.14943665908E+02  0.12027293986E+02  0.58240274378E+02  0.10566000000E+00 0. -1.
         22    1    1    0    0    0 -0.20864164303E+02  0.20158309584E+02  0.30636862153E+01  0.29172880739E+02  0.00000000000E+00 0. -1.
</event>
<event>
 5    1  0.1262391E-009  0.9118800E+02  0.7815553E-02  0.1125453E+00
         25   -1    0    0    0    0  0.00000000000E+00  0.00000000000E+00  0.99999998245E-14  0.12509000000E+03  0.12509000000E+03 0.  0.
        -13    1    3    3    0    0  0.97198858359E+01 -0.79153012728E+01  0.55380357629E+02  0.56781364461E+02  0.10566000000E+00 0.  1.
         23    2    1    0    0    0 -0.40940211172E+00  0.14774672732E+02  0.25204717717E+02  0.95871232750E+02  0.91310223466E+02 0.  0.
         13    1    3    3    0    0 -0.10129287948E+02  0.22689974004E+02 -0.30175639913E+02  0.39089868289E+02  0.10566000000E+00 0. -1.
         22    1    1    0    0    0  0.40940211172E+00 -0.14774672732E+02 -0.25204717717E+02  0.29218767250E+02  0.00000000000E+00 0.  1.
</event>
<event>
 5    1  0.1262391E-009  0.9118800E+02  0.7815553E-02  0.1125453E+00
         25   -1    0    0    0    0  0.00000000000E+00  0.00000000000E+00  0.99999998245E-14  0.12509000000E+03  0.12509000000E+03 0.  0.
        -13    1    3    3    0    0  0.11779194682E+01 -0.14660878234E+02  0.32016563180E+02  0.35233511417E+02  0.10566000000E+00 0. -1.
         23    2    1    0    0    0  0.40946922669E+01  0.25309252585E+02 -0.13693059022E+02  0.96024132792E+02  0.91519448435E+02 0.  0.
         13    1    3    3    0    0  0.29167727987E+01  0.39970130819E+02 -0.45709622202E+02  0.60790621375E+02  0.10566000000E+00 0.  1.
         22    1    1    0    0    0 -0.40946922669E+01 -0.25309252585E+02  0.13693059022E+02  0.29065867208E+02  0.00000000000E+00 0.  1.
</event>
<event>
 5    1  0.1262391E-009  0.9118800E+02  0.7815553E-02  0.1125453E+00
         25   -1    0    0    0    0  0.00000000000E+00  0.00000000000E+00  0.99999998245E-14  0.12509000000E+03  0.12509000000E+03 0.  0.
        -13    1    3    3    0    0  0.48039097124E+02 -0.38702995157E+00 -0.13466373313E+02  0.49892474572E+02  0.10566000000E+00 0. -1.
         23    2    1    0    0    0  0.11252021216E+02 -0.26504233609E+02 -0.36246116539E+01  0.96068969862E+02  0.91580711835E+02 0.  0.
         13    1    3    3    0    0 -0.36787075908E+02 -0.26117203657E+02  0.98417616589E+01  0.46176495291E+02  0.10566000000E+00 0.  1.
         22    1    1    0    0    0 -0.11252021216E+02  0.26504233609E+02  0.36246116539E+01  0.29021030138E+02  0.00000000000E+00 0. -1.
</event>
<event>
 5    1  0.1262391E-009  0.9118800E+02  0.7815553E-02  0.1125453E+00
         25   -1    0    0    0    0  0.00000000000E+00  0.00000000000E+00  0.99999998245E-14  0.12509000000E+03  0.12509000000E+03 0.  0.
        -13    1    3    3    0    0  0.29021147650E+02 -0.41732207611E+02 -0.13204985625E+02  0.52518444116E+02  0.10566000000E+00 0. -1.
         23    2    1    0    0    0 -0.54719461699E+01 -0.17593414663E+02 -0.22877245919E+02  0.95715881882E+02  0.91097152695E+02 0.  0.
         13    1    3    3    0    0 -0.34493093820E+02  0.24138792948E+02 -0.96722602941E+01  0.43197437765E+02  0.10566000000E+00 0.  1.
         22    1    1    0    0    0  0.54719461699E+01  0.17593414663E+02  0.22877245919E+02  0.29374118118E+02  0.00000000000E+00 0. -1.
</event>
<event>
 5    1  0.1262391E-009  0.9118800E+02  0.7815553E-02  0.1125453E+00
         25   -1    0    0    0    0  0.00000000000E+00  0.00000000000E+00  0.99999998245E-14  0.12509000000E+03  0.12509000000E+03 0.  0.
        -13    1    3    3    0    0  0.59849223951E+01 -0.30146118725E+02 -0.23444608485E+02  0.38655770608E+02  0.10566000000E+00 0.  1.
         23    2    1    0    0    0  0.18825905040E+02  0.22283779380E+02 -0.95505103753E+01  0.94394824932E+02  0.89264714202E+02 0.  0.
         13    1    3    3    0    0  0.12840982645E+02  0.52429898105E+02  0.13894098110E+02  0.55739054324E+02  0.10566000000E+00 0. -1.
         22    1    1    0    0    0 -0.18825905040E+02 -0.22283779380E+02  0.95505103753E+01  0.30695175068E+02  0.00000000000E+00 0. -1.
</event>
<event>
 5    1  0.1262391E-009  0.9118800E+02  0.7815553E-02  0.1125453E+00
         25   -1    0    0    0    0  0.00000000000E+00  0.00000000000E+00  0.99999998245E-14  0.12509000000E+03  0.12509000000E+03 0.  0.
        -13    1    3    3    0    0 -0.58879821219E+02 -0.16290412410E+02  0.51806868841E+01  0.61311186286E+02  0.10566000000E+00 0.  1.
         23    2    1    0    0    0 -0.27592184285E+02 -0.10160415747E+02 -0.59682369155E+01  0.95086957927E+02  0.90229413354E+02 0.  0.
         13    1    3    3    0    0  0.31287636934E+02  0.61299966630E+01 -0.11148923800E+02  0.33775771641E+02  0.10566000000E+00 0. -1.
         22    1    1    0    0    0  0.27592184285E+02  0.10160415747E+02  0.59682369155E+01  0.30003042073E+02  0.00000000000E+00 0.  1.
</event>
<event>
 5    1  0.1262391E-009  0.9118800E+02  0.7815553E-02  0.1125453E+00
         25   -1    0    0    0    0  0.00000000000E+00  0.00000000000E+00  0.99999998245E-14  0.12509000000E+03  0.12509000000E+03 0.  0.
        -13    1    3    3    0    0  0.39725372987E+02  0.31645494657E+01  0.47419286412E+02  0.61941258626E+02  0.10566000000E+00 0. -1.
         23    2    1    0    0    0  0.22032821505E+02  0.42647242649E+01  0.17859363291E+02  0.96409170973E+02  0.92044219232E+02 0.  0.
         13    1    3    3    0    0 -0.17692551482E+02  0.11001747992E+01 -0.29559923122E+02  0.34467912347E+02  0.10566000000E+00 0.  1.
         22    1    1    0    0    0 -0.22032821505E+02 -0.42647242649E+01 -0.17859363291E+02  0.28680829027E+02  0.00000000000E+00 0. -1.
</event>
<event>
 5    1  0.1262391E-009  0.9118800E+02  0.7815553E-02  0.1125453E+00
         25   -1    0    0    0    0  0.00000000000E+00  0.00000000000E+00  0.99999998245E-14  0.12509000000E+03  0.12509000000E+03 0.  0.
        -13    1    3    3    0    0 -0.10552218020E+02 -0.51371905635E+02 -0.19234778158E+02  0.55860628788E+02  0.10566000000E+00 0.  1.
         23    2    1    0    0    0  0.12234386498E+01 -0.29210989865E+02  0.98157464922E+01  0.94249643157E+02  0.89061033146E+02 0.  0.
         13    1    3    3    0    0  0.11775656669E+02  0.22160915771E+02  0.29050524650E+02  0.38389014370E+02  0.10566000000E+00 0. -1.
         22    1    1    0    0    0 -0.12234386498E+01  0.29210989865E+02 -0.98157464922E+01  0.30840356843E+02  0.00000000000E+00 0.  1.
</event>
<event>
 5    1  0.1262391E-009  0.9118800E+02  0.7815553E-02  0.1125453E+00
         25   -1    0    0    0    0  0.00000000000E+00  0.00000000000E+00  0.99999998245E-14  0.12509000000E+03  0.12509000000E+03 0.  0.
        -13    1    3    3    0    0 -0.26234478580E+02  0.41770195058E+02 -0.35877817617E+02  0.60993655592E+02  0.10566000000E+00 0.  1.
         23    2    1    0    0    0 -0.43709347211E+01  0.17956062389E+02 -0.22480917834E+02  0.95988163056E+02  0.91470271309E+02 0.  0.
         13    1    3    3    0    0  0.21863543858E+02 -0.23814132669E+02  0.13396899783E+02  0.34994507464E+02  0.10566000000E+00 0. -1.
         22    1    1    0    0    0  0.43709347211E+01 -0.17956062389E+02  0.22480917834E+02  0.29101836944E+02  0.00000000000E+00 0.  1.
</event>
<event>
 5    1  0.1262391E-009  0.9118800E+02  0.7815553E-02  0.1125453E+00
         25   -1    0    0    0    0  0.00000000000E+00  0.00000000000E+00  0.99999998245E-14  0.12509000000E+03  0.12509000000E+03 0.  0.
        -13    1    3    3    0    0 -0.48333406006E+02  0.43831998070E+01  0.12940896012E+02  0.50227567434E+02  0.10566000000E+00 0.  1.
         23    2    1    0    0    0 -0.22362332004E+02 -0.12122192573E+02 -0.18049101721E+02  0.93900394066E+02  0.88569139588E+02 0.  0.
         13    1    3    3    0    0  0.25971074003E+02 -0.16505392380E+02 -0.30989997733E+02  0.43672826631E+02  0.10566000000E+00 0. -1.
         22    1    1    0    0    0  0.22362332004E+02  0.12122192573E+02  0.18049101721E+02  0.31189605934E+02  0.00000000000E+00 0. -1.
</event>
<event>
 5    1  0.1262391E-009  0.9118800E+02  0.7815553E-02  0.1125453E+00
         25   -1    0    0    0    0  0.00000000000E+00  0.00000000000E+00  0.99999998245E-14  0.12509000000E+03  0.12509000000E+03 0.  0.
        -13    1    3    3    0    0 -0.47974326114E+02 -0.11113201550E+02  0.17414510305E+02  0.52233280081E+02  0.10566000000E+00 0.  1.
         23    2    1    0    0    0 -0.60049205905E+01 -0.18255222681E+02  0.22941026266E+02  0.95163374521E+02  0.90335291761E+02 0.  0.
         13    1    3    3    0    0  0.41969405524E+02 -0.71420211315E+01  0.55265159614E+01  0.42930094440E+02  0.10566000000E+00 0. -1.
         22    1    1    0    0    0  0.60049205905E+01  0.18255222681E+02 -0.22941026266E+02  0.29926625479E+02  0.00000000000E+00 0.  1.
</event>
<event>
 5    1  0.1262391E-009  0.9118800E+02  0.7815553E-02  0.1125453E+00
         25   -1    0    0    0    0  0.00000000000E+00  0.00000000000E+00  0.99999998245E-14  0.12509000000E+03  0.12509000000E+03 0.  0.
        -13    1    3    3    0    0 -0.32679135551E+02 -0.13684952984E+02  0.26169663490E+02  0.44046183600E+02  0.10566000000E+00 0.  1.
         23    2    1    0    0    0  0.49045997329E+01 -0.27325478442E+02 -0.75170404460E+01  0.96328171691E+02  0.91934073627E+02 0.  0.
         13    1    3    3    0    0  0.37583735283E+02 -0.13640525458E+02 -0.33686703936E+02  0.52281988091E+02  0.10566000000E+00 0. -1.
         22    1    1    0    0    0 -0.49045997329E+01  0.27325478442E+02  0.75170404460E+01  0.28761828309E+02  0.00000000000E+00 0.  1.
</event>
<event>
 5    1  0.1262391E-009  0.9118800E+02  0.7815553E-02  0.1125453E+00
         25   -1    0    0    0    0  0.00000000000E+00  0.00000000000E+00  0.99999998245E-14  0.12509000000E+03  0.12509000000E+03 0.  0.
        -13    1    3    3    0    0 -0.60345756795E+01  0.54601389792E+02 -0.19230884860E+02  0.58202800340E+02  0.10566000000E+00 0.  1.
         23    2    1    0    0    0 -0.34940747806E+01  0.28379307828E+02  0.72867056922E+01  0.95582547531E+02  0.90913880356E+02 0.  0.
         13    1    3    3    0    0  0.25405008989E+01 -0.26222081965E+02  0.26517590552E+02  0.37379747191E+02  0.10566000000E+00 0. -1.
         22    1    1    0    0    0  0.34940747806E+01 -0.28379307828E+02 -0.72867056922E+01  0.29507452469E+02  0.00000000000E+00 0.  1.
</event>
<event>
 5    1  0.1262391E-009  0.9118800E+02  0.7815553E-02  0.1125453E+00
         25   -1    0    0    0    0  0.00000000000E+00  0.00000000000E+00  0.99999998245E-14  0.12509000000E+03  0.12509000000E+03 0.  0.
        -13    1    3    3    0    0 -0.41434521513E+02 -0.10966632519E+01  0.81603763551E+01  0.42244823938E+02  0.10566000000E+00 0.  1.
         23    2    1    0    0    0  0.17708254566E+01  0.27051631149E+02 -0.88957031057E+01  0.96558261456E+02  0.92246613765E+02 0.  0.
         13    1    3    3    0    0  0.43205346969E+02  0.28148294401E+02 -0.17056079461E+02  0.54313437518E+02  0.10566000000E+00 0. -1.
         22    1    1    0    0    0 -0.17708254566E+01 -0.27051631149E+02  0.88957031057E+01  0.28531738544E+02  0.00000000000E+00 0. -1.
</event>
<event>
 5    1  0.1262391E-009  0.9118800E+02  0.7815553E-02  0.1125453E+00
         25   -1    0    0    0    0  0.00000000000E+00  0.00000000000E+00  0.99999998245E-14  0.12509000000E+03  0.12509000000E+03 0.  0.
        -13    1    3    3    0    0 -0.30490991489E+01 -0.27441083772E+02 -0.16335382845E+02  0.32080616904E+02  0.10566000000E+00 0.  1.
         23    2    1    0    0    0  0.60044145095E+01  0.30433044191E+02  0.33781136971E+01  0.93886877969E+02  0.88550048167E+02 0.  0.
         13    1    3    3    0    0  0.90535136583E+01  0.57874127962E+02  0.19713496542E+02  0.61806261066E+02  0.10566000000E+00 0. -1.
         22    1    1    0    0    0 -0.60044145095E+01 -0.30433044191E+02 -0.33781136971E+01  0.31203122031E+02  0.00000000000E+00 0. -1.
</event>
<event>
 5    1  0.1262391E-009  0.9118800E+02  0.7815553E-02  0.1125453E+00
         25   -1    0    0    0    0  0.00000000000E+00  0.00000000000E+00  0.99999998245E-14  0.12509000000E+03  0.12509000000E+03 0.  0.
        -13    1    3    3    0    0 -0.21508784252E+02 -0.14524634272E+02 -0.37513719087E+02  0.45616697430E+02  0.10566000000E+00 0.  1.
         23    2    1    0    0    0  0.44125273947E+01 -0.30515561915E+02  0.40710029542E+00  0.94254376970E+02  0.89067681739E+02 0.  0.
         13    1    3    3    0    0  0.25921311647E+02 -0.15990927643E+02  0.37920819382E+02  0.48637679540E+02  0.10566000000E+00 0. -1.
         22    1    1    0    0    0 -0.44125273947E+01  0.30515561915E+02 -0.40710029542E+00  0.30835623030E+02  0.00000000000E+00 0. -1.
</event>
<event>
 5    1  0.1262391E-009  0.9118800E+02  0.7815553E-02  0.1125453E+00
         25   -1    0    0    0    0  0.00000000000E+00  0.00000000000E+00  0.99999998245E-14  0.12509000000E+03  0.12509000000E+03 0.  0.
        -13    1    3    3    0    0  0.32307230470E+01  0.34430855001E+02 -0.72395246791E+01  0.35331901012E+02  0.10566000000E+00 0.  1.
         23    2    1    0    0    0 -0.85581732830E+00 -0.18396568893E+02 -0.27444570819E+02  0.92038969187E+02  0.85899948843E+02 0.  0.
         13    1    3    3    0    0 -0.40865403753E+01 -0.52827423894E+02 -0.20205046140E+02  0.56707068175E+02  0.10566000000E+00 0. -1.
         22    1    1    0    0    0  0.85581732830E+00  0.18396568893E+02  0.27444570819E+02  0.33051030813E+02  0.00000000000E+00 0. -1.
</event>
<event>
 5    1  0.1262391E-009  0.9118800E+02  0.7815553E-02  0.1125453E+00
         25   -1    0    0    0    0  0.00000000000E+00  0.00000000000E+00  0.99999998245E-14  0.12509000000E+03  0.12509000000E+03 0.  0.
        -13    1    3    3    0    0 -0.21129082009E+02 -0.44516869382E+02 -0.12571935458E+02  0.50855230717E+02  0.10566000000E+00 0.  1.
         23    2    1    0    0    0 -0.27556115194E+02 -0.68269814255E+01  0.96832492794E+01  0.95094792440E+02  0.90240274117E+02 0.  0.
         13    1    3    3    0    0 -0.64270331843E+01  0.37689887956E+02  0.22255184737E+02  0.44239561723E+02  0.10566000000E+00 0. -1.
         22    1    1    0    0    0  0.27556115194E+02  0.68269814255E+01 -0.96832492794E+01  0.29995207560E+02  0.00000000000E+00 0.  1.
</event>
<event>
 5    1  0.1262391E-009  0.9118800E+02  0.7815553E-02  0.1125453E+00
         25   -1    0    0    0    0  0.00000000000E+00  0.00000000000E+00  0.99999998245E-14  0.12509000000E+03  0.12509000000E+03 0.  0.
        -13    1    3    3    0    0  0.54445848279E+00 -0.87223253603E+01 -0.37195935614E+02  0.38208954252E+02  0.10566000000E+00 0.  1.
         23    2    1    0    0    0  0.29864707798E+02  0.17212426604E+01  0.89455999142E+01  0.93866816211E+02  0.88521703438E+02 0.  0.
         13    1    3    3    0    0  0.29320249315E+02  0.10443568021E+02  0.46141535529E+02  0.55657861959E+02  0.10566000000E+00 0. -1.
         22    1    1    0    0    0 -0.29864707798E+02 -0.17212426604E+01 -0.89455999142E+01  0.31223183789E+02  0.00000000000E+00 0. -1.
</event>
<event>
 5    1  0.1262391E-009  0.9118800E+02  0.7815553E-02  0.1125453E+00
         25   -1    0    0    0    0  0.00000000000E+00  0.00000000000E+00  0.99999998245E-14  0.12509000000E+03  0.12509000000E+03 0.  0.
        -13    1    3    3    0    0  0.69117175586E+01 -0.25671384714E+02  0.46096846038E+02  0.53213928735E+02  0.10566000000E+00 0.  1.
         23    2    1    0    0    0 -0.19979341373E+02 -0.17751250908E+02  0.18250719697E+02  0.92726907441E+02  0.86895970008E+02 0.  0.
         13    1    3    3    0    0 -0.26891058932E+02  0.79201338054E+01 -0.27846126341E+02  0.39512978706E+02  0.10566000000E+00 0. -1.
         22    1    1    0    0    0  0.19979341373E+02  0.17751250908E+02 -0.18250719697E+02  0.32363092559E+02  0.00000000000E+00 0.  1.
</event>
<event>
 5    1  0.1262391E-009  0.9118800E+02  0.7815553E-02  0.1125453E+00
         25   -1    0    0    0    0  0.00000000000E+00  0.00000000000E+00  0.99999998245E-14  0.12509000000E+03  0.12509000000E+03 0.  0.
        -13    1    3    3    0    0  0.41673216626E+02  0.20634406191E+02  0.41814163279E+02  0.62536958013E+02  0.10566000000E+00 0.  1.
         23    2    1    0    0    0  0.19734001897E+02  0.99699506757E+01  0.18961523364E+02  0.95963206225E+02  0.91436135271E+02 0.  0.
         13    1    3    3    0    0 -0.21939214729E+02 -0.10664455515E+02 -0.22852639915E+02  0.33426248211E+02  0.10566000000E+00 0. -1.
         22    1    1    0    0    0 -0.19734001897E+02 -0.99699506757E+01 -0.18961523364E+02  0.29126793775E+02  0.00000000000E+00 0.  1.
</event>
<event>
 5    1  0.1262391E-009  0.9118800E+02  0.7815553E-02  0.1125453E+00
         25   -1    0    0    0    0  0.00000000000E+00  0.00000000000E+00  0.99999998245E-14  0.12509000000E+03  0.12509000000E+03 0.  0.
        -13    1    3    3    0    0 -0.17385939798E+02  0.34061746499E+02 -0.52454608086E+00  0.38246042800E+02  0.10566000000E+00 0.  1.
         23    2    1    0    0    0 -0.30916112631E+02 -0.15930836037E+02  0.31554393787E+01  0.90167881583E+02  0.83130575088E+02 0.  0.
         13    1    3    3    0    0 -0.13530172833E+02 -0.49992582537E+02  0.36799854596E+01  0.51921838783E+02  0.10566000000E+00 0. -1.
         22    1    1    0    0    0  0.30916112631E+02  0.15930836037E+02 -0.31554393787E+01  0.34922118417E+02  0.00000000000E+00 0. -1.
</event>
<event>
 5    1  0.1262391E-009  0.9118800E+02  0.7815553E-02  0.1125453E+00
         25   -1    0    0    0    0  0.00000000000E+00  0.00000000000E+00  0.99999998245E-14  0.12509000000E+03  0.12509000000E+03 0.  0.
        -13    1    3    3    0    0  0.42833936066E+02  0.16111806759E+02 -0.36193784181E+02  0.58346701478E+02  0.10566000000E+00 0.  1.
         23    2    1    0    0    0  0.79086973538E+01  0.16938053727E+02 -0.22420281091E+02  0.95899005462E+02  0.91348262636E+02 0.  0.
         13    1    3    3    0    0 -0.34925238712E+02  0.82624696827E+00  0.13773503090E+02  0.37552303985E+02  0.10566000000E+00 0. -1.
         22    1    1    0    0    0 -0.79086973538E+01 -0.16938053727E+02  0.22420281091E+02  0.29190994538E+02  0.00000000000E+00 0.  1.
</event>
<event>
 5    1  0.1262391E-009  0.9118800E+02  0.7815553E-02  0.1125453E+00
         25   -1    0    0    0    0  0.00000000000E+00  0.00000000000E+00  0.99999998245E-14  0.12509000000E+03  0.12509000000E+03 0.  0.
        -13    1    3    3    0    0  0.24128218578E+02  0.21923659721E+02  0.16250544544E+02  0.36426764190E+02  0.10566000000E+00 0. -1.
         23    2    1    0    0    0 -0.12811260615E+01 -0.29479178383E+02  0.19767431339E+01  0.95516857530E+02  0.90823451359E+02 0.  0.
         13    1    3    3    0    0 -0.25409344640E+02 -0.51402838105E+02 -0.14273801410E+02  0.59090093340E+02  0.10566000000E+00 0.  1.
         22    1    1    0    0    0  0.12811260615E+01  0.29479178383E+02 -0.19767431339E+01  0.29573142470E+02  0.00000000000E+00 0.  1.
</event>
<event>
 5    1  0.1262391E-009  0.9118800E+02  0.7815553E-02  0.1125453E+00
         25   -1    0    0    0    0  0.00000000000E+00  0.00000000000E+00  0.99999998245E-14  0.12509000000E+03  0.12509000000E+03 0.  0.
        -13    1    3    3    0    0 -0.51275327762E+02 -0.31007242377E+02 -0.27801958400E+01  0.59986239838E+02  0.10566000000E+00 0.  1.
         23    2    1    0    0    0 -0.28602451545E+02 -0.34408176365E+01  0.29290962529E+01  0.96132806330E+02  0.91667864531E+02 0.  0.
         13    1    3    3    0    0  0.22672876217E+02  0.27566424741E+02  0.57092920929E+01  0.36146566492E+02  0.10566000000E+00 0. -1.
         22    1    1    0    0    0  0.28602451545E+02  0.34408176365E+01 -0.29290962529E+01  0.28957193670E+02  0.00000000000E+00 0.  1.
</event>
<event>
 5    1  0.1262391E-009  0.9118800E+02  0.7815553E-02  0.1125453E+00
         25   -1    0    0    0    0  0.00000000000E+00  0.00000000000E+00  0.99999998245E-14  0.12509000000E+03  0.12509000000E+03 0.  0.
        -13    1    3    3    0    0 -0.33630638321E+02  0.38845069642E+02  0.15694176545E+02  0.53724087808E+02  0.10566000000E+00 0. -1.
         23    2    1    0    0    0  0.12532654034E+01  0.30773349123E+02 -0.30519976090E+01  0.94140292734E+02  0.88907313176E+02 0.  0.
         13    1    3    3    0    0  0.34883903725E+02 -0.80717205183E+01 -0.18746174154E+02  0.40416204926E+02  0.10566000000E+00 0.  1.
         22    1    1    0    0    0 -0.12532654034E+01 -0.30773349123E+02  0.30519976090E+01  0.30949707266E+02  0.00000000000E+00 0. -1.
</event>
<event>
 5    1  0.1262391E-009  0.9118800E+02  0.7815553E-02  0.1125453E+00
         25   -1    0    0    0    0  0.00000000000E+00  0.00000000000E+00  0.99999998245E-14  0.12509000000E+03  0.12509000000E+03 0.  0.
        -13    1    3    3    0    0  0.12940001603E+02  0.31165579242E+02 -0.12624234018E+02  0.36029424357E+02  0.10566000000E+00 0. -1.
         23    2    1    0    0    0  0.14870420790E+02  0.32809218385E+02  0.29683763479E+02  0.78413453001E+02  0.63007694544E+02 0.  0.
         13    1    3    3    0    0  0.19304191873E+01  0.16436391436E+01  0.42307997496E+02  0.42384028644E+02  0.10566000000E+00 0.  1.
         22    1    1    0    0    0 -0.14870420790E+02 -0.32809218385E+02 -0.29683763479E+02  0.46676546999E+02  0.00000000000E+00 0.  1.
</event>
<event>
 5    1  0.1262391E-009  0.9118800E+02  0.7815553E-02  0.1125453E+00
         25   -1    0    0    0    0  0.00000000000E+00  0.00000000000E+00  0.99999998245E-14  0.12509000000E+03  0.12509000000E+03 0.  0.
        -13    1    3    3    0    0 -0.13573775425E+02 -0.29121345363E+02  0.12296013687E+02  0.34402082083E+02  0.10566000000E+00 0. -1.
         23    2    1    0    0    0 -0.29716521477E+01  0.18930732169E+02 -0.23143122437E+02  0.95043245548E+02  0.90168792114E+02 0.  0.
         13    1    3    3    0    0  0.10602123277E+02  0.48052077532E+02 -0.35439136124E+02  0.60641163465E+02  0.10566000000E+00 0.  1.
         22    1    1    0    0    0  0.29716521477E+01 -0.18930732169E+02  0.23143122437E+02  0.30046754452E+02  0.00000000000E+00 0.  1.
</event>
<event>
 5    1  0.1262391E-009  0.9118800E+02  0.7815553E-02  0.1125453E+00
         25   -1    0    0    0    0  0.00000000000E+00  0.00000000000E+00  0.99999998245E-14  0.12509000000E+03  0.12509000000E+03 0.  0.
        -13    1    3    3    0    0 -0.10169411655E+02 -0.29552908688E+02  0.50664565908E+02  0.59528990819E+02  0.10566000000E+00 0. -1.
         23    2    1    0    0    0  0.60036272073E+01 -0.21664991021E+02  0.20434280900E+02  0.94709492902E+02  0.89704586473E+02 0.  0.
         13    1    3    3    0    0  0.16173038862E+02  0.78879176664E+01 -0.30230285007E+02  0.35180502083E+02  0.10566000000E+00 0.  1.
         22    1    1    0    0    0 -0.60036272073E+01  0.21664991021E+02 -0.20434280900E+02  0.30380507098E+02  0.00000000000E+00 0. -1.
</event>
<event>
 5    1  0.1262391E-009  0.9118800E+02  0.7815553E-02  0.1125453E+00
         25   -1    0    0    0    0  0.00000000000E+00  0.00000000000E+00  0.99999998245E-14  0.12509000000E+03  0.12509000000E+03 0.  0.
        -13    1    3    3    0    0  0.56112846898E+02 -0.21255527230E+02 -0.23254161930E+01  0.60048878002E+02  0.10566000000E+00 0.  1.
         23    2    1    0    0    0  0.24319761514E+02 -0.38655249002E+01  0.10263508999E+02  0.98411681091E+02  0.94726586950E+02 0.  0.
         13    1    3    3    0    0 -0.31793085384E+02  0.17390002330E+02  0.12588925192E+02  0.38362803088E+02  0.10566000000E+00 0. -1.
         22    1    1    0    0    0 -0.24319761514E+02  0.38655249002E+01 -0.10263508999E+02  0.26678318909E+02  0.00000000000E+00 0.  1.
</event>
<event>
 5    1  0.1262391E-009  0.9118800E+02  0.7815553E-02  0.1125453E+00
         25   -1    0    0    0    0  0.00000000000E+00  0.00000000000E+00  0.99999998245E-14  0.12509000000E+03  0.12509000000E+03 0.  0.
        -13    1    3    3    0    0 -0.15011146154E+02 -0.38307643563E+02 -0.15198552152E+01  0.41171970904E+02  0.10566000000E+00 0. -1.
         23    2    1    0    0    0  0.23272133989E+02 -0.11659220656E+02 -0.20925164224E+02  0.91692512901E+02  0.85393938764E+02 0.  0.
         13    1    3    3    0    0  0.38283280144E+02  0.26648422907E+02 -0.19405309009E+02  0.50520541997E+02  0.10566000000E+00 0.  1.
         22    1    1    0    0    0 -0.23272133989E+02  0.11659220656E+02  0.20925164224E+02  0.33397487099E+02  0.00000000000E+00 0.  1.
</event>
<event>
 5    1  0.1262391E-009  0.9118800E+02  0.7815553E-02  0.1125453E+00
         25   -1    0    0    0    0  0.00000000000E+00  0.00000000000E+00  0.99999998245E-14  0.12509000000E+03  0.12509000000E+03 0.  0.
        -13    1    3    3    0    0 -0.12445225795E+01  0.43364227027E+02  0.88335658013E+01  0.44272430144E+02  0.10566000000E+00 0. -1.
         23    2    1    0    0    0 -0.17379532389E+02  0.55632474504E+01 -0.22619562837E+02  0.96027266282E+02  0.91523731231E+02 0.  0.
         13    1    3    3    0    0 -0.16135009810E+02 -0.37800979576E+02 -0.31453128638E+02  0.51754836138E+02  0.10566000000E+00 0.  1.
         22    1    1    0    0    0  0.17379532389E+02 -0.55632474504E+01  0.22619562837E+02  0.29062733718E+02  0.00000000000E+00 0. -1.
</event>
<event>
 5    1  0.1262391E-009  0.9118800E+02  0.7815553E-02  0.1125453E+00
         25   -1    0    0    0    0  0.00000000000E+00  0.00000000000E+00  0.99999998245E-14  0.12509000000E+03  0.12509000000E+03 0.  0.
        -13    1    3    3    0    0 -0.26521959867E+02 -0.55991883796E+02 -0.53039618001E+01  0.62182381597E+02  0.10566000000E+00 0. -1.
         23    2    1    0    0    0 -0.15728174254E+02 -0.24951284311E+02  0.68373500513E+00  0.95587295925E+02  0.90920413520E+02 0.  0.
         13    1    3    3    0    0  0.10793785613E+02  0.31040599485E+02  0.59876968052E+01  0.33404914329E+02  0.10566000000E+00 0.  1.
         22    1    1    0    0    0  0.15728174254E+02  0.24951284311E+02 -0.68373500513E+00  0.29502704075E+02  0.00000000000E+00 0. -1.
</event>
<event>
 5    1  0.1262391E-009  0.9118800E+02  0.7815553E-02  0.1125453E+00
         25   -1    0    0    0    0  0.00000000000E+00  0.00000000000E+00  0.99999998245E-14  0.12509000000E+03  0.12509000000E+03 0.  0.
        -13    1    3    3    0    0  0.21424525817E+02 -0.46671310935E+00  0.48372252652E+02  0.52906654764E+02  0.10566000000E+00 0. -1.
         23    2    1    0    0    0 -0.12936596190E+02 -0.92072536667E+01  0.25338824488E+02  0.95187072593E+02  0.90368101238E+02 0.  0.
         13    1    3    3    0    0 -0.34361122007E+02 -0.87405405574E+01 -0.23033428164E+02  0.42280417830E+02  0.10566000000E+00 0.  1.
         22    1    1    0    0    0  0.12936596190E+02  0.92072536667E+01 -0.25338824488E+02  0.29902927407E+02  0.00000000000E+00 0. -1.
</event>
<event>
 5    1  0.1262391E-009  0.9118800E+02  0.7815553E-02  0.1125453E+00
         25   -1    0    0    0    0  0.00000000000E+00  0.00000000000E+00  0.99999998245E-14  0.12509000000E+03  0.12509000000E+03 0.  0.
        -13    1    3    3    0    0  0.13429633243E+02 -0.34643012230E+02 -0.28993765879E+01  0.37268094854E+02  0.10566000000E+00 0. -1.
         23    2    1    0    0    0 -0.97480469738E+01  0.16134906103E+02 -0.21865778079E+02  0.96220087188E+02  0.91786890745E+02 0.  0.
         13    1    3    3    0    0 -0.23177680217E+02  0.50777918334E+02 -0.18966401491E+02  0.58951992334E+02  0.10566000000E+00 0.  1.
         22    1    1    0    0    0  0.97480469738E+01 -0.16134906103E+02  0.21865778079E+02  0.28869912812E+02  0.00000000000E+00 0.  1.
</event>
<event>
 5    1  0.1262391E-009  0.9118800E+02  0.7815553E-02  0.1125453E+00
         25   -1    0    0    0    0  0.00000000000E+00  0.00000000000E+00  0.99999998245E-14  0.12509000000E+03  0.12509000000E+03 0.  0.
        -13    1    3    3    0    0 -0.86863820720E+01  0.56194780736E+02  0.67234057038E+00  0.56866245008E+02  0.10566000000E+00 0. -1.
         23    2    1    0    0    0 -0.71116450734E+01  0.28489662193E+02 -0.18307825218E+02  0.90486346844E+02  0.83608409586E+02 0.  0.
         13    1    3    3    0    0  0.15747369986E+01 -0.27705118543E+02 -0.18980165789E+02  0.33620101836E+02  0.10566000000E+00 0.  1.
         22    1    1    0    0    0  0.71116450734E+01 -0.28489662193E+02  0.18307825218E+02  0.34603653156E+02  0.00000000000E+00 0. -1.
</event>
<event>
 5    1  0.1262391E-009  0.9118800E+02  0.7815553E-02  0.1125453E+00
         25   -1    0    0    0    0  0.00000000000E+00  0.00000000000E+00  0.99999998245E-14  0.12509000000E+03  0.12509000000E+03 0.  0.
        -13    1    3    3    0    0  0.52918733993E+02  0.25014148994E+02  0.32186334425E+01  0.58621419487E+02  0.10566000000E+00 0.  1.
         23    2    1    0    0    0  0.36138690597E+02  0.60464486830E+01 -0.98896997337E+01  0.87137784511E+02  0.78438656470E+02 0.  0.
         13    1    3    3    0    0 -0.16780043397E+02 -0.18967700311E+02 -0.13108333176E+02  0.28516365024E+02  0.10566000000E+00 0. -1.
         22    1    1    0    0    0 -0.36138690597E+02 -0.60464486830E+01  0.98896997337E+01  0.37952215489E+02  0.00000000000E+00 0.  1.
</event>
<event>
 5    1  0.1262391E-009  0.9118800E+02  0.7815553E-02  0.1125453E+00
         25   -1    0    0    0    0  0.00000000000E+00  0.00000000000E+00  0.99999998245E-14  0.12509000000E+03  0.12509000000E+03 0.  0.
        -13    1    3    3    0    0 -0.34288511745E+02 -0.26307208162E+02  0.13086260518E+02  0.45155648786E+02  0.10566000000E+00 0.  1.
         23    2    1    0    0    0  0.42746213455E+01  0.31281388913E+01  0.28533396061E+02  0.96069105263E+02  0.91580896778E+02 0.  0.
         13    1    3    3    0    0  0.38563133090E+02  0.29435347054E+02  0.15447135543E+02  0.50913456477E+02  0.10566000000E+00 0. -1.
         22    1    1    0    0    0 -0.42746213455E+01 -0.31281388913E+01 -0.28533396061E+02  0.29020894737E+02  0.00000000000E+00 0. -1.
</event>
<event>
 5    1  0.1262391E-009  0.9118800E+02  0.7815553E-02  0.1125453E+00
         25   -1    0    0    0    0  0.00000000000E+00  0.00000000000E+00  0.99999998245E-14  0.12509000000E+03  0.12509000000E+03 0.  0.
        -13    1    3    3    0    0 -0.45079420263E+02 -0.31600775517E+02  0.27623577123E+02  0.61594125707E+02  0.10566000000E+00 0.  1.
         23    2    1    0    0    0 -0.18625534953E+02 -0.14969941654E+02  0.20411956769E+02  0.93662978433E+02  0.88233190152E+02 0.  0.
         13    1    3    3    0    0  0.26453885310E+02  0.16630833863E+02 -0.72116203535E+01  0.32068852726E+02  0.10566000000E+00 0. -1.
         22    1    1    0    0    0  0.18625534953E+02  0.14969941654E+02 -0.20411956769E+02  0.31427021567E+02  0.00000000000E+00 0.  1.
</event>
<event>
 5    1  0.1262391E-009  0.9118800E+02  0.7815553E-02  0.1125453E+00
         25   -1    0    0    0    0  0.00000000000E+00  0.00000000000E+00  0.99999998245E-14  0.12509000000E+03  0.12509000000E+03 0.  0.
        -13    1    3    3    0    0 -0.28262988439E+02 -0.24165417251E+02  0.22444615685E+02  0.43434270383E+02  0.10566000000E+00 0.  1.
         23    2    1    0    0    0  0.22068239363E+02 -0.83995182313E+01  0.15994673344E+02  0.96570030321E+02  0.92262571424E+02 0.  0.
         13    1    3    3    0    0  0.50331227802E+02  0.15765899019E+02 -0.64499423407E+01  0.53135759938E+02  0.10566000000E+00 0. -1.
         22    1    1    0    0    0 -0.22068239363E+02  0.83995182313E+01 -0.15994673344E+02  0.28519969679E+02  0.00000000000E+00 0.  1.
</event>
<event>
 5    1  0.1262391E-009  0.9118800E+02  0.7815553E-02  0.1125453E+00
         25   -1    0    0    0    0  0.00000000000E+00  0.00000000000E+00  0.99999998245E-14  0.12509000000E+03  0.12509000000E+03 0.  0.
        -13    1    3    3    0    0  0.20240405758E+01  0.13937774873E+02  0.51310207528E+02  0.53208146644E+02  0.10566000000E+00 0. -1.
         23    2    1    0    0    0 -0.29537610151E+01 -0.17330221851E+02  0.25807507607E+02  0.93863589024E+02  0.88517142984E+02 0.  0.
         13    1    3    3    0    0 -0.49778015909E+01 -0.31267996724E+02 -0.25502699921E+02  0.40655442380E+02  0.10566000000E+00 0.  1.
         22    1    1    0    0    0  0.29537610151E+01  0.17330221851E+02 -0.25807507607E+02  0.31226410976E+02  0.00000000000E+00 0. -1.
</event>
<event>
 5    1  0.1262391E-009  0.9118800E+02  0.7815553E-02  0.1125453E+00
         25   -1    0    0    0    0  0.00000000000E+00  0.00000000000E+00  0.99999998245E-14  0.12509000000E+03  0.12509000000E+03 0.  0.
        -13    1    3    3    0    0 -0.11780065477E+02  0.41040096640E+02 -0.43610870459E+01  0.42919572681E+02  0.10566000000E+00 0.  1.
         23    2    1    0    0    0  0.27489525490E+02  0.55187350597E+01 -0.78133622742E+01  0.95983659138E+02  0.91464111777E+02 0.  0.
         13    1    3    3    0    0  0.39269590967E+02 -0.35521361580E+02 -0.34522752283E+01  0.53064086457E+02  0.10566000000E+00 0. -1.
         22    1    1    0    0    0 -0.27489525490E+02 -0.55187350597E+01  0.78133622742E+01  0.29106340862E+02  0.00000000000E+00 0. -1.
</event>
<event>
 5    1  0.1262391E-009  0.9118800E+02  0.7815553E-02  0.1125453E+00
         25   -1    0    0    0    0  0.00000000000E+00  0.00000000000E+00  0.99999998245E-14  0.12509000000E+03  0.12509000000E+03 0.  0.
        -13    1    3    3    0    0 -0.34089714889E+02 -0.22999453767E+02  0.22236426629E+02  0.46749902332E+02  0.10566000000E+00 0. -1.
         23    2    1    0    0    0  0.77006385934E+01  0.46263734755E+01  0.26578888067E+02  0.97033976455E+02  0.92889461886E+02 0.  0.
         13    1    3    3    0    0  0.41790353482E+02  0.27625827243E+02  0.43424614376E+01  0.50284074123E+02  0.10566000000E+00 0.  1.
         22    1    1    0    0    0 -0.77006385934E+01 -0.46263734755E+01 -0.26578888067E+02  0.28056023545E+02  0.00000000000E+00 0. -1.
</event>
<event>
 5    1  0.1262391E-009  0.9118800E+02  0.7815553E-02  0.1125453E+00
         25   -1    0    0    0    0  0.00000000000E+00  0.00000000000E+00  0.99999998245E-14  0.12509000000E+03  0.12509000000E+03 0.  0.
        -13    1    3    3    0    0 -0.16975913706E+02  0.21766627708E+02 -0.37501047149E+02  0.46565088095E+02  0.10566000000E+00 0.  1.
         23    2    1    0    0    0 -0.26718244105E+02 -0.11236078292E+02 -0.19536725618E+01  0.96039511882E+02  0.91540466366E+02 0.  0.
         13    1    3    3    0    0 -0.97423303989E+01 -0.33002706001E+02  0.35547374587E+02  0.49474423787E+02  0.10566000000E+00 0. -1.
         22    1    1    0    0    0  0.26718244105E+02  0.11236078292E+02  0.19536725618E+01  0.29050488118E+02  0.00000000000E+00 0. -1.
</event>
<event>
 5    1  0.1262391E-009  0.9118800E+02  0.7815553E-02  0.1125453E+00
         25   -1    0    0    0    0  0.00000000000E+00  0.00000000000E+00  0.99999998245E-14  0.12509000000E+03  0.12509000000E+03 0.  0.
        -13    1    3    3    0    0 -0.47765372500E+02  0.29695443113E+02 -0.43526423432E+01  0.56411938552E+02  0.10566000000E+00 0.  1.
         23    2    1    0    0    0 -0.33642364131E+01  0.19218550055E+02 -0.11276447145E+02  0.10255493814E+03  0.10004841990E+03 0.  0.
         13    1    3    3    0    0  0.44401136087E+02 -0.10476893059E+02 -0.69238048014E+01  0.46142999588E+02  0.10566000000E+00 0. -1.
         22    1    1    0    0    0  0.33642364131E+01 -0.19218550055E+02  0.11276447145E+02  0.22535061860E+02  0.00000000000E+00 0.  1.
</event>
<event>
 5    1  0.1262391E-009  0.9118800E+02  0.7815553E-02  0.1125453E+00
         25   -1    0    0    0    0  0.00000000000E+00  0.00000000000E+00  0.99999998245E-14  0.12509000000E+03  0.12509000000E+03 0.  0.
        -13    1    3    3    0    0  0.75687209192E+01 -0.45050796398E+02  0.14292790528E+02  0.47866008999E+02  0.10566000000E+00 0. -1.
         23    2    1    0    0    0  0.23116258010E+02  0.68993531747E+00  0.17206291568E+02  0.96264770345E+02  0.91847766140E+02 0.  0.
         13    1    3    3    0    0  0.15547537091E+02  0.45740731715E+02  0.29135010405E+01  0.48398761346E+02  0.10566000000E+00 0.  1.
         22    1    1    0    0    0 -0.23116258010E+02 -0.68993531747E+00 -0.17206291568E+02  0.28825229655E+02  0.00000000000E+00 0.  1.
</event>
<event>
 5    1  0.1262391E-009  0.9118800E+02  0.7815553E-02  0.1125453E+00
         25   -1    0    0    0    0  0.00000000000E+00  0.00000000000E+00  0.99999998245E-14  0.12509000000E+03  0.12509000000E+03 0.  0.
        -13    1    3    3    0    0 -0.40535498416E+02  0.95744210318E+01  0.25394192939E+02  0.48781885664E+02  0.10566000000E+00 0.  1.
         23    2    1    0    0    0  0.19467619345E+01 -0.82846716136E+01  0.28865530642E+02  0.94996071626E+02  0.90103324574E+02 0.  0.
         13    1    3    3    0    0  0.42482260350E+02 -0.17859092645E+02  0.34713377029E+01  0.46214185961E+02  0.10566000000E+00 0. -1.
         22    1    1    0    0    0 -0.19467619345E+01  0.82846716136E+01 -0.28865530642E+02  0.30093928374E+02  0.00000000000E+00 0.  1.
</event>
<event>
 5    1  0.1262391E-009  0.9118800E+02  0.7815553E-02  0.1125453E+00
         25   -1    0    0    0    0  0.00000000000E+00  0.00000000000E+00  0.99999998245E-14  0.12509000000E+03  0.12509000000E+03 0.  0.
        -13    1    3    3    0    0  0.35248879466E-01 -0.60035269266E+02 -0.13298726668E+02  0.61490666717E+02  0.10566000000E+00 0. -1.
         23    2    1    0    0    0 -0.76880896569E+01 -0.33553736622E+02 -0.98152965968E+01  0.89294748762E+02  0.81806186473E+02 0.  0.
         13    1    3    3    0    0 -0.77233385364E+01  0.26481532643E+02  0.34834300713E+01  0.27804082045E+02  0.10566000000E+00 0.  1.
         22    1    1    0    0    0  0.76880896569E+01  0.33553736622E+02  0.98152965968E+01  0.35795251238E+02  0.00000000000E+00 0. -1.
</event>
<event>
 5    1  0.1262391E-009  0.9118800E+02  0.7815553E-02  0.1125453E+00
         25   -1    0    0    0    0  0.00000000000E+00  0.00000000000E+00  0.99999998245E-14  0.12509000000E+03  0.12509000000E+03 0.  0.
        -13    1    3    3    0    0  0.33590177687E+01 -0.26354441933E+02  0.39490989673E+02  0.47596103195E+02  0.10566000000E+00 0. -1.
         23    2    1    0    0    0 -0.19713653747E+02  0.10414039657E+02  0.19840175904E+02  0.95245185611E+02  0.90448507097E+02 0.  0.
         13    1    3    3    0    0 -0.23072671516E+02  0.36768481589E+02 -0.19650813769E+02  0.47649082416E+02  0.10566000000E+00 0.  1.
         22    1    1    0    0    0  0.19713653747E+02 -0.10414039657E+02 -0.19840175904E+02  0.29844814389E+02  0.00000000000E+00 0.  1.
</event>
<event>
 5    1  0.1262391E-009  0.9118800E+02  0.7815553E-02  0.1125453E+00
         25   -1    0    0    0    0  0.00000000000E+00  0.00000000000E+00  0.99999998245E-14  0.12509000000E+03  0.12509000000E+03 0.  0.
        -13    1    3    3    0    0  0.29500908003E+01 -0.42713090981E+02 -0.39560140136E+02  0.58293456138E+02  0.10566000000E+00 0.  1.
         23    2    1    0    0    0 -0.82944833020E+01 -0.26176468660E+02 -0.65951698798E+01  0.96849918015E+02  0.92641267204E+02 0.  0.
         13    1    3    3    0    0 -0.11244574102E+02  0.16536622321E+02  0.32964970256E+02  0.38556461878E+02  0.10566000000E+00 0. -1.
         22    1    1    0    0    0  0.82944833020E+01  0.26176468660E+02  0.65951698798E+01  0.28240081985E+02  0.00000000000E+00 0. -1.
</event>
<event>
 5    1  0.1262391E-009  0.9118800E+02  0.7815553E-02  0.1125453E+00
         25   -1    0    0    0    0  0.00000000000E+00  0.00000000000E+00  0.99999998245E-14  0.12509000000E+03  0.12509000000E+03 0.  0.
        -13    1    3    3    0    0 -0.51214101619E+02 -0.99443114138E+00 -0.18344014638E+02  0.54409439760E+02  0.10566000000E+00 0. -1.
         23    2    1    0    0    0 -0.10021124141E+02 -0.76809679981E+01 -0.25391400473E+02  0.96732577402E+02  0.92482690891E+02 0.  0.
         13    1    3    3    0    0  0.41192977479E+02 -0.66865368567E+01 -0.70473858347E+01  0.42323137642E+02  0.10566000000E+00 0.  1.
         22    1    1    0    0    0  0.10021124141E+02  0.76809679981E+01  0.25391400473E+02  0.28357422598E+02  0.00000000000E+00 0. -1.
</event>
<event>
 5    1  0.1262391E-009  0.9118800E+02  0.7815553E-02  0.1125453E+00
         25   -1    0    0    0    0  0.00000000000E+00  0.00000000000E+00  0.99999998245E-14  0.12509000000E+03  0.12509000000E+03 0.  0.
        -13    1    3    3    0    0 -0.54517491678E+01  0.46304934463E+02  0.69567183805E+01  0.47141018437E+02  0.10566000000E+00 0.  1.
         23    2    1    0    0    0  0.24865795200E+02  0.53436529254E+01  0.89149936297E+01  0.98139313386E+02  0.94366229780E+02 0.  0.
         13    1    3    3    0    0  0.30317544368E+02 -0.40961281538E+02  0.19582752491E+01  0.50998294949E+02  0.10566000000E+00 0. -1.
         22    1    1    0    0    0 -0.24865795200E+02 -0.53436529254E+01 -0.89149936297E+01  0.26950686614E+02  0.00000000000E+00 0.  1.
</event>
<event>
 5    1  0.1262391E-009  0.9118800E+02  0.7815553E-02  0.1125453E+00
         25   -1    0    0    0    0  0.00000000000E+00  0.00000000000E+00  0.99999998245E-14  0.12509000000E+03  0.12509000000E+03 0.  0.
        -13    1    3    3    0    0  0.33848467117E+02 -0.78337757411E+01  0.42965299684E+02  0.55254998955E+02  0.10566000000E+00 0. -1.
         23    2    1    0    0    0 -0.42658932812E+01 -0.30332360057E+01  0.28196527189E+02  0.96411741481E+02  0.92047712540E+02 0.  0.
         13    1    3    3    0    0 -0.38114360399E+02  0.48005397354E+01 -0.14768772495E+02  0.41156742527E+02  0.10566000000E+00 0.  1.
         22    1    1    0    0    0  0.42658932812E+01  0.30332360057E+01 -0.28196527189E+02  0.28678258519E+02  0.00000000000E+00 0. -1.
</event>
<event>
 5    1  0.1262391E-009  0.9118800E+02  0.7815553E-02  0.1125453E+00
         25   -1    0    0    0    0  0.00000000000E+00  0.00000000000E+00  0.99999998245E-14  0.12509000000E+03  0.12509000000E+03 0.  0.
        -13    1    3    3    0    0 -0.15312868037E+02 -0.12866693062E+02  0.32590514736E+02  0.38238573884E+02  0.10566000000E+00 0.  1.
         23    2    1    0    0    0 -0.38409164112E+02  0.73288737913E+01 -0.37616251670E+01  0.85807356216E+02  0.76287458196E+02 0.  0.
         13    1    3    3    0    0 -0.23096296075E+02  0.20195566853E+02 -0.36352139903E+02  0.47568782332E+02  0.10566000000E+00 0. -1.
         22    1    1    0    0    0  0.38409164112E+02 -0.73288737913E+01  0.37616251670E+01  0.39282643784E+02  0.00000000000E+00 0. -1.
</event>
<event>
 5    1  0.1262391E-009  0.9118800E+02  0.7815553E-02  0.1125453E+00
         25   -1    0    0    0    0  0.00000000000E+00  0.00000000000E+00  0.99999998245E-14  0.12509000000E+03  0.12509000000E+03 0.  0.
        -13    1    3    3    0    0 -0.24315409075E+02  0.92294904563E+00 -0.52025842115E+02  0.57435096981E+02  0.10566000000E+00 0. -1.
         23    2    1    0    0    0 -0.91862802852E+01  0.18132557735E+02 -0.23806225743E+02  0.93786425450E+02  0.88408030286E+02 0.  0.
         13    1    3    3    0    0  0.15129128790E+02  0.17209608690E+02  0.28219616372E+02  0.36351328468E+02  0.10566000000E+00 0.  1.
         22    1    1    0    0    0  0.91862802852E+01 -0.18132557735E+02  0.23806225743E+02  0.31303574550E+02  0.00000000000E+00 0. -1.
</event>
<event>
 5    1  0.1262391E-009  0.9118800E+02  0.7815553E-02  0.1125453E+00
         25   -1    0    0    0    0  0.00000000000E+00  0.00000000000E+00  0.99999998245E-14  0.12509000000E+03  0.12509000000E+03 0.  0.
        -13    1    3    3    0    0 -0.21117020537E+02 -0.20498775131E+02  0.45916613866E+02  0.54538747062E+02  0.10566000000E+00 0. -1.
         23    2    1    0    0    0  0.12307968012E+02 -0.81528624467E+01  0.25551234059E+02  0.95580326932E+02  0.90910824943E+02 0.  0.
         13    1    3    3    0    0  0.33424988549E+02  0.12345912684E+02 -0.20365379806E+02  0.41041579869E+02  0.10566000000E+00 0.  1.
         22    1    1    0    0    0 -0.12307968012E+02  0.81528624467E+01 -0.25551234059E+02  0.29509673068E+02  0.00000000000E+00 0. -1.
</event>
<event>
 5    1  0.1262391E-009  0.9118800E+02  0.7815553E-02  0.1125453E+00
         25   -1    0    0    0    0  0.00000000000E+00  0.00000000000E+00  0.99999998245E-14  0.12509000000E+03  0.12509000000E+03 0.  0.
        -13    1    3    3    0    0 -0.30588959123E+02  0.33354512019E+02 -0.73120394276E+01  0.45844137868E+02  0.10566000000E+00 0.  1.
         23    2    1    0    0    0 -0.96096649161E+00 -0.15169289905E+01 -0.28685528729E+02  0.96348321402E+02  0.91961486223E+02 0.  0.
         13    1    3    3    0    0  0.29627992631E+02 -0.34871441010E+02 -0.21373489301E+02  0.50504183534E+02  0.10566000000E+00 0. -1.
         22    1    1    0    0    0  0.96096649161E+00  0.15169289905E+01  0.28685528729E+02  0.28741678598E+02  0.00000000000E+00 0. -1.
</event>
<event>
 5    1  0.1262391E-009  0.9118800E+02  0.7815553E-02  0.1125453E+00
         25   -1    0    0    0    0  0.00000000000E+00  0.00000000000E+00  0.99999998245E-14  0.12509000000E+03  0.12509000000E+03 0.  0.
        -13    1    3    3    0    0 -0.51011328691E+01  0.20801983126E+02  0.24575247448E+02  0.32599049214E+02  0.10566000000E+00 0. -1.
         23    2    1    0    0    0  0.27958070330E+02  0.57978854708E+01 -0.20104506403E+02  0.90169227525E+02  0.83132600358E+02 0.  0.
         13    1    3    3    0    0  0.33059203199E+02 -0.15004097655E+02 -0.44679753851E+02  0.57570178311E+02  0.10566000000E+00 0.  1.
         22    1    1    0    0    0 -0.27958070330E+02 -0.57978854708E+01  0.20104506403E+02  0.34920772475E+02  0.00000000000E+00 0.  1.
</event>
<event>
 5    1  0.1262391E-009  0.9118800E+02  0.7815553E-02  0.1125453E+00
         25   -1    0    0    0    0  0.00000000000E+00  0.00000000000E+00  0.99999998245E-14  0.12509000000E+03  0.12509000000E+03 0.  0.
        -13    1    3    3    0    0  0.27652587849E+02 -0.26026721043E+02  0.68123846263E+00  0.37980667094E+02  0.10566000000E+00 0.  1.
         23    2    1    0    0    0 -0.15778877357E+02  0.58939925129E+01 -0.22774611745E+02  0.96763421341E+02  0.92524400301E+02 0.  0.
         13    1    3    3    0    0 -0.43431465207E+02  0.31920713556E+02 -0.23455850207E+02  0.58782754247E+02  0.10566000000E+00 0. -1.
         22    1    1    0    0    0  0.15778877357E+02 -0.58939925129E+01  0.22774611745E+02  0.28326578659E+02  0.00000000000E+00 0. -1.
</event>
<event>
 5    1  0.1262391E-009  0.9118800E+02  0.7815553E-02  0.1125453E+00
         25   -1    0    0    0    0  0.00000000000E+00  0.00000000000E+00  0.99999998245E-14  0.12509000000E+03  0.12509000000E+03 0.  0.
        -13    1    3    3    0    0  0.33881978943E+02  0.58024628696E+01  0.11217887702E+02  0.36159497245E+02  0.10566000000E+00 0. -1.
         23    2    1    0    0    0 -0.25687960631E+02  0.11263687447E+02  0.72956518037E+01  0.96107789741E+02  0.91633720525E+02 0.  0.
         13    1    3    3    0    0 -0.59569939574E+02  0.54612245777E+01 -0.39222358983E+01  0.59948292496E+02  0.10566000000E+00 0.  1.
         22    1    1    0    0    0  0.25687960631E+02 -0.11263687447E+02 -0.72956518037E+01  0.28982210259E+02  0.00000000000E+00 0.  1.
</event>
<event>
 5    1  0.1262391E-009  0.9118800E+02  0.7815553E-02  0.1125453E+00
         25   -1    0    0    0    0  0.00000000000E+00  0.00000000000E+00  0.99999998245E-14  0.12509000000E+03  0.12509000000E+03 0.  0.
        -13    1    3    3    0    0  0.47707269649E+02  0.71810248611E+01  0.28526941474E+02  0.56047731884E+02  0.10566000000E+00 0. -1.
         23    2    1    0    0    0  0.29930545515E+02 -0.14561167415E+02  0.79350606666E+01  0.90872601807E+02  0.84184318137E+02 0.  0.
         13    1    3    3    0    0 -0.17776724135E+02 -0.21742192276E+02 -0.20591880808E+02  0.34824869923E+02  0.10566000000E+00 0.  1.
         22    1    1    0    0    0 -0.29930545515E+02  0.14561167415E+02 -0.79350606666E+01  0.34217398193E+02  0.00000000000E+00 0. -1.
</event>
<event>
 5    1  0.1262391E-009  0.9118800E+02  0.7815553E-02  0.1125453E+00
         25   -1    0    0    0    0  0.00000000000E+00  0.00000000000E+00  0.99999998245E-14  0.12509000000E+03  0.12509000000E+03 0.  0.
        -13    1    3    3    0    0  0.40694448474E+02 -0.13099341951E+01 -0.21707805993E+00  0.40716241859E+02  0.10566000000E+00 0. -1.
         23    2    1    0    0    0 -0.33465141741E+01 -0.27327688074E+02  0.14540127214E+02  0.93954538032E+02  0.88645576454E+02 0.  0.
         13    1    3    3    0    0 -0.44040962648E+02 -0.26017753879E+02  0.14757205274E+02  0.53238296173E+02  0.10566000000E+00 0.  1.
         22    1    1    0    0    0  0.33465141741E+01  0.27327688074E+02 -0.14540127214E+02  0.31135461968E+02  0.00000000000E+00 0.  1.
</event>
<event>
 5    1  0.1262391E-009  0.9118800E+02  0.7815553E-02  0.1125453E+00
         25   -1    0    0    0    0  0.00000000000E+00  0.00000000000E+00  0.99999998245E-14  0.12509000000E+03  0.12509000000E+03 0.  0.
        -13    1    3    3    0    0  0.29898750513E+02  0.28055174372E+02  0.97203431961E+01  0.42136971025E+02  0.10566000000E+00 0. -1.
         23    2    1    0    0    0 -0.45734670328E+01 -0.91481075199E+01  0.27395437400E+02  0.95847659768E+02  0.91277924060E+02 0.  0.
         13    1    3    3    0    0 -0.34472217546E+02 -0.37203281892E+02  0.17675094204E+02  0.53710688743E+02  0.10566000000E+00 0.  1.
         22    1    1    0    0    0  0.45734670328E+01  0.91481075199E+01 -0.27395437400E+02  0.29242340232E+02  0.00000000000E+00 0.  1.
</event>
<event>
 5    1  0.1262391E-009  0.9118800E+02  0.7815553E-02  0.1125453E+00
         25   -1    0    0    0    0  0.00000000000E+00  0.00000000000E+00  0.99999998245E-14  0.12509000000E+03  0.12509000000E+03 0.  0.
        -13    1    3    3    0    0 -0.43597925720E+02  0.53069644734E+01 -0.61310579106E+01  0.44345732987E+02  0.10566000000E+00 0.  1.
         23    2    1    0    0    0 -0.33717011061E+01 -0.19696220135E+02  0.18611324959E+02  0.97782658997E+02  0.93892265538E+02 0.  0.
         13    1    3    3    0    0  0.40226224614E+02 -0.25003184608E+02  0.24742382869E+02  0.53436926010E+02  0.10566000000E+00 0. -1.
         22    1    1    0    0    0  0.33717011061E+01  0.19696220135E+02 -0.18611324959E+02  0.27307341003E+02  0.00000000000E+00 0. -1.
</event>
<event>
 5    1  0.1262391E-009  0.9118800E+02  0.7815553E-02  0.1125453E+00
         25   -1    0    0    0    0  0.00000000000E+00  0.00000000000E+00  0.99999998245E-14  0.12509000000E+03  0.12509000000E+03 0.  0.
        -13    1    3    3    0    0 -0.27929189983E+02 -0.35923958241E+02 -0.35624627079E+02  0.57790099907E+02  0.10566000000E+00 0. -1.
         23    2    1    0    0    0 -0.11344516354E+02 -0.25469518827E+01 -0.26485643652E+02  0.96164676581E+02  0.91711344375E+02 0.  0.
         13    1    3    3    0    0  0.16584673629E+02  0.33377006358E+02  0.91389834267E+01  0.38374576674E+02  0.10566000000E+00 0.  1.
         22    1    1    0    0    0  0.11344516354E+02  0.25469518827E+01  0.26485643652E+02  0.28925323419E+02  0.00000000000E+00 0. -1.
</event>
<event>
 5    1  0.1262391E-009  0.9118800E+02  0.7815553E-02  0.1125453E+00
         25   -1    0    0    0    0  0.00000000000E+00  0.00000000000E+00  0.99999998245E-14  0.12509000000E+03  0.12509000000E+03 0.  0.
        -13    1    3    3    0    0  0.50770600696E+02 -0.20218266064E+02 -0.48613296576E+00  0.54650523026E+02  0.10566000000E+00 0. -1.
         23    2    1    0    0    0  0.23555367717E+02  0.89537554511E+01  0.12962010596E+02  0.96752060702E+02  0.92509039809E+02 0.  0.
         13    1    3    3    0    0 -0.27215232979E+02  0.29172021515E+02  0.13448143562E+02  0.42101537676E+02  0.10566000000E+00 0.  1.
         22    1    1    0    0    0 -0.23555367717E+02 -0.89537554511E+01 -0.12962010596E+02  0.28337939298E+02  0.00000000000E+00 0. -1.
</event>
<event>
 5    1  0.1262391E-009  0.9118800E+02  0.7815553E-02  0.1125453E+00
         25   -1    0    0    0    0  0.00000000000E+00  0.00000000000E+00  0.99999998245E-14  0.12509000000E+03  0.12509000000E+03 0.  0.
        -13    1    3    3    0    0  0.34377888758E+02 -0.23440998488E+02  0.10692575586E+02  0.42961168306E+02  0.10566000000E+00 0.  1.
         23    2    1    0    0    0  0.56674380629E+01 -0.79726832253E+01 -0.29088139849E+02  0.94401184254E+02  0.89273625314E+02 0.  0.
         13    1    3    3    0    0 -0.28710450695E+02  0.15468315262E+02 -0.39780715435E+02  0.51440015948E+02  0.10566000000E+00 0. -1.
         22    1    1    0    0    0 -0.56674380629E+01  0.79726832253E+01  0.29088139849E+02  0.30688815746E+02  0.00000000000E+00 0.  1.
</event>
<event>
 5    1  0.1262391E-009  0.9118800E+02  0.7815553E-02  0.1125453E+00
         25   -1    0    0    0    0  0.00000000000E+00  0.00000000000E+00  0.99999998245E-14  0.12509000000E+03  0.12509000000E+03 0.  0.
        -13    1    3    3    0    0 -0.11647096012E+02 -0.20212971285E+02 -0.57847324241E+02  0.62374218549E+02  0.10566000000E+00 0.  1.
         23    2    1    0    0    0 -0.71423303096E+01 -0.10781630811E+02 -0.23630002049E+02  0.98152415809E+02  0.94383596494E+02 0.  0.
         13    1    3    3    0    0  0.45047657027E+01  0.94313404737E+01  0.34217322192E+02  0.35778197260E+02  0.10566000000E+00 0. -1.
         22    1    1    0    0    0  0.71423303096E+01  0.10781630811E+02  0.23630002049E+02  0.26937584191E+02  0.00000000000E+00 0.  1.
</event>
<event>
 5    1  0.1262391E-009  0.9118800E+02  0.7815553E-02  0.1125453E+00
         25   -1    0    0    0    0  0.00000000000E+00  0.00000000000E+00  0.99999998245E-14  0.12509000000E+03  0.12509000000E+03 0.  0.
        -13    1    3    3    0    0  0.13308826363E+02 -0.18126872733E+02  0.35121612657E+02  0.41704282921E+02  0.10566000000E+00 0.  1.
         23    2    1    0    0    0  0.83582920910E+01  0.27574536438E+02  0.75652144462E+01  0.95299924873E+02  0.90524179669E+02 0.  0.
         13    1    3    3    0    0 -0.49505342721E+01  0.45701409171E+02 -0.27556398211E+02  0.53595641952E+02  0.10566000000E+00 0. -1.
         22    1    1    0    0    0 -0.83582920910E+01 -0.27574536438E+02 -0.75652144462E+01  0.29790075127E+02  0.00000000000E+00 0.  1.
</event>
<event>
 5    1  0.1262391E-009  0.9118800E+02  0.7815553E-02  0.1125453E+00
         25   -1    0    0    0    0  0.00000000000E+00  0.00000000000E+00  0.99999998245E-14  0.12509000000E+03  0.12509000000E+03 0.  0.
        -13    1    3    3    0    0 -0.31725686842E+02 -0.13500800093E+02  0.15463296371E+02  0.37787769284E+02  0.10566000000E+00 0. -1.
         23    2    1    0    0    0  0.87124329538E+01 -0.15338716853E+02 -0.24651168216E+02  0.94777249925E+02  0.89799021633E+02 0.  0.
         13    1    3    3    0    0  0.40438119796E+02 -0.18379167601E+01 -0.40114464587E+02  0.56989480642E+02  0.10566000000E+00 0.  1.
         22    1    1    0    0    0 -0.87124329538E+01  0.15338716853E+02  0.24651168216E+02  0.30312750075E+02  0.00000000000E+00 0.  1.
</event>
<event>
 5    1  0.1262391E-009  0.9118800E+02  0.7815553E-02  0.1125453E+00
         25   -1    0    0    0    0  0.00000000000E+00  0.00000000000E+00  0.99999998245E-14  0.12509000000E+03  0.12509000000E+03 0.  0.
        -13    1    3    3    0    0  0.63178119617E+01 -0.84076199179E+01  0.13392060305E+02  0.17028248997E+02  0.10566000000E+00 0.  1.
         23    2    1    0    0    0  0.10990414888E+02  0.48666653612E+02  0.81995411353E+01  0.74528504096E+02  0.54754297135E+02 0.  0.
         13    1    3    3    0    0  0.46726029264E+01  0.57074273530E+02 -0.51925191699E+01  0.57500255099E+02  0.10566000000E+00 0. -1.
         22    1    1    0    0    0 -0.10990414888E+02 -0.48666653612E+02 -0.81995411353E+01  0.50561495904E+02  0.00000000000E+00 0. -1.
</event>
<event>
 5    1  0.1262391E-009  0.9118800E+02  0.7815553E-02  0.1125453E+00
         25   -1    0    0    0    0  0.00000000000E+00  0.00000000000E+00  0.99999998245E-14  0.12509000000E+03  0.12509000000E+03 0.  0.
        -13    1    3    3    0    0  0.28456527443E+02  0.63291015548E+00 -0.91983406193E+00  0.28478619842E+02  0.10566000000E+00 0. -1.
         23    2    1    0    0    0 -0.30305179097E+02 -0.17605121234E+02  0.86604240062E+00  0.90031560171E+02  0.82925192937E+02 0.  0.
         13    1    3    3    0    0 -0.58761706540E+02 -0.18238031389E+02  0.17858764625E+01  0.61552940330E+02  0.10566000000E+00 0.  1.
         22    1    1    0    0    0  0.30305179097E+02  0.17605121234E+02 -0.86604240062E+00  0.35058439829E+02  0.00000000000E+00 0.  1.
</event>
<event>
 5    1  0.1262391E-009  0.9118800E+02  0.7815553E-02  0.1125453E+00
         25   -1    0    0    0    0  0.00000000000E+00  0.00000000000E+00  0.99999998245E-14  0.12509000000E+03  0.12509000000E+03 0.  0.
        -13    1    3    3    0    0  0.13623121516E+02 -0.35269540691E+02 -0.17813031930E+02  0.41795277376E+02  0.10566000000E+00 0.  1.
         23    2    1    0    0    0  0.24392778774E+02  0.15051223003E+02  0.51671441278E+00  0.96422702185E+02  0.92062606593E+02 0.  0.
         13    1    3    3    0    0  0.10769657258E+02  0.50320763694E+02  0.18329746343E+02  0.54627424809E+02  0.10566000000E+00 0. -1.
         22    1    1    0    0    0 -0.24392778774E+02 -0.15051223003E+02 -0.51671441278E+00  0.28667297815E+02  0.00000000000E+00 0.  1.
</event>
<event>
 5    1  0.1262391E-009  0.9118800E+02  0.7815553E-02  0.1125453E+00
         25   -1    0    0    0    0  0.00000000000E+00  0.00000000000E+00  0.99999998245E-14  0.12509000000E+03  0.12509000000E+03 0.  0.
        -13    1    3    3    0    0 -0.18442108279E+02  0.11410354029E+02 -0.37643279179E+02  0.43443470950E+02  0.10566000000E+00 0. -1.
         23    2    1    0    0    0  0.17799757748E+02 -0.18341778255E+02 -0.13579500904E+02  0.96147729008E+02  0.91688225760E+02 0.  0.
         13    1    3    3    0    0  0.36241866026E+02 -0.29752132283E+02  0.24063778275E+02  0.52704258057E+02  0.10566000000E+00 0.  1.
         22    1    1    0    0    0 -0.17799757748E+02  0.18341778255E+02  0.13579500904E+02  0.28942270992E+02  0.00000000000E+00 0.  1.
</event>
<event>
 5    1  0.1262391E-009  0.9118800E+02  0.7815553E-02  0.1125453E+00
         25   -1    0    0    0    0  0.00000000000E+00  0.00000000000E+00  0.99999998245E-14  0.12509000000E+03  0.12509000000E+03 0.  0.
        -13    1    3    3    0    0  0.26219933625E+02  0.31147834576E+00  0.26868888454E+02  0.37543711442E+02  0.10566000000E+00 0.  1.
         23    2    1    0    0    0 -0.61709671265E+01 -0.13072000597E+02 -0.22656106665E+02  0.98215156668E+02  0.94466712631E+02 0.  0.
         13    1    3    3    0    0 -0.32390900752E+02 -0.13383478943E+02 -0.49524995120E+02  0.60671445226E+02  0.10566000000E+00 0. -1.
         22    1    1    0    0    0  0.61709671265E+01  0.13072000597E+02  0.22656106665E+02  0.26874843332E+02  0.00000000000E+00 0. -1.
</event>
<event>
 5    1  0.1262391E-009  0.9118800E+02  0.7815553E-02  0.1125453E+00
         25   -1    0    0    0    0  0.00000000000E+00  0.00000000000E+00  0.99999998245E-14  0.12509000000E+03  0.12509000000E+03 0.  0.
        -13    1    3    3    0    0  0.47656639151E+02  0.21190681514E+02  0.32384967880E+02  0.61392161933E+02  0.10566000000E+00 0. -1.
         23    2    1    0    0    0  0.24077860849E+02  0.16081261837E+01  0.15856985266E+02  0.96214864769E+02  0.91779773195E+02 0.  0.
         13    1    3    3    0    0 -0.23578778301E+02 -0.19582555330E+02 -0.16527982614E+02  0.34822702836E+02  0.10566000000E+00 0.  1.
         22    1    1    0    0    0 -0.24077860849E+02 -0.16081261837E+01 -0.15856985266E+02  0.28875135231E+02  0.00000000000E+00 0. -1.
</event>
<event>
 5    1  0.1262391E-009  0.9118800E+02  0.7815553E-02  0.1125453E+00
         25   -1    0    0    0    0  0.00000000000E+00  0.00000000000E+00  0.99999998245E-14  0.12509000000E+03  0.12509000000E+03 0.  0.
        -13    1    3    3    0    0 -0.33773845173E+02 -0.37849820986E+01  0.38478958631E+01  0.34202575545E+02  0.10566000000E+00 0.  1.
         23    2    1    0    0    0  0.24248730279E+02  0.16496577750E+02  0.19515497536E+01  0.95697032405E+02  0.91071265870E+02 0.  0.
         13    1    3    3    0    0  0.58022575452E+02  0.20281559849E+02 -0.18963461095E+01  0.61494456861E+02  0.10566000000E+00 0. -1.
         22    1    1    0    0    0 -0.24248730279E+02 -0.16496577750E+02 -0.19515497536E+01  0.29392967595E+02  0.00000000000E+00 0. -1.
</event>
<event>
 5    1  0.1262391E-009  0.9118800E+02  0.7815553E-02  0.1125453E+00
         25   -1    0    0    0    0  0.00000000000E+00  0.00000000000E+00  0.99999998245E-14  0.12509000000E+03  0.12509000000E+03 0.  0.
        -13    1    3    3    0    0 -0.28349159674E+02 -0.75434147092E+01  0.91423663320E+01  0.30727381695E+02  0.10566000000E+00 0.  1.
         23    2    1    0    0    0  0.31178664716E+02 -0.24184558273E+01  0.14311062924E+02  0.90698655390E+02  0.83925452072E+02 0.  0.
         13    1    3    3    0    0  0.59527824389E+02  0.51249588819E+01  0.51686965922E+01  0.59971273695E+02  0.10566000000E+00 0. -1.
         22    1    1    0    0    0 -0.31178664716E+02  0.24184558273E+01 -0.14311062924E+02  0.34391344610E+02  0.00000000000E+00 0. -1.
</event>
<event>
 5    1  0.1262391E-009  0.9118800E+02  0.7815553E-02  0.1125453E+00
         25   -1    0    0    0    0  0.00000000000E+00  0.00000000000E+00  0.99999998245E-14  0.12509000000E+03  0.12509000000E+03 0.  0.
        -13    1    3    3    0    0 -0.46709563849E+01  0.19480109237E+02 -0.41102977728E+02  0.45724811990E+02  0.10566000000E+00 0. -1.
         23    2    1    0    0    0  0.12736061551E+02  0.25499787624E+02  0.57005075932E+01  0.96022110164E+02  0.91516683838E+02 0.  0.
         13    1    3    3    0    0  0.17407017936E+02  0.60196783875E+01  0.46803485321E+02  0.50297298173E+02  0.10566000000E+00 0.  1.
         22    1    1    0    0    0 -0.12736061551E+02 -0.25499787624E+02 -0.57005075932E+01  0.29067889836E+02  0.00000000000E+00 0. -1.
</event>
<event>
 5    1  0.1262391E-009  0.9118800E+02  0.7815553E-02  0.1125453E+00
         25   -1    0    0    0    0  0.00000000000E+00  0.00000000000E+00  0.99999998245E-14  0.12509000000E+03  0.12509000000E+03 0.  0.
        -13    1    3    3    0    0  0.25794563002E+02 -0.44086717950E+02 -0.29648909635E+02  0.59059861044E+02  0.10566000000E+00 0.  1.
         23    2    1    0    0    0  0.27251785516E+02 -0.17531877289E+02 -0.16194907156E+02  0.88864297069E+02  0.81145312499E+02 0.  0.
         13    1    3    3    0    0  0.14572225147E+01  0.26554840661E+02  0.13454002479E+02  0.29804436024E+02  0.10566000000E+00 0. -1.
         22    1    1    0    0    0 -0.27251785516E+02  0.17531877289E+02  0.16194907156E+02  0.36225702931E+02  0.00000000000E+00 0.  1.
</event>
<event>
 5    1  0.1262391E-009  0.9118800E+02  0.7815553E-02  0.1125453E+00
         25   -1    0    0    0    0  0.00000000000E+00  0.00000000000E+00  0.99999998245E-14  0.12509000000E+03  0.12509000000E+03 0.  0.
        -13    1    3    3    0    0  0.25443720924E+02 -0.35573809807E+02 -0.33698673238E+02  0.55213138116E+02  0.10566000000E+00 0.  1.
         23    2    1    0    0    0  0.22393916528E+02 -0.21392531807E+02  0.23103542025E+01  0.94034152706E+02  0.88757851619E+02 0.  0.
         13    1    3    3    0    0 -0.30498043961E+01  0.14181277999E+02  0.36009027440E+02  0.38821014590E+02  0.10566000000E+00 0. -1.
         22    1    1    0    0    0 -0.22393916528E+02  0.21392531807E+02 -0.23103542025E+01  0.31055847294E+02  0.00000000000E+00 0.  1.
</event>
<event>
 5    1  0.1262391E-009  0.9118800E+02  0.7815553E-02  0.1125453E+00
         25   -1    0    0    0    0  0.00000000000E+00  0.00000000000E+00  0.99999998245E-14  0.12509000000E+03  0.12509000000E+03 0.  0.
        -13    1    3    3    0    0  0.30680280846E+01 -0.17552550359E+02  0.28972427067E+02  0.34013490186E+02  0.10566000000E+00 0.  1.
         23    2    1    0    0    0 -0.11644442735E+02  0.12641404432E+02 -0.23293914420E+02  0.96141690868E+02  0.91679987573E+02 0.  0.
         13    1    3    3    0    0 -0.14712470819E+02  0.30193954791E+02 -0.52266341487E+02  0.62128200682E+02  0.10566000000E+00 0. -1.
         22    1    1    0    0    0  0.11644442735E+02 -0.12641404432E+02  0.23293914420E+02  0.28948309132E+02  0.00000000000E+00 0. -1.
</event>
<event>
 5    1  0.1262391E-009  0.9118800E+02  0.7815553E-02  0.1125453E+00
         25   -1    0    0    0    0  0.00000000000E+00  0.00000000000E+00  0.99999998245E-14  0.12509000000E+03  0.12509000000E+03 0.  0.
        -13    1    3    3    0    0 -0.22017248457E+02  0.44151595443E+02 -0.12940948872E+02  0.51005900948E+02  0.10566000000E+00 0.  1.
         23    2    1    0    0    0  0.13864064767E+02  0.17691194666E+02 -0.18559367330E+02  0.95941401813E+02  0.91406300688E+02 0.  0.
         13    1    3    3    0    0  0.35881313224E+02 -0.26460400777E+02 -0.56184184586E+01  0.44935500865E+02  0.10566000000E+00 0. -1.
         22    1    1    0    0    0 -0.13864064767E+02 -0.17691194666E+02  0.18559367330E+02  0.29148598187E+02  0.00000000000E+00 0.  1.
</event>
<event>
 5    1  0.1262391E-009  0.9118800E+02  0.7815553E-02  0.1125453E+00
         25   -1    0    0    0    0  0.00000000000E+00  0.00000000000E+00  0.99999998245E-14  0.12509000000E+03  0.12509000000E+03 0.  0.
        -13    1    3    3    0    0 -0.33594680765E+02 -0.16495369035E+02 -0.15593023032E+02  0.40544460862E+02  0.10566000000E+00 0. -1.
         23    2    1    0    0    0  0.19972767169E+02 -0.16906212569E+02 -0.16560947681E+02  0.94122332346E+02  0.88882039841E+02 0.  0.
         13    1    3    3    0    0  0.53567447934E+02 -0.41084353411E+00 -0.96792464929E+00  0.53577871484E+02  0.10566000000E+00 0.  1.
         22    1    1    0    0    0 -0.19972767169E+02  0.16906212569E+02  0.16560947681E+02  0.30967667654E+02  0.00000000000E+00 0.  1.
</event>
<event>
 5    1  0.1262391E-009  0.9118800E+02  0.7815553E-02  0.1125453E+00
         25   -1    0    0    0    0  0.00000000000E+00  0.00000000000E+00  0.99999998245E-14  0.12509000000E+03  0.12509000000E+03 0.  0.
        -13    1    3    3    0    0 -0.11422524764E+02 -0.84230546671E+01 -0.54730432957E+02  0.56540723179E+02  0.10566000000E+00 0. -1.
         23    2    1    0    0    0  0.14116957488E+01  0.14544859546E+02 -0.23950487259E+02  0.97033420308E+02  0.92888712945E+02 0.  0.
         13    1    3    3    0    0  0.12834220513E+02  0.22967914213E+02  0.30779945699E+02  0.40492697128E+02  0.10566000000E+00 0.  1.
         22    1    1    0    0    0 -0.14116957488E+01 -0.14544859546E+02  0.23950487259E+02  0.28056579692E+02  0.00000000000E+00 0. -1.
</event>
<event>
 5    1  0.1262391E-009  0.9118800E+02  0.7815553E-02  0.1125453E+00
         25   -1    0    0    0    0  0.00000000000E+00  0.00000000000E+00  0.99999998245E-14  0.12509000000E+03  0.12509000000E+03 0.  0.
        -13    1    3    3    0    0 -0.27828792158E+02 -0.20970313192E+02  0.57367268474E+01  0.35314542434E+02  0.10566000000E+00 0.  1.
         23    2    1    0    0    0  0.21621864142E+02  0.23017756799E+00 -0.20605917560E+02  0.95220921856E+02  0.90414944173E+02 0.  0.
         13    1    3    3    0    0  0.49450656300E+02  0.21200490760E+02 -0.26342644408E+02  0.59906379422E+02  0.10566000000E+00 0. -1.
         22    1    1    0    0    0 -0.21621864142E+02 -0.23017756799E+00  0.20605917560E+02  0.29869078144E+02  0.00000000000E+00 0. -1.
</event>
<event>
 5    1  0.1262391E-009  0.9118800E+02  0.7815553E-02  0.1125453E+00
         25   -1    0    0    0    0  0.00000000000E+00  0.00000000000E+00  0.99999998245E-14  0.12509000000E+03  0.12509000000E+03 0.  0.
        -13    1    3    3    0    0  0.41434739874E+02  0.60935030871E+01 -0.92910068193E+01  0.42898746136E+02  0.10566000000E+00 0.  1.
         23    2    1    0    0    0  0.32423408940E+01 -0.28626886097E+02  0.34794372767E+01  0.96070732852E+02  0.91583119869E+02 0.  0.
         13    1    3    3    0    0 -0.38192398980E+02 -0.34720389184E+02  0.12770444096E+02  0.53171986716E+02  0.10566000000E+00 0. -1.
         22    1    1    0    0    0 -0.32423408940E+01  0.28626886097E+02 -0.34794372767E+01  0.29019267148E+02  0.00000000000E+00 0. -1.
</event>
<event>
 5    1  0.1262391E-009  0.9118800E+02  0.7815553E-02  0.1125453E+00
         25   -1    0    0    0    0  0.00000000000E+00  0.00000000000E+00  0.99999998245E-14  0.12509000000E+03  0.12509000000E+03 0.  0.
        -13    1    3    3    0    0  0.40129459802E+01 -0.57653415909E+02  0.37594091005E+01  0.57915148469E+02  0.10566000000E+00 0.  1.
         23    2    1    0    0    0  0.13633687078E+02 -0.21196578358E+02  0.12994336388E+02  0.96734663014E+02  0.92485511800E+02 0.  0.
         13    1    3    3    0    0  0.96207410973E+01  0.36456837551E+02  0.92349272877E+01  0.38819514545E+02  0.10566000000E+00 0. -1.
         22    1    1    0    0    0 -0.13633687078E+02  0.21196578358E+02 -0.12994336388E+02  0.28355336986E+02  0.00000000000E+00 0.  1.
</event>
<event>
 5    1  0.1262391E-009  0.9118800E+02  0.7815553E-02  0.1125453E+00
         25   -1    0    0    0    0  0.00000000000E+00  0.00000000000E+00  0.99999998245E-14  0.12509000000E+03  0.12509000000E+03 0.  0.
        -13    1    3    3    0    0 -0.25646346947E+01 -0.22350165267E+02  0.38825097113E+02  0.44872113483E+02  0.10566000000E+00 0. -1.
         23    2    1    0    0    0 -0.10810450487E+01  0.23894490495E+02  0.12630449589E+02  0.98041088908E+02  0.94235935413E+02 0.  0.
         13    1    3    3    0    0  0.14835896460E+01  0.46244655762E+02 -0.26194647524E+02  0.53168975425E+02  0.10566000000E+00 0.  1.
         22    1    1    0    0    0  0.10810450487E+01 -0.23894490495E+02 -0.12630449589E+02  0.27048911092E+02  0.00000000000E+00 0.  1.
</event>
<event>
 5    1  0.1262391E-009  0.9118800E+02  0.7815553E-02  0.1125453E+00
         25   -1    0    0    0    0  0.00000000000E+00  0.00000000000E+00  0.99999998245E-14  0.12509000000E+03  0.12509000000E+03 0.  0.
        -13    1    3    3    0    0  0.18622930138E+02  0.97801508604E+01  0.29368014446E+02  0.36124179082E+02  0.10566000000E+00 0.  1.
         23    2    1    0    0    0 -0.16532328671E+02 -0.26003888191E+02 -0.46206459413E-01  0.94275681455E+02  0.89097597535E+02 0.  0.
         13    1    3    3    0    0 -0.35155258809E+02 -0.35784039051E+02 -0.29414220906E+02  0.58151502374E+02  0.10566000000E+00 0. -1.
         22    1    1    0    0    0  0.16532328671E+02  0.26003888191E+02  0.46206459413E-01  0.30814318545E+02  0.00000000000E+00 0. -1.
</event>
<event>
 5    1  0.1262391E-009  0.9118800E+02  0.7815553E-02  0.1125453E+00
         25   -1    0    0    0    0  0.00000000000E+00  0.00000000000E+00  0.99999998245E-14  0.12509000000E+03  0.12509000000E+03 0.  0.
        -13    1    3    3    0    0  0.32589366908E+02  0.47118107840E+02  0.10943591663E+02  0.58326291537E+02  0.10566000000E+00 0. -1.
         23    2    1    0    0    0  0.10911428779E+02  0.18442322987E+02  0.20407188320E+02  0.95498922116E+02  0.90798745779E+02 0.  0.
         13    1    3    3    0    0 -0.21677938129E+02 -0.28675784853E+02  0.94635966574E+01  0.37172630579E+02  0.10566000000E+00 0.  1.
         22    1    1    0    0    0 -0.10911428779E+02 -0.18442322987E+02 -0.20407188320E+02  0.29591077884E+02  0.00000000000E+00 0. -1.
</event>
<event>
 5    1  0.1262391E-009  0.9118800E+02  0.7815553E-02  0.1125453E+00
         25   -1    0    0    0    0  0.00000000000E+00  0.00000000000E+00  0.99999998245E-14  0.12509000000E+03  0.12509000000E+03 0.  0.
        -13    1    3    3    0    0 -0.18980835170E+02 -0.27880946402E+02  0.51293541280E+02  0.61389394989E+02  0.10566000000E+00 0.  1.
         23    2    1    0    0    0 -0.14615083652E+02 -0.70323850222E+01  0.25860288720E+02  0.94564442807E+02  0.89502090487E+02 0.  0.
         13    1    3    3    0    0  0.43657515178E+01  0.20848561380E+02 -0.25433252560E+02  0.33175047818E+02  0.10566000000E+00 0. -1.
         22    1    1    0    0    0  0.14615083652E+02  0.70323850222E+01 -0.25860288720E+02  0.30525557193E+02  0.00000000000E+00 0.  1.
</event>
<event>
 5    1  0.1262391E-009  0.9118800E+02  0.7815553E-02  0.1125453E+00
         25   -1    0    0    0    0  0.00000000000E+00  0.00000000000E+00  0.99999998245E-14  0.12509000000E+03  0.12509000000E+03 0.  0.
        -13    1    3    3    0    0 -0.10293792701E+02 -0.58694015438E+02  0.10634079407E+01  0.59599426313E+02  0.10566000000E+00 0.  1.
         23    2    1    0    0    0  0.68141142474E+01 -0.28547137105E+02 -0.63865989031E+01  0.95054024314E+02  0.90183744116E+02 0.  0.
         13    1    3    3    0    0  0.17107906948E+02  0.30146878333E+02 -0.74500068438E+01  0.35454598000E+02  0.10566000000E+00 0. -1.
         22    1    1    0    0    0 -0.68141142474E+01  0.28547137105E+02  0.63865989031E+01  0.30035975686E+02  0.00000000000E+00 0.  1.
</event>
<event>
 5    1  0.1262391E-009  0.9118800E+02  0.7815553E-02  0.1125453E+00
         25   -1    0    0    0    0  0.00000000000E+00  0.00000000000E+00  0.99999998245E-14  0.12509000000E+03  0.12509000000E+03 0.  0.
        -13    1    3    3    0    0  0.38044315813E+02  0.28046674637E+02 -0.25186458134E+02  0.53557023454E+02  0.10566000000E+00 0. -1.
         23    2    1    0    0    0  0.17983915162E+02 -0.97045856604E+01 -0.19783330500E+02  0.96647420070E+02  0.92367437191E+02 0.  0.
         13    1    3    3    0    0 -0.20060400651E+02 -0.37751260298E+02  0.54031276336E+01  0.43090396617E+02  0.10566000000E+00 0.  1.
         22    1    1    0    0    0 -0.17983915162E+02  0.97045856604E+01  0.19783330500E+02  0.28442579930E+02  0.00000000000E+00 0. -1.
</event>
<event>
 5    1  0.1262391E-009  0.9118800E+02  0.7815553E-02  0.1125453E+00
         25   -1    0    0    0    0  0.00000000000E+00  0.00000000000E+00  0.99999998245E-14  0.12509000000E+03  0.12509000000E+03 0.  0.
        -13    1    3    3    0    0 -0.42288831883E+02  0.35645385322E+02  0.86628582144E+01  0.55982096006E+02  0.10566000000E+00 0.  1.
         23    2    1    0    0    0 -0.15809155817E+02  0.17294924475E+02 -0.16137473890E+02  0.96638956367E+02  0.92355974382E+02 0.  0.
         13    1    3    3    0    0  0.26479676067E+02 -0.18350460847E+02 -0.24800332104E+02  0.40656860361E+02  0.10566000000E+00 0. -1.
         22    1    1    0    0    0  0.15809155817E+02 -0.17294924475E+02  0.16137473890E+02  0.28451043633E+02  0.00000000000E+00 0. -1.
</event>
<event>
 5    1  0.1262391E-009  0.9118800E+02  0.7815553E-02  0.1125453E+00
         25   -1    0    0    0    0  0.00000000000E+00  0.00000000000E+00  0.99999998245E-14  0.12509000000E+03  0.12509000000E+03 0.  0.
        -13    1    3    3    0    0  0.34209953457E+02  0.10127208245E+00 -0.26716842537E+02  0.43406589485E+02  0.10566000000E+00 0.  1.
         23    2    1    0    0    0  0.10316431525E+02  0.16172150317E+02  0.19420788417E+02  0.97792853115E+02  0.93905845890E+02 0.  0.
         13    1    3    3    0    0 -0.23893521932E+02  0.16070878235E+02  0.46137630954E+02  0.54386263630E+02  0.10566000000E+00 0. -1.
         22    1    1    0    0    0 -0.10316431525E+02 -0.16172150317E+02 -0.19420788417E+02  0.27297146885E+02  0.00000000000E+00 0. -1.
</event>
<event>
 5    1  0.1262391E-009  0.9118800E+02  0.7815553E-02  0.1125453E+00
         25   -1    0    0    0    0  0.00000000000E+00  0.00000000000E+00  0.99999998245E-14  0.12509000000E+03  0.12509000000E+03 0.  0.
        -13    1    3    3    0    0  0.88427869662E+01  0.75688625173E+01 -0.39068417339E+02  0.40765609999E+02  0.10566000000E+00 0. -1.
         23    2    1    0    0    0 -0.10009280270E+02 -0.28143617791E+02 -0.27235363704E+01  0.95095557777E+02  0.90241335011E+02 0.  0.
         13    1    3    3    0    0 -0.18852067237E+02 -0.35712480309E+02  0.36344880969E+02  0.54329947778E+02  0.10566000000E+00 0.  1.
         22    1    1    0    0    0  0.10009280270E+02  0.28143617791E+02  0.27235363704E+01  0.29994442223E+02  0.00000000000E+00 0.  1.
</event>
<event>
 5    1  0.1262391E-009  0.9118800E+02  0.7815553E-02  0.1125453E+00
         25   -1    0    0    0    0  0.00000000000E+00  0.00000000000E+00  0.99999998245E-14  0.12509000000E+03  0.12509000000E+03 0.  0.
        -13    1    3    3    0    0  0.38716408948E+02  0.42868328757E+01 -0.42417411457E+01  0.39183424939E+02  0.10566000000E+00 0. -1.
         23    2    1    0    0    0 -0.10555015929E+02 -0.18461085357E+02 -0.20209731263E+02  0.95753107330E+02  0.91148254464E+02 0.  0.
         13    1    3    3    0    0 -0.49271424878E+02 -0.22747918232E+02 -0.15967990117E+02  0.56569682391E+02  0.10566000000E+00 0.  1.
         22    1    1    0    0    0  0.10555015929E+02  0.18461085357E+02  0.20209731263E+02  0.29336892670E+02  0.00000000000E+00 0.  1.
</event>
<event>
 5    1  0.1262391E-009  0.9118800E+02  0.7815553E-02  0.1125453E+00
         25   -1    0    0    0    0  0.00000000000E+00  0.00000000000E+00  0.99999998245E-14  0.12509000000E+03  0.12509000000E+03 0.  0.
        -13    1    3    3    0    0  0.44412916092E+02  0.15259060259E+02  0.61075271590E+01  0.47356721675E+02  0.10566000000E+00 0.  1.
         23    2    1    0    0    0  0.12715162234E+02 -0.19177750296E+02  0.18262254935E+02  0.95713624928E+02  0.91094053508E+02 0.  0.
         13    1    3    3    0    0 -0.31697753858E+02 -0.34436810555E+02  0.12154727776E+02  0.48356903253E+02  0.10566000000E+00 0. -1.
         22    1    1    0    0    0 -0.12715162234E+02  0.19177750296E+02 -0.18262254935E+02  0.29376375072E+02  0.00000000000E+00 0. -1.
</event>
<event>
 5    1  0.1262391E-009  0.9118800E+02  0.7815553E-02  0.1125453E+00
         25   -1    0    0    0    0  0.00000000000E+00  0.00000000000E+00  0.99999998245E-14  0.12509000000E+03  0.12509000000E+03 0.  0.
        -13    1    3    3    0    0  0.11618937926E+02  0.13861195821E+01 -0.37142974764E+02  0.38942685891E+02  0.10566000000E+00 0. -1.
         23    2    1    0    0    0  0.98970476846E+01  0.21620910956E+02  0.16397884684E+02  0.96205644970E+02  0.91767206335E+02 0.  0.
         13    1    3    3    0    0 -0.17218902418E+01  0.20234791374E+02  0.53540859448E+02  0.57262959078E+02  0.10566000000E+00 0.  1.
         22    1    1    0    0    0 -0.98970476846E+01 -0.21620910956E+02 -0.16397884684E+02  0.28884355030E+02  0.00000000000E+00 0.  1.
</event>
<event>
 5    1  0.1262391E-009  0.9118800E+02  0.7815553E-02  0.1125453E+00
         25   -1    0    0    0    0  0.00000000000E+00  0.00000000000E+00  0.99999998245E-14  0.12509000000E+03  0.12509000000E+03 0.  0.
        -13    1    3    3    0    0  0.22004177383E+02 -0.13864705162E+02  0.44614451918E+02  0.51641788849E+02  0.10566000000E+00 0.  1.
         23    2    1    0    0    0 -0.10374541778E+01 -0.28007785154E+02  0.10522683180E+02  0.95152745588E+02  0.90320572359E+02 0.  0.
         13    1    3    3    0    0 -0.23041631561E+02 -0.14143079992E+02 -0.34091768738E+02  0.43510956739E+02  0.10566000000E+00 0. -1.
         22    1    1    0    0    0  0.10374541778E+01  0.28007785154E+02 -0.10522683180E+02  0.29937254412E+02  0.00000000000E+00 0.  1.
</event>
<event>
 5    1  0.1262391E-009  0.9118800E+02  0.7815553E-02  0.1125453E+00
         25   -1    0    0    0    0  0.00000000000E+00  0.00000000000E+00  0.99999998245E-14  0.12509000000E+03  0.12509000000E+03 0.  0.
        -13    1    3    3    0    0  0.30241782299E+02 -0.39735889630E+02  0.33382051281E+02  0.60065621058E+02  0.10566000000E+00 0. -1.
         23    2    1    0    0    0  0.23588117480E+02 -0.14377744107E+02  0.85585318443E+01  0.96169984799E+02  0.91718584251E+02 0.  0.
         13    1    3    3    0    0 -0.66536648191E+01  0.25358145523E+02 -0.24823519437E+02  0.36104363741E+02  0.10566000000E+00 0.  1.
         22    1    1    0    0    0 -0.23588117480E+02  0.14377744107E+02 -0.85585318443E+01  0.28920015201E+02  0.00000000000E+00 0. -1.
</event>
<event>
 5    1  0.1262391E-009  0.9118800E+02  0.7815553E-02  0.1125453E+00
         25   -1    0    0    0    0  0.00000000000E+00  0.00000000000E+00  0.99999998245E-14  0.12509000000E+03  0.12509000000E+03 0.  0.
        -13    1    3    3    0    0 -0.35395734208E+01  0.16591426484E+02 -0.32235786839E+02  0.36427477677E+02  0.10566000000E+00 0. -1.
         23    2    1    0    0    0 -0.11814038656E+02 -0.21015464096E+02  0.14479599391E+02  0.96967410520E+02  0.92799777284E+02 0.  0.
         13    1    3    3    0    0 -0.82744652353E+01 -0.37606890580E+02  0.46715386230E+02  0.60539932843E+02  0.10566000000E+00 0.  1.
         22    1    1    0    0    0  0.11814038656E+02  0.21015464096E+02 -0.14479599391E+02  0.28122589480E+02  0.00000000000E+00 0.  1.
</event>
<event>
 5    1  0.1262391E-009  0.9118800E+02  0.7815553E-02  0.1125453E+00
         25   -1    0    0    0    0  0.00000000000E+00  0.00000000000E+00  0.99999998245E-14  0.12509000000E+03  0.12509000000E+03 0.  0.
        -13    1    3    3    0    0  0.20969753648E+02  0.63850230754E+01  0.14827889866E+02  0.26464628651E+02  0.10566000000E+00 0. -1.
         23    2    1    0    0    0 -0.14150544245E+02  0.43893776048E+02  0.67280721368E+01  0.78483472207E+02  0.63146551583E+02 0.  0.
         13    1    3    3    0    0 -0.35120297893E+02  0.37508752973E+02 -0.80998177293E+01  0.52018843556E+02  0.10566000000E+00 0.  1.
         22    1    1    0    0    0  0.14150544245E+02 -0.43893776048E+02 -0.67280721368E+01  0.46606527793E+02  0.00000000000E+00 0.  1.
</event>
<event>
 5    1  0.1262391E-009  0.9118800E+02  0.7815553E-02  0.1125453E+00
         25   -1    0    0    0    0  0.00000000000E+00  0.00000000000E+00  0.99999998245E-14  0.12509000000E+03  0.12509000000E+03 0.  0.
        -13    1    3    3    0    0  0.21791447050E+02 -0.45615193622E+02  0.26320190116E+02  0.56994531540E+02  0.10566000000E+00 0.  1.
         23    2    1    0    0    0  0.22312846630E+02 -0.19212040297E+02 -0.18248105932E+01  0.95589227962E+02  0.90923071613E+02 0.  0.
         13    1    3    3    0    0  0.52139957964E+00  0.26403153324E+02 -0.28145000709E+02  0.38594696422E+02  0.10566000000E+00 0. -1.
         22    1    1    0    0    0 -0.22312846630E+02  0.19212040297E+02  0.18248105932E+01  0.29500772038E+02  0.00000000000E+00 0.  1.
</event>
<event>
 5    1  0.1262391E-009  0.9118800E+02  0.7815553E-02  0.1125453E+00
         25   -1    0    0    0    0  0.00000000000E+00  0.00000000000E+00  0.99999998245E-14  0.12509000000E+03  0.12509000000E+03 0.  0.
        -13    1    3    3    0    0 -0.51747641041E+01 -0.12460984227E+02  0.60864091711E+02  0.62341824927E+02  0.10566000000E+00 0. -1.
         23    2    1    0    0    0 -0.52584067454E+01 -0.36934114739E+01  0.28670063353E+02  0.95708634094E+02  0.91087199856E+02 0.  0.
         13    1    3    3    0    0 -0.83642641330E-01  0.87675727531E+01 -0.32194028358E+02  0.33366809167E+02  0.10566000000E+00 0.  1.
         22    1    1    0    0    0  0.52584067454E+01  0.36934114739E+01 -0.28670063353E+02  0.29381365906E+02  0.00000000000E+00 0. -1.
</event>
<event>
 5    1  0.1262391E-009  0.9118800E+02  0.7815553E-02  0.1125453E+00
         25   -1    0    0    0    0  0.00000000000E+00  0.00000000000E+00  0.99999998245E-14  0.12509000000E+03  0.12509000000E+03 0.  0.
        -13    1    3    3    0    0 -0.33144124849E+02  0.22683390711E+01 -0.28107862323E+02  0.43517139871E+02  0.10566000000E+00 0.  1.
         23    2    1    0    0    0 -0.14928458459E+02  0.16641779023E+02  0.18818988465E+02  0.95867371647E+02  0.91304933813E+02 0.  0.
         13    1    3    3    0    0  0.18215666390E+02  0.14373439951E+02  0.46926850788E+02  0.52350231776E+02  0.10566000000E+00 0. -1.
         22    1    1    0    0    0  0.14928458459E+02 -0.16641779023E+02 -0.18818988465E+02  0.29222628353E+02  0.00000000000E+00 0. -1.
</event>
<event>
 5    1  0.1262391E-009  0.9118800E+02  0.7815553E-02  0.1125453E+00
         25   -1    0    0    0    0  0.00000000000E+00  0.00000000000E+00  0.99999998245E-14  0.12509000000E+03  0.12509000000E+03 0.  0.
        -13    1    3    3    0    0 -0.22424094716E+02 -0.12024478296E+02  0.27820679754E+02  0.37701849930E+02  0.10566000000E+00 0.  1.
         23    2    1    0    0    0  0.15548644554E+02  0.25234340444E+02  0.96551059374E+01  0.93917041273E+02  0.88592648034E+02 0.  0.
         13    1    3    3    0    0  0.37972739270E+02  0.37258818740E+02 -0.18165573817E+02  0.56215191343E+02  0.10566000000E+00 0. -1.
         22    1    1    0    0    0 -0.15548644554E+02 -0.25234340444E+02 -0.96551059374E+01  0.31172958727E+02  0.00000000000E+00 0. -1.
</event>
<event>
 5    1  0.1262391E-009  0.9118800E+02  0.7815553E-02  0.1125453E+00
         25   -1    0    0    0    0  0.00000000000E+00  0.00000000000E+00  0.99999998245E-14  0.12509000000E+03  0.12509000000E+03 0.  0.
        -13    1    3    3    0    0  0.27497826915E+02 -0.62469020898E+01 -0.47131743240E+02  0.54923279724E+02  0.10566000000E+00 0.  1.
         23    2    1    0    0    0  0.23402017545E+02  0.13361304962E+02 -0.11518282703E+02  0.95783861873E+02  0.91190451603E+02 0.  0.
         13    1    3    3    0    0 -0.40958093700E+01  0.19608207051E+02  0.35613460537E+02  0.40860582149E+02  0.10566000000E+00 0. -1.
         22    1    1    0    0    0 -0.23402017545E+02 -0.13361304962E+02  0.11518282703E+02  0.29306138127E+02  0.00000000000E+00 0.  1.
</event>
<event>
 5    1  0.1262391E-009  0.9118800E+02  0.7815553E-02  0.1125453E+00
         25   -1    0    0    0    0  0.00000000000E+00  0.00000000000E+00  0.99999998245E-14  0.12509000000E+03  0.12509000000E+03 0.  0.
        -13    1    3    3    0    0  0.51993917665E+01 -0.55374647505E+02  0.20255667810E+01  0.55655182560E+02  0.10566000000E+00 0.  1.
         23    2    1    0    0    0  0.19370735458E+02 -0.20912537856E+02 -0.10111574939E+02  0.94844279981E+02  0.89892345979E+02 0.  0.
         13    1    3    3    0    0  0.14171343691E+02  0.34462109649E+02 -0.12137141720E+02  0.39189097420E+02  0.10566000000E+00 0. -1.
         22    1    1    0    0    0 -0.19370735458E+02  0.20912537856E+02  0.10111574939E+02  0.30245720019E+02  0.00000000000E+00 0.  1.
</event>
<event>
 5    1  0.1262391E-009  0.9118800E+02  0.7815553E-02  0.1125453E+00
         25   -1    0    0    0    0  0.00000000000E+00  0.00000000000E+00  0.99999998245E-14  0.12509000000E+03  0.12509000000E+03 0.  0.
        -13    1    3    3    0    0 -0.18000520631E+02 -0.16015208657E+02  0.14064868864E+02  0.27898698025E+02  0.10566000000E+00 0.  1.
         23    2    1    0    0    0 -0.19009212384E+02  0.35756831380E+02  0.19828445089E+02  0.80000440450E+02  0.66083296616E+02 0.  0.
         13    1    3    3    0    0 -0.10086917527E+01  0.51772040038E+02  0.57635762249E+01  0.52101742424E+02  0.10566000000E+00 0. -1.
         22    1    1    0    0    0  0.19009212384E+02 -0.35756831380E+02 -0.19828445089E+02  0.45089559550E+02  0.00000000000E+00 0. -1.
</event>
<event>
 5    1  0.1262391E-009  0.9118800E+02  0.7815553E-02  0.1125453E+00
         25   -1    0    0    0    0  0.00000000000E+00  0.00000000000E+00  0.99999998245E-14  0.12509000000E+03  0.12509000000E+03 0.  0.
        -13    1    3    3    0    0 -0.33767159107E+02  0.32472616046E+02 -0.24046975406E+02  0.52658902545E+02  0.10566000000E+00 0. -1.
         23    2    1    0    0    0 -0.63474320166E+01 -0.30994148510E+01 -0.26524855277E+02  0.97640697402E+02  0.93702943263E+02 0.  0.
         13    1    3    3    0    0  0.27419727091E+02 -0.35572030897E+02 -0.24778798711E+01  0.44981794857E+02  0.10566000000E+00 0.  1.
         22    1    1    0    0    0  0.63474320166E+01  0.30994148510E+01  0.26524855277E+02  0.27449302598E+02  0.00000000000E+00 0. -1.
</event>
<event>
 5    1  0.1262391E-009  0.9118800E+02  0.7815553E-02  0.1125453E+00
         25   -1    0    0    0    0  0.00000000000E+00  0.00000000000E+00  0.99999998245E-14  0.12509000000E+03  0.12509000000E+03 0.  0.
        -13    1    3    3    0    0 -0.32420919441E+02 -0.47960671215E+02 -0.38397003837E+01  0.58018070149E+02  0.10566000000E+00 0. -1.
         23    2    1    0    0    0 -0.24582154718E+02 -0.12288644243E+02 -0.11436044966E+02  0.95322967357E+02  0.90556015115E+02 0.  0.
         13    1    3    3    0    0  0.78387647237E+01  0.35672026972E+02 -0.75963445825E+01  0.37304897208E+02  0.10566000000E+00 0.  1.
         22    1    1    0    0    0  0.24582154718E+02  0.12288644243E+02  0.11436044966E+02  0.29767032643E+02  0.00000000000E+00 0. -1.
</event>
<event>
 5    1  0.1262391E-009  0.9118800E+02  0.7815553E-02  0.1125453E+00
         25   -1    0    0    0    0  0.00000000000E+00  0.00000000000E+00  0.99999998245E-14  0.12509000000E+03  0.12509000000E+03 0.  0.
        -13    1    3    3    0    0  0.40613811114E+02 -0.24042349542E+02  0.13658725097E+02  0.49133371144E+02  0.10566000000E+00 0.  1.
         23    2    1    0    0    0  0.12832503810E+02 -0.83598671211E+01  0.34570731787E+02  0.87278678565E+02  0.78663026280E+02 0.  0.
         13    1    3    3    0    0 -0.27781307304E+02  0.15682482421E+02  0.20912006690E+02  0.38145307421E+02  0.10566000000E+00 0. -1.
         22    1    1    0    0    0 -0.12832503810E+02  0.83598671211E+01 -0.34570731787E+02  0.37811321435E+02  0.00000000000E+00 0. -1.
</event>
<event>
 5    1  0.1262391E-009  0.9118800E+02  0.7815553E-02  0.1125453E+00
         25   -1    0    0    0    0  0.00000000000E+00  0.00000000000E+00  0.99999998245E-14  0.12509000000E+03  0.12509000000E+03 0.  0.
        -13    1    3    3    0    0 -0.36228944084E+02  0.57897247400E+00 -0.25371077360E+02  0.44233181313E+02  0.10566000000E+00 0. -1.
         23    2    1    0    0    0 -0.38636870012E+01  0.28491217907E+02  0.39568978475E+01  0.96066998507E+02  0.91578019123E+02 0.  0.
         13    1    3    3    0    0  0.32365257083E+02  0.27912245433E+02  0.29327975208E+02  0.51833817195E+02  0.10566000000E+00 0.  1.
         22    1    1    0    0    0  0.38636870012E+01 -0.28491217907E+02 -0.39568978475E+01  0.29023001493E+02  0.00000000000E+00 0. -1.
</event>
<event>
 5    1  0.1262391E-009  0.9118800E+02  0.7815553E-02  0.1125453E+00
         25   -1    0    0    0    0  0.00000000000E+00  0.00000000000E+00  0.99999998245E-14  0.12509000000E+03  0.12509000000E+03 0.  0.
        -13    1    3    3    0    0 -0.53670259947E+01  0.45741805943E+02 -0.35752740273E+02  0.58304265539E+02  0.10566000000E+00 0.  1.
         23    2    1    0    0    0  0.10197378634E+02  0.12913069170E+02 -0.23002821490E+02  0.96808138623E+02  0.92584836884E+02 0.  0.
         13    1    3    3    0    0  0.15564404629E+02 -0.32828736773E+02  0.12749918783E+02  0.38503873085E+02  0.10566000000E+00 0. -1.
         22    1    1    0    0    0 -0.10197378634E+02 -0.12913069170E+02  0.23002821490E+02  0.28281861377E+02  0.00000000000E+00 0.  1.
</event>
<event>
 5    1  0.1262391E-009  0.9118800E+02  0.7815553E-02  0.1125453E+00
         25   -1    0    0    0    0  0.00000000000E+00  0.00000000000E+00  0.99999998245E-14  0.12509000000E+03  0.12509000000E+03 0.  0.
        -13    1    3    3    0    0  0.16259303437E+02 -0.36373239964E+02  0.10111562155E+02  0.41105138206E+02  0.10566000000E+00 0. -1.
         23    2    1    0    0    0  0.11992847385E+02 -0.94364746191E+00 -0.28785424866E+02  0.93891930450E+02  0.88557185253E+02 0.  0.
         13    1    3    3    0    0 -0.42664560518E+01  0.35429592502E+02 -0.38896987021E+02  0.52786792244E+02  0.10566000000E+00 0.  1.
         22    1    1    0    0    0 -0.11992847385E+02  0.94364746191E+00  0.28785424866E+02  0.31198069550E+02  0.00000000000E+00 0. -1.
</event>
<event>
 5    1  0.1262391E-009  0.9118800E+02  0.7815553E-02  0.1125453E+00
         25   -1    0    0    0    0  0.00000000000E+00  0.00000000000E+00  0.99999998245E-14  0.12509000000E+03  0.12509000000E+03 0.  0.
        -13    1    3    3    0    0  0.23587083554E+02  0.18924238732E+02  0.45367031040E+02  0.54522068849E+02  0.10566000000E+00 0.  1.
         23    2    1    0    0    0  0.24407314008E+02 -0.84343387598E+01  0.15785816523E+02  0.94823730810E+02  0.89863746160E+02 0.  0.
         13    1    3    3    0    0  0.82023045421E+00 -0.27358577492E+02 -0.29581214517E+02  0.40301661960E+02  0.10566000000E+00 0. -1.
         22    1    1    0    0    0 -0.24407314008E+02  0.84343387598E+01 -0.15785816523E+02  0.30266269190E+02  0.00000000000E+00 0. -1.
</event>
<event>
 5    1  0.1262391E-009  0.9118800E+02  0.7815553E-02  0.1125453E+00
         25   -1    0    0    0    0  0.00000000000E+00  0.00000000000E+00  0.99999998245E-14  0.12509000000E+03  0.12509000000E+03 0.  0.
        -13    1    3    3    0    0 -0.82300390900E+01  0.25330928047E+02 -0.16151902655E+02  0.31149391367E+02  0.10566000000E+00 0.  1.
         23    2    1    0    0    0  0.27561483505E+02 -0.19390152955E+02 -0.14364163217E+02  0.88457465423E+02  0.80515716475E+02 0.  0.
         13    1    3    3    0    0  0.35791522595E+02 -0.44721081002E+02  0.17877394376E+01  0.57308074056E+02  0.10566000000E+00 0. -1.
         22    1    1    0    0    0 -0.27561483505E+02  0.19390152955E+02  0.14364163217E+02  0.36632534577E+02  0.00000000000E+00 0. -1.
</event>
<event>
 5    1  0.1262391E-009  0.9118800E+02  0.7815553E-02  0.1125453E+00
         25   -1    0    0    0    0  0.00000000000E+00  0.00000000000E+00  0.99999998245E-14  0.12509000000E+03  0.12509000000E+03 0.  0.
        -13    1    3    3    0    0  0.32151411376E+02 -0.35468818109E+02 -0.33288972188E+01  0.47987946739E+02  0.10566000000E+00 0. -1.
         23    2    1    0    0    0 -0.11168267051E+02 -0.24593213783E+02  0.12438209353E+02  0.95353399572E+02  0.90598043053E+02 0.  0.
         13    1    3    3    0    0 -0.43319678426E+02  0.10875604326E+02  0.15767106571E+02  0.47365452833E+02  0.10566000000E+00 0.  1.
         22    1    1    0    0    0  0.11168267051E+02  0.24593213783E+02 -0.12438209353E+02  0.29736600428E+02  0.00000000000E+00 0. -1.
</event>
<event>
 5    1  0.1262391E-009  0.9118800E+02  0.7815553E-02  0.1125453E+00
         25   -1    0    0    0    0  0.00000000000E+00  0.00000000000E+00  0.99999998245E-14  0.12509000000E+03  0.12509000000E+03 0.  0.
        -13    1    3    3    0    0  0.38508827373E+02  0.16734099604E+02  0.50285991539E+01  0.42287797870E+02  0.10566000000E+00 0.  1.
         23    2    1    0    0    0  0.66757133939E+01 -0.26221427725E+02  0.10572937224E+02  0.96039777577E+02  0.91540829439E+02 0.  0.
         13    1    3    3    0    0 -0.31833113979E+02 -0.42955527329E+02  0.55443380701E+01  0.53751979707E+02  0.10566000000E+00 0. -1.
         22    1    1    0    0    0 -0.66757133939E+01  0.26221427725E+02 -0.10572937224E+02  0.29050222423E+02  0.00000000000E+00 0. -1.
</event>
<event>
 5    1  0.1262391E-009  0.9118800E+02  0.7815553E-02  0.1125453E+00
         25   -1    0    0    0    0  0.00000000000E+00  0.00000000000E+00  0.99999998245E-14  0.12509000000E+03  0.12509000000E+03 0.  0.
        -13    1    3    3    0    0  0.13816413448E+02  0.22937424515E+02 -0.31845571321E+02  0.41607334699E+02  0.10566000000E+00 0.  1.
         23    2    1    0    0    0 -0.19876239426E+02  0.18220883833E+02  0.10697924790E+02  0.96081189336E+02  0.91597400880E+02 0.  0.
         13    1    3    3    0    0 -0.33692652873E+02 -0.47165406821E+01  0.42543496111E+02  0.54473854637E+02  0.10566000000E+00 0. -1.
         22    1    1    0    0    0  0.19876239426E+02 -0.18220883833E+02 -0.10697924790E+02  0.29008810664E+02  0.00000000000E+00 0. -1.
</event>
<event>
 5    1  0.1262391E-009  0.9118800E+02  0.7815553E-02  0.1125453E+00
         25   -1    0    0    0    0  0.00000000000E+00  0.00000000000E+00  0.99999998245E-14  0.12509000000E+03  0.12509000000E+03 0.  0.
        -13    1    3    3    0    0 -0.21216388839E+02  0.35413012606E+02  0.15715307914E+02  0.44172374671E+02  0.10566000000E+00 0.  1.
         23    2    1    0    0    0  0.24830846605E+02  0.13390586268E+02  0.34449279128E+01  0.96669122602E+02  0.92396823498E+02 0.  0.
         13    1    3    3    0    0  0.46047235444E+02 -0.22022426338E+02 -0.12270380001E+02  0.52496747931E+02  0.10566000000E+00 0. -1.
         22    1    1    0    0    0 -0.24830846605E+02 -0.13390586268E+02 -0.34449279128E+01  0.28420877398E+02  0.00000000000E+00 0. -1.
</event>
<event>
 5    1  0.1262391E-009  0.9118800E+02  0.7815553E-02  0.1125453E+00
         25   -1    0    0    0    0  0.00000000000E+00  0.00000000000E+00  0.99999998245E-14  0.12509000000E+03  0.12509000000E+03 0.  0.
        -13    1    3    3    0    0  0.35307822492E+02 -0.33813125089E+02 -0.94937490107E+01  0.49800724811E+02  0.10566000000E+00 0. -1.
         23    2    1    0    0    0  0.10530888436E+02  0.33312065316E+01 -0.25553991296E+02  0.97251123956E+02  0.93181425678E+02 0.  0.
         13    1    3    3    0    0 -0.24776934055E+02  0.37144331621E+02 -0.16060242285E+02  0.47450399145E+02  0.10566000000E+00 0.  1.
         22    1    1    0    0    0 -0.10530888436E+02 -0.33312065316E+01  0.25553991296E+02  0.27838876044E+02  0.00000000000E+00 0.  1.
</event>
<event>
 5    1  0.1262391E-009  0.9118800E+02  0.7815553E-02  0.1125453E+00
         25   -1    0    0    0    0  0.00000000000E+00  0.00000000000E+00  0.99999998245E-14  0.12509000000E+03  0.12509000000E+03 0.  0.
        -13    1    3    3    0    0 -0.10552400103E+02  0.29085394764E+01  0.22798539714E+02  0.25290261504E+02  0.10566000000E+00 0.  1.
         23    2    1    0    0    0  0.38214455664E+02 -0.87507427661E+01 -0.92645175795E+01  0.84806611282E+02  0.74628479219E+02 0.  0.
         13    1    3    3    0    0  0.48766855767E+02 -0.11659282243E+02 -0.32063057294E+02  0.59516349778E+02  0.10566000000E+00 0. -1.
         22    1    1    0    0    0 -0.38214455664E+02  0.87507427661E+01  0.92645175795E+01  0.40283388718E+02  0.00000000000E+00 0. -1.
</event>
<event>
 5    1  0.1262391E-009  0.9118800E+02  0.7815553E-02  0.1125453E+00
         25   -1    0    0    0    0  0.00000000000E+00  0.00000000000E+00  0.99999998245E-14  0.12509000000E+03  0.12509000000E+03 0.  0.
        -13    1    3    3    0    0  0.71507390711E+01  0.14519274151E+02 -0.36650328891E+02  0.40064949307E+02  0.10566000000E+00 0. -1.
         23    2    1    0    0    0 -0.23779038398E+02  0.13714222233E+02  0.98565329308E+01  0.95923687240E+02  0.91382054987E+02 0.  0.
         13    1    3    3    0    0 -0.30929777470E+02 -0.80505191778E+00  0.46506861822E+02  0.55858737933E+02  0.10566000000E+00 0.  1.
         22    1    1    0    0    0  0.23779038398E+02 -0.13714222233E+02 -0.98565329308E+01  0.29166312760E+02  0.00000000000E+00 0.  1.
</event>
<event>
 5    1  0.1262391E-009  0.9118800E+02  0.7815553E-02  0.1125453E+00
         25   -1    0    0    0    0  0.00000000000E+00  0.00000000000E+00  0.99999998245E-14  0.12509000000E+03  0.12509000000E+03 0.  0.
        -13    1    3    3    0    0  0.38649242282E+02 -0.48734995364E+02  0.26821849353E+01  0.62258083670E+02  0.10566000000E+00 0. -1.
         23    2    1    0    0    0  0.26075591052E+02 -0.26839606951E+02  0.33822464246E+01  0.87516864106E+02  0.79040881587E+02 0.  0.
         13    1    3    3    0    0 -0.12573651230E+02  0.21895388413E+02  0.70006148932E+00  0.25258780436E+02  0.10566000000E+00 0.  1.
         22    1    1    0    0    0 -0.26075591052E+02  0.26839606951E+02 -0.33822464246E+01  0.37573135894E+02  0.00000000000E+00 0. -1.
</event>
<event>
 5    1  0.1262391E-009  0.9118800E+02  0.7815553E-02  0.1125453E+00
         25   -1    0    0    0    0  0.00000000000E+00  0.00000000000E+00  0.99999998245E-14  0.12509000000E+03  0.12509000000E+03 0.  0.
        -13    1    3    3    0    0  0.71923233671E+01 -0.22838086970E+02  0.50249551275E+02  0.55662701149E+02  0.10566000000E+00 0.  1.
         23    2    1    0    0    0  0.21937292594E+02 -0.20183486994E+01  0.19046052932E+02  0.95968347057E+02  0.91443167961E+02 0.  0.
         13    1    3    3    0    0  0.14744969227E+02  0.20819738271E+02 -0.31203498343E+02  0.40305645908E+02  0.10566000000E+00 0. -1.
         22    1    1    0    0    0 -0.21937292594E+02  0.20183486994E+01 -0.19046052932E+02  0.29121652943E+02  0.00000000000E+00 0.  1.
</event>
<event>
 5    1  0.1262391E-009  0.9118800E+02  0.7815553E-02  0.1125453E+00
         25   -1    0    0    0    0  0.00000000000E+00  0.00000000000E+00  0.99999998245E-14  0.12509000000E+03  0.12509000000E+03 0.  0.
        -13    1    3    3    0    0 -0.10312103932E+02 -0.50647013008E+02  0.15364760308E+02  0.53921669461E+02  0.10566000000E+00 0. -1.
         23    2    1    0    0    0 -0.23912859944E+02 -0.19198530215E+02 -0.53504881365E+01  0.93960654417E+02  0.88654207018E+02 0.  0.
         13    1    3    3    0    0 -0.13600756013E+02  0.31448482794E+02 -0.20715248444E+02  0.40038984956E+02  0.10566000000E+00 0.  1.
         22    1    1    0    0    0  0.23912859944E+02  0.19198530215E+02  0.53504881365E+01  0.31129345583E+02  0.00000000000E+00 0. -1.
</event>
<event>
 5    1  0.1262391E-009  0.9118800E+02  0.7815553E-02  0.1125453E+00
         25   -1    0    0    0    0  0.00000000000E+00  0.00000000000E+00  0.99999998245E-14  0.12509000000E+03  0.12509000000E+03 0.  0.
        -13    1    3    3    0    0 -0.12899367831E+02 -0.37030544279E+01 -0.35978766751E+02  0.38400379210E+02  0.10566000000E+00 0.  1.
         23    2    1    0    0    0  0.12752776255E+02  0.24176215849E+02  0.81561195234E+01  0.96565536803E+02  0.92256478892E+02 0.  0.
         13    1    3    3    0    0  0.25652144086E+02  0.27879270276E+02  0.44134886274E+02  0.58165157593E+02  0.10566000000E+00 0. -1.
         22    1    1    0    0    0 -0.12752776255E+02 -0.24176215849E+02 -0.81561195234E+01  0.28524463197E+02  0.00000000000E+00 0. -1.
</event>
<event>
 5    1  0.1262391E-009  0.9118800E+02  0.7815553E-02  0.1125453E+00
         25   -1    0    0    0    0  0.00000000000E+00  0.00000000000E+00  0.99999998245E-14  0.12509000000E+03  0.12509000000E+03 0.  0.
        -13    1    3    3    0    0  0.52297048956E+01 -0.21950315434E+02 -0.39636830423E+02  0.45609819677E+02  0.10566000000E+00 0.  1.
         23    2    1    0    0    0  0.22146197435E+02  0.14760281318E+02 -0.69766518690E+01  0.97576482654E+02  0.93617179676E+02 0.  0.
         13    1    3    3    0    0  0.16916492540E+02  0.36710596752E+02  0.32660178554E+02  0.51966662977E+02  0.10566000000E+00 0. -1.
         22    1    1    0    0    0 -0.22146197435E+02 -0.14760281318E+02  0.69766518690E+01  0.27513517346E+02  0.00000000000E+00 0.  1.
</event>
<event>
 5    1  0.1262391E-009  0.9118800E+02  0.7815553E-02  0.1125453E+00
         25   -1    0    0    0    0  0.00000000000E+00  0.00000000000E+00  0.99999998245E-14  0.12509000000E+03  0.12509000000E+03 0.  0.
        -13    1    3    3    0    0 -0.35067465536E+02 -0.37686251850E+02  0.19341222681E+02  0.54991588233E+02  0.10566000000E+00 0.  1.
         23    2    1    0    0    0 -0.20357308508E+02 -0.15100033898E+02 -0.12598850961E+02  0.96785193359E+02  0.92553830686E+02 0.  0.
         13    1    3    3    0    0  0.14710157027E+02  0.22586217952E+02 -0.31940073642E+02  0.41793605126E+02  0.10566000000E+00 0. -1.
         22    1    1    0    0    0  0.20357308508E+02  0.15100033898E+02  0.12598850961E+02  0.28304806641E+02  0.00000000000E+00 0.  1.
</event>
<event>
 5    1  0.1262391E-009  0.9118800E+02  0.7815553E-02  0.1125453E+00
         25   -1    0    0    0    0  0.00000000000E+00  0.00000000000E+00  0.99999998245E-14  0.12509000000E+03  0.12509000000E+03 0.  0.
        -13    1    3    3    0    0 -0.28480592172E+02 -0.10327603560E+02  0.33286742441E+02  0.45009131431E+02  0.10566000000E+00 0. -1.
         23    2    1    0    0    0 -0.26442854356E+02  0.12844575298E+02 -0.99067682090E+01  0.94068205767E+02  0.88805830996E+02 0.  0.
         13    1    3    3    0    0  0.20377378161E+01  0.23172178858E+02 -0.43193510650E+02  0.49059074336E+02  0.10566000000E+00 0.  1.
         22    1    1    0    0    0  0.26442854356E+02 -0.12844575298E+02  0.99067682090E+01  0.31021794233E+02  0.00000000000E+00 0.  1.
</event>
<event>
 5    1  0.1262391E-009  0.9118800E+02  0.7815553E-02  0.1125453E+00
         25   -1    0    0    0    0  0.00000000000E+00  0.00000000000E+00  0.99999998245E-14  0.12509000000E+03  0.12509000000E+03 0.  0.
        -13    1    3    3    0    0 -0.94671939634E+01 -0.62153674242E+01  0.50158903654E+02  0.51421642657E+02  0.10566000000E+00 0.  1.
         23    2    1    0    0    0 -0.21547228571E+02  0.15075385339E+02  0.13426828039E+02  0.95563232256E+02  0.90887300245E+02 0.  0.
         13    1    3    3    0    0 -0.12080034608E+02  0.21290752763E+02 -0.36732075615E+02  0.44141589599E+02  0.10566000000E+00 0. -1.
         22    1    1    0    0    0  0.21547228571E+02 -0.15075385339E+02 -0.13426828039E+02  0.29526767744E+02  0.00000000000E+00 0. -1.
</event>
<event>
 5    1  0.1262391E-009  0.9118800E+02  0.7815553E-02  0.1125453E+00
         25   -1    0    0    0    0  0.00000000000E+00  0.00000000000E+00  0.99999998245E-14  0.12509000000E+03  0.12509000000E+03 0.  0.
        -13    1    3    3    0    0 -0.38032225774E+02 -0.14539062867E+01  0.18486216527E+01  0.38105020757E+02  0.10566000000E+00 0.  1.
         23    2    1    0    0    0  0.14037262488E+02  0.11133405403E+02  0.23203889627E+02  0.95774168989E+02  0.91177154472E+02 0.  0.
         13    1    3    3    0    0  0.52069488263E+02  0.12587311690E+02  0.21355267974E+02  0.57669148232E+02  0.10566000000E+00 0. -1.
         22    1    1    0    0    0 -0.14037262488E+02 -0.11133405403E+02 -0.23203889627E+02  0.29315831011E+02  0.00000000000E+00 0. -1.
</event>
<event>
 5    1  0.1262391E-009  0.9118800E+02  0.7815553E-02  0.1125453E+00
         25   -1    0    0    0    0  0.00000000000E+00  0.00000000000E+00  0.99999998245E-14  0.12509000000E+03  0.12509000000E+03 0.  0.
        -13    1    3    3    0    0 -0.21988220447E+02  0.31973644292E+02 -0.46535355415E+02  0.60591635028E+02  0.10566000000E+00 0.  1.
         23    2    1    0    0    0 -0.13810342121E+02  0.53056626279E+01 -0.25803332227E+02  0.95346302190E+02  0.90588243066E+02 0.  0.
         13    1    3    3    0    0  0.81778783262E+01 -0.26667981664E+02  0.20732023189E+02  0.34754667161E+02  0.10566000000E+00 0. -1.
         22    1    1    0    0    0  0.13810342121E+02 -0.53056626279E+01  0.25803332227E+02  0.29743697810E+02  0.00000000000E+00 0.  1.
</event>
<event>
 5    1  0.1262391E-009  0.9118800E+02  0.7815553E-02  0.1125453E+00
         25   -1    0    0    0    0  0.00000000000E+00  0.00000000000E+00  0.99999998245E-14  0.12509000000E+03  0.12509000000E+03 0.  0.
        -13    1    3    3    0    0 -0.40890551010E+02  0.33002711351E+02  0.16453688193E+02  0.55063155899E+02  0.10566000000E+00 0. -1.
         23    2    1    0    0    0 -0.32215562393E+01  0.28608294885E+02  0.26180257570E+00  0.96299697789E+02  0.91895322475E+02 0.  0.
         13    1    3    3    0    0  0.37668994771E+02 -0.43944164662E+01 -0.16191885617E+02  0.41236541889E+02  0.10566000000E+00 0.  1.
         22    1    1    0    0    0  0.32215562393E+01 -0.28608294885E+02 -0.26180257570E+00  0.28790302211E+02  0.00000000000E+00 0. -1.
</event>
<event>
 5    1  0.1262391E-009  0.9118800E+02  0.7815553E-02  0.1125453E+00
         25   -1    0    0    0    0  0.00000000000E+00  0.00000000000E+00  0.99999998245E-14  0.12509000000E+03  0.12509000000E+03 0.  0.
        -13    1    3    3    0    0  0.49343421260E+02  0.24975347343E+02  0.12557661494E+02  0.56711967192E+02  0.10566000000E+00 0.  1.
         23    2    1    0    0    0  0.11319404509E+02  0.16409975773E+02  0.20505720406E+02  0.96491035112E+02  0.92155407135E+02 0.  0.
         13    1    3    3    0    0 -0.38024016751E+02 -0.85653715705E+01  0.79480589126E+01  0.39779067919E+02  0.10566000000E+00 0. -1.
         22    1    1    0    0    0 -0.11319404509E+02 -0.16409975773E+02 -0.20505720406E+02  0.28598964888E+02  0.00000000000E+00 0.  1.
</event>
<event>
 5    1  0.1262391E-009  0.9118800E+02  0.7815553E-02  0.1125453E+00
         25   -1    0    0    0    0  0.00000000000E+00  0.00000000000E+00  0.99999998245E-14  0.12509000000E+03  0.12509000000E+03 0.  0.
        -13    1    3    3    0    0 -0.92754275131E+01 -0.26826419132E+02  0.47259213589E+02  0.55128347990E+02  0.10566000000E+00 0.  1.
         23    2    1    0    0    0  0.17143782337E+02 -0.14288460160E+02  0.21554409428E+02  0.94063206218E+02  0.88798788459E+02 0.  0.
         13    1    3    3    0    0  0.26419209850E+02  0.12537958972E+02 -0.25704804161E+02  0.38934858229E+02  0.10566000000E+00 0. -1.
         22    1    1    0    0    0 -0.17143782337E+02  0.14288460160E+02 -0.21554409428E+02  0.31026793782E+02  0.00000000000E+00 0.  1.
</event>
<event>
 5    1  0.1262391E-009  0.9118800E+02  0.7815553E-02  0.1125453E+00
         25   -1    0    0    0    0  0.00000000000E+00  0.00000000000E+00  0.99999998245E-14  0.12509000000E+03  0.12509000000E+03 0.  0.
        -13    1    3    3    0    0 -0.35951296412E+02 -0.15366653030E+02  0.82382873211E+01  0.39956354702E+02  0.10566000000E+00 0.  1.
         23    2    1    0    0    0 -0.60989600940E+01  0.93655451082E+01 -0.29184407899E+02  0.93838753404E+02  0.88482039006E+02 0.  0.
         13    1    3    3    0    0  0.29852336318E+02  0.24732198138E+02 -0.37422695220E+02  0.53882398702E+02  0.10566000000E+00 0. -1.
         22    1    1    0    0    0  0.60989600940E+01 -0.93655451082E+01  0.29184407899E+02  0.31251246596E+02  0.00000000000E+00 0. -1.
</event>
<event>
 5    1  0.1262391E-009  0.9118800E+02  0.7815553E-02  0.1125453E+00
         25   -1    0    0    0    0  0.00000000000E+00  0.00000000000E+00  0.99999998245E-14  0.12509000000E+03  0.12509000000E+03 0.  0.
        -13    1    3    3    0    0 -0.33055082811E+02  0.21165417629E+02  0.16033692051E+02  0.42399337823E+02  0.10566000000E+00 0.  1.
         23    2    1    0    0    0 -0.13586679262E+01 -0.18570367604E+02  0.24901998230E+02  0.93996366450E+02  0.88704581947E+02 0.  0.
         13    1    3    3    0    0  0.31696414884E+02 -0.39735785233E+02  0.88683061790E+01  0.51597028627E+02  0.10566000000E+00 0. -1.
         22    1    1    0    0    0  0.13586679262E+01  0.18570367604E+02 -0.24901998230E+02  0.31093633550E+02  0.00000000000E+00 0. -1.
</event>
<event>
 5    1  0.1262391E-009  0.9118800E+02  0.7815553E-02  0.1125453E+00
         25   -1    0    0    0    0  0.00000000000E+00  0.00000000000E+00  0.99999998245E-14  0.12509000000E+03  0.12509000000E+03 0.  0.
        -13    1    3    3    0    0  0.48110140199E+02  0.30088006459E+02  0.15115290419E+02  0.58722711885E+02  0.10566000000E+00 0.  1.
         23    2    1    0    0    0  0.22392770800E+02  0.23496882821E+01  0.17424973589E+02  0.96619191727E+02  0.92329200616E+02 0.  0.
         13    1    3    3    0    0 -0.25717369399E+02 -0.27738318177E+02  0.23096831704E+01  0.37896479843E+02  0.10566000000E+00 0. -1.
         22    1    1    0    0    0 -0.22392770800E+02 -0.23496882821E+01 -0.17424973589E+02  0.28470808273E+02  0.00000000000E+00 0.  1.
</event>
<event>
 5    1  0.1262391E-009  0.9118800E+02  0.7815553E-02  0.1125453E+00
         25   -1    0    0    0    0  0.00000000000E+00  0.00000000000E+00  0.99999998245E-14  0.12509000000E+03  0.12509000000E+03 0.  0.
        -13    1    3    3    0    0  0.21139073300E+02 -0.43368965331E+02 -0.17514354539E+02  0.51327296372E+02  0.10566000000E+00 0.  1.
         23    2    1    0    0    0  0.33202572408E+01 -0.26090876916E+02  0.16950783352E+02  0.93799633709E+02  0.88426716898E+02 0.  0.
         13    1    3    3    0    0 -0.17818816059E+02  0.17278088415E+02  0.34465137891E+02  0.42472337337E+02  0.10566000000E+00 0. -1.
         22    1    1    0    0    0 -0.33202572408E+01  0.26090876916E+02 -0.16950783352E+02  0.31290366291E+02  0.00000000000E+00 0.  1.
</event>
<event>
 5    1  0.1262391E-009  0.9118800E+02  0.7815553E-02  0.1125453E+00
         25   -1    0    0    0    0  0.00000000000E+00  0.00000000000E+00  0.99999998245E-14  0.12509000000E+03  0.12509000000E+03 0.  0.
        -13    1    3    3    0    0  0.25143320196E+02  0.25877710919E+02 -0.32647860433E+02  0.48659391979E+02  0.10566000000E+00 0. -1.
         23    2    1    0    0    0 -0.16409665846E+02  0.52130340929E+01 -0.23495457465E+02  0.95961158981E+02  0.91433334478E+02 0.  0.
         13    1    3    3    0    0 -0.41552986042E+02 -0.20664676826E+02  0.91524029683E+01  0.47301767001E+02  0.10566000000E+00 0.  1.
         22    1    1    0    0    0  0.16409665846E+02 -0.52130340929E+01  0.23495457465E+02  0.29128841019E+02  0.00000000000E+00 0. -1.
</event>
<event>
 5    1  0.1262391E-009  0.9118800E+02  0.7815553E-02  0.1125453E+00
         25   -1    0    0    0    0  0.00000000000E+00  0.00000000000E+00  0.99999998245E-14  0.12509000000E+03  0.12509000000E+03 0.  0.
        -13    1    3    3    0    0  0.39722451196E+02 -0.33397720660E+02 -0.13282780698E+02  0.53569807741E+02  0.10566000000E+00 0.  1.
         23    2    1    0    0    0  0.17804620940E+02 -0.11246912734E+01 -0.25066813753E+02  0.94322897293E+02  0.89163862325E+02 0.  0.
         13    1    3    3    0    0 -0.21917830257E+02  0.32273029386E+02 -0.11784033055E+02  0.40753089552E+02  0.10566000000E+00 0. -1.
         22    1    1    0    0    0 -0.17804620940E+02  0.11246912734E+01  0.25066813753E+02  0.30767102707E+02  0.00000000000E+00 0.  1.
</event>
<event>
 5    1  0.1262391E-009  0.9118800E+02  0.7815553E-02  0.1125453E+00
         25   -1    0    0    0    0  0.00000000000E+00  0.00000000000E+00  0.99999998245E-14  0.12509000000E+03  0.12509000000E+03 0.  0.
        -13    1    3    3    0    0 -0.12139878995E+02  0.26452533085E+02 -0.20279537753E+02  0.35473708351E+02  0.10566000000E+00 0.  1.
         23    2    1    0    0    0  0.22080118626E+02 -0.18231016419E+02  0.28328113020E+01  0.96316289463E+02  0.91917904664E+02 0.  0.
         13    1    3    3    0    0  0.34219997621E+02 -0.44683549504E+02  0.23112349055E+02  0.60842581112E+02  0.10566000000E+00 0. -1.
         22    1    1    0    0    0 -0.22080118626E+02  0.18231016419E+02 -0.28328113020E+01  0.28773710537E+02  0.00000000000E+00 0. -1.
</event>
<event>
 5    1  0.1262391E-009  0.9118800E+02  0.7815553E-02  0.1125453E+00
         25   -1    0    0    0    0  0.00000000000E+00  0.00000000000E+00  0.99999998245E-14  0.12509000000E+03  0.12509000000E+03 0.  0.
        -13    1    3    3    0    0 -0.29200772226E+02 -0.74568389646E+01 -0.24013843685E+02  0.38535248780E+02  0.10566000000E+00 0.  1.
         23    2    1    0    0    0  0.17648274448E+02  0.16415373941E+02  0.75136843211E+01  0.99843583528E+02  0.96598962867E+02 0.  0.
         13    1    3    3    0    0  0.46849046674E+02  0.23872212906E+02  0.31527528006E+02  0.61308334748E+02  0.10566000000E+00 0. -1.
         22    1    1    0    0    0 -0.17648274448E+02 -0.16415373941E+02 -0.75136843211E+01  0.25246416472E+02  0.00000000000E+00 0. -1.
</event>
<event>
 5    1  0.1262391E-009  0.9118800E+02  0.7815553E-02  0.1125453E+00
         25   -1    0    0    0    0  0.00000000000E+00  0.00000000000E+00  0.99999998245E-14  0.12509000000E+03  0.12509000000E+03 0.  0.
        -13    1    3    3    0    0 -0.31870235601E+02 -0.51389177930E+00 -0.44927852233E+02  0.55086287516E+02  0.10566000000E+00 0. -1.
         23    2    1    0    0    0 -0.51027301784E+01 -0.19957106168E+02 -0.17008442707E+02  0.98376500319E+02  0.94680118029E+02 0.  0.
         13    1    3    3    0    0  0.26767505422E+02 -0.19443214388E+02  0.27919409526E+02  0.43290212804E+02  0.10566000000E+00 0.  1.
         22    1    1    0    0    0  0.51027301784E+01  0.19957106168E+02  0.17008442707E+02  0.26713499681E+02  0.00000000000E+00 0. -1.
</event>
<event>
 5    1  0.1262391E-009  0.9118800E+02  0.7815553E-02  0.1125453E+00
         25   -1    0    0    0    0  0.00000000000E+00  0.00000000000E+00  0.99999998245E-14  0.12509000000E+03  0.12509000000E+03 0.  0.
        -13    1    3    3    0    0 -0.39191484509E+02 -0.23040547643E+01  0.18080114122E+02  0.43222480460E+02  0.10566000000E+00 0.  1.
         23    2    1    0    0    0 -0.43391943535E+01 -0.27993596790E+02 -0.10250195897E+02  0.94964652122E+02  0.90059694469E+02 0.  0.
         13    1    3    3    0    0  0.34852290156E+02 -0.25689542025E+02 -0.28330310018E+02  0.51742171662E+02  0.10566000000E+00 0. -1.
         22    1    1    0    0    0  0.43391943535E+01  0.27993596790E+02  0.10250195897E+02  0.30125347878E+02  0.00000000000E+00 0. -1.
</event>
<event>
 5    1  0.1262391E-009  0.9118800E+02  0.7815553E-02  0.1125453E+00
         25   -1    0    0    0    0  0.00000000000E+00  0.00000000000E+00  0.99999998245E-14  0.12509000000E+03  0.12509000000E+03 0.  0.
        -13    1    3    3    0    0 -0.20678688643E+02  0.44428939429E+02  0.19044506120E+02  0.52576070604E+02  0.10566000000E+00 0.  1.
         23    2    1    0    0    0 -0.46581188263E+01  0.57509271840E+01  0.28625593310E+02  0.95523197217E+02  0.90832182511E+02 0.  0.
         13    1    3    3    0    0  0.16020569817E+02 -0.38678012245E+02  0.95810871902E+01  0.42947126613E+02  0.10566000000E+00 0. -1.
         22    1    1    0    0    0  0.46581188263E+01 -0.57509271840E+01 -0.28625593310E+02  0.29566802783E+02  0.00000000000E+00 0.  1.
</event>
<event>
 5    1  0.1262391E-009  0.9118800E+02  0.7815553E-02  0.1125453E+00
         25   -1    0    0    0    0  0.00000000000E+00  0.00000000000E+00  0.99999998245E-14  0.12509000000E+03  0.12509000000E+03 0.  0.
        -13    1    3    3    0    0 -0.57637613611E+02  0.39795258171E+01 -0.12941735320E+02  0.59206678725E+02  0.10566000000E+00 0. -1.
         23    2    1    0    0    0 -0.22520631771E+02  0.14645940507E+02 -0.11303840770E+02  0.95944515876E+02  0.91410562200E+02 0.  0.
         13    1    3    3    0    0  0.35116981840E+02  0.10666414690E+02  0.16378945504E+01  0.36737837151E+02  0.10566000000E+00 0.  1.
         22    1    1    0    0    0  0.22520631771E+02 -0.14645940507E+02  0.11303840770E+02  0.29145484124E+02  0.00000000000E+00 0. -1.
</event>
<event>
 5    1  0.1262391E-009  0.9118800E+02  0.7815553E-02  0.1125453E+00
         25   -1    0    0    0    0  0.00000000000E+00  0.00000000000E+00  0.99999998245E-14  0.12509000000E+03  0.12509000000E+03 0.  0.
        -13    1    3    3    0    0  0.36328559973E+02  0.47316625980E+02  0.18151039259E+02  0.62354620952E+02  0.10566000000E+00 0. -1.
         23    2    1    0    0    0  0.14094937161E+02  0.23624976878E+02  0.96175673654E+01  0.95947172614E+02  0.91414197718E+02 0.  0.
         13    1    3    3    0    0 -0.22233622812E+02 -0.23691649102E+02 -0.85334718935E+01  0.33592551662E+02  0.10566000000E+00 0.  1.
         22    1    1    0    0    0 -0.14094937161E+02 -0.23624976878E+02 -0.96175673654E+01  0.29142827386E+02  0.00000000000E+00 0. -1.
</event>
<event>
 5    1  0.1262391E-009  0.9118800E+02  0.7815553E-02  0.1125453E+00
         25   -1    0    0    0    0  0.00000000000E+00  0.00000000000E+00  0.99999998245E-14  0.12509000000E+03  0.12509000000E+03 0.  0.
        -13    1    3    3    0    0 -0.22670518522E+02 -0.67284579447E+01 -0.50127632272E+02  0.55425763302E+02  0.10566000000E+00 0.  1.
         23    2    1    0    0    0  0.35200267589E+01  0.13736579618E+02 -0.21726750348E+02  0.99145137528E+02  0.95690241962E+02 0.  0.
         13    1    3    3    0    0  0.26190545281E+02  0.20465037563E+02  0.28400881924E+02  0.43719374226E+02  0.10566000000E+00 0. -1.
         22    1    1    0    0    0 -0.35200267589E+01 -0.13736579618E+02  0.21726750348E+02  0.25944862472E+02  0.00000000000E+00 0. -1.
</event>
<event>
 5    1  0.1262391E-009  0.9118800E+02  0.7815553E-02  0.1125453E+00
         25   -1    0    0    0    0  0.00000000000E+00  0.00000000000E+00  0.99999998245E-14  0.12509000000E+03  0.12509000000E+03 0.  0.
        -13    1    3    3    0    0  0.37505078623E+02 -0.28190803651E+02  0.38211810251E+02  0.60510378777E+02  0.10566000000E+00 0. -1.
         23    2    1    0    0    0  0.85532541720E+01 -0.18677017769E+02  0.92182686688E+01  0.10257410280E+03  0.10007237849E+03 0.  0.
         13    1    3    3    0    0 -0.28951824451E+02  0.95137858819E+01 -0.28993541582E+02  0.42063724019E+02  0.10566000000E+00 0.  1.
         22    1    1    0    0    0 -0.85532541720E+01  0.18677017769E+02 -0.92182686688E+01  0.22515897204E+02  0.00000000000E+00 0. -1.
</event>
<event>
 5    1  0.1262391E-009  0.9118800E+02  0.7815553E-02  0.1125453E+00
         25   -1    0    0    0    0  0.00000000000E+00  0.00000000000E+00  0.99999998245E-14  0.12509000000E+03  0.12509000000E+03 0.  0.
        -13    1    3    3    0    0 -0.36572099997E+02  0.24093876638E+02 -0.20956668839E+02  0.48551277249E+02  0.10566000000E+00 0.  1.
         23    2    1    0    0    0  0.10534420762E+02  0.23169660984E+02 -0.13582416765E+02  0.96240576157E+02  0.91814809497E+02 0.  0.
         13    1    3    3    0    0  0.47106520759E+02 -0.92421565412E+00  0.73742520743E+01  0.47689298907E+02  0.10566000000E+00 0. -1.
         22    1    1    0    0    0 -0.10534420762E+02 -0.23169660984E+02  0.13582416765E+02  0.28849423843E+02  0.00000000000E+00 0.  1.
</event>
<event>
 5    1  0.1262391E-009  0.9118800E+02  0.7815553E-02  0.1125453E+00
         25   -1    0    0    0    0  0.00000000000E+00  0.00000000000E+00  0.99999998245E-14  0.12509000000E+03  0.12509000000E+03 0.  0.
        -13    1    3    3    0    0 -0.23534029846E+02  0.55438484259E+02 -0.10402632561E+02  0.61118753472E+02  0.10566000000E+00 0. -1.
         23    2    1    0    0    0 -0.43277137501E+01  0.29840972232E+02  0.51695087772E+00  0.94932414416E+02  0.90014906202E+02 0.  0.
         13    1    3    3    0    0  0.19206316096E+02 -0.25597512027E+02  0.10919583439E+02  0.33813660944E+02  0.10566000000E+00 0.  1.
         22    1    1    0    0    0  0.43277137501E+01 -0.29840972232E+02 -0.51695087772E+00  0.30157585584E+02  0.00000000000E+00 0. -1.
</event>
<event>
 5    1  0.1262391E-009  0.9118800E+02  0.7815553E-02  0.1125453E+00
         25   -1    0    0    0    0  0.00000000000E+00  0.00000000000E+00  0.99999998245E-14  0.12509000000E+03  0.12509000000E+03 0.  0.
        -13    1    3    3    0    0  0.14680995669E+02 -0.25645824004E+02 -0.29128604472E+02  0.41493694523E+02  0.10566000000E+00 0. -1.
         23    2    1    0    0    0  0.39254701087E+01  0.25647425479E+02 -0.99495639582E+01  0.97301628831E+02  0.93249200537E+02 0.  0.
         13    1    3    3    0    0 -0.10755525560E+02  0.51293249483E+02  0.19179040514E+02  0.55807934307E+02  0.10566000000E+00 0.  1.
         22    1    1    0    0    0 -0.39254701087E+01 -0.25647425479E+02  0.99495639582E+01  0.27788371169E+02  0.00000000000E+00 0.  1.
</event>
<event>
 5    1  0.1262391E-009  0.9118800E+02  0.7815553E-02  0.1125453E+00
         25   -1    0    0    0    0  0.00000000000E+00  0.00000000000E+00  0.99999998245E-14  0.12509000000E+03  0.12509000000E+03 0.  0.
        -13    1    3    3    0    0 -0.17185398217E+01  0.31775622386E+02 -0.32842967802E+02  0.45730900442E+02  0.10566000000E+00 0.  1.
         23    2    1    0    0    0 -0.27583917340E+02 -0.39570137059E+01 -0.94277063154E+01  0.95672112590E+02  0.91037031080E+02 0.  0.
         13    1    3    3    0    0 -0.25865377518E+02 -0.35732636092E+02  0.23415261487E+02  0.49941212148E+02  0.10566000000E+00 0. -1.
         22    1    1    0    0    0  0.27583917340E+02  0.39570137059E+01  0.94277063154E+01  0.29417887410E+02  0.00000000000E+00 0. -1.
</event>
<event>
 5    1  0.1262391E-009  0.9118800E+02  0.7815553E-02  0.1125453E+00
         25   -1    0    0    0    0  0.00000000000E+00  0.00000000000E+00  0.99999998245E-14  0.12509000000E+03  0.12509000000E+03 0.  0.
        -13    1    3    3    0    0  0.51903918737E+02 -0.26720542206E+02 -0.14969017343E+02  0.60266796831E+02  0.10566000000E+00 0.  1.
         23    2    1    0    0    0  0.28484877453E+02 -0.42508807546E+01  0.64445927789E+00  0.96282473927E+02  0.91871873971E+02 0.  0.
         13    1    3    3    0    0 -0.23419041284E+02  0.22469661451E+02  0.15613476620E+02  0.36015677095E+02  0.10566000000E+00 0. -1.
         22    1    1    0    0    0 -0.28484877453E+02  0.42508807546E+01 -0.64445927789E+00  0.28807526073E+02  0.00000000000E+00 0.  1.
</event>
<event>
 5    1  0.1262391E-009  0.9118800E+02  0.7815553E-02  0.1125453E+00
         25   -1    0    0    0    0  0.00000000000E+00  0.00000000000E+00  0.99999998245E-14  0.12509000000E+03  0.12509000000E+03 0.  0.
        -13    1    3    3    0    0 -0.10093985472E+02  0.45581722664E+02  0.15018951286E+02  0.49042451463E+02  0.10566000000E+00 0.  1.
         23    2    1    0    0    0  0.18855010215E+02  0.77401961557E+01  0.19480534378E+02  0.96895793744E+02  0.92703190769E+02 0.  0.
         13    1    3    3    0    0  0.28948995687E+02 -0.37841526508E+02  0.44615830925E+01  0.47853342281E+02  0.10566000000E+00 0. -1.
         22    1    1    0    0    0 -0.18855010215E+02 -0.77401961557E+01 -0.19480534378E+02  0.28194206256E+02  0.00000000000E+00 0.  1.
</event>
<event>
 5    1  0.1262391E-009  0.9118800E+02  0.7815553E-02  0.1125453E+00
         25   -1    0    0    0    0  0.00000000000E+00  0.00000000000E+00  0.99999998245E-14  0.12509000000E+03  0.12509000000E+03 0.  0.
        -13    1    3    3    0    0 -0.28715351368E+02 -0.28762854832E+02  0.10940642716E+02  0.42090165708E+02  0.10566000000E+00 0. -1.
         23    2    1    0    0    0 -0.68258534717E+01  0.80737370667E-01 -0.28589109648E+02  0.95697212030E+02  0.91071512592E+02 0.  0.
         13    1    3    3    0    0  0.21889497896E+02  0.28843592203E+02 -0.39529752364E+02  0.53607046322E+02  0.10566000000E+00 0.  1.
         22    1    1    0    0    0  0.68258534717E+01 -0.80737370667E-01  0.28589109648E+02  0.29392787970E+02  0.00000000000E+00 0.  1.
</event>
<event>
 5    1  0.1262391E-009  0.9118800E+02  0.7815553E-02  0.1125453E+00
         25   -1    0    0    0    0  0.00000000000E+00  0.00000000000E+00  0.99999998245E-14  0.12509000000E+03  0.12509000000E+03 0.  0.
        -13    1    3    3    0    0  0.12842978332E+02 -0.44325471394E+02  0.35715146187E+02  0.58354711360E+02  0.10566000000E+00 0.  1.
         23    2    1    0    0    0 -0.10390191610E+02 -0.19008705043E+02  0.17472875886E+02  0.97258572785E+02  0.93191424709E+02 0.  0.
         13    1    3    3    0    0 -0.23233169941E+02  0.25316766351E+02 -0.18242270301E+02  0.38903861425E+02  0.10566000000E+00 0. -1.
         22    1    1    0    0    0  0.10390191610E+02  0.19008705043E+02 -0.17472875886E+02  0.27831427215E+02  0.00000000000E+00 0.  1.
</event>
<event>
 5    1  0.1262391E-009  0.9118800E+02  0.7815553E-02  0.1125453E+00
         25   -1    0    0    0    0  0.00000000000E+00  0.00000000000E+00  0.99999998245E-14  0.12509000000E+03  0.12509000000E+03 0.  0.
        -13    1    3    3    0    0  0.26526617394E+02 -0.19307135733E+02  0.10591080300E+02  0.34476210153E+02  0.10566000000E+00 0.  1.
         23    2    1    0    0    0 -0.36065187297E+01  0.30427541618E+02 -0.33258682800E+01  0.94269492767E+02  0.89088908403E+02 0.  0.
         13    1    3    3    0    0 -0.30133136124E+02  0.49734677351E+02 -0.13916948580E+02  0.59793282614E+02  0.10566000000E+00 0. -1.
         22    1    1    0    0    0  0.36065187297E+01 -0.30427541618E+02  0.33258682800E+01  0.30820507233E+02  0.00000000000E+00 0. -1.
</event>
<event>
 5    1  0.1262391E-009  0.9118800E+02  0.7815553E-02  0.1125453E+00
         25   -1    0    0    0    0  0.00000000000E+00  0.00000000000E+00  0.99999998245E-14  0.12509000000E+03  0.12509000000E+03 0.  0.
        -13    1    3    3    0    0 -0.28476624146E+01 -0.46937765380E+02 -0.33335361749E+02  0.57641309033E+02  0.10566000000E+00 0.  1.
         23    2    1    0    0    0  0.15161575530E+02 -0.21313770803E+02 -0.85826080306E+01  0.97561626292E+02  0.93597326702E+02 0.  0.
         13    1    3    3    0    0  0.18009237944E+02  0.25623994576E+02  0.24752753718E+02  0.39920317259E+02  0.10566000000E+00 0. -1.
         22    1    1    0    0    0 -0.15161575530E+02  0.21313770803E+02  0.85826080306E+01  0.27528373708E+02  0.00000000000E+00 0.  1.
</event>
<event>
 5    1  0.1262391E-009  0.9118800E+02  0.7815553E-02  0.1125453E+00
         25   -1    0    0    0    0  0.00000000000E+00  0.00000000000E+00  0.99999998245E-14  0.12509000000E+03  0.12509000000E+03 0.  0.
        -13    1    3    3    0    0  0.52091236426E+02  0.18829233859E+02  0.25001108000E+02  0.60770910190E+02  0.10566000000E+00 0.  1.
         23    2    1    0    0    0  0.26980533871E+02 -0.12531614078E+01  0.13257767854E+02  0.95001995248E+02  0.90111547935E+02 0.  0.
         13    1    3    3    0    0 -0.25110702555E+02 -0.20082395267E+02 -0.11743340146E+02  0.34231085058E+02  0.10566000000E+00 0. -1.
         22    1    1    0    0    0 -0.26980533871E+02  0.12531614078E+01 -0.13257767854E+02  0.30088004752E+02  0.00000000000E+00 0.  1.
</event>
<event>
 5    1  0.1262391E-009  0.9118800E+02  0.7815553E-02  0.1125453E+00
         25   -1    0    0    0    0  0.00000000000E+00  0.00000000000E+00  0.99999998245E-14  0.12509000000E+03  0.12509000000E+03 0.  0.
        -13    1    3    3    0    0  0.42802078849E+02  0.21470267009E+01 -0.73661627432E+01  0.43484470734E+02  0.10566000000E+00 0.  1.
         23    2    1    0    0    0  0.57219587794E+01 -0.30879173762E+02  0.11659829526E-01  0.93685154507E+02  0.88264624027E+02 0.  0.
         13    1    3    3    0    0 -0.37080120069E+02 -0.33026200463E+02  0.73778225727E+01  0.50200683773E+02  0.10566000000E+00 0. -1.
         22    1    1    0    0    0 -0.57219587794E+01  0.30879173762E+02 -0.11659829526E-01  0.31404845493E+02  0.00000000000E+00 0. -1.
</event>
<event>
 5    1  0.1262391E-009  0.9118800E+02  0.7815553E-02  0.1125453E+00
         25   -1    0    0    0    0  0.00000000000E+00  0.00000000000E+00  0.99999998245E-14  0.12509000000E+03  0.12509000000E+03 0.  0.
        -13    1    3    3    0    0 -0.33318246523E+02  0.29005410999E+02  0.23827257580E+02  0.50191321824E+02  0.10566000000E+00 0.  1.
         23    2    1    0    0    0 -0.51341597767E+01 -0.67324783178E+01  0.27944074643E+02  0.95891418381E+02  0.91337872488E+02 0.  0.
         13    1    3    3    0    0  0.28184086746E+02 -0.35737889317E+02  0.41168170622E+01  0.45700096557E+02  0.10566000000E+00 0. -1.
         22    1    1    0    0    0  0.51341597767E+01  0.67324783178E+01 -0.27944074643E+02  0.29198581619E+02  0.00000000000E+00 0.  1.
</event>
<event>
 5    1  0.1262391E-009  0.9118800E+02  0.7815553E-02  0.1125453E+00
         25   -1    0    0    0    0  0.00000000000E+00  0.00000000000E+00  0.99999998245E-14  0.12509000000E+03  0.12509000000E+03 0.  0.
        -13    1    3    3    0    0  0.11717438834E+01 -0.22154798446E+02 -0.65882637071E+00  0.22195794515E+02  0.10566000000E+00 0. -1.
         23    2    1    0    0    0 -0.26546972366E+02  0.57766441905E+01 -0.39278020859E+02  0.77331500416E+02  0.60821761518E+02 0.  0.
         13    1    3    3    0    0 -0.27718716250E+02  0.27931442637E+02 -0.38619194488E+02  0.55135705901E+02  0.10566000000E+00 0.  1.
         22    1    1    0    0    0  0.26546972366E+02 -0.57766441905E+01  0.39278020859E+02  0.47758499584E+02  0.00000000000E+00 0.  1.
</event>
<event>
 5    1  0.1262391E-009  0.9118800E+02  0.7815553E-02  0.1125453E+00
         25   -1    0    0    0    0  0.00000000000E+00  0.00000000000E+00  0.99999998245E-14  0.12509000000E+03  0.12509000000E+03 0.  0.
        -13    1    3    3    0    0  0.34124200527E+02  0.20085354840E+02  0.44572936997E+02  0.59620805238E+02  0.10566000000E+00 0.  1.
         23    2    1    0    0    0  0.26050561254E+02  0.10009456356E+02  0.11902144522E+02  0.94750553690E+02  0.89761826085E+02 0.  0.
         13    1    3    3    0    0 -0.80736392726E+01 -0.10075898484E+02 -0.32670792475E+02  0.35129748452E+02  0.10566000000E+00 0. -1.
         22    1    1    0    0    0 -0.26050561254E+02 -0.10009456356E+02 -0.11902144522E+02  0.30339446310E+02  0.00000000000E+00 0.  1.
</event>
<event>
 5    1  0.1262391E-009  0.9118800E+02  0.7815553E-02  0.1125453E+00
         25   -1    0    0    0    0  0.00000000000E+00  0.00000000000E+00  0.99999998245E-14  0.12509000000E+03  0.12509000000E+03 0.  0.
        -13    1    3    3    0    0 -0.56067620247E+01 -0.13366292254E+02  0.33294310824E+02  0.36312750464E+02  0.10566000000E+00 0.  1.
         23    2    1    0    0    0  0.16746236301E+02 -0.54318976057E+01 -0.22254512774E+02  0.96713860716E+02  0.92457371658E+02 0.  0.
         13    1    3    3    0    0  0.22352998326E+02  0.79343946479E+01 -0.55548823598E+02  0.60401110252E+02  0.10566000000E+00 0. -1.
         22    1    1    0    0    0 -0.16746236301E+02  0.54318976057E+01  0.22254512774E+02  0.28376139284E+02  0.00000000000E+00 0. -1.
</event>
<event>
 5    1  0.1262391E-009  0.9118800E+02  0.7815553E-02  0.1125453E+00
         25   -1    0    0    0    0  0.00000000000E+00  0.00000000000E+00  0.99999998245E-14  0.12509000000E+03  0.12509000000E+03 0.  0.
        -13    1    3    3    0    0 -0.47638120821E+02  0.17464059152E+02 -0.10796453593E+02  0.51874449314E+02  0.10566000000E+00 0. -1.
         23    2    1    0    0    0 -0.22093698574E+02 -0.16206712221E+02  0.54485075945E+01  0.97153012462E+02  0.93049624167E+02 0.  0.
         13    1    3    3    0    0  0.25544422246E+02 -0.33670771373E+02  0.16244961187E+02  0.45278563148E+02  0.10566000000E+00 0.  1.
         22    1    1    0    0    0  0.22093698574E+02  0.16206712221E+02 -0.54485075945E+01  0.27936987538E+02  0.00000000000E+00 0. -1.
</event>
<event>
 5    1  0.1262391E-009  0.9118800E+02  0.7815553E-02  0.1125453E+00
         25   -1    0    0    0    0  0.00000000000E+00  0.00000000000E+00  0.99999998245E-14  0.12509000000E+03  0.12509000000E+03 0.  0.
        -13    1    3    3    0    0 -0.29157391180E+02 -0.72142159712E+01 -0.36303269871E+02  0.47118329129E+02  0.10566000000E+00 0. -1.
         23    2    1    0    0    0 -0.18362243854E+02 -0.20669973713E+02  0.93351780290E+01  0.95908407146E+02  0.91361136157E+02 0.  0.
         13    1    3    3    0    0  0.10795147326E+02 -0.13455757742E+02  0.45638447900E+02  0.48790078018E+02  0.10566000000E+00 0.  1.
         22    1    1    0    0    0  0.18362243854E+02  0.20669973713E+02 -0.93351780290E+01  0.29181592854E+02  0.00000000000E+00 0. -1.
</event>
<event>
 5    1  0.1262391E-009  0.9118800E+02  0.7815553E-02  0.1125453E+00
         25   -1    0    0    0    0  0.00000000000E+00  0.00000000000E+00  0.99999998245E-14  0.12509000000E+03  0.12509000000E+03 0.  0.
        -13    1    3    3    0    0  0.52205521411E+01 -0.36454913366E+02  0.34848628149E+02  0.50701606691E+02  0.10566000000E+00 0. -1.
         23    2    1    0    0    0  0.25718800440E+02 -0.12832623586E+02  0.16683828496E+01  0.96299091270E+02  0.91894496865E+02 0.  0.
         13    1    3    3    0    0  0.20498248299E+02  0.23622289780E+02 -0.33180245299E+02  0.45597484579E+02  0.10566000000E+00 0.  1.
         22    1    1    0    0    0 -0.25718800440E+02  0.12832623586E+02 -0.16683828496E+01  0.28790908730E+02  0.00000000000E+00 0. -1.
</event>
<event>
 5    1  0.1262391E-009  0.9118800E+02  0.7815553E-02  0.1125453E+00
         25   -1    0    0    0    0  0.00000000000E+00  0.00000000000E+00  0.99999998245E-14  0.12509000000E+03  0.12509000000E+03 0.  0.
        -13    1    3    3    0    0 -0.10857667228E+01 -0.17968709407E+02 -0.56635986678E+02  0.59428104110E+02  0.10566000000E+00 0. -1.
         23    2    1    0    0    0 -0.29597367566E+01  0.42966469996E+01 -0.31917592993E+02  0.92748788527E+02  0.86927462942E+02 0.  0.
         13    1    3    3    0    0 -0.18739700339E+01  0.22265356407E+02  0.24718393685E+02  0.33320684417E+02  0.10566000000E+00 0.  1.
         22    1    1    0    0    0  0.29597367566E+01 -0.42966469996E+01  0.31917592993E+02  0.32341211473E+02  0.00000000000E+00 0. -1.
</event>
<event>
 5    1  0.1262391E-009  0.9118800E+02  0.7815553E-02  0.1125453E+00
         25   -1    0    0    0    0  0.00000000000E+00  0.00000000000E+00  0.99999998245E-14  0.12509000000E+03  0.12509000000E+03 0.  0.
        -13    1    3    3    0    0 -0.32048276245E+02  0.20900839119E+02  0.18239110063E+02  0.42386476452E+02  0.10566000000E+00 0.  1.
         23    2    1    0    0    0  0.18349168919E+02  0.72405244290E+01  0.22965163964E+02  0.94815985567E+02  0.89852964164E+02 0.  0.
         13    1    3    3    0    0  0.50397445164E+02 -0.13660314690E+02  0.47260539014E+01  0.52429509114E+02  0.10566000000E+00 0. -1.
         22    1    1    0    0    0 -0.18349168919E+02 -0.72405244290E+01 -0.22965163964E+02  0.30274014433E+02  0.00000000000E+00 0. -1.
</event>
<event>
 5    1  0.1262391E-009  0.9118800E+02  0.7815553E-02  0.1125453E+00
         25   -1    0    0    0    0  0.00000000000E+00  0.00000000000E+00  0.99999998245E-14  0.12509000000E+03  0.12509000000E+03 0.  0.
        -13    1    3    3    0    0 -0.79245754692E+00 -0.31579232902E+02 -0.16767004117E+02  0.35763382540E+02  0.10566000000E+00 0. -1.
         23    2    1    0    0    0  0.17918869888E+02  0.23504559720E+02 -0.50846115746E+01  0.95099943306E+02  0.90247413903E+02 0.  0.
         13    1    3    3    0    0  0.18711327435E+02  0.55083792621E+02  0.11682392542E+02  0.59336560765E+02  0.10566000000E+00 0.  1.
         22    1    1    0    0    0 -0.17918869888E+02 -0.23504559720E+02  0.50846115746E+01  0.29990056694E+02  0.00000000000E+00 0.  1.
</event>
<event>
 5    1  0.1262391E-009  0.9118800E+02  0.7815553E-02  0.1125453E+00
         25   -1    0    0    0    0  0.00000000000E+00  0.00000000000E+00  0.99999998245E-14  0.12509000000E+03  0.12509000000E+03 0.  0.
        -13    1    3    3    0    0  0.22967950541E+02 -0.24280517676E+02  0.15200918715E+00  0.33423114180E+02  0.10566000000E+00 0. -1.
         23    2    1    0    0    0 -0.95306453133E+01  0.27673110329E+02 -0.66360007256E+01  0.95078823065E+02  0.90218134842E+02 0.  0.
         13    1    3    3    0    0 -0.32498595854E+02  0.51953628006E+02 -0.67880099128E+01  0.61655708885E+02  0.10566000000E+00 0.  1.
         22    1    1    0    0    0  0.95306453133E+01 -0.27673110329E+02  0.66360007256E+01  0.30011176935E+02  0.00000000000E+00 0.  1.
</event>
<event>
 5    1  0.1262391E-009  0.9118800E+02  0.7815553E-02  0.1125453E+00
         25   -1    0    0    0    0  0.00000000000E+00  0.00000000000E+00  0.99999998245E-14  0.12509000000E+03  0.12509000000E+03 0.  0.
        -13    1    3    3    0    0 -0.49615818319E+02 -0.23869757347E+02  0.26034642436E+02  0.60904092753E+02  0.10566000000E+00 0.  1.
         23    2    1    0    0    0 -0.19573801545E+02 -0.17037509280E+02  0.38813485768E+01  0.98851187219E+02  0.95305204047E+02 0.  0.
         13    1    3    3    0    0  0.30042016774E+02  0.68322480669E+01 -0.22153293859E+02  0.37947094465E+02  0.10566000000E+00 0. -1.
         22    1    1    0    0    0  0.19573801545E+02  0.17037509280E+02 -0.38813485768E+01  0.26238812781E+02  0.00000000000E+00 0.  1.
</event>
<event>
 5    1  0.1262391E-009  0.9118800E+02  0.7815553E-02  0.1125453E+00
         25   -1    0    0    0    0  0.00000000000E+00  0.00000000000E+00  0.99999998245E-14  0.12509000000E+03  0.12509000000E+03 0.  0.
        -13    1    3    3    0    0  0.14684977268E+02 -0.13559974391E+02  0.47099079698E+02  0.51164987396E+02  0.10566000000E+00 0.  1.
         23    2    1    0    0    0  0.46728846629E+01  0.20612371875E+02  0.20831362216E+02  0.95414229123E+02  0.90681992380E+02 0.  0.
         13    1    3    3    0    0 -0.10012092605E+02  0.34172346266E+02 -0.26267717481E+02  0.44249241726E+02  0.10566000000E+00 0. -1.
         22    1    1    0    0    0 -0.46728846629E+01 -0.20612371875E+02 -0.20831362216E+02  0.29675770877E+02  0.00000000000E+00 0.  1.
</event>
<event>
 5    1  0.1262391E-009  0.9118800E+02  0.7815553E-02  0.1125453E+00
         25   -1    0    0    0    0  0.00000000000E+00  0.00000000000E+00  0.99999998245E-14  0.12509000000E+03  0.12509000000E+03 0.  0.
        -13    1    3    3    0    0  0.45264826468E+01  0.16064748464E+02 -0.25237434688E+02  0.30257304276E+02  0.10566000000E+00 0. -1.
         23    2    1    0    0    0  0.30518644054E+02 -0.16379608906E+02  0.14290006747E+02  0.87621566410E+02  0.79206409997E+02 0.  0.
         13    1    3    3    0    0  0.25992161408E+02 -0.32444357370E+02  0.39527441435E+02  0.57364262135E+02  0.10566000000E+00 0.  1.
         22    1    1    0    0    0 -0.30518644054E+02  0.16379608906E+02 -0.14290006747E+02  0.37468433590E+02  0.00000000000E+00 0.  1.
</event>
<event>
 5    1  0.1262391E-009  0.9118800E+02  0.7815553E-02  0.1125453E+00
         25   -1    0    0    0    0  0.00000000000E+00  0.00000000000E+00  0.99999998245E-14  0.12509000000E+03  0.12509000000E+03 0.  0.
        -13    1    3    3    0    0 -0.34007098567E+02 -0.42095289569E+02  0.13882015479E+02  0.55867859048E+02  0.10566000000E+00 0. -1.
         23    2    1    0    0    0 -0.13473570392E+02 -0.19008889318E+02 -0.14354231364E+02  0.97723616785E+02  0.93813572297E+02 0.  0.
         13    1    3    3    0    0  0.20533528175E+02  0.23086400251E+02 -0.28236246843E+02  0.41855757736E+02  0.10566000000E+00 0.  1.
         22    1    1    0    0    0  0.13473570392E+02  0.19008889318E+02  0.14354231364E+02  0.27366383215E+02  0.00000000000E+00 0. -1.
</event>
<event>
 5    1  0.1262391E-009  0.9118800E+02  0.7815553E-02  0.1125453E+00
         25   -1    0    0    0    0  0.00000000000E+00  0.00000000000E+00  0.99999998245E-14  0.12509000000E+03  0.12509000000E+03 0.  0.
        -13    1    3    3    0    0  0.73594568583E+01  0.52486870043E+02 -0.16590311221E+02  0.55536318951E+02  0.10566000000E+00 0.  1.
         23    2    1    0    0    0 -0.16528501413E+02  0.16759682273E+02 -0.11737325251E+02  0.98787089269E+02  0.95221037032E+02 0.  0.
         13    1    3    3    0    0 -0.23887958271E+02 -0.35727187770E+02  0.48529859707E+01  0.43250770319E+02  0.10566000000E+00 0. -1.
         22    1    1    0    0    0  0.16528501413E+02 -0.16759682273E+02  0.11737325251E+02  0.26302910731E+02  0.00000000000E+00 0.  1.
</event>
<event>
 5    1  0.1262391E-009  0.9118800E+02  0.7815553E-02  0.1125453E+00
         25   -1    0    0    0    0  0.00000000000E+00  0.00000000000E+00  0.99999998245E-14  0.12509000000E+03  0.12509000000E+03 0.  0.
        -13    1    3    3    0    0  0.72047906039E+01  0.30860829857E+02 -0.49935013412E+02  0.59142341479E+02  0.10566000000E+00 0. -1.
         23    2    1    0    0    0  0.93365595145E+01  0.20887563512E+02 -0.10424931996E+02  0.99947588418E+02  0.96733549353E+02 0.  0.
         13    1    3    3    0    0  0.21317689106E+01 -0.99732663444E+01  0.39510081416E+02  0.40805246939E+02  0.10566000000E+00 0.  1.
         22    1    1    0    0    0 -0.93365595145E+01 -0.20887563512E+02  0.10424931996E+02  0.25142411582E+02  0.00000000000E+00 0. -1.
</event>
<event>
 5    1  0.1262391E-009  0.9118800E+02  0.7815553E-02  0.1125453E+00
         25   -1    0    0    0    0  0.00000000000E+00  0.00000000000E+00  0.99999998245E-14  0.12509000000E+03  0.12509000000E+03 0.  0.
        -13    1    3    3    0    0  0.28040330191E+01 -0.94001938111E+01  0.46055341879E+02  0.47088554071E+02  0.10566000000E+00 0.  1.
         23    2    1    0    0    0 -0.16135447588E+02  0.20812573433E+02  0.12958105751E+02  0.95739899720E+02  0.91130126808E+02 0.  0.
         13    1    3    3    0    0 -0.18939480607E+02  0.30212767244E+02 -0.33097236127E+02  0.48651345650E+02  0.10566000000E+00 0. -1.
         22    1    1    0    0    0  0.16135447588E+02 -0.20812573433E+02 -0.12958105751E+02  0.29350100280E+02  0.00000000000E+00 0. -1.
</event>
<event>
 5    1  0.1262391E-009  0.9118800E+02  0.7815553E-02  0.1125453E+00
         25   -1    0    0    0    0  0.00000000000E+00  0.00000000000E+00  0.99999998245E-14  0.12509000000E+03  0.12509000000E+03 0.  0.
        -13    1    3    3    0    0 -0.13397467793E+02 -0.71100451782E+00 -0.58053157506E+02  0.59583369585E+02  0.10566000000E+00 0.  1.
         23    2    1    0    0    0  0.39346588778E+01  0.86836358045E+01 -0.27868858309E+02  0.95635622826E+02  0.90986878278E+02 0.  0.
         13    1    3    3    0    0  0.17332126670E+02  0.93946403223E+01  0.30184299197E+02  0.36052253241E+02  0.10566000000E+00 0. -1.
         22    1    1    0    0    0 -0.39346588778E+01 -0.86836358045E+01  0.27868858309E+02  0.29454377174E+02  0.00000000000E+00 0.  1.
</event>
<event>
 5    1  0.1262391E-009  0.9118800E+02  0.7815553E-02  0.1125453E+00
         25   -1    0    0    0    0  0.00000000000E+00  0.00000000000E+00  0.99999998245E-14  0.12509000000E+03  0.12509000000E+03 0.  0.
        -13    1    3    3    0    0 -0.15439478175E+02 -0.10666842011E+02  0.28130199531E+02  0.33815355898E+02  0.10566000000E+00 0. -1.
         23    2    1    0    0    0  0.19390013830E+02  0.14762074635E+02 -0.16330236563E+02  0.95754558806E+02  0.91150246418E+02 0.  0.
         13    1    3    3    0    0  0.34829492005E+02  0.25428916646E+02 -0.44460436094E+02  0.61939202908E+02  0.10566000000E+00 0.  1.
         22    1    1    0    0    0 -0.19390013830E+02 -0.14762074635E+02  0.16330236563E+02  0.29335441194E+02  0.00000000000E+00 0.  1.
</event>
<event>
 5    1  0.1262391E-009  0.9118800E+02  0.7815553E-02  0.1125453E+00
         25   -1    0    0    0    0  0.00000000000E+00  0.00000000000E+00  0.99999998245E-14  0.12509000000E+03  0.12509000000E+03 0.  0.
        -13    1    3    3    0    0 -0.48319940270E+02 -0.43233460735E+01  0.89934183954E+01  0.49339646203E+02  0.10566000000E+00 0.  1.
         23    2    1    0    0    0 -0.16009909332E+02  0.26245715105E+01 -0.24053658333E+02  0.96076485017E+02  0.91590976202E+02 0.  0.
         13    1    3    3    0    0  0.32310030938E+02  0.69479175840E+01 -0.33047076729E+02  0.46736838814E+02  0.10566000000E+00 0. -1.
         22    1    1    0    0    0  0.16009909332E+02 -0.26245715105E+01  0.24053658333E+02  0.29013514983E+02  0.00000000000E+00 0.  1.
</event>
<event>
 5    1  0.1262391E-009  0.9118800E+02  0.7815553E-02  0.1125453E+00
         25   -1    0    0    0    0  0.00000000000E+00  0.00000000000E+00  0.99999998245E-14  0.12509000000E+03  0.12509000000E+03 0.  0.
        -13    1    3    3    0    0 -0.35596658695E+02 -0.29716045479E+02  0.17977902750E+02  0.49733103869E+02  0.10566000000E+00 0.  1.
         23    2    1    0    0    0 -0.28696797172E+02  0.41770211858E+01 -0.10202874542E+02  0.94348296683E+02  0.89199488587E+02 0.  0.
         13    1    3    3    0    0  0.68998615232E+01  0.33893066664E+02 -0.28180777292E+02  0.44615192814E+02  0.10566000000E+00 0. -1.
         22    1    1    0    0    0  0.28696797172E+02 -0.41770211858E+01  0.10202874542E+02  0.30741703317E+02  0.00000000000E+00 0. -1.
</event>
<event>
 5    1  0.1262391E-009  0.9118800E+02  0.7815553E-02  0.1125453E+00
         25   -1    0    0    0    0  0.00000000000E+00  0.00000000000E+00  0.99999998245E-14  0.12509000000E+03  0.12509000000E+03 0.  0.
        -13    1    3    3    0    0  0.18454490964E+02 -0.11200145710E+02 -0.30876401202E+02  0.37674591118E+02  0.10566000000E+00 0.  1.
         23    2    1    0    0    0  0.60542381519E+01  0.28846806542E+02  0.76786410343E+01  0.94630952487E+02  0.89594997590E+02 0.  0.
         13    1    3    3    0    0 -0.12400252812E+02  0.40046952252E+02  0.38555042237E+02  0.56956361369E+02  0.10566000000E+00 0. -1.
         22    1    1    0    0    0 -0.60542381519E+01 -0.28846806542E+02 -0.76786410343E+01  0.30459047513E+02  0.00000000000E+00 0. -1.
</event>
<event>
 5    1  0.1262391E-009  0.9118800E+02  0.7815553E-02  0.1125453E+00
         25   -1    0    0    0    0  0.00000000000E+00  0.00000000000E+00  0.99999998245E-14  0.12509000000E+03  0.12509000000E+03 0.  0.
        -13    1    3    3    0    0  0.16726145672E+02 -0.36687346917E+01 -0.30538880734E+02  0.35012254481E+02  0.10566000000E+00 0. -1.
         23    2    1    0    0    0 -0.16103302827E+02 -0.12253084881E+02  0.20489207431E+02  0.96293089190E+02  0.91886326260E+02 0.  0.
         13    1    3    3    0    0 -0.32829448499E+02 -0.85843501890E+01  0.51028088165E+02  0.61280834710E+02  0.10566000000E+00 0.  1.
         22    1    1    0    0    0  0.16103302827E+02  0.12253084881E+02 -0.20489207431E+02  0.28796910810E+02  0.00000000000E+00 0.  1.
</event>
<event>
 5    1  0.1262391E-009  0.9118800E+02  0.7815553E-02  0.1125453E+00
         25   -1    0    0    0    0  0.00000000000E+00  0.00000000000E+00  0.99999998245E-14  0.12509000000E+03  0.12509000000E+03 0.  0.
        -13    1    3    3    0    0  0.20469130880E+02 -0.12385449669E+02 -0.30652769482E+02  0.38884291474E+02  0.10566000000E+00 0.  1.
         23    2    1    0    0    0  0.18175713459E+02  0.68653690475E+01  0.22440939141E+02  0.95406913883E+02  0.90671900914E+02 0.  0.
         13    1    3    3    0    0 -0.22934174216E+01  0.19250818716E+02  0.53093708623E+02  0.56522622410E+02  0.10566000000E+00 0. -1.
         22    1    1    0    0    0 -0.18175713459E+02 -0.68653690475E+01 -0.22440939141E+02  0.29683086117E+02  0.00000000000E+00 0. -1.
</event>
<event>
 5    1  0.1262391E-009  0.9118800E+02  0.7815553E-02  0.1125453E+00
         25   -1    0    0    0    0  0.00000000000E+00  0.00000000000E+00  0.99999998245E-14  0.12509000000E+03  0.12509000000E+03 0.  0.
        -13    1    3    3    0    0  0.58960886777E+00 -0.37190573374E+02 -0.10544508275E+02  0.38661145938E+02  0.10566000000E+00 0.  1.
         23    2    1    0    0    0 -0.71340009416E+01  0.67884467974E+01  0.26588816670E+02  0.96736126345E+02  0.92487490986E+02 0.  0.
         13    1    3    3    0    0 -0.77236098094E+01  0.43979020171E+02  0.37133324945E+02  0.58074980406E+02  0.10566000000E+00 0. -1.
         22    1    1    0    0    0  0.71340009416E+01 -0.67884467974E+01 -0.26588816670E+02  0.28353873655E+02  0.00000000000E+00 0.  1.
</event>
<event>
 5    1  0.1262391E-009  0.9118800E+02  0.7815553E-02  0.1125453E+00
         25   -1    0    0    0    0  0.00000000000E+00  0.00000000000E+00  0.99999998245E-14  0.12509000000E+03  0.12509000000E+03 0.  0.
        -13    1    3    3    0    0 -0.23599886995E+02  0.17104833152E+02 -0.29643745696E+02  0.41572741144E+02  0.10566000000E+00 0. -1.
         23    2    1    0    0    0 -0.21858015000E+02 -0.18682930343E+02  0.96589777843E+01  0.94756510953E+02  0.89770127605E+02 0.  0.
         13    1    3    3    0    0  0.17418719948E+01 -0.35787763495E+02  0.39302723481E+02  0.53183769808E+02  0.10566000000E+00 0.  1.
         22    1    1    0    0    0  0.21858015000E+02  0.18682930343E+02 -0.96589777843E+01  0.30333489047E+02  0.00000000000E+00 0.  1.
</event>
<event>
 5    1  0.1262391E-009  0.9118800E+02  0.7815553E-02  0.1125453E+00
         25   -1    0    0    0    0  0.00000000000E+00  0.00000000000E+00  0.99999998245E-14  0.12509000000E+03  0.12509000000E+03 0.  0.
        -13    1    3    3    0    0 -0.10028851009E+02  0.16443331110E+02  0.37871457296E+02  0.42487873945E+02  0.10566000000E+00 0.  1.
         23    2    1    0    0    0  0.65753159999E+01  0.28211484628E+02 -0.99510269459E+01  0.94460837709E+02  0.89357172504E+02 0.  0.
         13    1    3    3    0    0  0.16604167009E+02  0.11768153518E+02 -0.47822484242E+02  0.51972963764E+02  0.10566000000E+00 0. -1.
         22    1    1    0    0    0 -0.65753159999E+01 -0.28211484628E+02  0.99510269459E+01  0.30629162291E+02  0.00000000000E+00 0. -1.
</event>
<event>
 5    1  0.1262391E-009  0.9118800E+02  0.7815553E-02  0.1125453E+00
         25   -1    0    0    0    0  0.00000000000E+00  0.00000000000E+00  0.99999998245E-14  0.12509000000E+03  0.12509000000E+03 0.  0.
        -13    1    3    3    0    0  0.24606814470E+02  0.53872999794E+02  0.16620730989E+02  0.61514675386E+02  0.10566000000E+00 0. -1.
         23    2    1    0    0    0  0.98953837378E+00  0.19948780185E+02  0.41555118143E+01  0.10468898788E+03  0.10268195016E+03 0.  0.
         13    1    3    3    0    0 -0.23617276096E+02 -0.33924219608E+02 -0.12465219175E+02  0.43174312494E+02  0.10566000000E+00 0.  1.
         22    1    1    0    0    0 -0.98953837378E+00 -0.19948780185E+02 -0.41555118143E+01  0.20401012120E+02  0.00000000000E+00 0. -1.
</event>
<event>
 5    1  0.1262391E-009  0.9118800E+02  0.7815553E-02  0.1125453E+00
         25   -1    0    0    0    0  0.00000000000E+00  0.00000000000E+00  0.99999998245E-14  0.12509000000E+03  0.12509000000E+03 0.  0.
        -13    1    3    3    0    0  0.21330598132E+02  0.13196593580E+02  0.47478171153E+02  0.53696670277E+02  0.10566000000E+00 0. -1.
         23    2    1    0    0    0 -0.10258342880E+02  0.18551318070E+02  0.17008562294E+02  0.97911401948E+02  0.94063629737E+02 0.  0.
         13    1    3    3    0    0 -0.31588941012E+02  0.53547244899E+01 -0.30469608859E+02  0.44214731671E+02  0.10566000000E+00 0.  1.
         22    1    1    0    0    0  0.10258342880E+02 -0.18551318070E+02 -0.17008562294E+02  0.27178598052E+02  0.00000000000E+00 0. -1.
</event>
<event>
 5    1  0.1262391E-009  0.9118800E+02  0.7815553E-02  0.1125453E+00
         25   -1    0    0    0    0  0.00000000000E+00  0.00000000000E+00  0.99999998245E-14  0.12509000000E+03  0.12509000000E+03 0.  0.
        -13    1    3    3    0    0  0.19766623031E+02 -0.18534121509E+02  0.33019262069E+02  0.42714352129E+02  0.10566000000E+00 0.  1.
         23    2    1    0    0    0  0.20061258930E+02 -0.10757732950E+02 -0.19077518312E+02  0.95389248612E+02  0.90647526815E+02 0.  0.
         13    1    3    3    0    0  0.29463589886E+00  0.77763885591E+01 -0.52096780382E+02  0.52674896483E+02  0.10566000000E+00 0. -1.
         22    1    1    0    0    0 -0.20061258930E+02  0.10757732950E+02  0.19077518312E+02  0.29700751388E+02  0.00000000000E+00 0. -1.
</event>
<event>
 5    1  0.1262391E-009  0.9118800E+02  0.7815553E-02  0.1125453E+00
         25   -1    0    0    0    0  0.00000000000E+00  0.00000000000E+00  0.99999998245E-14  0.12509000000E+03  0.12509000000E+03 0.  0.
        -13    1    3    3    0    0  0.76706291930E+01 -0.52670414620E+02  0.10311611136E+02  0.54215787523E+02  0.10566000000E+00 0.  1.
         23    2    1    0    0    0  0.47133812480E+01 -0.23244774106E+02 -0.18122010298E+02  0.95241335989E+02  0.90443182925E+02 0.  0.
         13    1    3    3    0    0 -0.29572479450E+01  0.29425640514E+02 -0.28433621434E+02  0.41025548466E+02  0.10566000000E+00 0. -1.
         22    1    1    0    0    0 -0.47133812480E+01  0.23244774106E+02  0.18122010298E+02  0.29848664011E+02  0.00000000000E+00 0.  1.
</event>
<event>
 5    1  0.1262391E-009  0.9118800E+02  0.7815553E-02  0.1125453E+00
         25   -1    0    0    0    0  0.00000000000E+00  0.00000000000E+00  0.99999998245E-14  0.12509000000E+03  0.12509000000E+03 0.  0.
        -13    1    3    3    0    0  0.33626114015E+01  0.24842426690E+01 -0.58468425971E+02  0.58617801193E+02  0.10566000000E+00 0. -1.
         23    2    1    0    0    0  0.10569998375E+02  0.13553400760E+02 -0.23678815462E+02  0.95830713619E+02  0.91254697595E+02 0.  0.
         13    1    3    3    0    0  0.72073869734E+01  0.11069158091E+02  0.34789610509E+02  0.37212912426E+02  0.10566000000E+00 0.  1.
         22    1    1    0    0    0 -0.10569998375E+02 -0.13553400760E+02  0.23678815462E+02  0.29259286381E+02  0.00000000000E+00 0. -1.
</event>
<event>
 5    1  0.1262391E-009  0.9118800E+02  0.7815553E-02  0.1125453E+00
         25   -1    0    0    0    0  0.00000000000E+00  0.00000000000E+00  0.99999998245E-14  0.12509000000E+03  0.12509000000E+03 0.  0.
        -13    1    3    3    0    0 -0.80373940809E+01 -0.36555246442E+02 -0.49417754134E+02  0.61992026372E+02  0.10566000000E+00 0. -1.
         23    2    1    0    0    0  0.21472026532E+01 -0.16790372277E+02 -0.23254698146E+02  0.96327036553E+02  0.91932529089E+02 0.  0.
         13    1    3    3    0    0  0.10184596734E+02  0.19764874165E+02  0.26163055988E+02  0.34335010180E+02  0.10566000000E+00 0.  1.
         22    1    1    0    0    0 -0.21472026532E+01  0.16790372277E+02  0.23254698146E+02  0.28762963447E+02  0.00000000000E+00 0. -1.
</event>
<event>
 5    1  0.1262391E-009  0.9118800E+02  0.7815553E-02  0.1125453E+00
         25   -1    0    0    0    0  0.00000000000E+00  0.00000000000E+00  0.99999998245E-14  0.12509000000E+03  0.12509000000E+03 0.  0.
        -13    1    3    3    0    0 -0.17548858159E+02 -0.55329977449E+02 -0.21162834406E+02  0.61783861576E+02  0.10566000000E+00 0. -1.
         23    2    1    0    0    0 -0.14842745204E+02 -0.24622633159E+02 -0.85039334953E+01  0.95108371729E+02  0.90259095604E+02 0.  0.
         13    1    3    3    0    0  0.27061129552E+01  0.30707344290E+02  0.12658900910E+02  0.33324510153E+02  0.10566000000E+00 0.  1.
         22    1    1    0    0    0  0.14842745204E+02  0.24622633159E+02  0.85039334953E+01  0.29981628271E+02  0.00000000000E+00 0. -1.
</event>
<event>
 5    1  0.1262391E-009  0.9118800E+02  0.7815553E-02  0.1125453E+00
         25   -1    0    0    0    0  0.00000000000E+00  0.00000000000E+00  0.99999998245E-14  0.12509000000E+03  0.12509000000E+03 0.  0.
        -13    1    3    3    0    0  0.27616607854E+02 -0.20697582229E+02  0.15115612268E+02  0.37677046564E+02  0.10566000000E+00 0.  1.
         23    2    1    0    0    0 -0.26447507198E+02  0.11486671125E+01  0.11868971146E+02  0.96078578987E+02  0.91593835988E+02 0.  0.
         13    1    3    3    0    0 -0.54064115053E+02  0.21846249342E+02 -0.32466411218E+01  0.58401532423E+02  0.10566000000E+00 0. -1.
         22    1    1    0    0    0  0.26447507198E+02 -0.11486671125E+01 -0.11868971146E+02  0.29011421013E+02  0.00000000000E+00 0. -1.
</event>
<event>
 5    1  0.1262391E-009  0.9118800E+02  0.7815553E-02  0.1125453E+00
         25   -1    0    0    0    0  0.00000000000E+00  0.00000000000E+00  0.99999998245E-14  0.12509000000E+03  0.12509000000E+03 0.  0.
        -13    1    3    3    0    0  0.22996642642E+02  0.83818004443E+01  0.77188309396E+01  0.25664989121E+02  0.10566000000E+00 0.  1.
         23    2    1    0    0    0 -0.25560060498E+02 -0.25681747158E+02  0.15865235538E+02  0.85535297012E+02  0.75840045534E+02 0.  0.
         13    1    3    3    0    0 -0.48556703140E+02 -0.34063547602E+02  0.81464045985E+01  0.59870307891E+02  0.10566000000E+00 0. -1.
         22    1    1    0    0    0  0.25560060498E+02  0.25681747158E+02 -0.15865235538E+02  0.39554702988E+02  0.00000000000E+00 0. -1.
</event>
<event>
 5    1  0.1262391E-009  0.9118800E+02  0.7815553E-02  0.1125453E+00
         25   -1    0    0    0    0  0.00000000000E+00  0.00000000000E+00  0.99999998245E-14  0.12509000000E+03  0.12509000000E+03 0.  0.
        -13    1    3    3    0    0  0.24604258385E+02  0.46683380020E+02 -0.13955473350E+01  0.52788883462E+02  0.10566000000E+00 0.  1.
         23    2    1    0    0    0  0.10483129556E+02  0.16252718796E+02  0.23565763396E+02  0.94604067539E+02  0.89557453721E+02 0.  0.
         13    1    3    3    0    0 -0.14121128829E+02 -0.30430661224E+02  0.24961310732E+02  0.41815184077E+02  0.10566000000E+00 0. -1.
         22    1    1    0    0    0 -0.10483129556E+02 -0.16252718796E+02 -0.23565763396E+02  0.30485932461E+02  0.00000000000E+00 0.  1.
</event>
<event>
 5    1  0.1262391E-009  0.9118800E+02  0.7815553E-02  0.1125453E+00
         25   -1    0    0    0    0  0.00000000000E+00  0.00000000000E+00  0.99999998245E-14  0.12509000000E+03  0.12509000000E+03 0.  0.
        -13    1    3    3    0    0 -0.35701076005E+02  0.47452661532E+02 -0.85418736491E+01  0.59994138746E+02  0.10566000000E+00 0.  1.
         23    2    1    0    0    0 -0.10366915118E+02  0.25298727731E+02  0.67020561374E+01  0.96940113493E+02  0.92762974800E+02 0.  0.
         13    1    3    3    0    0  0.25334160887E+02 -0.22153933801E+02  0.15243929786E+02  0.36945974748E+02  0.10566000000E+00 0. -1.
         22    1    1    0    0    0  0.10366915118E+02 -0.25298727731E+02 -0.67020561374E+01  0.28149886507E+02  0.00000000000E+00 0.  1.
</event>
<event>
 5    1  0.1262391E-009  0.9118800E+02  0.7815553E-02  0.1125453E+00
         25   -1    0    0    0    0  0.00000000000E+00  0.00000000000E+00  0.99999998245E-14  0.12509000000E+03  0.12509000000E+03 0.  0.
        -13    1    3    3    0    0  0.46501024542E+02 -0.30099204173E+02  0.79670052960E+01  0.55962413393E+02  0.10566000000E+00 0. -1.
         23    2    1    0    0    0  0.23162461161E+02  0.35937707573E+00  0.18148261420E+02  0.95662323376E+02  0.91023579155E+02 0.  0.
         13    1    3    3    0    0 -0.23338563381E+02  0.30458581249E+02  0.10181256124E+02  0.39699909983E+02  0.10566000000E+00 0.  1.
         22    1    1    0    0    0 -0.23162461161E+02 -0.35937707573E+00 -0.18148261420E+02  0.29427676624E+02  0.00000000000E+00 0. -1.
</event>
<event>
 5    1  0.1262391E-009  0.9118800E+02  0.7815553E-02  0.1125453E+00
         25   -1    0    0    0    0  0.00000000000E+00  0.00000000000E+00  0.99999998245E-14  0.12509000000E+03  0.12509000000E+03 0.  0.
        -13    1    3    3    0    0  0.16981434237E+02  0.36664970210E+01 -0.28898986249E+02  0.33719058104E+02  0.10566000000E+00 0. -1.
         23    2    1    0    0    0 -0.12250506992E+02 -0.71261409024E+01  0.25215825267E+02  0.96164325425E+02  0.91710865414E+02 0.  0.
         13    1    3    3    0    0 -0.29231941229E+02 -0.10792637923E+02  0.54114811516E+02  0.62445267321E+02  0.10566000000E+00 0.  1.
         22    1    1    0    0    0  0.12250506992E+02  0.71261409024E+01 -0.25215825267E+02  0.28925674575E+02  0.00000000000E+00 0.  1.
</event>
<event>
 5    1  0.1262391E-009  0.9118800E+02  0.7815553E-02  0.1125453E+00
         25   -1    0    0    0    0  0.00000000000E+00  0.00000000000E+00  0.99999998245E-14  0.12509000000E+03  0.12509000000E+03 0.  0.
        -13    1    3    3    0    0 -0.34200669682E+02  0.35930822684E+02  0.11883995364E+02  0.51009316162E+02  0.10566000000E+00 0. -1.
         23    2    1    0    0    0 -0.18274510369E+02 -0.60089774722E+01  0.20809892515E+02  0.96750678096E+02  0.92507170242E+02 0.  0.
         13    1    3    3    0    0  0.15926159313E+02 -0.41939800156E+02  0.89258971511E+01  0.45741361934E+02  0.10566000000E+00 0.  1.
         22    1    1    0    0    0  0.18274510369E+02  0.60089774722E+01 -0.20809892515E+02  0.28339321904E+02  0.00000000000E+00 0.  1.
</event>
<event>
 5    1  0.1262391E-009  0.9118800E+02  0.7815553E-02  0.1125453E+00
         25   -1    0    0    0    0  0.00000000000E+00  0.00000000000E+00  0.99999998245E-14  0.12509000000E+03  0.12509000000E+03 0.  0.
        -13    1    3    3    0    0 -0.16402980827E+02 -0.26903420052E+02  0.16522358460E+02  0.35578803853E+02  0.10566000000E+00 0.  1.
         23    2    1    0    0    0  0.12051832134E+01  0.29109349411E+02  0.77197699334E+01  0.94950299645E+02  0.90039757136E+02 0.  0.
         13    1    3    3    0    0  0.17608164041E+02  0.56012769462E+02 -0.88025885261E+01  0.59371495792E+02  0.10566000000E+00 0. -1.
         22    1    1    0    0    0 -0.12051832134E+01 -0.29109349411E+02 -0.77197699334E+01  0.30139700355E+02  0.00000000000E+00 0. -1.
</event>
<event>
 5    1  0.1262391E-009  0.9118800E+02  0.7815553E-02  0.1125453E+00
         25   -1    0    0    0    0  0.00000000000E+00  0.00000000000E+00  0.99999998245E-14  0.12509000000E+03  0.12509000000E+03 0.  0.
        -13    1    3    3    0    0  0.34141654365E+02 -0.17734602989E+02 -0.27813510286E+02  0.47473900455E+02  0.10566000000E+00 0.  1.
         23    2    1    0    0    0  0.17828396722E+02 -0.55363348814E+01  0.18954803810E+02  0.98485727390E+02  0.94824317443E+02 0.  0.
         13    1    3    3    0    0 -0.16313257643E+02  0.12198268108E+02  0.46768314097E+02  0.51011826935E+02  0.10566000000E+00 0. -1.
         22    1    1    0    0    0 -0.17828396722E+02  0.55363348814E+01 -0.18954803810E+02  0.26604272610E+02  0.00000000000E+00 0. -1.
</event>
<event>
 5    1  0.1262391E-009  0.9118800E+02  0.7815553E-02  0.1125453E+00
         25   -1    0    0    0    0  0.00000000000E+00  0.00000000000E+00  0.99999998245E-14  0.12509000000E+03  0.12509000000E+03 0.  0.
        -13    1    3    3    0    0  0.11040216976E+02 -0.24889017918E+01  0.54080298906E+02  0.55251886093E+02  0.10566000000E+00 0.  1.
         23    2    1    0    0    0  0.21830229421E+02 -0.10921422804E+02  0.15538956337E+02  0.96153940201E+02  0.91696699284E+02 0.  0.
         13    1    3    3    0    0  0.10790012445E+02 -0.84325210122E+01 -0.38541342570E+02  0.40902054108E+02  0.10566000000E+00 0. -1.
         22    1    1    0    0    0 -0.21830229421E+02  0.10921422804E+02 -0.15538956337E+02  0.28936059799E+02  0.00000000000E+00 0.  1.
</event>
<event>
 5    1  0.1262391E-009  0.9118800E+02  0.7815553E-02  0.1125453E+00
         25   -1    0    0    0    0  0.00000000000E+00  0.00000000000E+00  0.99999998245E-14  0.12509000000E+03  0.12509000000E+03 0.  0.
        -13    1    3    3    0    0  0.22206087801E+02 -0.86807118568E+01  0.22937593909E+02  0.33084882834E+02  0.10566000000E+00 0. -1.
         23    2    1    0    0    0 -0.11976667969E+02 -0.16218663144E+02 -0.25334121776E+02  0.92712487186E+02  0.86875209032E+02 0.  0.
         13    1    3    3    0    0 -0.34182755770E+02 -0.75379512873E+01 -0.48271715685E+02  0.59627604353E+02  0.10566000000E+00 0.  1.
         22    1    1    0    0    0  0.11976667969E+02  0.16218663144E+02  0.25334121776E+02  0.32377512814E+02  0.00000000000E+00 0.  1.
</event>
<event>
 5    1  0.1262391E-009  0.9118800E+02  0.7815553E-02  0.1125453E+00
         25   -1    0    0    0    0  0.00000000000E+00  0.00000000000E+00  0.99999998245E-14  0.12509000000E+03  0.12509000000E+03 0.  0.
        -13    1    3    3    0    0 -0.34999374539E+02  0.94153570111E+01  0.32319255636E+01  0.36387658246E+02  0.10566000000E+00 0. -1.
         23    2    1    0    0    0  0.24282788552E+02 -0.31234344071E+01 -0.10389994020E+02  0.98493728868E+02  0.94834872216E+02 0.  0.
         13    1    3    3    0    0  0.59282163091E+02 -0.12538791418E+02 -0.13621919584E+02  0.62106070622E+02  0.10566000000E+00 0.  1.
         22    1    1    0    0    0 -0.24282788552E+02  0.31234344071E+01  0.10389994020E+02  0.26596271132E+02  0.00000000000E+00 0.  1.
</event>
<event>
 5    1  0.1262391E-009  0.9118800E+02  0.7815553E-02  0.1125453E+00
         25   -1    0    0    0    0  0.00000000000E+00  0.00000000000E+00  0.99999998245E-14  0.12509000000E+03  0.12509000000E+03 0.  0.
        -13    1    3    3    0    0  0.44983615889E+01  0.44491814970E+02 -0.24988699844E+02  0.51226976685E+02  0.10566000000E+00 0. -1.
         23    2    1    0    0    0  0.17200231115E+02  0.38740666421E+02  0.31033738463E+01  0.82589198662E+02  0.70814247304E+02 0.  0.
         13    1    3    3    0    0  0.12701869526E+02 -0.57511485493E+01  0.28092073691E+02  0.31362221978E+02  0.10566000000E+00 0.  1.
         22    1    1    0    0    0 -0.17200231115E+02 -0.38740666421E+02 -0.31033738463E+01  0.42500801338E+02  0.00000000000E+00 0. -1.
</event>
<event>
 5    1  0.1262391E-009  0.9118800E+02  0.7815553E-02  0.1125453E+00
         25   -1    0    0    0    0  0.00000000000E+00  0.00000000000E+00  0.99999998245E-14  0.12509000000E+03  0.12509000000E+03 0.  0.
        -13    1    3    3    0    0  0.43954110920E+02 -0.21617133585E+02  0.16436676863E+02  0.51666622122E+02  0.10566000000E+00 0. -1.
         23    2    1    0    0    0  0.24395214321E+02  0.10733804649E+02 -0.86871764262E+01  0.97057731482E+02  0.92921446191E+02 0.  0.
         13    1    3    3    0    0 -0.19558896599E+02  0.32350938234E+02 -0.25123853289E+02  0.45391109360E+02  0.10566000000E+00 0.  1.
         22    1    1    0    0    0 -0.24395214321E+02 -0.10733804649E+02  0.86871764262E+01  0.28032268518E+02  0.00000000000E+00 0. -1.
</event>
<event>
 5    1  0.1262391E-009  0.9118800E+02  0.7815553E-02  0.1125453E+00
         25   -1    0    0    0    0  0.00000000000E+00  0.00000000000E+00  0.99999998245E-14  0.12509000000E+03  0.12509000000E+03 0.  0.
        -13    1    3    3    0    0 -0.37561375662E+02  0.10140392686E+02  0.22768957804E+02  0.45079053994E+02  0.10566000000E+00 0. -1.
         23    2    1    0    0    0  0.80032173359E+01 -0.12275627131E+02  0.25223703049E+02  0.95918477847E+02  0.91374923737E+02 0.  0.
         13    1    3    3    0    0  0.45564592998E+02 -0.22416019817E+02  0.24547452452E+01  0.50839423854E+02  0.10566000000E+00 0.  1.
         22    1    1    0    0    0 -0.80032173359E+01  0.12275627131E+02 -0.25223703049E+02  0.29171522153E+02  0.00000000000E+00 0.  1.
</event>
<event>
 5    1  0.1262391E-009  0.9118800E+02  0.7815553E-02  0.1125453E+00
         25   -1    0    0    0    0  0.00000000000E+00  0.00000000000E+00  0.99999998245E-14  0.12509000000E+03  0.12509000000E+03 0.  0.
        -13    1    3    3    0    0 -0.16461168903E+02  0.34071773610E+02 -0.46356614564E+02  0.59839808794E+02  0.10566000000E+00 0. -1.
         23    2    1    0    0    0 -0.17822372262E+02  0.19371428883E+02 -0.14297736117E+02  0.95134792304E+02  0.90295704431E+02 0.  0.
         13    1    3    3    0    0 -0.13612033592E+01 -0.14700344727E+02  0.32058878447E+02  0.35294983510E+02  0.10566000000E+00 0.  1.
         22    1    1    0    0    0  0.17822372262E+02 -0.19371428883E+02  0.14297736117E+02  0.29955207696E+02  0.00000000000E+00 0. -1.
</event>
<event>
 5    1  0.1262391E-009  0.9118800E+02  0.7815553E-02  0.1125453E+00
         25   -1    0    0    0    0  0.00000000000E+00  0.00000000000E+00  0.99999998245E-14  0.12509000000E+03  0.12509000000E+03 0.  0.
        -13    1    3    3    0    0  0.28135133681E+02  0.26259119659E+02  0.43963595312E+02  0.58428896869E+02  0.10566000000E+00 0.  1.
         23    2    1    0    0    0  0.20512706374E+02  0.28617520558E+02  0.18090321308E+02  0.85504733414E+02  0.75789617398E+02 0.  0.
         13    1    3    3    0    0 -0.76224273067E+01  0.23584008998E+01 -0.25873274005E+02  0.27075836545E+02  0.10566000000E+00 0. -1.
         22    1    1    0    0    0 -0.20512706374E+02 -0.28617520558E+02 -0.18090321308E+02  0.39585266586E+02  0.00000000000E+00 0.  1.
</event>
<event>
 5    1  0.1262391E-009  0.9118800E+02  0.7815553E-02  0.1125453E+00
         25   -1    0    0    0    0  0.00000000000E+00  0.00000000000E+00  0.99999998245E-14  0.12509000000E+03  0.12509000000E+03 0.  0.
        -13    1    3    3    0    0  0.14766774973E+02 -0.11853229745E+02  0.17949966534E+02  0.26091553443E+02  0.10566000000E+00 0.  1.
         23    2    1    0    0    0 -0.18628332345E+02  0.35081390811E+02  0.86139545174E+01  0.84446194081E+02  0.74021893620E+02 0.  0.
         13    1    3    3    0    0 -0.33395107318E+02  0.46934620556E+02 -0.93360120165E+01  0.58354640637E+02  0.10566000000E+00 0. -1.
         22    1    1    0    0    0  0.18628332345E+02 -0.35081390811E+02 -0.86139545174E+01  0.40643805919E+02  0.00000000000E+00 0. -1.
</event>
<event>
 5    1  0.1262391E-009  0.9118800E+02  0.7815553E-02  0.1125453E+00
         25   -1    0    0    0    0  0.00000000000E+00  0.00000000000E+00  0.99999998245E-14  0.12509000000E+03  0.12509000000E+03 0.  0.
        -13    1    3    3    0    0 -0.34372870006E+02 -0.41957445111E+02 -0.13035262023E+02  0.55783963760E+02  0.10566000000E+00 0.  1.
         23    2    1    0    0    0 -0.26206818697E+01 -0.28215192566E+02  0.71833092775E+01  0.95857056303E+02  0.91290800445E+02 0.  0.
         13    1    3    3    0    0  0.31752188137E+02  0.13742252545E+02  0.20218571301E+02  0.40073092543E+02  0.10566000000E+00 0. -1.
         22    1    1    0    0    0  0.26206818697E+01  0.28215192566E+02 -0.71833092775E+01  0.29232943697E+02  0.00000000000E+00 0.  1.
</event>
<event>
 5    1  0.1262391E-009  0.9118800E+02  0.7815553E-02  0.1125453E+00
         25   -1    0    0    0    0  0.00000000000E+00  0.00000000000E+00  0.99999998245E-14  0.12509000000E+03  0.12509000000E+03 0.  0.
        -13    1    3    3    0    0 -0.31734948677E+02 -0.29306905706E+02  0.41398269607E+02  0.59831677063E+02  0.10566000000E+00 0.  1.
         23    2    1    0    0    0 -0.88891727340E+01 -0.23779631777E+02  0.13415556434E+02  0.96376493878E+02  0.91999799665E+02 0.  0.
         13    1    3    3    0    0  0.22845775943E+02  0.55272739286E+01 -0.27982713173E+02  0.36544816816E+02  0.10566000000E+00 0. -1.
         22    1    1    0    0    0  0.88891727340E+01  0.23779631777E+02 -0.13415556434E+02  0.28713506122E+02  0.00000000000E+00 0.  1.
</event>
<event>
 5    1  0.1262391E-009  0.9118800E+02  0.7815553E-02  0.1125453E+00
         25   -1    0    0    0    0  0.00000000000E+00  0.00000000000E+00  0.99999998245E-14  0.12509000000E+03  0.12509000000E+03 0.  0.
        -13    1    3    3    0    0  0.47943214583E+02 -0.24929681912E+02  0.15436275310E+02  0.56199026898E+02  0.10566000000E+00 0. -1.
         23    2    1    0    0    0  0.21993148647E+02 -0.13533026874E+02 -0.12853935650E+02  0.96244461949E+02  0.91820103411E+02 0.  0.
         13    1    3    3    0    0 -0.25950065937E+02  0.11396655038E+02 -0.28290210960E+02  0.40045435050E+02  0.10566000000E+00 0.  1.
         22    1    1    0    0    0 -0.21993148647E+02  0.13533026874E+02  0.12853935650E+02  0.28845538051E+02  0.00000000000E+00 0. -1.
</event>
<event>
 5    1  0.1262391E-009  0.9118800E+02  0.7815553E-02  0.1125453E+00
         25   -1    0    0    0    0  0.00000000000E+00  0.00000000000E+00  0.99999998245E-14  0.12509000000E+03  0.12509000000E+03 0.  0.
        -13    1    3    3    0    0 -0.39771638812E+02  0.32373773532E+02 -0.50175167778E+01  0.51526993946E+02  0.10566000000E+00 0.  1.
         23    2    1    0    0    0  0.65443417526E+00  0.22628642201E+02 -0.19141231055E+02  0.95444250587E+02  0.90723395615E+02 0.  0.
         13    1    3    3    0    0  0.40426072987E+02 -0.97451313314E+01 -0.14123714278E+02  0.43917256641E+02  0.10566000000E+00 0. -1.
         22    1    1    0    0    0 -0.65443417526E+00 -0.22628642201E+02  0.19141231055E+02  0.29645749413E+02  0.00000000000E+00 0.  1.
</event>
<event>
 5    1  0.1262391E-009  0.9118800E+02  0.7815553E-02  0.1125453E+00
         25   -1    0    0    0    0  0.00000000000E+00  0.00000000000E+00  0.99999998245E-14  0.12509000000E+03  0.12509000000E+03 0.  0.
        -13    1    3    3    0    0  0.56027810995E+00  0.31026380770E+02 -0.24119209754E+02  0.39302641876E+02  0.10566000000E+00 0.  1.
         23    2    1    0    0    0  0.19466524128E+02  0.10569205431E+02  0.22440195915E+02  0.93558808177E+02  0.88085382043E+02 0.  0.
         13    1    3    3    0    0  0.18906246018E+02 -0.20457175339E+02  0.46559405669E+02  0.54256166301E+02  0.10566000000E+00 0. -1.
         22    1    1    0    0    0 -0.19466524128E+02 -0.10569205431E+02 -0.22440195915E+02  0.31531191823E+02  0.00000000000E+00 0. -1.
</event>
<event>
 5    1  0.1262391E-009  0.9118800E+02  0.7815553E-02  0.1125453E+00
         25   -1    0    0    0    0  0.00000000000E+00  0.00000000000E+00  0.99999998245E-14  0.12509000000E+03  0.12509000000E+03 0.  0.
        -13    1    3    3    0    0 -0.38104429475E+02 -0.10932478221E+02 -0.31675542467E+02  0.50742662329E+02  0.10566000000E+00 0.  1.
         23    2    1    0    0    0 -0.16923007111E+02  0.22170023282E+02 -0.11460970432E+02  0.94936195178E+02  0.90020160018E+02 0.  0.
         13    1    3    3    0    0  0.21181422364E+02  0.33102501502E+02  0.20214572035E+02  0.44193532849E+02  0.10566000000E+00 0. -1.
         22    1    1    0    0    0  0.16923007111E+02 -0.22170023282E+02  0.11460970432E+02  0.30153804822E+02  0.00000000000E+00 0.  1.
</event>
<event>
 5    1  0.1262391E-009  0.9118800E+02  0.7815553E-02  0.1125453E+00
         25   -1    0    0    0    0  0.00000000000E+00  0.00000000000E+00  0.99999998245E-14  0.12509000000E+03  0.12509000000E+03 0.  0.
        -13    1    3    3    0    0 -0.17863803009E+02 -0.51887165447E+02  0.11891149014E+02  0.56149835129E+02  0.10566000000E+00 0. -1.
         23    2    1    0    0    0  0.79956526378E+01 -0.24154106317E+02  0.17113851598E+02  0.94426744635E+02  0.89309433280E+02 0.  0.
         13    1    3    3    0    0  0.25859455647E+02  0.27733059130E+02  0.52227025838E+01  0.38276909507E+02  0.10566000000E+00 0.  1.
         22    1    1    0    0    0 -0.79956526378E+01  0.24154106317E+02 -0.17113851598E+02  0.30663255365E+02  0.00000000000E+00 0. -1.
</event>
<event>
 5    1  0.1262391E-009  0.9118800E+02  0.7815553E-02  0.1125453E+00
         25   -1    0    0    0    0  0.00000000000E+00  0.00000000000E+00  0.99999998245E-14  0.12509000000E+03  0.12509000000E+03 0.  0.
        -13    1    3    3    0    0 -0.14795953547E+02 -0.26956020625E+02 -0.46699439145E+02  0.55914184871E+02  0.10566000000E+00 0.  1.
         23    2    1    0    0    0  0.21666816350E+01 -0.28487748859E+02 -0.12941156372E+02  0.93725691103E+02  0.88322054438E+02 0.  0.
         13    1    3    3    0    0  0.16962635182E+02 -0.15317282342E+01  0.33758282773E+02  0.37811506232E+02  0.10566000000E+00 0. -1.
         22    1    1    0    0    0 -0.21666816350E+01  0.28487748859E+02  0.12941156372E+02  0.31364308897E+02  0.00000000000E+00 0.  1.
</event>
<event>
 5    1  0.1262391E-009  0.9118800E+02  0.7815553E-02  0.1125453E+00
         25   -1    0    0    0    0  0.00000000000E+00  0.00000000000E+00  0.99999998245E-14  0.12509000000E+03  0.12509000000E+03 0.  0.
        -13    1    3    3    0    0  0.53089264574E+01 -0.19170918934E+02 -0.59197295293E+02  0.62450298373E+02  0.10566000000E+00 0.  1.
         23    2    1    0    0    0  0.78304534135E+00 -0.10768023758E+02 -0.27768570424E+02  0.95296426884E+02  0.90519345876E+02 0.  0.
         13    1    3    3    0    0 -0.45258811160E+01  0.84028951763E+01  0.31428724869E+02  0.32846128511E+02  0.10566000000E+00 0. -1.
         22    1    1    0    0    0 -0.78304534135E+00  0.10768023758E+02  0.27768570424E+02  0.29793573116E+02  0.00000000000E+00 0.  1.
</event>
<event>
 5    1  0.1262391E-009  0.9118800E+02  0.7815553E-02  0.1125453E+00
         25   -1    0    0    0    0  0.00000000000E+00  0.00000000000E+00  0.99999998245E-14  0.12509000000E+03  0.12509000000E+03 0.  0.
        -13    1    3    3    0    0  0.13392614291E+02  0.12770043597E+02  0.57275880824E+02  0.60191144026E+02  0.10566000000E+00 0.  1.
         23    2    1    0    0    0 -0.47696561043E+01  0.10261803597E+02  0.29711225730E+02  0.93296743375E+02  0.87712434453E+02 0.  0.
         13    1    3    3    0    0 -0.18162270395E+02 -0.25082399993E+01 -0.27564655094E+02  0.33105599349E+02  0.10566000000E+00 0. -1.
         22    1    1    0    0    0  0.47696561043E+01 -0.10261803597E+02 -0.29711225730E+02  0.31793256625E+02  0.00000000000E+00 0.  1.
</event>
<event>
 5    1  0.1262391E-009  0.9118800E+02  0.7815553E-02  0.1125453E+00
         25   -1    0    0    0    0  0.00000000000E+00  0.00000000000E+00  0.99999998245E-14  0.12509000000E+03  0.12509000000E+03 0.  0.
        -13    1    3    3    0    0  0.73022554049E+01  0.44251337964E+01 -0.37521501686E+02  0.38480891309E+02  0.10566000000E+00 0.  1.
         23    2    1    0    0    0  0.17732328589E+02 -0.16914324806E+02  0.15163282791E+02  0.96272383758E+02  0.91858134472E+02 0.  0.
         13    1    3    3    0    0  0.10430073184E+02 -0.21339458603E+02  0.52684784477E+02  0.57791492450E+02  0.10566000000E+00 0. -1.
         22    1    1    0    0    0 -0.17732328589E+02  0.16914324806E+02 -0.15163282791E+02  0.28817616242E+02  0.00000000000E+00 0. -1.
</event>
<event>
 5    1  0.1262391E-009  0.9118800E+02  0.7815553E-02  0.1125453E+00
         25   -1    0    0    0    0  0.00000000000E+00  0.00000000000E+00  0.99999998245E-14  0.12509000000E+03  0.12509000000E+03 0.  0.
        -13    1    3    3    0    0  0.17520847767E+02  0.57107511690E+02 -0.17616028116E+02  0.62278275574E+02  0.10566000000E+00 0. -1.
         23    2    1    0    0    0  0.83722174789E+01  0.28094651139E+02 -0.44009921892E+01  0.95445908170E+02  0.90725681072E+02 0.  0.
         13    1    3    3    0    0 -0.91486302879E+01 -0.29012860550E+02  0.13215035927E+02  0.33167632596E+02  0.10566000000E+00 0.  1.
         22    1    1    0    0    0 -0.83722174789E+01 -0.28094651139E+02  0.44009921892E+01  0.29644091830E+02  0.00000000000E+00 0. -1.
</event>
<event>
 5    1  0.1262391E-009  0.9118800E+02  0.7815553E-02  0.1125453E+00
         25   -1    0    0    0    0  0.00000000000E+00  0.00000000000E+00  0.99999998245E-14  0.12509000000E+03  0.12509000000E+03 0.  0.
        -13    1    3    3    0    0 -0.43623744892E+02 -0.10529304621E+02  0.27255928277E+02  0.52505182264E+02  0.10566000000E+00 0.  1.
         23    2    1    0    0    0 -0.51750598433E+01 -0.25086779559E+02  0.15003037067E+02  0.95404669039E+02  0.90668803898E+02 0.  0.
         13    1    3    3    0    0  0.38448685049E+02 -0.14557474938E+02 -0.12252891210E+02  0.42899486776E+02  0.10566000000E+00 0. -1.
         22    1    1    0    0    0  0.51750598433E+01  0.25086779559E+02 -0.15003037067E+02  0.29685330961E+02  0.00000000000E+00 0.  1.
</event>
<event>
 5    1  0.1262391E-009  0.9118800E+02  0.7815553E-02  0.1125453E+00
         25   -1    0    0    0    0  0.00000000000E+00  0.00000000000E+00  0.99999998245E-14  0.12509000000E+03  0.12509000000E+03 0.  0.
        -13    1    3    3    0    0 -0.98149610076E+01 -0.42821238849E+01 -0.35065229799E+02  0.36664036186E+02  0.10566000000E+00 0.  1.
         23    2    1    0    0    0 -0.22991224268E+01 -0.21232134886E+02  0.20649563998E+02  0.95383199279E+02  0.90639178591E+02 0.  0.
         13    1    3    3    0    0  0.75158385808E+01 -0.16950011001E+02  0.55714793797E+02  0.58719163093E+02  0.10566000000E+00 0. -1.
         22    1    1    0    0    0  0.22991224268E+01  0.21232134886E+02 -0.20649563998E+02  0.29706800721E+02  0.00000000000E+00 0. -1.
</event>
<event>
 5    1  0.1262391E-009  0.9118800E+02  0.7815553E-02  0.1125453E+00
         25   -1    0    0    0    0  0.00000000000E+00  0.00000000000E+00  0.99999998245E-14  0.12509000000E+03  0.12509000000E+03 0.  0.
        -13    1    3    3    0    0  0.31174971005E+02  0.19727865936E+02 -0.26422555220E+02  0.45378740617E+02  0.10566000000E+00 0.  1.
         23    2    1    0    0    0 -0.18271042482E+02  0.14887308117E+02 -0.17207186792E+02  0.95908666692E+02  0.91361491521E+02 0.  0.
         13    1    3    3    0    0 -0.49446013488E+02 -0.48405578187E+01  0.92153684285E+01  0.50529926075E+02  0.10566000000E+00 0. -1.
         22    1    1    0    0    0  0.18271042482E+02 -0.14887308117E+02  0.17207186792E+02  0.29181333308E+02  0.00000000000E+00 0. -1.
</event>
<event>
 5    1  0.1262391E-009  0.9118800E+02  0.7815553E-02  0.1125453E+00
         25   -1    0    0    0    0  0.00000000000E+00  0.00000000000E+00  0.99999998245E-14  0.12509000000E+03  0.12509000000E+03 0.  0.
        -13    1    3    3    0    0 -0.81194663549E+01 -0.39383054691E+02 -0.13086329980E+02  0.42287278549E+02  0.10566000000E+00 0.  1.
         23    2    1    0    0    0  0.13620363085E+02 -0.77806551551E+01  0.24505090127E+02  0.95994427702E+02  0.91478838113E+02 0.  0.
         13    1    3    3    0    0  0.21739829439E+02  0.31602399536E+02  0.37591420107E+02  0.53707149154E+02  0.10566000000E+00 0. -1.
         22    1    1    0    0    0 -0.13620363085E+02  0.77806551551E+01 -0.24505090127E+02  0.29095572298E+02  0.00000000000E+00 0.  1.
</event>
<event>
 5    1  0.1262391E-009  0.9118800E+02  0.7815553E-02  0.1125453E+00
         25   -1    0    0    0    0  0.00000000000E+00  0.00000000000E+00  0.99999998245E-14  0.12509000000E+03  0.12509000000E+03 0.  0.
        -13    1    3    3    0    0  0.82444443193E+01 -0.23880940008E+02 -0.51914695803E+02  0.57735751161E+02  0.10566000000E+00 0. -1.
         23    2    1    0    0    0 -0.36733190542E+01  0.32619310753E+01 -0.30227156973E+02  0.94466243113E+02  0.89364739143E+02 0.  0.
         13    1    3    3    0    0 -0.11917763374E+02  0.27142871083E+02  0.21687538830E+02  0.36730491952E+02  0.10566000000E+00 0.  1.
         22    1    1    0    0    0  0.36733190542E+01 -0.32619310753E+01  0.30227156973E+02  0.30623756887E+02  0.00000000000E+00 0. -1.
</event>
<event>
 5    1  0.1262391E-009  0.9118800E+02  0.7815553E-02  0.1125453E+00
         25   -1    0    0    0    0  0.00000000000E+00  0.00000000000E+00  0.99999998245E-14  0.12509000000E+03  0.12509000000E+03 0.  0.
        -13    1    3    3    0    0 -0.43360272502E+02  0.21113849303E+02  0.37300895137E+02  0.60969466177E+02  0.10566000000E+00 0.  1.
         23    2    1    0    0    0 -0.31177595819E+02  0.14309891767E+02  0.14190346154E+02  0.87966134261E+02  0.79748726444E+02 0.  0.
         13    1    3    3    0    0  0.12182676684E+02 -0.68039575364E+01 -0.23110548982E+02  0.26996668084E+02  0.10566000000E+00 0. -1.
         22    1    1    0    0    0  0.31177595819E+02 -0.14309891767E+02 -0.14190346154E+02  0.37123865739E+02  0.00000000000E+00 0.  1.
</event>
<event>
 5    1  0.1262391E-009  0.9118800E+02  0.7815553E-02  0.1125453E+00
         25   -1    0    0    0    0  0.00000000000E+00  0.00000000000E+00  0.99999998245E-14  0.12509000000E+03  0.12509000000E+03 0.  0.
        -13    1    3    3    0    0  0.50396852627E+02 -0.24316373632E+02  0.89830997514E+01  0.56673062618E+02  0.10566000000E+00 0. -1.
         23    2    1    0    0    0  0.26261966484E+02 -0.82673708941E+00 -0.11841261657E+02  0.96270044145E+02  0.91854948393E+02 0.  0.
         13    1    3    3    0    0 -0.24134886143E+02  0.23489636542E+02 -0.20824361409E+02  0.39596981528E+02  0.10566000000E+00 0.  1.
         22    1    1    0    0    0 -0.26261966484E+02  0.82673708941E+00  0.11841261657E+02  0.28819955855E+02  0.00000000000E+00 0. -1.
</event>
<event>
 5    1  0.1262391E-009  0.9118800E+02  0.7815553E-02  0.1125453E+00
         25   -1    0    0    0    0  0.00000000000E+00  0.00000000000E+00  0.99999998245E-14  0.12509000000E+03  0.12509000000E+03 0.  0.
        -13    1    3    3    0    0  0.23619819267E+02  0.43073024802E+02 -0.24592606034E+02  0.54936224510E+02  0.10566000000E+00 0.  1.
         23    2    1    0    0    0 -0.98738277468E+01  0.26421001954E+02 -0.87453712643E+01  0.95559620098E+02  0.90882328624E+02 0.  0.
         13    1    3    3    0    0 -0.33493647014E+02 -0.16652022848E+02  0.15847234770E+02  0.40623395588E+02  0.10566000000E+00 0. -1.
         22    1    1    0    0    0  0.98738277468E+01 -0.26421001954E+02  0.87453712643E+01  0.29530379902E+02  0.00000000000E+00 0.  1.
</event>
<event>
 5    1  0.1262391E-009  0.9118800E+02  0.7815553E-02  0.1125453E+00
         25   -1    0    0    0    0  0.00000000000E+00  0.00000000000E+00  0.99999998245E-14  0.12509000000E+03  0.12509000000E+03 0.  0.
        -13    1    3    3    0    0  0.19044600696E+02 -0.13495709577E+02  0.47688889694E+02  0.53094937206E+02  0.10566000000E+00 0.  1.
         23    2    1    0    0    0  0.25785530445E+02 -0.11751727182E+02  0.50406254559E+01  0.96307981706E+02  0.91906598040E+02 0.  0.
         13    1    3    3    0    0  0.67409297487E+01  0.17439823947E+01 -0.42648264238E+02  0.43213044501E+02  0.10566000000E+00 0. -1.
         22    1    1    0    0    0 -0.25785530445E+02  0.11751727182E+02 -0.50406254559E+01  0.28782018294E+02  0.00000000000E+00 0. -1.
</event>
<event>
 5    1  0.1262391E-009  0.9118800E+02  0.7815553E-02  0.1125453E+00
         25   -1    0    0    0    0  0.00000000000E+00  0.00000000000E+00  0.99999998245E-14  0.12509000000E+03  0.12509000000E+03 0.  0.
        -13    1    3    3    0    0  0.19096831743E+02 -0.11321365697E+01  0.35425070682E+02  0.40260619875E+02  0.10566000000E+00 0.  1.
         23    2    1    0    0    0 -0.57352281828E+01  0.28878454790E+02 -0.36353497941E+01  0.95423962828E+02  0.90695418408E+02 0.  0.
         13    1    3    3    0    0 -0.24832059926E+02  0.30010591360E+02 -0.39060420476E+02  0.55163342953E+02  0.10566000000E+00 0. -1.
         22    1    1    0    0    0  0.57352281828E+01 -0.28878454790E+02  0.36353497941E+01  0.29666037172E+02  0.00000000000E+00 0. -1.
</event>
<event>
 5    1  0.1262391E-009  0.9118800E+02  0.7815553E-02  0.1125453E+00
         25   -1    0    0    0    0  0.00000000000E+00  0.00000000000E+00  0.99999998245E-14  0.12509000000E+03  0.12509000000E+03 0.  0.
        -13    1    3    3    0    0  0.49451393011E+02 -0.56905764366E+01 -0.22566302175E+02  0.54654113191E+02  0.10566000000E+00 0.  1.
         23    2    1    0    0    0  0.24816987394E+02  0.16006143666E+02  0.17514861234E+01  0.95507113021E+02  0.90810029377E+02 0.  0.
         13    1    3    3    0    0 -0.24634405616E+02  0.21696720103E+02  0.24317788298E+02  0.40852999829E+02  0.10566000000E+00 0. -1.
         22    1    1    0    0    0 -0.24816987394E+02 -0.16006143666E+02 -0.17514861234E+01  0.29582886979E+02  0.00000000000E+00 0.  1.
</event>
<event>
 5    1  0.1262391E-009  0.9118800E+02  0.7815553E-02  0.1125453E+00
         25   -1    0    0    0    0  0.00000000000E+00  0.00000000000E+00  0.99999998245E-14  0.12509000000E+03  0.12509000000E+03 0.  0.
        -13    1    3    3    0    0  0.31261251540E+02 -0.27273755549E+02 -0.10274426971E+02  0.42739894750E+02  0.10566000000E+00 0. -1.
         23    2    1    0    0    0  0.17108160719E+02  0.22853408566E+02  0.26895643295E+01  0.96415948969E+02  0.92053430208E+02 0.  0.
         13    1    3    3    0    0 -0.14153090821E+02  0.50127164115E+02  0.12963991300E+02  0.53676054219E+02  0.10566000000E+00 0.  1.
         22    1    1    0    0    0 -0.17108160719E+02 -0.22853408566E+02 -0.26895643295E+01  0.28674051031E+02  0.00000000000E+00 0. -1.
</event>
<event>
 5    1  0.1262391E-009  0.9118800E+02  0.7815553E-02  0.1125453E+00
         25   -1    0    0    0    0  0.00000000000E+00  0.00000000000E+00  0.99999998245E-14  0.12509000000E+03  0.12509000000E+03 0.  0.
        -13    1    3    3    0    0 -0.14979970837E+02 -0.13237804596E+02  0.18618749109E+02  0.27318637946E+02  0.10566000000E+00 0. -1.
         23    2    1    0    0    0  0.35025708874E+02  0.14565006417E+02  0.11573946281E+01  0.87138988730E+02  0.78440576875E+02 0.  0.
         13    1    3    3    0    0  0.50005679711E+02  0.27802811013E+02 -0.17461354481E+02  0.59820350784E+02  0.10566000000E+00 0.  1.
         22    1    1    0    0    0 -0.35025708874E+02 -0.14565006417E+02 -0.11573946281E+01  0.37951011270E+02  0.00000000000E+00 0.  1.
</event>
<event>
 5    1  0.1262391E-009  0.9118800E+02  0.7815553E-02  0.1125453E+00
         25   -1    0    0    0    0  0.00000000000E+00  0.00000000000E+00  0.99999998245E-14  0.12509000000E+03  0.12509000000E+03 0.  0.
        -13    1    3    3    0    0  0.76280757331E+01  0.30657132285E+02  0.23003440373E+02  0.39079620422E+02  0.10566000000E+00 0.  1.
         23    2    1    0    0    0  0.24312213281E+02  0.50282707540E+00 -0.19586104486E+02  0.93865778014E+02  0.88520236351E+02 0.  0.
         13    1    3    3    0    0  0.16684137548E+02 -0.30154305210E+02 -0.42589544859E+02  0.54786157592E+02  0.10566000000E+00 0. -1.
         22    1    1    0    0    0 -0.24312213281E+02 -0.50282707540E+00  0.19586104486E+02  0.31224221986E+02  0.00000000000E+00 0. -1.
</event>
<event>
 5    1  0.1262391E-009  0.9118800E+02  0.7815553E-02  0.1125453E+00
         25   -1    0    0    0    0  0.00000000000E+00  0.00000000000E+00  0.99999998245E-14  0.12509000000E+03  0.12509000000E+03 0.  0.
        -13    1    3    3    0    0  0.77252237274E+01 -0.31131058059E+02 -0.26254432910E+02  0.41450310842E+02  0.10566000000E+00 0.  1.
         23    2    1    0    0    0 -0.27020326353E+02  0.64738033404E+01 -0.51358210575E+01  0.96834295729E+02  0.92620170618E+02 0.  0.
         13    1    3    3    0    0 -0.34745550081E+02  0.37604861399E+02  0.21118611852E+02  0.55383984886E+02  0.10566000000E+00 0. -1.
         22    1    1    0    0    0  0.27020326353E+02 -0.64738033404E+01  0.51358210575E+01  0.28255704271E+02  0.00000000000E+00 0. -1.
</event>
<event>
 5    1  0.1262391E-009  0.9118800E+02  0.7815553E-02  0.1125453E+00
         25   -1    0    0    0    0  0.00000000000E+00  0.00000000000E+00  0.99999998245E-14  0.12509000000E+03  0.12509000000E+03 0.  0.
        -13    1    3    3    0    0 -0.39719529493E+02  0.49281390492E+01  0.14272332520E+02  0.42492801947E+02  0.10566000000E+00 0.  1.
         23    2    1    0    0    0  0.27045212416E+01  0.30833655723E+02  0.26526504972E+00  0.94136823653E+02  0.88902432147E+02 0.  0.
         13    1    3    3    0    0  0.42424050735E+02  0.25905516674E+02 -0.14007067471E+02  0.51644021707E+02  0.10566000000E+00 0. -1.
         22    1    1    0    0    0 -0.27045212416E+01 -0.30833655723E+02 -0.26526504972E+00  0.30953176347E+02  0.00000000000E+00 0.  1.
</event>
<event>
 5    1  0.1262391E-009  0.9118800E+02  0.7815553E-02  0.1125453E+00
         25   -1    0    0    0    0  0.00000000000E+00  0.00000000000E+00  0.99999998245E-14  0.12509000000E+03  0.12509000000E+03 0.  0.
        -13    1    3    3    0    0 -0.31542176572E+02  0.29659863908E+02  0.37227593759E+02  0.57100974870E+02  0.10566000000E+00 0. -1.
         23    2    1    0    0    0 -0.23040259366E+01  0.26715543931E+02  0.12508415047E+02  0.95501332068E+02  0.90802065817E+02 0.  0.
         13    1    3    3    0    0  0.29238150635E+02 -0.29443199774E+01 -0.24719178712E+02  0.38400357198E+02  0.10566000000E+00 0.  1.
         22    1    1    0    0    0  0.23040259366E+01 -0.26715543931E+02 -0.12508415047E+02  0.29588667932E+02  0.00000000000E+00 0. -1.
</event>
<event>
 5    1  0.1262391E-009  0.9118800E+02  0.7815553E-02  0.1125453E+00
         25   -1    0    0    0    0  0.00000000000E+00  0.00000000000E+00  0.99999998245E-14  0.12509000000E+03  0.12509000000E+03 0.  0.
        -13    1    3    3    0    0  0.43531346744E+02  0.35475073380E+02  0.24155478481E+02  0.61130657491E+02  0.10566000000E+00 0.  1.
         23    2    1    0    0    0  0.23938121828E+02  0.26715999286E+02  0.22693679637E+02  0.82642604439E+02  0.70908523313E+02 0.  0.
         13    1    3    3    0    0 -0.19593224916E+02 -0.87590740936E+01 -0.14617988440E+01  0.21511946948E+02  0.10566000000E+00 0. -1.
         22    1    1    0    0    0 -0.23938121828E+02 -0.26715999286E+02 -0.22693679637E+02  0.42447395561E+02  0.00000000000E+00 0.  1.
</event>
<event>
 5    1  0.1262391E-009  0.9118800E+02  0.7815553E-02  0.1125453E+00
         25   -1    0    0    0    0  0.00000000000E+00  0.00000000000E+00  0.99999998245E-14  0.12509000000E+03  0.12509000000E+03 0.  0.
        -13    1    3    3    0    0  0.28092924582E+02  0.17451592456E+02  0.37025875964E+02  0.49645716288E+02  0.10566000000E+00 0. -1.
         23    2    1    0    0    0 -0.14773837530E+02  0.89531893426E+01  0.24510128505E+02  0.95103798605E+02  0.90252757492E+02 0.  0.
         13    1    3    3    0    0 -0.42866762112E+02 -0.84984031138E+01 -0.12515747459E+02  0.45458082317E+02  0.10566000000E+00 0.  1.
         22    1    1    0    0    0  0.14773837530E+02 -0.89531893426E+01 -0.24510128505E+02  0.29986201395E+02  0.00000000000E+00 0. -1.
</event>
<event>
 5    1  0.1262391E-009  0.9118800E+02  0.7815553E-02  0.1125453E+00
         25   -1    0    0    0    0  0.00000000000E+00  0.00000000000E+00  0.99999998245E-14  0.12509000000E+03  0.12509000000E+03 0.  0.
        -13    1    3    3    0    0 -0.18377931785E+02 -0.35346556879E+02  0.53793025518E+01  0.40200441787E+02  0.10566000000E+00 0. -1.
         23    2    1    0    0    0 -0.94983096519E+01  0.90176051004E+01 -0.26488023133E+02  0.95540880597E+02  0.90856532004E+02 0.  0.
         13    1    3    3    0    0  0.88796221336E+01  0.44364161979E+02 -0.31867325685E+02  0.55340438810E+02  0.10566000000E+00 0.  1.
         22    1    1    0    0    0  0.94983096519E+01 -0.90176051004E+01  0.26488023133E+02  0.29549119403E+02  0.00000000000E+00 0.  1.
</event>
<event>
 5    1  0.1262391E-009  0.9118800E+02  0.7815553E-02  0.1125453E+00
         25   -1    0    0    0    0  0.00000000000E+00  0.00000000000E+00  0.99999998245E-14  0.12509000000E+03  0.12509000000E+03 0.  0.
        -13    1    3    3    0    0 -0.29532482826E+02 -0.14931186353E+02 -0.47321962656E+01  0.33429219454E+02  0.10566000000E+00 0. -1.
         23    2    1    0    0    0  0.23386356352E+02  0.15516502999E+02  0.82287255104E+01  0.95842855657E+02  0.91271340125E+02 0.  0.
         13    1    3    3    0    0  0.52918839178E+02  0.30447689351E+02  0.12960921776E+02  0.62413636203E+02  0.10566000000E+00 0.  1.
         22    1    1    0    0    0 -0.23386356352E+02 -0.15516502999E+02 -0.82287255104E+01  0.29247144343E+02  0.00000000000E+00 0.  1.
</event>
<event>
 5    1  0.1262391E-009  0.9118800E+02  0.7815553E-02  0.1125453E+00
         25   -1    0    0    0    0  0.00000000000E+00  0.00000000000E+00  0.99999998245E-14  0.12509000000E+03  0.12509000000E+03 0.  0.
        -13    1    3    3    0    0  0.94963809601E+01  0.50060126462E+02  0.13730101738E+02  0.52770487685E+02  0.10566000000E+00 0.  1.
         23    2    1    0    0    0  0.24931392050E+02  0.95890778855E+01 -0.53228318959E+00  0.98372813591E+02  0.94675247051E+02 0.  0.
         13    1    3    3    0    0  0.15435011090E+02 -0.40471048576E+02 -0.14262384927E+02  0.45602325906E+02  0.10566000000E+00 0. -1.
         22    1    1    0    0    0 -0.24931392050E+02 -0.95890778855E+01  0.53228318959E+00  0.26717186409E+02  0.00000000000E+00 0.  1.
</event>
<event>
 5    1  0.1262391E-009  0.9118800E+02  0.7815553E-02  0.1125453E+00
         25   -1    0    0    0    0  0.00000000000E+00  0.00000000000E+00  0.99999998245E-14  0.12509000000E+03  0.12509000000E+03 0.  0.
        -13    1    3    3    0    0  0.30668058276E+02  0.28765830014E+02 -0.35410793337E+02  0.54972158623E+02  0.10566000000E+00 0.  1.
         23    2    1    0    0    0  0.32209120889E+01  0.28608237750E+02 -0.51194655371E+01  0.95849369548E+02  0.91280267165E+02 0.  0.
         13    1    3    3    0    0 -0.27447146187E+02 -0.15759226432E+00  0.30291327800E+02  0.40877210926E+02  0.10566000000E+00 0. -1.
         22    1    1    0    0    0 -0.32209120889E+01 -0.28608237750E+02  0.51194655371E+01  0.29240630452E+02  0.00000000000E+00 0.  1.
</event>
<event>
 5    1  0.1262391E-009  0.9118800E+02  0.7815553E-02  0.1125453E+00
         25   -1    0    0    0    0  0.00000000000E+00  0.00000000000E+00  0.99999998245E-14  0.12509000000E+03  0.12509000000E+03 0.  0.
        -13    1    3    3    0    0  0.43260320683E+02 -0.18957031291E+02  0.38308147964E+02  0.60814058781E+02  0.10566000000E+00 0.  1.
         23    2    1    0    0    0  0.24296931675E+02 -0.11827877991E+02  0.86787661862E+01  0.96707601068E+02  0.92448902294E+02 0.  0.
         13    1    3    3    0    0 -0.18963389007E+02  0.71291533007E+01 -0.29629381777E+02  0.35893542288E+02  0.10566000000E+00 0. -1.
         22    1    1    0    0    0 -0.24296931675E+02  0.11827877991E+02 -0.86787661862E+01  0.28382398932E+02  0.00000000000E+00 0.  1.
</event>
<event>
 5    1  0.1262391E-009  0.9118800E+02  0.7815553E-02  0.1125453E+00
         25   -1    0    0    0    0  0.00000000000E+00  0.00000000000E+00  0.99999998245E-14  0.12509000000E+03  0.12509000000E+03 0.  0.
        -13    1    3    3    0    0 -0.11472440943E+02 -0.19176686038E+02  0.43767659994E+02  0.49142460398E+02  0.10566000000E+00 0. -1.
         23    2    1    0    0    0 -0.11509430479E+02  0.19725471210E+02  0.20014701522E+02  0.94723085744E+02  0.89723539227E+02 0.  0.
         13    1    3    3    0    0 -0.36989536248E-01  0.38902157248E+02 -0.23752958472E+02  0.45580625346E+02  0.10566000000E+00 0.  1.
         22    1    1    0    0    0  0.11509430479E+02 -0.19725471210E+02 -0.20014701522E+02  0.30366914256E+02  0.00000000000E+00 0.  1.
</event>
<event>
 5    1  0.1262391E-009  0.9118800E+02  0.7815553E-02  0.1125453E+00
         25   -1    0    0    0    0  0.00000000000E+00  0.00000000000E+00  0.99999998245E-14  0.12509000000E+03  0.12509000000E+03 0.  0.
        -13    1    3    3    0    0  0.12150336977E+02  0.48142876902E+02  0.74592382344E+01  0.50209746903E+02  0.10566000000E+00 0.  1.
         23    2    1    0    0    0  0.10880969312E+02  0.85613872460E+01  0.27282022286E+02  0.94495857019E+02  0.89406182163E+02 0.  0.
         13    1    3    3    0    0 -0.12693676650E+01 -0.39581489656E+02  0.19822784051E+02  0.44286110116E+02  0.10566000000E+00 0. -1.
         22    1    1    0    0    0 -0.10880969312E+02 -0.85613872460E+01 -0.27282022286E+02  0.30594142981E+02  0.00000000000E+00 0. -1.
</event>
<event>
 5    1  0.1262391E-009  0.9118800E+02  0.7815553E-02  0.1125453E+00
         25   -1    0    0    0    0  0.00000000000E+00  0.00000000000E+00  0.99999998245E-14  0.12509000000E+03  0.12509000000E+03 0.  0.
        -13    1    3    3    0    0 -0.17386482612E+02  0.10014410825E+02  0.34873420245E+02  0.40233627793E+02  0.10566000000E+00 0.  1.
         23    2    1    0    0    0 -0.20524429473E+02 -0.19544542465E+02 -0.10827055738E+02  0.94750809481E+02  0.89762182550E+02 0.  0.
         13    1    3    3    0    0 -0.31379468614E+01 -0.29558953291E+02 -0.45700475983E+02  0.54517181688E+02  0.10566000000E+00 0. -1.
         22    1    1    0    0    0  0.20524429473E+02  0.19544542465E+02  0.10827055738E+02  0.30339190519E+02  0.00000000000E+00 0. -1.
</event>
<event>
 5    1  0.1262391E-009  0.9118800E+02  0.7815553E-02  0.1125453E+00
         25   -1    0    0    0    0  0.00000000000E+00  0.00000000000E+00  0.99999998245E-14  0.12509000000E+03  0.12509000000E+03 0.  0.
        -13    1    3    3    0    0  0.29403096576E+02 -0.51787410069E+02  0.50445230945E+01  0.59765678338E+02  0.10566000000E+00 0.  1.
         23    2    1    0    0    0  0.24458859060E+02 -0.16615746873E+02  0.11139644925E+01  0.95500141137E+02  0.90800425162E+02 0.  0.
         13    1    3    3    0    0 -0.49442375161E+01  0.35171663196E+02 -0.39305586021E+01  0.35734462799E+02  0.10566000000E+00 0. -1.
         22    1    1    0    0    0 -0.24458859060E+02  0.16615746873E+02 -0.11139644925E+01  0.29589858863E+02  0.00000000000E+00 0.  1.
</event>
<event>
 5    1  0.1262391E-009  0.9118800E+02  0.7815553E-02  0.1125453E+00
         25   -1    0    0    0    0  0.00000000000E+00  0.00000000000E+00  0.99999998245E-14  0.12509000000E+03  0.12509000000E+03 0.  0.
        -13    1    3    3    0    0 -0.16996008005E+02 -0.20286039322E+02  0.31546573165E+02  0.41177483192E+02  0.10566000000E+00 0.  1.
         23    2    1    0    0    0 -0.29008341921E+02  0.66527712128E+01 -0.11351209566E+02  0.93237319980E+02  0.87627647536E+02 0.  0.
         13    1    3    3    0    0 -0.12012333916E+02  0.26938810535E+02 -0.42897782731E+02  0.52059836789E+02  0.10566000000E+00 0. -1.
         22    1    1    0    0    0  0.29008341921E+02 -0.66527712128E+01  0.11351209566E+02  0.31852680020E+02  0.00000000000E+00 0.  1.
</event>
<event>
 5    1  0.1262391E-009  0.9118800E+02  0.7815553E-02  0.1125453E+00
         25   -1    0    0    0    0  0.00000000000E+00  0.00000000000E+00  0.99999998245E-14  0.12509000000E+03  0.12509000000E+03 0.  0.
        -13    1    3    3    0    0 -0.24571620313E+02  0.45982827675E+01  0.29793997281E+02  0.38892186455E+02  0.10566000000E+00 0.  1.
         23    2    1    0    0    0  0.26768006674E+02  0.10895449373E+02  0.73941276973E+01  0.95258638604E+02  0.90467110631E+02 0.  0.
         13    1    3    3    0    0  0.51339626987E+02  0.62971666054E+01 -0.22399869584E+02  0.56366452149E+02  0.10566000000E+00 0. -1.
         22    1    1    0    0    0 -0.26768006674E+02 -0.10895449373E+02 -0.73941276973E+01  0.29831361396E+02  0.00000000000E+00 0.  1.
</event>
<event>
 5    1  0.1262391E-009  0.9118800E+02  0.7815553E-02  0.1125453E+00
         25   -1    0    0    0    0  0.00000000000E+00  0.00000000000E+00  0.99999998245E-14  0.12509000000E+03  0.12509000000E+03 0.  0.
        -13    1    3    3    0    0  0.22947040316E+02 -0.34513220927E+02  0.22010374600E+02  0.46927570064E+02  0.10566000000E+00 0.  1.
         23    2    1    0    0    0 -0.26924202489E+00 -0.22432761289E+02 -0.19076302595E+02  0.95641628382E+02  0.90995134422E+02 0.  0.
         13    1    3    3    0    0 -0.23216282341E+02  0.12080459638E+02 -0.41086677195E+02  0.48714058318E+02  0.10566000000E+00 0. -1.
         22    1    1    0    0    0  0.26924202489E+00  0.22432761289E+02  0.19076302595E+02  0.29448371618E+02  0.00000000000E+00 0.  1.
</event>
<event>
 5    1  0.1262391E-009  0.9118800E+02  0.7815553E-02  0.1125453E+00
         25   -1    0    0    0    0  0.00000000000E+00  0.00000000000E+00  0.99999998245E-14  0.12509000000E+03  0.12509000000E+03 0.  0.
        -13    1    3    3    0    0 -0.32867673953E+02  0.11185727049E+02  0.18816669118E+02  0.39490285912E+02  0.10566000000E+00 0.  1.
         23    2    1    0    0    0  0.18946406080E+02  0.22214099371E+02 -0.53385991052E+00  0.95888672622E+02  0.91334112010E+02 0.  0.
         13    1    3    3    0    0  0.51814080033E+02  0.11028372322E+02 -0.19350529029E+02  0.56398386710E+02  0.10566000000E+00 0. -1.
         22    1    1    0    0    0 -0.18946406080E+02 -0.22214099371E+02  0.53385991052E+00  0.29201327378E+02  0.00000000000E+00 0. -1.
</event>
<event>
 5    1  0.1262391E-009  0.9118800E+02  0.7815553E-02  0.1125453E+00
         25   -1    0    0    0    0  0.00000000000E+00  0.00000000000E+00  0.99999998245E-14  0.12509000000E+03  0.12509000000E+03 0.  0.
        -13    1    3    3    0    0  0.23172981610E+02  0.38598476871E+02  0.17746230586E+02  0.48391831516E+02  0.10566000000E+00 0.  1.
         23    2    1    0    0    0  0.19291845999E+01 -0.23598138367E+01  0.29037271228E+02  0.95893192043E+02  0.91340301539E+02 0.  0.
         13    1    3    3    0    0 -0.21243797010E+02 -0.40958290707E+02  0.11291040641E+02  0.47501360526E+02  0.10566000000E+00 0. -1.
         22    1    1    0    0    0 -0.19291845999E+01  0.23598138367E+01 -0.29037271228E+02  0.29196807957E+02  0.00000000000E+00 0. -1.
</event>
<event>
 5    1  0.1262391E-009  0.9118800E+02  0.7815553E-02  0.1125453E+00
         25   -1    0    0    0    0  0.00000000000E+00  0.00000000000E+00  0.99999998245E-14  0.12509000000E+03  0.12509000000E+03 0.  0.
        -13    1    3    3    0    0  0.19082799607E+02  0.13648348133E+02  0.62550400945E+01  0.24281007768E+02  0.10566000000E+00 0. -1.
         23    2    1    0    0    0 -0.17583505938E+02 -0.34947976700E+02  0.78902013789E+01  0.85180151161E+02  0.75251990788E+02 0.  0.
         13    1    3    3    0    0 -0.36666305545E+02 -0.48596324834E+02  0.16351612844E+01  0.60899143394E+02  0.10566000000E+00 0.  1.
         22    1    1    0    0    0  0.17583505938E+02  0.34947976700E+02 -0.78902013789E+01  0.39909848839E+02  0.00000000000E+00 0.  1.
</event>
<event>
 5    1  0.1262391E-009  0.9118800E+02  0.7815553E-02  0.1125453E+00
         25   -1    0    0    0    0  0.00000000000E+00  0.00000000000E+00  0.99999998245E-14  0.12509000000E+03  0.12509000000E+03 0.  0.
        -13    1    3    3    0    0  0.28913060261E+02  0.27941267901E+02 -0.13314446810E+02  0.42355225929E+02  0.10566000000E+00 0. -1.
         23    2    1    0    0    0 -0.20085515298E+02  0.11848848142E+02 -0.20010174529E+02  0.94361670859E+02  0.89218242056E+02 0.  0.
         13    1    3    3    0    0 -0.48998575560E+02 -0.16092419759E+02 -0.66957277187E+01  0.52006444930E+02  0.10566000000E+00 0.  1.
         22    1    1    0    0    0  0.20085515298E+02 -0.11848848142E+02  0.20010174529E+02  0.30728329141E+02  0.00000000000E+00 0.  1.
</event>
<event>
 5    1  0.1262391E-009  0.9118800E+02  0.7815553E-02  0.1125453E+00
         25   -1    0    0    0    0  0.00000000000E+00  0.00000000000E+00  0.99999998245E-14  0.12509000000E+03  0.12509000000E+03 0.  0.
        -13    1    3    3    0    0 -0.22504198837E+02  0.21577698869E+02 -0.20736011111E+02  0.37443682706E+02  0.10566000000E+00 0.  1.
         23    2    1    0    0    0  0.27709278993E+02  0.73212824382E+01  0.55664726538E+01  0.95894265095E+02  0.91341771065E+02 0.  0.
         13    1    3    3    0    0  0.50213477830E+02 -0.14256416430E+02  0.26302483765E+02  0.58450582388E+02  0.10566000000E+00 0. -1.
         22    1    1    0    0    0 -0.27709278993E+02 -0.73212824382E+01 -0.55664726538E+01  0.29195734905E+02  0.00000000000E+00 0. -1.
</event>
<event>
 5    1  0.1262391E-009  0.9118800E+02  0.7815553E-02  0.1125453E+00
         25   -1    0    0    0    0  0.00000000000E+00  0.00000000000E+00  0.99999998245E-14  0.12509000000E+03  0.12509000000E+03 0.  0.
        -13    1    3    3    0    0  0.30102230298E+01  0.57411499859E+02  0.10833352831E+02  0.58502260267E+02  0.10566000000E+00 0.  1.
         23    2    1    0    0    0  0.41078880108E+01  0.23164190263E+02  0.20262782983E+02  0.94041089735E+02  0.88767627713E+02 0.  0.
         13    1    3    3    0    0  0.10976649810E+01 -0.34247309595E+02  0.94294301517E+01  0.35538829468E+02  0.10566000000E+00 0. -1.
         22    1    1    0    0    0 -0.41078880108E+01 -0.23164190263E+02 -0.20262782983E+02  0.31048910265E+02  0.00000000000E+00 0.  1.
</event>
<event>
 5    1  0.1262391E-009  0.9118800E+02  0.7815553E-02  0.1125453E+00
         25   -1    0    0    0    0  0.00000000000E+00  0.00000000000E+00  0.99999998245E-14  0.12509000000E+03  0.12509000000E+03 0.  0.
        -13    1    3    3    0    0 -0.56469680542E+02 -0.14440391667E+02 -0.63842141254E+01  0.58635476344E+02  0.10566000000E+00 0.  1.
         23    2    1    0    0    0 -0.28923619365E+02  0.78325027251E+01  0.20653968895E+01  0.95053526832E+02  0.90183054077E+02 0.  0.
         13    1    3    3    0    0  0.27546061177E+02  0.22272894392E+02  0.84496110149E+01  0.36418050488E+02  0.10566000000E+00 0. -1.
         22    1    1    0    0    0  0.28923619365E+02 -0.78325027251E+01 -0.20653968895E+01  0.30036473168E+02  0.00000000000E+00 0.  1.
</event>
<event>
 5    1  0.1262391E-009  0.9118800E+02  0.7815553E-02  0.1125453E+00
         25   -1    0    0    0    0  0.00000000000E+00  0.00000000000E+00  0.99999998245E-14  0.12509000000E+03  0.12509000000E+03 0.  0.
        -13    1    3    3    0    0  0.38077933082E+02  0.13588378008E+02 -0.23560349010E+02  0.46793954889E+02  0.10566000000E+00 0.  1.
         23    2    1    0    0    0 -0.10301978174E+02  0.75700192609E+01 -0.26533323376E+02  0.95637441617E+02  0.90989378742E+02 0.  0.
         13    1    3    3    0    0 -0.48379911256E+02 -0.60183587471E+01 -0.29729743654E+01  0.48843486728E+02  0.10566000000E+00 0. -1.
         22    1    1    0    0    0  0.10301978174E+02 -0.75700192609E+01  0.26533323376E+02  0.29452558383E+02  0.00000000000E+00 0.  1.
</event>
<event>
 5    1  0.1262391E-009  0.9118800E+02  0.7815553E-02  0.1125453E+00
         25   -1    0    0    0    0  0.00000000000E+00  0.00000000000E+00  0.99999998245E-14  0.12509000000E+03  0.12509000000E+03 0.  0.
        -13    1    3    3    0    0  0.15077065197E+02  0.39162334782E+02  0.20332031752E+02  0.46630559076E+02  0.10566000000E+00 0.  1.
         23    2    1    0    0    0 -0.54923986529E+01 -0.43469169225E+01  0.28759818859E+02  0.95489504894E+02  0.90785771101E+02 0.  0.
         13    1    3    3    0    0 -0.20569463850E+02 -0.43509251704E+02  0.84277871075E+01  0.48858945819E+02  0.10566000000E+00 0. -1.
         22    1    1    0    0    0  0.54923986529E+01  0.43469169225E+01 -0.28759818859E+02  0.29600495106E+02  0.00000000000E+00 0. -1.
</event>
<event>
 5    1  0.1262391E-009  0.9118800E+02  0.7815553E-02  0.1125453E+00
         25   -1    0    0    0    0  0.00000000000E+00  0.00000000000E+00  0.99999998245E-14  0.12509000000E+03  0.12509000000E+03 0.  0.
        -13    1    3    3    0    0  0.58632214824E+02 -0.94086723514E+00 -0.12979875384E+02  0.60059222234E+02  0.10566000000E+00 0. -1.
         23    2    1    0    0    0  0.21641017369E+02  0.31793544822E+01 -0.16848684607E+02  0.97479855113E+02  0.93487978115E+02 0.  0.
         13    1    3    3    0    0 -0.36991197455E+02  0.41202217173E+01 -0.38688092231E+01  0.37420632878E+02  0.10566000000E+00 0.  1.
         22    1    1    0    0    0 -0.21641017369E+02 -0.31793544822E+01  0.16848684607E+02  0.27610144887E+02  0.00000000000E+00 0. -1.
</event>
<event>
 5    1  0.1262391E-009  0.9118800E+02  0.7815553E-02  0.1125453E+00
         25   -1    0    0    0    0  0.00000000000E+00  0.00000000000E+00  0.99999998245E-14  0.12509000000E+03  0.12509000000E+03 0.  0.
        -13    1    3    3    0    0  0.42481327249E+02 -0.41860350122E+02 -0.17616954526E+02  0.62187782787E+02  0.10566000000E+00 0.  1.
         23    2    1    0    0    0  0.20394376664E+02 -0.17154026852E+02 -0.12252141219E+02  0.95759023180E+02  0.91156372894E+02 0.  0.
         13    1    3    3    0    0 -0.22086950585E+02  0.24706323270E+02  0.53648133071E+01  0.33571240393E+02  0.10566000000E+00 0. -1.
         22    1    1    0    0    0 -0.20394376664E+02  0.17154026852E+02  0.12252141219E+02  0.29330976820E+02  0.00000000000E+00 0.  1.
</event>
<event>
 5    1  0.1262391E-009  0.9118800E+02  0.7815553E-02  0.1125453E+00
         25   -1    0    0    0    0  0.00000000000E+00  0.00000000000E+00  0.99999998245E-14  0.12509000000E+03  0.12509000000E+03 0.  0.
        -13    1    3    3    0    0 -0.42194024902E+02  0.83409629581E+01 -0.52983510765E+01  0.43335794543E+02  0.10566000000E+00 0. -1.
         23    2    1    0    0    0  0.64937478976E+01  0.12084989325E+02 -0.25462412924E+02  0.96166822432E+02  0.91714271168E+02 0.  0.
         13    1    3    3    0    0  0.48687772799E+02  0.37440263670E+01 -0.20164061847E+02  0.52831027889E+02  0.10566000000E+00 0.  1.
         22    1    1    0    0    0 -0.64937478976E+01 -0.12084989325E+02  0.25462412924E+02  0.28923177568E+02  0.00000000000E+00 0.  1.
</event>
<event>
 5    1  0.1262391E-009  0.9118800E+02  0.7815553E-02  0.1125453E+00
         25   -1    0    0    0    0  0.00000000000E+00  0.00000000000E+00  0.99999998245E-14  0.12509000000E+03  0.12509000000E+03 0.  0.
        -13    1    3    3    0    0 -0.39720666261E+02 -0.57265302805E+01  0.43034834311E+01  0.40361561057E+02  0.10566000000E+00 0.  1.
         23    2    1    0    0    0  0.10180705985E+02 -0.28109555469E+02  0.42141870473E+00  0.95190644208E+02  0.90373045030E+02 0.  0.
         13    1    3    3    0    0  0.49901372246E+02 -0.22383025189E+02 -0.38820647264E+01  0.54829083151E+02  0.10566000000E+00 0. -1.
         22    1    1    0    0    0 -0.10180705985E+02  0.28109555469E+02 -0.42141870473E+00  0.29899355792E+02  0.00000000000E+00 0. -1.
</event>
<event>
 5    1  0.1262391E-009  0.9118800E+02  0.7815553E-02  0.1125453E+00
         25   -1    0    0    0    0  0.00000000000E+00  0.00000000000E+00  0.99999998245E-14  0.12509000000E+03  0.12509000000E+03 0.  0.
        -13    1    3    3    0    0 -0.48355331943E+02 -0.19483113081E+02 -0.25832407254E+02  0.58182078436E+02  0.10566000000E+00 0.  1.
         23    2    1    0    0    0 -0.12506068491E+02 -0.99918100171E+01 -0.25156036288E+02  0.95272820753E+02  0.90486718340E+02 0.  0.
         13    1    3    3    0    0  0.35849263452E+02  0.94913030638E+01  0.67637096541E+00  0.37090742317E+02  0.10566000000E+00 0. -1.
         22    1    1    0    0    0  0.12506068491E+02  0.99918100171E+01  0.25156036288E+02  0.29817179247E+02  0.00000000000E+00 0.  1.
</event>
<event>
 5    1  0.1262391E-009  0.9118800E+02  0.7815553E-02  0.1125453E+00
         25   -1    0    0    0    0  0.00000000000E+00  0.00000000000E+00  0.99999998245E-14  0.12509000000E+03  0.12509000000E+03 0.  0.
        -13    1    3    3    0    0 -0.25676337932E+02  0.45392159050E+02  0.30860259349E+02  0.60597765668E+02  0.10566000000E+00 0. -1.
         23    2    1    0    0    0 -0.15290749735E+02  0.14316001620E+02  0.22366606892E+02  0.94446566222E+02  0.89337191792E+02 0.  0.
         13    1    3    3    0    0  0.10385588197E+02 -0.31076157431E+02 -0.84936524564E+01  0.33848800554E+02  0.10566000000E+00 0.  1.
         22    1    1    0    0    0  0.15290749735E+02 -0.14316001620E+02 -0.22366606892E+02  0.30643433778E+02  0.00000000000E+00 0. -1.
</event>
<event>
 5    1  0.1262391E-009  0.9118800E+02  0.7815553E-02  0.1125453E+00
         25   -1    0    0    0    0  0.00000000000E+00  0.00000000000E+00  0.99999998245E-14  0.12509000000E+03  0.12509000000E+03 0.  0.
        -13    1    3    3    0    0  0.19084026317E+02 -0.47210393895E+02 -0.10572632242E+02  0.52007817381E+02  0.10566000000E+00 0. -1.
         23    2    1    0    0    0 -0.36875414735E+01 -0.22173435252E+02  0.17994574663E+02  0.96296530075E+02  0.91891010410E+02 0.  0.
         13    1    3    3    0    0 -0.22771567790E+02  0.25036958643E+02  0.28567206905E+02  0.44288712694E+02  0.10566000000E+00 0.  1.
         22    1    1    0    0    0  0.36875414735E+01  0.22173435252E+02 -0.17994574663E+02  0.28793469925E+02  0.00000000000E+00 0.  1.
</event>
<event>
 5    1  0.1262391E-009  0.9118800E+02  0.7815553E-02  0.1125453E+00
         25   -1    0    0    0    0  0.00000000000E+00  0.00000000000E+00  0.99999998245E-14  0.12509000000E+03  0.12509000000E+03 0.  0.
        -13    1    3    3    0    0 -0.13498319538E+02  0.12527291791E+01  0.36670698200E+02  0.39096358286E+02  0.10566000000E+00 0. -1.
         23    2    1    0    0    0  0.26412944133E+02  0.14040635929E+02 -0.58457696628E+00  0.95171363579E+02  0.90346353774E+02 0.  0.
         13    1    3    3    0    0  0.39911263671E+02  0.12787906750E+02 -0.37255275166E+02  0.56075005293E+02  0.10566000000E+00 0.  1.
         22    1    1    0    0    0 -0.26412944133E+02 -0.14040635929E+02  0.58457696628E+00  0.29918636421E+02  0.00000000000E+00 0. -1.
</event>
<event>
 5    1  0.1262391E-009  0.9118800E+02  0.7815553E-02  0.1125453E+00
         25   -1    0    0    0    0  0.00000000000E+00  0.00000000000E+00  0.99999998245E-14  0.12509000000E+03  0.12509000000E+03 0.  0.
        -13    1    3    3    0    0  0.31723108323E+01 -0.17327269753E+02  0.51627307664E+02  0.54549866121E+02  0.10566000000E+00 0.  1.
         23    2    1    0    0    0 -0.19076592210E+02 -0.15348541277E+02  0.18965133897E+02  0.94119523842E+02  0.88878087147E+02 0.  0.
         13    1    3    3    0    0 -0.22248903043E+02  0.19787284763E+01 -0.32662173767E+02  0.39569657721E+02  0.10566000000E+00 0. -1.
         22    1    1    0    0    0  0.19076592210E+02  0.15348541277E+02 -0.18965133897E+02  0.30970476158E+02  0.00000000000E+00 0.  1.
</event>
<event>
 5    1  0.1262391E-009  0.9118800E+02  0.7815553E-02  0.1125453E+00
         25   -1    0    0    0    0  0.00000000000E+00  0.00000000000E+00  0.99999998245E-14  0.12509000000E+03  0.12509000000E+03 0.  0.
        -13    1    3    3    0    0  0.31518110747E+02 -0.50739875201E+02 -0.67929821643E+01  0.60117235559E+02  0.10566000000E+00 0.  1.
         23    2    1    0    0    0  0.19107201367E+02 -0.22940577286E+02  0.83069264040E+01  0.94100320160E+02  0.88851055129E+02 0.  0.
         13    1    3    3    0    0 -0.12410909380E+02  0.27799297915E+02  0.15099908568E+02  0.33983084601E+02  0.10566000000E+00 0. -1.
         22    1    1    0    0    0 -0.19107201367E+02  0.22940577286E+02 -0.83069264040E+01  0.30989679840E+02  0.00000000000E+00 0.  1.
</event>
<event>
 5    1  0.1262391E-009  0.9118800E+02  0.7815553E-02  0.1125453E+00
         25   -1    0    0    0    0  0.00000000000E+00  0.00000000000E+00  0.99999998245E-14  0.12509000000E+03  0.12509000000E+03 0.  0.
        -13    1    3    3    0    0 -0.85892565492E+01  0.87974659040E+01 -0.46428994134E+02  0.48029505460E+02  0.10566000000E+00 0. -1.
         23    2    1    0    0    0 -0.31678968887E+01  0.29010216730E+02 -0.36152479033E+01  0.95684247793E+02  0.91053704005E+02 0.  0.
         13    1    3    3    0    0  0.54213596605E+01  0.20212750826E+02  0.42813746231E+02  0.47654742333E+02  0.10566000000E+00 0.  1.
         22    1    1    0    0    0  0.31678968887E+01 -0.29010216730E+02  0.36152479033E+01  0.29405752207E+02  0.00000000000E+00 0.  1.
</event>
<event>
 5    1  0.1262391E-009  0.9118800E+02  0.7815553E-02  0.1125453E+00
         25   -1    0    0    0    0  0.00000000000E+00  0.00000000000E+00  0.99999998245E-14  0.12509000000E+03  0.12509000000E+03 0.  0.
        -13    1    3    3    0    0 -0.20798108870E+02  0.87182240584E+01  0.56977344967E+02  0.61278036578E+02  0.10566000000E+00 0.  1.
         23    2    1    0    0    0 -0.56054202730E+01 -0.37022067507E+01  0.28141226877E+02  0.96158084726E+02  0.91702352952E+02 0.  0.
         13    1    3    3    0    0  0.15192688597E+02 -0.12420430809E+02 -0.28836118090E+02  0.34880048148E+02  0.10566000000E+00 0. -1.
         22    1    1    0    0    0  0.56054202730E+01  0.37022067507E+01 -0.28141226877E+02  0.28931915274E+02  0.00000000000E+00 0.  1.
</event>
<event>
 5    1  0.1262391E-009  0.9118800E+02  0.7815553E-02  0.1125453E+00
         25   -1    0    0    0    0  0.00000000000E+00  0.00000000000E+00  0.99999998245E-14  0.12509000000E+03  0.12509000000E+03 0.  0.
        -13    1    3    3    0    0  0.92350623747E+01 -0.38355716176E+02  0.21981510713E+01  0.39513167079E+02  0.10566000000E+00 0.  1.
         23    2    1    0    0    0 -0.13362404983E+02  0.85592987412E+01  0.24287225087E+02  0.96078196122E+02  0.91593313106E+02 0.  0.
         13    1    3    3    0    0 -0.22597467358E+02  0.46915014917E+02  0.22089074015E+02  0.56565029042E+02  0.10566000000E+00 0. -1.
         22    1    1    0    0    0  0.13362404983E+02 -0.85592987412E+01 -0.24287225087E+02  0.29011803878E+02  0.00000000000E+00 0. -1.
</event>
<event>
 5    1  0.1262391E-009  0.9118800E+02  0.7815553E-02  0.1125453E+00
         25   -1    0    0    0    0  0.00000000000E+00  0.00000000000E+00  0.99999998245E-14  0.12509000000E+03  0.12509000000E+03 0.  0.
        -13    1    3    3    0    0 -0.63674761134E+01  0.23552956931E+02  0.27043780794E+02  0.36423395997E+02  0.10566000000E+00 0.  1.
         23    2    1    0    0    0  0.16393190435E+01 -0.28306724566E+02 -0.24705856343E+01  0.96628415084E+02  0.92341695813E+02 0.  0.
         13    1    3    3    0    0  0.80067951569E+01 -0.51859681496E+02 -0.29514366429E+02  0.60205019087E+02  0.10566000000E+00 0. -1.
         22    1    1    0    0    0 -0.16393190435E+01  0.28306724566E+02  0.24705856343E+01  0.28461584916E+02  0.00000000000E+00 0. -1.
</event>
<event>
 5    1  0.1262391E-009  0.9118800E+02  0.7815553E-02  0.1125453E+00
         25   -1    0    0    0    0  0.00000000000E+00  0.00000000000E+00  0.99999998245E-14  0.12509000000E+03  0.12509000000E+03 0.  0.
        -13    1    3    3    0    0 -0.46303314528E+01 -0.34768486343E+02  0.69143766788E+01  0.35750627698E+02  0.10566000000E+00 0. -1.
         23    2    1    0    0    0  0.42882704898E+01  0.12052029095E+02 -0.27648247476E+02  0.94625820089E+02  0.89587831595E+02 0.  0.
         13    1    3    3    0    0  0.89186019427E+01  0.46820515438E+02 -0.34562624155E+02  0.58875192391E+02  0.10566000000E+00 0.  1.
         22    1    1    0    0    0 -0.42882704898E+01 -0.12052029095E+02  0.27648247476E+02  0.30464179911E+02  0.00000000000E+00 0.  1.
</event>
<event>
 5    1  0.1262391E-009  0.9118800E+02  0.7815553E-02  0.1125453E+00
         25   -1    0    0    0    0  0.00000000000E+00  0.00000000000E+00  0.99999998245E-14  0.12509000000E+03  0.12509000000E+03 0.  0.
        -13    1    3    3    0    0  0.49821080049E+02 -0.32023629620E+02  0.29463001221E+01  0.59298775027E+02  0.10566000000E+00 0.  1.
         23    2    1    0    0    0  0.36554497059E+02 -0.67404364192E+01  0.14229934827E+01  0.87892020904E+02  0.79632390959E+02 0.  0.
         13    1    3    3    0    0 -0.13266582990E+02  0.25283193200E+02 -0.15233066394E+01  0.28593245877E+02  0.10566000000E+00 0. -1.
         22    1    1    0    0    0 -0.36554497059E+02  0.67404364192E+01 -0.14229934827E+01  0.37197979096E+02  0.00000000000E+00 0.  1.
</event>
<event>
 5    1  0.1262391E-009  0.9118800E+02  0.7815553E-02  0.1125453E+00
         25   -1    0    0    0    0  0.00000000000E+00  0.00000000000E+00  0.99999998245E-14  0.12509000000E+03  0.12509000000E+03 0.  0.
        -13    1    3    3    0    0 -0.73515921866E+01  0.39559724002E+02 -0.45514792545E+02  0.60750515843E+02  0.10566000000E+00 0. -1.
         23    2    1    0    0    0  0.86556668838E+00  0.25784557801E+02 -0.14940233309E+02  0.95277197414E+02  0.90492768491E+02 0.  0.
         13    1    3    3    0    0  0.82171588750E+01 -0.13775166201E+02  0.30574559235E+02  0.34526681571E+02  0.10566000000E+00 0.  1.
         22    1    1    0    0    0 -0.86556668838E+00 -0.25784557801E+02  0.14940233309E+02  0.29812802586E+02  0.00000000000E+00 0. -1.
</event>
<event>
 5    1  0.1262391E-009  0.9118800E+02  0.7815553E-02  0.1125453E+00
         25   -1    0    0    0    0  0.00000000000E+00  0.00000000000E+00  0.99999998245E-14  0.12509000000E+03  0.12509000000E+03 0.  0.
        -13    1    3    3    0    0 -0.41756871508E+02 -0.60782001831E+01  0.25349320167E+02  0.49225806571E+02  0.10566000000E+00 0. -1.
         23    2    1    0    0    0 -0.17547841910E+02  0.25953439411E+02  0.12078306640E+02  0.91513322615E+02  0.85131045757E+02 0.  0.
         13    1    3    3    0    0  0.24209029598E+02  0.32031639594E+02 -0.13271013526E+02  0.42287516044E+02  0.10566000000E+00 0.  1.
         22    1    1    0    0    0  0.17547841910E+02 -0.25953439411E+02 -0.12078306640E+02  0.33576677385E+02  0.00000000000E+00 0.  1.
</event>
<event>
 5    1  0.1262391E-009  0.9118800E+02  0.7815553E-02  0.1125453E+00
         25   -1    0    0    0    0  0.00000000000E+00  0.00000000000E+00  0.99999998245E-14  0.12509000000E+03  0.12509000000E+03 0.  0.
        -13    1    3    3    0    0  0.19873602285E+01  0.29125885243E+02  0.20976204037E+02  0.35948283571E+02  0.10566000000E+00 0. -1.
         23    2    1    0    0    0  0.20170761293E+02 -0.98170763820E+01 -0.19782341442E+02  0.95180542754E+02  0.90359062003E+02 0.  0.
         13    1    3    3    0    0  0.18183401064E+02 -0.38942961625E+02 -0.40758545479E+02  0.59232259183E+02  0.10566000000E+00 0.  1.
         22    1    1    0    0    0 -0.20170761293E+02  0.98170763820E+01  0.19782341442E+02  0.29909457246E+02  0.00000000000E+00 0.  1.
</event>
<event>
 5    1  0.1262391E-009  0.9118800E+02  0.7815553E-02  0.1125453E+00
         25   -1    0    0    0    0  0.00000000000E+00  0.00000000000E+00  0.99999998245E-14  0.12509000000E+03  0.12509000000E+03 0.  0.
        -13    1    3    3    0    0  0.30385692625E+02  0.23261735636E+02  0.43874223752E+02  0.58218187322E+02  0.10566000000E+00 0.  1.
         23    2    1    0    0    0  0.27454893443E+02  0.11461664592E+02  0.10829379772E+02  0.93429039884E+02  0.87900904991E+02 0.  0.
         13    1    3    3    0    0 -0.29307991818E+01 -0.11800071044E+02 -0.33044843980E+02  0.35210852562E+02  0.10566000000E+00 0. -1.
         22    1    1    0    0    0 -0.27454893443E+02 -0.11461664592E+02 -0.10829379772E+02  0.31660960116E+02  0.00000000000E+00 0.  1.
</event>
<event>
 5    1  0.1262391E-009  0.9118800E+02  0.7815553E-02  0.1125453E+00
         25   -1    0    0    0    0  0.00000000000E+00  0.00000000000E+00  0.99999998245E-14  0.12509000000E+03  0.12509000000E+03 0.  0.
        -13    1    3    3    0    0 -0.60854714127E+02  0.30115580966E+01 -0.34343701167E+01  0.61025992624E+02  0.10566000000E+00 0.  1.
         23    2    1    0    0    0 -0.26755763567E+02 -0.62601938611E+01  0.45068993407E+01  0.97244478764E+02  0.93172504513E+02 0.  0.
         13    1    3    3    0    0  0.34098950560E+02 -0.92717519577E+01  0.79412694574E+01  0.36218486140E+02  0.10566000000E+00 0. -1.
         22    1    1    0    0    0  0.26755763567E+02  0.62601938611E+01 -0.45068993407E+01  0.27845521236E+02  0.00000000000E+00 0.  1.
</event>
<event>
 5    1  0.1262391E-009  0.9118800E+02  0.7815553E-02  0.1125453E+00
         25   -1    0    0    0    0  0.00000000000E+00  0.00000000000E+00  0.99999998245E-14  0.12509000000E+03  0.12509000000E+03 0.  0.
        -13    1    3    3    0    0  0.20737733241E+02  0.27336422244E+02  0.56966590634E+01  0.34782131183E+02  0.10566000000E+00 0. -1.
         23    2    1    0    0    0 -0.25454705060E+02 -0.53741281804E+01  0.18937264931E+02  0.92911695718E+02  0.87161573728E+02 0.  0.
         13    1    3    3    0    0 -0.46192438301E+02 -0.32710550424E+02  0.13240605868E+02  0.58129564535E+02  0.10566000000E+00 0.  1.
         22    1    1    0    0    0  0.25454705060E+02  0.53741281804E+01 -0.18937264931E+02  0.32178304282E+02  0.00000000000E+00 0.  1.
</event>
<event>
 5    1  0.1262391E-009  0.9118800E+02  0.7815553E-02  0.1125453E+00
         25   -1    0    0    0    0  0.00000000000E+00  0.00000000000E+00  0.99999998245E-14  0.12509000000E+03  0.12509000000E+03 0.  0.
        -13    1    3    3    0    0 -0.87028971930E+01 -0.59221276572E+02  0.16776108711E+02  0.62163888278E+02  0.10566000000E+00 0.  1.
         23    2    1    0    0    0 -0.51050854324E-01 -0.28815933449E+02  0.53271188829E+01  0.95785754193E+02  0.91193047345E+02 0.  0.
         13    1    3    3    0    0  0.86518463387E+01  0.30405343123E+02 -0.11448989828E+02  0.33621865915E+02  0.10566000000E+00 0. -1.
         22    1    1    0    0    0  0.51050854324E-01  0.28815933449E+02 -0.53271188829E+01  0.29304245807E+02  0.00000000000E+00 0.  1.
</event>
<event>
 5    1  0.1262391E-009  0.9118800E+02  0.7815553E-02  0.1125453E+00
         25   -1    0    0    0    0  0.00000000000E+00  0.00000000000E+00  0.99999998245E-14  0.12509000000E+03  0.12509000000E+03 0.  0.
        -13    1    3    3    0    0 -0.28177207545E+01 -0.18586781091E+02  0.57481177137E+02  0.60477308726E+02  0.10566000000E+00 0.  1.
         23    2    1    0    0    0  0.22447546447E+01  0.21617676543E+01  0.28191213317E+02  0.96727054612E+02  0.92475220588E+02 0.  0.
         13    1    3    3    0    0  0.50624753992E+01  0.20748548745E+02 -0.29289963820E+02  0.36249745886E+02  0.10566000000E+00 0. -1.
         22    1    1    0    0    0 -0.22447546447E+01 -0.21617676543E+01 -0.28191213317E+02  0.28362945388E+02  0.00000000000E+00 0.  1.
</event>
<event>
 5    1  0.1262391E-009  0.9118800E+02  0.7815553E-02  0.1125453E+00
         25   -1    0    0    0    0  0.00000000000E+00  0.00000000000E+00  0.99999998245E-14  0.12509000000E+03  0.12509000000E+03 0.  0.
        -13    1    3    3    0    0 -0.37148689817E+02  0.89291063047E+01  0.22744877046E+02  0.44464532949E+02  0.10566000000E+00 0.  1.
         23    2    1    0    0    0  0.19879194967E+01 -0.23432415054E+02  0.18012029613E+02  0.95467996186E+02  0.90756130293E+02 0.  0.
         13    1    3    3    0    0  0.39136609314E+02 -0.32361521359E+02 -0.47328474332E+01  0.51003463237E+02  0.10566000000E+00 0. -1.
         22    1    1    0    0    0 -0.19879194967E+01  0.23432415054E+02 -0.18012029613E+02  0.29622003814E+02  0.00000000000E+00 0. -1.
</event>
<event>
 5    1  0.1262391E-009  0.9118800E+02  0.7815553E-02  0.1125453E+00
         25   -1    0    0    0    0  0.00000000000E+00  0.00000000000E+00  0.99999998245E-14  0.12509000000E+03  0.12509000000E+03 0.  0.
        -13    1    3    3    0    0 -0.32185045952E+02  0.41478648890E+02 -0.20543000614E+02  0.56377136633E+02  0.10566000000E+00 0.  1.
         23    2    1    0    0    0 -0.20355576803E+02  0.40387529569E+01 -0.20891617040E+02  0.95643086835E+02  0.90997139320E+02 0.  0.
         13    1    3    3    0    0  0.11829469149E+02 -0.37439895933E+02 -0.34861642555E+00  0.39265950202E+02  0.10566000000E+00 0. -1.
         22    1    1    0    0    0  0.20355576803E+02 -0.40387529569E+01  0.20891617040E+02  0.29446913165E+02  0.00000000000E+00 0.  1.
</event>
<event>
 5    1  0.1262391E-009  0.9118800E+02  0.7815553E-02  0.1125453E+00
         25   -1    0    0    0    0  0.00000000000E+00  0.00000000000E+00  0.99999998245E-14  0.12509000000E+03  0.12509000000E+03 0.  0.
        -13    1    3    3    0    0 -0.29439239390E+02 -0.16147734220E+01  0.33608367647E+02  0.44708051277E+02  0.10566000000E+00 0.  1.
         23    2    1    0    0    0 -0.22095606391E+02  0.12754627483E+02 -0.14703336470E+02  0.95643702315E+02  0.90997985391E+02 0.  0.
         13    1    3    3    0    0  0.73436329991E+01  0.14369400905E+02 -0.48311704117E+02  0.50935651038E+02  0.10566000000E+00 0. -1.
         22    1    1    0    0    0  0.22095606391E+02 -0.12754627483E+02  0.14703336470E+02  0.29446297685E+02  0.00000000000E+00 0. -1.
</event>
<event>
 5    1  0.1262391E-009  0.9118800E+02  0.7815553E-02  0.1125453E+00
         25   -1    0    0    0    0  0.00000000000E+00  0.00000000000E+00  0.99999998245E-14  0.12509000000E+03  0.12509000000E+03 0.  0.
        -13    1    3    3    0    0 -0.31989956495E+02 -0.24746337492E+02  0.13572960863E+02  0.42661164617E+02  0.10566000000E+00 0. -1.
         23    2    1    0    0    0 -0.15060626394E+02  0.10354222731E+02 -0.22731976846E+02  0.95921949550E+02  0.91379676288E+02 0.  0.
         13    1    3    3    0    0  0.16929330101E+02  0.35100560223E+02 -0.36304937708E+02  0.53260784933E+02  0.10566000000E+00 0.  1.
         22    1    1    0    0    0  0.15060626394E+02 -0.10354222731E+02  0.22731976846E+02  0.29168050450E+02  0.00000000000E+00 0. -1.
</event>
<event>
 5    1  0.1262391E-009  0.9118800E+02  0.7815553E-02  0.1125453E+00
         25   -1    0    0    0    0  0.00000000000E+00  0.00000000000E+00  0.99999998245E-14  0.12509000000E+03  0.12509000000E+03 0.  0.
        -13    1    3    3    0    0 -0.42791899816E+02  0.67255879576E+00  0.33728068408E+02  0.54490299942E+02  0.10566000000E+00 0.  1.
         23    2    1    0    0    0 -0.33499764809E+02 -0.29400943095E+00 -0.21064915030E+01  0.91522783996E+02  0.85144947003E+02 0.  0.
         13    1    3    3    0    0  0.92921350069E+01 -0.96656822671E+00 -0.35834559911E+02  0.37032484054E+02  0.10566000000E+00 0. -1.
         22    1    1    0    0    0  0.33499764809E+02  0.29400943095E+00  0.21064915030E+01  0.33567216004E+02  0.00000000000E+00 0.  1.
</event>
<event>
 5    1  0.1262391E-009  0.9118800E+02  0.7815553E-02  0.1125453E+00
         25   -1    0    0    0    0  0.00000000000E+00  0.00000000000E+00  0.99999998245E-14  0.12509000000E+03  0.12509000000E+03 0.  0.
        -13    1    3    3    0    0  0.10927761116E+02 -0.18005347202E+02  0.43733213326E+02  0.48540844685E+02  0.10566000000E+00 0.  1.
         23    2    1    0    0    0  0.28138022852E+02  0.28861252155E+01  0.41386814823E+01  0.96503172034E+02  0.92171880090E+02 0.  0.
         13    1    3    3    0    0  0.17210261735E+02  0.20891472418E+02 -0.39594531844E+02  0.47962327349E+02  0.10566000000E+00 0. -1.
         22    1    1    0    0    0 -0.28138022852E+02 -0.28861252155E+01 -0.41386814823E+01  0.28586827966E+02  0.00000000000E+00 0. -1.
</event>
<event>
 5    1  0.1262391E-009  0.9118800E+02  0.7815553E-02  0.1125453E+00
         25   -1    0    0    0    0  0.00000000000E+00  0.00000000000E+00  0.99999998245E-14  0.12509000000E+03  0.12509000000E+03 0.  0.
        -13    1    3    3    0    0  0.25491672877E+02 -0.42455326810E+01 -0.23986418860E+02  0.35259174516E+02  0.10566000000E+00 0.  1.
         23    2    1    0    0    0 -0.21913431451E+02  0.20130289239E+02  0.33162145592E+01  0.95149654280E+02  0.90316290932E+02 0.  0.
         13    1    3    3    0    0 -0.47405104328E+02  0.24375821920E+02  0.27302633420E+02  0.59890479764E+02  0.10566000000E+00 0. -1.
         22    1    1    0    0    0  0.21913431451E+02 -0.20130289239E+02 -0.33162145592E+01  0.29940345720E+02  0.00000000000E+00 0. -1.
</event>
<event>
 5    1  0.1262391E-009  0.9118800E+02  0.7815553E-02  0.1125453E+00
         25   -1    0    0    0    0  0.00000000000E+00  0.00000000000E+00  0.99999998245E-14  0.12509000000E+03  0.12509000000E+03 0.  0.
        -13    1    3    3    0    0 -0.26031070653E+02 -0.16025567712E+00 -0.20010420492E+02  0.32833982602E+02  0.10566000000E+00 0.  1.
         23    2    1    0    0    0  0.27583825430E+02  0.47459424797E+01  0.11059718964E+02  0.94995004088E+02  0.90101842505E+02 0.  0.
         13    1    3    3    0    0  0.53614896083E+02  0.49061981568E+01  0.31070139456E+02  0.62161021486E+02  0.10566000000E+00 0. -1.
         22    1    1    0    0    0 -0.27583825430E+02 -0.47459424797E+01 -0.11059718964E+02  0.30094995912E+02  0.00000000000E+00 0. -1.
</event>
<event>
 5    1  0.1262391E-009  0.9118800E+02  0.7815553E-02  0.1125453E+00
         25   -1    0    0    0    0  0.00000000000E+00  0.00000000000E+00  0.99999998245E-14  0.12509000000E+03  0.12509000000E+03 0.  0.
        -13    1    3    3    0    0 -0.25267194738E+02 -0.20841854927E+02 -0.94296200973E+01  0.34084350455E+02  0.10566000000E+00 0.  1.
         23    2    1    0    0    0  0.15479598857E+02  0.13543007599E+02  0.21183366609E+02  0.95564315308E+02  0.90888790859E+02 0.  0.
         13    1    3    3    0    0  0.40746793595E+02  0.34384862526E+02  0.30612986707E+02  0.61479964853E+02  0.10566000000E+00 0. -1.
         22    1    1    0    0    0 -0.15479598857E+02 -0.13543007599E+02 -0.21183366609E+02  0.29525684692E+02  0.00000000000E+00 0. -1.
</event>
<event>
 5    1  0.1262391E-009  0.9118800E+02  0.7815553E-02  0.1125453E+00
         25   -1    0    0    0    0  0.00000000000E+00  0.00000000000E+00  0.99999998245E-14  0.12509000000E+03  0.12509000000E+03 0.  0.
        -13    1    3    3    0    0 -0.25461580382E+02  0.30983154686E+02 -0.10712203800E+02  0.41509160725E+02  0.10566000000E+00 0.  1.
         23    2    1    0    0    0  0.12763814040E+02 -0.26710484197E+01 -0.27104642097E+02  0.95011584621E+02  0.90124858616E+02 0.  0.
         13    1    3    3    0    0  0.38225394422E+02 -0.33654203106E+02 -0.16392438297E+02  0.53502423896E+02  0.10566000000E+00 0. -1.
         22    1    1    0    0    0 -0.12763814040E+02  0.26710484197E+01  0.27104642097E+02  0.30078415379E+02  0.00000000000E+00 0.  1.
</event>
<event>
 5    1  0.1262391E-009  0.9118800E+02  0.7815553E-02  0.1125453E+00
         25   -1    0    0    0    0  0.00000000000E+00  0.00000000000E+00  0.99999998245E-14  0.12509000000E+03  0.12509000000E+03 0.  0.
        -13    1    3    3    0    0  0.21932267341E+01  0.10617837248E+02 -0.29543308366E+02  0.31470096037E+02  0.10566000000E+00 0. -1.
         23    2    1    0    0    0  0.93635334960E+00 -0.51347942095E+01  0.30801274341E+02  0.93849619558E+02  0.88497399515E+02 0.  0.
         13    1    3    3    0    0 -0.12568733845E+01 -0.15752631457E+02  0.60344582707E+02  0.62379523521E+02  0.10566000000E+00 0.  1.
         22    1    1    0    0    0 -0.93635334960E+00  0.51347942095E+01 -0.30801274341E+02  0.31240380442E+02  0.00000000000E+00 0.  1.
</event>
<event>
 5    1  0.1262391E-009  0.9118800E+02  0.7815553E-02  0.1125453E+00
         25   -1    0    0    0    0  0.00000000000E+00  0.00000000000E+00  0.99999998245E-14  0.12509000000E+03  0.12509000000E+03 0.  0.
        -13    1    3    3    0    0  0.23450259230E+02 -0.17213160757E+02  0.30849263082E+02  0.42401600889E+02  0.10566000000E+00 0.  1.
         23    2    1    0    0    0  0.21264728722E+02 -0.18914250417E+02 -0.18056461986E+02  0.91385795872E+02  0.84943453610E+02 0.  0.
         13    1    3    3    0    0 -0.21855305080E+01 -0.17010896594E+01 -0.48905725069E+02  0.48984194983E+02  0.10566000000E+00 0. -1.
         22    1    1    0    0    0 -0.21264728722E+02  0.18914250417E+02  0.18056461986E+02  0.33704204128E+02  0.00000000000E+00 0. -1.
</event>
<event>
 5    1  0.1262391E-009  0.9118800E+02  0.7815553E-02  0.1125453E+00
         25   -1    0    0    0    0  0.00000000000E+00  0.00000000000E+00  0.99999998245E-14  0.12509000000E+03  0.12509000000E+03 0.  0.
        -13    1    3    3    0    0  0.10105320772E+01  0.52839914493E+02 -0.23445882098E+02  0.57816937744E+02  0.10566000000E+00 0.  1.
         23    2    1    0    0    0  0.91876718626E+01  0.13706365615E+02 -0.21693310815E+02  0.97834220673E+02  0.93960934584E+02 0.  0.
         13    1    3    3    0    0  0.81771397854E+01 -0.39133548878E+02  0.17525712827E+01  0.40017282929E+02  0.10566000000E+00 0. -1.
         22    1    1    0    0    0 -0.91876718626E+01 -0.13706365615E+02  0.21693310815E+02  0.27255779327E+02  0.00000000000E+00 0.  1.
</event>
<event>
 5    1  0.1262391E-009  0.9118800E+02  0.7815553E-02  0.1125453E+00
         25   -1    0    0    0    0  0.00000000000E+00  0.00000000000E+00  0.99999998245E-14  0.12509000000E+03  0.12509000000E+03 0.  0.
        -13    1    3    3    0    0 -0.22669153669E+02 -0.38599981887E+02  0.33747451059E+02  0.56060242122E+02  0.10566000000E+00 0.  1.
         23    2    1    0    0    0 -0.19996560731E+02  0.27487686632E+00  0.18316545197E+02  0.97971116794E+02  0.94143007704E+02 0.  0.
         13    1    3    3    0    0  0.26725929380E+01  0.38874858753E+02 -0.15430905862E+02  0.41910874673E+02  0.10566000000E+00 0. -1.
         22    1    1    0    0    0  0.19996560731E+02 -0.27487686632E+00 -0.18316545197E+02  0.27118883206E+02  0.00000000000E+00 0.  1.
</event>
<event>
 5    1  0.1262391E-009  0.9118800E+02  0.7815553E-02  0.1125453E+00
         25   -1    0    0    0    0  0.00000000000E+00  0.00000000000E+00  0.99999998245E-14  0.12509000000E+03  0.12509000000E+03 0.  0.
        -13    1    3    3    0    0  0.24948480749E+02  0.29810223390E+02  0.37500324827E+01  0.39053169114E+02  0.10566000000E+00 0. -1.
         23    2    1    0    0    0  0.10966120633E+02 -0.23470944487E+02  0.14826211619E+02  0.95241087326E+02  0.90442839005E+02 0.  0.
         13    1    3    3    0    0 -0.13982360116E+02 -0.53281167877E+02  0.11076179136E+02  0.56187918212E+02  0.10566000000E+00 0.  1.
         22    1    1    0    0    0 -0.10966120633E+02  0.23470944487E+02 -0.14826211619E+02  0.29848912674E+02  0.00000000000E+00 0.  1.
</event>
<event>
 5    1  0.1262391E-009  0.9118800E+02  0.7815553E-02  0.1125453E+00
         25   -1    0    0    0    0  0.00000000000E+00  0.00000000000E+00  0.99999998245E-14  0.12509000000E+03  0.12509000000E+03 0.  0.
        -13    1    3    3    0    0  0.27780639821E+02 -0.14893761576E+02 -0.21357148657E+02  0.38075281293E+02  0.10566000000E+00 0.  1.
         23    2    1    0    0    0  0.20563763004E+01  0.17501081844E+02  0.21266288826E+02  0.97471680181E+02  0.93477039147E+02 0.  0.
         13    1    3    3    0    0 -0.25724263521E+02  0.32394843420E+02  0.42623437483E+02  0.59396398888E+02  0.10566000000E+00 0. -1.
         22    1    1    0    0    0 -0.20563763004E+01 -0.17501081844E+02 -0.21266288826E+02  0.27618319819E+02  0.00000000000E+00 0. -1.
</event>
<event>
 5    1  0.1262391E-009  0.9118800E+02  0.7815553E-02  0.1125453E+00
         25   -1    0    0    0    0  0.00000000000E+00  0.00000000000E+00  0.99999998245E-14  0.12509000000E+03  0.12509000000E+03 0.  0.
        -13    1    3    3    0    0 -0.17448517541E+01 -0.10082611638E+02 -0.37056266541E+02  0.38443225919E+02  0.10566000000E+00 0. -1.
         23    2    1    0    0    0  0.98344198340E+01 -0.19757079458E+02  0.18674054072E+02  0.96180169532E+02  0.91732473605E+02 0.  0.
         13    1    3    3    0    0  0.11579271588E+02 -0.96744678203E+01  0.55730320613E+02  0.57736943613E+02  0.10566000000E+00 0.  1.
         22    1    1    0    0    0 -0.98344198340E+01  0.19757079458E+02 -0.18674054072E+02  0.28909830468E+02  0.00000000000E+00 0.  1.
</event>
<event>
 5    1  0.1262391E-009  0.9118800E+02  0.7815553E-02  0.1125453E+00
         25   -1    0    0    0    0  0.00000000000E+00  0.00000000000E+00  0.99999998245E-14  0.12509000000E+03  0.12509000000E+03 0.  0.
        -13    1    3    3    0    0  0.23106305245E+02  0.24874936429E+02 -0.58656010429E+01  0.34454030882E+02  0.10566000000E+00 0. -1.
         23    2    1    0    0    0 -0.55799362114E+01 -0.25014127604E+02  0.14673296947E+02  0.95557849533E+02  0.90879891594E+02 0.  0.
         13    1    3    3    0    0 -0.28686241456E+02 -0.49889064033E+02  0.20538897990E+02  0.61103818650E+02  0.10566000000E+00 0.  1.
         22    1    1    0    0    0  0.55799362114E+01  0.25014127604E+02 -0.14673296947E+02  0.29532150467E+02  0.00000000000E+00 0.  1.
</event>
<event>
 5    1  0.1262391E-009  0.9118800E+02  0.7815553E-02  0.1125453E+00
         25   -1    0    0    0    0  0.00000000000E+00  0.00000000000E+00  0.99999998245E-14  0.12509000000E+03  0.12509000000E+03 0.  0.
        -13    1    3    3    0    0  0.14888206594E+00  0.11551984331E+02  0.28474381930E+02  0.30729010693E+02  0.10566000000E+00 0. -1.
         23    2    1    0    0    0 -0.12109813680E+02 -0.18659166890E+01 -0.30383394721E+02  0.92329049049E+02  0.86321337982E+02 0.  0.
         13    1    3    3    0    0 -0.12258695746E+02 -0.13417901020E+02 -0.58857776651E+02  0.61600038356E+02  0.10566000000E+00 0.  1.
         22    1    1    0    0    0  0.12109813680E+02  0.18659166890E+01  0.30383394721E+02  0.32760950951E+02  0.00000000000E+00 0.  1.
</event>
<event>
 5    1  0.1262391E-009  0.9118800E+02  0.7815553E-02  0.1125453E+00
         25   -1    0    0    0    0  0.00000000000E+00  0.00000000000E+00  0.99999998245E-14  0.12509000000E+03  0.12509000000E+03 0.  0.
        -13    1    3    3    0    0 -0.26787264420E+02  0.27600349113E+02 -0.36255364551E+02  0.52856403860E+02  0.10566000000E+00 0.  1.
         23    2    1    0    0    0 -0.16121732797E+02  0.22701241343E+02  0.59111315630E+01  0.96626020952E+02  0.92338452563E+02 0.  0.
         13    1    3    3    0    0  0.10665531622E+02 -0.48991077702E+01  0.42166496114E+02  0.43769617091E+02  0.10566000000E+00 0. -1.
         22    1    1    0    0    0  0.16121732797E+02 -0.22701241343E+02 -0.59111315630E+01  0.28463979048E+02  0.00000000000E+00 0. -1.
</event>
<event>
 5    1  0.1262391E-009  0.9118800E+02  0.7815553E-02  0.1125453E+00
         25   -1    0    0    0    0  0.00000000000E+00  0.00000000000E+00  0.99999998245E-14  0.12509000000E+03  0.12509000000E+03 0.  0.
        -13    1    3    3    0    0  0.55418602050E+02 -0.14751184617E+02  0.16083585249E+02  0.59560992094E+02  0.10566000000E+00 0.  1.
         23    2    1    0    0    0  0.28528478027E+02  0.47817588282E+01  0.77467973538E+00  0.96153182540E+02  0.91695665699E+02 0.  0.
         13    1    3    3    0    0 -0.26890124023E+02  0.19532943445E+02 -0.15308905513E+02  0.36592190446E+02  0.10566000000E+00 0. -1.
         22    1    1    0    0    0 -0.28528478027E+02 -0.47817588282E+01 -0.77467973538E+00  0.28936817460E+02  0.00000000000E+00 0.  1.
</event>
<event>
 5    1  0.1262391E-009  0.9118800E+02  0.7815553E-02  0.1125453E+00
         25   -1    0    0    0    0  0.00000000000E+00  0.00000000000E+00  0.99999998245E-14  0.12509000000E+03  0.12509000000E+03 0.  0.
        -13    1    3    3    0    0 -0.28621929863E+02  0.69063042333E+01 -0.18058238090E+02  0.34540165521E+02  0.10566000000E+00 0. -1.
         23    2    1    0    0    0  0.22867394051E+02 -0.18519819920E+02  0.25554071762E+01  0.95553047781E+02  0.90873282068E+02 0.  0.
         13    1    3    3    0    0  0.51489323913E+02 -0.25426124153E+02  0.20613645267E+02  0.61012882261E+02  0.10566000000E+00 0.  1.
         22    1    1    0    0    0 -0.22867394051E+02  0.18519819920E+02 -0.25554071762E+01  0.29536952219E+02  0.00000000000E+00 0.  1.
</event>
<event>
 5    1  0.1262391E-009  0.9118800E+02  0.7815553E-02  0.1125453E+00
         25   -1    0    0    0    0  0.00000000000E+00  0.00000000000E+00  0.99999998245E-14  0.12509000000E+03  0.12509000000E+03 0.  0.
        -13    1    3    3    0    0 -0.44045812851E+01  0.35578599393E+02 -0.95780042206E+01  0.37107767380E+02  0.10566000000E+00 0.  1.
         23    2    1    0    0    0 -0.15320464670E+02 -0.23028409109E+02 -0.37902053860E+00  0.97428331208E+02  0.93419011992E+02 0.  0.
         13    1    3    3    0    0 -0.10915883385E+02 -0.58607008502E+02  0.91989836820E+01  0.60320563827E+02  0.10566000000E+00 0. -1.
         22    1    1    0    0    0  0.15320464670E+02  0.23028409109E+02  0.37902053860E+00  0.27661668792E+02  0.00000000000E+00 0. -1.
</event>
<event>
 5    1  0.1262391E-009  0.9118800E+02  0.7815553E-02  0.1125453E+00
         25   -1    0    0    0    0  0.00000000000E+00  0.00000000000E+00  0.99999998245E-14  0.12509000000E+03  0.12509000000E+03 0.  0.
        -13    1    3    3    0    0 -0.15563308007E+02 -0.14782375986E+02  0.38601379388E+02  0.44168007093E+02  0.10566000000E+00 0. -1.
         23    2    1    0    0    0 -0.48216682310E+01  0.27246730447E+02  0.13272672053E+02  0.94401294781E+02  0.89273780184E+02 0.  0.
         13    1    3    3    0    0  0.10741639776E+02  0.42029106433E+02 -0.25328707335E+02  0.50233287688E+02  0.10566000000E+00 0.  1.
         22    1    1    0    0    0  0.48216682310E+01 -0.27246730447E+02 -0.13272672053E+02  0.30688705219E+02  0.00000000000E+00 0.  1.
</event>
<event>
 5    1  0.1262391E-009  0.9118800E+02  0.7815553E-02  0.1125453E+00
         25   -1    0    0    0    0  0.00000000000E+00  0.00000000000E+00  0.99999998245E-14  0.12509000000E+03  0.12509000000E+03 0.  0.
        -13    1    3    3    0    0  0.19554830374E+02  0.24218856863E+02 -0.24291325951E+02  0.39484479219E+02  0.10566000000E+00 0.  1.
         23    2    1    0    0    0 -0.16785949088E+02 -0.18955206014E+02 -0.11133628130E+02  0.97430903899E+02  0.93422456815E+02 0.  0.
         13    1    3    3    0    0 -0.36340779461E+02 -0.43174062877E+02  0.13157697821E+02  0.57946424680E+02  0.10566000000E+00 0. -1.
         22    1    1    0    0    0  0.16785949088E+02  0.18955206014E+02  0.11133628130E+02  0.27659096101E+02  0.00000000000E+00 0. -1.
</event>
<event>
 5    1  0.1262391E-009  0.9118800E+02  0.7815553E-02  0.1125453E+00
         25   -1    0    0    0    0  0.00000000000E+00  0.00000000000E+00  0.99999998245E-14  0.12509000000E+03  0.12509000000E+03 0.  0.
        -13    1    3    3    0    0  0.20588165037E+02 -0.25152377075E+02 -0.38522323954E+02  0.50403325475E+02  0.10566000000E+00 0.  1.
         23    2    1    0    0    0  0.28850185523E+02 -0.37720185166E+01  0.87247631970E+00  0.95981194745E+02  0.91460741312E+02 0.  0.
         13    1    3    3    0    0  0.82620204868E+01  0.21380358559E+02  0.39394800273E+02  0.45577869270E+02  0.10566000000E+00 0. -1.
         22    1    1    0    0    0 -0.28850185523E+02  0.37720185166E+01 -0.87247631970E+00  0.29108805255E+02  0.00000000000E+00 0.  1.
</event>
<event>
 5    1  0.1262391E-009  0.9118800E+02  0.7815553E-02  0.1125453E+00
         25   -1    0    0    0    0  0.00000000000E+00  0.00000000000E+00  0.99999998245E-14  0.12509000000E+03  0.12509000000E+03 0.  0.
        -13    1    3    3    0    0  0.17779046238E+02 -0.19631695883E+01 -0.28950511854E+02  0.34030748164E+02  0.10566000000E+00 0.  1.
         23    2    1    0    0    0 -0.15805922814E+02  0.54770561470E+01  0.23189951727E+02  0.96496308368E+02  0.92162564675E+02 0.  0.
         13    1    3    3    0    0 -0.33584969052E+02  0.74402257353E+01  0.52140463580E+02  0.62465560204E+02  0.10566000000E+00 0. -1.
         22    1    1    0    0    0  0.15805922814E+02 -0.54770561470E+01 -0.23189951727E+02  0.28593691632E+02  0.00000000000E+00 0. -1.
</event>
<event>
 5    1  0.1262391E-009  0.9118800E+02  0.7815553E-02  0.1125453E+00
         25   -1    0    0    0    0  0.00000000000E+00  0.00000000000E+00  0.99999998245E-14  0.12509000000E+03  0.12509000000E+03 0.  0.
        -13    1    3    3    0    0 -0.24188436342E+02  0.23133633979E+02 -0.22786181416E+02  0.40490328491E+02  0.10566000000E+00 0. -1.
         23    2    1    0    0    0  0.25678516612E+02  0.11249733020E+02  0.10742657666E+01  0.97034755297E+02  0.92890510711E+02 0.  0.
         13    1    3    3    0    0  0.49866952954E+02 -0.11883900959E+02  0.23860447183E+02  0.56544426805E+02  0.10566000000E+00 0.  1.
         22    1    1    0    0    0 -0.25678516612E+02 -0.11249733020E+02 -0.10742657666E+01  0.28055244703E+02  0.00000000000E+00 0.  1.
</event>
<event>
 5    1  0.1262391E-009  0.9118800E+02  0.7815553E-02  0.1125453E+00
         25   -1    0    0    0    0  0.00000000000E+00  0.00000000000E+00  0.99999998245E-14  0.12509000000E+03  0.12509000000E+03 0.  0.
        -13    1    3    3    0    0  0.11092336776E+02  0.31437595204E+02 -0.22013278176E+02  0.39949441892E+02  0.10566000000E+00 0.  1.
         23    2    1    0    0    0 -0.97917648387E+01  0.93495970387E+01  0.25421272886E+02  0.96288355279E+02  0.91879881496E+02 0.  0.
         13    1    3    3    0    0 -0.20884101615E+02 -0.22087998166E+02  0.47434551062E+02  0.56338913388E+02  0.10566000000E+00 0. -1.
         22    1    1    0    0    0  0.97917648387E+01 -0.93495970387E+01 -0.25421272886E+02  0.28801644721E+02  0.00000000000E+00 0. -1.
</event>
<event>
 5    1  0.1262391E-009  0.9118800E+02  0.7815553E-02  0.1125453E+00
         25   -1    0    0    0    0  0.00000000000E+00  0.00000000000E+00  0.99999998245E-14  0.12509000000E+03  0.12509000000E+03 0.  0.
        -13    1    3    3    0    0  0.77039875872E+01  0.32453686536E+02 -0.18707303744E+02  0.38243529805E+02  0.10566000000E+00 0. -1.
         23    2    1    0    0    0  0.68155736032E+01 -0.23079167524E+02  0.78109599669E+01  0.99789582755E+02  0.96529009700E+02 0.  0.
         13    1    3    3    0    0 -0.88841398394E+00 -0.55532854060E+02  0.26518263711E+02  0.61546052950E+02  0.10566000000E+00 0.  1.
         22    1    1    0    0    0 -0.68155736032E+01  0.23079167524E+02 -0.78109599669E+01  0.25300417245E+02  0.00000000000E+00 0.  1.
</event>
<event>
 5    1  0.1262391E-009  0.9118800E+02  0.7815553E-02  0.1125453E+00
         25   -1    0    0    0    0  0.00000000000E+00  0.00000000000E+00  0.99999998245E-14  0.12509000000E+03  0.12509000000E+03 0.  0.
        -13    1    3    3    0    0 -0.19228222069E+02 -0.11799757338E+02 -0.37587541666E+02  0.43838262393E+02  0.10566000000E+00 0. -1.
         23    2    1    0    0    0  0.16837193062E+02  0.18299419767E+02 -0.15867001622E+02  0.95592176784E+02  0.90927128448E+02 0.  0.
         13    1    3    3    0    0  0.36065415131E+02  0.30099177105E+02  0.21720540044E+02  0.51753914391E+02  0.10566000000E+00 0.  1.
         22    1    1    0    0    0 -0.16837193062E+02 -0.18299419767E+02  0.15867001622E+02  0.29497823216E+02  0.00000000000E+00 0.  1.
</event>
<event>
 5    1  0.1262391E-009  0.9118800E+02  0.7815553E-02  0.1125453E+00
         25   -1    0    0    0    0  0.00000000000E+00  0.00000000000E+00  0.99999998245E-14  0.12509000000E+03  0.12509000000E+03 0.  0.
        -13    1    3    3    0    0  0.16191622909E+01 -0.15314637413E+02  0.26596164807E+02  0.30733157210E+02  0.10566000000E+00 0. -1.
         23    2    1    0    0    0 -0.26439801099E+02 -0.23780510270E+02 -0.18874217979E+02  0.84830692316E+02  0.74668832210E+02 0.  0.
         13    1    3    3    0    0 -0.28058963390E+02 -0.84658728574E+01 -0.45470382786E+02  0.54097535106E+02  0.10566000000E+00 0.  1.
         22    1    1    0    0    0  0.26439801099E+02  0.23780510270E+02  0.18874217979E+02  0.40259307684E+02  0.00000000000E+00 0. -1.
</event>
<event>
 5    1  0.1262391E-009  0.9118800E+02  0.7815553E-02  0.1125453E+00
         25   -1    0    0    0    0  0.00000000000E+00  0.00000000000E+00  0.99999998245E-14  0.12509000000E+03  0.12509000000E+03 0.  0.
        -13    1    3    3    0    0 -0.20838459766E+02  0.77316989622E+00 -0.35422222685E+02  0.41104552316E+02  0.10566000000E+00 0.  1.
         23    2    1    0    0    0  0.26669234228E+01  0.15816133760E+02  0.17757005162E+02  0.10116148563E+03  0.98290754270E+02 0.  0.
         13    1    3    3    0    0  0.23505383189E+02  0.15042963864E+02  0.53179227847E+02  0.60056933314E+02  0.10566000000E+00 0. -1.
         22    1    1    0    0    0 -0.26669234228E+01 -0.15816133760E+02 -0.17757005162E+02  0.23928514370E+02  0.00000000000E+00 0. -1.
</event>
<event>
 5    1  0.1262391E-009  0.9118800E+02  0.7815553E-02  0.1125453E+00
         25   -1    0    0    0    0  0.00000000000E+00  0.00000000000E+00  0.99999998245E-14  0.12509000000E+03  0.12509000000E+03 0.  0.
        -13    1    3    3    0    0  0.52449384244E+02 -0.26328883948E+02 -0.67191638928E+01  0.59070350980E+02  0.10566000000E+00 0. -1.
         23    2    1    0    0    0  0.29092212221E+02  0.17526046270E+01 -0.34261035123E+01  0.95744359435E+02  0.91136248241E+02 0.  0.
         13    1    3    3    0    0 -0.23357172022E+02  0.28081488574E+02  0.32930603805E+01  0.36674008455E+02  0.10566000000E+00 0.  1.
         22    1    1    0    0    0 -0.29092212221E+02 -0.17526046270E+01  0.34261035123E+01  0.29345640565E+02  0.00000000000E+00 0. -1.
</event>
<event>
 5    1  0.1262391E-009  0.9118800E+02  0.7815553E-02  0.1125453E+00
         25   -1    0    0    0    0  0.00000000000E+00  0.00000000000E+00  0.99999998245E-14  0.12509000000E+03  0.12509000000E+03 0.  0.
        -13    1    3    3    0    0 -0.47173652330E+02 -0.23503113680E+02 -0.81012602714E+01  0.53323460210E+02  0.10566000000E+00 0.  1.
         23    2    1    0    0    0 -0.14225239894E+02 -0.20108293989E+02  0.17236804640E+02  0.95026594149E+02  0.90145688883E+02 0.  0.
         13    1    3    3    0    0  0.32948412436E+02  0.33948196911E+01  0.25338064912E+02  0.41703133938E+02  0.10566000000E+00 0. -1.
         22    1    1    0    0    0  0.14225239894E+02  0.20108293989E+02 -0.17236804640E+02  0.30063405851E+02  0.00000000000E+00 0. -1.
</event>
<event>
 5    1  0.1262391E-009  0.9118800E+02  0.7815553E-02  0.1125453E+00
         25   -1    0    0    0    0  0.00000000000E+00  0.00000000000E+00  0.99999998245E-14  0.12509000000E+03  0.12509000000E+03 0.  0.
        -13    1    3    3    0    0 -0.40413825291E+02  0.93739445486E+01 -0.74981237708E+01  0.42158998271E+02  0.10566000000E+00 0.  1.
         23    2    1    0    0    0 -0.52316934227E+01 -0.28983549001E+02  0.37227732189E+01  0.95403710754E+02  0.90667481803E+02 0.  0.
         13    1    3    3    0    0  0.35182131869E+02 -0.38357493549E+02  0.11220896990E+02  0.53244712484E+02  0.10566000000E+00 0. -1.
         22    1    1    0    0    0  0.52316934227E+01  0.28983549001E+02 -0.37227732189E+01  0.29686289246E+02  0.00000000000E+00 0. -1.
</event>
<event>
 5    1  0.1262391E-009  0.9118800E+02  0.7815553E-02  0.1125453E+00
         25   -1    0    0    0    0  0.00000000000E+00  0.00000000000E+00  0.99999998245E-14  0.12509000000E+03  0.12509000000E+03 0.  0.
        -13    1    3    3    0    0  0.14618381942E+02  0.15424827431E+02  0.26893380639E+02  0.34276631663E+02  0.10566000000E+00 0.  1.
         23    2    1    0    0    0  0.50091528561E+01 -0.18345509476E+02 -0.22975022193E+02  0.95265497069E+02  0.90476593420E+02 0.  0.
         13    1    3    3    0    0 -0.96092290858E+01 -0.33770336908E+02 -0.49868402833E+02  0.60988865407E+02  0.10566000000E+00 0. -1.
         22    1    1    0    0    0 -0.50091528561E+01  0.18345509476E+02  0.22975022193E+02  0.29824502931E+02  0.00000000000E+00 0.  1.
</event>
<event>
 5    1  0.1262391E-009  0.9118800E+02  0.7815553E-02  0.1125453E+00
         25   -1    0    0    0    0  0.00000000000E+00  0.00000000000E+00  0.99999998245E-14  0.12509000000E+03  0.12509000000E+03 0.  0.
        -13    1    3    3    0    0  0.49874274714E+02  0.21468036866E+01  0.24975102819E+02  0.55819521399E+02  0.10566000000E+00 0. -1.
         23    2    1    0    0    0  0.26887968125E+02 -0.10288163128E+02 -0.53029241734E+01  0.95816630955E+02  0.91235391337E+02 0.  0.
         13    1    3    3    0    0 -0.22986306590E+02 -0.12434966815E+02 -0.30278026992E+02  0.39997109557E+02  0.10566000000E+00 0.  1.
         22    1    1    0    0    0 -0.26887968125E+02  0.10288163128E+02  0.53029241734E+01  0.29273369045E+02  0.00000000000E+00 0. -1.
</event>
<event>
 5    1  0.1262391E-009  0.9118800E+02  0.7815553E-02  0.1125453E+00
         25   -1    0    0    0    0  0.00000000000E+00  0.00000000000E+00  0.99999998245E-14  0.12509000000E+03  0.12509000000E+03 0.  0.
        -13    1    3    3    0    0 -0.34456968609E+02 -0.81685610553E+00 -0.25294264986E+02  0.42752320930E+02  0.10566000000E+00 0. -1.
         23    2    1    0    0    0  0.17485812573E+02  0.46759231167E+01 -0.24037336344E+02  0.94999944552E+02  0.90108701178E+02 0.  0.
         13    1    3    3    0    0  0.51942781182E+02  0.54927792222E+01  0.12569286417E+01  0.52247623622E+02  0.10566000000E+00 0.  1.
         22    1    1    0    0    0 -0.17485812573E+02 -0.46759231167E+01  0.24037336344E+02  0.30090055448E+02  0.00000000000E+00 0. -1.
</event>
<event>
 5    1  0.1262391E-009  0.9118800E+02  0.7815553E-02  0.1125453E+00
         25   -1    0    0    0    0  0.00000000000E+00  0.00000000000E+00  0.99999998245E-14  0.12509000000E+03  0.12509000000E+03 0.  0.
        -13    1    3    3    0    0  0.32341224922E+02  0.22935122224E+02 -0.32102069022E+02  0.51014984666E+02  0.10566000000E+00 0.  1.
         23    2    1    0    0    0  0.24751495785E+02  0.13889620027E+02  0.10197089522E+02  0.94931440306E+02  0.90013552511E+02 0.  0.
         13    1    3    3    0    0 -0.75897291369E+01 -0.90455021969E+01  0.42299158544E+02  0.43916455640E+02  0.10566000000E+00 0. -1.
         22    1    1    0    0    0 -0.24751495785E+02 -0.13889620027E+02 -0.10197089522E+02  0.30158559694E+02  0.00000000000E+00 0.  1.
</event>
<event>
 5    1  0.1262391E-009  0.9118800E+02  0.7815553E-02  0.1125453E+00
         25   -1    0    0    0    0  0.00000000000E+00  0.00000000000E+00  0.99999998245E-14  0.12509000000E+03  0.12509000000E+03 0.  0.
        -13    1    3    3    0    0 -0.36454886338E+02 -0.79399280952E+01 -0.74062422886E+01  0.38037675862E+02  0.10566000000E+00 0. -1.
         23    2    1    0    0    0  0.18395008023E+02  0.59251631054E+01 -0.21336103214E+02  0.96302621197E+02  0.91899301799E+02 0.  0.
         13    1    3    3    0    0  0.54849894361E+02  0.13865091201E+02 -0.13929860925E+02  0.58264945335E+02  0.10566000000E+00 0.  1.
         22    1    1    0    0    0 -0.18395008023E+02 -0.59251631054E+01  0.21336103214E+02  0.28787378803E+02  0.00000000000E+00 0.  1.
</event>
<event>
 5    1  0.1262391E-009  0.9118800E+02  0.7815553E-02  0.1125453E+00
         25   -1    0    0    0    0  0.00000000000E+00  0.00000000000E+00  0.99999998245E-14  0.12509000000E+03  0.12509000000E+03 0.  0.
        -13    1    3    3    0    0 -0.21469497310E+02  0.25877391558E+02 -0.33558578929E+02  0.47505453291E+02  0.10566000000E+00 0.  1.
         23    2    1    0    0    0 -0.29564538657E+01 -0.14935076394E+02 -0.28723833857E+02  0.92580681985E+02  0.86685217419E+02 0.  0.
         13    1    3    3    0    0  0.18513043444E+02 -0.40812467952E+02  0.48347450722E+01  0.45075228695E+02  0.10566000000E+00 0. -1.
         22    1    1    0    0    0  0.29564538657E+01  0.14935076394E+02  0.28723833857E+02  0.32509318015E+02  0.00000000000E+00 0.  1.
</event>
<event>
 5    1  0.1262391E-009  0.9118800E+02  0.7815553E-02  0.1125453E+00
         25   -1    0    0    0    0  0.00000000000E+00  0.00000000000E+00  0.99999998245E-14  0.12509000000E+03  0.12509000000E+03 0.  0.
        -13    1    3    3    0    0 -0.39122795716E+02  0.32063759888E+02 -0.32868706518E+02  0.60324463321E+02  0.10566000000E+00 0. -1.
         23    2    1    0    0    0 -0.18975927352E+02  0.22023066669E+02 -0.59468206124E+01  0.95417353340E+02  0.90686301935E+02 0.  0.
         13    1    3    3    0    0  0.20146868364E+02 -0.10040693218E+02  0.26921885905E+02  0.35092890019E+02  0.10566000000E+00 0.  1.
         22    1    1    0    0    0  0.18975927352E+02 -0.22023066669E+02  0.59468206124E+01  0.29672646660E+02  0.00000000000E+00 0. -1.
</event>
<event>
 5    1  0.1262391E-009  0.9118800E+02  0.7815553E-02  0.1125453E+00
         25   -1    0    0    0    0  0.00000000000E+00  0.00000000000E+00  0.99999998245E-14  0.12509000000E+03  0.12509000000E+03 0.  0.
        -13    1    3    3    0    0  0.91350801275E+01  0.25104524096E+02  0.28578268926E+02  0.39120524509E+02  0.10566000000E+00 0.  1.
         23    2    1    0    0    0  0.11535215310E+02  0.12511835647E+02 -0.25353298444E+02  0.94554824128E+02  0.89488646210E+02 0.  0.
         13    1    3    3    0    0  0.24001351826E+01 -0.12592688449E+02 -0.53931567370E+02  0.55434299619E+02  0.10566000000E+00 0. -1.
         22    1    1    0    0    0 -0.11535215310E+02 -0.12511835647E+02  0.25353298444E+02  0.30535175872E+02  0.00000000000E+00 0. -1.
</event>
<event>
 5    1  0.1262391E-009  0.9118800E+02  0.7815553E-02  0.1125453E+00
         25   -1    0    0    0    0  0.00000000000E+00  0.00000000000E+00  0.99999998245E-14  0.12509000000E+03  0.12509000000E+03 0.  0.
        -13    1    3    3    0    0  0.15469512304E+02  0.33269480035E+02 -0.81875594503E+01  0.37592704166E+02  0.10566000000E+00 0. -1.
         23    2    1    0    0    0 -0.22825013941E+02 -0.99022344362E+01 -0.15520932653E+02  0.95765354074E+02  0.91165060096E+02 0.  0.
         13    1    3    3    0    0 -0.38294526245E+02 -0.43171714472E+02 -0.73333732029E+01  0.58172649908E+02  0.10566000000E+00 0.  1.
         22    1    1    0    0    0  0.22825013941E+02  0.99022344362E+01  0.15520932653E+02  0.29324645926E+02  0.00000000000E+00 0.  1.
</event>
<event>
 5    1  0.1262391E-009  0.9118800E+02  0.7815553E-02  0.1125453E+00
         25   -1    0    0    0    0  0.00000000000E+00  0.00000000000E+00  0.99999998245E-14  0.12509000000E+03  0.12509000000E+03 0.  0.
        -13    1    3    3    0    0  0.11812909154E+01  0.18873624785E+02 -0.43317458863E+02  0.47265447921E+02  0.10566000000E+00 0.  1.
         23    2    1    0    0    0  0.22209328324E+02  0.20302588552E+02 -0.49334788494E+00  0.94995270252E+02  0.90102212024E+02 0.  0.
         13    1    3    3    0    0  0.21028037408E+02  0.14289637665E+01  0.42824110978E+02  0.47729822331E+02  0.10566000000E+00 0. -1.
         22    1    1    0    0    0 -0.22209328324E+02 -0.20302588552E+02  0.49334788494E+00  0.30094729748E+02  0.00000000000E+00 0.  1.
</event>
<event>
 5    1  0.1262391E-009  0.9118800E+02  0.7815553E-02  0.1125453E+00
         25   -1    0    0    0    0  0.00000000000E+00  0.00000000000E+00  0.99999998245E-14  0.12509000000E+03  0.12509000000E+03 0.  0.
        -13    1    3    3    0    0  0.47061168027E+02 -0.14546434457E+02  0.18251037191E+02  0.52530598836E+02  0.10566000000E+00 0.  1.
         23    2    1    0    0    0  0.15364528603E+02 -0.18990843955E+02 -0.13131884520E+02  0.97356134702E+02  0.93322289298E+02 0.  0.
         13    1    3    3    0    0 -0.31696639424E+02 -0.44444094980E+01 -0.31382921711E+02  0.44825535866E+02  0.10566000000E+00 0. -1.
         22    1    1    0    0    0 -0.15364528603E+02  0.18990843955E+02  0.13131884520E+02  0.27733865298E+02  0.00000000000E+00 0.  1.
</event>
<event>
 5    1  0.1262391E-009  0.9118800E+02  0.7815553E-02  0.1125453E+00
         25   -1    0    0    0    0  0.00000000000E+00  0.00000000000E+00  0.99999998245E-14  0.12509000000E+03  0.12509000000E+03 0.  0.
        -13    1    3    3    0    0  0.54556619944E+00 -0.31556206100E+02 -0.29667309323E+02  0.43315726849E+02  0.10566000000E+00 0.  1.
         23    2    1    0    0    0  0.31304100507E+01  0.20333847277E+02 -0.20450798033E+02  0.96081381412E+02  0.91597663189E+02 0.  0.
         13    1    3    3    0    0  0.25848438512E+01  0.51890053377E+02  0.92165112902E+01  0.52765654564E+02  0.10566000000E+00 0. -1.
         22    1    1    0    0    0 -0.31304100507E+01 -0.20333847277E+02  0.20450798033E+02  0.29008618588E+02  0.00000000000E+00 0. -1.
</event>
<event>
 5    1  0.1262391E-009  0.9118800E+02  0.7815553E-02  0.1125453E+00
         25   -1    0    0    0    0  0.00000000000E+00  0.00000000000E+00  0.99999998245E-14  0.12509000000E+03  0.12509000000E+03 0.  0.
        -13    1    3    3    0    0  0.25866218445E+02 -0.21238249833E+02  0.47447058553E+02  0.58063405360E+02  0.10566000000E+00 0. -1.
         23    2    1    0    0    0 -0.35913514384E+01 -0.16848562880E+02  0.21300066357E+02  0.97695389160E+02  0.93775926336E+02 0.  0.
         13    1    3    3    0    0 -0.29457569884E+02  0.43896869531E+01 -0.26146992196E+02  0.39631983800E+02  0.10566000000E+00 0.  1.
         22    1    1    0    0    0  0.35913514384E+01  0.16848562880E+02 -0.21300066357E+02  0.27394610840E+02  0.00000000000E+00 0. -1.
</event>
<event>
 5    1  0.1262391E-009  0.9118800E+02  0.7815553E-02  0.1125453E+00
         25   -1    0    0    0    0  0.00000000000E+00  0.00000000000E+00  0.99999998245E-14  0.12509000000E+03  0.12509000000E+03 0.  0.
        -13    1    3    3    0    0 -0.36306475969E+02 -0.13175799991E+02 -0.20716625292E+02  0.43828662200E+02  0.10566000000E+00 0. -1.
         23    2    1    0    0    0 -0.12778160794E+02 -0.19091638784E+02  0.22209556241E+02  0.93136338971E+02  0.87483376614E+02 0.  0.
         13    1    3    3    0    0  0.23528315175E+02 -0.59158387928E+01  0.42926181533E+02  0.49307676772E+02  0.10566000000E+00 0.  1.
         22    1    1    0    0    0  0.12778160794E+02  0.19091638784E+02 -0.22209556241E+02  0.31953661029E+02  0.00000000000E+00 0. -1.
</event>
<event>
 5    1  0.1262391E-009  0.9118800E+02  0.7815553E-02  0.1125453E+00
         25   -1    0    0    0    0  0.00000000000E+00  0.00000000000E+00  0.99999998245E-14  0.12509000000E+03  0.12509000000E+03 0.  0.
        -13    1    3    3    0    0  0.18153243637E+02 -0.65368108175E+01  0.29691790993E+02  0.35410221216E+02  0.10566000000E+00 0.  1.
         23    2    1    0    0    0 -0.18962723470E+02  0.17100266077E+02 -0.12752685151E+02  0.96548189268E+02  0.92232954474E+02 0.  0.
         13    1    3    3    0    0 -0.37115967106E+02  0.23637076894E+02 -0.42444476144E+02  0.61137968052E+02  0.10566000000E+00 0. -1.
         22    1    1    0    0    0  0.18962723470E+02 -0.17100266077E+02  0.12752685151E+02  0.28541810732E+02  0.00000000000E+00 0. -1.
</event>
<event>
 5    1  0.1262391E-009  0.9118800E+02  0.7815553E-02  0.1125453E+00
         25   -1    0    0    0    0  0.00000000000E+00  0.00000000000E+00  0.99999998245E-14  0.12509000000E+03  0.12509000000E+03 0.  0.
        -13    1    3    3    0    0  0.37748188021E+02 -0.19141639590E+02  0.20056792502E+02  0.46836034787E+02  0.10566000000E+00 0. -1.
         23    2    1    0    0    0 -0.85517824214E+01 -0.23107560395E+02  0.20078620628E+02  0.93305674676E+02  0.87725170791E+02 0.  0.
         13    1    3    3    0    0 -0.46299970443E+02 -0.39659208049E+01  0.21828126226E-01  0.46469639888E+02  0.10566000000E+00 0.  1.
         22    1    1    0    0    0  0.85517824214E+01  0.23107560395E+02 -0.20078620628E+02  0.31784325324E+02  0.00000000000E+00 0.  1.
</event>
<event>
 5    1  0.1262391E-009  0.9118800E+02  0.7815553E-02  0.1125453E+00
         25   -1    0    0    0    0  0.00000000000E+00  0.00000000000E+00  0.99999998245E-14  0.12509000000E+03  0.12509000000E+03 0.  0.
        -13    1    3    3    0    0 -0.16431658818E+02 -0.45086333006E+02 -0.77865317991E+01  0.48614998477E+02  0.10566000000E+00 0.  1.
         23    2    1    0    0    0 -0.26858597690E+02 -0.40499350163E+01  0.12053604667E+02  0.95373411552E+02  0.90625669664E+02 0.  0.
         13    1    3    3    0    0 -0.10426938873E+02  0.41036397990E+02  0.19840136466E+02  0.46758413075E+02  0.10566000000E+00 0. -1.
         22    1    1    0    0    0  0.26858597690E+02  0.40499350163E+01 -0.12053604667E+02  0.29716588448E+02  0.00000000000E+00 0. -1.
</event>
<event>
 5    1  0.1262391E-009  0.9118800E+02  0.7815553E-02  0.1125453E+00
         25   -1    0    0    0    0  0.00000000000E+00  0.00000000000E+00  0.99999998245E-14  0.12509000000E+03  0.12509000000E+03 0.  0.
        -13    1    3    3    0    0  0.33235315922E+02  0.27863430051E+02  0.18945285143E+02  0.47327496784E+02  0.10566000000E+00 0. -1.
         23    2    1    0    0    0  0.41411114394E+00 -0.34326260622E+01  0.30715340997E+02  0.94180671597E+02  0.88964106921E+02 0.  0.
         13    1    3    3    0    0 -0.32821204778E+02 -0.31296056113E+02  0.11770055854E+02  0.46853174814E+02  0.10566000000E+00 0.  1.
         22    1    1    0    0    0 -0.41411114394E+00  0.34326260622E+01 -0.30715340997E+02  0.30909328403E+02  0.00000000000E+00 0.  1.
</event>
<event>
 5    1  0.1262391E-009  0.9118800E+02  0.7815553E-02  0.1125453E+00
         25   -1    0    0    0    0  0.00000000000E+00  0.00000000000E+00  0.99999998245E-14  0.12509000000E+03  0.12509000000E+03 0.  0.
        -13    1    3    3    0    0  0.13033810789E+01 -0.76317650424E+01 -0.36969771749E+02  0.37771918499E+02  0.10566000000E+00 0. -1.
         23    2    1    0    0    0 -0.15744063484E+01  0.14886907495E+02  0.20582154250E+02  0.99639580678E+02  0.96334428913E+02 0.  0.
         13    1    3    3    0    0 -0.28777874274E+01  0.22518672537E+02  0.57551925999E+02  0.61867662179E+02  0.10566000000E+00 0.  1.
         22    1    1    0    0    0  0.15744063484E+01 -0.14886907495E+02 -0.20582154250E+02  0.25450419322E+02  0.00000000000E+00 0.  1.
</event>
<event>
 5    1  0.1262391E-009  0.9118800E+02  0.7815553E-02  0.1125453E+00
         25   -1    0    0    0    0  0.00000000000E+00  0.00000000000E+00  0.99999998245E-14  0.12509000000E+03  0.12509000000E+03 0.  0.
        -13    1    3    3    0    0 -0.38905225030E+01 -0.61578127419E+02  0.29965472652E+01  0.61773719342E+02  0.10566000000E+00 0. -1.
         23    2    1    0    0    0 -0.83726805871E+01 -0.26910054365E+02  0.31602154652E+01  0.96730878576E+02  0.92480393069E+02 0.  0.
         13    1    3    3    0    0 -0.44821580841E+01  0.34668073054E+02  0.16366819998E+00  0.34957159234E+02  0.10566000000E+00 0.  1.
         22    1    1    0    0    0  0.83726805871E+01  0.26910054365E+02 -0.31602154652E+01  0.28359121424E+02  0.00000000000E+00 0. -1.
</event>
<event>
 5    1  0.1262391E-009  0.9118800E+02  0.7815553E-02  0.1125453E+00
         25   -1    0    0    0    0  0.00000000000E+00  0.00000000000E+00  0.99999998245E-14  0.12509000000E+03  0.12509000000E+03 0.  0.
        -13    1    3    3    0    0 -0.64236474585E+01  0.12974331772E+02 -0.37416782128E+02  0.40120110673E+02  0.10566000000E+00 0.  1.
         23    2    1    0    0    0 -0.13837942583E+02  0.20293932295E+02  0.16801587466E+02  0.95330536223E+02  0.90566469801E+02 0.  0.
         13    1    3    3    0    0 -0.74142951248E+01  0.73196005235E+01  0.54218369593E+02  0.55210425550E+02  0.10566000000E+00 0. -1.
         22    1    1    0    0    0  0.13837942583E+02 -0.20293932295E+02 -0.16801587466E+02  0.29759463777E+02  0.00000000000E+00 0. -1.
</event>
<event>
 5    1  0.1262391E-009  0.9118800E+02  0.7815553E-02  0.1125453E+00
         25   -1    0    0    0    0  0.00000000000E+00  0.00000000000E+00  0.99999998245E-14  0.12509000000E+03  0.12509000000E+03 0.  0.
        -13    1    3    3    0    0  0.46332635634E+02 -0.38627012876E+02 -0.93200463408E+01  0.61037969137E+02  0.10566000000E+00 0.  1.
         23    2    1    0    0    0  0.24991896981E+02 -0.10460820379E+02 -0.95101932279E+01  0.96376458718E+02  0.91999751858E+02 0.  0.
         13    1    3    3    0    0 -0.21340738652E+02  0.28166192497E+02 -0.19014688717E+00  0.35338489581E+02  0.10566000000E+00 0. -1.
         22    1    1    0    0    0 -0.24991896981E+02  0.10460820379E+02  0.95101932279E+01  0.28713541282E+02  0.00000000000E+00 0.  1.
</event>
<event>
 5    1  0.1262391E-009  0.9118800E+02  0.7815553E-02  0.1125453E+00
         25   -1    0    0    0    0  0.00000000000E+00  0.00000000000E+00  0.99999998245E-14  0.12509000000E+03  0.12509000000E+03 0.  0.
        -13    1    3    3    0    0 -0.43013504809E+02 -0.11549891307E+02  0.24126223841E+02  0.50652220347E+02  0.10566000000E+00 0. -1.
         23    2    1    0    0    0 -0.83603934020E+01 -0.29553582763E+02  0.56186849375E+01  0.93866930766E+02  0.88521865316E+02 0.  0.
         13    1    3    3    0    0  0.34653111407E+02 -0.18003691457E+02 -0.18507538904E+02  0.43214710419E+02  0.10566000000E+00 0.  1.
         22    1    1    0    0    0  0.83603934020E+01  0.29553582763E+02 -0.56186849375E+01  0.31223069234E+02  0.00000000000E+00 0. -1.
</event>
<event>
 5    1  0.1262391E-009  0.9118800E+02  0.7815553E-02  0.1125453E+00
         25   -1    0    0    0    0  0.00000000000E+00  0.00000000000E+00  0.99999998245E-14  0.12509000000E+03  0.12509000000E+03 0.  0.
        -13    1    3    3    0    0  0.55577323794E+01 -0.32427559909E+02 -0.51248448776E+02  0.60900325917E+02  0.10566000000E+00 0. -1.
         23    2    1    0    0    0  0.11689933873E+02 -0.10589814140E+02 -0.24235946413E+02  0.96173226044E+02  0.91723004703E+02 0.  0.
         13    1    3    3    0    0  0.61322014935E+01  0.21837745769E+02  0.27012502363E+02  0.35272900127E+02  0.10566000000E+00 0.  1.
         22    1    1    0    0    0 -0.11689933873E+02  0.10589814140E+02  0.24235946413E+02  0.28916773956E+02  0.00000000000E+00 0. -1.
</event>
<event>
 5    1  0.1262391E-009  0.9118800E+02  0.7815553E-02  0.1125453E+00
         25   -1    0    0    0    0  0.00000000000E+00  0.00000000000E+00  0.99999998245E-14  0.12509000000E+03  0.12509000000E+03 0.  0.
        -13    1    3    3    0    0 -0.28805670255E+02  0.27492187186E+02  0.33070955284E+02  0.51761822249E+02  0.10566000000E+00 0. -1.
         23    2    1    0    0    0 -0.17630755033E+02 -0.13485330646E+02  0.16826440729E+02  0.97236332858E+02  0.93161567475E+02 0.  0.
         13    1    3    3    0    0  0.11174915222E+02 -0.40977517832E+02 -0.16244514555E+02  0.45474510609E+02  0.10566000000E+00 0.  1.
         22    1    1    0    0    0  0.17630755033E+02  0.13485330646E+02 -0.16826440729E+02  0.27853667142E+02  0.00000000000E+00 0. -1.
</event>
<event>
 5    1  0.1262391E-009  0.9118800E+02  0.7815553E-02  0.1125453E+00
         25   -1    0    0    0    0  0.00000000000E+00  0.00000000000E+00  0.99999998245E-14  0.12509000000E+03  0.12509000000E+03 0.  0.
        -13    1    3    3    0    0  0.43706948229E+02 -0.41332455671E+02  0.15244725588E+02  0.62057086925E+02  0.10566000000E+00 0.  1.
         23    2    1    0    0    0  0.19183729302E+02 -0.21561098013E+02  0.22189223751E+01  0.96144878927E+02  0.91684337321E+02 0.  0.
         13    1    3    3    0    0 -0.24523218928E+02  0.19771357658E+02 -0.13025803213E+02  0.34087792002E+02  0.10566000000E+00 0. -1.
         22    1    1    0    0    0 -0.19183729302E+02  0.21561098013E+02 -0.22189223751E+01  0.28945121073E+02  0.00000000000E+00 0.  1.
</event>
<event>
 5    1  0.1262391E-009  0.9118800E+02  0.7815553E-02  0.1125453E+00
         25   -1    0    0    0    0  0.00000000000E+00  0.00000000000E+00  0.99999998245E-14  0.12509000000E+03  0.12509000000E+03 0.  0.
        -13    1    3    3    0    0  0.24355213378E+02 -0.43412832109E+02 -0.76000313535E+01  0.50354960540E+02  0.10566000000E+00 0. -1.
         23    2    1    0    0    0  0.27880376061E+02  0.27326498312E+01 -0.14922635396E+01  0.97036308712E+02  0.92892602577E+02 0.  0.
         13    1    3    3    0    0  0.35251626837E+01  0.46145481940E+02  0.61077678139E+01  0.46681348172E+02  0.10566000000E+00 0.  1.
         22    1    1    0    0    0 -0.27880376061E+02 -0.27326498312E+01  0.14922635396E+01  0.28053691288E+02  0.00000000000E+00 0. -1.
</event>
<event>
 5    1  0.1262391E-009  0.9118800E+02  0.7815553E-02  0.1125453E+00
         25   -1    0    0    0    0  0.00000000000E+00  0.00000000000E+00  0.99999998245E-14  0.12509000000E+03  0.12509000000E+03 0.  0.
        -13    1    3    3    0    0  0.21600513930E+02 -0.51684239366E+02  0.25267660505E+02  0.61451677213E+02  0.10566000000E+00 0.  1.
         23    2    1    0    0    0  0.89431882592E+01 -0.25999868629E+02  0.35988555046E+01  0.97360493226E+02  0.93328131318E+02 0.  0.
         13    1    3    3    0    0 -0.12657325671E+02  0.25684370736E+02 -0.21668805001E+02  0.35908816013E+02  0.10566000000E+00 0. -1.
         22    1    1    0    0    0 -0.89431882592E+01  0.25999868629E+02 -0.35988555046E+01  0.27729506774E+02  0.00000000000E+00 0.  1.
</event>
<event>
 5    1  0.1262391E-009  0.9118800E+02  0.7815553E-02  0.1125453E+00
         25   -1    0    0    0    0  0.00000000000E+00  0.00000000000E+00  0.99999998245E-14  0.12509000000E+03  0.12509000000E+03 0.  0.
        -13    1    3    3    0    0 -0.16116692518E+02  0.33746314386E+02  0.20103781242E+02  0.42458623349E+02  0.10566000000E+00 0. -1.
         23    2    1    0    0    0  0.26023461549E+02  0.37062062671E+01  0.15874072077E+02  0.94382628244E+02  0.89247620887E+02 0.  0.
         13    1    3    3    0    0  0.42140154068E+02 -0.30040108119E+02 -0.42297091657E+01  0.51924004895E+02  0.10566000000E+00 0.  1.
         22    1    1    0    0    0 -0.26023461549E+02 -0.37062062671E+01 -0.15874072077E+02  0.30707371756E+02  0.00000000000E+00 0.  1.
</event>
<event>
 5    1  0.1262391E-009  0.9118800E+02  0.7815553E-02  0.1125453E+00
         25   -1    0    0    0    0  0.00000000000E+00  0.00000000000E+00  0.99999998245E-14  0.12509000000E+03  0.12509000000E+03 0.  0.
        -13    1    3    3    0    0  0.24291923058E+02  0.27776060398E+02  0.92135635849E+01  0.38032985356E+02  0.10566000000E+00 0. -1.
         23    2    1    0    0    0  0.14696722881E+02 -0.23883717197E+02 -0.11856120340E+02  0.94643436973E+02  0.89612426382E+02 0.  0.
         13    1    3    3    0    0 -0.95952001773E+01 -0.51659777595E+02 -0.21069683925E+02  0.56610451618E+02  0.10566000000E+00 0.  1.
         22    1    1    0    0    0 -0.14696722881E+02  0.23883717197E+02  0.11856120340E+02  0.30446563027E+02  0.00000000000E+00 0.  1.
</event>
<event>
 5    1  0.1262391E-009  0.9118800E+02  0.7815553E-02  0.1125453E+00
         25   -1    0    0    0    0  0.00000000000E+00  0.00000000000E+00  0.99999998245E-14  0.12509000000E+03  0.12509000000E+03 0.  0.
        -13    1    3    3    0    0 -0.28405328274E+02 -0.34266420066E+02  0.15480719146E+02  0.47124452758E+02  0.10566000000E+00 0.  1.
         23    2    1    0    0    0 -0.22862400374E+02  0.14669428006E+02  0.56116640262E+01  0.97352439869E+02  0.93317336580E+02 0.  0.
         13    1    3    3    0    0  0.55429278995E+01  0.48935848071E+02 -0.98690551201E+01  0.50227987110E+02  0.10566000000E+00 0. -1.
         22    1    1    0    0    0  0.22862400374E+02 -0.14669428006E+02 -0.56116640262E+01  0.27737560131E+02  0.00000000000E+00 0. -1.
</event>
<event>
 5    1  0.1262391E-009  0.9118800E+02  0.7815553E-02  0.1125453E+00
         25   -1    0    0    0    0  0.00000000000E+00  0.00000000000E+00  0.99999998245E-14  0.12509000000E+03  0.12509000000E+03 0.  0.
        -13    1    3    3    0    0  0.33493207586E+02 -0.15032438824E+02 -0.62885317203E+01  0.37246824921E+02  0.10566000000E+00 0.  1.
         23    2    1    0    0    0 -0.35623297978E+01  0.19702600938E+02  0.21966870025E+02  0.95367515986E+02  0.90617531688E+02 0.  0.
         13    1    3    3    0    0 -0.37055537384E+02  0.34735039761E+02  0.28255401745E+02  0.58120691065E+02  0.10566000000E+00 0. -1.
         22    1    1    0    0    0  0.35623297978E+01 -0.19702600938E+02 -0.21966870025E+02  0.29722484014E+02  0.00000000000E+00 0. -1.
</event>
<event>
 5    1  0.1262391E-009  0.9118800E+02  0.7815553E-02  0.1125453E+00
         25   -1    0    0    0    0  0.00000000000E+00  0.00000000000E+00  0.99999998245E-14  0.12509000000E+03  0.12509000000E+03 0.  0.
        -13    1    3    3    0    0 -0.33223016153E+02 -0.47135724919E+02 -0.15462928957E+02  0.59704762808E+02  0.10566000000E+00 0.  1.
         23    2    1    0    0    0 -0.23855074967E+02 -0.18614550165E+02  0.25663017455E+01  0.94723044535E+02  0.89723481775E+02 0.  0.
         13    1    3    3    0    0  0.93679411856E+01  0.28521174754E+02  0.18029230703E+02  0.35018281728E+02  0.10566000000E+00 0. -1.
         22    1    1    0    0    0  0.23855074967E+02  0.18614550165E+02 -0.25663017455E+01  0.30366955465E+02  0.00000000000E+00 0.  1.
</event>
<event>
 5    1  0.1262391E-009  0.9118800E+02  0.7815553E-02  0.1125453E+00
         25   -1    0    0    0    0  0.00000000000E+00  0.00000000000E+00  0.99999998245E-14  0.12509000000E+03  0.12509000000E+03 0.  0.
        -13    1    3    3    0    0 -0.32394078568E+02  0.33002453510E+01  0.42209347411E+02  0.53309549975E+02  0.10566000000E+00 0. -1.
         23    2    1    0    0    0  0.69167143188E+01 -0.41069699374E+01  0.28311783114E+02  0.95657616439E+02  0.91017110373E+02 0.  0.
         13    1    3    3    0    0  0.39310792887E+02 -0.74072152884E+01 -0.13897564297E+02  0.42348066463E+02  0.10566000000E+00 0.  1.
         22    1    1    0    0    0 -0.69167143188E+01  0.41069699374E+01 -0.28311783114E+02  0.29432383561E+02  0.00000000000E+00 0. -1.
</event>
<event>
 5    1  0.1262391E-009  0.9118800E+02  0.7815553E-02  0.1125453E+00
         25   -1    0    0    0    0  0.00000000000E+00  0.00000000000E+00  0.99999998245E-14  0.12509000000E+03  0.12509000000E+03 0.  0.
        -13    1    3    3    0    0 -0.38580071002E+02  0.43207660626E+02 -0.13608480132E+02  0.59502316852E+02  0.10566000000E+00 0.  1.
         23    2    1    0    0    0 -0.10888219990E+02  0.27005894445E+02  0.33289122494E+01  0.95782094478E+02  0.91188027155E+02 0.  0.
         13    1    3    3    0    0  0.27691851012E+02 -0.16201766180E+02  0.16937392382E+02  0.36279777625E+02  0.10566000000E+00 0. -1.
         22    1    1    0    0    0  0.10888219990E+02 -0.27005894445E+02 -0.33289122494E+01  0.29307905522E+02  0.00000000000E+00 0.  1.
</event>
<event>
 5    1  0.1262391E-009  0.9118800E+02  0.7815553E-02  0.1125453E+00
         25   -1    0    0    0    0  0.00000000000E+00  0.00000000000E+00  0.99999998245E-14  0.12509000000E+03  0.12509000000E+03 0.  0.
        -13    1    3    3    0    0 -0.16501377958E+02  0.95895451820E+01 -0.51307332200E+02  0.54742199014E+02  0.10566000000E+00 0.  1.
         23    2    1    0    0    0 -0.42446161084E+01 -0.17567525180E+02 -0.22984609655E+02  0.95850865473E+02  0.91282317149E+02 0.  0.
         13    1    3    3    0    0  0.12256761849E+02 -0.27157070362E+02  0.28322722545E+02  0.41108666460E+02  0.10566000000E+00 0. -1.
         22    1    1    0    0    0  0.42446161084E+01  0.17567525180E+02  0.22984609655E+02  0.29239134527E+02  0.00000000000E+00 0.  1.
</event>
<event>
 5    1  0.1262391E-009  0.9118800E+02  0.7815553E-02  0.1125453E+00
         25   -1    0    0    0    0  0.00000000000E+00  0.00000000000E+00  0.99999998245E-14  0.12509000000E+03  0.12509000000E+03 0.  0.
        -13    1    3    3    0    0  0.21748504411E+02  0.29012976303E+02  0.59410019100E+01  0.36743120524E+02  0.10566000000E+00 0. -1.
         23    2    1    0    0    0  0.53797159551E+01 -0.28078085777E+02 -0.60970771646E+00  0.96494685906E+02  0.92160362520E+02 0.  0.
         13    1    3    3    0    0 -0.16368788456E+02 -0.57091062080E+02 -0.65507096265E+01  0.59751565382E+02  0.10566000000E+00 0.  1.
         22    1    1    0    0    0 -0.53797159551E+01  0.28078085777E+02  0.60970771646E+00  0.28595314094E+02  0.00000000000E+00 0.  1.
</event>
<event>
 5    1  0.1262391E-009  0.9118800E+02  0.7815553E-02  0.1125453E+00
         25   -1    0    0    0    0  0.00000000000E+00  0.00000000000E+00  0.99999998245E-14  0.12509000000E+03  0.12509000000E+03 0.  0.
        -13    1    3    3    0    0 -0.13190563039E+02  0.15589291368E+02  0.27215149493E+02  0.34024880376E+02  0.10566000000E+00 0.  1.
         23    2    1    0    0    0  0.86543053678E+01 -0.19059947139E+02 -0.19727891248E+02  0.96325989858E+02  0.91931104871E+02 0.  0.
         13    1    3    3    0    0  0.21844868407E+02 -0.34649238507E+02 -0.46943040740E+02  0.62301109483E+02  0.10566000000E+00 0. -1.
         22    1    1    0    0    0 -0.86543053678E+01  0.19059947139E+02  0.19727891248E+02  0.28764010142E+02  0.00000000000E+00 0. -1.
</event>
<event>
 5    1  0.1262391E-009  0.9118800E+02  0.7815553E-02  0.1125453E+00
         25   -1    0    0    0    0  0.00000000000E+00  0.00000000000E+00  0.99999998245E-14  0.12509000000E+03  0.12509000000E+03 0.  0.
        -13    1    3    3    0    0  0.24954907955E+00 -0.23588079981E+02  0.51480772250E+02  0.56628092563E+02  0.10566000000E+00 0.  1.
         23    2    1    0    0    0 -0.32283388335E+00 -0.26155865620E+02  0.11804003676E+02  0.96392124977E+02  0.92021050455E+02 0.  0.
         13    1    3    3    0    0 -0.57238296291E+00 -0.25677856392E+01 -0.39676768573E+02  0.39764032414E+02  0.10566000000E+00 0. -1.
         22    1    1    0    0    0  0.32283388335E+00  0.26155865620E+02 -0.11804003676E+02  0.28697875023E+02  0.00000000000E+00 0.  1.
</event>
<event>
 5    1  0.1262391E-009  0.9118800E+02  0.7815553E-02  0.1125453E+00
         25   -1    0    0    0    0  0.00000000000E+00  0.00000000000E+00  0.99999998245E-14  0.12509000000E+03  0.12509000000E+03 0.  0.
        -13    1    3    3    0    0  0.17143842123E+02 -0.43052880020E+02  0.32626046002E+02  0.56673907952E+02  0.10566000000E+00 0. -1.
         23    2    1    0    0    0 -0.48704677669E+01 -0.11935549948E+02  0.26955384540E+02  0.95210716800E+02  0.90400824272E+02 0.  0.
         13    1    3    3    0    0 -0.22014309890E+02  0.31117330072E+02 -0.56706614622E+01  0.38536808848E+02  0.10566000000E+00 0.  1.
         22    1    1    0    0    0  0.48704677669E+01  0.11935549948E+02 -0.26955384540E+02  0.29879283200E+02  0.00000000000E+00 0. -1.
</event>
<event>
 5    1  0.1262391E-009  0.9118800E+02  0.7815553E-02  0.1125453E+00
         25   -1    0    0    0    0  0.00000000000E+00  0.00000000000E+00  0.99999998245E-14  0.12509000000E+03  0.12509000000E+03 0.  0.
        -13    1    3    3    0    0 -0.71439116632E+01  0.21578463523E+02  0.53344421131E+02  0.57985377396E+02  0.10566000000E+00 0. -1.
         23    2    1    0    0    0 -0.17508753472E+02  0.86642246371E+00  0.21941311961E+02  0.97005692876E+02  0.92851365869E+02 0.  0.
         13    1    3    3    0    0 -0.10364841809E+02 -0.20712041060E+02 -0.31403109170E+02  0.39020315480E+02  0.10566000000E+00 0.  1.
         22    1    1    0    0    0  0.17508753472E+02 -0.86642246371E+00 -0.21941311961E+02  0.28084307124E+02  0.00000000000E+00 0. -1.
</event>
<event>
 5    1  0.1262391E-009  0.9118800E+02  0.7815553E-02  0.1125453E+00
         25   -1    0    0    0    0  0.00000000000E+00  0.00000000000E+00  0.99999998245E-14  0.12509000000E+03  0.12509000000E+03 0.  0.
        -13    1    3    3    0    0  0.38585204783E+02 -0.69391353322E+01 -0.81203445733E+01  0.40036493195E+02  0.10566000000E+00 0.  1.
         23    2    1    0    0    0 -0.24352091599E+01  0.11004128223E+02  0.26277460648E+02  0.96497588075E+02  0.92164301574E+02 0.  0.
         13    1    3    3    0    0 -0.41020413943E+02  0.17943263555E+02  0.34397805221E+02  0.56461094880E+02  0.10566000000E+00 0. -1.
         22    1    1    0    0    0  0.24352091599E+01 -0.11004128223E+02 -0.26277460648E+02  0.28592411925E+02  0.00000000000E+00 0. -1.
</event>
<event>
 4    1  0.1262391E-009  0.9118800E+02  0.7815553E-02  0.1125453E+00
         25   -1    0    0    0    0  0.00000000000E+00  0.00000000000E+00  0.99999998245E-14  0.12509000000E+03  0.12509000000E+03 0.  0.
        -13    1    1    0    0    0 -0.16659545274E+02 -0.10027956805E+02 -0.25676750053E+02  0.32208803513E+02  0.10566000000E+00 0.  1.
         13    1    1    0    0    0  0.37156558947E+02 -0.45352541910E+01 -0.18724807596E+02  0.41854605325E+02  0.10566000000E+00 0. -1.
         22    1    1    0    0    0 -0.20497013673E+02  0.14563210996E+02  0.44401557649E+02  0.51026591163E+02  0.00000000000E+00 0.  1.
</event>
<event>
 5    1  0.1262391E-009  0.9118800E+02  0.7815553E-02  0.1125453E+00
         25   -1    0    0    0    0  0.00000000000E+00  0.00000000000E+00  0.99999998245E-14  0.12509000000E+03  0.12509000000E+03 0.  0.
        -13    1    3    3    0    0  0.26222224133E+02 -0.28399292830E+02  0.12361891198E+02  0.40582661196E+02  0.10566000000E+00 0. -1.
         23    2    1    0    0    0  0.16203093949E+02  0.24302557545E+02 -0.98738661416E+00  0.95864506179E+02  0.91301007967E+02 0.  0.
         13    1    3    3    0    0 -0.10019130184E+02  0.52701850375E+02 -0.13349277812E+02  0.55281844983E+02  0.10566000000E+00 0.  1.
         22    1    1    0    0    0 -0.16203093949E+02 -0.24302557545E+02  0.98738661416E+00  0.29225493821E+02  0.00000000000E+00 0.  1.
</event>
<event>
 5    1  0.1262391E-009  0.9118800E+02  0.7815553E-02  0.1125453E+00
         25   -1    0    0    0    0  0.00000000000E+00  0.00000000000E+00  0.99999998245E-14  0.12509000000E+03  0.12509000000E+03 0.  0.
        -13    1    3    3    0    0  0.38460917644E+02  0.26381549851E+02  0.83679662329E+01  0.47384199703E+02  0.10566000000E+00 0.  1.
         23    2    1    0    0    0  0.10155996157E+02  0.30714717568E+01 -0.25606537850E+02  0.97372262406E+02  0.93343904507E+02 0.  0.
         13    1    3    3    0    0 -0.28304921487E+02 -0.23310078095E+02 -0.33974504083E+02  0.49988062703E+02  0.10566000000E+00 0. -1.
         22    1    1    0    0    0 -0.10155996157E+02 -0.30714717568E+01  0.25606537850E+02  0.27717737594E+02  0.00000000000E+00 0. -1.
</event>
<event>
 5    1  0.1262391E-009  0.9118800E+02  0.7815553E-02  0.1125453E+00
         25   -1    0    0    0    0  0.00000000000E+00  0.00000000000E+00  0.99999998245E-14  0.12509000000E+03  0.12509000000E+03 0.  0.
        -13    1    3    3    0    0 -0.14234448986E+02  0.93325885891E+01 -0.37419779775E+02  0.41109218311E+02  0.10566000000E+00 0.  1.
         23    2    1    0    0    0  0.28645626095E+02  0.83764646719E+01 -0.26034102870E+02  0.85485561271E+02  0.75757967362E+02 0.  0.
         13    1    3    3    0    0  0.42880075081E+02 -0.95612391719E+00  0.11385676905E+02  0.44376342960E+02  0.10566000000E+00 0. -1.
         22    1    1    0    0    0 -0.28645626095E+02 -0.83764646719E+01  0.26034102870E+02  0.39604438729E+02  0.00000000000E+00 0. -1.
</event>
<event>
 5    1  0.1262391E-009  0.9118800E+02  0.7815553E-02  0.1125453E+00
         25   -1    0    0    0    0  0.00000000000E+00  0.00000000000E+00  0.99999998245E-14  0.12509000000E+03  0.12509000000E+03 0.  0.
        -13    1    3    3    0    0 -0.40939008245E+02 -0.67066383813E+01 -0.20980617360E+00  0.41485377871E+02  0.10566000000E+00 0. -1.
         23    2    1    0    0    0 -0.33843456587E+01  0.13018186327E+02  0.29090290163E+02  0.93040476563E+02  0.87346198123E+02 0.  0.
         13    1    3    3    0    0  0.37554662586E+02  0.19724824708E+02  0.29300096337E+02  0.51555098692E+02  0.10566000000E+00 0.  1.
         22    1    1    0    0    0  0.33843456587E+01 -0.13018186327E+02 -0.29090290163E+02  0.32049523437E+02  0.00000000000E+00 0.  1.
</event>
<event>
 5    1  0.1262391E-009  0.9118800E+02  0.7815553E-02  0.1125453E+00
         25   -1    0    0    0    0  0.00000000000E+00  0.00000000000E+00  0.99999998245E-14  0.12509000000E+03  0.12509000000E+03 0.  0.
        -13    1    3    3    0    0 -0.30086767819E+02  0.14123538646E+01  0.30365402907E+02  0.42770050257E+02  0.10566000000E+00 0. -1.
         23    2    1    0    0    0  0.22655849409E+02 -0.11919891312E+01  0.15445236936E+02  0.97644350171E+02  0.93707819449E+02 0.  0.
         13    1    3    3    0    0  0.52742617227E+02 -0.26043429958E+01 -0.14920165971E+02  0.54874299914E+02  0.10566000000E+00 0.  1.
         22    1    1    0    0    0 -0.22655849409E+02  0.11919891312E+01 -0.15445236936E+02  0.27445649829E+02  0.00000000000E+00 0.  1.
</event>
<event>
 5    1  0.1262391E-009  0.9118800E+02  0.7815553E-02  0.1125453E+00
         25   -1    0    0    0    0  0.00000000000E+00  0.00000000000E+00  0.99999998245E-14  0.12509000000E+03  0.12509000000E+03 0.  0.
        -13    1    3    3    0    0  0.14784008032E+02  0.70974547093E+01 -0.39177319255E+02  0.42471334626E+02  0.10566000000E+00 0. -1.
         23    2    1    0    0    0  0.50922410203E+01 -0.29281181228E+02 -0.21256710086E+01  0.95293406739E+02  0.90515172198E+02 0.  0.
         13    1    3    3    0    0 -0.96917670119E+01 -0.36378635937E+02  0.37051648247E+02  0.52822072113E+02  0.10566000000E+00 0.  1.
         22    1    1    0    0    0 -0.50922410203E+01  0.29281181228E+02  0.21256710086E+01  0.29796593261E+02  0.00000000000E+00 0. -1.
</event>
<event>
 5    1  0.1262391E-009  0.9118800E+02  0.7815553E-02  0.1125453E+00
         25   -1    0    0    0    0  0.00000000000E+00  0.00000000000E+00  0.99999998245E-14  0.12509000000E+03  0.12509000000E+03 0.  0.
        -13    1    3    3    0    0  0.19136273690E+02  0.32376955856E+02 -0.13201096243E+02  0.39859056026E+02  0.10566000000E+00 0.  1.
         23    2    1    0    0    0 -0.27235394015E+02  0.43949381479E+01  0.51139954222E+01  0.97032289515E+02  0.92887190133E+02 0.  0.
         13    1    3    3    0    0 -0.46371667705E+02 -0.27982017708E+02  0.18315091666E+02  0.57173233489E+02  0.10566000000E+00 0. -1.
         22    1    1    0    0    0  0.27235394015E+02 -0.43949381479E+01 -0.51139954222E+01  0.28057710485E+02  0.00000000000E+00 0. -1.
</event>
<event>
 5    1  0.1262391E-009  0.9118800E+02  0.7815553E-02  0.1125453E+00
         25   -1    0    0    0    0  0.00000000000E+00  0.00000000000E+00  0.99999998245E-14  0.12509000000E+03  0.12509000000E+03 0.  0.
        -13    1    3    3    0    0  0.28510077631E+02  0.25918493678E+02  0.64819586330E+01  0.39071982197E+02  0.10566000000E+00 0.  1.
         23    2    1    0    0    0 -0.15582880005E+02 -0.47030703508E+01  0.24480526755E+02  0.95692020304E+02  0.91064381289E+02 0.  0.
         13    1    3    3    0    0 -0.44092957637E+02 -0.30621564029E+02  0.17998568122E+02  0.56620038107E+02  0.10566000000E+00 0. -1.
         22    1    1    0    0    0  0.15582880005E+02  0.47030703508E+01 -0.24480526755E+02  0.29397979696E+02  0.00000000000E+00 0. -1.
</event>
<event>
 5    1  0.1262391E-009  0.9118800E+02  0.7815553E-02  0.1125453E+00
         25   -1    0    0    0    0  0.00000000000E+00  0.00000000000E+00  0.99999998245E-14  0.12509000000E+03  0.12509000000E+03 0.  0.
        -13    1    3    3    0    0  0.26555342009E+02  0.15369134321E+02 -0.42948324223E+02  0.52782252667E+02  0.10566000000E+00 0. -1.
         23    2    1    0    0    0  0.22971034993E+01  0.27469878358E+02 -0.92882758041E+01  0.96001463273E+02  0.91488458188E+02 0.  0.
         13    1    3    3    0    0 -0.24258238510E+02  0.12100744037E+02  0.33660048419E+02  0.43219210607E+02  0.10566000000E+00 0.  1.
         22    1    1    0    0    0 -0.22971034993E+01 -0.27469878358E+02  0.92882758041E+01  0.29088536727E+02  0.00000000000E+00 0.  1.
</event>
<event>
 5    1  0.1262391E-009  0.9118800E+02  0.7815553E-02  0.1125453E+00
         25   -1    0    0    0    0  0.00000000000E+00  0.00000000000E+00  0.99999998245E-14  0.12509000000E+03  0.12509000000E+03 0.  0.
        -13    1    3    3    0    0  0.32034016507E+01  0.21919688968E+02 -0.50500435774E+02  0.55145622891E+02  0.10566000000E+00 0.  1.
         23    2    1    0    0    0 -0.56594346111E+01  0.26275092597E+02 -0.10687056244E+02  0.96165566345E+02  0.91712557964E+02 0.  0.
         13    1    3    3    0    0 -0.88628362618E+01  0.43554036288E+01  0.39813379530E+02  0.41019943454E+02  0.10566000000E+00 0. -1.
         22    1    1    0    0    0  0.56594346111E+01 -0.26275092597E+02  0.10687056244E+02  0.28924433655E+02  0.00000000000E+00 0.  1.
</event>
<event>
 5    1  0.1262391E-009  0.9118800E+02  0.7815553E-02  0.1125453E+00
         25   -1    0    0    0    0  0.00000000000E+00  0.00000000000E+00  0.99999998245E-14  0.12509000000E+03  0.12509000000E+03 0.  0.
        -13    1    3    3    0    0  0.21994237084E+02  0.36114581170E+00 -0.43089356093E+02  0.48379547990E+02  0.10566000000E+00 0.  1.
         23    2    1    0    0    0  0.16530840320E+02  0.24793972518E+02 -0.36869617600E+01  0.95063287860E+02  0.90196592268E+02 0.  0.
         13    1    3    3    0    0 -0.54633967642E+01  0.24432826706E+02  0.39402394333E+02  0.46683739870E+02  0.10566000000E+00 0. -1.
         22    1    1    0    0    0 -0.16530840320E+02 -0.24793972518E+02  0.36869617600E+01  0.30026712140E+02  0.00000000000E+00 0. -1.
</event>
<event>
 5    1  0.1262391E-009  0.9118800E+02  0.7815553E-02  0.1125453E+00
         25   -1    0    0    0    0  0.00000000000E+00  0.00000000000E+00  0.99999998245E-14  0.12509000000E+03  0.12509000000E+03 0.  0.
        -13    1    3    3    0    0  0.27479077809E+02 -0.19057800767E+02  0.13279754448E+02  0.35981419226E+02  0.10566000000E+00 0.  1.
         23    2    1    0    0    0 -0.95242974318E+01  0.26511148739E+02 -0.26224695771E+01  0.96798117848E+02  0.92571296973E+02 0.  0.
         13    1    3    3    0    0 -0.37003375241E+02  0.45568949506E+02 -0.15902224025E+02  0.60816698622E+02  0.10566000000E+00 0. -1.
         22    1    1    0    0    0  0.95242974318E+01 -0.26511148739E+02  0.26224695771E+01  0.28291882152E+02  0.00000000000E+00 0. -1.
</event>
<event>
 5    1  0.1262391E-009  0.9118800E+02  0.7815553E-02  0.1125453E+00
         25   -1    0    0    0    0  0.00000000000E+00  0.00000000000E+00  0.99999998245E-14  0.12509000000E+03  0.12509000000E+03 0.  0.
        -13    1    3    3    0    0 -0.45067374555E+01 -0.30229747308E+02 -0.17797019114E+02  0.35367970796E+02  0.10566000000E+00 0. -1.
         23    2    1    0    0    0 -0.74969479383E+01  0.28273703937E+02 -0.38335104469E+01  0.95589112470E+02  0.90922912722E+02 0.  0.
         13    1    3    3    0    0 -0.29902104828E+01  0.58503451245E+02  0.13963508667E+02  0.60221141675E+02  0.10566000000E+00 0.  1.
         22    1    1    0    0    0  0.74969479383E+01 -0.28273703937E+02  0.38335104469E+01  0.29500887530E+02  0.00000000000E+00 0.  1.
</event>
<event>
 5    1  0.1262391E-009  0.9118800E+02  0.7815553E-02  0.1125453E+00
         25   -1    0    0    0    0  0.00000000000E+00  0.00000000000E+00  0.99999998245E-14  0.12509000000E+03  0.12509000000E+03 0.  0.
        -13    1    3    3    0    0  0.90511059586E+01  0.20780966941E+02  0.37106905436E+02  0.43482234316E+02  0.10566000000E+00 0. -1.
         23    2    1    0    0    0 -0.25497035082E+02 -0.86901846687E+01  0.17647436652E+02  0.92886737309E+02  0.87125747285E+02 0.  0.
         13    1    3    3    0    0 -0.34548141041E+02 -0.29471151610E+02 -0.19459468784E+02  0.49404502993E+02  0.10566000000E+00 0.  1.
         22    1    1    0    0    0  0.25497035082E+02  0.86901846687E+01 -0.17647436652E+02  0.32203262691E+02  0.00000000000E+00 0.  1.
</event>
<event>
 5    1  0.1262391E-009  0.9118800E+02  0.7815553E-02  0.1125453E+00
         25   -1    0    0    0    0  0.00000000000E+00  0.00000000000E+00  0.99999998245E-14  0.12509000000E+03  0.12509000000E+03 0.  0.
        -13    1    3    3    0    0 -0.46709153375E+01  0.40918818621E+02  0.90320928887E+00  0.41194588461E+02  0.10566000000E+00 0.  1.
         23    2    1    0    0    0  0.25948491693E+02 -0.30444666835E+01 -0.12057453751E+02  0.96315441976E+02  0.91916751321E+02 0.  0.
         13    1    3    3    0    0  0.30619407031E+02 -0.43963285305E+02 -0.12960663040E+02  0.55120853514E+02  0.10566000000E+00 0. -1.
         22    1    1    0    0    0 -0.25948491693E+02  0.30444666835E+01  0.12057453751E+02  0.28774558024E+02  0.00000000000E+00 0. -1.
</event>
<event>
 5    1  0.1262391E-009  0.9118800E+02  0.7815553E-02  0.1125453E+00
         25   -1    0    0    0    0  0.00000000000E+00  0.00000000000E+00  0.99999998245E-14  0.12509000000E+03  0.12509000000E+03 0.  0.
        -13    1    3    3    0    0 -0.10461947416E+02 -0.11412166557E+02 -0.41243087754E+02  0.44053301134E+02  0.10566000000E+00 0. -1.
         23    2    1    0    0    0  0.24240932659E+02 -0.16707018764E+02 -0.37564101996E+01  0.95410749508E+02  0.90677192347E+02 0.  0.
         13    1    3    3    0    0  0.34702880076E+02 -0.52948522077E+01  0.37486677554E+02  0.51357448374E+02  0.10566000000E+00 0.  1.
         22    1    1    0    0    0 -0.24240932659E+02  0.16707018764E+02  0.37564101996E+01  0.29679250492E+02  0.00000000000E+00 0.  1.
</event>
<event>
 5    1  0.1262391E-009  0.9118800E+02  0.7815553E-02  0.1125453E+00
         25   -1    0    0    0    0  0.00000000000E+00  0.00000000000E+00  0.99999998245E-14  0.12509000000E+03  0.12509000000E+03 0.  0.
        -13    1    3    3    0    0 -0.17172191437E+02 -0.14621924828E+02 -0.37521921407E+02  0.43778882975E+02  0.10566000000E+00 0. -1.
         23    2    1    0    0    0  0.19775655118E+01 -0.27300564125E+02  0.95051453103E+01  0.96114504245E+02  0.91642886096E+02 0.  0.
         13    1    3    3    0    0  0.19149756949E+02 -0.12678639296E+02  0.47027066717E+02  0.52335621270E+02  0.10566000000E+00 0.  1.
         22    1    1    0    0    0 -0.19775655118E+01  0.27300564125E+02 -0.95051453103E+01  0.28975495755E+02  0.00000000000E+00 0.  1.
</event>
<event>
 5    1  0.1262391E-009  0.9118800E+02  0.7815553E-02  0.1125453E+00
         25   -1    0    0    0    0  0.00000000000E+00  0.00000000000E+00  0.99999998245E-14  0.12509000000E+03  0.12509000000E+03 0.  0.
        -13    1    3    3    0    0  0.38806631663E+01 -0.25219600850E+02 -0.36370496198E+02  0.44428729121E+02  0.10566000000E+00 0. -1.
         23    2    1    0    0    0  0.24386366825E+02  0.13301735692E+02 -0.92342127870E+01  0.95817115872E+02  0.91236056189E+02 0.  0.
         13    1    3    3    0    0  0.20505703659E+02  0.38521336542E+02  0.27136283411E+02  0.51388386751E+02  0.10566000000E+00 0.  1.
         22    1    1    0    0    0 -0.24386366825E+02 -0.13301735692E+02  0.92342127870E+01  0.29272884128E+02  0.00000000000E+00 0. -1.
</event>
<event>
 5    1  0.1262391E-009  0.9118800E+02  0.7815553E-02  0.1125453E+00
         25   -1    0    0    0    0  0.00000000000E+00  0.00000000000E+00  0.99999998245E-14  0.12509000000E+03  0.12509000000E+03 0.  0.
        -13    1    3    3    0    0  0.81172741413E+00  0.50410655893E+02  0.25946270199E+02  0.56701968486E+02  0.10566000000E+00 0.  1.
         23    2    1    0    0    0  0.29084201230E+00  0.84367749911E+01  0.25014388728E+02  0.98689556731E+02  0.95092824141E+02 0.  0.
         13    1    3    3    0    0 -0.52088540184E+00 -0.41973880902E+02 -0.93188147005E+00  0.41987588245E+02  0.10566000000E+00 0. -1.
         22    1    1    0    0    0 -0.29084201230E+00 -0.84367749911E+01 -0.25014388728E+02  0.26400443269E+02  0.00000000000E+00 0.  1.
</event>
<event>
 5    1  0.1262391E-009  0.9118800E+02  0.7815553E-02  0.1125453E+00
         25   -1    0    0    0    0  0.00000000000E+00  0.00000000000E+00  0.99999998245E-14  0.12509000000E+03  0.12509000000E+03 0.  0.
        -13    1    3    3    0    0 -0.36808164866E+02 -0.43392340630E+02  0.15253080060E+02  0.58910133606E+02  0.10566000000E+00 0.  1.
         23    2    1    0    0    0 -0.54162258406E+01 -0.25487268355E+02  0.14947077376E+02  0.95050834355E+02  0.90179319353E+02 0.  0.
         13    1    3    3    0    0  0.31391939026E+02  0.17905072274E+02 -0.30600268358E+00  0.36140700749E+02  0.10566000000E+00 0. -1.
         22    1    1    0    0    0  0.54162258406E+01  0.25487268355E+02 -0.14947077376E+02  0.30039165645E+02  0.00000000000E+00 0.  1.
</event>
<event>
 5    1  0.1262391E-009  0.9118800E+02  0.7815553E-02  0.1125453E+00
         25   -1    0    0    0    0  0.00000000000E+00  0.00000000000E+00  0.99999998245E-14  0.12509000000E+03  0.12509000000E+03 0.  0.
        -13    1    3    3    0    0  0.33069118765E+01 -0.38374414841E+02 -0.25480445382E+02  0.46182200483E+02  0.10566000000E+00 0.  1.
         23    2    1    0    0    0 -0.29312341831E+02 -0.87571936139E+01 -0.11523870254E+02  0.92399001097E+02  0.86422647463E+02 0.  0.
         13    1    3    3    0    0 -0.32619253708E+02  0.29617221227E+02  0.13956575127E+02  0.46216800614E+02  0.10566000000E+00 0. -1.
         22    1    1    0    0    0  0.29312341831E+02  0.87571936139E+01  0.11523870254E+02  0.32690998903E+02  0.00000000000E+00 0.  1.
</event>
<event>
 5    1  0.1262391E-009  0.9118800E+02  0.7815553E-02  0.1125453E+00
         25   -1    0    0    0    0  0.00000000000E+00  0.00000000000E+00  0.99999998245E-14  0.12509000000E+03  0.12509000000E+03 0.  0.
        -13    1    3    3    0    0  0.36081837219E+02  0.42624133993E+02  0.13806964455E+02  0.57527030231E+02  0.10566000000E+00 0. -1.
         23    2    1    0    0    0  0.42115001425E+01  0.19312746769E+02  0.19384000669E+02  0.97405014843E+02  0.93387785675E+02 0.  0.
         13    1    3    3    0    0 -0.31870337077E+02 -0.23311387224E+02  0.55770362142E+01  0.39877984611E+02  0.10566000000E+00 0.  1.
         22    1    1    0    0    0 -0.42115001425E+01 -0.19312746769E+02 -0.19384000669E+02  0.27684985157E+02  0.00000000000E+00 0. -1.
</event>
<event>
 5    1  0.1262391E-009  0.9118800E+02  0.7815553E-02  0.1125453E+00
         25   -1    0    0    0    0  0.00000000000E+00  0.00000000000E+00  0.99999998245E-14  0.12509000000E+03  0.12509000000E+03 0.  0.
        -13    1    3    3    0    0 -0.32043233036E+02 -0.99070211324E+01 -0.84404349145E+01  0.34585690057E+02  0.10566000000E+00 0.  1.
         23    2    1    0    0    0 -0.51199424275E+01 -0.59649820558E+01  0.36844126268E+02  0.87416608039E+02  0.78882056890E+02 0.  0.
         13    1    3    3    0    0  0.26923290609E+02  0.39420390766E+01  0.45284561183E+02  0.52830917982E+02  0.10566000000E+00 0. -1.
         22    1    1    0    0    0  0.51199424275E+01  0.59649820558E+01 -0.36844126268E+02  0.37673391961E+02  0.00000000000E+00 0. -1.
</event>
<event>
 5    1  0.1262391E-009  0.9118800E+02  0.7815553E-02  0.1125453E+00
         25   -1    0    0    0    0  0.00000000000E+00  0.00000000000E+00  0.99999998245E-14  0.12509000000E+03  0.12509000000E+03 0.  0.
        -13    1    3    3    0    0 -0.33758762500E+02  0.27348880497E+02  0.32039235962E+01  0.43564797720E+02  0.10566000000E+00 0. -1.
         23    2    1    0    0    0 -0.58886005343E+01 -0.59194500334E+01 -0.27253940740E+02  0.96585740830E+02  0.92283869343E+02 0.  0.
         13    1    3    3    0    0  0.27870161965E+02 -0.33268330531E+02 -0.30457864337E+02  0.53020943110E+02  0.10566000000E+00 0.  1.
         22    1    1    0    0    0  0.58886005343E+01  0.59194500334E+01  0.27253940740E+02  0.28504259170E+02  0.00000000000E+00 0. -1.
</event>
<event>
 5    1  0.1262391E-009  0.9118800E+02  0.7815553E-02  0.1125453E+00
         25   -1    0    0    0    0  0.00000000000E+00  0.00000000000E+00  0.99999998245E-14  0.12509000000E+03  0.12509000000E+03 0.  0.
        -13    1    3    3    0    0 -0.64066977635E+00  0.20209718035E+02  0.92694131327E+01  0.22243568614E+02  0.10566000000E+00 0.  1.
         23    2    1    0    0    0  0.48036318795E+02 -0.35488199940E+01  0.21544904790E+01  0.76874609553E+02  0.59874716851E+02 0.  0.
         13    1    3    3    0    0  0.48676988571E+02 -0.23758538029E+02 -0.71149226537E+01  0.54631040939E+02  0.10566000000E+00 0. -1.
         22    1    1    0    0    0 -0.48036318795E+02  0.35488199940E+01 -0.21544904790E+01  0.48215390447E+02  0.00000000000E+00 0. -1.
</event>
<event>
 5    1  0.1262391E-009  0.9118800E+02  0.7815553E-02  0.1125453E+00
         25   -1    0    0    0    0  0.00000000000E+00  0.00000000000E+00  0.99999998245E-14  0.12509000000E+03  0.12509000000E+03 0.  0.
        -13    1    3    3    0    0  0.37559554565E+02 -0.15064976784E+02  0.10456543016E+02  0.41797417630E+02  0.10566000000E+00 0. -1.
         23    2    1    0    0    0 -0.74810225614E+01 -0.22020939841E+02 -0.18134989339E+02  0.95598215917E+02  0.90935436207E+02 0.  0.
         13    1    3    3    0    0 -0.45040577126E+02 -0.69559630573E+01 -0.28591532355E+02  0.53800798288E+02  0.10566000000E+00 0.  1.
         22    1    1    0    0    0  0.74810225614E+01  0.22020939841E+02  0.18134989339E+02  0.29491784083E+02  0.00000000000E+00 0.  1.
</event>
<event>
 5    1  0.1262391E-009  0.9118800E+02  0.7815553E-02  0.1125453E+00
         25   -1    0    0    0    0  0.00000000000E+00  0.00000000000E+00  0.99999998245E-14  0.12509000000E+03  0.12509000000E+03 0.  0.
        -13    1    3    3    0    0 -0.12710260168E+02 -0.12786575089E+02 -0.30532956567E+02  0.35458705797E+02  0.10566000000E+00 0. -1.
         23    2    1    0    0    0  0.87272195937E+01 -0.17711266648E+02  0.23853481002E+02  0.94124827886E+02  0.88885551923E+02 0.  0.
         13    1    3    3    0    0  0.21437479762E+02 -0.49246915587E+01  0.54386437569E+02  0.58666122089E+02  0.10566000000E+00 0.  1.
         22    1    1    0    0    0 -0.87272195937E+01  0.17711266648E+02 -0.23853481002E+02  0.30965172114E+02  0.00000000000E+00 0.  1.
</event>
<event>
 5    1  0.1262391E-009  0.9118800E+02  0.7815553E-02  0.1125453E+00
         25   -1    0    0    0    0  0.00000000000E+00  0.00000000000E+00  0.99999998245E-14  0.12509000000E+03  0.12509000000E+03 0.  0.
        -13    1    3    3    0    0  0.53224399635E+01  0.38124308718E+02 -0.16362704403E+02  0.41827509390E+02  0.10566000000E+00 0.  1.
         23    2    1    0    0    0  0.25831002045E+02 -0.11069377060E+02 -0.86880128394E+01  0.95674811028E+02  0.91040738810E+02 0.  0.
         13    1    3    3    0    0  0.20508562082E+02 -0.49193685778E+02  0.76746915631E+01  0.53847301638E+02  0.10566000000E+00 0. -1.
         22    1    1    0    0    0 -0.25831002045E+02  0.11069377060E+02  0.86880128394E+01  0.29415188972E+02  0.00000000000E+00 0. -1.
</event>
<event>
 5    1  0.1262391E-009  0.9118800E+02  0.7815553E-02  0.1125453E+00
         25   -1    0    0    0    0  0.00000000000E+00  0.00000000000E+00  0.99999998245E-14  0.12509000000E+03  0.12509000000E+03 0.  0.
        -13    1    3    3    0    0 -0.31252040345E+02 -0.49306136164E+01 -0.13149379841E+02  0.34262491599E+02  0.10566000000E+00 0. -1.
         23    2    1    0    0    0  0.14785381657E+02  0.14777861288E+02  0.21455665989E+02  0.95134394548E+02  0.90295153402E+02 0.  0.
         13    1    3    3    0    0  0.46037422002E+02  0.19708474904E+02  0.34605045830E+02  0.60871902948E+02  0.10566000000E+00 0.  1.
         22    1    1    0    0    0 -0.14785381657E+02 -0.14777861288E+02 -0.21455665989E+02  0.29955605452E+02  0.00000000000E+00 0.  1.
</event>
<event>
 5    1  0.1262391E-009  0.9118800E+02  0.7815553E-02  0.1125453E+00
         25   -1    0    0    0    0  0.00000000000E+00  0.00000000000E+00  0.99999998245E-14  0.12509000000E+03  0.12509000000E+03 0.  0.
        -13    1    3    3    0    0  0.11028295962E+02 -0.43871295881E+02  0.15559679780E+01  0.45263076723E+02  0.10566000000E+00 0.  1.
         23    2    1    0    0    0  0.17184947189E+00 -0.14696558978E+01  0.28428103261E+02  0.96623414751E+02  0.92334921901E+02 0.  0.
         13    1    3    3    0    0 -0.10856446490E+02  0.42401639983E+02  0.26872135283E+02  0.51360338028E+02  0.10566000000E+00 0. -1.
         22    1    1    0    0    0 -0.17184947189E+00  0.14696558978E+01 -0.28428103261E+02  0.28466585249E+02  0.00000000000E+00 0. -1.
</event>
<event>
 5    1  0.1262391E-009  0.9118800E+02  0.7815553E-02  0.1125453E+00
         25   -1    0    0    0    0  0.00000000000E+00  0.00000000000E+00  0.99999998245E-14  0.12509000000E+03  0.12509000000E+03 0.  0.
        -13    1    3    3    0    0  0.12655250698E+02 -0.16758326600E+01  0.44361309235E+02  0.46161680064E+02  0.10566000000E+00 0.  1.
         23    2    1    0    0    0 -0.21311672222E+02  0.16319527960E+02  0.18336611642E+02  0.92582374860E+02  0.86687660267E+02 0.  0.
         13    1    3    3    0    0 -0.33966922920E+02  0.17995360620E+02 -0.26024697593E+02  0.46420694796E+02  0.10566000000E+00 0. -1.
         22    1    1    0    0    0  0.21311672222E+02 -0.16319527960E+02 -0.18336611642E+02  0.32507625140E+02  0.00000000000E+00 0. -1.
</event>
<event>
 5    1  0.1262391E-009  0.9118800E+02  0.7815553E-02  0.1125453E+00
         25   -1    0    0    0    0  0.00000000000E+00  0.00000000000E+00  0.99999998245E-14  0.12509000000E+03  0.12509000000E+03 0.  0.
        -13    1    3    3    0    0 -0.50480946476E+02 -0.21465625769E+02 -0.26818029410E+02  0.61059945236E+02  0.10566000000E+00 0. -1.
         23    2    1    0    0    0 -0.16340525030E+02 -0.12663733589E+02 -0.18642804876E+02  0.97252308279E+02  0.93183015541E+02 0.  0.
         13    1    3    3    0    0  0.34140421446E+02  0.88018921799E+01  0.81752245342E+01  0.36192363043E+02  0.10566000000E+00 0.  1.
         22    1    1    0    0    0  0.16340525030E+02  0.12663733589E+02  0.18642804876E+02  0.27837691721E+02  0.00000000000E+00 0. -1.
</event>
<event>
 5    1  0.1262391E-009  0.9118800E+02  0.7815553E-02  0.1125453E+00
         25   -1    0    0    0    0  0.00000000000E+00  0.00000000000E+00  0.99999998245E-14  0.12509000000E+03  0.12509000000E+03 0.  0.
        -13    1    3    3    0    0 -0.11857428651E+02 -0.20294836620E+01  0.58796769812E+02  0.60014904170E+02  0.10566000000E+00 0. -1.
         23    2    1    0    0    0 -0.13125760610E+02  0.94806305925E+01  0.31321274589E+02  0.89831097721E+02  0.82622248383E+02 0.  0.
         13    1    3    3    0    0 -0.12683319594E+01  0.11510114255E+02 -0.27475495223E+02  0.29816193551E+02  0.10566000000E+00 0.  1.
         22    1    1    0    0    0  0.13125760610E+02 -0.94806305925E+01 -0.31321274589E+02  0.35258902279E+02  0.00000000000E+00 0. -1.
</event>
<event>
 5    1  0.1262391E-009  0.9118800E+02  0.7815553E-02  0.1125453E+00
         25   -1    0    0    0    0  0.00000000000E+00  0.00000000000E+00  0.99999998245E-14  0.12509000000E+03  0.12509000000E+03 0.  0.
        -13    1    3    3    0    0  0.24377717609E+02  0.35245013429E+01 -0.48912081729E+02  0.54764022210E+02  0.10566000000E+00 0. -1.
         23    2    1    0    0    0  0.22384743382E+02 -0.14989138567E+02 -0.13086429291E+02  0.95139947532E+02  0.90302845878E+02 0.  0.
         13    1    3    3    0    0 -0.19929742276E+01 -0.18513639910E+02  0.35825652438E+02  0.40375925322E+02  0.10566000000E+00 0.  1.
         22    1    1    0    0    0 -0.22384743382E+02  0.14989138567E+02  0.13086429291E+02  0.29950052468E+02  0.00000000000E+00 0. -1.
</event>
<event>
 5    1  0.1262391E-009  0.9118800E+02  0.7815553E-02  0.1125453E+00
         25   -1    0    0    0    0  0.00000000000E+00  0.00000000000E+00  0.99999998245E-14  0.12509000000E+03  0.12509000000E+03 0.  0.
        -13    1    3    3    0    0  0.26938566794E+02 -0.27294443786E+02 -0.31537933419E+02  0.49652043774E+02  0.10566000000E+00 0. -1.
         23    2    1    0    0    0 -0.16740515654E+02 -0.15643905454E+02 -0.14567775321E+02  0.97938633184E+02  0.94099836078E+02 0.  0.
         13    1    3    3    0    0 -0.43679082448E+02  0.11650538332E+02  0.16970158098E+02  0.48286589410E+02  0.10566000000E+00 0.  1.
         22    1    1    0    0    0  0.16740515654E+02  0.15643905454E+02  0.14567775321E+02  0.27151366816E+02  0.00000000000E+00 0. -1.
</event>
<event>
 5    1  0.1262391E-009  0.9118800E+02  0.7815553E-02  0.1125453E+00
         25   -1    0    0    0    0  0.00000000000E+00  0.00000000000E+00  0.99999998245E-14  0.12509000000E+03  0.12509000000E+03 0.  0.
        -13    1    3    3    0    0  0.25815676117E+02  0.10153120242E+02  0.23844612621E+02  0.36580209118E+02  0.10566000000E+00 0.  1.
         23    2    1    0    0    0 -0.23419942897E+02 -0.69149799572E+01 -0.99844770718E+01  0.98708179450E+02  0.95117318270E+02 0.  0.
         13    1    3    3    0    0 -0.49235619014E+02 -0.17068100199E+02 -0.33829089693E+02  0.62127970332E+02  0.10566000000E+00 0. -1.
         22    1    1    0    0    0  0.23419942897E+02  0.69149799572E+01  0.99844770718E+01  0.26381820550E+02  0.00000000000E+00 0. -1.
</event>
<event>
 5    1  0.1262391E-009  0.9118800E+02  0.7815553E-02  0.1125453E+00
         25   -1    0    0    0    0  0.00000000000E+00  0.00000000000E+00  0.99999998245E-14  0.12509000000E+03  0.12509000000E+03 0.  0.
        -13    1    3    3    0    0 -0.57446738612E+02  0.14914891118E+01  0.61899760761E+01  0.57798609713E+02  0.10566000000E+00 0.  1.
         23    2    1    0    0    0 -0.25944399791E+02  0.70067592515E+01 -0.13147987207E+02  0.95172177163E+02  0.90347480223E+02 0.  0.
         13    1    3    3    0    0  0.31502338822E+02  0.55152701397E+01 -0.19337963283E+02  0.37373567450E+02  0.10566000000E+00 0. -1.
         22    1    1    0    0    0  0.25944399791E+02 -0.70067592515E+01  0.13147987207E+02  0.29917822837E+02  0.00000000000E+00 0.  1.
</event>
<event>
 5    1  0.1262391E-009  0.9118800E+02  0.7815553E-02  0.1125453E+00
         25   -1    0    0    0    0  0.00000000000E+00  0.00000000000E+00  0.99999998245E-14  0.12509000000E+03  0.12509000000E+03 0.  0.
        -13    1    3    3    0    0 -0.42739809121E+02 -0.14094080737E+02 -0.57390720246E+01  0.45368298483E+02  0.10566000000E+00 0. -1.
         23    2    1    0    0    0 -0.80345232198E+01  0.13020849149E+01  0.27858701973E+02  0.96066625556E+02  0.91577509693E+02 0.  0.
         13    1    3    3    0    0  0.34705285901E+02  0.15396165651E+02  0.33597773998E+02  0.50698327072E+02  0.10566000000E+00 0.  1.
         22    1    1    0    0    0  0.80345232198E+01 -0.13020849149E+01 -0.27858701973E+02  0.29023374444E+02  0.00000000000E+00 0.  1.
</event>
<event>
 5    1  0.1262391E-009  0.9118800E+02  0.7815553E-02  0.1125453E+00
         25   -1    0    0    0    0  0.00000000000E+00  0.00000000000E+00  0.99999998245E-14  0.12509000000E+03  0.12509000000E+03 0.  0.
        -13    1    3    3    0    0 -0.38519486218E+02  0.21136861873E+02  0.30066562713E+02  0.53240277101E+02  0.10566000000E+00 0.  1.
         23    2    1    0    0    0 -0.88425609074E+00  0.23076315720E+02 -0.84467657421E+00  0.10198130608E+03  0.99328621534E+02 0.  0.
         13    1    3    3    0    0  0.37635230127E+02  0.19394538471E+01 -0.30911239288E+02  0.48741028983E+02  0.10566000000E+00 0. -1.
         22    1    1    0    0    0  0.88425609074E+00 -0.23076315720E+02  0.84467657421E+00  0.23108693917E+02  0.00000000000E+00 0.  1.
</event>
<event>
 5    1  0.1262391E-009  0.9118800E+02  0.7815553E-02  0.1125453E+00
         25   -1    0    0    0    0  0.00000000000E+00  0.00000000000E+00  0.99999998245E-14  0.12509000000E+03  0.12509000000E+03 0.  0.
        -13    1    3    3    0    0 -0.52839980159E+02 -0.10036590885E+02  0.37373895893E+01  0.53914524061E+02  0.10566000000E+00 0. -1.
         23    2    1    0    0    0 -0.11768363963E+02 -0.23032380001E+02  0.98265395476E+01  0.97421501697E+02  0.93409866687E+02 0.  0.
         13    1    3    3    0    0  0.41071616196E+02 -0.12995789117E+02  0.60891499583E+01  0.43506977635E+02  0.10566000000E+00 0.  1.
         22    1    1    0    0    0  0.11768363963E+02  0.23032380001E+02 -0.98265395476E+01  0.27668498303E+02  0.00000000000E+00 0. -1.
</event>
<event>
 5    1  0.1262391E-009  0.9118800E+02  0.7815553E-02  0.1125453E+00
         25   -1    0    0    0    0  0.00000000000E+00  0.00000000000E+00  0.99999998245E-14  0.12509000000E+03  0.12509000000E+03 0.  0.
        -13    1    3    3    0    0 -0.54275365194E+01  0.59744663179E+02 -0.15538319721E+01  0.60010903084E+02  0.10566000000E+00 0.  1.
         23    2    1    0    0    0  0.81228847192E+01  0.24811718474E+02 -0.74481645562E+01  0.97940823493E+02  0.94102747682E+02 0.  0.
         13    1    3    3    0    0  0.13550421239E+02 -0.34932944706E+02 -0.58943325841E+01  0.37929920409E+02  0.10566000000E+00 0. -1.
         22    1    1    0    0    0 -0.81228847192E+01 -0.24811718474E+02  0.74481645562E+01  0.27149176507E+02  0.00000000000E+00 0.  1.
</event>
<event>
 5    1  0.1262391E-009  0.9118800E+02  0.7815553E-02  0.1125453E+00
         25   -1    0    0    0    0  0.00000000000E+00  0.00000000000E+00  0.99999998245E-14  0.12509000000E+03  0.12509000000E+03 0.  0.
        -13    1    3    3    0    0 -0.33283423533E+02 -0.19580967920E+02  0.20978565478E+01  0.38673152870E+02  0.10566000000E+00 0.  1.
         23    2    1    0    0    0  0.49890170321E+01  0.25305467488E+02 -0.70139909047E+01  0.98360745537E+02  0.94659300750E+02 0.  0.
         13    1    3    3    0    0  0.38272440565E+02  0.44886435408E+02 -0.91118474525E+01  0.59687592668E+02  0.10566000000E+00 0. -1.
         22    1    1    0    0    0 -0.49890170321E+01 -0.25305467488E+02  0.70139909047E+01  0.26729254463E+02  0.00000000000E+00 0. -1.
</event>
<event>
 5    1  0.1262391E-009  0.9118800E+02  0.7815553E-02  0.1125453E+00
         25   -1    0    0    0    0  0.00000000000E+00  0.00000000000E+00  0.99999998245E-14  0.12509000000E+03  0.12509000000E+03 0.  0.
        -13    1    3    3    0    0  0.21976271253E+02  0.22237723921E+02 -0.32023928890E+02  0.44755067299E+02  0.10566000000E+00 0. -1.
         23    2    1    0    0    0  0.26859958514E+02 -0.94574081693E+01  0.74900525158E+01  0.95645122222E+02  0.90999937239E+02 0.  0.
         13    1    3    3    0    0  0.48836872606E+01 -0.31695132090E+02  0.39513981406E+02  0.50890054923E+02  0.10566000000E+00 0.  1.
         22    1    1    0    0    0 -0.26859958514E+02  0.94574081693E+01 -0.74900525158E+01  0.29444877778E+02  0.00000000000E+00 0.  1.
</event>
<event>
 5    1  0.1262391E-009  0.9118800E+02  0.7815553E-02  0.1125453E+00
         25   -1    0    0    0    0  0.00000000000E+00  0.00000000000E+00  0.99999998245E-14  0.12509000000E+03  0.12509000000E+03 0.  0.
        -13    1    3    3    0    0  0.47429162467E+01  0.28219706005E+02  0.60121281355E+01  0.29240449899E+02  0.10566000000E+00 0. -1.
         23    2    1    0    0    0 -0.15789089074E+02 -0.29845958029E+02 -0.15352436962E+01  0.91290095892E+02  0.84802406159E+02 0.  0.
         13    1    3    3    0    0 -0.20532005321E+02 -0.58065664035E+02 -0.75473718317E+01  0.62049645993E+02  0.10566000000E+00 0.  1.
         22    1    1    0    0    0  0.15789089074E+02  0.29845958029E+02  0.15352436962E+01  0.33799904108E+02  0.00000000000E+00 0.  1.
</event>
<event>
 5    1  0.1262391E-009  0.9118800E+02  0.7815553E-02  0.1125453E+00
         25   -1    0    0    0    0  0.00000000000E+00  0.00000000000E+00  0.99999998245E-14  0.12509000000E+03  0.12509000000E+03 0.  0.
        -13    1    3    3    0    0 -0.49620528972E+02  0.78010904151E+01 -0.24852196621E+02  0.56041919561E+02  0.10566000000E+00 0.  1.
         23    2    1    0    0    0 -0.28300060793E+02 -0.22597172401E+01  0.71719536762E+01  0.95807980220E+02  0.91223529812E+02 0.  0.
         13    1    3    3    0    0  0.21320468179E+02 -0.10060807655E+02  0.32024150298E+02  0.39766060659E+02  0.10566000000E+00 0. -1.
         22    1    1    0    0    0  0.28300060793E+02  0.22597172401E+01 -0.71719536762E+01  0.29282019780E+02  0.00000000000E+00 0.  1.
</event>
<event>
 5    1  0.1262391E-009  0.9118800E+02  0.7815553E-02  0.1125453E+00
         25   -1    0    0    0    0  0.00000000000E+00  0.00000000000E+00  0.99999998245E-14  0.12509000000E+03  0.12509000000E+03 0.  0.
        -13    1    3    3    0    0  0.30228329126E+01  0.35350118105E+02 -0.45938145638E+02  0.58043886479E+02  0.10566000000E+00 0.  1.
         23    2    1    0    0    0  0.94040757768E+01  0.32035744603E+01 -0.27943659324E+02  0.95432831778E+02  0.90707649920E+02 0.  0.
         13    1    3    3    0    0  0.63812428642E+01 -0.32146543645E+02  0.17994486314E+02  0.37388945299E+02  0.10566000000E+00 0. -1.
         22    1    1    0    0    0 -0.94040757768E+01 -0.32035744603E+01  0.27943659324E+02  0.29657168222E+02  0.00000000000E+00 0.  1.
</event>
<event>
 5    1  0.1262391E-009  0.9118800E+02  0.7815553E-02  0.1125453E+00
         25   -1    0    0    0    0  0.00000000000E+00  0.00000000000E+00  0.99999998245E-14  0.12509000000E+03  0.12509000000E+03 0.  0.
        -13    1    3    3    0    0 -0.72312934495E+01  0.28087180546E+02  0.23691549522E+02  0.37449726284E+02  0.10566000000E+00 0.  1.
         23    2    1    0    0    0 -0.31907919658E+01 -0.27971356650E+02  0.88189755614E+01  0.95588266557E+02  0.90921748923E+02 0.  0.
         13    1    3    3    0    0  0.40405014837E+01 -0.56058537196E+02 -0.14872573961E+02  0.58138540272E+02  0.10566000000E+00 0. -1.
         22    1    1    0    0    0  0.31907919658E+01  0.27971356650E+02 -0.88189755614E+01  0.29501733443E+02  0.00000000000E+00 0. -1.
</event>
<event>
 5    1  0.1262391E-009  0.9118800E+02  0.7815553E-02  0.1125453E+00
         25   -1    0    0    0    0  0.00000000000E+00  0.00000000000E+00  0.99999998245E-14  0.12509000000E+03  0.12509000000E+03 0.  0.
        -13    1    3    3    0    0  0.61380070716E+01  0.32184003687E+02 -0.29318967450E+02  0.43967013095E+02  0.10566000000E+00 0.  1.
         23    2    1    0    0    0 -0.27454703549E+02 -0.11762321780E+01 -0.51167947580E+01  0.97137793331E+02  0.93029162285E+02 0.  0.
         13    1    3    3    0    0 -0.33592710621E+02 -0.33360235865E+02  0.24202172692E+02  0.53170780236E+02  0.10566000000E+00 0. -1.
         22    1    1    0    0    0  0.27454703549E+02  0.11762321780E+01  0.51167947580E+01  0.27952206669E+02  0.00000000000E+00 0. -1.
</event>
<event>
 5    1  0.1262391E-009  0.9118800E+02  0.7815553E-02  0.1125453E+00
         25   -1    0    0    0    0  0.00000000000E+00  0.00000000000E+00  0.99999998245E-14  0.12509000000E+03  0.12509000000E+03 0.  0.
        -13    1    3    3    0    0 -0.33289666979E+02  0.41218749847E+02 -0.15451987505E+02  0.55190237800E+02  0.10566000000E+00 0. -1.
         23    2    1    0    0    0 -0.34338975432E+02  0.13021223622E+02 -0.19189370076E+02  0.83653911596E+02  0.72670678427E+02 0.  0.
         13    1    3    3    0    0 -0.10493084533E+01 -0.28197526225E+02 -0.37373825713E+01  0.28463673796E+02  0.10566000000E+00 0.  1.
         22    1    1    0    0    0  0.34338975432E+02 -0.13021223622E+02  0.19189370076E+02  0.41436088404E+02  0.00000000000E+00 0. -1.
</event>
<event>
 5    1  0.1262391E-009  0.9118800E+02  0.7815553E-02  0.1125453E+00
         25   -1    0    0    0    0  0.00000000000E+00  0.00000000000E+00  0.99999998245E-14  0.12509000000E+03  0.12509000000E+03 0.  0.
        -13    1    3    3    0    0 -0.57535774418E+02 -0.37083661257E+01  0.68075255132E+01  0.58055756690E+02  0.10566000000E+00 0. -1.
         23    2    1    0    0    0 -0.24577044573E+02  0.34235455475E+01 -0.12909243004E+02  0.97118579961E+02  0.93003323783E+02 0.  0.
         13    1    3    3    0    0  0.32958729845E+02  0.71319116732E+01 -0.19716768517E+02  0.39062823271E+02  0.10566000000E+00 0.  1.
         22    1    1    0    0    0  0.24577044573E+02 -0.34235455475E+01  0.12909243004E+02  0.27971420039E+02  0.00000000000E+00 0. -1.
</event>
<event>
 5    1  0.1262391E-009  0.9118800E+02  0.7815553E-02  0.1125453E+00
         25   -1    0    0    0    0  0.00000000000E+00  0.00000000000E+00  0.99999998245E-14  0.12509000000E+03  0.12509000000E+03 0.  0.
        -13    1    3    3    0    0 -0.40869768415E+02 -0.85197981958E+01  0.21273781452E+02  0.46856268235E+02  0.10566000000E+00 0.  1.
         23    2    1    0    0    0 -0.10429510176E+02 -0.32378428650E+02 -0.15651125453E+00  0.91072918701E+02  0.84481445895E+02 0.  0.
         13    1    3    3    0    0  0.30440258240E+02 -0.23858630454E+02 -0.21430292707E+02  0.44216650466E+02  0.10566000000E+00 0. -1.
         22    1    1    0    0    0  0.10429510176E+02  0.32378428650E+02  0.15651125453E+00  0.34017081299E+02  0.00000000000E+00 0. -1.
</event>
<event>
 5    1  0.1262391E-009  0.9118800E+02  0.7815553E-02  0.1125453E+00
         25   -1    0    0    0    0  0.00000000000E+00  0.00000000000E+00  0.99999998245E-14  0.12509000000E+03  0.12509000000E+03 0.  0.
        -13    1    3    3    0    0 -0.29425037929E+01  0.78149794565E+01  0.34690917980E+02  0.35681972855E+02  0.10566000000E+00 0.  1.
         23    2    1    0    0    0  0.75996043342E+01 -0.25319014088E+02 -0.13736354847E+02  0.95299164079E+02  0.90523128366E+02 0.  0.
         13    1    3    3    0    0  0.10542108127E+02 -0.33133993544E+02 -0.48427272827E+02  0.59617191224E+02  0.10566000000E+00 0. -1.
         22    1    1    0    0    0 -0.75996043342E+01  0.25319014088E+02  0.13736354847E+02  0.29790835921E+02  0.00000000000E+00 0. -1.
</event>
<event>
 5    1  0.1262391E-009  0.9118800E+02  0.7815553E-02  0.1125453E+00
         25   -1    0    0    0    0  0.00000000000E+00  0.00000000000E+00  0.99999998245E-14  0.12509000000E+03  0.12509000000E+03 0.  0.
        -13    1    3    3    0    0  0.67259497861E+01  0.21808886018E+02  0.25467532296E+02  0.34197547794E+02  0.10566000000E+00 0. -1.
         23    2    1    0    0    0 -0.16910125544E+02 -0.18973165093E+02 -0.14352345873E+02  0.95902277039E+02  0.91352742541E+02 0.  0.
         13    1    3    3    0    0 -0.23636075330E+02 -0.40782051111E+02 -0.39819878169E+02  0.61704729245E+02  0.10566000000E+00 0.  1.
         22    1    1    0    0    0  0.16910125544E+02  0.18973165093E+02  0.14352345873E+02  0.29187722961E+02  0.00000000000E+00 0.  1.
</event>
<event>
 5    1  0.1262391E-009  0.9118800E+02  0.7815553E-02  0.1125453E+00
         25   -1    0    0    0    0  0.00000000000E+00  0.00000000000E+00  0.99999998245E-14  0.12509000000E+03  0.12509000000E+03 0.  0.
        -13    1    3    3    0    0  0.18656894863E+02 -0.27623595779E+02  0.97029299975E+00  0.33348094432E+02  0.10566000000E+00 0.  1.
         23    2    1    0    0    0 -0.10104002114E+02  0.24768074573E+02  0.14551217599E+02  0.94638623834E+02  0.89605707467E+02 0.  0.
         13    1    3    3    0    0 -0.28760896977E+02  0.52391670353E+02  0.13580924599E+02  0.61290529402E+02  0.10566000000E+00 0. -1.
         22    1    1    0    0    0  0.10104002114E+02 -0.24768074573E+02 -0.14551217599E+02  0.30451376166E+02  0.00000000000E+00 0. -1.
</event>
<event>
 5    1  0.1262391E-009  0.9118800E+02  0.7815553E-02  0.1125453E+00
         25   -1    0    0    0    0  0.00000000000E+00  0.00000000000E+00  0.99999998245E-14  0.12509000000E+03  0.12509000000E+03 0.  0.
        -13    1    3    3    0    0  0.36527449070E+02 -0.30937577977E+02  0.89462190580E+01  0.48697374325E+02  0.10566000000E+00 0.  1.
         23    2    1    0    0    0  0.82694767987E+01  0.13843962172E+01  0.28141485406E+02  0.95726008442E+02  0.91111056914E+02 0.  0.
         13    1    3    3    0    0 -0.28257972271E+02  0.32321974194E+02  0.19195266348E+02  0.47028634117E+02  0.10566000000E+00 0. -1.
         22    1    1    0    0    0 -0.82694767987E+01 -0.13843962172E+01 -0.28141485406E+02  0.29363991558E+02  0.00000000000E+00 0. -1.
</event>
<event>
 5    1  0.1262391E-009  0.9118800E+02  0.7815553E-02  0.1125453E+00
         25   -1    0    0    0    0  0.00000000000E+00  0.00000000000E+00  0.99999998245E-14  0.12509000000E+03  0.12509000000E+03 0.  0.
        -13    1    3    3    0    0  0.69822046534E+01 -0.71618559078E+01 -0.45774577184E+02  0.46854737671E+02  0.10566000000E+00 0. -1.
         23    2    1    0    0    0 -0.26973740771E+02 -0.47854942252E+01 -0.10846613585E+02  0.95625908763E+02  0.90973522271E+02 0.  0.
         13    1    3    3    0    0 -0.33955945424E+02  0.23763616826E+01  0.34927963599E+02  0.48771171092E+02  0.10566000000E+00 0.  1.
         22    1    1    0    0    0  0.26973740771E+02  0.47854942252E+01  0.10846613585E+02  0.29464091237E+02  0.00000000000E+00 0. -1.
</event>
<event>
 5    1  0.1262391E-009  0.9118800E+02  0.7815553E-02  0.1125453E+00
         25   -1    0    0    0    0  0.00000000000E+00  0.00000000000E+00  0.99999998245E-14  0.12509000000E+03  0.12509000000E+03 0.  0.
        -13    1    3    3    0    0  0.19459368510E+02 -0.14931555840E+02 -0.25765955159E+02  0.35574063472E+02  0.10566000000E+00 0.  1.
         23    2    1    0    0    0 -0.26840817308E+02 -0.44555546617E+01  0.11126326488E+02  0.95694820425E+02  0.91068227577E+02 0.  0.
         13    1    3    3    0    0 -0.46300185818E+02  0.10476001179E+02  0.36892281647E+02  0.60120756953E+02  0.10566000000E+00 0. -1.
         22    1    1    0    0    0  0.26840817308E+02  0.44555546617E+01 -0.11126326488E+02  0.29395179575E+02  0.00000000000E+00 0. -1.
</event>
<event>
 5    1  0.1262391E-009  0.9118800E+02  0.7815553E-02  0.1125453E+00
         25   -1    0    0    0    0  0.00000000000E+00  0.00000000000E+00  0.99999998245E-14  0.12509000000E+03  0.12509000000E+03 0.  0.
        -13    1    3    3    0    0  0.47536729542E+02 -0.30857870817E+02  0.13580944191E+02  0.58278658668E+02  0.10566000000E+00 0. -1.
         23    2    1    0    0    0  0.21240429617E+02 -0.44159970844E+01  0.19356939628E+02  0.96015131258E+02  0.91507144192E+02 0.  0.
         13    1    3    3    0    0 -0.26296299925E+02  0.26441873733E+02  0.57759954371E+01  0.37736472591E+02  0.10566000000E+00 0.  1.
         22    1    1    0    0    0 -0.21240429617E+02  0.44159970844E+01 -0.19356939628E+02  0.29074868742E+02  0.00000000000E+00 0. -1.
</event>
<event>
 5    1  0.1262391E-009  0.9118800E+02  0.7815553E-02  0.1125453E+00
         25   -1    0    0    0    0  0.00000000000E+00  0.00000000000E+00  0.99999998245E-14  0.12509000000E+03  0.12509000000E+03 0.  0.
        -13    1    3    3    0    0  0.24661763171E+02  0.53874660818E+02  0.25983593909E+01  0.59308045631E+02  0.10566000000E+00 0. -1.
         23    2    1    0    0    0  0.72651926048E+01  0.25533213076E+02 -0.12401564044E+02  0.95789372288E+02  0.91198010170E+02 0.  0.
         13    1    3    3    0    0 -0.17396570567E+02 -0.28341447742E+02 -0.14999923435E+02  0.36481326657E+02  0.10566000000E+00 0.  1.
         22    1    1    0    0    0 -0.72651926048E+01 -0.25533213076E+02  0.12401564044E+02  0.29300627712E+02  0.00000000000E+00 0. -1.
</event>
<event>
 5    1  0.1262391E-009  0.9118800E+02  0.7815553E-02  0.1125453E+00
         25   -1    0    0    0    0  0.00000000000E+00  0.00000000000E+00  0.99999998245E-14  0.12509000000E+03  0.12509000000E+03 0.  0.
        -13    1    3    3    0    0 -0.44401769820E+02 -0.30517064411E+02 -0.13804737847E+02  0.55618255406E+02  0.10566000000E+00 0.  1.
         23    2    1    0    0    0 -0.92093204976E+01 -0.14307124264E+02 -0.23987860372E+02  0.95680429551E+02  0.91048458335E+02 0.  0.
         13    1    3    3    0    0  0.35192449322E+02  0.16209940147E+02 -0.10183122525E+02  0.40062174145E+02  0.10566000000E+00 0. -1.
         22    1    1    0    0    0  0.92093204976E+01  0.14307124264E+02  0.23987860372E+02  0.29409570449E+02  0.00000000000E+00 0.  1.
</event>
<event>
 5    1  0.1262391E-009  0.9118800E+02  0.7815553E-02  0.1125453E+00
         25   -1    0    0    0    0  0.00000000000E+00  0.00000000000E+00  0.99999998245E-14  0.12509000000E+03  0.12509000000E+03 0.  0.
        -13    1    3    3    0    0 -0.15766969295E+02  0.23326542249E+02  0.22471997726E+02  0.36023974515E+02  0.10566000000E+00 0. -1.
         23    2    1    0    0    0 -0.23424490498E+01 -0.23384101725E+02 -0.14839380830E+02  0.97295926811E+02  0.93241551196E+02 0.  0.
         13    1    3    3    0    0  0.13424520245E+02 -0.46710643974E+02 -0.37311378556E+02  0.61271952295E+02  0.10566000000E+00 0.  1.
         22    1    1    0    0    0  0.23424490498E+01  0.23384101725E+02  0.14839380830E+02  0.27794073189E+02  0.00000000000E+00 0.  1.
</event>
<event>
 5    1  0.1262391E-009  0.9118800E+02  0.7815553E-02  0.1125453E+00
         25   -1    0    0    0    0  0.00000000000E+00  0.00000000000E+00  0.99999998245E-14  0.12509000000E+03  0.12509000000E+03 0.  0.
        -13    1    3    3    0    0 -0.94068136469E+01 -0.39183940176E+02 -0.46922277863E+02  0.61851278358E+02  0.10566000000E+00 0.  1.
         23    2    1    0    0    0  0.18908458293E+01 -0.19568198825E+02 -0.23982606670E+02  0.94079435253E+02  0.88821647202E+02 0.  0.
         13    1    3    3    0    0  0.11297659476E+02  0.19615741350E+02  0.22939671193E+02  0.32228156895E+02  0.10566000000E+00 0. -1.
         22    1    1    0    0    0 -0.18908458293E+01  0.19568198825E+02  0.23982606670E+02  0.31010564747E+02  0.00000000000E+00 0.  1.
</event>
<event>
 5    1  0.1262391E-009  0.9118800E+02  0.7815553E-02  0.1125453E+00
         25   -1    0    0    0    0  0.00000000000E+00  0.00000000000E+00  0.99999998245E-14  0.12509000000E+03  0.12509000000E+03 0.  0.
        -13    1    3    3    0    0  0.36338186153E+02 -0.22174111152E+02 -0.35024191791E+02  0.55125857389E+02  0.10566000000E+00 0.  1.
         23    2    1    0    0    0  0.19725856299E+02 -0.21010603003E+02  0.24829494047E+01  0.96163889251E+02  0.91710270488E+02 0.  0.
         13    1    3    3    0    0 -0.16612329854E+02  0.11635081485E+01  0.37507141196E+02  0.41038031862E+02  0.10566000000E+00 0. -1.
         22    1    1    0    0    0 -0.19725856299E+02  0.21010603003E+02 -0.24829494047E+01  0.28926110749E+02  0.00000000000E+00 0.  1.
</event>
<event>
 5    1  0.1262391E-009  0.9118800E+02  0.7815553E-02  0.1125453E+00
         25   -1    0    0    0    0  0.00000000000E+00  0.00000000000E+00  0.99999998245E-14  0.12509000000E+03  0.12509000000E+03 0.  0.
        -13    1    3    3    0    0 -0.23682278674E+02 -0.16061401062E+02  0.33375290597E+02  0.43962940231E+02  0.10566000000E+00 0. -1.
         23    2    1    0    0    0  0.15394862859E+02  0.16730175036E+02  0.13045987782E+02  0.98877438957E+02  0.95339653756E+02 0.  0.
         13    1    3    3    0    0  0.39077141533E+02  0.32791576098E+02 -0.20329302815E+02  0.54914498727E+02  0.10566000000E+00 0.  1.
         22    1    1    0    0    0 -0.15394862859E+02 -0.16730175036E+02 -0.13045987782E+02  0.26212561043E+02  0.00000000000E+00 0. -1.
</event>
<event>
 5    1  0.1262391E-009  0.9118800E+02  0.7815553E-02  0.1125453E+00
         25   -1    0    0    0    0  0.00000000000E+00  0.00000000000E+00  0.99999998245E-14  0.12509000000E+03  0.12509000000E+03 0.  0.
        -13    1    3    3    0    0  0.16048166194E+02 -0.90540854319E+01  0.32454607856E+02  0.37320675721E+02  0.10566000000E+00 0. -1.
         23    2    1    0    0    0 -0.30110387537E+01  0.84612708852E+01 -0.24020479692E+02  0.99445450793E+02  0.96082021104E+02 0.  0.
         13    1    3    3    0    0 -0.19059204948E+02  0.17515356317E+02 -0.56475087548E+02  0.62124775072E+02  0.10566000000E+00 0.  1.
         22    1    1    0    0    0  0.30110387537E+01 -0.84612708852E+01  0.24020479692E+02  0.25644549207E+02  0.00000000000E+00 0.  1.
</event>
<event>
 5    1  0.1262391E-009  0.9118800E+02  0.7815553E-02  0.1125453E+00
         25   -1    0    0    0    0  0.00000000000E+00  0.00000000000E+00  0.99999998245E-14  0.12509000000E+03  0.12509000000E+03 0.  0.
        -13    1    3    3    0    0  0.34636030793E+02  0.15515375916E+02 -0.85949055509E+01  0.38913559132E+02  0.10566000000E+00 0. -1.
         23    2    1    0    0    0  0.20536284196E-01 -0.26867025388E+02  0.95663362856E+01  0.96570668576E+02  0.92263436769E+02 0.  0.
         13    1    3    3    0    0 -0.34615494508E+02 -0.42382401304E+02  0.18161241837E+02  0.57657109444E+02  0.10566000000E+00 0.  1.
         22    1    1    0    0    0 -0.20536284196E-01  0.26867025388E+02 -0.95663362856E+01  0.28519331424E+02  0.00000000000E+00 0.  1.
</event>
<event>
 5    1  0.1262391E-009  0.9118800E+02  0.7815553E-02  0.1125453E+00
         25   -1    0    0    0    0  0.00000000000E+00  0.00000000000E+00  0.99999998245E-14  0.12509000000E+03  0.12509000000E+03 0.  0.
        -13    1    3    3    0    0  0.13478370842E+02 -0.23328396997E+01  0.31055751872E+02  0.33934930529E+02  0.10566000000E+00 0.  1.
         23    2    1    0    0    0 -0.94198018237E+01 -0.35315391017E+02 -0.53698183824E+01  0.88147552077E+02  0.80032783775E+02 0.  0.
         13    1    3    3    0    0 -0.22898172665E+02 -0.32982551317E+02 -0.36425570254E+02  0.54212621549E+02  0.10566000000E+00 0. -1.
         22    1    1    0    0    0  0.94198018237E+01  0.35315391017E+02  0.53698183824E+01  0.36942447923E+02  0.00000000000E+00 0. -1.
</event>
<event>
 5    1  0.1262391E-009  0.9118800E+02  0.7815553E-02  0.1125453E+00
         25   -1    0    0    0    0  0.00000000000E+00  0.00000000000E+00  0.99999998245E-14  0.12509000000E+03  0.12509000000E+03 0.  0.
        -13    1    3    3    0    0  0.15146835831E+02 -0.46664468632E+02 -0.21916060237E+02  0.53733826672E+02  0.10566000000E+00 0. -1.
         23    2    1    0    0    0 -0.10530795682E+02 -0.13416393094E+02 -0.23828279641E+02  0.95786686672E+02  0.91194326422E+02 0.  0.
         13    1    3    3    0    0 -0.25677631513E+02  0.33248075538E+02 -0.19122194040E+01  0.42052860000E+02  0.10566000000E+00 0.  1.
         22    1    1    0    0    0  0.10530795682E+02  0.13416393094E+02  0.23828279641E+02  0.29303313328E+02  0.00000000000E+00 0. -1.
</event>
<event>
 5    1  0.1262391E-009  0.9118800E+02  0.7815553E-02  0.1125453E+00
         25   -1    0    0    0    0  0.00000000000E+00  0.00000000000E+00  0.99999998245E-14  0.12509000000E+03  0.12509000000E+03 0.  0.
        -13    1    3    3    0    0 -0.21261156051E+02  0.47662914570E+02  0.75440520223E+01  0.52732476396E+02  0.10566000000E+00 0.  1.
         23    2    1    0    0    0 -0.27597983231E+02  0.72462373686E+01  0.12493319418E+02  0.93941329651E+02  0.88626935815E+02 0.  0.
         13    1    3    3    0    0 -0.63368271808E+01 -0.40416677202E+02  0.49492673958E+01  0.41208853254E+02  0.10566000000E+00 0. -1.
         22    1    1    0    0    0  0.27597983231E+02 -0.72462373686E+01 -0.12493319418E+02  0.31148670349E+02  0.00000000000E+00 0. -1.
</event>
<event>
 5    1  0.1262391E-009  0.9118800E+02  0.7815553E-02  0.1125453E+00
         25   -1    0    0    0    0  0.00000000000E+00  0.00000000000E+00  0.99999998245E-14  0.12509000000E+03  0.12509000000E+03 0.  0.
        -13    1    3    3    0    0  0.27556817544E+02 -0.46364113048E+02 -0.26373397632E+02  0.60038124875E+02  0.10566000000E+00 0.  1.
         23    2    1    0    0    0  0.22963682470E+02 -0.14474918539E+02 -0.10162878785E+02  0.96104864422E+02  0.91629727061E+02 0.  0.
         13    1    3    3    0    0 -0.45931350742E+01  0.31889194509E+02  0.16210518847E+02  0.36066739547E+02  0.10566000000E+00 0. -1.
         22    1    1    0    0    0 -0.22963682470E+02  0.14474918539E+02  0.10162878785E+02  0.28985135578E+02  0.00000000000E+00 0.  1.
</event>
<event>
 5    1  0.1262391E-009  0.9118800E+02  0.7815553E-02  0.1125453E+00
         25   -1    0    0    0    0  0.00000000000E+00  0.00000000000E+00  0.99999998245E-14  0.12509000000E+03  0.12509000000E+03 0.  0.
        -13    1    3    3    0    0 -0.10440843393E+02 -0.33610129438E+02 -0.10077781535E+02  0.36609081610E+02  0.10566000000E+00 0.  1.
         23    2    1    0    0    0 -0.11229637920E+02  0.25242186525E+02 -0.10680801230E+02  0.95469867264E+02  0.90758709181E+02 0.  0.
         13    1    3    3    0    0 -0.78879452784E+00  0.58852315963E+02 -0.60301969454E+00  0.58860785654E+02  0.10566000000E+00 0. -1.
         22    1    1    0    0    0  0.11229637920E+02 -0.25242186525E+02  0.10680801230E+02  0.29620132736E+02  0.00000000000E+00 0. -1.
</event>
<event>
 5    1  0.1262391E-009  0.9118800E+02  0.7815553E-02  0.1125453E+00
         25   -1    0    0    0    0  0.00000000000E+00  0.00000000000E+00  0.99999998245E-14  0.12509000000E+03  0.12509000000E+03 0.  0.
        -13    1    3    3    0    0 -0.94917857887E+01  0.44106670941E+02 -0.53132260645E+01  0.45428338669E+02  0.10566000000E+00 0.  1.
         23    2    1    0    0    0 -0.17503638584E+02  0.14813749695E+01 -0.26183184381E+02  0.93560157314E+02  0.88087297931E+02 0.  0.
         13    1    3    3    0    0 -0.80118527953E+01 -0.42625295972E+02 -0.20869958316E+02  0.48131818645E+02  0.10566000000E+00 0. -1.
         22    1    1    0    0    0  0.17503638584E+02 -0.14813749695E+01  0.26183184381E+02  0.31529842686E+02  0.00000000000E+00 0.  1.
</event>
<event>
 5    1  0.1262391E-009  0.9118800E+02  0.7815553E-02  0.1125453E+00
         25   -1    0    0    0    0  0.00000000000E+00  0.00000000000E+00  0.99999998245E-14  0.12509000000E+03  0.12509000000E+03 0.  0.
        -13    1    3    3    0    0  0.32810988041E+02 -0.30759999621E+02 -0.27840666110E+02  0.52894729098E+02  0.10566000000E+00 0.  1.
         23    2    1    0    0    0  0.26980641731E+02  0.71374479833E+01 -0.80549154794E+01  0.96042111001E+02  0.91544017992E+02 0.  0.
         13    1    3    3    0    0 -0.58303463100E+01  0.37897447604E+02  0.19785750631E+02  0.43147381902E+02  0.10566000000E+00 0. -1.
         22    1    1    0    0    0 -0.26980641731E+02 -0.71374479833E+01  0.80549154794E+01  0.29047888999E+02  0.00000000000E+00 0.  1.
</event>
<event>
 5    1  0.1262391E-009  0.9118800E+02  0.7815553E-02  0.1125453E+00
         25   -1    0    0    0    0  0.00000000000E+00  0.00000000000E+00  0.99999998245E-14  0.12509000000E+03  0.12509000000E+03 0.  0.
        -13    1    3    3    0    0 -0.43200264004E+01  0.74694194205E+01  0.60572718079E+02  0.61184313301E+02  0.10566000000E+00 0.  1.
         23    2    1    0    0    0 -0.16131362503E+01 -0.58128519228E+01  0.27669372775E+02  0.96770648916E+02  0.92534171234E+02 0.  0.
         13    1    3    3    0    0  0.27068901501E+01 -0.13282271343E+02 -0.32903345304E+02  0.35586335616E+02  0.10566000000E+00 0. -1.
         22    1    1    0    0    0  0.16131362503E+01  0.58128519228E+01 -0.27669372775E+02  0.28319351084E+02  0.00000000000E+00 0.  1.
</event>
<event>
 5    1  0.1262391E-009  0.9118800E+02  0.7815553E-02  0.1125453E+00
         25   -1    0    0    0    0  0.00000000000E+00  0.00000000000E+00  0.99999998245E-14  0.12509000000E+03  0.12509000000E+03 0.  0.
        -13    1    3    3    0    0 -0.18879454156E+02 -0.21202998753E+02 -0.36109615019E+02  0.45933826383E+02  0.10566000000E+00 0.  1.
         23    2    1    0    0    0  0.69644226183E+01  0.17785812805E+02 -0.24306458285E+02  0.94176536365E+02  0.88958292294E+02 0.  0.
         13    1    3    3    0    0  0.25843876774E+02  0.38988811559E+02  0.11803156734E+02  0.48242709982E+02  0.10566000000E+00 0. -1.
         22    1    1    0    0    0 -0.69644226183E+01 -0.17785812805E+02  0.24306458285E+02  0.30913463635E+02  0.00000000000E+00 0.  1.
</event>
<event>
 5    1  0.1262391E-009  0.9118800E+02  0.7815553E-02  0.1125453E+00
         25   -1    0    0    0    0  0.00000000000E+00  0.00000000000E+00  0.99999998245E-14  0.12509000000E+03  0.12509000000E+03 0.  0.
        -13    1    3    3    0    0  0.36589521146E+02 -0.27892362068E+02  0.89940934260E+01  0.46879438990E+02  0.10566000000E+00 0.  1.
         23    2    1    0    0    0  0.25360811562E+02  0.15994863793E+02  0.13107254544E+02  0.92366819340E+02  0.86376054334E+02 0.  0.
         13    1    3    3    0    0 -0.11228709583E+02  0.43887225861E+02  0.41131611180E+01  0.45487380350E+02  0.10566000000E+00 0. -1.
         22    1    1    0    0    0 -0.25360811562E+02 -0.15994863793E+02 -0.13107254544E+02  0.32723180660E+02  0.00000000000E+00 0.  1.
</event>
<event>
 5    1  0.1262391E-009  0.9118800E+02  0.7815553E-02  0.1125453E+00
         25   -1    0    0    0    0  0.00000000000E+00  0.00000000000E+00  0.99999998245E-14  0.12509000000E+03  0.12509000000E+03 0.  0.
        -13    1    3    3    0    0  0.60252494807E+02  0.71412053211E+01 -0.43857301946E+01  0.60832604229E+02  0.10566000000E+00 0.  1.
         23    2    1    0    0    0  0.27116487521E+02  0.21478950261E+01 -0.12256483529E+02  0.95254807073E+02  0.90461812571E+02 0.  0.
         13    1    3    3    0    0 -0.33136007286E+02 -0.49933102950E+01 -0.78707533341E+01  0.34422202844E+02  0.10566000000E+00 0. -1.
         22    1    1    0    0    0 -0.27116487521E+02 -0.21478950261E+01  0.12256483529E+02  0.29835192927E+02  0.00000000000E+00 0.  1.
</event>
<event>
 5    1  0.1262391E-009  0.9118800E+02  0.7815553E-02  0.1125453E+00
         25   -1    0    0    0    0  0.00000000000E+00  0.00000000000E+00  0.99999998245E-14  0.12509000000E+03  0.12509000000E+03 0.  0.
        -13    1    3    3    0    0 -0.28726421041E+01 -0.50624184130E+02 -0.23772082059E+02  0.56001635163E+02  0.10566000000E+00 0. -1.
         23    2    1    0    0    0  0.15264796985E+02 -0.27024620021E+02 -0.67150277015E-01  0.94052142093E+02  0.88783201163E+02 0.  0.
         13    1    3    3    0    0  0.18137439090E+02  0.23599564108E+02  0.23704931782E+02  0.38050506930E+02  0.10566000000E+00 0.  1.
         22    1    1    0    0    0 -0.15264796985E+02  0.27024620021E+02  0.67150277015E-01  0.31037857907E+02  0.00000000000E+00 0. -1.
</event>
<event>
 5    1  0.1262391E-009  0.9118800E+02  0.7815553E-02  0.1125453E+00
         25   -1    0    0    0    0  0.00000000000E+00  0.00000000000E+00  0.99999998245E-14  0.12509000000E+03  0.12509000000E+03 0.  0.
        -13    1    3    3    0    0 -0.15440680589E+02  0.26325983627E+02  0.32525873695E+02  0.44602865991E+02  0.10566000000E+00 0.  1.
         23    2    1    0    0    0  0.45045140051E+01  0.24792685737E+02 -0.14718432076E+02  0.95907810993E+02  0.91360319911E+02 0.  0.
         13    1    3    3    0    0  0.19945194594E+02 -0.15332978902E+01 -0.47244305771E+02  0.51304945001E+02  0.10566000000E+00 0. -1.
         22    1    1    0    0    0 -0.45045140051E+01 -0.24792685737E+02  0.14718432076E+02  0.29182189007E+02  0.00000000000E+00 0. -1.
</event>
<event>
 5    1  0.1262391E-009  0.9118800E+02  0.7815553E-02  0.1125453E+00
         25   -1    0    0    0    0  0.00000000000E+00  0.00000000000E+00  0.99999998245E-14  0.12509000000E+03  0.12509000000E+03 0.  0.
        -13    1    3    3    0    0  0.34289202015E+02 -0.49613409836E+01  0.39459728791E+01  0.34870419343E+02  0.10566000000E+00 0.  1.
         23    2    1    0    0    0 -0.24780438675E+02  0.11557676505E+02  0.87148693573E+01  0.96391585845E+02  0.92020317575E+02 0.  0.
         13    1    3    3    0    0 -0.59069640690E+02  0.16519017489E+02  0.47688964782E+01  0.61521166501E+02  0.10566000000E+00 0. -1.
         22    1    1    0    0    0  0.24780438675E+02 -0.11557676505E+02 -0.87148693573E+01  0.28698414155E+02  0.00000000000E+00 0. -1.
</event>
<event>
 5    1  0.1262391E-009  0.9118800E+02  0.7815553E-02  0.1125453E+00
         25   -1    0    0    0    0  0.00000000000E+00  0.00000000000E+00  0.99999998245E-14  0.12509000000E+03  0.12509000000E+03 0.  0.
        -13    1    3    3    0    0 -0.21333547352E+02 -0.44536715167E+02  0.34956693644E+02  0.60503064675E+02  0.10566000000E+00 0. -1.
         23    2    1    0    0    0 -0.19389338138E+02 -0.19482681653E+02  0.10220505500E+02  0.95764583541E+02  0.91164002820E+02 0.  0.
         13    1    3    3    0    0  0.19442092139E+01  0.25054033514E+02 -0.24736188144E+02  0.35261518866E+02  0.10566000000E+00 0.  1.
         22    1    1    0    0    0  0.19389338138E+02  0.19482681653E+02 -0.10220505500E+02  0.29325416459E+02  0.00000000000E+00 0. -1.
</event>
<event>
 5    1  0.1262391E-009  0.9118800E+02  0.7815553E-02  0.1125453E+00
         25   -1    0    0    0    0  0.00000000000E+00  0.00000000000E+00  0.99999998245E-14  0.12509000000E+03  0.12509000000E+03 0.  0.
        -13    1    3    3    0    0 -0.16715888867E+02  0.25223810982E+02 -0.40648767234E+02  0.50675388729E+02  0.10566000000E+00 0. -1.
         23    2    1    0    0    0 -0.28230970704E+02  0.71340975071E+01 -0.76147412534E+00  0.95961613554E+02  0.91433956378E+02 0.  0.
         13    1    3    3    0    0 -0.11515081837E+02 -0.18089713475E+02  0.39887293109E+02  0.45286224825E+02  0.10566000000E+00 0.  1.
         22    1    1    0    0    0  0.28230970704E+02 -0.71340975071E+01  0.76147412534E+00  0.29128386446E+02  0.00000000000E+00 0. -1.
</event>
<event>
 5    1  0.1262391E-009  0.9118800E+02  0.7815553E-02  0.1125453E+00
         25   -1    0    0    0    0  0.00000000000E+00  0.00000000000E+00  0.99999998245E-14  0.12509000000E+03  0.12509000000E+03 0.  0.
        -13    1    3    3    0    0  0.29575379392E+02 -0.13048132940E+02  0.11854904152E+02  0.34431188708E+02  0.10566000000E+00 0.  1.
         23    2    1    0    0    0 -0.29267125027E+02  0.91835796053E+00  0.16636426699E+01  0.95761247970E+02  0.91159425827E+02 0.  0.
         13    1    3    3    0    0 -0.58842504419E+02  0.13966490901E+02 -0.10191261482E+02  0.61330059261E+02  0.10566000000E+00 0. -1.
         22    1    1    0    0    0  0.29267125027E+02 -0.91835796053E+00 -0.16636426699E+01  0.29328752030E+02  0.00000000000E+00 0. -1.
</event>
<event>
 5    1  0.1262391E-009  0.9118800E+02  0.7815553E-02  0.1125453E+00
         25   -1    0    0    0    0  0.00000000000E+00  0.00000000000E+00  0.99999998245E-14  0.12509000000E+03  0.12509000000E+03 0.  0.
        -13    1    3    3    0    0  0.23539218943E+02  0.40930894319E+01 -0.25112483925E+02  0.34662605535E+02  0.10566000000E+00 0.  1.
         23    2    1    0    0    0 -0.27081424383E+02 -0.63792626107E+01  0.81085508772E+01  0.96109883793E+02  0.91636579090E+02 0.  0.
         13    1    3    3    0    0 -0.50620643326E+02 -0.10472352043E+02  0.33221034802E+02  0.61447278258E+02  0.10566000000E+00 0. -1.
         22    1    1    0    0    0  0.27081424383E+02  0.63792626107E+01 -0.81085508772E+01  0.28980116207E+02  0.00000000000E+00 0. -1.
</event>
<event>
 5    1  0.1262391E-009  0.9118800E+02  0.7815553E-02  0.1125453E+00
         25   -1    0    0    0    0  0.00000000000E+00  0.00000000000E+00  0.99999998245E-14  0.12509000000E+03  0.12509000000E+03 0.  0.
        -13    1    3    3    0    0  0.28318095391E+02  0.32876606186E+02 -0.24591756119E+02  0.49875358585E+02  0.10566000000E+00 0. -1.
         23    2    1    0    0    0 -0.13858676018E+00  0.28822821819E+01 -0.32913663365E+02  0.92050084852E+02  0.85916134273E+02 0.  0.
         13    1    3    3    0    0 -0.28456682151E+02 -0.29994324004E+02 -0.83219072456E+01  0.42174726268E+02  0.10566000000E+00 0.  1.
         22    1    1    0    0    0  0.13858676018E+00 -0.28822821819E+01  0.32913663365E+02  0.33039915148E+02  0.00000000000E+00 0. -1.
</event>
<event>
 5    1  0.1262391E-009  0.9118800E+02  0.7815553E-02  0.1125453E+00
         25   -1    0    0    0    0  0.00000000000E+00  0.00000000000E+00  0.99999998245E-14  0.12509000000E+03  0.12509000000E+03 0.  0.
        -13    1    3    3    0    0  0.49255408801E+01  0.16876174642E+01  0.43335727596E+02  0.43647513744E+02  0.10566000000E+00 0. -1.
         23    2    1    0    0    0  0.27652971548E+02  0.12194233748E+02 -0.13145456388E+01  0.94839145428E+02  0.89885200690E+02 0.  0.
         13    1    3    3    0    0  0.22727430668E+02  0.10506616284E+02 -0.44650273235E+02  0.51191631684E+02  0.10566000000E+00 0.  1.
         22    1    1    0    0    0 -0.27652971548E+02 -0.12194233748E+02  0.13145456388E+01  0.30250854572E+02  0.00000000000E+00 0.  1.
</event>
<event>
 5    1  0.1262391E-009  0.9118800E+02  0.7815553E-02  0.1125453E+00
         25   -1    0    0    0    0  0.00000000000E+00  0.00000000000E+00  0.99999998245E-14  0.12509000000E+03  0.12509000000E+03 0.  0.
        -13    1    3    3    0    0  0.20289672328E+02  0.23108691707E+02 -0.30414944366E+02  0.43252311388E+02  0.10566000000E+00 0. -1.
         23    2    1    0    0    0 -0.19165343967E+02 -0.12455734664E+02 -0.90189925806E+01  0.10051769928E+03  0.97467994267E+02 0.  0.
         13    1    3    3    0    0 -0.39455016295E+02 -0.35564426371E+02  0.21395951785E+02  0.57265387895E+02  0.10566000000E+00 0.  1.
         22    1    1    0    0    0  0.19165343967E+02  0.12455734664E+02  0.90189925806E+01  0.24572300717E+02  0.00000000000E+00 0.  1.
</event>
<event>
 5    1  0.1262391E-009  0.9118800E+02  0.7815553E-02  0.1125453E+00
         25   -1    0    0    0    0  0.00000000000E+00  0.00000000000E+00  0.99999998245E-14  0.12509000000E+03  0.12509000000E+03 0.  0.
        -13    1    3    3    0    0  0.15986868582E+02 -0.25121468146E+02 -0.12778848224E+02  0.32403367955E+02  0.10566000000E+00 0. -1.
         23    2    1    0    0    0 -0.25054249168E+02  0.75067712927E+01  0.18129408468E+02  0.93266385057E+02  0.87669128624E+02 0.  0.
         13    1    3    3    0    0 -0.41041117750E+02  0.32628239439E+02  0.30908256692E+02  0.60863017102E+02  0.10566000000E+00 0.  1.
         22    1    1    0    0    0  0.25054249168E+02 -0.75067712927E+01 -0.18129408468E+02  0.31823614943E+02  0.00000000000E+00 0.  1.
</event>
<event>
 5    1  0.1262391E-009  0.9118800E+02  0.7815553E-02  0.1125453E+00
         25   -1    0    0    0    0  0.00000000000E+00  0.00000000000E+00  0.99999998245E-14  0.12509000000E+03  0.12509000000E+03 0.  0.
        -13    1    3    3    0    0 -0.27522490456E+01 -0.13880018835E+02  0.51854369213E+02  0.53750502957E+02  0.10566000000E+00 0. -1.
         23    2    1    0    0    0  0.15766439569E+02  0.99729171963E+01  0.22461213466E+02  0.95891612982E+02  0.91338138999E+02 0.  0.
         13    1    3    3    0    0  0.18518688614E+02  0.23852936032E+02 -0.29393155747E+02  0.42141110025E+02  0.10566000000E+00 0.  1.
         22    1    1    0    0    0 -0.15766439569E+02 -0.99729171963E+01 -0.22461213466E+02  0.29198387018E+02  0.00000000000E+00 0. -1.
</event>
<event>
 5    1  0.1262391E-009  0.9118800E+02  0.7815553E-02  0.1125453E+00
         25   -1    0    0    0    0  0.00000000000E+00  0.00000000000E+00  0.99999998245E-14  0.12509000000E+03  0.12509000000E+03 0.  0.
        -13    1    3    3    0    0  0.25929735448E+02 -0.28842319642E+02 -0.78794080297E+01  0.39576846990E+02  0.10566000000E+00 0.  1.
         23    2    1    0    0    0  0.13126250347E+02  0.19150619180E+02  0.18117516835E+02  0.95640227854E+02  0.90993209113E+02 0.  0.
         13    1    3    3    0    0 -0.12803485100E+02  0.47992938822E+02  0.25996924865E+02  0.56063380865E+02  0.10566000000E+00 0. -1.
         22    1    1    0    0    0 -0.13126250347E+02 -0.19150619180E+02 -0.18117516835E+02  0.29449772146E+02  0.00000000000E+00 0. -1.
</event>
<event>
 5    1  0.1262391E-009  0.9118800E+02  0.7815553E-02  0.1125453E+00
         25   -1    0    0    0    0  0.00000000000E+00  0.00000000000E+00  0.99999998245E-14  0.12509000000E+03  0.12509000000E+03 0.  0.
        -13    1    3    3    0    0 -0.25015482372E+02  0.38241438146E+02 -0.38375855147E+02  0.59673271840E+02  0.10566000000E+00 0. -1.
         23    2    1    0    0    0 -0.86929498738E+01  0.35344618091E+02 -0.26110143244E+02  0.80295480405E+02  0.66639441683E+02 0.  0.
         13    1    3    3    0    0  0.16322532498E+02 -0.28968200555E+01  0.12265711903E+02  0.20622208565E+02  0.10566000000E+00 0.  1.
         22    1    1    0    0    0  0.86929498738E+01 -0.35344618091E+02  0.26110143244E+02  0.44794519595E+02  0.00000000000E+00 0. -1.
</event>
<event>
 5    1  0.1262391E-009  0.9118800E+02  0.7815553E-02  0.1125453E+00
         25   -1    0    0    0    0  0.00000000000E+00  0.00000000000E+00  0.99999998245E-14  0.12509000000E+03  0.12509000000E+03 0.  0.
        -13    1    3    3    0    0 -0.29189632082E+02 -0.13857571408E+02 -0.10763055318E+02  0.34057619268E+02  0.10566000000E+00 0. -1.
         23    2    1    0    0    0  0.22663979794E+02  0.18415915836E+02 -0.13459677964E+01  0.95856225603E+02  0.91289662182E+02 0.  0.
         13    1    3    3    0    0  0.51853611876E+02  0.32273487244E+02  0.94170875215E+01  0.61798606335E+02  0.10566000000E+00 0.  1.
         22    1    1    0    0    0 -0.22663979794E+02 -0.18415915836E+02  0.13459677964E+01  0.29233774397E+02  0.00000000000E+00 0.  1.
</event>
<event>
 5    1  0.1262391E-009  0.9118800E+02  0.7815553E-02  0.1125453E+00
         25   -1    0    0    0    0  0.00000000000E+00  0.00000000000E+00  0.99999998245E-14  0.12509000000E+03  0.12509000000E+03 0.  0.
        -13    1    3    3    0    0  0.73845622530E+01 -0.19823771936E+02 -0.32653017231E+02  0.38906868182E+02  0.10566000000E+00 0.  1.
         23    2    1    0    0    0  0.21723324711E+02 -0.26563717117E+01  0.19577883669E+02  0.95725860712E+02  0.91110854090E+02 0.  0.
         13    1    3    3    0    0  0.14338762458E+02  0.17167400224E+02  0.52230900900E+02  0.56818992530E+02  0.10566000000E+00 0. -1.
         22    1    1    0    0    0 -0.21723324711E+02  0.26563717117E+01 -0.19577883669E+02  0.29364139288E+02  0.00000000000E+00 0. -1.
</event>
<event>
 5    1  0.1262391E-009  0.9118800E+02  0.7815553E-02  0.1125453E+00
         25   -1    0    0    0    0  0.00000000000E+00  0.00000000000E+00  0.99999998245E-14  0.12509000000E+03  0.12509000000E+03 0.  0.
        -13    1    3    3    0    0  0.46645112498E+02 -0.29322046920E+02  0.42072433999E+01  0.55256321055E+02  0.10566000000E+00 0.  1.
         23    2    1    0    0    0  0.15068640594E+02 -0.14494665268E+02  0.22272709030E+02  0.94541140478E+02  0.89469516735E+02 0.  0.
         13    1    3    3    0    0 -0.31576471904E+02  0.14827381653E+02  0.18065465630E+02  0.39284819422E+02  0.10566000000E+00 0. -1.
         22    1    1    0    0    0 -0.15068640594E+02  0.14494665268E+02 -0.22272709030E+02  0.30548859522E+02  0.00000000000E+00 0.  1.
</event>
<event>
 5    1  0.1262391E-009  0.9118800E+02  0.7815553E-02  0.1125453E+00
         25   -1    0    0    0    0  0.00000000000E+00  0.00000000000E+00  0.99999998245E-14  0.12509000000E+03  0.12509000000E+03 0.  0.
        -13    1    3    3    0    0 -0.11692054023E+02 -0.27846535552E+02  0.16521248129E+02  0.34425230185E+02  0.10566000000E+00 0.  1.
         23    2    1    0    0    0  0.86147306725E+01  0.24443179634E+02 -0.11033744740E+02  0.96922179030E+02  0.92738787192E+02 0.  0.
         13    1    3    3    0    0  0.20306784695E+02  0.52289715186E+02 -0.27554992869E+02  0.62496948845E+02  0.10566000000E+00 0. -1.
         22    1    1    0    0    0 -0.86147306725E+01 -0.24443179634E+02  0.11033744740E+02  0.28167820970E+02  0.00000000000E+00 0. -1.
</event>
<event>
 5    1  0.1262391E-009  0.9118800E+02  0.7815553E-02  0.1125453E+00
         25   -1    0    0    0    0  0.00000000000E+00  0.00000000000E+00  0.99999998245E-14  0.12509000000E+03  0.12509000000E+03 0.  0.
        -13    1    3    3    0    0 -0.29023184949E+02  0.32346803545E+01 -0.12635592183E+02  0.31819455926E+02  0.10566000000E+00 0.  1.
         23    2    1    0    0    0  0.29749808176E+02 -0.94127039367E+01  0.24151773733E+01  0.93793304270E+02  0.88417762707E+02 0.  0.
         13    1    3    3    0    0  0.58772993125E+02 -0.12647384291E+02  0.15050769556E+02  0.61973848344E+02  0.10566000000E+00 0. -1.
         22    1    1    0    0    0 -0.29749808176E+02  0.94127039367E+01 -0.24151773733E+01  0.31296695730E+02  0.00000000000E+00 0. -1.
</event>
<event>
 5    1  0.1262391E-009  0.9118800E+02  0.7815553E-02  0.1125453E+00
         25   -1    0    0    0    0  0.00000000000E+00  0.00000000000E+00  0.99999998245E-14  0.12509000000E+03  0.12509000000E+03 0.  0.
        -13    1    3    3    0    0  0.43397851823E+01 -0.65376906930E+01 -0.61407687564E+02  0.61907110989E+02  0.10566000000E+00 0. -1.
         23    2    1    0    0    0 -0.31594936726E+00  0.28048141068E+01 -0.28963639076E+02  0.95989154743E+02  0.91471627478E+02 0.  0.
         13    1    3    3    0    0 -0.46557345496E+01  0.93425047998E+01  0.32444048488E+02  0.34082043754E+02  0.10566000000E+00 0.  1.
         22    1    1    0    0    0  0.31594936726E+00 -0.28048141068E+01  0.28963639076E+02  0.29100845257E+02  0.00000000000E+00 0. -1.
</event>
<event>
 5    1  0.1262391E-009  0.9118800E+02  0.7815553E-02  0.1125453E+00
         25   -1    0    0    0    0  0.00000000000E+00  0.00000000000E+00  0.99999998245E-14  0.12509000000E+03  0.12509000000E+03 0.  0.
        -13    1    3    3    0    0  0.47910850612E+02 -0.32108568940E+00  0.38551633225E+01  0.48066892459E+02  0.10566000000E+00 0.  1.
         23    2    1    0    0    0  0.11988294794E+02 -0.57232439546E+01 -0.26526035801E+02  0.95423431126E+02  0.90694685066E+02 0.  0.
         13    1    3    3    0    0 -0.35922555817E+02 -0.54021582652E+01 -0.30381199123E+02  0.47356538668E+02  0.10566000000E+00 0. -1.
         22    1    1    0    0    0 -0.11988294794E+02  0.57232439546E+01  0.26526035801E+02  0.29666568874E+02  0.00000000000E+00 0. -1.
</event>
<event>
 5    1  0.1262391E-009  0.9118800E+02  0.7815553E-02  0.1125453E+00
         25   -1    0    0    0    0  0.00000000000E+00  0.00000000000E+00  0.99999998245E-14  0.12509000000E+03  0.12509000000E+03 0.  0.
        -13    1    3    3    0    0 -0.43483786292E+01 -0.36574633764E+02  0.45722203765E+02  0.58712377850E+02  0.10566000000E+00 0.  1.
         23    2    1    0    0    0  0.11250658306E+02 -0.97724690016E+01  0.24918826744E+02  0.96055083279E+02  0.91561742200E+02 0.  0.
         13    1    3    3    0    0  0.15599036935E+02  0.26802164763E+02 -0.20803377020E+02  0.37342705429E+02  0.10566000000E+00 0. -1.
         22    1    1    0    0    0 -0.11250658306E+02  0.97724690016E+01 -0.24918826744E+02  0.29034916721E+02  0.00000000000E+00 0.  1.
</event>
<event>
 5    1  0.1262391E-009  0.9118800E+02  0.7815553E-02  0.1125453E+00
         25   -1    0    0    0    0  0.00000000000E+00  0.00000000000E+00  0.99999998245E-14  0.12509000000E+03  0.12509000000E+03 0.  0.
        -13    1    3    3    0    0  0.31262705091E+02 -0.47692774800E+02 -0.20302625251E+02  0.60532348821E+02  0.10566000000E+00 0.  1.
         23    2    1    0    0    0  0.12405203882E+02 -0.26230197596E+02  0.81957249127E+00  0.96062701670E+02  0.91572149717E+02 0.  0.
         13    1    3    3    0    0 -0.18857501209E+02  0.21462577204E+02  0.21122197742E+02  0.35530352849E+02  0.10566000000E+00 0. -1.
         22    1    1    0    0    0 -0.12405203882E+02  0.26230197596E+02 -0.81957249127E+00  0.29027298330E+02  0.00000000000E+00 0.  1.
</event>
<event>
 5    1  0.1262391E-009  0.9118800E+02  0.7815553E-02  0.1125453E+00
         25   -1    0    0    0    0  0.00000000000E+00  0.00000000000E+00  0.99999998245E-14  0.12509000000E+03  0.12509000000E+03 0.  0.
        -13    1    3    3    0    0  0.35993928867E+02  0.17306851645E+01  0.20499837863E+02  0.41458566098E+02  0.10566000000E+00 0. -1.
         23    2    1    0    0    0  0.11471391650E+02  0.73465361973E+01 -0.26796645154E+02  0.95029650501E+02  0.90149929908E+02 0.  0.
         13    1    3    3    0    0 -0.24522537217E+02  0.56158510328E+01 -0.47296483017E+02  0.53571084404E+02  0.10566000000E+00 0.  1.
         22    1    1    0    0    0 -0.11471391650E+02 -0.73465361973E+01  0.26796645154E+02  0.30060349499E+02  0.00000000000E+00 0.  1.
</event>
<event>
 5    1  0.1262391E-009  0.9118800E+02  0.7815553E-02  0.1125453E+00
         25   -1    0    0    0    0  0.00000000000E+00  0.00000000000E+00  0.99999998245E-14  0.12509000000E+03  0.12509000000E+03 0.  0.
        -13    1    3    3    0    0  0.61672051313E+01  0.34891450805E+02 -0.41874198170E+02  0.54853508501E+02  0.10566000000E+00 0.  1.
         23    2    1    0    0    0  0.82317527938E+01 -0.16023234129E+01 -0.30980387035E+02  0.92994617541E+02  0.87280497916E+02 0.  0.
         13    1    3    3    0    0  0.20645476625E+01 -0.36493774218E+02  0.10893811136E+02  0.38141109040E+02  0.10566000000E+00 0. -1.
         22    1    1    0    0    0 -0.82317527938E+01  0.16023234129E+01  0.30980387035E+02  0.32095382459E+02  0.00000000000E+00 0.  1.
</event>
<event>
 5    1  0.1262391E-009  0.9118800E+02  0.7815553E-02  0.1125453E+00
         25   -1    0    0    0    0  0.00000000000E+00  0.00000000000E+00  0.99999998245E-14  0.12509000000E+03  0.12509000000E+03 0.  0.
        -13    1    3    3    0    0  0.48615236791E+02  0.22589942592E+01 -0.88781833973E+01  0.49470977429E+02  0.10566000000E+00 0. -1.
         23    2    1    0    0    0  0.89869918071E+01 -0.24962685018E+02 -0.72943617778E+01  0.97574379368E+02  0.93614369251E+02 0.  0.
         13    1    3    3    0    0 -0.39628244984E+02 -0.27221679277E+02  0.15838216195E+01  0.48103401939E+02  0.10566000000E+00 0.  1.
         22    1    1    0    0    0 -0.89869918071E+01  0.24962685018E+02  0.72943617778E+01  0.27515620632E+02  0.00000000000E+00 0. -1.
</event>
<event>
 5    1  0.1262391E-009  0.9118800E+02  0.7815553E-02  0.1125453E+00
         25   -1    0    0    0    0  0.00000000000E+00  0.00000000000E+00  0.99999998245E-14  0.12509000000E+03  0.12509000000E+03 0.  0.
        -13    1    3    3    0    0  0.85362840597E+01  0.50106179505E+02  0.96105382822E+01  0.51728821562E+02  0.10566000000E+00 0.  1.
         23    2    1    0    0    0 -0.14398800132E+02  0.23191702287E+02 -0.14160972963E+02  0.94337542286E+02  0.89184405750E+02 0.  0.
         13    1    3    3    0    0 -0.22935084191E+02 -0.26914477218E+02 -0.23771511246E+02  0.42608720723E+02  0.10566000000E+00 0. -1.
         22    1    1    0    0    0  0.14398800132E+02 -0.23191702287E+02  0.14160972963E+02  0.30752457714E+02  0.00000000000E+00 0.  1.
</event>
<event>
 5    1  0.1262391E-009  0.9118800E+02  0.7815553E-02  0.1125453E+00
         25   -1    0    0    0    0  0.00000000000E+00  0.00000000000E+00  0.99999998245E-14  0.12509000000E+03  0.12509000000E+03 0.  0.
        -13    1    3    3    0    0 -0.36098467572E+02 -0.25210403702E+02 -0.13455442695E+01  0.44050941752E+02  0.10566000000E+00 0. -1.
         23    2    1    0    0    0  0.14956308968E+02 -0.19651441521E+02 -0.13666877334E+02  0.96864942553E+02  0.92661552048E+02 0.  0.
         13    1    3    3    0    0  0.51054776540E+02  0.55589621805E+01 -0.12321333065E+02  0.52814000801E+02  0.10566000000E+00 0.  1.
         22    1    1    0    0    0 -0.14956308968E+02  0.19651441521E+02  0.13666877334E+02  0.28225057447E+02  0.00000000000E+00 0. -1.
</event>
<event>
 5    1  0.1262391E-009  0.9118800E+02  0.7815553E-02  0.1125453E+00
         25   -1    0    0    0    0  0.00000000000E+00  0.00000000000E+00  0.99999998245E-14  0.12509000000E+03  0.12509000000E+03 0.  0.
        -13    1    3    3    0    0  0.14456918422E+02  0.18095474969E+02 -0.30182969073E+02  0.38045650089E+02  0.10566000000E+00 0. -1.
         23    2    1    0    0    0 -0.28261086379E+02 -0.30756841053E+01  0.35387048064E+01  0.96442639428E+02  0.92089692323E+02 0.  0.
         13    1    3    3    0    0 -0.42718004801E+02 -0.21171159074E+02  0.33721673879E+02  0.58396989339E+02  0.10566000000E+00 0.  1.
         22    1    1    0    0    0  0.28261086379E+02  0.30756841053E+01 -0.35387048064E+01  0.28647360572E+02  0.00000000000E+00 0. -1.
</event>
<event>
 5    1  0.1262391E-009  0.9118800E+02  0.7815553E-02  0.1125453E+00
         25   -1    0    0    0    0  0.00000000000E+00  0.00000000000E+00  0.99999998245E-14  0.12509000000E+03  0.12509000000E+03 0.  0.
        -13    1    3    3    0    0 -0.20688974546E+02  0.52414703829E+02  0.22629521960E+02  0.60724305459E+02  0.10566000000E+00 0.  1.
         23    2    1    0    0    0 -0.15937312946E+02  0.26048644601E+02  0.20927914032E+01  0.94481020838E+02  0.89385422152E+02 0.  0.
         13    1    3    3    0    0  0.47516615994E+01 -0.26366059229E+02 -0.20536730557E+02  0.33756715379E+02  0.10566000000E+00 0. -1.
         22    1    1    0    0    0  0.15937312946E+02 -0.26048644601E+02 -0.20927914032E+01  0.30608979162E+02  0.00000000000E+00 0.  1.
</event>
<event>
 5    1  0.1262391E-009  0.9118800E+02  0.7815553E-02  0.1125453E+00
         25   -1    0    0    0    0  0.00000000000E+00  0.00000000000E+00  0.99999998245E-14  0.12509000000E+03  0.12509000000E+03 0.  0.
        -13    1    3    3    0    0  0.88484760087E+01 -0.22965864919E+02  0.23796975483E+02  0.34234977514E+02  0.10566000000E+00 0. -1.
         23    2    1    0    0    0 -0.89695825363E+01  0.30213354038E+02  0.66874862415E+01  0.92871641175E+02  0.87104070452E+02 0.  0.
         13    1    3    3    0    0 -0.17818058545E+02  0.53179218957E+02 -0.17109489242E+02  0.58636663662E+02  0.10566000000E+00 0.  1.
         22    1    1    0    0    0  0.89695825363E+01 -0.30213354038E+02 -0.66874862415E+01  0.32218358825E+02  0.00000000000E+00 0.  1.
</event>
<event>
 5    1  0.1262391E-009  0.9118800E+02  0.7815553E-02  0.1125453E+00
         25   -1    0    0    0    0  0.00000000000E+00  0.00000000000E+00  0.99999998245E-14  0.12509000000E+03  0.12509000000E+03 0.  0.
        -13    1    3    3    0    0 -0.38076985257E+02 -0.21609853973E+02  0.12463225915E+02  0.45521267109E+02  0.10566000000E+00 0. -1.
         23    2    1    0    0    0 -0.13583312096E+02  0.21221273908E+02  0.16413273317E+02  0.95019343627E+02  0.90135627188E+02 0.  0.
         13    1    3    3    0    0  0.24493673161E+02  0.42831127881E+02  0.39500474014E+01  0.49498076518E+02  0.10566000000E+00 0.  1.
         22    1    1    0    0    0  0.13583312096E+02 -0.21221273908E+02 -0.16413273317E+02  0.30070656373E+02  0.00000000000E+00 0.  1.
</event>
<event>
 5    1  0.1262391E-009  0.9118800E+02  0.7815553E-02  0.1125453E+00
         25   -1    0    0    0    0  0.00000000000E+00  0.00000000000E+00  0.99999998245E-14  0.12509000000E+03  0.12509000000E+03 0.  0.
        -13    1    3    3    0    0 -0.26422180916E+01  0.84157778296E+01  0.36440184120E+02  0.37492730171E+02  0.10566000000E+00 0.  1.
         23    2    1    0    0    0  0.15808432212E+02  0.22880488748E+02 -0.14614590361E+02  0.93673291933E+02  0.88247810601E+02 0.  0.
         13    1    3    3    0    0  0.18450650303E+02  0.14464710918E+02 -0.51054774481E+02  0.56180561762E+02  0.10566000000E+00 0. -1.
         22    1    1    0    0    0 -0.15808432212E+02 -0.22880488748E+02  0.14614590361E+02  0.31416708067E+02  0.00000000000E+00 0. -1.
</event>
<event>
 5    1  0.1262391E-009  0.9118800E+02  0.7815553E-02  0.1125453E+00
         25   -1    0    0    0    0  0.00000000000E+00  0.00000000000E+00  0.99999998245E-14  0.12509000000E+03  0.12509000000E+03 0.  0.
        -13    1    3    3    0    0 -0.68115344974E+01  0.17873605666E+02 -0.40437196746E+02  0.44732994830E+02  0.10566000000E+00 0. -1.
         23    2    1    0    0    0 -0.74080309485E+01 -0.25128408748E+02 -0.12121235035E+02  0.96224099919E+02  0.91792359256E+02 0.  0.
         13    1    3    3    0    0 -0.59649645107E+00 -0.43002014414E+02  0.28315961711E+02  0.51491105090E+02  0.10566000000E+00 0.  1.
         22    1    1    0    0    0  0.74080309485E+01  0.25128408748E+02  0.12121235035E+02  0.28865900081E+02  0.00000000000E+00 0.  1.
</event>
<event>
 5    1  0.1262391E-009  0.9118800E+02  0.7815553E-02  0.1125453E+00
         25   -1    0    0    0    0  0.00000000000E+00  0.00000000000E+00  0.99999998245E-14  0.12509000000E+03  0.12509000000E+03 0.  0.
        -13    1    3    3    0    0 -0.46316008291E+02 -0.32756421987E+02 -0.77718222729E+01  0.57258782653E+02  0.10566000000E+00 0.  1.
         23    2    1    0    0    0 -0.18842041293E+02 -0.14582739035E+02  0.14662625823E+02  0.97113735169E+02  0.92996807282E+02 0.  0.
         13    1    3    3    0    0  0.27473966998E+02  0.18173682952E+02  0.22434448096E+02  0.39854952516E+02  0.10566000000E+00 0. -1.
         22    1    1    0    0    0  0.18842041293E+02  0.14582739035E+02 -0.14662625823E+02  0.27976264831E+02  0.00000000000E+00 0.  1.
</event>
<event>
 5    1  0.1262391E-009  0.9118800E+02  0.7815553E-02  0.1125453E+00
         25   -1    0    0    0    0  0.00000000000E+00  0.00000000000E+00  0.99999998245E-14  0.12509000000E+03  0.12509000000E+03 0.  0.
        -13    1    3    3    0    0  0.61493988037E+01 -0.43579211618E+02 -0.41743603550E+01  0.44208587846E+02  0.10566000000E+00 0.  1.
         23    2    1    0    0    0  0.70238340965E+01  0.76836834247E+00 -0.29138246975E+02  0.95107303789E+02  0.90257615534E+02 0.  0.
         13    1    3    3    0    0  0.87443529285E+00  0.44347579961E+02 -0.24963886620E+02  0.50898715943E+02  0.10566000000E+00 0. -1.
         22    1    1    0    0    0 -0.70238340965E+01 -0.76836834247E+00  0.29138246975E+02  0.29982696211E+02  0.00000000000E+00 0. -1.
</event>
<event>
 5    1  0.1262391E-009  0.9118800E+02  0.7815553E-02  0.1125453E+00
         25   -1    0    0    0    0  0.00000000000E+00  0.00000000000E+00  0.99999998245E-14  0.12509000000E+03  0.12509000000E+03 0.  0.
        -13    1    3    3    0    0  0.51264188928E+02  0.26935730493E+01 -0.16473857916E+02  0.53913556374E+02  0.10566000000E+00 0.  1.
         23    2    1    0    0    0  0.18544412286E+02  0.23788822665E+02 -0.48734722733E+01  0.94535883374E+02  0.89462166319E+02 0.  0.
         13    1    3    3    0    0 -0.32719776642E+02  0.21095249615E+02  0.11600385643E+02  0.40622327000E+02  0.10566000000E+00 0. -1.
         22    1    1    0    0    0 -0.18544412286E+02 -0.23788822665E+02  0.48734722733E+01  0.30554116626E+02  0.00000000000E+00 0.  1.
</event>
<event>
 5    1  0.1262391E-009  0.9118800E+02  0.7815553E-02  0.1125453E+00
         25   -1    0    0    0    0  0.00000000000E+00  0.00000000000E+00  0.99999998245E-14  0.12509000000E+03  0.12509000000E+03 0.  0.
        -13    1    3    3    0    0 -0.29488033141E+00 -0.20755374856E+02 -0.26488716194E+02  0.33653169085E+02  0.10566000000E+00 0. -1.
         23    2    1    0    0    0  0.42653388187E+01  0.27905480699E+02  0.10525820849E+02  0.94961908908E+02  0.90055884153E+02 0.  0.
         13    1    3    3    0    0  0.45602191502E+01  0.48660855556E+02  0.37014537043E+02  0.61308739823E+02  0.10566000000E+00 0.  1.
         22    1    1    0    0    0 -0.42653388187E+01 -0.27905480699E+02 -0.10525820849E+02  0.30128091092E+02  0.00000000000E+00 0.  1.
</event>
<event>
 5    1  0.1262391E-009  0.9118800E+02  0.7815553E-02  0.1125453E+00
         25   -1    0    0    0    0  0.00000000000E+00  0.00000000000E+00  0.99999998245E-14  0.12509000000E+03  0.12509000000E+03 0.  0.
        -13    1    3    3    0    0 -0.17349476828E+02 -0.40100178623E+02  0.20467287571E+02  0.48248831036E+02  0.10566000000E+00 0. -1.
         23    2    1    0    0    0  0.12797640185E+02 -0.40880927115E+01  0.26282669984E+02  0.95572702735E+02  0.90900333719E+02 0.  0.
         13    1    3    3    0    0  0.30147117014E+02  0.36012085911E+02  0.58153824127E+01  0.47323871699E+02  0.10566000000E+00 0.  1.
         22    1    1    0    0    0 -0.12797640185E+02  0.40880927115E+01 -0.26282669984E+02  0.29517297265E+02  0.00000000000E+00 0. -1.
</event>
<event>
 5    1  0.1262391E-009  0.9118800E+02  0.7815553E-02  0.1125453E+00
         25   -1    0    0    0    0  0.00000000000E+00  0.00000000000E+00  0.99999998245E-14  0.12509000000E+03  0.12509000000E+03 0.  0.
        -13    1    3    3    0    0 -0.41955439064E+02 -0.27572250663E+02  0.35900973697E+02  0.61720166478E+02  0.10566000000E+00 0. -1.
         23    2    1    0    0    0 -0.13783790638E+02 -0.17080408377E+02  0.17968469489E+02  0.96724543359E+02  0.92471823587E+02 0.  0.
         13    1    3    3    0    0  0.28171648426E+02  0.10491842286E+02 -0.17932504208E+02  0.35004376880E+02  0.10566000000E+00 0.  1.
         22    1    1    0    0    0  0.13783790638E+02  0.17080408377E+02 -0.17968469489E+02  0.28365456641E+02  0.00000000000E+00 0. -1.
</event>
<event>
 5    1  0.1262391E-009  0.9118800E+02  0.7815553E-02  0.1125453E+00
         25   -1    0    0    0    0  0.00000000000E+00  0.00000000000E+00  0.99999998245E-14  0.12509000000E+03  0.12509000000E+03 0.  0.
        -13    1    3    3    0    0  0.24467663803E+02  0.22019302146E+02 -0.85944385308E+01  0.34020461147E+02  0.10566000000E+00 0.  1.
         23    2    1    0    0    0 -0.22153286768E+02 -0.15591376446E+02  0.91542051457E+01  0.96495269612E+02  0.92161154786E+02 0.  0.
         13    1    3    3    0    0 -0.46620950572E+02 -0.37610678592E+02  0.17748643677E+02  0.62474808465E+02  0.10566000000E+00 0. -1.
         22    1    1    0    0    0  0.22153286768E+02  0.15591376446E+02 -0.91542051457E+01  0.28594730388E+02  0.00000000000E+00 0. -1.
</event>
<event>
 5    1  0.1262391E-009  0.9118800E+02  0.7815553E-02  0.1125453E+00
         25   -1    0    0    0    0  0.00000000000E+00  0.00000000000E+00  0.99999998245E-14  0.12509000000E+03  0.12509000000E+03 0.  0.
        -13    1    3    3    0    0 -0.29311759329E+02  0.27544135485E+01 -0.20748237248E+02  0.36017586564E+02  0.10566000000E+00 0. -1.
         23    2    1    0    0    0  0.14225714938E+02 -0.26315530930E+02  0.56487891796E+01  0.94646824199E+02  0.89617154486E+02 0.  0.
         13    1    3    3    0    0  0.43537474266E+02 -0.29069944479E+02  0.26397026427E+02  0.58629237636E+02  0.10566000000E+00 0.  1.
         22    1    1    0    0    0 -0.14225714938E+02  0.26315530930E+02 -0.56487891796E+01  0.30443175801E+02  0.00000000000E+00 0.  1.
</event>
<event>
 5    1  0.1262391E-009  0.9118800E+02  0.7815553E-02  0.1125453E+00
         25   -1    0    0    0    0  0.00000000000E+00  0.00000000000E+00  0.99999998245E-14  0.12509000000E+03  0.12509000000E+03 0.  0.
        -13    1    3    3    0    0 -0.28172978871E+02 -0.15762943095E+02 -0.27964026053E+02  0.42710479166E+02  0.10566000000E+00 0.  1.
         23    2    1    0    0    0  0.38959110073E+01  0.25168946505E+02 -0.10094261284E+02  0.97693867032E+02  0.93773895909E+02 0.  0.
         13    1    3    3    0    0  0.32068889878E+02  0.40931889600E+02  0.17869764769E+02  0.54983387866E+02  0.10566000000E+00 0. -1.
         22    1    1    0    0    0 -0.38959110073E+01 -0.25168946505E+02  0.10094261284E+02  0.27396132968E+02  0.00000000000E+00 0. -1.
</event>
<event>
 5    1  0.1262391E-009  0.9118800E+02  0.7815553E-02  0.1125453E+00
         25   -1    0    0    0    0  0.00000000000E+00  0.00000000000E+00  0.99999998245E-14  0.12509000000E+03  0.12509000000E+03 0.  0.
        -13    1    3    3    0    0 -0.25655304196E+01  0.42809723822E+01  0.36015217611E+02  0.36359534300E+02  0.10566000000E+00 0.  1.
         23    2    1    0    0    0 -0.66115875187E+01  0.24158981944E+02 -0.18123133214E+02  0.94173702428E+02  0.88954307222E+02 0.  0.
         13    1    3    3    0    0 -0.40460570991E+01  0.19878009562E+02 -0.54138350825E+02  0.57814168128E+02  0.10566000000E+00 0. -1.
         22    1    1    0    0    0  0.66115875187E+01 -0.24158981944E+02  0.18123133214E+02  0.30916297572E+02  0.00000000000E+00 0. -1.
</event>
<event>
 5    1  0.1262391E-009  0.9118800E+02  0.7815553E-02  0.1125453E+00
         25   -1    0    0    0    0  0.00000000000E+00  0.00000000000E+00  0.99999998245E-14  0.12509000000E+03  0.12509000000E+03 0.  0.
        -13    1    3    3    0    0  0.39598369751E+02  0.32638395709E+02  0.29184215919E+02  0.59034103570E+02  0.10566000000E+00 0. -1.
         23    2    1    0    0    0  0.23412237561E+02  0.43647065082E+01  0.22571374511E+02  0.92277647482E+02  0.86246818764E+02 0.  0.
         13    1    3    3    0    0 -0.16186132191E+02 -0.28273689200E+02 -0.66128414087E+01  0.33243543912E+02  0.10566000000E+00 0.  1.
         22    1    1    0    0    0 -0.23412237561E+02 -0.43647065082E+01 -0.22571374511E+02  0.32812352518E+02  0.00000000000E+00 0. -1.
</event>
<event>
 5    1  0.1262391E-009  0.9118800E+02  0.7815553E-02  0.1125453E+00
         25   -1    0    0    0    0  0.00000000000E+00  0.00000000000E+00  0.99999998245E-14  0.12509000000E+03  0.12509000000E+03 0.  0.
        -13    1    3    3    0    0 -0.24483175522E+02 -0.12411239398E+01  0.25920578043E+02  0.35677076708E+02  0.10566000000E+00 0.  1.
         23    2    1    0    0    0  0.23964617577E+02 -0.19595235009E+02 -0.11126921862E+01  0.94113973551E+02  0.88870275137E+02 0.  0.
         13    1    3    3    0    0  0.48447793099E+02 -0.18354111070E+02 -0.27033270229E+02  0.58436896843E+02  0.10566000000E+00 0. -1.
         22    1    1    0    0    0 -0.23964617577E+02  0.19595235009E+02  0.11126921862E+01  0.30976026449E+02  0.00000000000E+00 0. -1.
</event>
<event>
 5    1  0.1262391E-009  0.9118800E+02  0.7815553E-02  0.1125453E+00
         25   -1    0    0    0    0  0.00000000000E+00  0.00000000000E+00  0.99999998245E-14  0.12509000000E+03  0.12509000000E+03 0.  0.
        -13    1    3    3    0    0 -0.56367130198E+01 -0.32428930752E+02 -0.37398126977E+02  0.49820067732E+02  0.10566000000E+00 0. -1.
         23    2    1    0    0    0 -0.21995872531E+02  0.45439437274E+01 -0.23525529914E+02  0.92564373323E+02  0.86661680217E+02 0.  0.
         13    1    3    3    0    0 -0.16359159511E+02  0.36972874480E+02  0.13872597063E+02  0.42744305591E+02  0.10566000000E+00 0.  1.
         22    1    1    0    0    0  0.21995872531E+02 -0.45439437274E+01  0.23525529914E+02  0.32525626677E+02  0.00000000000E+00 0. -1.
</event>
<event>
 5    1  0.1262391E-009  0.9118800E+02  0.7815553E-02  0.1125453E+00
         25   -1    0    0    0    0  0.00000000000E+00  0.00000000000E+00  0.99999998245E-14  0.12509000000E+03  0.12509000000E+03 0.  0.
        -13    1    3    3    0    0 -0.13013388394E+02 -0.78752277955E+01  0.54969377479E+02  0.57035174364E+02  0.10566000000E+00 0.  1.
         23    2    1    0    0    0  0.12510335506E+02 -0.68829626152E+01  0.23816701651E+02  0.97320971454E+02  0.93275144269E+02 0.  0.
         13    1    3    3    0    0  0.25523723900E+02  0.99226518027E+00 -0.31152675828E+02  0.40285797090E+02  0.10566000000E+00 0. -1.
         22    1    1    0    0    0 -0.12510335506E+02  0.68829626152E+01 -0.23816701651E+02  0.27769028546E+02  0.00000000000E+00 0.  1.
</event>
<event>
 5    1  0.1262391E-009  0.9118800E+02  0.7815553E-02  0.1125453E+00
         25   -1    0    0    0    0  0.00000000000E+00  0.00000000000E+00  0.99999998245E-14  0.12509000000E+03  0.12509000000E+03 0.  0.
        -13    1    3    3    0    0 -0.35316293986E+02  0.30948246329E+02 -0.42339151988E+01  0.47148401603E+02  0.10566000000E+00 0. -1.
         23    2    1    0    0    0  0.99272332690E+01  0.29357985414E+02  0.59050408029E+01  0.93541453681E+02  0.88060733486E+02 0.  0.
         13    1    3    3    0    0  0.45243527255E+02 -0.15902609155E+01  0.10138956002E+02  0.46393052078E+02  0.10566000000E+00 0.  1.
         22    1    1    0    0    0 -0.99272332690E+01 -0.29357985414E+02 -0.59050408029E+01  0.31548546319E+02  0.00000000000E+00 0.  1.
</event>
<event>
 5    1  0.1262391E-009  0.9118800E+02  0.7815553E-02  0.1125453E+00
         25   -1    0    0    0    0  0.00000000000E+00  0.00000000000E+00  0.99999998245E-14  0.12509000000E+03  0.12509000000E+03 0.  0.
        -13    1    3    3    0    0  0.20083237057E+02  0.57867992446E+01 -0.38556167609E+02  0.43856729027E+02  0.10566000000E+00 0.  1.
         23    2    1    0    0    0  0.81878548294E+01  0.21219836391E+02  0.12944033286E+02  0.98919970942E+02  0.95395441349E+02 0.  0.
         13    1    3    3    0    0 -0.11895382227E+02  0.15433037147E+02  0.51500200895E+02  0.55063241915E+02  0.10566000000E+00 0. -1.
         22    1    1    0    0    0 -0.81878548294E+01 -0.21219836391E+02 -0.12944033286E+02  0.26170029058E+02  0.00000000000E+00 0. -1.
</event>
<event>
 5    1  0.1262391E-009  0.9118800E+02  0.7815553E-02  0.1125453E+00
         25   -1    0    0    0    0  0.00000000000E+00  0.00000000000E+00  0.99999998245E-14  0.12509000000E+03  0.12509000000E+03 0.  0.
        -13    1    3    3    0    0  0.19173098570E+02  0.21748815173E+02  0.18269652630E+02  0.34269666492E+02  0.10566000000E+00 0.  1.
         23    2    1    0    0    0 -0.12067184549E+02 -0.12936978423E+02 -0.22652458864E+02  0.96347761983E+02  0.91960725274E+02 0.  0.
         13    1    3    3    0    0 -0.31240283118E+02 -0.34685793596E+02 -0.40922111494E+02  0.62078095491E+02  0.10566000000E+00 0. -1.
         22    1    1    0    0    0  0.12067184549E+02  0.12936978423E+02  0.22652458864E+02  0.28742238017E+02  0.00000000000E+00 0. -1.
</event>
<event>
 5    1  0.1262391E-009  0.9118800E+02  0.7815553E-02  0.1125453E+00
         25   -1    0    0    0    0  0.00000000000E+00  0.00000000000E+00  0.99999998245E-14  0.12509000000E+03  0.12509000000E+03 0.  0.
        -13    1    3    3    0    0  0.21323421323E+02  0.38948341429E+02 -0.70277689291E+01  0.44956226455E+02  0.10566000000E+00 0. -1.
         23    2    1    0    0    0  0.56102723154E+01  0.18509936251E+01  0.26851754610E+02  0.97596035963E+02  0.93643302896E+02 0.  0.
         13    1    3    3    0    0 -0.15713149007E+02 -0.37097347804E+02  0.33879523539E+02  0.52639809508E+02  0.10566000000E+00 0.  1.
         22    1    1    0    0    0 -0.56102723154E+01 -0.18509936251E+01 -0.26851754610E+02  0.27493964037E+02  0.00000000000E+00 0. -1.
</event>
<event>
 5    1  0.1262391E-009  0.9118800E+02  0.7815553E-02  0.1125453E+00
         25   -1    0    0    0    0  0.00000000000E+00  0.00000000000E+00  0.99999998245E-14  0.12509000000E+03  0.12509000000E+03 0.  0.
        -13    1    3    3    0    0  0.17165841637E+02  0.59546120952E+02  0.36515137406E+00  0.61972180364E+02  0.10566000000E+00 0. -1.
         23    2    1    0    0    0  0.53895810489E+01  0.27128204280E+02  0.56355693908E+01  0.96863298214E+02  0.92659332219E+02 0.  0.
         13    1    3    3    0    0 -0.11776260588E+02 -0.32417916671E+02  0.52704180167E+01  0.34891117850E+02  0.10566000000E+00 0.  1.
         22    1    1    0    0    0 -0.53895810489E+01 -0.27128204280E+02 -0.56355693908E+01  0.28226701786E+02  0.00000000000E+00 0. -1.
</event>
<event>
 5    1  0.1262391E-009  0.9118800E+02  0.7815553E-02  0.1125453E+00
         25   -1    0    0    0    0  0.00000000000E+00  0.00000000000E+00  0.99999998245E-14  0.12509000000E+03  0.12509000000E+03 0.  0.
        -13    1    3    3    0    0 -0.47960726323E+02 -0.30524096893E+02 -0.15853160382E+02  0.59019366472E+02  0.10566000000E+00 0. -1.
         23    2    1    0    0    0 -0.25725231391E+02 -0.16541031580E+01  0.12658544168E+01  0.99280583603E+02  0.95867138821E+02 0.  0.
         13    1    3    3    0    0  0.22235494932E+02  0.28869993735E+02  0.17119014799E+02  0.40261217131E+02  0.10566000000E+00 0.  1.
         22    1    1    0    0    0  0.25725231391E+02  0.16541031580E+01 -0.12658544168E+01  0.25809416397E+02  0.00000000000E+00 0. -1.
</event>
