<event>
 5    1  0.1319298E-009  0.9118800E+02  0.7818608E-02  0.1130116E+00
         25   -1    0    0    0    0  0.00000000000E+00  0.00000000000E+00  0.99999998245E-14  0.12500000000E+03  0.12500000000E+03 0.  0.
        -13    1    3    3    0    0 -0.16071922757E+02 -0.25097322133E+02  0.47787870898E+02  0.56319393182E+02  0.10566000000E+00 0. -1.
         23    2    1    0    0    0 -0.21557106614E+02  0.19703384532E+01  0.19270454267E+02  0.96018255973E+02  0.91539958451E+02 0.  0.
         13    1    3    3    0    0 -0.54851838571E+01  0.27067660586E+02 -0.28517416631E+02  0.39698862791E+02  0.10566000000E+00 0.  1.
         22    1    1    0    0    0  0.21557106614E+02 -0.19703384532E+01 -0.19270454267E+02  0.28981744027E+02  0.00000000000E+00 0. -1.
</event>
<event>
 5    1  0.1319298E-009  0.9118800E+02  0.7818608E-02  0.1130116E+00
         25   -1    0    0    0    0  0.00000000000E+00  0.00000000000E+00  0.99999998245E-14  0.12500000000E+03  0.12500000000E+03 0.  0.
        -13    1    3    3    0    0 -0.96316747106E+00  0.26931305934E+02 -0.26011796389E+02  0.37454607811E+02  0.10566000000E+00 0.  1.
         23    2    1    0    0    0  0.18855548337E+02  0.49702103513E+01  0.23089337323E+02  0.94778282775E+02  0.89830789230E+02 0.  0.
         13    1    3    3    0    0  0.19818715808E+02 -0.21961095583E+02  0.49101133712E+02  0.57323674963E+02  0.10566000000E+00 0. -1.
         22    1    1    0    0    0 -0.18855548337E+02 -0.49702103513E+01 -0.23089337323E+02  0.30221717225E+02  0.00000000000E+00 0. -1.
</event>
<event>
 5    1  0.1319298E-009  0.9118800E+02  0.7818608E-02  0.1130116E+00
         25   -1    0    0    0    0  0.00000000000E+00  0.00000000000E+00  0.99999998245E-14  0.12500000000E+03  0.12500000000E+03 0.  0.
        -13    1    3    3    0    0 -0.46187214604E+01 -0.34106344860E+02  0.11624027319E+02  0.36327737650E+02  0.10566000000E+00 0. -1.
         23    2    1    0    0    0 -0.20480504767E+02  0.21257114734E+02 -0.16755875645E+01  0.95434418727E+02  0.90739212482E+02 0.  0.
         13    1    3    3    0    0 -0.15861783306E+02  0.55363459594E+02 -0.13299614884E+02  0.59106681077E+02  0.10566000000E+00 0.  1.
         22    1    1    0    0    0  0.20480504767E+02 -0.21257114734E+02  0.16755875645E+01  0.29565581273E+02  0.00000000000E+00 0.  1.
</event>
<event>
 5    1  0.1319298E-009  0.9118800E+02  0.7818608E-02  0.1130116E+00
         25   -1    0    0    0    0  0.00000000000E+00  0.00000000000E+00  0.99999998245E-14  0.12500000000E+03  0.12500000000E+03 0.  0.
        -13    1    3    3    0    0 -0.41128338716E+02 -0.33541670293E+02 -0.18747984444E+02  0.56285717339E+02  0.10566000000E+00 0. -1.
         23    2    1    0    0    0 -0.10656461158E+02 -0.25411331537E+02  0.65038843004E+01  0.96687521375E+02  0.92449339336E+02 0.  0.
         13    1    3    3    0    0  0.30471877558E+02  0.81303387560E+01  0.25251868745E+02  0.40401804036E+02  0.10566000000E+00 0.  1.
         22    1    1    0    0    0  0.10656461158E+02  0.25411331537E+02 -0.65038843004E+01  0.28312478625E+02  0.00000000000E+00 0. -1.
</event>
<event>
 5    1  0.1319298E-009  0.9118800E+02  0.7818608E-02  0.1130116E+00
         25   -1    0    0    0    0  0.00000000000E+00  0.00000000000E+00  0.99999998245E-14  0.12500000000E+03  0.12500000000E+03 0.  0.
        -13    1    3    3    0    0  0.52605196276E+02  0.94909480161E+01  0.93295355868E+01  0.54262659056E+02  0.10566000000E+00 0.  1.
         23    2    1    0    0    0  0.14110688647E+02  0.17056224271E+02 -0.12925117040E+02  0.99366331301E+02  0.96003035500E+02 0.  0.
         13    1    3    3    0    0 -0.38494507629E+02  0.75652762549E+01 -0.22254652627E+02  0.45103672245E+02  0.10566000000E+00 0. -1.
         22    1    1    0    0    0 -0.14110688647E+02 -0.17056224271E+02  0.12925117040E+02  0.25633668699E+02  0.00000000000E+00 0.  1.
</event>
<event>
 5    1  0.1319298E-009  0.9118800E+02  0.7818608E-02  0.1130116E+00
         25   -1    0    0    0    0  0.00000000000E+00  0.00000000000E+00  0.99999998245E-14  0.12500000000E+03  0.12500000000E+03 0.  0.
        -13    1    3    3    0    0  0.20530070639E+02 -0.21960146706E+01  0.52269373891E+02  0.56199687649E+02  0.10566000000E+00 0.  1.
         23    2    1    0    0    0  0.24630324205E+02 -0.60787951932E+01  0.11871595533E+02  0.96990369478E+02  0.92857914954E+02 0.  0.
         13    1    3    3    0    0  0.41002535664E+01 -0.38827805226E+01 -0.40397778357E+02  0.40790681830E+02  0.10566000000E+00 0. -1.
         22    1    1    0    0    0 -0.24630324205E+02  0.60787951932E+01 -0.11871595533E+02  0.28009630522E+02  0.00000000000E+00 0.  1.
</event>
<event>
 5    1  0.1319298E-009  0.9118800E+02  0.7818608E-02  0.1130116E+00
         25   -1    0    0    0    0  0.00000000000E+00  0.00000000000E+00  0.99999998245E-14  0.12500000000E+03  0.12500000000E+03 0.  0.
        -13    1    3    3    0    0 -0.56839715153E+01 -0.36096716907E+02 -0.16285456315E+02  0.40006346434E+02  0.10566000000E+00 0.  1.
         23    2    1    0    0    0  0.55658150038E+01  0.17172893250E+02 -0.23972028769E+02  0.94990922664E+02  0.90126193007E+02 0.  0.
         13    1    3    3    0    0  0.11249786519E+02  0.53269610157E+02 -0.76865724546E+01  0.54984576230E+02  0.10566000000E+00 0. -1.
         22    1    1    0    0    0 -0.55658150038E+01 -0.17172893250E+02  0.23972028769E+02  0.30009077336E+02  0.00000000000E+00 0. -1.
</event>
<event>
 5    1  0.1319298E-009  0.9118800E+02  0.7818608E-02  0.1130116E+00
         25   -1    0    0    0    0  0.00000000000E+00  0.00000000000E+00  0.99999998245E-14  0.12500000000E+03  0.12500000000E+03 0.  0.
        -13    1    3    3    0    0 -0.55828229071E+02 -0.14222381026E+02 -0.74042068234E+01  0.58085288378E+02  0.10566000000E+00 0. -1.
         23    2    1    0    0    0 -0.32608749974E+02 -0.77928525501E+01  0.12379584641E+02  0.89260480675E+02  0.81793154779E+02 0.  0.
         13    1    3    3    0    0  0.23219479098E+02  0.64295284758E+01  0.19783791464E+02  0.31175192296E+02  0.10566000000E+00 0.  1.
         22    1    1    0    0    0  0.32608749974E+02  0.77928525501E+01 -0.12379584641E+02  0.35739519325E+02  0.00000000000E+00 0. -1.
</event>
<event>
 5    1  0.1319298E-009  0.9118800E+02  0.7818608E-02  0.1130116E+00
         25   -1    0    0    0    0  0.00000000000E+00  0.00000000000E+00  0.99999998245E-14  0.12500000000E+03  0.12500000000E+03 0.  0.
        -13    1    3    3    0    0  0.35515728922E+01  0.15111707223E+02  0.53085326516E+02  0.55308592647E+02  0.10566000000E+00 0.  1.
         23    2    1    0    0    0 -0.17246744182E+02 -0.30360739298E+01  0.19211317956E+02  0.99004949176E+02  0.95531341945E+02 0.  0.
         13    1    3    3    0    0 -0.20798317074E+02 -0.18147781153E+02 -0.33874008561E+02  0.43696356529E+02  0.10566000000E+00 0. -1.
         22    1    1    0    0    0  0.17246744182E+02  0.30360739298E+01 -0.19211317956E+02  0.25995050824E+02  0.00000000000E+00 0.  1.
</event>
<event>
 5    1  0.1319298E-009  0.9118800E+02  0.7818608E-02  0.1130116E+00
         25   -1    0    0    0    0  0.00000000000E+00  0.00000000000E+00  0.99999998245E-14  0.12500000000E+03  0.12500000000E+03 0.  0.
        -13    1    3    3    0    0 -0.46367817673E+02  0.36288929195E+02  0.20818130486E+02  0.62452114607E+02  0.10566000000E+00 0.  1.
         23    2    1    0    0    0 -0.21249583862E+02  0.17387812165E+02  0.79910854435E+01  0.96403876613E+02  0.92065026765E+02 0.  0.
         13    1    3    3    0    0  0.25118233811E+02 -0.18901117030E+02 -0.12827045043E+02  0.33951762006E+02  0.10566000000E+00 0. -1.
         22    1    1    0    0    0  0.21249583862E+02 -0.17387812165E+02 -0.79910854435E+01  0.28596123387E+02  0.00000000000E+00 0.  1.
</event>
<event>
 5    1  0.1319298E-009  0.9118800E+02  0.7818608E-02  0.1130116E+00
         25   -1    0    0    0    0  0.00000000000E+00  0.00000000000E+00  0.99999998245E-14  0.12500000000E+03  0.12500000000E+03 0.  0.
        -13    1    3    3    0    0  0.11353318441E+02  0.31934387649E+02  0.16512338401E+02  0.37701080059E+02  0.10566000000E+00 0.  1.
         23    2    1    0    0    0  0.12386618806E+02 -0.14757531237E+02 -0.20183856230E+02  0.97096575372E+02  0.93000773346E+02 0.  0.
         13    1    3    3    0    0  0.10333003653E+01 -0.46691918886E+02 -0.36696194631E+02  0.59395495312E+02  0.10566000000E+00 0. -1.
         22    1    1    0    0    0 -0.12386618806E+02  0.14757531237E+02  0.20183856230E+02  0.27903424628E+02  0.00000000000E+00 0. -1.
</event>
<event>
 5    1  0.1319298E-009  0.9118800E+02  0.7818608E-02  0.1130116E+00
         25   -1    0    0    0    0  0.00000000000E+00  0.00000000000E+00  0.99999998245E-14  0.12500000000E+03  0.12500000000E+03 0.  0.
        -13    1    3    3    0    0  0.45217026205E+02  0.29355140400E+02 -0.89043167892E+01  0.54640660211E+02  0.10566000000E+00 0.  1.
         23    2    1    0    0    0  0.12123718441E+02  0.22760030365E+02  0.14223407131E+02  0.95549892335E+02  0.90898146757E+02 0.  0.
         13    1    3    3    0    0 -0.33093307765E+02 -0.65951100352E+01  0.23127723921E+02  0.40909232124E+02  0.10566000000E+00 0. -1.
         22    1    1    0    0    0 -0.12123718441E+02 -0.22760030365E+02 -0.14223407131E+02  0.29450107665E+02  0.00000000000E+00 0.  1.
</event>
<event>
 5    1  0.1319298E-009  0.9118800E+02  0.7818608E-02  0.1130116E+00
         25   -1    0    0    0    0  0.00000000000E+00  0.00000000000E+00  0.99999998245E-14  0.12500000000E+03  0.12500000000E+03 0.  0.
        -13    1    3    3    0    0  0.77324841124E+01 -0.14334310660E+01  0.51426725728E+02  0.52024660675E+02  0.10566000000E+00 0. -1.
         23    2    1    0    0    0 -0.10866025493E+02 -0.21182413539E+02  0.17556701831E+02  0.95419551516E+02  0.90718729482E+02 0.  0.
         13    1    3    3    0    0 -0.18598509605E+02 -0.19748982473E+02 -0.33870023897E+02  0.43394890841E+02  0.10566000000E+00 0.  1.
         22    1    1    0    0    0  0.10866025493E+02  0.21182413539E+02 -0.17556701831E+02  0.29580448484E+02  0.00000000000E+00 0. -1.
</event>
<event>
 5    1  0.1319298E-009  0.9118800E+02  0.7818608E-02  0.1130116E+00
         25   -1    0    0    0    0  0.00000000000E+00  0.00000000000E+00  0.99999998245E-14  0.12500000000E+03  0.12500000000E+03 0.  0.
        -13    1    3    3    0    0 -0.99197062726E+01 -0.53233869607E+02 -0.97548854061E+01  0.55021944706E+02  0.10566000000E+00 0.  1.
         23    2    1    0    0    0  0.15990226442E+02 -0.22064697576E+02  0.31741650239E+01  0.97566197049E+02  0.93629852409E+02 0.  0.
         13    1    3    3    0    0  0.25909932714E+02  0.31169172031E+02  0.12929050430E+02  0.42544252343E+02  0.10566000000E+00 0. -1.
         22    1    1    0    0    0 -0.15990226442E+02  0.22064697576E+02 -0.31741650239E+01  0.27433802951E+02  0.00000000000E+00 0.  1.
</event>
<event>
 5    1  0.1319298E-009  0.9118800E+02  0.7818608E-02  0.1130116E+00
         25   -1    0    0    0    0  0.00000000000E+00  0.00000000000E+00  0.99999998245E-14  0.12500000000E+03  0.12500000000E+03 0.  0.
        -13    1    3    3    0    0  0.11023117590E+02 -0.34037110677E+02  0.34376295174E+01  0.35942488581E+02  0.10566000000E+00 0. -1.
         23    2    1    0    0    0 -0.26479795202E+02  0.10762040910E+02 -0.76517995145E+01  0.95410287019E+02  0.90705963171E+02 0.  0.
         13    1    3    3    0    0 -0.37502912793E+02  0.44799151586E+02 -0.11089429032E+02  0.59467798438E+02  0.10566000000E+00 0.  1.
         22    1    1    0    0    0  0.26479795202E+02 -0.10762040910E+02  0.76517995145E+01  0.29589712981E+02  0.00000000000E+00 0.  1.
</event>
<event>
 5    1  0.1319298E-009  0.9118800E+02  0.7818608E-02  0.1130116E+00
         25   -1    0    0    0    0  0.00000000000E+00  0.00000000000E+00  0.99999998245E-14  0.12500000000E+03  0.12500000000E+03 0.  0.
        -13    1    3    3    0    0  0.24056979253E+02  0.17970992894E+02  0.16007204514E+02  0.34028467447E+02  0.10566000000E+00 0.  1.
         23    2    1    0    0    0 -0.22888348174E+02  0.98240651166E+01 -0.19431047544E+02  0.93409584583E+02  0.87905609297E+02 0.  0.
         13    1    3    3    0    0 -0.46945327427E+02 -0.81469277770E+01 -0.35438252058E+02  0.59381117137E+02  0.10566000000E+00 0. -1.
         22    1    1    0    0    0  0.22888348174E+02 -0.98240651166E+01  0.19431047544E+02  0.31590415417E+02  0.00000000000E+00 0. -1.
</event>
<event>
 5    1  0.1319298E-009  0.9118800E+02  0.7818608E-02  0.1130116E+00
         25   -1    0    0    0    0  0.00000000000E+00  0.00000000000E+00  0.99999998245E-14  0.12500000000E+03  0.12500000000E+03 0.  0.
        -13    1    3    3    0    0  0.24431679651E+02  0.57063140031E+02  0.35471836184E+01  0.62174774599E+02  0.10566000000E+00 0.  1.
         23    2    1    0    0    0  0.76673136113E+01  0.29296831235E+02  0.21673029532E+01  0.94639018123E+02  0.89636792283E+02 0.  0.
         13    1    3    3    0    0 -0.16764366040E+02 -0.27766308797E+02 -0.13798806653E+01  0.32464243524E+02  0.10566000000E+00 0. -1.
         22    1    1    0    0    0 -0.76673136113E+01 -0.29296831235E+02 -0.21673029532E+01  0.30360981877E+02  0.00000000000E+00 0.  1.
</event>
<event>
 5    1  0.1319298E-009  0.9118800E+02  0.7818608E-02  0.1130116E+00
         25   -1    0    0    0    0  0.00000000000E+00  0.00000000000E+00  0.99999998245E-14  0.12500000000E+03  0.12500000000E+03 0.  0.
        -13    1    3    3    0    0  0.44207809598E+02  0.32664263566E+02  0.17990479316E+01  0.54995747847E+02  0.10566000000E+00 0.  1.
         23    2    1    0    0    0  0.13904864887E+02  0.13094155549E+02  0.21616747321E+02  0.96154100087E+02  0.91725269265E+02 0.  0.
         13    1    3    3    0    0 -0.30302944711E+02 -0.19570108017E+02  0.19817699389E+02  0.41158352240E+02  0.10566000000E+00 0. -1.
         22    1    1    0    0    0 -0.13904864887E+02 -0.13094155549E+02 -0.21616747321E+02  0.28845899913E+02  0.00000000000E+00 0.  1.
</event>
<event>
 5    1  0.1319298E-009  0.9118800E+02  0.7818608E-02  0.1130116E+00
         25   -1    0    0    0    0  0.00000000000E+00  0.00000000000E+00  0.99999998245E-14  0.12500000000E+03  0.12500000000E+03 0.  0.
        -13    1    3    3    0    0  0.29528713599E+02 -0.34524755558E+02  0.14773126567E+02  0.47771959409E+02  0.10566000000E+00 0.  1.
         23    2    1    0    0    0  0.18302078150E+02  0.13571956440E+02  0.15968836909E+02  0.97176128622E+02  0.93107637472E+02 0.  0.
         13    1    3    3    0    0 -0.11226635448E+02  0.48096711997E+02  0.11957103415E+01  0.49404169214E+02  0.10566000000E+00 0. -1.
         22    1    1    0    0    0 -0.18302078150E+02 -0.13571956440E+02 -0.15968836909E+02  0.27823871378E+02  0.00000000000E+00 0. -1.
</event>
<event>
 5    1  0.1319298E-009  0.9118800E+02  0.7818608E-02  0.1130116E+00
         25   -1    0    0    0    0  0.00000000000E+00  0.00000000000E+00  0.99999998245E-14  0.12500000000E+03  0.12500000000E+03 0.  0.
        -13    1    3    3    0    0 -0.54999039219E+02  0.59574403751E+01  0.13266929843E+02  0.56889436650E+02  0.10566000000E+00 0. -1.
         23    2    1    0    0    0 -0.20563372796E+02  0.19780864222E+02 -0.48584896898E+00  0.96462814796E+02  0.92145014510E+02 0.  0.
         13    1    3    3    0    0  0.34435666423E+02  0.13823423847E+02 -0.13752778812E+02  0.39573378147E+02  0.10566000000E+00 0.  1.
         22    1    1    0    0    0  0.20563372796E+02 -0.19780864222E+02  0.48584896898E+00  0.28537185204E+02  0.00000000000E+00 0. -1.
</event>
<event>
 5    1  0.1319298E-009  0.9118800E+02  0.7818608E-02  0.1130116E+00
         25   -1    0    0    0    0  0.00000000000E+00  0.00000000000E+00  0.99999998245E-14  0.12500000000E+03  0.12500000000E+03 0.  0.
        -13    1    3    3    0    0 -0.14060566114E+02 -0.33368646890E+02 -0.10676723526E+02  0.37751419894E+02  0.10566000000E+00 0.  1.
         23    2    1    0    0    0 -0.17825256872E+02  0.17660320556E+02  0.15783900459E+02  0.95356143665E+02  0.90631318629E+02 0.  0.
         13    1    3    3    0    0 -0.37646907589E+01  0.51028967446E+02  0.26460623984E+02  0.57604723772E+02  0.10566000000E+00 0. -1.
         22    1    1    0    0    0  0.17825256872E+02 -0.17660320556E+02 -0.15783900459E+02  0.29643856335E+02  0.00000000000E+00 0. -1.
</event>
<event>
 5    1  0.1319298E-009  0.9118800E+02  0.7818608E-02  0.1130116E+00
         25   -1    0    0    0    0  0.00000000000E+00  0.00000000000E+00  0.99999998245E-14  0.12500000000E+03  0.12500000000E+03 0.  0.
        -13    1    3    3    0    0  0.48397582491E+02  0.13418444754E+02 -0.56477354554E+00  0.50226594388E+02  0.10566000000E+00 0. -1.
         23    2    1    0    0    0  0.53439387645E+01  0.27347445534E+02 -0.78278532218E+01  0.96056680481E+02  0.91592413006E+02 0.  0.
         13    1    3    3    0    0 -0.43053643727E+02  0.13929000779E+02 -0.72630796763E+01  0.45830086093E+02  0.10566000000E+00 0.  1.
         22    1    1    0    0    0 -0.53439387645E+01 -0.27347445534E+02  0.78278532218E+01  0.28943319519E+02  0.00000000000E+00 0. -1.
</event>
<event>
 5    1  0.1319298E-009  0.9118800E+02  0.7818608E-02  0.1130116E+00
         25   -1    0    0    0    0  0.00000000000E+00  0.00000000000E+00  0.99999998245E-14  0.12500000000E+03  0.12500000000E+03 0.  0.
        -13    1    3    3    0    0  0.19633582611E+02 -0.46149459206E+02 -0.32485632644E+02  0.59754310669E+02  0.10566000000E+00 0.  1.
         23    2    1    0    0    0 -0.23665665603E+01 -0.20969181967E+02 -0.21309188027E+02  0.95010189664E+02  0.90152911300E+02 0.  0.
         13    1    3    3    0    0 -0.22000149172E+02  0.25180277239E+02  0.11176444618E+02  0.35255878995E+02  0.10566000000E+00 0. -1.
         22    1    1    0    0    0  0.23665665603E+01  0.20969181967E+02  0.21309188027E+02  0.29989810336E+02  0.00000000000E+00 0.  1.
</event>
<event>
 5    1  0.1319298E-009  0.9118800E+02  0.7818608E-02  0.1130116E+00
         25   -1    0    0    0    0  0.00000000000E+00  0.00000000000E+00  0.99999998245E-14  0.12500000000E+03  0.12500000000E+03 0.  0.
        -13    1    3    3    0    0 -0.13637877764E+02 -0.31530432104E+02  0.44054999502E+02  0.55866036227E+02  0.10566000000E+00 0.  1.
         23    2    1    0    0    0 -0.22348418321E+02 -0.19405347118E+01  0.18764211976E+02  0.95754263089E+02  0.91178757242E+02 0.  0.
         13    1    3    3    0    0 -0.87105405569E+01  0.29589897392E+02 -0.25290787526E+02  0.39888226862E+02  0.10566000000E+00 0. -1.
         22    1    1    0    0    0  0.22348418321E+02  0.19405347118E+01 -0.18764211976E+02  0.29245736911E+02  0.00000000000E+00 0.  1.
</event>
<event>
 5    1  0.1319298E-009  0.9118800E+02  0.7818608E-02  0.1130116E+00
         25   -1    0    0    0    0  0.00000000000E+00  0.00000000000E+00  0.99999998245E-14  0.12500000000E+03  0.12500000000E+03 0.  0.
        -13    1    3    3    0    0 -0.48523676555E+02  0.16287274075E+02 -0.33090954267E+02  0.60949527493E+02  0.10566000000E+00 0. -1.
         23    2    1    0    0    0 -0.20321870527E+02 -0.15829778346E+01 -0.18813727728E+02  0.97261207821E+02  0.93221789058E+02 0.  0.
         13    1    3    3    0    0  0.28201806028E+02 -0.17870251910E+02  0.14277226540E+02  0.36311680328E+02  0.10566000000E+00 0.  1.
         22    1    1    0    0    0  0.20321870527E+02  0.15829778346E+01  0.18813727728E+02  0.27738792179E+02  0.00000000000E+00 0. -1.
</event>
<event>
 5    1  0.1319298E-009  0.9118800E+02  0.7818608E-02  0.1130116E+00
         25   -1    0    0    0    0  0.00000000000E+00  0.00000000000E+00  0.99999998245E-14  0.12500000000E+03  0.12500000000E+03 0.  0.
        -13    1    3    3    0    0  0.32802037911E+02  0.19911748306E+02  0.19889331171E+02  0.43220921672E+02  0.10566000000E+00 0. -1.
         23    2    1    0    0    0 -0.17902585131E+02  0.16842713896E+02  0.18841644681E+02  0.94029253479E+02  0.88782393355E+02 0.  0.
         13    1    3    3    0    0 -0.50704623042E+02 -0.30690344099E+01 -0.10476864895E+01  0.50808331808E+02  0.10566000000E+00 0.  1.
         22    1    1    0    0    0  0.17902585131E+02 -0.16842713896E+02 -0.18841644681E+02  0.30970746521E+02  0.00000000000E+00 0.  1.
</event>
<event>
 5    1  0.1319298E-009  0.9118800E+02  0.7818608E-02  0.1130116E+00
         25   -1    0    0    0    0  0.00000000000E+00  0.00000000000E+00  0.99999998245E-14  0.12500000000E+03  0.12500000000E+03 0.  0.
        -13    1    3    3    0    0 -0.44751864375E+02 -0.20695425612E+02 -0.19788255854E+02  0.53128299804E+02  0.10566000000E+00 0. -1.
         23    2    1    0    0    0 -0.16518060310E+02 -0.23323373888E+02  0.10438055099E+02  0.94573382045E+02  0.89545214899E+02 0.  0.
         13    1    3    3    0    0  0.28233804065E+02 -0.26279482759E+01  0.30226310953E+02  0.41445082241E+02  0.10566000000E+00 0.  1.
         22    1    1    0    0    0  0.16518060310E+02  0.23323373888E+02 -0.10438055099E+02  0.30426617955E+02  0.00000000000E+00 0.  1.
</event>
<event>
 5    1  0.1319298E-009  0.9118800E+02  0.7818608E-02  0.1130116E+00
         25   -1    0    0    0    0  0.00000000000E+00  0.00000000000E+00  0.99999998245E-14  0.12500000000E+03  0.12500000000E+03 0.  0.
        -13    1    3    3    0    0 -0.38394087406E+02 -0.12594724100E+02 -0.57448761637E+01  0.40813573588E+02  0.10566000000E+00 0.  1.
         23    2    1    0    0    0  0.22006966507E+01 -0.82561643084E+00  0.29230812602E+02  0.95674838217E+02  0.91069805941E+02 0.  0.
         13    1    3    3    0    0  0.40594784056E+02  0.11769107669E+02  0.34975688766E+02  0.54861264628E+02  0.10566000000E+00 0. -1.
         22    1    1    0    0    0 -0.22006966507E+01  0.82561643084E+00 -0.29230812602E+02  0.29325161783E+02  0.00000000000E+00 0. -1.
</event>
<event>
 5    1  0.1319298E-009  0.9118800E+02  0.7818608E-02  0.1130116E+00
         25   -1    0    0    0    0  0.00000000000E+00  0.00000000000E+00  0.99999998245E-14  0.12500000000E+03  0.12500000000E+03 0.  0.
        -13    1    3    3    0    0 -0.82024270949E+01  0.31581864722E+02 -0.50332810439E+02  0.59984139240E+02  0.10566000000E+00 0.  1.
         23    2    1    0    0    0  0.18073035206E+01  0.44991828350E+01 -0.28257182414E+02  0.96329852631E+02  0.91964466822E+02 0.  0.
         13    1    3    3    0    0  0.10009730615E+02 -0.27082681887E+02  0.22075628026E+02  0.36345713392E+02  0.10566000000E+00 0. -1.
         22    1    1    0    0    0 -0.18073035206E+01 -0.44991828350E+01  0.28257182414E+02  0.28670147369E+02  0.00000000000E+00 0.  1.
</event>
<event>
 5    1  0.1319298E-009  0.9118800E+02  0.7818608E-02  0.1130116E+00
         25   -1    0    0    0    0  0.00000000000E+00  0.00000000000E+00  0.99999998245E-14  0.12500000000E+03  0.12500000000E+03 0.  0.
        -13    1    3    3    0    0  0.49152133672E+02 -0.53952785567E+01 -0.21999175057E+02  0.54120385646E+02  0.10566000000E+00 0.  1.
         23    2    1    0    0    0  0.17459453030E+02  0.16850635026E+02 -0.21088131573E+02  0.92852127688E+02  0.87109310192E+02 0.  0.
         13    1    3    3    0    0 -0.31692680642E+02  0.22245913583E+02  0.91104348314E+00  0.38731742043E+02  0.10566000000E+00 0. -1.
         22    1    1    0    0    0 -0.17459453030E+02 -0.16850635026E+02  0.21088131573E+02  0.32147872312E+02  0.00000000000E+00 0.  1.
</event>
<event>
 5    1  0.1319298E-009  0.9118800E+02  0.7818608E-02  0.1130116E+00
         25   -1    0    0    0    0  0.00000000000E+00  0.00000000000E+00  0.99999998245E-14  0.12500000000E+03  0.12500000000E+03 0.  0.
        -13    1    3    3    0    0 -0.21676987994E+02  0.22906797172E+02 -0.35273607951E+02  0.47316506074E+02  0.10566000000E+00 0. -1.
         23    2    1    0    0    0  0.26202426192E+01  0.27190094693E+02  0.74800437128E+01  0.96678312643E+02  0.92436887447E+02 0.  0.
         13    1    3    3    0    0  0.24297230613E+02  0.42832975208E+01  0.42753651664E+02  0.49361806569E+02  0.10566000000E+00 0.  1.
         22    1    1    0    0    0 -0.26202426192E+01 -0.27190094693E+02 -0.74800437128E+01  0.28321687357E+02  0.00000000000E+00 0.  1.
</event>
<event>
 5    1  0.1319298E-009  0.9118800E+02  0.7818608E-02  0.1130116E+00
         25   -1    0    0    0    0  0.00000000000E+00  0.00000000000E+00  0.99999998245E-14  0.12500000000E+03  0.12500000000E+03 0.  0.
        -13    1    3    3    0    0 -0.33251659969E+02 -0.12901997728E+02 -0.36582684561E+00  0.35669026190E+02  0.10566000000E+00 0. -1.
         23    2    1    0    0    0  0.21516379673E+02 -0.21170885952E+01 -0.20690976860E+02  0.95074205412E+02  0.90241627606E+02 0.  0.
         13    1    3    3    0    0  0.54768039641E+02  0.10784909132E+02 -0.20325150014E+02  0.59405179221E+02  0.10566000000E+00 0.  1.
         22    1    1    0    0    0 -0.21516379673E+02  0.21170885952E+01  0.20690976860E+02  0.29925794588E+02  0.00000000000E+00 0.  1.
</event>
<event>
 5    1  0.1319298E-009  0.9118800E+02  0.7818608E-02  0.1130116E+00
         25   -1    0    0    0    0  0.00000000000E+00  0.00000000000E+00  0.99999998245E-14  0.12500000000E+03  0.12500000000E+03 0.  0.
        -13    1    3    3    0    0  0.58214408161E+01 -0.38432323999E+02 -0.40175555647E+02  0.55901870601E+02  0.10566000000E+00 0.  1.
         23    2    1    0    0    0  0.64745001899E+01 -0.27348131967E+02 -0.72367097219E+00  0.96886601513E+02  0.92718123246E+02 0.  0.
         13    1    3    3    0    0  0.65305937376E+00  0.11084192032E+02  0.39451884675E+02  0.40984730912E+02  0.10566000000E+00 0. -1.
         22    1    1    0    0    0 -0.64745001899E+01  0.27348131967E+02  0.72367097219E+00  0.28113398487E+02  0.00000000000E+00 0.  1.
</event>
<event>
 5    1  0.1319298E-009  0.9118800E+02  0.7818608E-02  0.1130116E+00
         25   -1    0    0    0    0  0.00000000000E+00  0.00000000000E+00  0.99999998245E-14  0.12500000000E+03  0.12500000000E+03 0.  0.
        -13    1    3    3    0    0 -0.24697611500E+02  0.24928225310E+02 -0.26940249951E+01  0.35194564432E+02  0.10566000000E+00 0. -1.
         23    2    1    0    0    0  0.21664961469E+02 -0.99074290528E+01 -0.17964450063E+02  0.95162956381E+02  0.90364479167E+02 0.  0.
         13    1    3    3    0    0  0.46362572968E+02 -0.34835654362E+02 -0.15270425068E+02  0.59968391948E+02  0.10566000000E+00 0.  1.
         22    1    1    0    0    0 -0.21664961469E+02  0.99074290528E+01  0.17964450063E+02  0.29837043619E+02  0.00000000000E+00 0.  1.
</event>
<event>
 5    1  0.1319298E-009  0.9118800E+02  0.7818608E-02  0.1130116E+00
         25   -1    0    0    0    0  0.00000000000E+00  0.00000000000E+00  0.99999998245E-14  0.12500000000E+03  0.12500000000E+03 0.  0.
        -13    1    3    3    0    0  0.80180341783E+01 -0.55000797406E+02 -0.20891307919E+01  0.55621508599E+02  0.10566000000E+00 0. -1.
         23    2    1    0    0    0 -0.33534850908E+01 -0.21809075040E+02 -0.20181356421E+02  0.95097345212E+02  0.90273674474E+02 0.  0.
         13    1    3    3    0    0 -0.11371519269E+02  0.33191722365E+02 -0.18092225629E+02  0.39475836613E+02  0.10566000000E+00 0.  1.
         22    1    1    0    0    0  0.33534850908E+01  0.21809075040E+02  0.20181356421E+02  0.29902654788E+02  0.00000000000E+00 0. -1.
</event>
<event>
 5    1  0.1319298E-009  0.9118800E+02  0.7818608E-02  0.1130116E+00
         25   -1    0    0    0    0  0.00000000000E+00  0.00000000000E+00  0.99999998245E-14  0.12500000000E+03  0.12500000000E+03 0.  0.
        -13    1    3    3    0    0 -0.33188475999E+01 -0.40050852162E+02  0.22897107322E+02  0.46253369565E+02  0.10566000000E+00 0. -1.
         23    2    1    0    0    0  0.19989768778E+02 -0.16025036549E+02 -0.13779483205E+02  0.95909334665E+02  0.91391102775E+02 0.  0.
         13    1    3    3    0    0  0.23308616378E+02  0.24025815613E+02 -0.36676590527E+02  0.49655965101E+02  0.10566000000E+00 0.  1.
         22    1    1    0    0    0 -0.19989768778E+02  0.16025036549E+02  0.13779483205E+02  0.29090665335E+02  0.00000000000E+00 0.  1.
</event>
<event>
 5    1  0.1319298E-009  0.9118800E+02  0.7818608E-02  0.1130116E+00
         25   -1    0    0    0    0  0.00000000000E+00  0.00000000000E+00  0.99999998245E-14  0.12500000000E+03  0.12500000000E+03 0.  0.
        -13    1    3    3    0    0 -0.29365054421E+02  0.40279670549E+02 -0.35543428173E+02  0.61221766808E+02  0.10566000000E+00 0.  1.
         23    2    1    0    0    0 -0.18833887490E+02  0.11884213531E+02 -0.18970751482E+02  0.95745269425E+02  0.91166426694E+02 0.  0.
         13    1    3    3    0    0  0.10531166932E+02 -0.28395457018E+02  0.16572676691E+02  0.34523502617E+02  0.10566000000E+00 0. -1.
         22    1    1    0    0    0  0.18833887490E+02 -0.11884213531E+02  0.18970751482E+02  0.29254730575E+02  0.00000000000E+00 0.  1.
</event>
<event>
 5    1  0.1319298E-009  0.9118800E+02  0.7818608E-02  0.1130116E+00
         25   -1    0    0    0    0  0.00000000000E+00  0.00000000000E+00  0.99999998245E-14  0.12500000000E+03  0.12500000000E+03 0.  0.
        -13    1    3    3    0    0 -0.15638393744E+02 -0.23126328603E+02  0.28307906716E+02  0.39758460486E+02  0.10566000000E+00 0.  1.
         23    2    1    0    0    0 -0.19516374550E+02 -0.16070206822E+01 -0.22559715300E+02  0.95126731925E+02  0.90314356452E+02 0.  0.
         13    1    3    3    0    0 -0.38779808054E+01  0.21519307921E+02 -0.50867622016E+02  0.55368271439E+02  0.10566000000E+00 0. -1.
         22    1    1    0    0    0  0.19516374550E+02  0.16070206822E+01  0.22559715300E+02  0.29873268075E+02  0.00000000000E+00 0. -1.
</event>
<event>
 5    1  0.1319298E-009  0.9118800E+02  0.7818608E-02  0.1130116E+00
         25   -1    0    0    0    0  0.00000000000E+00  0.00000000000E+00  0.99999998245E-14  0.12500000000E+03  0.12500000000E+03 0.  0.
        -13    1    3    3    0    0  0.13950666703E+02 -0.50123217099E+02 -0.29338097309E+02  0.59730169191E+02  0.10566000000E+00 0. -1.
         23    2    1    0    0    0  0.10770591998E+02 -0.28434842439E+02 -0.23442190134E+01  0.94503421842E+02  0.89447501142E+02 0.  0.
         13    1    3    3    0    0 -0.31800747044E+01  0.21688374660E+02  0.26993878295E+02  0.34773252652E+02  0.10566000000E+00 0.  1.
         22    1    1    0    0    0 -0.10770591998E+02  0.28434842439E+02  0.23442190134E+01  0.30496578158E+02  0.00000000000E+00 0. -1.
</event>
<event>
 5    1  0.1319298E-009  0.9118800E+02  0.7818608E-02  0.1130116E+00
         25   -1    0    0    0    0  0.00000000000E+00  0.00000000000E+00  0.99999998245E-14  0.12500000000E+03  0.12500000000E+03 0.  0.
        -13    1    3    3    0    0 -0.20688761532E+02  0.42550489495E+02 -0.22928105273E+02  0.52576403314E+02  0.10566000000E+00 0.  1.
         23    2    1    0    0    0  0.10927306388E+01  0.58971260501E+01 -0.28769786112E+02  0.95611724296E+02  0.90983136207E+02 0.  0.
         13    1    3    3    0    0  0.21781492171E+02 -0.36653363444E+02 -0.58416808398E+01  0.43035320982E+02  0.10566000000E+00 0. -1.
         22    1    1    0    0    0 -0.10927306388E+01 -0.58971260501E+01  0.28769786112E+02  0.29388275704E+02  0.00000000000E+00 0.  1.
</event>
<event>
 5    1  0.1319298E-009  0.9118800E+02  0.7818608E-02  0.1130116E+00
         25   -1    0    0    0    0  0.00000000000E+00  0.00000000000E+00  0.99999998245E-14  0.12500000000E+03  0.12500000000E+03 0.  0.
        -13    1    3    3    0    0 -0.30005259173E+02  0.10119453103E+02 -0.33082674363E+01  0.31838258536E+02  0.10566000000E+00 0. -1.
         23    2    1    0    0    0  0.23942713618E+02 -0.49134962120E+01 -0.23230636445E+02  0.91279702699E+02  0.84822907724E+02 0.  0.
         13    1    3    3    0    0  0.53947972790E+02 -0.15032949315E+02 -0.19922369009E+02  0.59441444164E+02  0.10566000000E+00 0.  1.
         22    1    1    0    0    0 -0.23942713618E+02  0.49134962120E+01  0.23230636445E+02  0.33720297301E+02  0.00000000000E+00 0.  1.
</event>
<event>
 5    1  0.1319298E-009  0.9118800E+02  0.7818608E-02  0.1130116E+00
         25   -1    0    0    0    0  0.00000000000E+00  0.00000000000E+00  0.99999998245E-14  0.12500000000E+03  0.12500000000E+03 0.  0.
        -13    1    3    3    0    0  0.44999385767E+02 -0.32285087742E+02  0.21017919485E+02  0.59237114324E+02  0.10566000000E+00 0.  1.
         23    2    1    0    0    0  0.12867784685E+02 -0.18634766035E+02  0.20952251401E+02  0.94148237868E+02  0.88949758106E+02 0.  0.
         13    1    3    3    0    0 -0.32131601082E+02  0.13650321707E+02 -0.65668084360E-01  0.34911123544E+02  0.10566000000E+00 0. -1.
         22    1    1    0    0    0 -0.12867784685E+02  0.18634766035E+02 -0.20952251401E+02  0.30851762132E+02  0.00000000000E+00 0.  1.
</event>
<event>
 5    1  0.1319298E-009  0.9118800E+02  0.7818608E-02  0.1130116E+00
         25   -1    0    0    0    0  0.00000000000E+00  0.00000000000E+00  0.99999998245E-14  0.12500000000E+03  0.12500000000E+03 0.  0.
        -13    1    3    3    0    0 -0.43846722550E+02 -0.27736380221E+02  0.28201169466E+02  0.59052171759E+02  0.10566000000E+00 0.  1.
         23    2    1    0    0    0 -0.27783035346E+02 -0.40215936935E+01  0.38169627013E+01  0.96669107442E+02  0.92424438654E+02 0.  0.
         13    1    3    3    0    0  0.16063687204E+02  0.23714786527E+02 -0.24384206765E+02  0.37616935684E+02  0.10566000000E+00 0. -1.
         22    1    1    0    0    0  0.27783035346E+02  0.40215936935E+01 -0.38169627013E+01  0.28330892558E+02  0.00000000000E+00 0.  1.
</event>
<event>
 5    1  0.1319298E-009  0.9118800E+02  0.7818608E-02  0.1130116E+00
         25   -1    0    0    0    0  0.00000000000E+00  0.00000000000E+00  0.99999998245E-14  0.12500000000E+03  0.12500000000E+03 0.  0.
        -13    1    3    3    0    0  0.40636593273E+02 -0.35143352122E+02 -0.26832050753E+02  0.60052960151E+02  0.10566000000E+00 0. -1.
         23    2    1    0    0    0  0.12329466047E+02 -0.24581524332E+02 -0.57219091406E+01  0.96910725967E+02  0.92750641463E+02 0.  0.
         13    1    3    3    0    0 -0.28307127226E+02  0.10561827790E+02  0.21110141612E+02  0.36857765816E+02  0.10566000000E+00 0.  1.
         22    1    1    0    0    0 -0.12329466047E+02  0.24581524332E+02  0.57219091406E+01  0.28089274033E+02  0.00000000000E+00 0. -1.
</event>
<event>
 5    1  0.1319298E-009  0.9118800E+02  0.7818608E-02  0.1130116E+00
         25   -1    0    0    0    0  0.00000000000E+00  0.00000000000E+00  0.99999998245E-14  0.12500000000E+03  0.12500000000E+03 0.  0.
        -13    1    3    3    0    0 -0.44944750010E+02  0.74764840717E+01  0.36886749249E+02  0.58622280762E+02  0.10566000000E+00 0.  1.
         23    2    1    0    0    0 -0.26279113899E+02  0.90235301547E+01  0.33781999058E+01  0.97010213320E+02  0.92884623755E+02 0.  0.
         13    1    3    3    0    0  0.18665636111E+02  0.15470460831E+01 -0.33508549343E+02  0.38387932559E+02  0.10566000000E+00 0. -1.
         22    1    1    0    0    0  0.26279113899E+02 -0.90235301547E+01 -0.33781999058E+01  0.27989786680E+02  0.00000000000E+00 0.  1.
</event>
<event>
 5    1  0.1319298E-009  0.9118800E+02  0.7818608E-02  0.1130116E+00
         25   -1    0    0    0    0  0.00000000000E+00  0.00000000000E+00  0.99999998245E-14  0.12500000000E+03  0.12500000000E+03 0.  0.
        -13    1    3    3    0    0 -0.14521315605E+01  0.31145935310E+02 -0.41328965644E+02  0.51771348617E+02  0.10566000000E+00 0.  1.
         23    2    1    0    0    0 -0.13443159106E+01  0.27354958524E+02  0.40548669843E+01  0.97313489072E+02  0.93291866033E+02 0.  0.
         13    1    3    3    0    0  0.10781564993E+00 -0.37909767861E+01  0.45383832628E+02  0.45542140455E+02  0.10566000000E+00 0. -1.
         22    1    1    0    0    0  0.13443159106E+01 -0.27354958524E+02 -0.40548669843E+01  0.27686510928E+02  0.00000000000E+00 0. -1.
</event>
<event>
 5    1  0.1319298E-009  0.9118800E+02  0.7818608E-02  0.1130116E+00
         25   -1    0    0    0    0  0.00000000000E+00  0.00000000000E+00  0.99999998245E-14  0.12500000000E+03  0.12500000000E+03 0.  0.
        -13    1    3    3    0    0  0.38216068817E+02  0.28861042740E+02  0.82186681754E+01  0.48589971954E+02  0.10566000000E+00 0. -1.
         23    2    1    0    0    0  0.26743773251E+02 -0.14019644013E+02  0.10482341136E+02  0.93036594336E+02  0.87373614919E+02 0.  0.
         13    1    3    3    0    0 -0.11472295566E+02 -0.42880686752E+02  0.22636729601E+01  0.44446622382E+02  0.10566000000E+00 0.  1.
         22    1    1    0    0    0 -0.26743773251E+02  0.14019644013E+02 -0.10482341136E+02  0.31963405664E+02  0.00000000000E+00 0. -1.
</event>
<event>
 5    1  0.1319298E-009  0.9118800E+02  0.7818608E-02  0.1130116E+00
         25   -1    0    0    0    0  0.00000000000E+00  0.00000000000E+00  0.99999998245E-14  0.12500000000E+03  0.12500000000E+03 0.  0.
        -13    1    3    3    0    0 -0.17601571806E+02 -0.24147284276E+02 -0.62865135270E+01  0.30535849166E+02  0.10566000000E+00 0. -1.
         23    2    1    0    0    0  0.13491929095E+02  0.12411161257E+02  0.29406954606E+02  0.90346889697E+02  0.83436936811E+02 0.  0.
         13    1    3    3    0    0  0.31093500900E+02  0.36558445533E+02  0.35693468133E+02  0.59811040531E+02  0.10566000000E+00 0.  1.
         22    1    1    0    0    0 -0.13491929095E+02 -0.12411161257E+02 -0.29406954606E+02  0.34653110303E+02  0.00000000000E+00 0.  1.
</event>
<event>
 5    1  0.1319298E-009  0.9118800E+02  0.7818608E-02  0.1130116E+00
         25   -1    0    0    0    0  0.00000000000E+00  0.00000000000E+00  0.99999998245E-14  0.12500000000E+03  0.12500000000E+03 0.  0.
        -13    1    3    3    0    0  0.77373876834E+01  0.32175614700E+02  0.31128225068E+02  0.45432531400E+02  0.10566000000E+00 0. -1.
         23    2    1    0    0    0  0.15388770344E+02  0.17198800003E+02 -0.16948886373E+02  0.96366492993E+02  0.92014255679E+02 0.  0.
         13    1    3    3    0    0  0.76513826609E+01 -0.14976814696E+02 -0.48077111441E+02  0.50933961593E+02  0.10566000000E+00 0.  1.
         22    1    1    0    0    0 -0.15388770344E+02 -0.17198800003E+02  0.16948886373E+02  0.28633507007E+02  0.00000000000E+00 0.  1.
</event>
<event>
 5    1  0.1319298E-009  0.9118800E+02  0.7818608E-02  0.1130116E+00
         25   -1    0    0    0    0  0.00000000000E+00  0.00000000000E+00  0.99999998245E-14  0.12500000000E+03  0.12500000000E+03 0.  0.
        -13    1    3    3    0    0  0.52115380692E+02 -0.34799042769E+01  0.91117558298E+01  0.53020353609E+02  0.10566000000E+00 0.  1.
         23    2    1    0    0    0 -0.38766240765E+01 -0.11678012981E+02  0.92444757298E+01  0.10960959608E+03  0.10852372560E+03 0.  0.
         13    1    3    3    0    0 -0.55992004769E+02 -0.81981087045E+01  0.13271990005E+00  0.56589242467E+02  0.10566000000E+00 0. -1.
         22    1    1    0    0    0  0.38766240765E+01  0.11678012981E+02 -0.92444757298E+01  0.15390403924E+02  0.00000000000E+00 0. -1.
</event>
<event>
 5    1  0.1319298E-009  0.9118800E+02  0.7818608E-02  0.1130116E+00
         25   -1    0    0    0    0  0.00000000000E+00  0.00000000000E+00  0.99999998245E-14  0.12500000000E+03  0.12500000000E+03 0.  0.
        -13    1    3    3    0    0 -0.21298659396E+01 -0.70650823572E+01  0.27112851493E+02  0.28099281089E+02  0.10566000000E+00 0.  1.
         23    2    1    0    0    0  0.23485461078E+02 -0.10438290296E-01 -0.27502437499E+02  0.88834393971E+02  0.81139376956E+02 0.  0.
         13    1    3    3    0    0  0.25615327017E+02  0.70546440669E+01 -0.54615288992E+02  0.60735112882E+02  0.10566000000E+00 0. -1.
         22    1    1    0    0    0 -0.23485461078E+02  0.10438290296E-01  0.27502437499E+02  0.36165606029E+02  0.00000000000E+00 0. -1.
</event>
<event>
 5    1  0.1319298E-009  0.9118800E+02  0.7818608E-02  0.1130116E+00
         25   -1    0    0    0    0  0.00000000000E+00  0.00000000000E+00  0.99999998245E-14  0.12500000000E+03  0.12500000000E+03 0.  0.
        -13    1    3    3    0    0  0.40627627714E+02 -0.22011413334E+02  0.22463277747E+02  0.51378171063E+02  0.10566000000E+00 0.  1.
         23    2    1    0    0    0 -0.33757969323E+01 -0.25118674570E+02  0.13084355932E+02  0.96477303997E+02  0.92164667847E+02 0.  0.
         13    1    3    3    0    0 -0.44003424646E+02 -0.31072612365E+01 -0.93789218149E+01  0.45099132934E+02  0.10566000000E+00 0. -1.
         22    1    1    0    0    0  0.33757969323E+01  0.25118674570E+02 -0.13084355932E+02  0.28522696003E+02  0.00000000000E+00 0.  1.
</event>
<event>
 5    1  0.1319298E-009  0.9118800E+02  0.7818608E-02  0.1130116E+00
         25   -1    0    0    0    0  0.00000000000E+00  0.00000000000E+00  0.99999998245E-14  0.12500000000E+03  0.12500000000E+03 0.  0.
        -13    1    3    3    0    0  0.27535829388E+02  0.33413954230E+02  0.19639159261E+02  0.47543895274E+02  0.10566000000E+00 0. -1.
         23    2    1    0    0    0 -0.57926082409E+01  0.26427863752E+02 -0.13239600520E+02  0.94879022017E+02  0.89970859195E+02 0.  0.
         13    1    3    3    0    0 -0.33328437629E+02 -0.69860904779E+01 -0.32878759781E+02  0.47335126742E+02  0.10566000000E+00 0.  1.
         22    1    1    0    0    0  0.57926082409E+01 -0.26427863752E+02  0.13239600520E+02  0.30120977983E+02  0.00000000000E+00 0.  1.
</event>
<event>
 5    1  0.1319298E-009  0.9118800E+02  0.7818608E-02  0.1130116E+00
         25   -1    0    0    0    0  0.00000000000E+00  0.00000000000E+00  0.99999998245E-14  0.12500000000E+03  0.12500000000E+03 0.  0.
        -13    1    3    3    0    0  0.41657008871E+01  0.20050565877E+02 -0.49764789853E+02  0.53813787537E+02  0.10566000000E+00 0. -1.
         23    2    1    0    0    0  0.23429872841E+02  0.35648036723E+01 -0.14607900491E+02  0.97160145056E+02  0.93086176546E+02 0.  0.
         13    1    3    3    0    0  0.19264171954E+02 -0.16485762204E+02  0.35156889362E+02  0.43346357519E+02  0.10566000000E+00 0.  1.
         22    1    1    0    0    0 -0.23429872841E+02 -0.35648036723E+01  0.14607900491E+02  0.27839854944E+02  0.00000000000E+00 0. -1.
</event>
<event>
 5    1  0.1319298E-009  0.9118800E+02  0.7818608E-02  0.1130116E+00
         25   -1    0    0    0    0  0.00000000000E+00  0.00000000000E+00  0.99999998245E-14  0.12500000000E+03  0.12500000000E+03 0.  0.
        -13    1    3    3    0    0 -0.21824718961E+02  0.27310647933E+02 -0.85103818015E+01  0.35980933989E+02  0.10566000000E+00 0.  1.
         23    2    1    0    0    0 -0.33519655962E+01 -0.25346303607E+02  0.13642879785E+02  0.96020715179E+02  0.91543316494E+02 0.  0.
         13    1    3    3    0    0  0.18472753365E+02 -0.52656951541E+02  0.22153261587E+02  0.60039781190E+02  0.10566000000E+00 0. -1.
         22    1    1    0    0    0  0.33519655962E+01  0.25346303607E+02 -0.13642879785E+02  0.28979284821E+02  0.00000000000E+00 0. -1.
</event>
<event>
 5    1  0.1319298E-009  0.9118800E+02  0.7818608E-02  0.1130116E+00
         25   -1    0    0    0    0  0.00000000000E+00  0.00000000000E+00  0.99999998245E-14  0.12500000000E+03  0.12500000000E+03 0.  0.
        -13    1    3    3    0    0 -0.21427797499E+02  0.44965150640E+02  0.30243937505E+02  0.58272825550E+02  0.10566000000E+00 0.  1.
         23    2    1    0    0    0 -0.17980804447E+02  0.78722592476E+01  0.20151954984E+02  0.96868468156E+02  0.92693673133E+02 0.  0.
         13    1    3    3    0    0  0.34469930520E+01 -0.37092891392E+02 -0.10091982521E+02  0.38595642606E+02  0.10566000000E+00 0. -1.
         22    1    1    0    0    0  0.17980804447E+02 -0.78722592476E+01 -0.20151954984E+02  0.28131531844E+02  0.00000000000E+00 0.  1.
</event>
<event>
 5    1  0.1319298E-009  0.9118800E+02  0.7818608E-02  0.1130116E+00
         25   -1    0    0    0    0  0.00000000000E+00  0.00000000000E+00  0.99999998245E-14  0.12500000000E+03  0.12500000000E+03 0.  0.
        -13    1    3    3    0    0 -0.46782905780E+02  0.31598187035E+02 -0.22681686685E+02  0.60840412326E+02  0.10566000000E+00 0. -1.
         23    2    1    0    0    0 -0.24290620695E+02  0.55821033772E+01 -0.14402740026E+02  0.96214012921E+02  0.91806880081E+02 0.  0.
         13    1    3    3    0    0  0.22492285084E+02 -0.26016083658E+02  0.82789466589E+01  0.35373600594E+02  0.10566000000E+00 0.  1.
         22    1    1    0    0    0  0.24290620695E+02 -0.55821033772E+01  0.14402740026E+02  0.28785987079E+02  0.00000000000E+00 0. -1.
</event>
<event>
 5    1  0.1319298E-009  0.9118800E+02  0.7818608E-02  0.1130116E+00
         25   -1    0    0    0    0  0.00000000000E+00  0.00000000000E+00  0.99999998245E-14  0.12500000000E+03  0.12500000000E+03 0.  0.
        -13    1    3    3    0    0  0.17355054167E+02 -0.64417738181E+01 -0.51809253068E+02  0.55017308390E+02  0.10566000000E+00 0.  1.
         23    2    1    0    0    0  0.48527413339E+01  0.18424665757E+02 -0.23927120525E+02  0.94413654953E+02  0.89321966717E+02 0.  0.
         13    1    3    3    0    0 -0.12502312833E+02  0.24866439575E+02  0.27882132543E+02  0.39396346562E+02  0.10566000000E+00 0. -1.
         22    1    1    0    0    0 -0.48527413339E+01 -0.18424665757E+02  0.23927120525E+02  0.30586345047E+02  0.00000000000E+00 0.  1.
</event>
<event>
 5    1  0.1319298E-009  0.9118800E+02  0.7818608E-02  0.1130116E+00
         25   -1    0    0    0    0  0.00000000000E+00  0.00000000000E+00  0.99999998245E-14  0.12500000000E+03  0.12500000000E+03 0.  0.
        -13    1    3    3    0    0 -0.25218287826E+02  0.75613858738E+01 -0.19294096611E+02  0.32640617722E+02  0.10566000000E+00 0.  1.
         23    2    1    0    0    0  0.22095281323E+02  0.14724789447E+02  0.17668410005E+02  0.93106527422E+02  0.87473606622E+02 0.  0.
         13    1    3    3    0    0  0.47313569149E+02  0.71634035731E+01  0.36962506616E+02  0.60465909699E+02  0.10566000000E+00 0. -1.
         22    1    1    0    0    0 -0.22095281323E+02 -0.14724789447E+02 -0.17668410005E+02  0.31893472578E+02  0.00000000000E+00 0. -1.
</event>
<event>
 5    1  0.1319298E-009  0.9118800E+02  0.7818608E-02  0.1130116E+00
         25   -1    0    0    0    0  0.00000000000E+00  0.00000000000E+00  0.99999998245E-14  0.12500000000E+03  0.12500000000E+03 0.  0.
        -13    1    3    3    0    0 -0.20407158326E+02 -0.29294496614E+02 -0.19264924010E+02  0.40568067540E+02  0.10566000000E+00 0. -1.
         23    2    1    0    0    0 -0.55873466130E+01  0.11238751041E+02  0.21609752260E+02  0.10000981473E+03  0.96837253587E+02 0.  0.
         13    1    3    3    0    0  0.14819811712E+02  0.40533247654E+02  0.40874676271E+02  0.59441747189E+02  0.10566000000E+00 0.  1.
         22    1    1    0    0    0  0.55873466130E+01 -0.11238751041E+02 -0.21609752260E+02  0.24990185271E+02  0.00000000000E+00 0.  1.
</event>
<event>
 5    1  0.1319298E-009  0.9118800E+02  0.7818608E-02  0.1130116E+00
         25   -1    0    0    0    0  0.00000000000E+00  0.00000000000E+00  0.99999998245E-14  0.12500000000E+03  0.12500000000E+03 0.  0.
        -13    1    3    3    0    0  0.13691948432E+02 -0.41965371527E+00 -0.30677551382E+02  0.33597155891E+02  0.10566000000E+00 0. -1.
         23    2    1    0    0    0 -0.18758237763E+01 -0.20348189641E+01  0.29293014631E+02  0.95576541515E+02  0.90934786406E+02 0.  0.
         13    1    3    3    0    0 -0.15567772208E+02 -0.16151652489E+01  0.59970566014E+02  0.61979385624E+02  0.10566000000E+00 0.  1.
         22    1    1    0    0    0  0.18758237763E+01  0.20348189641E+01 -0.29293014631E+02  0.29423458485E+02  0.00000000000E+00 0.  1.
</event>
<event>
 5    1  0.1319298E-009  0.9118800E+02  0.7818608E-02  0.1130116E+00
         25   -1    0    0    0    0  0.00000000000E+00  0.00000000000E+00  0.99999998245E-14  0.12500000000E+03  0.12500000000E+03 0.  0.
        -13    1    3    3    0    0  0.23827001187E+02 -0.30497312873E+02  0.20764993377E+02  0.43920475771E+02  0.10566000000E+00 0. -1.
         23    2    1    0    0    0 -0.78936134736E+01  0.10241012865E+02  0.26145812438E+02  0.95831678378E+02  0.91284826749E+02 0.  0.
         13    1    3    3    0    0 -0.31720614660E+02  0.40738325737E+02  0.53808190616E+01  0.51911202607E+02  0.10566000000E+00 0.  1.
         22    1    1    0    0    0  0.78936134736E+01 -0.10241012865E+02 -0.26145812438E+02  0.29168321622E+02  0.00000000000E+00 0.  1.
</event>
<event>
 5    1  0.1319298E-009  0.9118800E+02  0.7818608E-02  0.1130116E+00
         25   -1    0    0    0    0  0.00000000000E+00  0.00000000000E+00  0.99999998245E-14  0.12500000000E+03  0.12500000000E+03 0.  0.
        -13    1    3    3    0    0 -0.38781962084E+02  0.90784211290E+01  0.41692581835E+02  0.57660565878E+02  0.10566000000E+00 0.  1.
         23    2    1    0    0    0 -0.40235928835E+01 -0.13990870035E+01  0.28339989480E+02  0.96341637384E+02  0.91980483505E+02 0.  0.
         13    1    3    3    0    0  0.34758369201E+02 -0.10477508133E+02 -0.13352592355E+02  0.38681071505E+02  0.10566000000E+00 0. -1.
         22    1    1    0    0    0  0.40235928835E+01  0.13990870035E+01 -0.28339989480E+02  0.28658362616E+02  0.00000000000E+00 0.  1.
</event>
<event>
 5    1  0.1319298E-009  0.9118800E+02  0.7818608E-02  0.1130116E+00
         25   -1    0    0    0    0  0.00000000000E+00  0.00000000000E+00  0.99999998245E-14  0.12500000000E+03  0.12500000000E+03 0.  0.
        -13    1    3    3    0    0 -0.31645623741E+02  0.32939893878E+02 -0.14978084743E+02  0.48071158684E+02  0.10566000000E+00 0. -1.
         23    2    1    0    0    0 -0.97994654388E+01  0.16503052718E+02  0.23112335838E+02  0.94957357976E+02  0.90079628629E+02 0.  0.
         13    1    3    3    0    0  0.21846158302E+02 -0.16436841160E+02  0.38090420581E+02  0.46886199291E+02  0.10566000000E+00 0.  1.
         22    1    1    0    0    0  0.97994654388E+01 -0.16503052718E+02 -0.23112335838E+02  0.30042642024E+02  0.00000000000E+00 0.  1.
</event>
<event>
 5    1  0.1319298E-009  0.9118800E+02  0.7818608E-02  0.1130116E+00
         25   -1    0    0    0    0  0.00000000000E+00  0.00000000000E+00  0.99999998245E-14  0.12500000000E+03  0.12500000000E+03 0.  0.
        -13    1    3    3    0    0  0.20610732432E+02 -0.38231539303E+02  0.38497300958E+01  0.43603720882E+02  0.10566000000E+00 0. -1.
         23    2    1    0    0    0  0.79591259817E+01  0.69684059668E+00 -0.28262718880E+02  0.95629699495E+02  0.91007828641E+02 0.  0.
         13    1    3    3    0    0 -0.12651606450E+02  0.38928379900E+02 -0.32112448976E+02  0.52025978614E+02  0.10566000000E+00 0.  1.
         22    1    1    0    0    0 -0.79591259817E+01 -0.69684059668E+00  0.28262718880E+02  0.29370300505E+02  0.00000000000E+00 0.  1.
</event>
<event>
 5    1  0.1319298E-009  0.9118800E+02  0.7818608E-02  0.1130116E+00
         25   -1    0    0    0    0  0.00000000000E+00  0.00000000000E+00  0.99999998245E-14  0.12500000000E+03  0.12500000000E+03 0.  0.
        -13    1    3    3    0    0  0.28800876494E+01 -0.27022562492E+02 -0.32985767112E+02  0.42738574900E+02  0.10566000000E+00 0.  1.
         23    2    1    0    0    0 -0.28214826407E+02 -0.24360893905E+01  0.33118387380E+01  0.96487209247E+02  0.92178101042E+02 0.  0.
         13    1    3    3    0    0 -0.31094914056E+02  0.24586473101E+02  0.36297605850E+02  0.53748634347E+02  0.10566000000E+00 0. -1.
         22    1    1    0    0    0  0.28214826407E+02  0.24360893905E+01 -0.33118387380E+01  0.28512790753E+02  0.00000000000E+00 0.  1.
</event>
<event>
 5    1  0.1319298E-009  0.9118800E+02  0.7818608E-02  0.1130116E+00
         25   -1    0    0    0    0  0.00000000000E+00  0.00000000000E+00  0.99999998245E-14  0.12500000000E+03  0.12500000000E+03 0.  0.
        -13    1    3    3    0    0 -0.23002225994E+02  0.11101149812E+02  0.22353338717E+02  0.33941432551E+02  0.10566000000E+00 0. -1.
         23    2    1    0    0    0  0.20067285281E+02 -0.24841799816E+02  0.48944493740E+01  0.92692623267E+02  0.86880123255E+02 0.  0.
         13    1    3    3    0    0  0.43069511275E+02 -0.35942949628E+02 -0.17458889343E+02  0.58751190716E+02  0.10566000000E+00 0.  1.
         22    1    1    0    0    0 -0.20067285281E+02  0.24841799816E+02 -0.48944493740E+01  0.32307376733E+02  0.00000000000E+00 0.  1.
</event>
<event>
 4    1  0.1319298E-009  0.9118800E+02  0.7818608E-02  0.1130116E+00
         25   -1    0    0    0    0  0.00000000000E+00  0.00000000000E+00  0.99999998245E-14  0.12500000000E+03  0.12500000000E+03 0.  0.
        -13    1    1    0    0    0  0.44697702966E+02  0.25212136486E+02 -0.38645045738E+01  0.51463404826E+02  0.10566000000E+00 0. -1.
         13    1    1    0    0    0  0.98326457299E+01 -0.15028679538E+02  0.11865341495E+01  0.17998921024E+02  0.10566000000E+00 0.  1.
         22    1    1    0    0    0 -0.54530348696E+02 -0.10183456948E+02  0.26779704243E+01  0.55537674149E+02  0.00000000000E+00 0. -1.
</event>
<event>
 5    1  0.1319298E-009  0.9118800E+02  0.7818608E-02  0.1130116E+00
         25   -1    0    0    0    0  0.00000000000E+00  0.00000000000E+00  0.99999998245E-14  0.12500000000E+03  0.12500000000E+03 0.  0.
        -13    1    3    3    0    0  0.10978639770E+02  0.26169660696E+01  0.39655647212E+02  0.41230578003E+02  0.10566000000E+00 0.  1.
         23    2    1    0    0    0  0.11269036018E+02 -0.25515518758E+02 -0.74774116059E+01  0.96121901818E+02  0.91681380086E+02 0.  0.
         13    1    3    3    0    0  0.29039624783E+00 -0.28132484828E+02 -0.47133058818E+02  0.54891323815E+02  0.10566000000E+00 0. -1.
         22    1    1    0    0    0 -0.11269036018E+02  0.25515518758E+02  0.74774116059E+01  0.28878098182E+02  0.00000000000E+00 0. -1.
</event>
<event>
 5    1  0.1319298E-009  0.9118800E+02  0.7818608E-02  0.1130116E+00
         25   -1    0    0    0    0  0.00000000000E+00  0.00000000000E+00  0.99999998245E-14  0.12500000000E+03  0.12500000000E+03 0.  0.
        -13    1    3    3    0    0  0.22846999729E+02 -0.33890752991E+02  0.18613773266E+02  0.44911604894E+02  0.10566000000E+00 0. -1.
         23    2    1    0    0    0  0.11219606530E+02 -0.21880878636E+02 -0.23970825785E+02  0.90659747971E+02  0.83904332384E+02 0.  0.
         13    1    3    3    0    0 -0.11627393199E+02  0.12009874354E+02 -0.42584599052E+02  0.45748143077E+02  0.10566000000E+00 0.  1.
         22    1    1    0    0    0 -0.11219606530E+02  0.21880878636E+02  0.23970825785E+02  0.34340252029E+02  0.00000000000E+00 0.  1.
</event>
<event>
 5    1  0.1319298E-009  0.9118800E+02  0.7818608E-02  0.1130116E+00
         25   -1    0    0    0    0  0.00000000000E+00  0.00000000000E+00  0.99999998245E-14  0.12500000000E+03  0.12500000000E+03 0.  0.
        -13    1    3    3    0    0  0.23446775716E+02 -0.28018256211E+02  0.11085216549E+02  0.38179407572E+02  0.10566000000E+00 0. -1.
         23    2    1    0    0    0  0.10472957227E+02  0.27319526516E+02  0.30400927755E+01  0.95584331960E+02  0.90945494611E+02 0.  0.
         13    1    3    3    0    0 -0.12973818489E+02  0.55337782728E+02 -0.80451237733E+01  0.57404924388E+02  0.10566000000E+00 0.  1.
         22    1    1    0    0    0 -0.10472957227E+02 -0.27319526516E+02 -0.30400927755E+01  0.29415668040E+02  0.00000000000E+00 0.  1.
</event>
<event>
 5    1  0.1319298E-009  0.9118800E+02  0.7818608E-02  0.1130116E+00
         25   -1    0    0    0    0  0.00000000000E+00  0.00000000000E+00  0.99999998245E-14  0.12500000000E+03  0.12500000000E+03 0.  0.
        -13    1    3    3    0    0 -0.39616157798E+02  0.38710283285E+02  0.20251670766E+02  0.58975141573E+02  0.10566000000E+00 0. -1.
         23    2    1    0    0    0 -0.27738989257E+02  0.20582981426E+02  0.26425671780E+02  0.81509463346E+02  0.68937405206E+02 0.  0.
         13    1    3    3    0    0  0.11877168541E+02 -0.18127301859E+02  0.61740010141E+01  0.22534321773E+02  0.10566000000E+00 0.  1.
         22    1    1    0    0    0  0.27738989257E+02 -0.20582981426E+02 -0.26425671780E+02  0.43490536654E+02  0.00000000000E+00 0. -1.
</event>
<event>
 5    1  0.1319298E-009  0.9118800E+02  0.7818608E-02  0.1130116E+00
         25   -1    0    0    0    0  0.00000000000E+00  0.00000000000E+00  0.99999998245E-14  0.12500000000E+03  0.12500000000E+03 0.  0.
        -13    1    3    3    0    0  0.50683123704E+02 -0.11230056169E+02  0.25896552869E+01  0.51977020581E+02  0.10566000000E+00 0.  1.
         23    2    1    0    0    0  0.10339277137E+02 -0.18841228408E+02 -0.17124120601E+02  0.97520406736E+02  0.93568700343E+02 0.  0.
         13    1    3    3    0    0 -0.40343846567E+02 -0.76111722394E+01 -0.19713775887E+02  0.45543386155E+02  0.10566000000E+00 0. -1.
         22    1    1    0    0    0 -0.10339277137E+02  0.18841228408E+02  0.17124120601E+02  0.27479593264E+02  0.00000000000E+00 0. -1.
</event>
<event>
 5    1  0.1319298E-009  0.9118800E+02  0.7818608E-02  0.1130116E+00
         25   -1    0    0    0    0  0.00000000000E+00  0.00000000000E+00  0.99999998245E-14  0.12500000000E+03  0.12500000000E+03 0.  0.
        -13    1    3    3    0    0 -0.46432725265E+02 -0.10687243019E+02  0.80929212741E+01  0.48329304544E+02  0.10566000000E+00 0. -1.
         23    2    1    0    0    0 -0.22215172781E+01 -0.24379752439E+02  0.16645883294E+02  0.95396066162E+02  0.90686363587E+02 0.  0.
         13    1    3    3    0    0  0.44211207987E+02 -0.13692509420E+02  0.85529620203E+01  0.47066761618E+02  0.10566000000E+00 0.  1.
         22    1    1    0    0    0  0.22215172781E+01  0.24379752439E+02 -0.16645883294E+02  0.29603933838E+02  0.00000000000E+00 0.  1.
</event>
<event>
 5    1  0.1319298E-009  0.9118800E+02  0.7818608E-02  0.1130116E+00
         25   -1    0    0    0    0  0.00000000000E+00  0.00000000000E+00  0.99999998245E-14  0.12500000000E+03  0.12500000000E+03 0.  0.
        -13    1    3    3    0    0  0.92297852890E+01 -0.32985669438E+02  0.19578872714E+02  0.39453602441E+02  0.10566000000E+00 0. -1.
         23    2    1    0    0    0 -0.19590058893E+02  0.15502501474E+02  0.14564270514E+02  0.96082601517E+02  0.91627781701E+02 0.  0.
         13    1    3    3    0    0 -0.28819844182E+02  0.48488170913E+02 -0.50146022005E+01  0.56628999077E+02  0.10566000000E+00 0.  1.
         22    1    1    0    0    0  0.19590058893E+02 -0.15502501474E+02 -0.14564270514E+02  0.28917398483E+02  0.00000000000E+00 0.  1.
</event>
<event>
 5    1  0.1319298E-009  0.9118800E+02  0.7818608E-02  0.1130116E+00
         25   -1    0    0    0    0  0.00000000000E+00  0.00000000000E+00  0.99999998245E-14  0.12500000000E+03  0.12500000000E+03 0.  0.
        -13    1    3    3    0    0  0.57097656393E+02 -0.52922972172E+01 -0.13316247711E+02  0.58868364956E+02  0.10566000000E+00 0.  1.
         23    2    1    0    0    0  0.27366219392E+02 -0.94093279679E+01  0.71424154291E+01  0.95192961993E+02  0.90405976009E+02 0.  0.
         13    1    3    3    0    0 -0.29731437001E+02 -0.41170307507E+01  0.20458663140E+02  0.36324597037E+02  0.10566000000E+00 0. -1.
         22    1    1    0    0    0 -0.27366219392E+02  0.94093279679E+01 -0.71424154291E+01  0.29807038007E+02  0.00000000000E+00 0.  1.
</event>
<event>
 5    1  0.1319298E-009  0.9118800E+02  0.7818608E-02  0.1130116E+00
         25   -1    0    0    0    0  0.00000000000E+00  0.00000000000E+00  0.99999998245E-14  0.12500000000E+03  0.12500000000E+03 0.  0.
        -13    1    3    3    0    0  0.29093474017E+02 -0.23642620160E+02 -0.21503347934E+02  0.43218154227E+02  0.10566000000E+00 0.  1.
         23    2    1    0    0    0 -0.21617533347E+02 -0.13768681724E+01 -0.14242061778E+02  0.99076075959E+02  0.95624363996E+02 0.  0.
         13    1    3    3    0    0 -0.50711007364E+02  0.22265751988E+02  0.72612861561E+01  0.55857921731E+02  0.10566000000E+00 0. -1.
         22    1    1    0    0    0  0.21617533347E+02  0.13768681724E+01  0.14242061778E+02  0.25923924041E+02  0.00000000000E+00 0. -1.
</event>
<event>
 5    1  0.1319298E-009  0.9118800E+02  0.7818608E-02  0.1130116E+00
         25   -1    0    0    0    0  0.00000000000E+00  0.00000000000E+00  0.99999998245E-14  0.12500000000E+03  0.12500000000E+03 0.  0.
        -13    1    3    3    0    0  0.20651830309E+02 -0.19912348492E+02  0.33175734118E+02  0.43859323021E+02  0.10566000000E+00 0. -1.
         23    2    1    0    0    0  0.33261501345E+01  0.25357126527E+02  0.11766047028E+02  0.96848854320E+02  0.92667219555E+02 0.  0.
         13    1    3    3    0    0 -0.17325680174E+02  0.45269475019E+02 -0.21409687090E+02  0.52989531299E+02  0.10566000000E+00 0.  1.
         22    1    1    0    0    0 -0.33261501345E+01 -0.25357126527E+02 -0.11766047028E+02  0.28151145680E+02  0.00000000000E+00 0.  1.
</event>
<event>
 5    1  0.1319298E-009  0.9118800E+02  0.7818608E-02  0.1130116E+00
         25   -1    0    0    0    0  0.00000000000E+00  0.00000000000E+00  0.99999998245E-14  0.12500000000E+03  0.12500000000E+03 0.  0.
        -13    1    3    3    0    0  0.32335655333E+02  0.10976558094E+02  0.34761945699E+01  0.34324546991E+02  0.10566000000E+00 0.  1.
         23    2    1    0    0    0 -0.19963213022E+02 -0.21246132269E+02  0.93185296475E-01  0.95846326234E+02  0.91304882447E+02 0.  0.
         13    1    3    3    0    0 -0.52298868355E+02 -0.32222690363E+02 -0.33830092734E+01  0.61521779243E+02  0.10566000000E+00 0. -1.
         22    1    1    0    0    0  0.19963213022E+02  0.21246132269E+02 -0.93185296475E-01  0.29153673766E+02  0.00000000000E+00 0. -1.
</event>
<event>
 5    1  0.1319298E-009  0.9118800E+02  0.7818608E-02  0.1130116E+00
         25   -1    0    0    0    0  0.00000000000E+00  0.00000000000E+00  0.99999998245E-14  0.12500000000E+03  0.12500000000E+03 0.  0.
        -13    1    3    3    0    0 -0.27218669185E+02  0.28848143726E+02 -0.35146793354E+02  0.52994146806E+02  0.10566000000E+00 0.  1.
         23    2    1    0    0    0 -0.77086113716E+01 -0.81392108026E+01 -0.27227432296E+02  0.95555093629E+02  0.90905299116E+02 0.  0.
         13    1    3    3    0    0  0.19510057813E+02 -0.36987354528E+02  0.79193610579E+01  0.42560946823E+02  0.10566000000E+00 0. -1.
         22    1    1    0    0    0  0.77086113716E+01  0.81392108026E+01  0.27227432296E+02  0.29444906371E+02  0.00000000000E+00 0. -1.
</event>
<event>
 5    1  0.1319298E-009  0.9118800E+02  0.7818608E-02  0.1130116E+00
         25   -1    0    0    0    0  0.00000000000E+00  0.00000000000E+00  0.99999998245E-14  0.12500000000E+03  0.12500000000E+03 0.  0.
        -13    1    3    3    0    0  0.39099693981E+02 -0.30840100951E+02  0.19747258844E+02  0.53571105010E+02  0.10566000000E+00 0.  1.
         23    2    1    0    0    0  0.11035134280E+02 -0.23031466472E+02 -0.12106878114E+02  0.96736965236E+02  0.92516167825E+02 0.  0.
         13    1    3    3    0    0 -0.28064559701E+02  0.78086344796E+01 -0.31854136958E+02  0.43165860226E+02  0.10566000000E+00 0. -1.
         22    1    1    0    0    0 -0.11035134280E+02  0.23031466472E+02  0.12106878114E+02  0.28263034764E+02  0.00000000000E+00 0.  1.
</event>
<event>
 5    1  0.1319298E-009  0.9118800E+02  0.7818608E-02  0.1130116E+00
         25   -1    0    0    0    0  0.00000000000E+00  0.00000000000E+00  0.99999998245E-14  0.12500000000E+03  0.12500000000E+03 0.  0.
        -13    1    3    3    0    0 -0.24880848448E+02 -0.14005187081E+02  0.38182774850E+02  0.47677430131E+02  0.10566000000E+00 0.  1.
         23    2    1    0    0    0  0.79939121452E+01 -0.27837160164E+02  0.66500489539E+01  0.95284124302E+02  0.90531934010E+02 0.  0.
         13    1    3    3    0    0  0.32874760593E+02 -0.13831973083E+02 -0.31532725896E+02  0.47606694171E+02  0.10566000000E+00 0. -1.
         22    1    1    0    0    0 -0.79939121452E+01  0.27837160164E+02 -0.66500489539E+01  0.29715875698E+02  0.00000000000E+00 0.  1.
</event>
<event>
 5    1  0.1319298E-009  0.9118800E+02  0.7818608E-02  0.1130116E+00
         25   -1    0    0    0    0  0.00000000000E+00  0.00000000000E+00  0.99999998245E-14  0.12500000000E+03  0.12500000000E+03 0.  0.
        -13    1    3    3    0    0  0.10541129075E+02 -0.17880779311E+02  0.27783844218E+02  0.34681274984E+02  0.10566000000E+00 0.  1.
         23    2    1    0    0    0 -0.21831990780E+02  0.31369716947E+00 -0.20130605514E+02  0.95301927576E+02  0.90556512157E+02 0.  0.
         13    1    3    3    0    0 -0.32373119855E+02  0.18194476480E+02 -0.47914449732E+02  0.60620652592E+02  0.10566000000E+00 0. -1.
         22    1    1    0    0    0  0.21831990780E+02 -0.31369716947E+00  0.20130605514E+02  0.29698072424E+02  0.00000000000E+00 0. -1.
</event>
<event>
 5    1  0.1319298E-009  0.9118800E+02  0.7818608E-02  0.1130116E+00
         25   -1    0    0    0    0  0.00000000000E+00  0.00000000000E+00  0.99999998245E-14  0.12500000000E+03  0.12500000000E+03 0.  0.
        -13    1    3    3    0    0 -0.22382557905E+02  0.49485761144E+02 -0.28915461114E+02  0.61529948073E+02  0.10566000000E+00 0.  1.
         23    2    1    0    0    0 -0.16457680512E+02  0.19807939177E+02 -0.17446442434E+02  0.93893922525E+02  0.88591651024E+02 0.  0.
         13    1    3    3    0    0  0.59248773930E+01 -0.29677821967E+02  0.11469018680E+02  0.32363974452E+02  0.10566000000E+00 0. -1.
         22    1    1    0    0    0  0.16457680512E+02 -0.19807939177E+02  0.17446442434E+02  0.31106077475E+02  0.00000000000E+00 0.  1.
</event>
<event>
 5    1  0.1319298E-009  0.9118800E+02  0.7818608E-02  0.1130116E+00
         25   -1    0    0    0    0  0.00000000000E+00  0.00000000000E+00  0.99999998245E-14  0.12500000000E+03  0.12500000000E+03 0.  0.
        -13    1    3    3    0    0  0.10979537700E+02  0.26533634527E+02 -0.44864468468E+01  0.29064125287E+02  0.10566000000E+00 0. -1.
         23    2    1    0    0    0 -0.12316110320E+02 -0.30008159811E+02  0.82517698000E+01  0.91529596156E+02  0.85190369403E+02 0.  0.
         13    1    3    3    0    0 -0.23295648019E+02 -0.56541794338E+02  0.12738216647E+02  0.62465470870E+02  0.10566000000E+00 0.  1.
         22    1    1    0    0    0  0.12316110320E+02  0.30008159811E+02 -0.82517698000E+01  0.33470403844E+02  0.00000000000E+00 0.  1.
</event>
<event>
 5    1  0.1319298E-009  0.9118800E+02  0.7818608E-02  0.1130116E+00
         25   -1    0    0    0    0  0.00000000000E+00  0.00000000000E+00  0.99999998245E-14  0.12500000000E+03  0.12500000000E+03 0.  0.
        -13    1    3    3    0    0 -0.90726606783E+01  0.48330801273E+02 -0.99567518595E+01  0.50172976742E+02  0.10566000000E+00 0. -1.
         23    2    1    0    0    0  0.22687449275E+02  0.17864251672E+02  0.27814056316E+01  0.95989862812E+02  0.91501178697E+02 0.  0.
         13    1    3    3    0    0  0.31760109953E+02 -0.30466549601E+02  0.12738157491E+02  0.45816886070E+02  0.10566000000E+00 0.  1.
         22    1    1    0    0    0 -0.22687449275E+02 -0.17864251672E+02 -0.27814056316E+01  0.29010137188E+02  0.00000000000E+00 0. -1.
</event>
<event>
 5    1  0.1319298E-009  0.9118800E+02  0.7818608E-02  0.1130116E+00
         25   -1    0    0    0    0  0.00000000000E+00  0.00000000000E+00  0.99999998245E-14  0.12500000000E+03  0.12500000000E+03 0.  0.
        -13    1    3    3    0    0  0.10408627413E+01 -0.21656607400E+02 -0.41446144068E+02  0.46774844323E+02  0.10566000000E+00 0.  1.
         23    2    1    0    0    0 -0.19494820651E+02 -0.31378412477E+02 -0.80098489849E+01  0.87200390445E+02  0.78581789310E+02 0.  0.
         13    1    3    3    0    0 -0.20535683392E+02 -0.97218050764E+01  0.33436295083E+02  0.40425546122E+02  0.10566000000E+00 0. -1.
         22    1    1    0    0    0  0.19494820651E+02  0.31378412477E+02  0.80098489849E+01  0.37799609555E+02  0.00000000000E+00 0.  1.
</event>
<event>
 5    1  0.1319298E-009  0.9118800E+02  0.7818608E-02  0.1130116E+00
         25   -1    0    0    0    0  0.00000000000E+00  0.00000000000E+00  0.99999998245E-14  0.12500000000E+03  0.12500000000E+03 0.  0.
        -13    1    3    3    0    0 -0.14011032194E+02  0.30442013815E+02 -0.16424943117E+02  0.37320438753E+02  0.10566000000E+00 0.  1.
         23    2    1    0    0    0 -0.13106155152E+02 -0.26274609446E+02 -0.43150764589E+01  0.95322630014E+02  0.90585084333E+02 0.  0.
         13    1    3    3    0    0  0.90487704273E+00 -0.56716623261E+02  0.12109866658E+02  0.58002191262E+02  0.10566000000E+00 0. -1.
         22    1    1    0    0    0  0.13106155152E+02  0.26274609446E+02  0.43150764589E+01  0.29677369986E+02  0.00000000000E+00 0. -1.
</event>
<event>
 5    1  0.1319298E-009  0.9118800E+02  0.7818608E-02  0.1130116E+00
         25   -1    0    0    0    0  0.00000000000E+00  0.00000000000E+00  0.99999998245E-14  0.12500000000E+03  0.12500000000E+03 0.  0.
        -13    1    3    3    0    0 -0.12126581020E+02 -0.35653355667E+02 -0.24199731279E+00  0.37660130965E+02  0.10566000000E+00 0. -1.
         23    2    1    0    0    0  0.15939542904E+01  0.14348290873E+02  0.25612745511E+02  0.95598862711E+02  0.90965464204E+02 0.  0.
         13    1    3    3    0    0  0.13720535310E+02  0.50001646540E+02  0.25854742824E+02  0.57938731747E+02  0.10566000000E+00 0.  1.
         22    1    1    0    0    0 -0.15939542904E+01 -0.14348290873E+02 -0.25612745511E+02  0.29401137289E+02  0.00000000000E+00 0.  1.
</event>
<event>
 5    1  0.1319298E-009  0.9118800E+02  0.7818608E-02  0.1130116E+00
         25   -1    0    0    0    0  0.00000000000E+00  0.00000000000E+00  0.99999998245E-14  0.12500000000E+03  0.12500000000E+03 0.  0.
        -13    1    3    3    0    0  0.34543764511E+02  0.50405949055E+02 -0.13212628374E+01  0.61121095100E+02  0.10566000000E+00 0. -1.
         23    2    1    0    0    0  0.95265364964E+01  0.26805948082E+02  0.50729628946E+01  0.96102790745E+02  0.91655320011E+02 0.  0.
         13    1    3    3    0    0 -0.25017228014E+02 -0.23600000973E+02  0.63942257320E+01  0.34981695645E+02  0.10566000000E+00 0.  1.
         22    1    1    0    0    0 -0.95265364964E+01 -0.26805948082E+02 -0.50729628946E+01  0.28897209255E+02  0.00000000000E+00 0. -1.
</event>
<event>
 5    1  0.1319298E-009  0.9118800E+02  0.7818608E-02  0.1130116E+00
         25   -1    0    0    0    0  0.00000000000E+00  0.00000000000E+00  0.99999998245E-14  0.12500000000E+03  0.12500000000E+03 0.  0.
        -13    1    3    3    0    0 -0.39608501818E+02 -0.54147897225E+01  0.18018342747E+02  0.43850030826E+02  0.10566000000E+00 0. -1.
         23    2    1    0    0    0  0.95057491727E+01 -0.10221942128E+02  0.27554040697E+02  0.94111935526E+02  0.88898728233E+02 0.  0.
         13    1    3    3    0    0  0.49114250991E+02 -0.48071524058E+01  0.95356979499E+01  0.50261904700E+02  0.10566000000E+00 0.  1.
         22    1    1    0    0    0 -0.95057491727E+01  0.10221942128E+02 -0.27554040697E+02  0.30888064474E+02  0.00000000000E+00 0. -1.
</event>
<event>
 5    1  0.1319298E-009  0.9118800E+02  0.7818608E-02  0.1130116E+00
         25   -1    0    0    0    0  0.00000000000E+00  0.00000000000E+00  0.99999998245E-14  0.12500000000E+03  0.12500000000E+03 0.  0.
        -13    1    3    3    0    0 -0.48720056261E+02  0.42396605522E+01 -0.47741478921E+01  0.49136770914E+02  0.10566000000E+00 0. -1.
         23    2    1    0    0    0 -0.12218895761E+02 -0.20398358824E+02 -0.18066082263E+02  0.95137351345E+02  0.90329053113E+02 0.  0.
         13    1    3    3    0    0  0.36501160501E+02 -0.24638019377E+02 -0.13291934371E+02  0.46000580432E+02  0.10566000000E+00 0.  1.
         22    1    1    0    0    0  0.12218895761E+02  0.20398358824E+02  0.18066082263E+02  0.29862648655E+02  0.00000000000E+00 0. -1.
</event>
<event>
 5    1  0.1319298E-009  0.9118800E+02  0.7818608E-02  0.1130116E+00
         25   -1    0    0    0    0  0.00000000000E+00  0.00000000000E+00  0.99999998245E-14  0.12500000000E+03  0.12500000000E+03 0.  0.
        -13    1    3    3    0    0  0.19605762899E+02  0.10096707596E+02 -0.26011529846E+02  0.34101910388E+02  0.10566000000E+00 0.  1.
         23    2    1    0    0    0 -0.20216791532E+02  0.60137885794E+00  0.20594054653E+02  0.96134875655E+02  0.91699067137E+02 0.  0.
         13    1    3    3    0    0 -0.39822554431E+02 -0.94953287382E+01  0.46605584500E+02  0.62032965267E+02  0.10566000000E+00 0. -1.
         22    1    1    0    0    0  0.20216791532E+02 -0.60137885794E+00 -0.20594054653E+02  0.28865124345E+02  0.00000000000E+00 0. -1.
</event>
<event>
 5    1  0.1319298E-009  0.9118800E+02  0.7818608E-02  0.1130116E+00
         25   -1    0    0    0    0  0.00000000000E+00  0.00000000000E+00  0.99999998245E-14  0.12500000000E+03  0.12500000000E+03 0.  0.
        -13    1    3    3    0    0 -0.33606452346E+02 -0.83142083172E+01 -0.50698199969E+01  0.34989054546E+02  0.10566000000E+00 0. -1.
         23    2    1    0    0    0  0.27631101821E+02 -0.42624007013E+00 -0.59205872903E+01  0.96738492215E+02  0.92518230926E+02 0.  0.
         13    1    3    3    0    0  0.61237554167E+02  0.78879682470E+01 -0.85076729345E+00  0.61749437669E+02  0.10566000000E+00 0.  1.
         22    1    1    0    0    0 -0.27631101821E+02  0.42624007013E+00  0.59205872903E+01  0.28261507785E+02  0.00000000000E+00 0.  1.
</event>
<event>
 5    1  0.1319298E-009  0.9118800E+02  0.7818608E-02  0.1130116E+00
         25   -1    0    0    0    0  0.00000000000E+00  0.00000000000E+00  0.99999998245E-14  0.12500000000E+03  0.12500000000E+03 0.  0.
        -13    1    3    3    0    0  0.30343002075E+02 -0.72901513202E+01  0.14648445137E+02  0.34473644863E+02  0.10566000000E+00 0. -1.
         23    2    1    0    0    0 -0.10006455551E+02  0.97071137137E+01 -0.26816773749E+02  0.94775894329E+02  0.89827465634E+02 0.  0.
         13    1    3    3    0    0 -0.40349457626E+02  0.16997265034E+02 -0.41465218886E+02  0.60302249465E+02  0.10566000000E+00 0.  1.
         22    1    1    0    0    0  0.10006455551E+02 -0.97071137137E+01  0.26816773749E+02  0.30224105671E+02  0.00000000000E+00 0.  1.
</event>
<event>
 5    1  0.1319298E-009  0.9118800E+02  0.7818608E-02  0.1130116E+00
         25   -1    0    0    0    0  0.00000000000E+00  0.00000000000E+00  0.99999998245E-14  0.12500000000E+03  0.12500000000E+03 0.  0.
        -13    1    3    3    0    0  0.11466078317E+01 -0.39374067333E+02 -0.46542178360E+02  0.60973907685E+02  0.10566000000E+00 0. -1.
         23    2    1    0    0    0 -0.86205495149E+01 -0.13645497955E+02 -0.20938051559E+02  0.98562990118E+02  0.94951290300E+02 0.  0.
         13    1    3    3    0    0 -0.97671573466E+01  0.25728569378E+02  0.25604126801E+02  0.37589082433E+02  0.10566000000E+00 0.  1.
         22    1    1    0    0    0  0.86205495149E+01  0.13645497955E+02  0.20938051559E+02  0.26437009882E+02  0.00000000000E+00 0. -1.
</event>
<event>
 5    1  0.1319298E-009  0.9118800E+02  0.7818608E-02  0.1130116E+00
         25   -1    0    0    0    0  0.00000000000E+00  0.00000000000E+00  0.99999998245E-14  0.12500000000E+03  0.12500000000E+03 0.  0.
        -13    1    3    3    0    0 -0.29015561010E+02 -0.14202061137E+02  0.12851840382E+02  0.34767546455E+02  0.10566000000E+00 0. -1.
         23    2    1    0    0    0  0.12916995252E+02  0.23520223631E+02 -0.10990193782E+02  0.96002861429E+02  0.91518934419E+02 0.  0.
         13    1    3    3    0    0  0.41932556262E+02  0.37722284768E+02 -0.23842034163E+02  0.61235314973E+02  0.10566000000E+00 0.  1.
         22    1    1    0    0    0 -0.12916995252E+02 -0.23520223631E+02  0.10990193782E+02  0.28997138571E+02  0.00000000000E+00 0.  1.
</event>
<event>
 5    1  0.1319298E-009  0.9118800E+02  0.7818608E-02  0.1130116E+00
         25   -1    0    0    0    0  0.00000000000E+00  0.00000000000E+00  0.99999998245E-14  0.12500000000E+03  0.12500000000E+03 0.  0.
        -13    1    3    3    0    0 -0.54593993526E+02 -0.20132256479E+02  0.11877056978E+02  0.59387604149E+02  0.10566000000E+00 0.  1.
         23    2    1    0    0    0 -0.24332264506E+02 -0.18430690348E+02 -0.49835307877E+01  0.94071291301E+02  0.88841560236E+02 0.  0.
         13    1    3    3    0    0  0.30261729020E+02  0.17015661313E+01 -0.16860587765E+02  0.34683687151E+02  0.10566000000E+00 0. -1.
         22    1    1    0    0    0  0.24332264506E+02  0.18430690348E+02  0.49835307877E+01  0.30928708699E+02  0.00000000000E+00 0.  1.
</event>
<event>
 5    1  0.1319298E-009  0.9118800E+02  0.7818608E-02  0.1130116E+00
         25   -1    0    0    0    0  0.00000000000E+00  0.00000000000E+00  0.99999998245E-14  0.12500000000E+03  0.12500000000E+03 0.  0.
        -13    1    3    3    0    0 -0.31922663872E+02 -0.11228330259E+02 -0.28394674818E+02  0.44174660057E+02  0.10566000000E+00 0. -1.
         23    2    1    0    0    0  0.15585363037E+02  0.81835930284E+01 -0.23371309974E+02  0.95740935324E+02  0.91160483933E+02 0.  0.
         13    1    3    3    0    0  0.47508026909E+02  0.19411923288E+02  0.50233648445E+01  0.51566275267E+02  0.10566000000E+00 0.  1.
         22    1    1    0    0    0 -0.15585363037E+02 -0.81835930284E+01  0.23371309974E+02  0.29259064676E+02  0.00000000000E+00 0. -1.
</event>
<event>
 5    1  0.1319298E-009  0.9118800E+02  0.7818608E-02  0.1130116E+00
         25   -1    0    0    0    0  0.00000000000E+00  0.00000000000E+00  0.99999998245E-14  0.12500000000E+03  0.12500000000E+03 0.  0.
        -13    1    3    3    0    0  0.81424887011E+01  0.29551009707E+02 -0.24346905000E+02  0.39145181620E+02  0.10566000000E+00 0. -1.
         23    2    1    0    0    0 -0.19475282026E+02  0.73380557624E+01  0.20149678296E+02  0.96032031348E+02  0.91558767123E+02 0.  0.
         13    1    3    3    0    0 -0.27617770727E+02 -0.22212953945E+02  0.44496583296E+02  0.56886849728E+02  0.10566000000E+00 0.  1.
         22    1    1    0    0    0  0.19475282026E+02 -0.73380557624E+01 -0.20149678296E+02  0.28967968652E+02  0.00000000000E+00 0.  1.
</event>
<event>
 5    1  0.1319298E-009  0.9118800E+02  0.7818608E-02  0.1130116E+00
         25   -1    0    0    0    0  0.00000000000E+00  0.00000000000E+00  0.99999998245E-14  0.12500000000E+03  0.12500000000E+03 0.  0.
        -13    1    3    3    0    0  0.88598542788E+01  0.12067938456E+02  0.32237832572E+02  0.35544636296E+02  0.10566000000E+00 0. -1.
         23    2    1    0    0    0 -0.24549374379E+02 -0.45355277856E+00 -0.16110896403E+02  0.95632697171E+02  0.91011945880E+02 0.  0.
         13    1    3    3    0    0 -0.33409228658E+02 -0.12521491235E+02 -0.48348728975E+02  0.60088060876E+02  0.10566000000E+00 0.  1.
         22    1    1    0    0    0  0.24549374379E+02  0.45355277856E+00  0.16110896403E+02  0.29367302829E+02  0.00000000000E+00 0.  1.
</event>
<event>
 5    1  0.1319298E-009  0.9118800E+02  0.7818608E-02  0.1130116E+00
         25   -1    0    0    0    0  0.00000000000E+00  0.00000000000E+00  0.99999998245E-14  0.12500000000E+03  0.12500000000E+03 0.  0.
        -13    1    3    3    0    0 -0.48059020710E+02  0.17610033809E+02 -0.33555238000E+02  0.61202515664E+02  0.10566000000E+00 0.  1.
         23    2    1    0    0    0 -0.27276255171E+02  0.31348501429E+01 -0.10031116580E+02  0.95769114256E+02  0.91199114930E+02 0.  0.
         13    1    3    3    0    0  0.20782765539E+02 -0.14475183666E+02  0.23524121420E+02  0.34566598592E+02  0.10566000000E+00 0. -1.
         22    1    1    0    0    0  0.27276255171E+02 -0.31348501429E+01  0.10031116580E+02  0.29230885744E+02  0.00000000000E+00 0.  1.
</event>
<event>
 5    1  0.1319298E-009  0.9118800E+02  0.7818608E-02  0.1130116E+00
         25   -1    0    0    0    0  0.00000000000E+00  0.00000000000E+00  0.99999998245E-14  0.12500000000E+03  0.12500000000E+03 0.  0.
        -13    1    3    3    0    0 -0.32948574270E+02  0.30893415875E+02 -0.26465930871E+02  0.52349482822E+02  0.10566000000E+00 0.  1.
         23    2    1    0    0    0 -0.38808171537E+02  0.35009565511E+01 -0.10283560096E+02  0.84700093263E+02  0.74498478613E+02 0.  0.
         13    1    3    3    0    0 -0.58595972669E+01 -0.27392459324E+02  0.16182370775E+02  0.32350610440E+02  0.10566000000E+00 0. -1.
         22    1    1    0    0    0  0.38808171537E+02 -0.35009565511E+01  0.10283560096E+02  0.40299906737E+02  0.00000000000E+00 0.  1.
</event>
<event>
 5    1  0.1319298E-009  0.9118800E+02  0.7818608E-02  0.1130116E+00
         25   -1    0    0    0    0  0.00000000000E+00  0.00000000000E+00  0.99999998245E-14  0.12500000000E+03  0.12500000000E+03 0.  0.
        -13    1    3    3    0    0  0.14748791321E+02  0.60817814262E+00  0.31881172972E+02  0.35132849019E+02  0.10566000000E+00 0.  1.
         23    2    1    0    0    0 -0.56719367569E+01 -0.20325244189E+02 -0.20789491367E+02  0.95377552950E+02  0.90660841809E+02 0.  0.
         13    1    3    3    0    0 -0.20420728078E+02 -0.20933422332E+02 -0.52670664339E+02  0.60244703931E+02  0.10566000000E+00 0. -1.
         22    1    1    0    0    0  0.56719367569E+01  0.20325244189E+02  0.20789491367E+02  0.29622447050E+02  0.00000000000E+00 0. -1.
</event>
<event>
 5    1  0.1319298E-009  0.9118800E+02  0.7818608E-02  0.1130116E+00
         25   -1    0    0    0    0  0.00000000000E+00  0.00000000000E+00  0.99999998245E-14  0.12500000000E+03  0.12500000000E+03 0.  0.
        -13    1    3    3    0    0  0.44599221469E+02  0.14644618590E+02  0.25077239133E+02  0.53220620965E+02  0.10566000000E+00 0.  1.
         23    2    1    0    0    0  0.26839559677E+02  0.73894179569E+01 -0.11780035394E+02  0.94771955153E+02  0.89821983880E+02 0.  0.
         13    1    3    3    0    0 -0.17759661792E+02 -0.72552006331E+01 -0.36857274527E+02  0.41551334188E+02  0.10566000000E+00 0. -1.
         22    1    1    0    0    0 -0.26839559677E+02 -0.73894179569E+01  0.11780035394E+02  0.30228044847E+02  0.00000000000E+00 0. -1.
</event>
<event>
 5    1  0.1319298E-009  0.9118800E+02  0.7818608E-02  0.1130116E+00
         25   -1    0    0    0    0  0.00000000000E+00  0.00000000000E+00  0.99999998245E-14  0.12500000000E+03  0.12500000000E+03 0.  0.
        -13    1    3    3    0    0 -0.36893592469E+02  0.29937778099E+02 -0.25087177042E+02  0.53728812929E+02  0.10566000000E+00 0.  1.
         23    2    1    0    0    0 -0.42825456353E+01  0.41951598916E+01 -0.28931849281E+02  0.95453571003E+02  0.90765592329E+02 0.  0.
         13    1    3    3    0    0  0.32611046833E+02 -0.25742618207E+02 -0.38446722385E+01  0.41724758075E+02  0.10566000000E+00 0. -1.
         22    1    1    0    0    0  0.42825456353E+01 -0.41951598916E+01  0.28931849281E+02  0.29546428997E+02  0.00000000000E+00 0.  1.
</event>
<event>
 5    1  0.1319298E-009  0.9118800E+02  0.7818608E-02  0.1130116E+00
         25   -1    0    0    0    0  0.00000000000E+00  0.00000000000E+00  0.99999998245E-14  0.12500000000E+03  0.12500000000E+03 0.  0.
        -13    1    3    3    0    0 -0.13906468626E+02  0.46090314570E+02  0.36322485834E+02  0.60307885952E+02  0.10566000000E+00 0.  1.
         23    2    1    0    0    0 -0.18383792101E+02  0.24271066779E+02  0.26435535619E+02  0.84677722807E+02  0.74460934064E+02 0.  0.
         13    1    3    3    0    0 -0.44773234755E+01 -0.21819247792E+02 -0.98869502152E+01  0.24369836854E+02  0.10566000000E+00 0. -1.
         22    1    1    0    0    0  0.18383792101E+02 -0.24271066779E+02 -0.26435535619E+02  0.40322277193E+02  0.00000000000E+00 0.  1.
</event>
<event>
 5    1  0.1319298E-009  0.9118800E+02  0.7818608E-02  0.1130116E+00
         25   -1    0    0    0    0  0.00000000000E+00  0.00000000000E+00  0.99999998245E-14  0.12500000000E+03  0.12500000000E+03 0.  0.
        -13    1    3    3    0    0  0.32167444158E+02 -0.39183658166E+01 -0.38266338043E+02  0.50144011064E+02  0.10566000000E+00 0. -1.
         23    2    1    0    0    0  0.40201287297E+01  0.24142876199E+02 -0.16772493928E+02  0.95329198549E+02  0.90594147920E+02 0.  0.
         13    1    3    3    0    0 -0.28147315428E+02  0.28061242015E+02  0.21493844114E+02  0.45185187486E+02  0.10566000000E+00 0.  1.
         22    1    1    0    0    0 -0.40201287297E+01 -0.24142876199E+02  0.16772493928E+02  0.29670801451E+02  0.00000000000E+00 0.  1.
</event>
<event>
 5    1  0.1319298E-009  0.9118800E+02  0.7818608E-02  0.1130116E+00
         25   -1    0    0    0    0  0.00000000000E+00  0.00000000000E+00  0.99999998245E-14  0.12500000000E+03  0.12500000000E+03 0.  0.
        -13    1    3    3    0    0 -0.10663652397E+02  0.39322199611E+02  0.27194816475E+02  0.48984875950E+02  0.10566000000E+00 0. -1.
         23    2    1    0    0    0  0.23766018333E+02  0.10725107638E+02  0.12431824019E+02  0.96113985916E+02  0.91670586771E+02 0.  0.
         13    1    3    3    0    0  0.34429670730E+02 -0.28597091973E+02 -0.14762992456E+02  0.47129109966E+02  0.10566000000E+00 0.  1.
         22    1    1    0    0    0 -0.23766018333E+02 -0.10725107638E+02 -0.12431824019E+02  0.28886014084E+02  0.00000000000E+00 0.  1.
</event>
<event>
 5    1  0.1319298E-009  0.9118800E+02  0.7818608E-02  0.1130116E+00
         25   -1    0    0    0    0  0.00000000000E+00  0.00000000000E+00  0.99999998245E-14  0.12500000000E+03  0.12500000000E+03 0.  0.
        -13    1    3    3    0    0  0.46151007236E+02  0.91043332985E+01 -0.20387889233E+02  0.51268718973E+02  0.10566000000E+00 0. -1.
         23    2    1    0    0    0  0.62046072734E+01  0.26545259548E+02 -0.83749599784E+01  0.96481796856E+02  0.92170761167E+02 0.  0.
         13    1    3    3    0    0 -0.39946399963E+02  0.17440926250E+02  0.12012929254E+02  0.45213077884E+02  0.10566000000E+00 0.  1.
         22    1    1    0    0    0 -0.62046072734E+01 -0.26545259548E+02  0.83749599784E+01  0.28518203144E+02  0.00000000000E+00 0. -1.
</event>
<event>
 5    1  0.1319298E-009  0.9118800E+02  0.7818608E-02  0.1130116E+00
         25   -1    0    0    0    0  0.00000000000E+00  0.00000000000E+00  0.99999998245E-14  0.12500000000E+03  0.12500000000E+03 0.  0.
        -13    1    3    3    0    0  0.16943151322E+02  0.10214129213E+02 -0.28267514271E+02  0.34503077245E+02  0.10566000000E+00 0. -1.
         23    2    1    0    0    0  0.26817437461E+01 -0.84632984022E+01  0.28077524481E+02  0.95552308234E+02  0.90901468957E+02 0.  0.
         13    1    3    3    0    0 -0.14261407576E+02 -0.18677427615E+02  0.56345038752E+02  0.61049230989E+02  0.10566000000E+00 0.  1.
         22    1    1    0    0    0 -0.26817437461E+01  0.84632984022E+01 -0.28077524481E+02  0.29447691766E+02  0.00000000000E+00 0.  1.
</event>
<event>
 5    1  0.1319298E-009  0.9118800E+02  0.7818608E-02  0.1130116E+00
         25   -1    0    0    0    0  0.00000000000E+00  0.00000000000E+00  0.99999998245E-14  0.12500000000E+03  0.12500000000E+03 0.  0.
        -13    1    3    3    0    0  0.19570559050E+02 -0.29561296485E+02  0.48915546787E+02  0.60412075886E+02  0.10566000000E+00 0.  1.
         23    2    1    0    0    0 -0.15053370833E+01 -0.11915452686E+02  0.26587672356E+02  0.95825552725E+02  0.91276438259E+02 0.  0.
         13    1    3    3    0    0 -0.21075896134E+02  0.17645843798E+02 -0.22327874430E+02  0.35413476839E+02  0.10566000000E+00 0. -1.
         22    1    1    0    0    0  0.15053370833E+01  0.11915452686E+02 -0.26587672356E+02  0.29174447275E+02  0.00000000000E+00 0.  1.
</event>
<event>
 5    1  0.1319298E-009  0.9118800E+02  0.7818608E-02  0.1130116E+00
         25   -1    0    0    0    0  0.00000000000E+00  0.00000000000E+00  0.99999998245E-14  0.12500000000E+03  0.12500000000E+03 0.  0.
        -13    1    3    3    0    0 -0.55551648324E+02 -0.10114180385E+02 -0.16204316504E+02  0.58744134292E+02  0.10566000000E+00 0.  1.
         23    2    1    0    0    0 -0.21441263756E+02  0.87256363616E+01 -0.14367665316E+02  0.97754921032E+02  0.93881469194E+02 0.  0.
         13    1    3    3    0    0  0.34110384568E+02  0.18839816746E+02  0.18366511885E+01  0.39010786740E+02  0.10566000000E+00 0. -1.
         22    1    1    0    0    0  0.21441263756E+02 -0.87256363616E+01  0.14367665316E+02  0.27245078968E+02  0.00000000000E+00 0.  1.
</event>
<event>
 5    1  0.1319298E-009  0.9118800E+02  0.7818608E-02  0.1130116E+00
         25   -1    0    0    0    0  0.00000000000E+00  0.00000000000E+00  0.99999998245E-14  0.12500000000E+03  0.12500000000E+03 0.  0.
        -13    1    3    3    0    0 -0.50190664328E+00  0.71044493894E+01  0.31090432366E+02  0.31895944258E+02  0.10566000000E+00 0.  1.
         23    2    1    0    0    0 -0.27534268045E+02 -0.66439531560E+01 -0.19311354733E+02  0.90718715719E+02  0.83992136119E+02 0.  0.
         13    1    3    3    0    0 -0.27032361402E+02 -0.13748402545E+02 -0.50401787099E+02  0.58822771461E+02  0.10566000000E+00 0. -1.
         22    1    1    0    0    0  0.27534268045E+02  0.66439531560E+01  0.19311354733E+02  0.34281284281E+02  0.00000000000E+00 0. -1.
</event>
<event>
 5    1  0.1319298E-009  0.9118800E+02  0.7818608E-02  0.1130116E+00
         25   -1    0    0    0    0  0.00000000000E+00  0.00000000000E+00  0.99999998245E-14  0.12500000000E+03  0.12500000000E+03 0.  0.
        -13    1    3    3    0    0  0.17074634472E+02 -0.92968168942E+01 -0.52820497692E+02  0.56284901058E+02  0.10566000000E+00 0.  1.
         23    2    1    0    0    0 -0.31820594692E+01 -0.20021602466E+02 -0.18504573555E+02  0.97551697498E+02  0.93610492866E+02 0.  0.
         13    1    3    3    0    0 -0.20256693941E+02 -0.10724785572E+02  0.34315924137E+02  0.41266796440E+02  0.10566000000E+00 0. -1.
         22    1    1    0    0    0  0.31820594692E+01  0.20021602466E+02  0.18504573555E+02  0.27448302502E+02  0.00000000000E+00 0. -1.
</event>
<event>
 5    1  0.1319298E-009  0.9118800E+02  0.7818608E-02  0.1130116E+00
         25   -1    0    0    0    0  0.00000000000E+00  0.00000000000E+00  0.99999998245E-14  0.12500000000E+03  0.12500000000E+03 0.  0.
        -13    1    3    3    0    0 -0.22766197413E+02  0.16443235798E+02  0.39550735468E+02  0.48507232329E+02  0.10566000000E+00 0.  1.
         23    2    1    0    0    0  0.36240339352E+01  0.29162422275E+02  0.28371046119E+01  0.95476625235E+02  0.90797336463E+02 0.  0.
         13    1    3    3    0    0  0.26390231348E+02  0.12719186478E+02 -0.36713630856E+02  0.46969392906E+02  0.10566000000E+00 0. -1.
         22    1    1    0    0    0 -0.36240339352E+01 -0.29162422275E+02 -0.28371046119E+01  0.29523374765E+02  0.00000000000E+00 0. -1.
</event>
<event>
 5    1  0.1319298E-009  0.9118800E+02  0.7818608E-02  0.1130116E+00
         25   -1    0    0    0    0  0.00000000000E+00  0.00000000000E+00  0.99999998245E-14  0.12500000000E+03  0.12500000000E+03 0.  0.
        -13    1    3    3    0    0 -0.47125423082E+02 -0.22340978840E+02  0.55127627891E+01  0.52443555884E+02  0.10566000000E+00 0. -1.
         23    2    1    0    0    0 -0.21115166642E+02 -0.81063869256E+00 -0.20874969490E+02  0.95296940416E+02  0.90549627852E+02 0.  0.
         13    1    3    3    0    0  0.26010256440E+02  0.21530340148E+02 -0.26387732279E+02  0.42853384532E+02  0.10566000000E+00 0.  1.
         22    1    1    0    0    0  0.21115166642E+02  0.81063869256E+00  0.20874969490E+02  0.29703059584E+02  0.00000000000E+00 0.  1.
</event>
<event>
 5    1  0.1319298E-009  0.9118800E+02  0.7818608E-02  0.1130116E+00
         25   -1    0    0    0    0  0.00000000000E+00  0.00000000000E+00  0.99999998245E-14  0.12500000000E+03  0.12500000000E+03 0.  0.
        -13    1    3    3    0    0 -0.68826306135E+01 -0.58135033748E+02 -0.21884285458E+02  0.62497886901E+02  0.10566000000E+00 0.  1.
         23    2    1    0    0    0 -0.28035873269E+01 -0.26670312111E+02 -0.10101778774E+02  0.96343210501E+02  0.91982621322E+02 0.  0.
         13    1    3    3    0    0  0.40790432866E+01  0.31464721637E+02  0.11782506685E+02  0.33845323601E+02  0.10566000000E+00 0. -1.
         22    1    1    0    0    0  0.28035873269E+01  0.26670312111E+02  0.10101778774E+02  0.28656789499E+02  0.00000000000E+00 0.  1.
</event>
<event>
 5    1  0.1319298E-009  0.9118800E+02  0.7818608E-02  0.1130116E+00
         25   -1    0    0    0    0  0.00000000000E+00  0.00000000000E+00  0.99999998245E-14  0.12500000000E+03  0.12500000000E+03 0.  0.
        -13    1    3    3    0    0  0.35225890931E+02 -0.10677312173E+02 -0.18059425231E+02  0.41000273058E+02  0.10566000000E+00 0. -1.
         23    2    1    0    0    0  0.54325221360E+01 -0.28117368654E+01  0.27957291079E+02  0.96381329775E+02  0.92034409020E+02 0.  0.
         13    1    3    3    0    0 -0.29793368795E+02  0.78655753080E+01  0.46016716310E+02  0.55381056717E+02  0.10566000000E+00 0.  1.
         22    1    1    0    0    0 -0.54325221360E+01  0.28117368654E+01 -0.27957291079E+02  0.28618670225E+02  0.00000000000E+00 0.  1.
</event>
<event>
 5    1  0.1319298E-009  0.9118800E+02  0.7818608E-02  0.1130116E+00
         25   -1    0    0    0    0  0.00000000000E+00  0.00000000000E+00  0.99999998245E-14  0.12500000000E+03  0.12500000000E+03 0.  0.
        -13    1    3    3    0    0  0.50161285160E+02  0.25425902227E+01  0.36894520802E+02  0.62320431025E+02  0.10566000000E+00 0.  1.
         23    2    1    0    0    0  0.20503235307E+02  0.91785369206E+00  0.11062488876E+02  0.10168468800E+03  0.98975613160E+02 0.  0.
         13    1    3    3    0    0 -0.29658049853E+02 -0.16247365307E+01 -0.25832031926E+02  0.39364256976E+02  0.10566000000E+00 0. -1.
         22    1    1    0    0    0 -0.20503235307E+02 -0.91785369206E+00 -0.11062488876E+02  0.23315311998E+02  0.00000000000E+00 0.  1.
</event>
<event>
 5    1  0.1319298E-009  0.9118800E+02  0.7818608E-02  0.1130116E+00
         25   -1    0    0    0    0  0.00000000000E+00  0.00000000000E+00  0.99999998245E-14  0.12500000000E+03  0.12500000000E+03 0.  0.
        -13    1    3    3    0    0  0.18017909220E+02  0.60272692788E+01 -0.30605066899E+02  0.36022969222E+02  0.10566000000E+00 0.  1.
         23    2    1    0    0    0 -0.88671311788E+01  0.16845108942E+02  0.21892663637E+02  0.95988408666E+02  0.91499192164E+02 0.  0.
         13    1    3    3    0    0 -0.26885040399E+02  0.10817839663E+02  0.52497730536E+02  0.59965439444E+02  0.10566000000E+00 0. -1.
         22    1    1    0    0    0  0.88671311788E+01 -0.16845108942E+02 -0.21892663637E+02  0.29011591334E+02  0.00000000000E+00 0. -1.
</event>
<event>
 5    1  0.1319298E-009  0.9118800E+02  0.7818608E-02  0.1130116E+00
         25   -1    0    0    0    0  0.00000000000E+00  0.00000000000E+00  0.99999998245E-14  0.12500000000E+03  0.12500000000E+03 0.  0.
        -13    1    3    3    0    0 -0.56337613030E+02 -0.50317995919E+01  0.19900144309E+02  0.59960591697E+02  0.10566000000E+00 0. -1.
         23    2    1    0    0    0 -0.28306439113E+02  0.75042950330E+01  0.16768096151E+01  0.95667754439E+02  0.91060082416E+02 0.  0.
         13    1    3    3    0    0  0.28031173918E+02  0.12536094625E+02 -0.18223334694E+02  0.35707162742E+02  0.10566000000E+00 0.  1.
         22    1    1    0    0    0  0.28306439113E+02 -0.75042950330E+01 -0.16768096151E+01  0.29332245561E+02  0.00000000000E+00 0. -1.
</event>
<event>
 5    1  0.1319298E-009  0.9118800E+02  0.7818608E-02  0.1130116E+00
         25   -1    0    0    0    0  0.00000000000E+00  0.00000000000E+00  0.99999998245E-14  0.12500000000E+03  0.12500000000E+03 0.  0.
        -13    1    3    3    0    0 -0.28850746480E+02 -0.10236895593E+02 -0.18671659578E+02  0.35858076347E+02  0.10566000000E+00 0.  1.
         23    2    1    0    0    0  0.23227798199E+02 -0.22708412881E+02 -0.16870692298E+00  0.92515679370E+02  0.86625168643E+02 0.  0.
         13    1    3    3    0    0  0.52078544679E+02 -0.12471517288E+02  0.18502952655E+02  0.56657603023E+02  0.10566000000E+00 0. -1.
         22    1    1    0    0    0 -0.23227798199E+02  0.22708412881E+02  0.16870692298E+00  0.32484320630E+02  0.00000000000E+00 0. -1.
</event>
<event>
 5    1  0.1319298E-009  0.9118800E+02  0.7818608E-02  0.1130116E+00
         25   -1    0    0    0    0  0.00000000000E+00  0.00000000000E+00  0.99999998245E-14  0.12500000000E+03  0.12500000000E+03 0.  0.
        -13    1    3    3    0    0 -0.19597465586E+02  0.17781137774E+02 -0.39658340116E+02  0.47676247993E+02  0.10566000000E+00 0. -1.
         23    2    1    0    0    0 -0.16073582094E+02 -0.21552888157E+02 -0.15878222562E+02  0.93774930249E+02  0.88423597316E+02 0.  0.
         13    1    3    3    0    0  0.35238834922E+01 -0.39334025931E+02  0.23780117554E+02  0.46098682256E+02  0.10566000000E+00 0.  1.
         22    1    1    0    0    0  0.16073582094E+02  0.21552888157E+02  0.15878222562E+02  0.31225069751E+02  0.00000000000E+00 0.  1.
</event>
<event>
 5    1  0.1319298E-009  0.9118800E+02  0.7818608E-02  0.1130116E+00
         25   -1    0    0    0    0  0.00000000000E+00  0.00000000000E+00  0.99999998245E-14  0.12500000000E+03  0.12500000000E+03 0.  0.
        -13    1    3    3    0    0  0.11874482693E+02  0.19327511759E+02  0.16282865914E+02  0.27923089665E+02  0.10566000000E+00 0. -1.
         23    2    1    0    0    0 -0.76798705007E+01 -0.34496418144E+02 -0.55812568352E+01  0.89221043845E+02  0.81732863411E+02 0.  0.
         13    1    3    3    0    0 -0.19554353194E+02 -0.53823929903E+02 -0.21864122750E+02  0.61297954180E+02  0.10566000000E+00 0.  1.
         22    1    1    0    0    0  0.76798705007E+01  0.34496418144E+02  0.55812568352E+01  0.35778956155E+02  0.00000000000E+00 0.  1.
</event>
<event>
 5    1  0.1319298E-009  0.9118800E+02  0.7818608E-02  0.1130116E+00
         25   -1    0    0    0    0  0.00000000000E+00  0.00000000000E+00  0.99999998245E-14  0.12500000000E+03  0.12500000000E+03 0.  0.
        -13    1    3    3    0    0 -0.31234254671E+02  0.12543104628E+02  0.17665017684E+02  0.38012789327E+02  0.10566000000E+00 0.  1.
         23    2    1    0    0    0  0.27332194624E+01 -0.19216929794E+02 -0.19458024544E+02  0.97515902807E+02  0.93562683276E+02 0.  0.
         13    1    3    3    0    0  0.33967474134E+02 -0.31760034423E+02 -0.37123042228E+02  0.59503113480E+02  0.10566000000E+00 0. -1.
         22    1    1    0    0    0 -0.27332194624E+01  0.19216929794E+02  0.19458024544E+02  0.27484097193E+02  0.00000000000E+00 0. -1.
</event>
<event>
 5    1  0.1319298E-009  0.9118800E+02  0.7818608E-02  0.1130116E+00
         25   -1    0    0    0    0  0.00000000000E+00  0.00000000000E+00  0.99999998245E-14  0.12500000000E+03  0.12500000000E+03 0.  0.
        -13    1    3    3    0    0 -0.45671714187E+02  0.39045532132E+02 -0.41291275320E+01  0.60228896009E+02  0.10566000000E+00 0. -1.
         23    2    1    0    0    0 -0.18505765781E+02  0.23503547000E+02  0.83798546623E+01  0.93933908310E+02  0.88648051742E+02 0.  0.
         13    1    3    3    0    0  0.27165948406E+02 -0.15541985133E+02  0.12508982194E+02  0.33705012301E+02  0.10566000000E+00 0.  1.
         22    1    1    0    0    0  0.18505765781E+02 -0.23503547000E+02 -0.83798546623E+01  0.31066091690E+02  0.00000000000E+00 0. -1.
</event>
<event>
 5    1  0.1319298E-009  0.9118800E+02  0.7818608E-02  0.1130116E+00
         25   -1    0    0    0    0  0.00000000000E+00  0.00000000000E+00  0.99999998245E-14  0.12500000000E+03  0.12500000000E+03 0.  0.
        -13    1    3    3    0    0 -0.69351394084E+01  0.19451040243E+02 -0.25930100399E+02  0.33148459932E+02  0.10566000000E+00 0. -1.
         23    2    1    0    0    0  0.85302414262E+01 -0.30924011546E+02  0.21318441405E+01  0.92850283542E+02  0.87106663842E+02 0.  0.
         13    1    3    3    0    0  0.15465380835E+02 -0.50375051788E+02  0.28061944539E+02  0.59701823610E+02  0.10566000000E+00 0.  1.
         22    1    1    0    0    0 -0.85302414262E+01  0.30924011546E+02 -0.21318441405E+01  0.32149716458E+02  0.00000000000E+00 0.  1.
</event>
<event>
 5    1  0.1319298E-009  0.9118800E+02  0.7818608E-02  0.1130116E+00
         25   -1    0    0    0    0  0.00000000000E+00  0.00000000000E+00  0.99999998245E-14  0.12500000000E+03  0.12500000000E+03 0.  0.
        -13    1    3    3    0    0 -0.25042795809E+02 -0.37130079126E+01  0.25497541319E+02  0.35931376637E+02  0.10566000000E+00 0.  1.
         23    2    1    0    0    0  0.23965793473E+02  0.15984972114E+02 -0.31525458002E+01  0.96020401395E+02  0.91542888030E+02 0.  0.
         13    1    3    3    0    0  0.49008589281E+02  0.19697980026E+02 -0.28650087119E+02  0.60089024759E+02  0.10566000000E+00 0. -1.
         22    1    1    0    0    0 -0.23965793473E+02 -0.15984972114E+02  0.31525458002E+01  0.28979598605E+02  0.00000000000E+00 0. -1.
</event>
<event>
 5    1  0.1319298E-009  0.9118800E+02  0.7818608E-02  0.1130116E+00
         25   -1    0    0    0    0  0.00000000000E+00  0.00000000000E+00  0.99999998245E-14  0.12500000000E+03  0.12500000000E+03 0.  0.
        -13    1    3    3    0    0  0.29503926567E+01  0.33470027014E+02 -0.20049466072E+01  0.33659745990E+02  0.10566000000E+00 0.  1.
         23    2    1    0    0    0 -0.33698301407E+01 -0.28055301476E+02 -0.75349433421E+01  0.95755666065E+02  0.91180680609E+02 0.  0.
         13    1    3    3    0    0 -0.63202227973E+01 -0.61525328491E+02 -0.55299967349E+01  0.62095920076E+02  0.10566000000E+00 0. -1.
         22    1    1    0    0    0  0.33698301407E+01  0.28055301476E+02  0.75349433421E+01  0.29244333935E+02  0.00000000000E+00 0. -1.
</event>
<event>
 5    1  0.1319298E-009  0.9118800E+02  0.7818608E-02  0.1130116E+00
         25   -1    0    0    0    0  0.00000000000E+00  0.00000000000E+00  0.99999998245E-14  0.12500000000E+03  0.12500000000E+03 0.  0.
        -13    1    3    3    0    0 -0.38996253159E+02 -0.19790863917E+02  0.17464459486E+02  0.47089325374E+02  0.10566000000E+00 0.  1.
         23    2    1    0    0    0  0.94026482551E+01 -0.23867748810E+02  0.13980902841E+02  0.95784509730E+02  0.91220213946E+02 0.  0.
         13    1    3    3    0    0  0.48398901414E+02 -0.40768848937E+01 -0.34835566448E+01  0.48695184356E+02  0.10566000000E+00 0. -1.
         22    1    1    0    0    0 -0.94026482551E+01  0.23867748810E+02 -0.13980902841E+02  0.29215490270E+02  0.00000000000E+00 0.  1.
</event>
<event>
 5    1  0.1319298E-009  0.9118800E+02  0.7818608E-02  0.1130116E+00
         25   -1    0    0    0    0  0.00000000000E+00  0.00000000000E+00  0.99999998245E-14  0.12500000000E+03  0.12500000000E+03 0.  0.
        -13    1    3    3    0    0 -0.34880901541E+01 -0.62308530989E+01 -0.47723430167E+02  0.48254815866E+02  0.10566000000E+00 0. -1.
         23    2    1    0    0    0  0.25766298956E+02  0.52174305390E+01 -0.11215425491E+02  0.96418371070E+02  0.92084704308E+02 0.  0.
         13    1    3    3    0    0  0.29254389110E+02  0.11448283638E+02  0.36508004676E+02  0.48163555204E+02  0.10566000000E+00 0.  1.
         22    1    1    0    0    0 -0.25766298956E+02 -0.52174305390E+01  0.11215425491E+02  0.28581628930E+02  0.00000000000E+00 0.  1.
</event>
<event>
 5    1  0.1319298E-009  0.9118800E+02  0.7818608E-02  0.1130116E+00
         25   -1    0    0    0    0  0.00000000000E+00  0.00000000000E+00  0.99999998245E-14  0.12500000000E+03  0.12500000000E+03 0.  0.
        -13    1    3    3    0    0 -0.72283936957E+01 -0.48977314893E+02 -0.27733090272E+01  0.49585577102E+02  0.10566000000E+00 0. -1.
         23    2    1    0    0    0 -0.28452845396E+02 -0.91706237929E+01  0.24850602040E+01  0.95002662183E+02  0.90142473595E+02 0.  0.
         13    1    3    3    0    0 -0.21224451700E+02  0.39806691100E+02  0.52583692312E+01  0.45417085081E+02  0.10566000000E+00 0.  1.
         22    1    1    0    0    0  0.28452845396E+02  0.91706237929E+01 -0.24850602040E+01  0.29997337817E+02  0.00000000000E+00 0. -1.
</event>
<event>
 5    1  0.1319298E-009  0.9118800E+02  0.7818608E-02  0.1130116E+00
         25   -1    0    0    0    0  0.00000000000E+00  0.00000000000E+00  0.99999998245E-14  0.12500000000E+03  0.12500000000E+03 0.  0.
        -13    1    3    3    0    0 -0.41097181017E+02 -0.17608149918E+02  0.36660102430E+02  0.57818677824E+02  0.10566000000E+00 0.  1.
         23    2    1    0    0    0 -0.10171220192E+02 -0.22773895088E+02  0.16099483335E+02  0.95313346748E+02  0.90572273279E+02 0.  0.
         13    1    3    3    0    0  0.30925960825E+02 -0.51657451701E+01 -0.20560619095E+02  0.37494668924E+02  0.10566000000E+00 0. -1.
         22    1    1    0    0    0  0.10171220192E+02  0.22773895088E+02 -0.16099483335E+02  0.29686653252E+02  0.00000000000E+00 0.  1.
</event>
<event>
 5    1  0.1319298E-009  0.9118800E+02  0.7818608E-02  0.1130116E+00
         25   -1    0    0    0    0  0.00000000000E+00  0.00000000000E+00  0.99999998245E-14  0.12500000000E+03  0.12500000000E+03 0.  0.
        -13    1    3    3    0    0 -0.27991872184E+02  0.17786215535E+02 -0.33610512520E+02  0.47218344818E+02  0.10566000000E+00 0.  1.
         23    2    1    0    0    0  0.14404910369E+02 -0.15536163534E+01 -0.27099369567E+02  0.94270681793E+02  0.89121660938E+02 0.  0.
         13    1    3    3    0    0  0.42396782552E+02 -0.19339831889E+02  0.65111429530E+01  0.47052336975E+02  0.10566000000E+00 0. -1.
         22    1    1    0    0    0 -0.14404910369E+02  0.15536163534E+01  0.27099369567E+02  0.30729318207E+02  0.00000000000E+00 0.  1.
</event>
<event>
 5    1  0.1319298E-009  0.9118800E+02  0.7818608E-02  0.1130116E+00
         25   -1    0    0    0    0  0.00000000000E+00  0.00000000000E+00  0.99999998245E-14  0.12500000000E+03  0.12500000000E+03 0.  0.
        -13    1    3    3    0    0  0.62806109832E+01  0.21449870772E+02 -0.51299829575E+02  0.55957365099E+02  0.10566000000E+00 0. -1.
         23    2    1    0    0    0  0.20990196165E+02  0.10527725506E+02 -0.13624484457E+02  0.97851373588E+02  0.94009804792E+02 0.  0.
         13    1    3    3    0    0  0.14709585181E+02 -0.10922145266E+02  0.37675345118E+02  0.41894008488E+02  0.10566000000E+00 0.  1.
         22    1    1    0    0    0 -0.20990196165E+02 -0.10527725506E+02  0.13624484457E+02  0.27148626412E+02  0.00000000000E+00 0.  1.
</event>
<event>
 5    1  0.1319298E-009  0.9118800E+02  0.7818608E-02  0.1130116E+00
         25   -1    0    0    0    0  0.00000000000E+00  0.00000000000E+00  0.99999998245E-14  0.12500000000E+03  0.12500000000E+03 0.  0.
        -13    1    3    3    0    0 -0.34420564734E+02 -0.27158127321E+02 -0.18271452192E+02  0.47499434580E+02  0.10566000000E+00 0.  1.
         23    2    1    0    0    0 -0.97975421873E+01 -0.22467760791E+02  0.20078831247E+02  0.93314805159E+02  0.87770731396E+02 0.  0.
         13    1    3    3    0    0  0.24623022546E+02  0.46903665294E+01  0.38350283438E+02  0.45815370579E+02  0.10566000000E+00 0. -1.
         22    1    1    0    0    0  0.97975421873E+01  0.22467760791E+02 -0.20078831247E+02  0.31685194841E+02  0.00000000000E+00 0.  1.
</event>
<event>
 5    1  0.1319298E-009  0.9118800E+02  0.7818608E-02  0.1130116E+00
         25   -1    0    0    0    0  0.00000000000E+00  0.00000000000E+00  0.99999998245E-14  0.12500000000E+03  0.12500000000E+03 0.  0.
        -13    1    3    3    0    0 -0.15560033099E+02 -0.21909223973E+02 -0.26774912001E+02  0.37934625368E+02  0.10566000000E+00 0. -1.
         23    2    1    0    0    0  0.92760790967E+01  0.26439341171E+02 -0.47558142329E+01  0.96579898417E+02  0.92303708508E+02 0.  0.
         13    1    3    3    0    0  0.24836112196E+02  0.48348565143E+02  0.22019097768E+02  0.58645273049E+02  0.10566000000E+00 0.  1.
         22    1    1    0    0    0 -0.92760790967E+01 -0.26439341171E+02  0.47558142329E+01  0.28420101583E+02  0.00000000000E+00 0.  1.
</event>
<event>
 5    1  0.1319298E-009  0.9118800E+02  0.7818608E-02  0.1130116E+00
         25   -1    0    0    0    0  0.00000000000E+00  0.00000000000E+00  0.99999998245E-14  0.12500000000E+03  0.12500000000E+03 0.  0.
        -13    1    3    3    0    0 -0.18541182557E+02  0.17006638060E+02  0.24620067143E+02  0.35201705340E+02  0.10566000000E+00 0.  1.
         23    2    1    0    0    0  0.26189584195E+02  0.32554459693E+00 -0.12789049767E+02  0.95852785836E+02  0.91313725469E+02 0.  0.
         13    1    3    3    0    0  0.44730766752E+02 -0.16681093463E+02 -0.37409116910E+02  0.60651080496E+02  0.10566000000E+00 0. -1.
         22    1    1    0    0    0 -0.26189584195E+02 -0.32554459693E+00  0.12789049767E+02  0.29147214164E+02  0.00000000000E+00 0. -1.
</event>
<event>
 5    1  0.1319298E-009  0.9118800E+02  0.7818608E-02  0.1130116E+00
         25   -1    0    0    0    0  0.00000000000E+00  0.00000000000E+00  0.99999998245E-14  0.12500000000E+03  0.12500000000E+03 0.  0.
        -13    1    3    3    0    0 -0.51676246903E+02  0.11773870820E+02 -0.28051839339E+02  0.59966452141E+02  0.10566000000E+00 0. -1.
         23    2    1    0    0    0 -0.31024420193E+02  0.10454728827E+02 -0.35022079361E+01  0.92074607617E+02  0.85986347197E+02 0.  0.
         13    1    3    3    0    0  0.20651826710E+02 -0.13191419935E+01  0.24549631402E+02  0.32108155476E+02  0.10566000000E+00 0.  1.
         22    1    1    0    0    0  0.31024420193E+02 -0.10454728827E+02  0.35022079361E+01  0.32925392383E+02  0.00000000000E+00 0. -1.
</event>
<event>
 5    1  0.1319298E-009  0.9118800E+02  0.7818608E-02  0.1130116E+00
         25   -1    0    0    0    0  0.00000000000E+00  0.00000000000E+00  0.99999998245E-14  0.12500000000E+03  0.12500000000E+03 0.  0.
        -13    1    3    3    0    0 -0.49570833693E+01 -0.28805968324E+02 -0.14084596925E+02  0.32446009326E+02  0.10566000000E+00 0. -1.
         23    2    1    0    0    0  0.22011694660E+02  0.17174542207E+02  0.15142539767E+02  0.93238763997E+02  0.87662369345E+02 0.  0.
         13    1    3    3    0    0  0.26968778030E+02  0.45980510532E+02  0.29227136692E+02  0.60792754670E+02  0.10566000000E+00 0.  1.
         22    1    1    0    0    0 -0.22011694660E+02 -0.17174542207E+02 -0.15142539767E+02  0.31761236003E+02  0.00000000000E+00 0.  1.
</event>
<event>
 5    1  0.1319298E-009  0.9118800E+02  0.7818608E-02  0.1130116E+00
         25   -1    0    0    0    0  0.00000000000E+00  0.00000000000E+00  0.99999998245E-14  0.12500000000E+03  0.12500000000E+03 0.  0.
        -13    1    3    3    0    0 -0.69619903045E+01  0.26520036645E+02  0.29446834867E+02  0.40235667018E+02  0.10566000000E+00 0. -1.
         23    2    1    0    0    0 -0.42290735561E+01 -0.26231692016E+02  0.11791210815E+02  0.95930782920E+02  0.91420433875E+02 0.  0.
         13    1    3    3    0    0  0.27329167484E+01 -0.52751728661E+02 -0.17655624051E+02  0.55695115902E+02  0.10566000000E+00 0.  1.
         22    1    1    0    0    0  0.42290735561E+01  0.26231692016E+02 -0.11791210815E+02  0.29069217080E+02  0.00000000000E+00 0. -1.
</event>
<event>
 5    1  0.1319298E-009  0.9118800E+02  0.7818608E-02  0.1130116E+00
         25   -1    0    0    0    0  0.00000000000E+00  0.00000000000E+00  0.99999998245E-14  0.12500000000E+03  0.12500000000E+03 0.  0.
        -13    1    3    3    0    0 -0.25998283952E+02  0.64924002210E+00 -0.27751866326E+02  0.38033005794E+02  0.10566000000E+00 0.  1.
         23    2    1    0    0    0  0.13294536550E+02 -0.27037248605E+02  0.24014781516E+01  0.94775430334E+02  0.89826819957E+02 0.  0.
         13    1    3    3    0    0  0.39292820502E+02 -0.27686488627E+02  0.30153344478E+02  0.56742424540E+02  0.10566000000E+00 0. -1.
         22    1    1    0    0    0 -0.13294536550E+02  0.27037248605E+02 -0.24014781516E+01  0.30224569666E+02  0.00000000000E+00 0. -1.
</event>
<event>
 5    1  0.1319298E-009  0.9118800E+02  0.7818608E-02  0.1130116E+00
         25   -1    0    0    0    0  0.00000000000E+00  0.00000000000E+00  0.99999998245E-14  0.12500000000E+03  0.12500000000E+03 0.  0.
        -13    1    3    3    0    0  0.41350692809E+01 -0.15375865639E+02  0.47690558021E+02  0.50278390293E+02  0.10566000000E+00 0.  1.
         23    2    1    0    0    0 -0.23391789411E+02  0.39367763061E+01  0.16871736735E+02  0.95891074908E+02  0.91366124615E+02 0.  0.
         13    1    3    3    0    0 -0.27526858692E+02  0.19312641946E+02 -0.30818821286E+02  0.45612684615E+02  0.10566000000E+00 0. -1.
         22    1    1    0    0    0  0.23391789411E+02 -0.39367763061E+01 -0.16871736735E+02  0.29108925092E+02  0.00000000000E+00 0.  1.
</event>
<event>
 5    1  0.1319298E-009  0.9118800E+02  0.7818608E-02  0.1130116E+00
         25   -1    0    0    0    0  0.00000000000E+00  0.00000000000E+00  0.99999998245E-14  0.12500000000E+03  0.12500000000E+03 0.  0.
        -13    1    3    3    0    0 -0.10714987641E+02  0.26649694795E+02 -0.47024493809E+02  0.55102916210E+02  0.10566000000E+00 0.  1.
         23    2    1    0    0    0 -0.56865972979E+01 -0.78384389868E+01 -0.29173209467E+02  0.94261511664E+02  0.89108798196E+02 0.  0.
         13    1    3    3    0    0  0.50283903432E+01 -0.34488133782E+02  0.17851284341E+02  0.39158595453E+02  0.10566000000E+00 0. -1.
         22    1    1    0    0    0  0.56865972979E+01  0.78384389868E+01  0.29173209467E+02  0.30738488336E+02  0.00000000000E+00 0.  1.
</event>
<event>
 5    1  0.1319298E-009  0.9118800E+02  0.7818608E-02  0.1130116E+00
         25   -1    0    0    0    0  0.00000000000E+00  0.00000000000E+00  0.99999998245E-14  0.12500000000E+03  0.12500000000E+03 0.  0.
        -13    1    3    3    0    0 -0.31193031145E+02 -0.18552709911E+02  0.72074962033E+01  0.37002262129E+02  0.10566000000E+00 0. -1.
         23    2    1    0    0    0  0.23369359531E+01  0.28165904070E+02 -0.62340356268E+01  0.96057943717E+02  0.91594136980E+02 0.  0.
         13    1    3    3    0    0  0.33529967098E+02  0.46718613980E+02 -0.13441531830E+02  0.59055681588E+02  0.10566000000E+00 0.  1.
         22    1    1    0    0    0 -0.23369359531E+01 -0.28165904070E+02  0.62340356268E+01  0.28942056283E+02  0.00000000000E+00 0.  1.
</event>
<event>
 5    1  0.1319298E-009  0.9118800E+02  0.7818608E-02  0.1130116E+00
         25   -1    0    0    0    0  0.00000000000E+00  0.00000000000E+00  0.99999998245E-14  0.12500000000E+03  0.12500000000E+03 0.  0.
        -13    1    3    3    0    0  0.47196191033E+02 -0.40335302417E+02 -0.24309365146E+01  0.62131615828E+02  0.10566000000E+00 0.  1.
         23    2    1    0    0    0  0.23987211211E+02 -0.14379578967E+02 -0.21288602096E+01  0.96951994033E+02  0.92806241752E+02 0.  0.
         13    1    3    3    0    0 -0.23208979822E+02  0.25955723450E+02  0.30207630501E+00  0.34820378205E+02  0.10566000000E+00 0. -1.
         22    1    1    0    0    0 -0.23987211211E+02  0.14379578967E+02  0.21288602096E+01  0.28048005967E+02  0.00000000000E+00 0.  1.
</event>
<event>
 5    1  0.1319298E-009  0.9118800E+02  0.7818608E-02  0.1130116E+00
         25   -1    0    0    0    0  0.00000000000E+00  0.00000000000E+00  0.99999998245E-14  0.12500000000E+03  0.12500000000E+03 0.  0.
        -13    1    3    3    0    0 -0.22721251126E+02  0.44179055896E+02 -0.34692590385E+02  0.60593986701E+02  0.10566000000E+00 0. -1.
         23    2    1    0    0    0 -0.13990364020E+02  0.12718495732E+02 -0.22888552884E+02  0.95312018051E+02  0.90570439509E+02 0.  0.
         13    1    3    3    0    0  0.87308871062E+01 -0.31460560164E+02  0.11804037502E+02  0.34718031351E+02  0.10566000000E+00 0.  1.
         22    1    1    0    0    0  0.13990364020E+02 -0.12718495732E+02  0.22888552884E+02  0.29687981949E+02  0.00000000000E+00 0. -1.
</event>
<event>
 5    1  0.1319298E-009  0.9118800E+02  0.7818608E-02  0.1130116E+00
         25   -1    0    0    0    0  0.00000000000E+00  0.00000000000E+00  0.99999998245E-14  0.12500000000E+03  0.12500000000E+03 0.  0.
        -13    1    3    3    0    0  0.36730201184E+02 -0.14748990550E+02 -0.47469151788E+02  0.61805921535E+02  0.10566000000E+00 0.  1.
         23    2    1    0    0    0  0.21808688148E+02 -0.56490972105E+01 -0.17604522575E+02  0.96408910599E+02  0.92071861336E+02 0.  0.
         13    1    3    3    0    0 -0.14921513036E+02  0.90998933395E+01  0.29864629214E+02  0.34602989064E+02  0.10566000000E+00 0. -1.
         22    1    1    0    0    0 -0.21808688148E+02  0.56490972105E+01  0.17604522575E+02  0.28591089401E+02  0.00000000000E+00 0.  1.
</event>
<event>
 5    1  0.1319298E-009  0.9118800E+02  0.7818608E-02  0.1130116E+00
         25   -1    0    0    0    0  0.00000000000E+00  0.00000000000E+00  0.99999998245E-14  0.12500000000E+03  0.12500000000E+03 0.  0.
        -13    1    3    3    0    0 -0.27408608333E+02  0.15842639841E+02 -0.37119838448E+02  0.48786418380E+02  0.10566000000E+00 0. -1.
         23    2    1    0    0    0 -0.14209500373E+02  0.30268383579E+02  0.91143031270E+00  0.91549803430E+02  0.85220014419E+02 0.  0.
         13    1    3    3    0    0  0.13199107960E+02  0.14425743738E+02  0.38031268761E+02  0.42763385050E+02  0.10566000000E+00 0.  1.
         22    1    1    0    0    0  0.14209500373E+02 -0.30268383579E+02 -0.91143031270E+00  0.33450196570E+02  0.00000000000E+00 0. -1.
</event>
<event>
 5    1  0.1319298E-009  0.9118800E+02  0.7818608E-02  0.1130116E+00
         25   -1    0    0    0    0  0.00000000000E+00  0.00000000000E+00  0.99999998245E-14  0.12500000000E+03  0.12500000000E+03 0.  0.
        -13    1    3    3    0    0 -0.25176587404E+01  0.25092899928E+02 -0.46794806211E+02  0.53157852521E+02  0.10566000000E+00 0.  1.
         23    2    1    0    0    0  0.21825158416E+02  0.12654811318E+02 -0.13018332573E+02  0.96610586967E+02  0.92345258361E+02 0.  0.
         13    1    3    3    0    0  0.24342817156E+02 -0.12438088610E+02  0.33776473638E+02  0.43452734446E+02  0.10566000000E+00 0. -1.
         22    1    1    0    0    0 -0.21825158416E+02 -0.12654811318E+02  0.13018332573E+02  0.28389413033E+02  0.00000000000E+00 0.  1.
</event>
<event>
 5    1  0.1319298E-009  0.9118800E+02  0.7818608E-02  0.1130116E+00
         25   -1    0    0    0    0  0.00000000000E+00  0.00000000000E+00  0.99999998245E-14  0.12500000000E+03  0.12500000000E+03 0.  0.
        -13    1    3    3    0    0  0.18761782832E+02  0.12515558514E+02 -0.55211069530E+02  0.59639894892E+02  0.10566000000E+00 0.  1.
         23    2    1    0    0    0  0.62881892899E+01  0.18784626302E+02 -0.23655937304E+02  0.94145391275E+02  0.88945757733E+02 0.  0.
         13    1    3    3    0    0 -0.12473593543E+02  0.62690677878E+01  0.31555132226E+02  0.34505496383E+02  0.10566000000E+00 0. -1.
         22    1    1    0    0    0 -0.62881892899E+01 -0.18784626302E+02  0.23655937304E+02  0.30854608725E+02  0.00000000000E+00 0.  1.
</event>
<event>
 5    1  0.1319298E-009  0.9118800E+02  0.7818608E-02  0.1130116E+00
         25   -1    0    0    0    0  0.00000000000E+00  0.00000000000E+00  0.99999998245E-14  0.12500000000E+03  0.12500000000E+03 0.  0.
        -13    1    3    3    0    0  0.16636926326E+02 -0.76645633232E+01 -0.33351897179E+02  0.38051189968E+02  0.10566000000E+00 0.  1.
         23    2    1    0    0    0  0.98485059977E+01  0.15429000809E+02  0.20788529952E+02  0.97301442025E+02  0.93275723027E+02 0.  0.
         13    1    3    3    0    0 -0.67884203279E+01  0.23093564133E+02  0.54140427130E+02  0.59250252057E+02  0.10566000000E+00 0. -1.
         22    1    1    0    0    0 -0.98485059977E+01 -0.15429000809E+02 -0.20788529952E+02  0.27698557975E+02  0.00000000000E+00 0. -1.
</event>
<event>
 5    1  0.1319298E-009  0.9118800E+02  0.7818608E-02  0.1130116E+00
         25   -1    0    0    0    0  0.00000000000E+00  0.00000000000E+00  0.99999998245E-14  0.12500000000E+03  0.12500000000E+03 0.  0.
        -13    1    3    3    0    0 -0.12683069216E+02  0.35462841376E+02  0.44608595673E+02  0.58381600998E+02  0.10566000000E+00 0.  1.
         23    2    1    0    0    0  0.10022850544E+02  0.17945592350E+02  0.21928624495E+02  0.94943945867E+02  0.90061015244E+02 0.  0.
         13    1    3    3    0    0  0.22705919760E+02 -0.17517249027E+02 -0.22679971178E+02  0.36562344868E+02  0.10566000000E+00 0. -1.
         22    1    1    0    0    0 -0.10022850544E+02 -0.17945592350E+02 -0.21928624495E+02  0.30056054133E+02  0.00000000000E+00 0.  1.
</event>
<event>
 5    1  0.1319298E-009  0.9118800E+02  0.7818608E-02  0.1130116E+00
         25   -1    0    0    0    0  0.00000000000E+00  0.00000000000E+00  0.99999998245E-14  0.12500000000E+03  0.12500000000E+03 0.  0.
        -13    1    3    3    0    0  0.24063105484E+02  0.43762698995E+02  0.35809878421E+02  0.61453766568E+02  0.10566000000E+00 0.  1.
         23    2    1    0    0    0  0.24523175135E+02  0.32597026974E+02  0.24192195018E+02  0.77574114810E+02  0.61388343376E+02 0.  0.
         13    1    3    3    0    0  0.46006965072E+00 -0.11165672020E+02 -0.11617683403E+02  0.16120348242E+02  0.10566000000E+00 0. -1.
         22    1    1    0    0    0 -0.24523175135E+02 -0.32597026974E+02 -0.24192195018E+02  0.47425885190E+02  0.00000000000E+00 0.  1.
</event>
<event>
 5    1  0.1319298E-009  0.9118800E+02  0.7818608E-02  0.1130116E+00
         25   -1    0    0    0    0  0.00000000000E+00  0.00000000000E+00  0.99999998245E-14  0.12500000000E+03  0.12500000000E+03 0.  0.
        -13    1    3    3    0    0 -0.44203024043E+02 -0.32480114928E+01  0.14838453714E+02  0.46740215937E+02  0.10566000000E+00 0. -1.
         23    2    1    0    0    0 -0.19492157058E+02  0.11936466541E+02 -0.21762784274E+02  0.93439863758E+02  0.87948655131E+02 0.  0.
         13    1    3    3    0    0  0.24710866985E+02  0.15184478034E+02 -0.36601237988E+02  0.46699647821E+02  0.10566000000E+00 0.  1.
         22    1    1    0    0    0  0.19492157058E+02 -0.11936466541E+02  0.21762784274E+02  0.31560136242E+02  0.00000000000E+00 0. -1.
</event>
<event>
 5    1  0.1319298E-009  0.9118800E+02  0.7818608E-02  0.1130116E+00
         25   -1    0    0    0    0  0.00000000000E+00  0.00000000000E+00  0.99999998245E-14  0.12500000000E+03  0.12500000000E+03 0.  0.
        -13    1    3    3    0    0 -0.52468801808E+02  0.22085108331E+02 -0.73701286001E+00  0.56932253822E+02  0.10566000000E+00 0. -1.
         23    2    1    0    0    0 -0.28826814044E+02 -0.77587122880E+01 -0.24692905501E+01  0.95045363963E+02  0.90201668448E+02 0.  0.
         13    1    3    3    0    0  0.23641987765E+02 -0.29843820619E+02 -0.17322776901E+01  0.38113110142E+02  0.10566000000E+00 0.  1.
         22    1    1    0    0    0  0.28826814044E+02  0.77587122880E+01  0.24692905501E+01  0.29954636037E+02  0.00000000000E+00 0. -1.
</event>
<event>
 5    1  0.1319298E-009  0.9118800E+02  0.7818608E-02  0.1130116E+00
         25   -1    0    0    0    0  0.00000000000E+00  0.00000000000E+00  0.99999998245E-14  0.12500000000E+03  0.12500000000E+03 0.  0.
        -13    1    3    3    0    0 -0.90884509618E+01  0.60551318155E+02  0.49272924458E+00  0.61231658620E+02  0.10566000000E+00 0.  1.
         23    2    1    0    0    0  0.37356642480E+00  0.28908240253E+02 -0.73331697148E+01  0.95173815456E+02  0.90379499136E+02 0.  0.
         13    1    3    3    0    0  0.94620173866E+01 -0.31643077902E+02 -0.78258989593E+01  0.33942156836E+02  0.10566000000E+00 0. -1.
         22    1    1    0    0    0 -0.37356642480E+00 -0.28908240253E+02  0.73331697148E+01  0.29826184544E+02  0.00000000000E+00 0.  1.
</event>
<event>
 5    1  0.1319298E-009  0.9118800E+02  0.7818608E-02  0.1130116E+00
         25   -1    0    0    0    0  0.00000000000E+00  0.00000000000E+00  0.99999998245E-14  0.12500000000E+03  0.12500000000E+03 0.  0.
        -13    1    3    3    0    0 -0.12332423064E+02  0.46039535013E+02 -0.16724018280E+02  0.50511695619E+02  0.10566000000E+00 0. -1.
         23    2    1    0    0    0 -0.30112559902E+02  0.11502648556E+02 -0.15134215764E+02  0.89389303932E+02  0.81989791944E+02 0.  0.
         13    1    3    3    0    0 -0.17780136838E+02 -0.34536886457E+02  0.15898025163E+01  0.38877608313E+02  0.10566000000E+00 0.  1.
         22    1    1    0    0    0  0.30112559902E+02 -0.11502648556E+02  0.15134215764E+02  0.35610696068E+02  0.00000000000E+00 0. -1.
</event>
<event>
 5    1  0.1319298E-009  0.9118800E+02  0.7818608E-02  0.1130116E+00
         25   -1    0    0    0    0  0.00000000000E+00  0.00000000000E+00  0.99999998245E-14  0.12500000000E+03  0.12500000000E+03 0.  0.
        -13    1    3    3    0    0  0.25377378568E+02  0.24382729150E+02 -0.39414389748E+02  0.52839701996E+02  0.10566000000E+00 0. -1.
         23    2    1    0    0    0  0.28223966633E+02  0.64628486223E+01 -0.20411048781E+00  0.96044821432E+02  0.91576227035E+02 0.  0.
         13    1    3    3    0    0  0.28465880650E+01 -0.17919880528E+02  0.39210279260E+02  0.43205119436E+02  0.10566000000E+00 0.  1.
         22    1    1    0    0    0 -0.28223966633E+02 -0.64628486223E+01  0.20411048781E+00  0.28955178568E+02  0.00000000000E+00 0. -1.
</event>
<event>
 5    1  0.1319298E-009  0.9118800E+02  0.7818608E-02  0.1130116E+00
         25   -1    0    0    0    0  0.00000000000E+00  0.00000000000E+00  0.99999998245E-14  0.12500000000E+03  0.12500000000E+03 0.  0.
        -13    1    3    3    0    0  0.39875741325E+02 -0.76804058522E+01 -0.11614551686E+02  0.42237096907E+02  0.10566000000E+00 0. -1.
         23    2    1    0    0    0  0.54335866477E+01  0.28314898750E+02  0.68466650839E+01  0.95366671165E+02  0.90645837143E+02 0.  0.
         13    1    3    3    0    0 -0.34442154677E+02  0.35995304602E+02  0.18461216770E+02  0.53129574258E+02  0.10566000000E+00 0.  1.
         22    1    1    0    0    0 -0.54335866477E+01 -0.28314898750E+02 -0.68466650839E+01  0.29633328835E+02  0.00000000000E+00 0.  1.
</event>
<event>
 5    1  0.1319298E-009  0.9118800E+02  0.7818608E-02  0.1130116E+00
         25   -1    0    0    0    0  0.00000000000E+00  0.00000000000E+00  0.99999998245E-14  0.12500000000E+03  0.12500000000E+03 0.  0.
        -13    1    3    3    0    0  0.19644936019E+02 -0.38678967073E+02 -0.23779551248E+01  0.43447115435E+02  0.10566000000E+00 0. -1.
         23    2    1    0    0    0  0.21625151627E+02  0.10640003268E+02 -0.17664304882E+02  0.95118826673E+02  0.90303414488E+02 0.  0.
         13    1    3    3    0    0  0.19802156076E+01  0.49318970341E+02 -0.15286349757E+02  0.51671711238E+02  0.10566000000E+00 0.  1.
         22    1    1    0    0    0 -0.21625151627E+02 -0.10640003268E+02  0.17664304882E+02  0.29881173327E+02  0.00000000000E+00 0.  1.
</event>
<event>
 5    1  0.1319298E-009  0.9118800E+02  0.7818608E-02  0.1130116E+00
         25   -1    0    0    0    0  0.00000000000E+00  0.00000000000E+00  0.99999998245E-14  0.12500000000E+03  0.12500000000E+03 0.  0.
        -13    1    3    3    0    0 -0.68094964848E+01  0.16487901597E+02 -0.49366674800E+02  0.52490950518E+02  0.10566000000E+00 0.  1.
         23    2    1    0    0    0 -0.13443030497E+02 -0.15429346840E+02 -0.20496295725E+02  0.96036610156E+02  0.91565018096E+02 0.  0.
         13    1    3    3    0    0 -0.66335340118E+01 -0.31917248436E+02  0.28870379075E+02  0.43545659637E+02  0.10566000000E+00 0. -1.
         22    1    1    0    0    0  0.13443030497E+02  0.15429346840E+02  0.20496295725E+02  0.28963389844E+02  0.00000000000E+00 0. -1.
</event>
<event>
 5    1  0.1319298E-009  0.9118800E+02  0.7818608E-02  0.1130116E+00
         25   -1    0    0    0    0  0.00000000000E+00  0.00000000000E+00  0.99999998245E-14  0.12500000000E+03  0.12500000000E+03 0.  0.
        -13    1    3    3    0    0  0.50066070466E+02 -0.10655534163E+02  0.15128610189E+02  0.53376378956E+02  0.10566000000E+00 0.  1.
         23    2    1    0    0    0  0.85228934266E+01  0.30087885323E+01  0.25177882231E+02  0.98248957507E+02  0.94536973597E+02 0.  0.
         13    1    3    3    0    0 -0.41543177039E+02  0.13664322695E+02  0.10049272042E+02  0.44872578551E+02  0.10566000000E+00 0. -1.
         22    1    1    0    0    0 -0.85228934266E+01 -0.30087885323E+01 -0.25177882231E+02  0.26751042493E+02  0.00000000000E+00 0.  1.
</event>
<event>
 5    1  0.1319298E-009  0.9118800E+02  0.7818608E-02  0.1130116E+00
         25   -1    0    0    0    0  0.00000000000E+00  0.00000000000E+00  0.99999998245E-14  0.12500000000E+03  0.12500000000E+03 0.  0.
        -13    1    3    3    0    0  0.45521737544E+02  0.32433509095E+02  0.88638981470E+01  0.56592764163E+02  0.10566000000E+00 0. -1.
         23    2    1    0    0    0  0.28610631538E+02  0.10732069320E+01 -0.68932511451E+01  0.95551113409E+02  0.90899825920E+02 0.  0.
         13    1    3    3    0    0 -0.16911106006E+02 -0.31360302163E+02 -0.15757149292E+02  0.38958349246E+02  0.10566000000E+00 0.  1.
         22    1    1    0    0    0 -0.28610631538E+02 -0.10732069320E+01  0.68932511451E+01  0.29448886591E+02  0.00000000000E+00 0. -1.
</event>
<event>
 5    1  0.1319298E-009  0.9118800E+02  0.7818608E-02  0.1130116E+00
         25   -1    0    0    0    0  0.00000000000E+00  0.00000000000E+00  0.99999998245E-14  0.12500000000E+03  0.12500000000E+03 0.  0.
        -13    1    3    3    0    0 -0.29345997750E+02 -0.51695820101E+02  0.60859313089E+01  0.59755293688E+02  0.10566000000E+00 0.  1.
         23    2    1    0    0    0 -0.24820157764E+02 -0.17268377506E+02  0.27830213903E+01  0.94635838540E+02  0.89632358192E+02 0.  0.
         13    1    3    3    0    0  0.45258399867E+01  0.34427442595E+02 -0.33029099186E+01  0.34880544852E+02  0.10566000000E+00 0. -1.
         22    1    1    0    0    0  0.24820157764E+02  0.17268377506E+02 -0.27830213903E+01  0.30364161460E+02  0.00000000000E+00 0.  1.
</event>
<event>
 5    1  0.1319298E-009  0.9118800E+02  0.7818608E-02  0.1130116E+00
         25   -1    0    0    0    0  0.00000000000E+00  0.00000000000E+00  0.99999998245E-14  0.12500000000E+03  0.12500000000E+03 0.  0.
        -13    1    3    3    0    0  0.33130766542E+02  0.17385657895E+02 -0.12239048538E+02  0.39366410368E+02  0.10566000000E+00 0. -1.
         23    2    1    0    0    0 -0.17796500537E+01 -0.26580432070E+02  0.45733390865E+01  0.97970350469E+02  0.94167869347E+02 0.  0.
         13    1    3    3    0    0 -0.34910416595E+02 -0.43966089966E+02  0.16812387625E+02  0.58603940101E+02  0.10566000000E+00 0.  1.
         22    1    1    0    0    0  0.17796500537E+01  0.26580432070E+02 -0.45733390865E+01  0.27029649531E+02  0.00000000000E+00 0.  1.
</event>
<event>
 5    1  0.1319298E-009  0.9118800E+02  0.7818608E-02  0.1130116E+00
         25   -1    0    0    0    0  0.00000000000E+00  0.00000000000E+00  0.99999998245E-14  0.12500000000E+03  0.12500000000E+03 0.  0.
        -13    1    3    3    0    0  0.44508802104E+02  0.18878612621E+02  0.26606407312E+02  0.55184667738E+02  0.10566000000E+00 0.  1.
         23    2    1    0    0    0  0.10751754957E+02 -0.25047136152E+01  0.27722568942E+02  0.95160183417E+02  0.90360643282E+02 0.  0.
         13    1    3    3    0    0 -0.33757047148E+02 -0.21383326236E+02  0.11161616301E+01  0.39975515680E+02  0.10566000000E+00 0. -1.
         22    1    1    0    0    0 -0.10751754957E+02  0.25047136152E+01 -0.27722568942E+02  0.29839816583E+02  0.00000000000E+00 0.  1.
</event>
<event>
 5    1  0.1319298E-009  0.9118800E+02  0.7818608E-02  0.1130116E+00
         25   -1    0    0    0    0  0.00000000000E+00  0.00000000000E+00  0.99999998245E-14  0.12500000000E+03  0.12500000000E+03 0.  0.
        -13    1    3    3    0    0 -0.28038593685E+02  0.44856592171E+02 -0.39293647657E+01  0.53044581896E+02  0.10566000000E+00 0.  1.
         23    2    1    0    0    0 -0.29511166172E+02  0.33774396923E+01  0.30771617115E+01  0.95137231342E+02  0.90328887050E+02 0.  0.
         13    1    3    3    0    0 -0.14725724865E+01 -0.41479152479E+02  0.70065264772E+01  0.42092649446E+02  0.10566000000E+00 0. -1.
         22    1    1    0    0    0  0.29511166172E+02 -0.33774396923E+01 -0.30771617115E+01  0.29862768658E+02  0.00000000000E+00 0.  1.
</event>
<event>
 5    1  0.1319298E-009  0.9118800E+02  0.7818608E-02  0.1130116E+00
         25   -1    0    0    0    0  0.00000000000E+00  0.00000000000E+00  0.99999998245E-14  0.12500000000E+03  0.12500000000E+03 0.  0.
        -13    1    3    3    0    0 -0.19749093341E+02  0.39910233006E+02  0.33749929670E+01  0.44657083737E+02  0.10566000000E+00 0.  1.
         23    2    1    0    0    0 -0.21587016970E+02 -0.83171109153E+01  0.18656044319E+02  0.95280955175E+02  0.90527558201E+02 0.  0.
         13    1    3    3    0    0 -0.18379236289E+01 -0.48227343921E+02  0.15281051352E+02  0.50623871438E+02  0.10566000000E+00 0. -1.
         22    1    1    0    0    0  0.21587016970E+02  0.83171109153E+01 -0.18656044319E+02  0.29719044825E+02  0.00000000000E+00 0. -1.
</event>
<event>
 5    1  0.1319298E-009  0.9118800E+02  0.7818608E-02  0.1130116E+00
         25   -1    0    0    0    0  0.00000000000E+00  0.00000000000E+00  0.99999998245E-14  0.12500000000E+03  0.12500000000E+03 0.  0.
        -13    1    3    3    0    0 -0.20510769475E+02 -0.29066348378E+02 -0.98074245767E+01  0.36901775206E+02  0.10566000000E+00 0. -1.
         23    2    1    0    0    0  0.20276248026E+02  0.19487196356E+01  0.20225610181E+02  0.96294616369E+02  0.91916560489E+02 0.  0.
         13    1    3    3    0    0  0.40787017501E+02  0.31015068014E+02  0.30033034757E+02  0.59392841162E+02  0.10566000000E+00 0.  1.
         22    1    1    0    0    0 -0.20276248026E+02 -0.19487196356E+01 -0.20225610181E+02  0.28705383631E+02  0.00000000000E+00 0.  1.
</event>
<event>
 5    1  0.1319298E-009  0.9118800E+02  0.7818608E-02  0.1130116E+00
         25   -1    0    0    0    0  0.00000000000E+00  0.00000000000E+00  0.99999998245E-14  0.12500000000E+03  0.12500000000E+03 0.  0.
        -13    1    3    3    0    0 -0.13987718510E+02 -0.24451339387E+02 -0.23086562710E+02  0.36421488283E+02  0.10566000000E+00 0.  1.
         23    2    1    0    0    0 -0.50498073827E+01  0.17532226897E+02  0.20473216589E+02  0.97576795737E+02  0.93644001058E+02 0.  0.
         13    1    3    3    0    0  0.89379111272E+01  0.41983566284E+02  0.43559779299E+02  0.61155307454E+02  0.10566000000E+00 0. -1.
         22    1    1    0    0    0  0.50498073827E+01 -0.17532226897E+02 -0.20473216589E+02  0.27423204263E+02  0.00000000000E+00 0. -1.
</event>
<event>
 5    1  0.1319298E-009  0.9118800E+02  0.7818608E-02  0.1130116E+00
         25   -1    0    0    0    0  0.00000000000E+00  0.00000000000E+00  0.99999998245E-14  0.12500000000E+03  0.12500000000E+03 0.  0.
        -13    1    3    3    0    0  0.26060227446E+02 -0.20634860701E+02  0.27553168867E+01  0.33354697809E+02  0.10566000000E+00 0. -1.
         23    2    1    0    0    0 -0.22141047298E+02  0.15875361398E+02 -0.11415244684E+02  0.95460858405E+02  0.90775627793E+02 0.  0.
         13    1    3    3    0    0 -0.48201274745E+02  0.36510222099E+02 -0.14170561571E+02  0.62106160596E+02  0.10566000000E+00 0.  1.
         22    1    1    0    0    0  0.22141047298E+02 -0.15875361398E+02  0.11415244684E+02  0.29539141595E+02  0.00000000000E+00 0.  1.
</event>
<event>
 5    1  0.1319298E-009  0.9118800E+02  0.7818608E-02  0.1130116E+00
         25   -1    0    0    0    0  0.00000000000E+00  0.00000000000E+00  0.99999998245E-14  0.12500000000E+03  0.12500000000E+03 0.  0.
        -13    1    3    3    0    0  0.10622201768E+02 -0.33796738888E+02 -0.23631409140E+02  0.42585272006E+02  0.10566000000E+00 0.  1.
         23    2    1    0    0    0  0.31580048090E+01 -0.82727842493E+01  0.25255498149E+02  0.98237112630E+02  0.94521310600E+02 0.  0.
         13    1    3    3    0    0 -0.74641969590E+01  0.25523954638E+02  0.48886907289E+02  0.55651840625E+02  0.10566000000E+00 0. -1.
         22    1    1    0    0    0 -0.31580048090E+01  0.82727842493E+01 -0.25255498149E+02  0.26762887370E+02  0.00000000000E+00 0. -1.
</event>
<event>
 5    1  0.1319298E-009  0.9118800E+02  0.7818608E-02  0.1130116E+00
         25   -1    0    0    0    0  0.00000000000E+00  0.00000000000E+00  0.99999998245E-14  0.12500000000E+03  0.12500000000E+03 0.  0.
        -13    1    3    3    0    0  0.24234568186E+02 -0.83859396406E+01  0.44183204721E+02  0.51086250814E+02  0.10566000000E+00 0. -1.
         23    2    1    0    0    0 -0.25717944089E+01 -0.17017840251E+02 -0.43943759518E+01  0.10723679215E+03  0.10575536883E+03 0.  0.
         13    1    3    3    0    0 -0.26806362595E+02 -0.86319006102E+01 -0.48577580673E+02  0.56150541331E+02  0.10566000000E+00 0.  1.
         22    1    1    0    0    0  0.25717944089E+01  0.17017840251E+02  0.43943759518E+01  0.17763207855E+02  0.00000000000E+00 0.  1.
</event>
<event>
 5    1  0.1319298E-009  0.9118800E+02  0.7818608E-02  0.1130116E+00
         25   -1    0    0    0    0  0.00000000000E+00  0.00000000000E+00  0.99999998245E-14  0.12500000000E+03  0.12500000000E+03 0.  0.
        -13    1    3    3    0    0 -0.93168024592E+01 -0.34351716432E+02 -0.22892350810E+02  0.42319193276E+02  0.10566000000E+00 0. -1.
         23    2    1    0    0    0 -0.22151947945E+02 -0.44403860055E+01  0.19076608629E+02  0.95430711499E+02  0.90734105357E+02 0.  0.
         13    1    3    3    0    0 -0.12835145486E+02  0.29911330427E+02  0.41968959439E+02  0.53111518223E+02  0.10566000000E+00 0.  1.
         22    1    1    0    0    0  0.22151947945E+02  0.44403860055E+01 -0.19076608629E+02  0.29569288501E+02  0.00000000000E+00 0. -1.
</event>
<event>
 5    1  0.1319298E-009  0.9118800E+02  0.7818608E-02  0.1130116E+00
         25   -1    0    0    0    0  0.00000000000E+00  0.00000000000E+00  0.99999998245E-14  0.12500000000E+03  0.12500000000E+03 0.  0.
        -13    1    3    3    0    0 -0.68155140015E+01 -0.60015096234E+00 -0.34339243678E+02  0.35014371802E+02  0.10566000000E+00 0.  1.
         23    2    1    0    0    0  0.10849500033E+02 -0.56565574807E+01  0.25017799244E+02  0.97150429581E+02  0.93073129287E+02 0.  0.
         13    1    3    3    0    0  0.17665014035E+02 -0.50564065183E+01  0.59357042923E+02  0.62136057779E+02  0.10566000000E+00 0. -1.
         22    1    1    0    0    0 -0.10849500033E+02  0.56565574807E+01 -0.25017799244E+02  0.27849570419E+02  0.00000000000E+00 0. -1.
</event>
<event>
 5    1  0.1319298E-009  0.9118800E+02  0.7818608E-02  0.1130116E+00
         25   -1    0    0    0    0  0.00000000000E+00  0.00000000000E+00  0.99999998245E-14  0.12500000000E+03  0.12500000000E+03 0.  0.
        -13    1    3    3    0    0 -0.57319933726E+02 -0.28107431082E+01  0.41906556391E+01  0.57541705205E+02  0.10566000000E+00 0.  1.
         23    2    1    0    0    0 -0.36710632033E+02  0.15285979637E+02  0.38030574360E+00  0.85232220200E+02  0.75386040154E+02 0.  0.
         13    1    3    3    0    0  0.20609301693E+02  0.18096722745E+02 -0.38103498955E+01  0.27690514996E+02  0.10566000000E+00 0. -1.
         22    1    1    0    0    0  0.36710632033E+02 -0.15285979637E+02 -0.38030574360E+00  0.39767779800E+02  0.00000000000E+00 0.  1.
</event>
<event>
 5    1  0.1319298E-009  0.9118800E+02  0.7818608E-02  0.1130116E+00
         25   -1    0    0    0    0  0.00000000000E+00  0.00000000000E+00  0.99999998245E-14  0.12500000000E+03  0.12500000000E+03 0.  0.
        -13    1    3    3    0    0 -0.87354876401E+01 -0.37751344050E+02 -0.46862486578E+02  0.60807701274E+02  0.10566000000E+00 0. -1.
         23    2    1    0    0    0  0.37292766058E+01 -0.12360542118E+02 -0.26053114958E+02  0.95923285872E+02  0.91410182519E+02 0.  0.
         13    1    3    3    0    0  0.12464764246E+02  0.25390801931E+02  0.20809371621E+02  0.35115584599E+02  0.10566000000E+00 0.  1.
         22    1    1    0    0    0 -0.37292766058E+01  0.12360542118E+02  0.26053114958E+02  0.29076714128E+02  0.00000000000E+00 0. -1.
</event>
<event>
 5    1  0.1319298E-009  0.9118800E+02  0.7818608E-02  0.1130116E+00
         25   -1    0    0    0    0  0.00000000000E+00  0.00000000000E+00  0.99999998245E-14  0.12500000000E+03  0.12500000000E+03 0.  0.
        -13    1    3    3    0    0 -0.21424867758E+02  0.17724515612E+02 -0.20415879708E+02  0.34496416052E+02  0.10566000000E+00 0. -1.
         23    2    1    0    0    0  0.80136928736E+01 -0.23891553189E+02  0.14162226509E+02  0.96093352893E+02  0.91642447715E+02 0.  0.
         13    1    3    3    0    0  0.29438560632E+02 -0.41616068802E+02  0.34578106217E+02  0.61596936841E+02  0.10566000000E+00 0.  1.
         22    1    1    0    0    0 -0.80136928736E+01  0.23891553189E+02 -0.14162226509E+02  0.28906647107E+02  0.00000000000E+00 0.  1.
</event>
<event>
 5    1  0.1319298E-009  0.9118800E+02  0.7818608E-02  0.1130116E+00
         25   -1    0    0    0    0  0.00000000000E+00  0.00000000000E+00  0.99999998245E-14  0.12500000000E+03  0.12500000000E+03 0.  0.
        -13    1    3    3    0    0 -0.21943254260E+02  0.38744052532E+02 -0.35470755478E+02  0.56927969157E+02  0.10566000000E+00 0. -1.
         23    2    1    0    0    0 -0.25379119099E+02  0.86827582678E+01 -0.10368102978E+02  0.96242609007E+02  0.91845806936E+02 0.  0.
         13    1    3    3    0    0 -0.34358648381E+01 -0.30061294264E+02  0.25102652500E+02  0.39314639850E+02  0.10566000000E+00 0.  1.
         22    1    1    0    0    0  0.25379119099E+02 -0.86827582678E+01  0.10368102978E+02  0.28757390993E+02  0.00000000000E+00 0. -1.
</event>
<event>
 5    1  0.1319298E-009  0.9118800E+02  0.7818608E-02  0.1130116E+00
         25   -1    0    0    0    0  0.00000000000E+00  0.00000000000E+00  0.99999998245E-14  0.12500000000E+03  0.12500000000E+03 0.  0.
        -13    1    3    3    0    0 -0.18552739326E+02 -0.27542345307E+02  0.16933669398E+02  0.37276604524E+02  0.10566000000E+00 0.  1.
         23    2    1    0    0    0  0.30409849753E+01  0.35518794227E+00 -0.29360248293E+02  0.95480550007E+02  0.90802739505E+02 0.  0.
         13    1    3    3    0    0  0.21593724301E+02  0.27897533249E+02 -0.46293917691E+02  0.58203945483E+02  0.10566000000E+00 0. -1.
         22    1    1    0    0    0 -0.30409849753E+01 -0.35518794227E+00  0.29360248293E+02  0.29519449993E+02  0.00000000000E+00 0. -1.
</event>
<event>
 5    1  0.1319298E-009  0.9118800E+02  0.7818608E-02  0.1130116E+00
         25   -1    0    0    0    0  0.00000000000E+00  0.00000000000E+00  0.99999998245E-14  0.12500000000E+03  0.12500000000E+03 0.  0.
        -13    1    3    3    0    0  0.28395840883E+02 -0.43772126889E+02  0.34269319993E+02  0.62423716075E+02  0.10566000000E+00 0. -1.
         23    2    1    0    0    0  0.12610733237E+02 -0.21444173945E+02  0.18585740281E+02  0.93946611606E+02  0.88665962474E+02 0.  0.
         13    1    3    3    0    0 -0.15785107646E+02  0.22327952944E+02 -0.15683579712E+02  0.31522895531E+02  0.10566000000E+00 0.  1.
         22    1    1    0    0    0 -0.12610733237E+02  0.21444173945E+02 -0.18585740281E+02  0.31053388394E+02  0.00000000000E+00 0. -1.
</event>
<event>
 5    1  0.1319298E-009  0.9118800E+02  0.7818608E-02  0.1130116E+00
         25   -1    0    0    0    0  0.00000000000E+00  0.00000000000E+00  0.99999998245E-14  0.12500000000E+03  0.12500000000E+03 0.  0.
        -13    1    3    3    0    0  0.32209272667E+02  0.33800509299E+02 -0.12425365718E+02  0.48314723965E+02  0.10566000000E+00 0. -1.
         23    2    1    0    0    0 -0.85608846441E+00  0.76004110299E+01 -0.30017709320E+02  0.94023202101E+02  0.88773872988E+02 0.  0.
         13    1    3    3    0    0 -0.33065361131E+02 -0.26200098269E+02 -0.17592343602E+02  0.45708478136E+02  0.10566000000E+00 0.  1.
         22    1    1    0    0    0  0.85608846441E+00 -0.76004110299E+01  0.30017709320E+02  0.30976797899E+02  0.00000000000E+00 0.  1.
</event>
<event>
 5    1  0.1319298E-009  0.9118800E+02  0.7818608E-02  0.1130116E+00
         25   -1    0    0    0    0  0.00000000000E+00  0.00000000000E+00  0.99999998245E-14  0.12500000000E+03  0.12500000000E+03 0.  0.
        -13    1    3    3    0    0  0.98103087276E+01  0.11139441153E+02  0.31521391629E+02  0.34841621673E+02  0.10566000000E+00 0.  1.
         23    2    1    0    0    0 -0.19880924767E+02 -0.32871551207E+01 -0.20372561671E+02  0.96345195387E+02  0.91985318648E+02 0.  0.
         13    1    3    3    0    0 -0.29691233495E+02 -0.14426596274E+02 -0.51893953300E+02  0.61503573714E+02  0.10566000000E+00 0. -1.
         22    1    1    0    0    0  0.19880924767E+02  0.32871551207E+01  0.20372561671E+02  0.28654804613E+02  0.00000000000E+00 0. -1.
</event>
<event>
 5    1  0.1319298E-009  0.9118800E+02  0.7818608E-02  0.1130116E+00
         25   -1    0    0    0    0  0.00000000000E+00  0.00000000000E+00  0.99999998245E-14  0.12500000000E+03  0.12500000000E+03 0.  0.
        -13    1    3    3    0    0 -0.18594893935E+02 -0.14201725715E+02 -0.41986582159E+02  0.48066031032E+02  0.10566000000E+00 0.  1.
         23    2    1    0    0    0 -0.55267771729E+00 -0.28514967608E+02  0.59141498552E+00  0.96473545576E+02  0.92159570279E+02 0.  0.
         13    1    3    3    0    0  0.18042216217E+02 -0.14313241893E+02  0.42577997144E+02  0.48407514544E+02  0.10566000000E+00 0. -1.
         22    1    1    0    0    0  0.55267771729E+00  0.28514967608E+02 -0.59141498552E+00  0.28526454424E+02  0.00000000000E+00 0. -1.
</event>
<event>
 5    1  0.1319298E-009  0.9118800E+02  0.7818608E-02  0.1130116E+00
         25   -1    0    0    0    0  0.00000000000E+00  0.00000000000E+00  0.99999998245E-14  0.12500000000E+03  0.12500000000E+03 0.  0.
        -13    1    3    3    0    0  0.25673662851E+02  0.25858660004E+02  0.18222580957E+02  0.40741635732E+02  0.10566000000E+00 0. -1.
         23    2    1    0    0    0 -0.21370912373E+02  0.25057204223E+02 -0.21123633268E+01  0.91999371855E+02  0.85876905881E+02 0.  0.
         13    1    3    3    0    0 -0.47044575224E+02 -0.80145578052E+00 -0.20334944284E+02  0.51257736123E+02  0.10566000000E+00 0.  1.
         22    1    1    0    0    0  0.21370912373E+02 -0.25057204223E+02  0.21123633268E+01  0.33000628145E+02  0.00000000000E+00 0. -1.
</event>
<event>
 5    1  0.1319298E-009  0.9118800E+02  0.7818608E-02  0.1130116E+00
         25   -1    0    0    0    0  0.00000000000E+00  0.00000000000E+00  0.99999998245E-14  0.12500000000E+03  0.12500000000E+03 0.  0.
        -13    1    3    3    0    0 -0.42054152785E+02  0.13930460868E+02 -0.34586624618E+02  0.56203694478E+02  0.10566000000E+00 0. -1.
         23    2    1    0    0    0 -0.27601722239E+02  0.10873987185E+02  0.16009792039E+01  0.95290375259E+02  0.90540564471E+02 0.  0.
         13    1    3    3    0    0  0.14452430546E+02 -0.30564736827E+01  0.36187603822E+02  0.39086680781E+02  0.10566000000E+00 0.  1.
         22    1    1    0    0    0  0.27601722239E+02 -0.10873987185E+02 -0.16009792039E+01  0.29709624741E+02  0.00000000000E+00 0. -1.
</event>
<event>
 5    1  0.1319298E-009  0.9118800E+02  0.7818608E-02  0.1130116E+00
         25   -1    0    0    0    0  0.00000000000E+00  0.00000000000E+00  0.99999998245E-14  0.12500000000E+03  0.12500000000E+03 0.  0.
        -13    1    3    3    0    0 -0.42825968204E+02  0.32263026569E+02 -0.23859695929E+02  0.58687841073E+02  0.10566000000E+00 0. -1.
         23    2    1    0    0    0 -0.18319641039E+02  0.38060923575E+01 -0.21760460233E+02  0.96301337724E+02  0.91925700602E+02 0.  0.
         13    1    3    3    0    0  0.24506327164E+02 -0.28456934211E+02  0.20992356958E+01  0.37613496651E+02  0.10566000000E+00 0.  1.
         22    1    1    0    0    0  0.18319641039E+02 -0.38060923575E+01  0.21760460233E+02  0.28698662276E+02  0.00000000000E+00 0. -1.
</event>
<event>
 5    1  0.1319298E-009  0.9118800E+02  0.7818608E-02  0.1130116E+00
         25   -1    0    0    0    0  0.00000000000E+00  0.00000000000E+00  0.99999998245E-14  0.12500000000E+03  0.12500000000E+03 0.  0.
        -13    1    3    3    0    0 -0.15876050298E+02 -0.17798250001E+02  0.28840129929E+02  0.37424469729E+02  0.10566000000E+00 0.  1.
         23    2    1    0    0    0  0.13176054073E+01 -0.11917385649E+02 -0.26629980976E+02  0.95795273474E+02  0.91234962423E+02 0.  0.
         13    1    3    3    0    0  0.17193655705E+02  0.58808643519E+01 -0.55470110904E+02  0.58370803745E+02  0.10566000000E+00 0. -1.
         22    1    1    0    0    0 -0.13176054073E+01  0.11917385649E+02  0.26629980976E+02  0.29204726526E+02  0.00000000000E+00 0. -1.
</event>
<event>
 5    1  0.1319298E-009  0.9118800E+02  0.7818608E-02  0.1130116E+00
         25   -1    0    0    0    0  0.00000000000E+00  0.00000000000E+00  0.99999998245E-14  0.12500000000E+03  0.12500000000E+03 0.  0.
        -13    1    3    3    0    0 -0.52664264561E+02 -0.15853731509E+02  0.27857466542E+02  0.61651562598E+02  0.10566000000E+00 0. -1.
         23    2    1    0    0    0 -0.20360474156E+02 -0.11886244573E+02  0.16896630527E+02  0.95994348119E+02  0.91507305881E+02 0.  0.
         13    1    3    3    0    0  0.32303790406E+02  0.39674869363E+01 -0.10960836015E+02  0.34342785521E+02  0.10566000000E+00 0.  1.
         22    1    1    0    0    0  0.20360474156E+02  0.11886244573E+02 -0.16896630527E+02  0.29005651881E+02  0.00000000000E+00 0. -1.
</event>
<event>
 5    1  0.1319298E-009  0.9118800E+02  0.7818608E-02  0.1130116E+00
         25   -1    0    0    0    0  0.00000000000E+00  0.00000000000E+00  0.99999998245E-14  0.12500000000E+03  0.12500000000E+03 0.  0.
        -13    1    3    3    0    0  0.57385996772E+02  0.12868938462E+01 -0.15217624772E+02  0.59383465620E+02  0.10566000000E+00 0. -1.
         23    2    1    0    0    0  0.21218251782E+02 -0.94361815312E+01 -0.15449823880E+02  0.97108194958E+02  0.93016389628E+02 0.  0.
         13    1    3    3    0    0 -0.36167744989E+02 -0.10723075377E+02 -0.23219910814E+00  0.37724729338E+02  0.10566000000E+00 0.  1.
         22    1    1    0    0    0 -0.21218251782E+02  0.94361815312E+01  0.15449823880E+02  0.27891805042E+02  0.00000000000E+00 0. -1.
</event>
<event>
 5    1  0.1319298E-009  0.9118800E+02  0.7818608E-02  0.1130116E+00
         25   -1    0    0    0    0  0.00000000000E+00  0.00000000000E+00  0.99999998245E-14  0.12500000000E+03  0.12500000000E+03 0.  0.
        -13    1    3    3    0    0 -0.18706170276E+02  0.23021919484E+01  0.30424523611E+02  0.35789435524E+02  0.10566000000E+00 0. -1.
         23    2    1    0    0    0  0.56130702049E+01 -0.68026607099E+01 -0.25807072099E+02  0.97727528162E+02  0.93844989426E+02 0.  0.
         13    1    3    3    0    0  0.24319240481E+02 -0.91048526583E+01 -0.56231595710E+02  0.61938092638E+02  0.10566000000E+00 0.  1.
         22    1    1    0    0    0 -0.56130702049E+01  0.68026607099E+01  0.25807072099E+02  0.27272471838E+02  0.00000000000E+00 0.  1.
</event>
<event>
 5    1  0.1319298E-009  0.9118800E+02  0.7818608E-02  0.1130116E+00
         25   -1    0    0    0    0  0.00000000000E+00  0.00000000000E+00  0.99999998245E-14  0.12500000000E+03  0.12500000000E+03 0.  0.
        -13    1    3    3    0    0  0.19300167421E+02 -0.18310274081E+02  0.34567998866E+02  0.43620182359E+02  0.10566000000E+00 0. -1.
         23    2    1    0    0    0 -0.18592659349E+02  0.13714360215E+02  0.17243488075E+02  0.96171046866E+02  0.91748360839E+02 0.  0.
         13    1    3    3    0    0 -0.37892826770E+02  0.32024634296E+02 -0.17324510791E+02  0.52550864508E+02  0.10566000000E+00 0.  1.
         22    1    1    0    0    0  0.18592659349E+02 -0.13714360215E+02 -0.17243488075E+02  0.28828953134E+02  0.00000000000E+00 0.  1.
</event>
<event>
 5    1  0.1319298E-009  0.9118800E+02  0.7818608E-02  0.1130116E+00
         25   -1    0    0    0    0  0.00000000000E+00  0.00000000000E+00  0.99999998245E-14  0.12500000000E+03  0.12500000000E+03 0.  0.
        -13    1    3    3    0    0 -0.33519266200E+01  0.94324911419E+00  0.50881648267E+02  0.51000768870E+02  0.10566000000E+00 0. -1.
         23    2    1    0    0    0  0.25033405870E+02  0.11661547698E+01  0.20086942050E+02  0.92882768374E+02  0.87153267831E+02 0.  0.
         13    1    3    3    0    0  0.28385332490E+02  0.22290565563E+00 -0.30794706217E+02  0.41881999504E+02  0.10566000000E+00 0.  1.
         22    1    1    0    0    0 -0.25033405870E+02 -0.11661547698E+01 -0.20086942050E+02  0.32117231626E+02  0.00000000000E+00 0. -1.
</event>
<event>
 5    1  0.1319298E-009  0.9118800E+02  0.7818608E-02  0.1130116E+00
         25   -1    0    0    0    0  0.00000000000E+00  0.00000000000E+00  0.99999998245E-14  0.12500000000E+03  0.12500000000E+03 0.  0.
        -13    1    3    3    0    0  0.21596380765E+02  0.42123048727E+00  0.51456997691E+02  0.55806942871E+02  0.10566000000E+00 0. -1.
         23    2    1    0    0    0 -0.90596889015E+01  0.73491774527E+01  0.26856864967E+02  0.95718955482E+02  0.91130340011E+02 0.  0.
         13    1    3    3    0    0 -0.30656069666E+02  0.69279469654E+01 -0.24600132724E+02  0.39912012611E+02  0.10566000000E+00 0.  1.
         22    1    1    0    0    0  0.90596889015E+01 -0.73491774527E+01 -0.26856864967E+02  0.29281044518E+02  0.00000000000E+00 0. -1.
</event>
<event>
 5    1  0.1319298E-009  0.9118800E+02  0.7818608E-02  0.1130116E+00
         25   -1    0    0    0    0  0.00000000000E+00  0.00000000000E+00  0.99999998245E-14  0.12500000000E+03  0.12500000000E+03 0.  0.
        -13    1    3    3    0    0 -0.11253318560E+02 -0.67648784190E+01  0.17910583243E+02  0.22208127223E+02  0.10566000000E+00 0.  1.
         23    2    1    0    0    0  0.19933524182E+02  0.39597832862E+02  0.74418386123E+00  0.80661669368E+02  0.67382618990E+02 0.  0.
         13    1    3    3    0    0  0.31186842741E+02  0.46362711281E+02 -0.17166399382E+02  0.58453542144E+02  0.10566000000E+00 0. -1.
         22    1    1    0    0    0 -0.19933524182E+02 -0.39597832862E+02 -0.74418386123E+00  0.44338330632E+02  0.00000000000E+00 0. -1.
</event>
<event>
 5    1  0.1319298E-009  0.9118800E+02  0.7818608E-02  0.1130116E+00
         25   -1    0    0    0    0  0.00000000000E+00  0.00000000000E+00  0.99999998245E-14  0.12500000000E+03  0.12500000000E+03 0.  0.
        -13    1    3    3    0    0  0.58861790976E+02 -0.97061970034E+01 -0.67687026690E+01  0.60039546942E+02  0.10566000000E+00 0.  1.
         23    2    1    0    0    0  0.22128701202E+02 -0.15908254226E+02 -0.10745874383E+01  0.97725346793E+02  0.93842083833E+02 0.  0.
         13    1    3    3    0    0 -0.36733089773E+02 -0.62020572229E+01  0.56941152307E+01  0.37685799851E+02  0.10566000000E+00 0. -1.
         22    1    1    0    0    0 -0.22128701202E+02  0.15908254226E+02  0.10745874383E+01  0.27274653207E+02  0.00000000000E+00 0.  1.
</event>
<event>
 5    1  0.1319298E-009  0.9118800E+02  0.7818608E-02  0.1130116E+00
         25   -1    0    0    0    0  0.00000000000E+00  0.00000000000E+00  0.99999998245E-14  0.12500000000E+03  0.12500000000E+03 0.  0.
        -13    1    3    3    0    0  0.14754880645E+02 -0.19706682332E+02 -0.37959357777E+02  0.45243605496E+02  0.10566000000E+00 0.  1.
         23    2    1    0    0    0 -0.38881151382E+01  0.23108768558E+02 -0.13381537989E+02  0.98014852556E+02  0.94226923642E+02 0.  0.
         13    1    3    3    0    0 -0.18642995783E+02  0.42815450890E+02  0.24577819788E+02  0.52771247060E+02  0.10566000000E+00 0. -1.
         22    1    1    0    0    0  0.38881151382E+01 -0.23108768558E+02  0.13381537989E+02  0.26985147444E+02  0.00000000000E+00 0. -1.
</event>
<event>
 5    1  0.1319298E-009  0.9118800E+02  0.7818608E-02  0.1130116E+00
         25   -1    0    0    0    0  0.00000000000E+00  0.00000000000E+00  0.99999998245E-14  0.12500000000E+03  0.12500000000E+03 0.  0.
        -13    1    3    3    0    0  0.80950433875E+01  0.75102221196E+01  0.37725129451E+02  0.39308138086E+02  0.10566000000E+00 0.  1.
         23    2    1    0    0    0  0.78427555181E+01 -0.73071630835E+01 -0.21830382243E+02  0.10067986358E+03  0.97698341316E+02 0.  0.
         13    1    3    3    0    0 -0.25228786937E+00 -0.14817385203E+02 -0.59555511693E+02  0.61371725497E+02  0.10566000000E+00 0. -1.
         22    1    1    0    0    0 -0.78427555181E+01  0.73071630835E+01  0.21830382243E+02  0.24320136416E+02  0.00000000000E+00 0. -1.
</event>
<event>
 5    1  0.1319298E-009  0.9118800E+02  0.7818608E-02  0.1130116E+00
         25   -1    0    0    0    0  0.00000000000E+00  0.00000000000E+00  0.99999998245E-14  0.12500000000E+03  0.12500000000E+03 0.  0.
        -13    1    3    3    0    0  0.14955409624E+01 -0.57055889260E+02 -0.10278391400E+02  0.57993686172E+02  0.10566000000E+00 0. -1.
         23    2    1    0    0    0 -0.12509756566E+02 -0.26407060245E+02  0.56053209774E+01  0.95246908339E+02  0.90480534286E+02 0.  0.
         13    1    3    3    0    0 -0.14005297529E+02  0.30648829015E+02  0.15883712377E+02  0.37253222167E+02  0.10566000000E+00 0.  1.
         22    1    1    0    0    0  0.12509756566E+02  0.26407060245E+02 -0.56053209774E+01  0.29753091661E+02  0.00000000000E+00 0. -1.
</event>
<event>
 5    1  0.1319298E-009  0.9118800E+02  0.7818608E-02  0.1130116E+00
         25   -1    0    0    0    0  0.00000000000E+00  0.00000000000E+00  0.99999998245E-14  0.12500000000E+03  0.12500000000E+03 0.  0.
        -13    1    3    3    0    0 -0.43010677609E+02  0.28859898964E+02 -0.32024040055E+02  0.60896325522E+02  0.10566000000E+00 0.  1.
         23    2    1    0    0    0 -0.26285293185E+02  0.11015326246E+02 -0.75045449841E+01  0.95528450235E+02  0.90868655535E+02 0.  0.
         13    1    3    3    0    0  0.16725384424E+02 -0.17844572718E+02  0.24519495071E+02  0.34632124713E+02  0.10566000000E+00 0. -1.
         22    1    1    0    0    0  0.26285293185E+02 -0.11015326246E+02  0.75045449841E+01  0.29471549765E+02  0.00000000000E+00 0.  1.
</event>
<event>
 5    1  0.1319298E-009  0.9118800E+02  0.7818608E-02  0.1130116E+00
         25   -1    0    0    0    0  0.00000000000E+00  0.00000000000E+00  0.99999998245E-14  0.12500000000E+03  0.12500000000E+03 0.  0.
        -13    1    3    3    0    0  0.99849188754E+01 -0.47974817559E+02 -0.25443330218E+02  0.55214635210E+02  0.10566000000E+00 0. -1.
         23    2    1    0    0    0  0.72010221952E+01 -0.28952256641E+02  0.82842000545E+01  0.94036862953E+02  0.88793106366E+02 0.  0.
         13    1    3    3    0    0 -0.27838966803E+01  0.19022560918E+02  0.33727530272E+02  0.38822227743E+02  0.10566000000E+00 0.  1.
         22    1    1    0    0    0 -0.72010221952E+01  0.28952256641E+02 -0.82842000545E+01  0.30963137047E+02  0.00000000000E+00 0. -1.
</event>
<event>
 5    1  0.1319298E-009  0.9118800E+02  0.7818608E-02  0.1130116E+00
         25   -1    0    0    0    0  0.00000000000E+00  0.00000000000E+00  0.99999998245E-14  0.12500000000E+03  0.12500000000E+03 0.  0.
        -13    1    3    3    0    0 -0.32607143790E+02 -0.69606642601E+01 -0.15301449049E+02  0.36685449161E+02  0.10566000000E+00 0. -1.
         23    2    1    0    0    0  0.91293566912E+00 -0.29917346708E+01  0.30921273453E+02  0.93920922152E+02  0.88629738452E+02 0.  0.
         13    1    3    3    0    0  0.33520079459E+02  0.39689295893E+01  0.46222722502E+02  0.57235472992E+02  0.10566000000E+00 0.  1.
         22    1    1    0    0    0 -0.91293566912E+00  0.29917346708E+01 -0.30921273453E+02  0.31079077848E+02  0.00000000000E+00 0.  1.
</event>
<event>
 5    1  0.1319298E-009  0.9118800E+02  0.7818608E-02  0.1130116E+00
         25   -1    0    0    0    0  0.00000000000E+00  0.00000000000E+00  0.99999998245E-14  0.12500000000E+03  0.12500000000E+03 0.  0.
        -13    1    3    3    0    0 -0.37728286856E+02  0.24851015966E+02 -0.30721164485E+02  0.54633302436E+02  0.10566000000E+00 0.  1.
         23    2    1    0    0    0 -0.27660226923E+02  0.97196046789E+01  0.55107728451E+01  0.95168347584E+02  0.90371936440E+02 0.  0.
         13    1    3    3    0    0  0.10068059934E+02 -0.15131411288E+02  0.36231937330E+02  0.40535045148E+02  0.10566000000E+00 0. -1.
         22    1    1    0    0    0  0.27660226923E+02 -0.97196046789E+01 -0.55107728451E+01  0.29831652416E+02  0.00000000000E+00 0.  1.
</event>
<event>
 5    1  0.1319298E-009  0.9118800E+02  0.7818608E-02  0.1130116E+00
         25   -1    0    0    0    0  0.00000000000E+00  0.00000000000E+00  0.99999998245E-14  0.12500000000E+03  0.12500000000E+03 0.  0.
        -13    1    3    3    0    0  0.69821936399E+01 -0.28850214685E+02 -0.34507660705E+02  0.45517861624E+02  0.10566000000E+00 0.  1.
         23    2    1    0    0    0 -0.24304559785E+02  0.55991538289E+01 -0.14278766074E+02  0.96260735734E+02  0.91870473676E+02 0.  0.
         13    1    3    3    0    0 -0.31286753425E+02  0.34449368514E+02  0.20228894631E+02  0.50742874110E+02  0.10566000000E+00 0. -1.
         22    1    1    0    0    0  0.24304559785E+02 -0.55991538289E+01  0.14278766074E+02  0.28739264266E+02  0.00000000000E+00 0. -1.
</event>
<event>
 5    1  0.1319298E-009  0.9118800E+02  0.7818608E-02  0.1130116E+00
         25   -1    0    0    0    0  0.00000000000E+00  0.00000000000E+00  0.99999998245E-14  0.12500000000E+03  0.12500000000E+03 0.  0.
        -13    1    3    3    0    0  0.20273042367E+02 -0.95518037945E+01 -0.53683611483E+02  0.58173658201E+02  0.10566000000E+00 0. -1.
         23    2    1    0    0    0 -0.44966169456E+01 -0.12810381857E+02 -0.27308015081E+02  0.94503227466E+02  0.89447229508E+02 0.  0.
         13    1    3    3    0    0 -0.24769659313E+02 -0.32585780626E+01  0.26375596402E+02  0.36329569266E+02  0.10566000000E+00 0.  1.
         22    1    1    0    0    0  0.44966169456E+01  0.12810381857E+02  0.27308015081E+02  0.30496772534E+02  0.00000000000E+00 0. -1.
</event>
<event>
 5    1  0.1319298E-009  0.9118800E+02  0.7818608E-02  0.1130116E+00
         25   -1    0    0    0    0  0.00000000000E+00  0.00000000000E+00  0.99999998245E-14  0.12500000000E+03  0.12500000000E+03 0.  0.
        -13    1    3    3    0    0  0.64937544668E+01  0.48467117386E+02 -0.21089062308E+02  0.53254014195E+02  0.10566000000E+00 0.  1.
         23    2    1    0    0    0  0.49135114623E+01  0.24018688653E+02  0.14542126309E+02  0.96495378671E+02  0.92189178691E+02 0.  0.
         13    1    3    3    0    0 -0.15802430045E+01 -0.24448428733E+02  0.35631188617E+02  0.43241364476E+02  0.10566000000E+00 0. -1.
         22    1    1    0    0    0 -0.49135114623E+01 -0.24018688653E+02 -0.14542126309E+02  0.28504621329E+02  0.00000000000E+00 0.  1.
</event>
<event>
 5    1  0.1319298E-009  0.9118800E+02  0.7818608E-02  0.1130116E+00
         25   -1    0    0    0    0  0.00000000000E+00  0.00000000000E+00  0.99999998245E-14  0.12500000000E+03  0.12500000000E+03 0.  0.
        -13    1    3    3    0    0  0.58030751864E+02  0.80610879492E+01  0.12888441908E+02  0.59988935644E+02  0.10566000000E+00 0.  1.
         23    2    1    0    0    0  0.26089346596E+02 -0.81898583373E+01  0.97705320390E+01  0.95962247302E+02  0.91463445297E+02 0.  0.
         13    1    3    3    0    0 -0.31941405268E+02 -0.16250946287E+02 -0.31179098693E+01  0.35973311658E+02  0.10566000000E+00 0. -1.
         22    1    1    0    0    0 -0.26089346596E+02  0.81898583373E+01 -0.97705320390E+01  0.29037752698E+02  0.00000000000E+00 0.  1.
</event>
<event>
 5    1  0.1319298E-009  0.9118800E+02  0.7818608E-02  0.1130116E+00
         25   -1    0    0    0    0  0.00000000000E+00  0.00000000000E+00  0.99999998245E-14  0.12500000000E+03  0.12500000000E+03 0.  0.
        -13    1    3    3    0    0 -0.17932493256E+02  0.75127391023E+01  0.33265425278E+02  0.38530705238E+02  0.10566000000E+00 0.  1.
         23    2    1    0    0    0  0.23797595038E+02  0.16111598332E+02 -0.50371295895E+01  0.95823266034E+02  0.91273306659E+02 0.  0.
         13    1    3    3    0    0  0.41730088294E+02  0.85988592301E+01 -0.38302554868E+02  0.57292560796E+02  0.10566000000E+00 0. -1.
         22    1    1    0    0    0 -0.23797595038E+02 -0.16111598332E+02  0.50371295895E+01  0.29176733966E+02  0.00000000000E+00 0. -1.
</event>
<event>
 5    1  0.1319298E-009  0.9118800E+02  0.7818608E-02  0.1130116E+00
         25   -1    0    0    0    0  0.00000000000E+00  0.00000000000E+00  0.99999998245E-14  0.12500000000E+03  0.12500000000E+03 0.  0.
        -13    1    3    3    0    0 -0.26751123415E+01 -0.36545700483E+02  0.45831352466E+02  0.58679370163E+02  0.10566000000E+00 0. -1.
         23    2    1    0    0    0 -0.12739334905E+02 -0.56963983049E+01  0.22029417576E+02  0.98922522242E+02  0.95423427734E+02 0.  0.
         13    1    3    3    0    0 -0.10064222563E+02  0.30849302178E+02 -0.23801934890E+02  0.40243152079E+02  0.10566000000E+00 0.  1.
         22    1    1    0    0    0  0.12739334905E+02  0.56963983049E+01 -0.22029417576E+02  0.26077477758E+02  0.00000000000E+00 0. -1.
</event>
<event>
 5    1  0.1319298E-009  0.9118800E+02  0.7818608E-02  0.1130116E+00
         25   -1    0    0    0    0  0.00000000000E+00  0.00000000000E+00  0.99999998245E-14  0.12500000000E+03  0.12500000000E+03 0.  0.
        -13    1    3    3    0    0 -0.34580931699E+01  0.60985952538E+01 -0.40800062506E+02  0.41398158618E+02  0.10566000000E+00 0.  1.
         23    2    1    0    0    0 -0.14044361949E+01 -0.21468890680E+02  0.11536823308E+02  0.10058721646E+03  0.97579732094E+02 0.  0.
         13    1    3    3    0    0  0.20536569751E+01 -0.27567485933E+02  0.52336885814E+02  0.59189057844E+02  0.10566000000E+00 0. -1.
         22    1    1    0    0    0  0.14044361949E+01  0.21468890680E+02 -0.11536823308E+02  0.24412783538E+02  0.00000000000E+00 0. -1.
</event>
<event>
 5    1  0.1319298E-009  0.9118800E+02  0.7818608E-02  0.1130116E+00
         25   -1    0    0    0    0  0.00000000000E+00  0.00000000000E+00  0.99999998245E-14  0.12500000000E+03  0.12500000000E+03 0.  0.
        -13    1    3    3    0    0  0.32775431965E+01  0.16078987858E+02  0.35025206556E+02  0.38678836568E+02  0.10566000000E+00 0.  1.
         23    2    1    0    0    0  0.20570901036E+02 -0.17811285379E+02 -0.85033087062E+01  0.96491928946E+02  0.92184501064E+02 0.  0.
         13    1    3    3    0    0  0.17293357839E+02 -0.33890273236E+02 -0.43528515262E+02  0.57813092378E+02  0.10566000000E+00 0. -1.
         22    1    1    0    0    0 -0.20570901036E+02  0.17811285379E+02  0.85033087062E+01  0.28508071054E+02  0.00000000000E+00 0. -1.
</event>
<event>
 5    1  0.1319298E-009  0.9118800E+02  0.7818608E-02  0.1130116E+00
         25   -1    0    0    0    0  0.00000000000E+00  0.00000000000E+00  0.99999998245E-14  0.12500000000E+03  0.12500000000E+03 0.  0.
        -13    1    3    3    0    0  0.94025097721E+00  0.33752361354E+02 -0.61641785330E+01  0.34323668655E+02  0.10566000000E+00 0. -1.
         23    2    1    0    0    0  0.99237215610E+01 -0.23015706366E+02  0.15253730268E+02  0.95659255697E+02  0.91048415276E+02 0.  0.
         13    1    3    3    0    0  0.89834705838E+01 -0.56768067720E+02  0.21417908801E+02  0.61335587043E+02  0.10566000000E+00 0.  1.
         22    1    1    0    0    0 -0.99237215610E+01  0.23015706366E+02 -0.15253730268E+02  0.29340744303E+02  0.00000000000E+00 0.  1.
</event>
<event>
 5    1  0.1319298E-009  0.9118800E+02  0.7818608E-02  0.1130116E+00
         25   -1    0    0    0    0  0.00000000000E+00  0.00000000000E+00  0.99999998245E-14  0.12500000000E+03  0.12500000000E+03 0.  0.
        -13    1    3    3    0    0 -0.46231448233E+01 -0.26931555264E+02  0.21521203101E+02  0.34782976927E+02  0.10566000000E+00 0.  1.
         23    2    1    0    0    0  0.23388271407E+02  0.19348754936E+02 -0.36081589160E+01  0.94431971477E+02  0.89347595767E+02 0.  0.
         13    1    3    3    0    0  0.28011416231E+02  0.46280310200E+02 -0.25129362017E+02  0.59648994550E+02  0.10566000000E+00 0. -1.
         22    1    1    0    0    0 -0.23388271407E+02 -0.19348754936E+02  0.36081589160E+01  0.30568028523E+02  0.00000000000E+00 0. -1.
</event>
<event>
 5    1  0.1319298E-009  0.9118800E+02  0.7818608E-02  0.1130116E+00
         25   -1    0    0    0    0  0.00000000000E+00  0.00000000000E+00  0.99999998245E-14  0.12500000000E+03  0.12500000000E+03 0.  0.
        -13    1    3    3    0    0 -0.35231361590E+02 -0.32043398978E+02 -0.10251577765E+02  0.48714825960E+02  0.10566000000E+00 0.  1.
         23    2    1    0    0    0  0.64693557299E+01 -0.26312700435E+02  0.10863917626E+02  0.95806927638E+02  0.91250928267E+02 0.  0.
         13    1    3    3    0    0  0.41700717320E+02  0.57306985431E+01  0.21115495392E+02  0.47092101678E+02  0.10566000000E+00 0. -1.
         22    1    1    0    0    0 -0.64693557299E+01  0.26312700435E+02 -0.10863917626E+02  0.29193072362E+02  0.00000000000E+00 0.  1.
</event>
<event>
 5    1  0.1319298E-009  0.9118800E+02  0.7818608E-02  0.1130116E+00
         25   -1    0    0    0    0  0.00000000000E+00  0.00000000000E+00  0.99999998245E-14  0.12500000000E+03  0.12500000000E+03 0.  0.
        -13    1    3    3    0    0  0.62205884243E+01  0.57879199924E+02  0.13006633058E+02  0.59647977096E+02  0.10566000000E+00 0. -1.
         23    2    1    0    0    0  0.36929294216E+01  0.31096511605E+02 -0.66757946080E+01  0.92981302410E+02  0.87294476357E+02 0.  0.
         13    1    3    3    0    0 -0.25276590026E+01 -0.26782688318E+02 -0.19682427666E+02  0.33333325313E+02  0.10566000000E+00 0.  1.
         22    1    1    0    0    0 -0.36929294216E+01 -0.31096511605E+02  0.66757946080E+01  0.32018697590E+02  0.00000000000E+00 0. -1.
</event>
<event>
 5    1  0.1319298E-009  0.9118800E+02  0.7818608E-02  0.1130116E+00
         25   -1    0    0    0    0  0.00000000000E+00  0.00000000000E+00  0.99999998245E-14  0.12500000000E+03  0.12500000000E+03 0.  0.
        -13    1    3    3    0    0  0.31380643437E+02  0.27659452832E+02  0.11220595429E+01  0.41845672359E+02  0.10566000000E+00 0.  1.
         23    2    1    0    0    0 -0.50877534294E+01  0.61777891760E+00  0.29283706127E+02  0.95271186867E+02  0.90514069165E+02 0.  0.
         13    1    3    3    0    0 -0.36468396866E+02 -0.27041673915E+02  0.28161646584E+02  0.53425514508E+02  0.10566000000E+00 0. -1.
         22    1    1    0    0    0  0.50877534294E+01 -0.61777891760E+00 -0.29283706127E+02  0.29728813133E+02  0.00000000000E+00 0. -1.
</event>
<event>
 5    1  0.1319298E-009  0.9118800E+02  0.7818608E-02  0.1130116E+00
         25   -1    0    0    0    0  0.00000000000E+00  0.00000000000E+00  0.99999998245E-14  0.12500000000E+03  0.12500000000E+03 0.  0.
        -13    1    3    3    0    0 -0.39662125763E+02 -0.14520831666E+01  0.23257166734E+02  0.46001084054E+02  0.10566000000E+00 0.  1.
         23    2    1    0    0    0 -0.24982807831E+02 -0.99128825596E+01 -0.19368525673E+02  0.91870772504E+02  0.85689515846E+02 0.  0.
         13    1    3    3    0    0  0.14679317933E+02 -0.84607993930E+01 -0.42625692407E+02  0.45869688450E+02  0.10566000000E+00 0. -1.
         22    1    1    0    0    0  0.24982807831E+02  0.99128825596E+01  0.19368525673E+02  0.33129227496E+02  0.00000000000E+00 0.  1.
</event>
<event>
 5    1  0.1319298E-009  0.9118800E+02  0.7818608E-02  0.1130116E+00
         25   -1    0    0    0    0  0.00000000000E+00  0.00000000000E+00  0.99999998245E-14  0.12500000000E+03  0.12500000000E+03 0.  0.
        -13    1    3    3    0    0 -0.66371255240E+01  0.15253045551E+02 -0.46027651475E+02  0.48941421088E+02  0.10566000000E+00 0. -1.
         23    2    1    0    0    0 -0.23150545606E+02 -0.12444829106E+02 -0.11129540491E+02  0.96457256529E+02  0.92137474092E+02 0.  0.
         13    1    3    3    0    0 -0.16513420082E+02 -0.27697874657E+02  0.34898110984E+02  0.47515835440E+02  0.10566000000E+00 0.  1.
         22    1    1    0    0    0  0.23150545606E+02  0.12444829106E+02  0.11129540491E+02  0.28542743471E+02  0.00000000000E+00 0.  1.
</event>
<event>
 5    1  0.1319298E-009  0.9118800E+02  0.7818608E-02  0.1130116E+00
         25   -1    0    0    0    0  0.00000000000E+00  0.00000000000E+00  0.99999998245E-14  0.12500000000E+03  0.12500000000E+03 0.  0.
        -13    1    3    3    0    0  0.22530129733E+02  0.92086324989E+01 -0.41961301472E+02  0.48509459320E+02  0.10566000000E+00 0. -1.
         23    2    1    0    0    0  0.23942994123E+02 -0.16944369591E+02 -0.29193517822E+01  0.95522869149E+02  0.90860977802E+02 0.  0.
         13    1    3    3    0    0  0.14128643899E+01 -0.26153002090E+02  0.39041949690E+02  0.47013409829E+02  0.10566000000E+00 0.  1.
         22    1    1    0    0    0 -0.23942994123E+02  0.16944369591E+02  0.29193517822E+01  0.29477130851E+02  0.00000000000E+00 0.  1.
</event>
<event>
 5    1  0.1319298E-009  0.9118800E+02  0.7818608E-02  0.1130116E+00
         25   -1    0    0    0    0  0.00000000000E+00  0.00000000000E+00  0.99999998245E-14  0.12500000000E+03  0.12500000000E+03 0.  0.
        -13    1    3    3    0    0  0.36652453263E+02  0.16293074522E+02  0.39554833020E+02  0.56333494361E+02  0.10566000000E+00 0.  1.
         23    2    1    0    0    0  0.11468370515E+02 -0.88748727107E+01  0.27477853471E+02  0.93930411665E+02  0.88643121088E+02 0.  0.
         13    1    3    3    0    0 -0.25184082748E+02 -0.25167947233E+02 -0.12076979549E+02  0.37596917305E+02  0.10566000000E+00 0. -1.
         22    1    1    0    0    0 -0.11468370515E+02  0.88748727107E+01 -0.27477853471E+02  0.31069588335E+02  0.00000000000E+00 0.  1.
</event>
<event>
 5    1  0.1319298E-009  0.9118800E+02  0.7818608E-02  0.1130116E+00
         25   -1    0    0    0    0  0.00000000000E+00  0.00000000000E+00  0.99999998245E-14  0.12500000000E+03  0.12500000000E+03 0.  0.
        -13    1    3    3    0    0  0.11214046118E+02  0.48862353739E+02  0.15826151284E+02  0.52571500566E+02  0.10566000000E+00 0.  1.
         23    2    1    0    0    0  0.17342776173E+02  0.13613758069E+02 -0.13771281635E+02  0.99004721736E+02  0.95531044347E+02 0.  0.
         13    1    3    3    0    0  0.61287300554E+01 -0.35248595670E+02 -0.29597432920E+02  0.46433221170E+02  0.10566000000E+00 0. -1.
         22    1    1    0    0    0 -0.17342776173E+02 -0.13613758069E+02  0.13771281635E+02  0.25995278264E+02  0.00000000000E+00 0.  1.
</event>
<event>
 5    1  0.1319298E-009  0.9118800E+02  0.7818608E-02  0.1130116E+00
         25   -1    0    0    0    0  0.00000000000E+00  0.00000000000E+00  0.99999998245E-14  0.12500000000E+03  0.12500000000E+03 0.  0.
        -13    1    3    3    0    0  0.50632523667E+02 -0.58928231795E+01  0.35779071100E+02  0.62277852489E+02  0.10566000000E+00 0. -1.
         23    2    1    0    0    0  0.23703990104E+02 -0.48640565851E+01  0.13194761290E+02  0.97438434028E+02  0.93459127467E+02 0.  0.
         13    1    3    3    0    0 -0.26928533562E+02  0.10287665945E+01 -0.22584309810E+02  0.35160581538E+02  0.10566000000E+00 0.  1.
         22    1    1    0    0    0 -0.23703990104E+02  0.48640565851E+01 -0.13194761290E+02  0.27561565972E+02  0.00000000000E+00 0. -1.
</event>
<event>
 5    1  0.1319298E-009  0.9118800E+02  0.7818608E-02  0.1130116E+00
         25   -1    0    0    0    0  0.00000000000E+00  0.00000000000E+00  0.99999998245E-14  0.12500000000E+03  0.12500000000E+03 0.  0.
        -13    1    3    3    0    0  0.30893518967E+02 -0.29596120291E+02 -0.11528272532E+02  0.44308600543E+02  0.10566000000E+00 0.  1.
         23    2    1    0    0    0 -0.24467754244E+01  0.72416227134E+01 -0.27468280413E+02  0.96487998345E+02  0.92179171109E+02 0.  0.
         13    1    3    3    0    0 -0.33340294391E+02  0.36837743004E+02 -0.15940007881E+02  0.52179397803E+02  0.10566000000E+00 0. -1.
         22    1    1    0    0    0  0.24467754244E+01 -0.72416227134E+01  0.27468280413E+02  0.28512001655E+02  0.00000000000E+00 0. -1.
</event>
<event>
 5    1  0.1319298E-009  0.9118800E+02  0.7818608E-02  0.1130116E+00
         25   -1    0    0    0    0  0.00000000000E+00  0.00000000000E+00  0.99999998245E-14  0.12500000000E+03  0.12500000000E+03 0.  0.
        -13    1    3    3    0    0 -0.30573745378E+02 -0.46549743645E+01  0.27980520451E+02  0.41705435875E+02  0.10566000000E+00 0.  1.
         23    2    1    0    0    0 -0.76476679790E+01  0.26050105806E+02 -0.10386726104E+02  0.95931478930E+02  0.91421385531E+02 0.  0.
         13    1    3    3    0    0  0.22926077399E+02  0.30705080171E+02 -0.38367246554E+02  0.54226043055E+02  0.10566000000E+00 0. -1.
         22    1    1    0    0    0  0.76476679790E+01 -0.26050105806E+02  0.10386726104E+02  0.29068521070E+02  0.00000000000E+00 0. -1.
</event>
<event>
 5    1  0.1319298E-009  0.9118800E+02  0.7818608E-02  0.1130116E+00
         25   -1    0    0    0    0  0.00000000000E+00  0.00000000000E+00  0.99999998245E-14  0.12500000000E+03  0.12500000000E+03 0.  0.
        -13    1    3    3    0    0  0.24074416828E+02 -0.38688038332E+02 -0.33977761147E+02  0.56840489725E+02  0.10566000000E+00 0. -1.
         23    2    1    0    0    0  0.61247515896E+01 -0.28367710086E+02 -0.77732325163E+00  0.95968227940E+02  0.91471618467E+02 0.  0.
         13    1    3    3    0    0 -0.17949665238E+02  0.10320328247E+02  0.33200437895E+02  0.39127738214E+02  0.10566000000E+00 0.  1.
         22    1    1    0    0    0 -0.61247515896E+01  0.28367710086E+02  0.77732325163E+00  0.29031772060E+02  0.00000000000E+00 0.  1.
</event>
<event>
 5    1  0.1319298E-009  0.9118800E+02  0.7818608E-02  0.1130116E+00
         25   -1    0    0    0    0  0.00000000000E+00  0.00000000000E+00  0.99999998245E-14  0.12500000000E+03  0.12500000000E+03 0.  0.
        -13    1    3    3    0    0 -0.20742483496E+02  0.39156997074E+02  0.11365120267E+02  0.45746018014E+02  0.10566000000E+00 0.  1.
         23    2    1    0    0    0 -0.88643318424E+01 -0.12327158487E+01  0.31385015130E+02  0.92363898179E+02  0.86405871008E+02 0.  0.
         13    1    3    3    0    0  0.11878151653E+02 -0.40389712923E+02  0.20019894863E+02  0.46617880165E+02  0.10566000000E+00 0. -1.
         22    1    1    0    0    0  0.88643318424E+01  0.12327158487E+01 -0.31385015130E+02  0.32636101821E+02  0.00000000000E+00 0. -1.
</event>
<event>
 5    1  0.1319298E-009  0.9118800E+02  0.7818608E-02  0.1130116E+00
         25   -1    0    0    0    0  0.00000000000E+00  0.00000000000E+00  0.99999998245E-14  0.12500000000E+03  0.12500000000E+03 0.  0.
        -13    1    3    3    0    0 -0.79661322761E+01 -0.44143713693E+02 -0.37732344578E+02  0.58616275158E+02  0.10566000000E+00 0. -1.
         23    2    1    0    0    0 -0.10604054931E+02 -0.28244429944E+02 -0.59530395783E+01  0.94248862069E+02  0.89091051836E+02 0.  0.
         13    1    3    3    0    0 -0.26379226551E+01  0.15899283749E+02  0.31779305000E+02  0.35632586911E+02  0.10566000000E+00 0.  1.
         22    1    1    0    0    0  0.10604054931E+02  0.28244429944E+02  0.59530395783E+01  0.30751137931E+02  0.00000000000E+00 0. -1.
</event>
<event>
 5    1  0.1319298E-009  0.9118800E+02  0.7818608E-02  0.1130116E+00
         25   -1    0    0    0    0  0.00000000000E+00  0.00000000000E+00  0.99999998245E-14  0.12500000000E+03  0.12500000000E+03 0.  0.
        -13    1    3    3    0    0  0.42336728998E+02  0.11339412186E+02  0.20771349747E+02  0.48501969293E+02  0.10566000000E+00 0.  1.
         23    2    1    0    0    0  0.18510340842E+02 -0.24136024687E+02  0.43914564791E+01  0.94267845898E+02  0.89117683287E+02 0.  0.
         13    1    3    3    0    0 -0.23826388156E+02 -0.35475436873E+02 -0.16379893268E+02  0.45765876605E+02  0.10566000000E+00 0. -1.
         22    1    1    0    0    0 -0.18510340842E+02  0.24136024687E+02 -0.43914564791E+01  0.30732154102E+02  0.00000000000E+00 0. -1.
</event>
<event>
 5    1  0.1319298E-009  0.9118800E+02  0.7818608E-02  0.1130116E+00
         25   -1    0    0    0    0  0.00000000000E+00  0.00000000000E+00  0.99999998245E-14  0.12500000000E+03  0.12500000000E+03 0.  0.
        -13    1    3    3    0    0 -0.28464835448E+02 -0.29434721984E+02 -0.44252276698E+02  0.60290338135E+02  0.10566000000E+00 0. -1.
         23    2    1    0    0    0 -0.50551009004E+01 -0.21995871482E+02 -0.23078422445E+02  0.92720192226E+02  0.86919779432E+02 0.  0.
         13    1    3    3    0    0  0.23409734548E+02  0.74388505019E+01  0.21173854254E+02  0.32429854091E+02  0.10566000000E+00 0.  1.
         22    1    1    0    0    0  0.50551009004E+01  0.21995871482E+02  0.23078422445E+02  0.32279807774E+02  0.00000000000E+00 0. -1.
</event>
<event>
 5    1  0.1319298E-009  0.9118800E+02  0.7818608E-02  0.1130116E+00
         25   -1    0    0    0    0  0.00000000000E+00  0.00000000000E+00  0.99999998245E-14  0.12500000000E+03  0.12500000000E+03 0.  0.
        -13    1    3    3    0    0 -0.32464275888E+02 -0.12867611884E+02  0.13521959577E+02  0.37448086725E+02  0.10566000000E+00 0.  1.
         23    2    1    0    0    0  0.18882182335E+02 -0.13712918693E+02 -0.16021456455E+02  0.96693322065E+02  0.92457182069E+02 0.  0.
         13    1    3    3    0    0  0.51346458222E+02 -0.84530680896E+00 -0.29543416032E+02  0.59245235340E+02  0.10566000000E+00 0. -1.
         22    1    1    0    0    0 -0.18882182335E+02  0.13712918693E+02  0.16021456455E+02  0.28306677935E+02  0.00000000000E+00 0. -1.
</event>
<event>
 5    1  0.1319298E-009  0.9118800E+02  0.7818608E-02  0.1130116E+00
         25   -1    0    0    0    0  0.00000000000E+00  0.00000000000E+00  0.99999998245E-14  0.12500000000E+03  0.12500000000E+03 0.  0.
        -13    1    3    3    0    0 -0.44287211552E+01  0.72804317980E+01 -0.48992508253E+02  0.49728214197E+02  0.10566000000E+00 0.  1.
         23    2    1    0    0    0 -0.24782447269E+02 -0.99983783814E+01 -0.11144048005E+02  0.96046121696E+02  0.91578001857E+02 0.  0.
         13    1    3    3    0    0 -0.20353726113E+02 -0.17278810179E+02  0.37848460248E+02  0.46317907499E+02  0.10566000000E+00 0. -1.
         22    1    1    0    0    0  0.24782447269E+02  0.99983783814E+01  0.11144048005E+02  0.28953878304E+02  0.00000000000E+00 0.  1.
</event>
<event>
 5    1  0.1319298E-009  0.9118800E+02  0.7818608E-02  0.1130116E+00
         25   -1    0    0    0    0  0.00000000000E+00  0.00000000000E+00  0.99999998245E-14  0.12500000000E+03  0.12500000000E+03 0.  0.
        -13    1    3    3    0    0  0.20871700596E+02  0.95298980016E+01 -0.55192768421E+02  0.59772064476E+02  0.10566000000E+00 0. -1.
         23    2    1    0    0    0  0.20251077403E+02  0.11633918448E+02 -0.22396665025E+02  0.92641619344E+02  0.86806709626E+02 0.  0.
         13    1    3    3    0    0 -0.62062319355E+00  0.21040204460E+01  0.32796103397E+02  0.32869554868E+02  0.10566000000E+00 0.  1.
         22    1    1    0    0    0 -0.20251077403E+02 -0.11633918448E+02  0.22396665025E+02  0.32358380656E+02  0.00000000000E+00 0. -1.
</event>
<event>
 5    1  0.1319298E-009  0.9118800E+02  0.7818608E-02  0.1130116E+00
         25   -1    0    0    0    0  0.00000000000E+00  0.00000000000E+00  0.99999998245E-14  0.12500000000E+03  0.12500000000E+03 0.  0.
        -13    1    3    3    0    0 -0.35372624652E+01  0.53057946436E+02  0.31114668719E+02  0.61609996586E+02  0.10566000000E+00 0.  1.
         23    2    1    0    0    0  0.56693874222E+01  0.25881551357E+02  0.13742478732E+02  0.95152849783E+02  0.90350497762E+02 0.  0.
         13    1    3    3    0    0  0.92066498874E+01 -0.27176395080E+02 -0.17372189987E+02  0.33542853198E+02  0.10566000000E+00 0. -1.
         22    1    1    0    0    0 -0.56693874222E+01 -0.25881551357E+02 -0.13742478732E+02  0.29847150217E+02  0.00000000000E+00 0.  1.
</event>
<event>
 5    1  0.1319298E-009  0.9118800E+02  0.7818608E-02  0.1130116E+00
         25   -1    0    0    0    0  0.00000000000E+00  0.00000000000E+00  0.99999998245E-14  0.12500000000E+03  0.12500000000E+03 0.  0.
        -13    1    3    3    0    0 -0.53492512053E+02  0.18963970738E+02 -0.77698685726E+01  0.57284055840E+02  0.10566000000E+00 0. -1.
         23    2    1    0    0    0 -0.15918502342E+02  0.24572680977E+02 -0.33737711387E+01  0.95528018409E+02  0.90868061508E+02 0.  0.
         13    1    3    3    0    0  0.37574009710E+02  0.56087102393E+01  0.43960974339E+01  0.38243962569E+02  0.10566000000E+00 0.  1.
         22    1    1    0    0    0  0.15918502342E+02 -0.24572680977E+02  0.33737711387E+01  0.29471981591E+02  0.00000000000E+00 0. -1.
</event>
<event>
 5    1  0.1319298E-009  0.9118800E+02  0.7818608E-02  0.1130116E+00
         25   -1    0    0    0    0  0.00000000000E+00  0.00000000000E+00  0.99999998245E-14  0.12500000000E+03  0.12500000000E+03 0.  0.
        -13    1    3    3    0    0  0.28785522370E+02 -0.21959763275E+02  0.56839625217E+01  0.36649094057E+02  0.10566000000E+00 0. -1.
         23    2    1    0    0    0 -0.34369987458E+01  0.20641462912E+02 -0.20120357790E+02  0.95970502086E+02  0.91474726135E+02 0.  0.
         13    1    3    3    0    0 -0.32222521116E+02  0.42601226187E+02 -0.25804320312E+02  0.59321408029E+02  0.10566000000E+00 0.  1.
         22    1    1    0    0    0  0.34369987458E+01 -0.20641462912E+02  0.20120357790E+02  0.29029497914E+02  0.00000000000E+00 0.  1.
</event>
<event>
 5    1  0.1319298E-009  0.9118800E+02  0.7818608E-02  0.1130116E+00
         25   -1    0    0    0    0  0.00000000000E+00  0.00000000000E+00  0.99999998245E-14  0.12500000000E+03  0.12500000000E+03 0.  0.
        -13    1    3    3    0    0 -0.14681683282E+02  0.37559030898E+02 -0.62113261496E+01  0.40802259283E+02  0.10566000000E+00 0. -1.
         23    2    1    0    0    0 -0.69730497564E+01 -0.18085381977E+02 -0.18387764926E+02  0.98282695437E+02  0.94581572514E+02 0.  0.
         13    1    3    3    0    0  0.77086335255E+01 -0.55644412876E+02 -0.12176438776E+02  0.57480436154E+02  0.10566000000E+00 0.  1.
         22    1    1    0    0    0  0.69730497564E+01  0.18085381977E+02  0.18387764926E+02  0.26717304563E+02  0.00000000000E+00 0.  1.
</event>
<event>
 5    1  0.1319298E-009  0.9118800E+02  0.7818608E-02  0.1130116E+00
         25   -1    0    0    0    0  0.00000000000E+00  0.00000000000E+00  0.99999998245E-14  0.12500000000E+03  0.12500000000E+03 0.  0.
        -13    1    3    3    0    0  0.31729141694E+01  0.25528422936E+02  0.23797496806E+02  0.35044254596E+02  0.10566000000E+00 0. -1.
         23    2    1    0    0    0 -0.13826204307E+02 -0.24502673721E+02 -0.67338848955E+01  0.96070946251E+02  0.91611880031E+02 0.  0.
         13    1    3    3    0    0 -0.16999118476E+02 -0.50031096657E+02 -0.30531381702E+02  0.61026691655E+02  0.10566000000E+00 0.  1.
         22    1    1    0    0    0  0.13826204307E+02  0.24502673721E+02  0.67338848955E+01  0.28929053749E+02  0.00000000000E+00 0.  1.
</event>
<event>
 5    1  0.1319298E-009  0.9118800E+02  0.7818608E-02  0.1130116E+00
         25   -1    0    0    0    0  0.00000000000E+00  0.00000000000E+00  0.99999998245E-14  0.12500000000E+03  0.12500000000E+03 0.  0.
        -13    1    3    3    0    0  0.25542255152E+02 -0.49047738124E+02 -0.10257736611E+02  0.56243397282E+02  0.10566000000E+00 0. -1.
         23    2    1    0    0    0  0.13121384508E+01 -0.21045032205E+02 -0.21443110560E+02  0.94926389004E+02  0.90036643935E+02 0.  0.
         13    1    3    3    0    0 -0.24230116701E+02  0.28002705920E+02 -0.11185373950E+02  0.38682991722E+02  0.10566000000E+00 0.  1.
         22    1    1    0    0    0 -0.13121384508E+01  0.21045032205E+02  0.21443110560E+02  0.30073610996E+02  0.00000000000E+00 0. -1.
</event>
<event>
 5    1  0.1319298E-009  0.9118800E+02  0.7818608E-02  0.1130116E+00
         25   -1    0    0    0    0  0.00000000000E+00  0.00000000000E+00  0.99999998245E-14  0.12500000000E+03  0.12500000000E+03 0.  0.
        -13    1    3    3    0    0  0.47755823116E+02  0.27850316542E+02  0.17095702569E+02  0.57866510033E+02  0.10566000000E+00 0.  1.
         23    2    1    0    0    0  0.10338479697E+02  0.22746812475E+02  0.15359984660E+02  0.95670309088E+02  0.91063589167E+02 0.  0.
         13    1    3    3    0    0 -0.37417343420E+02 -0.51035040664E+01 -0.17357179090E+01  0.37803799055E+02  0.10566000000E+00 0. -1.
         22    1    1    0    0    0 -0.10338479697E+02 -0.22746812475E+02 -0.15359984660E+02  0.29329690912E+02  0.00000000000E+00 0.  1.
</event>
<event>
 5    1  0.1319298E-009  0.9118800E+02  0.7818608E-02  0.1130116E+00
         25   -1    0    0    0    0  0.00000000000E+00  0.00000000000E+00  0.99999998245E-14  0.12500000000E+03  0.12500000000E+03 0.  0.
        -13    1    3    3    0    0 -0.18035720974E+02  0.39439146945E+02 -0.40046499874E+02  0.59029372849E+02  0.10566000000E+00 0. -1.
         23    2    1    0    0    0  0.61167065294E+01  0.19016445217E+02 -0.21306046351E+02  0.95794060560E+02  0.91233300609E+02 0.  0.
         13    1    3    3    0    0  0.24152427504E+02 -0.20422701728E+02  0.18740453523E+02  0.36764687711E+02  0.10566000000E+00 0.  1.
         22    1    1    0    0    0 -0.61167065294E+01 -0.19016445217E+02  0.21306046351E+02  0.29205939440E+02  0.00000000000E+00 0. -1.
</event>
<event>
 5    1  0.1319298E-009  0.9118800E+02  0.7818608E-02  0.1130116E+00
         25   -1    0    0    0    0  0.00000000000E+00  0.00000000000E+00  0.99999998245E-14  0.12500000000E+03  0.12500000000E+03 0.  0.
        -13    1    3    3    0    0  0.38318905738E+02  0.96230477454E+01 -0.20887475977E+02  0.44690484464E+02  0.10566000000E+00 0.  1.
         23    2    1    0    0    0  0.10398900510E+02 -0.28018452732E+02 -0.25888404544E+01  0.95002118071E+02  0.90141719074E+02 0.  0.
         13    1    3    3    0    0 -0.27920005228E+02 -0.37641500478E+02  0.18298635523E+02  0.50311633607E+02  0.10566000000E+00 0. -1.
         22    1    1    0    0    0 -0.10398900510E+02  0.28018452732E+02  0.25888404544E+01  0.29997881929E+02  0.00000000000E+00 0. -1.
</event>
<event>
 5    1  0.1319298E-009  0.9118800E+02  0.7818608E-02  0.1130116E+00
         25   -1    0    0    0    0  0.00000000000E+00  0.00000000000E+00  0.99999998245E-14  0.12500000000E+03  0.12500000000E+03 0.  0.
        -13    1    3    3    0    0  0.69829560095E+01 -0.31978854414E+02  0.42148648008E+02  0.53365986332E+02  0.10566000000E+00 0.  1.
         23    2    1    0    0    0  0.24643088395E+02 -0.46029602691E+01  0.21807746476E+02  0.91772799467E+02  0.85546477816E+02 0.  0.
         13    1    3    3    0    0  0.17660132385E+02  0.27375894144E+02 -0.20340901532E+02  0.38406813135E+02  0.10566000000E+00 0. -1.
         22    1    1    0    0    0 -0.24643088395E+02  0.46029602691E+01 -0.21807746476E+02  0.33227200533E+02  0.00000000000E+00 0. -1.
</event>
<event>
 5    1  0.1319298E-009  0.9118800E+02  0.7818608E-02  0.1130116E+00
         25   -1    0    0    0    0  0.00000000000E+00  0.00000000000E+00  0.99999998245E-14  0.12500000000E+03  0.12500000000E+03 0.  0.
        -13    1    3    3    0    0 -0.19191091366E+02 -0.36943640887E+02  0.38799094581E+02  0.56907921190E+02  0.10566000000E+00 0. -1.
         23    2    1    0    0    0  0.68892787966E+01 -0.25857387915E+02  0.12922422839E+02  0.95283747138E+02  0.90531413247E+02 0.  0.
         13    1    3    3    0    0  0.26080370162E+02  0.11086252972E+02 -0.25876671742E+02  0.38375825949E+02  0.10566000000E+00 0.  1.
         22    1    1    0    0    0 -0.68892787966E+01  0.25857387915E+02 -0.12922422839E+02  0.29716252862E+02  0.00000000000E+00 0. -1.
</event>
<event>
 5    1  0.1319298E-009  0.9118800E+02  0.7818608E-02  0.1130116E+00
         25   -1    0    0    0    0  0.00000000000E+00  0.00000000000E+00  0.99999998245E-14  0.12500000000E+03  0.12500000000E+03 0.  0.
        -13    1    3    3    0    0 -0.33342059095E+02 -0.40937622046E+02  0.22709358322E+02  0.57474411027E+02  0.10566000000E+00 0.  1.
         23    2    1    0    0    0 -0.32507233014E+01 -0.17823145949E+02  0.23376634471E+02  0.95424693194E+02  0.90725813848E+02 0.  0.
         13    1    3    3    0    0  0.30091335794E+02  0.23114476097E+02  0.66727614893E+00  0.37950282167E+02  0.10566000000E+00 0. -1.
         22    1    1    0    0    0  0.32507233014E+01  0.17823145949E+02 -0.23376634471E+02  0.29575306806E+02  0.00000000000E+00 0.  1.
</event>
<event>
 5    1  0.1319298E-009  0.9118800E+02  0.7818608E-02  0.1130116E+00
         25   -1    0    0    0    0  0.00000000000E+00  0.00000000000E+00  0.99999998245E-14  0.12500000000E+03  0.12500000000E+03 0.  0.
        -13    1    3    3    0    0  0.18069625513E+02 -0.11768560427E+01 -0.59502581423E+02  0.62196983178E+02  0.10566000000E+00 0. -1.
         23    2    1    0    0    0  0.10068101782E+02  0.34258552630E+01 -0.27133080455E+02  0.95857124151E+02  0.91319664026E+02 0.  0.
         13    1    3    3    0    0 -0.80015237311E+01  0.46027113057E+01  0.32369500969E+02  0.33660140974E+02  0.10566000000E+00 0.  1.
         22    1    1    0    0    0 -0.10068101782E+02 -0.34258552630E+01  0.27133080455E+02  0.29142875849E+02  0.00000000000E+00 0. -1.
</event>
<event>
 5    1  0.1319298E-009  0.9118800E+02  0.7818608E-02  0.1130116E+00
         25   -1    0    0    0    0  0.00000000000E+00  0.00000000000E+00  0.99999998245E-14  0.12500000000E+03  0.12500000000E+03 0.  0.
        -13    1    3    3    0    0 -0.70250678140E+01  0.11140411092E+02  0.39480696704E+02  0.41619669789E+02  0.10566000000E+00 0.  1.
         23    2    1    0    0    0 -0.22985016324E+01 -0.25122455848E+02 -0.50810926761E+01  0.99266006910E+02  0.95872319923E+02 0.  0.
         13    1    3    3    0    0  0.47265661816E+01 -0.36262866941E+02 -0.44561789380E+02  0.57646337120E+02  0.10566000000E+00 0. -1.
         22    1    1    0    0    0  0.22985016324E+01  0.25122455848E+02  0.50810926761E+01  0.25733993090E+02  0.00000000000E+00 0. -1.
</event>
<event>
 5    1  0.1319298E-009  0.9118800E+02  0.7818608E-02  0.1130116E+00
         25   -1    0    0    0    0  0.00000000000E+00  0.00000000000E+00  0.99999998245E-14  0.12500000000E+03  0.12500000000E+03 0.  0.
        -13    1    3    3    0    0 -0.25634067947E+02  0.27472965889E+02 -0.40024805060E+02  0.54898683758E+02  0.10566000000E+00 0.  1.
         23    2    1    0    0    0  0.42210595224E+01  0.25999949024E+02 -0.11356739499E+02  0.96315679810E+02  0.91945200812E+02 0.  0.
         13    1    3    3    0    0  0.29855127469E+02 -0.14730168653E+01  0.28668065561E+02  0.41416996051E+02  0.10566000000E+00 0. -1.
         22    1    1    0    0    0 -0.42210595224E+01 -0.25999949024E+02  0.11356739499E+02  0.28684320190E+02  0.00000000000E+00 0.  1.
</event>
<event>
 5    1  0.1319298E-009  0.9118800E+02  0.7818608E-02  0.1130116E+00
         25   -1    0    0    0    0  0.00000000000E+00  0.00000000000E+00  0.99999998245E-14  0.12500000000E+03  0.12500000000E+03 0.  0.
        -13    1    3    3    0    0 -0.48513427964E+02 -0.17440602437E+02  0.28655913173E+02  0.58982199264E+02  0.10566000000E+00 0. -1.
         23    2    1    0    0    0 -0.27537836865E+02 -0.68815019801E+01 -0.73882178892E+00  0.96605750823E+02  0.92338711848E+02 0.  0.
         13    1    3    3    0    0  0.20975591100E+02  0.10559100457E+02 -0.29394734962E+02  0.37623551559E+02  0.10566000000E+00 0.  1.
         22    1    1    0    0    0  0.27537836865E+02  0.68815019801E+01  0.73882178892E+00  0.28394249177E+02  0.00000000000E+00 0. -1.
</event>
<event>
 5    1  0.1319298E-009  0.9118800E+02  0.7818608E-02  0.1130116E+00
         25   -1    0    0    0    0  0.00000000000E+00  0.00000000000E+00  0.99999998245E-14  0.12500000000E+03  0.12500000000E+03 0.  0.
        -13    1    3    3    0    0 -0.77962327803E+01  0.61034450523E+02  0.15455210390E+01  0.61549859427E+02  0.10566000000E+00 0.  1.
         23    2    1    0    0    0  0.88132729869E+00  0.29746346762E+02  0.68830923257E+01  0.94454970233E+02  0.89379765934E+02 0.  0.
         13    1    3    3    0    0  0.86775600790E+01 -0.31288103761E+02  0.53375712867E+01  0.32905110806E+02  0.10566000000E+00 0. -1.
         22    1    1    0    0    0 -0.88132729869E+00 -0.29746346762E+02 -0.68830923257E+01  0.30545029767E+02  0.00000000000E+00 0.  1.
</event>
<event>
 5    1  0.1319298E-009  0.9118800E+02  0.7818608E-02  0.1130116E+00
         25   -1    0    0    0    0  0.00000000000E+00  0.00000000000E+00  0.99999998245E-14  0.12500000000E+03  0.12500000000E+03 0.  0.
        -13    1    3    3    0    0  0.29691523767E+02 -0.39097490075E+02  0.37652923954E+02  0.61870462743E+02  0.10566000000E+00 0. -1.
         23    2    1    0    0    0  0.84959631508E+01 -0.19327486271E+02  0.20616017490E+02  0.95491470851E+02  0.90817772009E+02 0.  0.
         13    1    3    3    0    0 -0.21195560616E+02  0.19770003805E+02 -0.17036906464E+02  0.33621008107E+02  0.10566000000E+00 0.  1.
         22    1    1    0    0    0 -0.84959631508E+01  0.19327486271E+02 -0.20616017490E+02  0.29508529149E+02  0.00000000000E+00 0. -1.
</event>
<event>
 5    1  0.1319298E-009  0.9118800E+02  0.7818608E-02  0.1130116E+00
         25   -1    0    0    0    0  0.00000000000E+00  0.00000000000E+00  0.99999998245E-14  0.12500000000E+03  0.12500000000E+03 0.  0.
        -13    1    3    3    0    0 -0.48602952799E+02 -0.27106821479E+02 -0.24645023652E+02  0.60863906762E+02  0.10566000000E+00 0.  1.
         23    2    1    0    0    0 -0.29395511928E+02 -0.91080790267E+01 -0.47457149210E+01  0.93862000142E+02  0.88546598102E+02 0.  0.
         13    1    3    3    0    0  0.19207440872E+02  0.17998742452E+02  0.19899308731E+02  0.32998093380E+02  0.10566000000E+00 0. -1.
         22    1    1    0    0    0  0.29395511928E+02  0.91080790267E+01  0.47457149210E+01  0.31137999858E+02  0.00000000000E+00 0.  1.
</event>
<event>
 5    1  0.1319298E-009  0.9118800E+02  0.7818608E-02  0.1130116E+00
         25   -1    0    0    0    0  0.00000000000E+00  0.00000000000E+00  0.99999998245E-14  0.12500000000E+03  0.12500000000E+03 0.  0.
        -13    1    3    3    0    0 -0.28633560242E+02  0.15318742051E+02  0.66193671469E+01  0.33141693011E+02  0.10566000000E+00 0.  1.
         23    2    1    0    0    0  0.20215357661E+02 -0.21185059131E+02 -0.52032623909E+01  0.95258760025E+02  0.90496906059E+02 0.  0.
         13    1    3    3    0    0  0.48848917904E+02 -0.36503801182E+02 -0.11822629538E+02  0.62117067013E+02  0.10566000000E+00 0. -1.
         22    1    1    0    0    0 -0.20215357661E+02  0.21185059131E+02  0.52032623909E+01  0.29741239975E+02  0.00000000000E+00 0. -1.
</event>
<event>
 5    1  0.1319298E-009  0.9118800E+02  0.7818608E-02  0.1130116E+00
         25   -1    0    0    0    0  0.00000000000E+00  0.00000000000E+00  0.99999998245E-14  0.12500000000E+03  0.12500000000E+03 0.  0.
        -13    1    3    3    0    0  0.32032946541E+02  0.94633546024E+01  0.16358885588E+02  0.37192593969E+02  0.10566000000E+00 0.  1.
         23    2    1    0    0    0  0.80699158427E+01 -0.31809841198E+02 -0.86334117091E+01  0.91065867677E+02  0.84507200399E+02 0.  0.
         13    1    3    3    0    0 -0.23963030698E+02 -0.41273195800E+02 -0.24992297297E+02  0.53873273708E+02  0.10566000000E+00 0. -1.
         22    1    1    0    0    0 -0.80699158427E+01  0.31809841198E+02  0.86334117091E+01  0.33934132323E+02  0.00000000000E+00 0.  1.
</event>
<event>
 5    1  0.1319298E-009  0.9118800E+02  0.7818608E-02  0.1130116E+00
         25   -1    0    0    0    0  0.00000000000E+00  0.00000000000E+00  0.99999998245E-14  0.12500000000E+03  0.12500000000E+03 0.  0.
        -13    1    3    3    0    0  0.23613601358E+02  0.12122349793E+02  0.23743173650E+02  0.35613241816E+02  0.10566000000E+00 0.  1.
         23    2    1    0    0    0 -0.11545380846E+01  0.39693001170E+01 -0.29665697252E+02  0.95047672961E+02  0.90204868163E+02 0.  0.
         13    1    3    3    0    0 -0.24768139443E+02 -0.81530496756E+01 -0.53408870902E+02  0.59434431145E+02  0.10566000000E+00 0. -1.
         22    1    1    0    0    0  0.11545380846E+01 -0.39693001170E+01  0.29665697252E+02  0.29952327039E+02  0.00000000000E+00 0. -1.
</event>
<event>
 5    1  0.1319298E-009  0.9118800E+02  0.7818608E-02  0.1130116E+00
         25   -1    0    0    0    0  0.00000000000E+00  0.00000000000E+00  0.99999998245E-14  0.12500000000E+03  0.12500000000E+03 0.  0.
        -13    1    3    3    0    0  0.31705886737E+01  0.61246345669E+01 -0.38548093283E+02  0.39160317171E+02  0.10566000000E+00 0.  1.
         23    2    1    0    0    0 -0.23351579536E+02  0.13862856701E+02  0.10847230433E+02  0.95757266359E+02  0.91182874432E+02 0.  0.
         13    1    3    3    0    0 -0.26522168209E+02  0.77382221344E+01  0.49395323716E+02  0.56596949188E+02  0.10566000000E+00 0. -1.
         22    1    1    0    0    0  0.23351579536E+02 -0.13862856701E+02 -0.10847230433E+02  0.29242733641E+02  0.00000000000E+00 0. -1.
</event>
<event>
 5    1  0.1319298E-009  0.9118800E+02  0.7818608E-02  0.1130116E+00
         25   -1    0    0    0    0  0.00000000000E+00  0.00000000000E+00  0.99999998245E-14  0.12500000000E+03  0.12500000000E+03 0.  0.
        -13    1    3    3    0    0  0.25944605869E+02  0.25680223452E+02  0.19799501360E+02  0.41528639134E+02  0.10566000000E+00 0.  1.
         23    2    1    0    0    0 -0.23190919952E+02  0.92199859837E+01  0.19466686960E+02  0.93349110424E+02  0.87819574162E+02 0.  0.
         13    1    3    3    0    0 -0.49135525821E+02 -0.16460237468E+02 -0.33281440063E+00  0.51820471290E+02  0.10566000000E+00 0. -1.
         22    1    1    0    0    0  0.23190919952E+02 -0.92199859837E+01 -0.19466686960E+02  0.31650889576E+02  0.00000000000E+00 0. -1.
</event>
<event>
 5    1  0.1319298E-009  0.9118800E+02  0.7818608E-02  0.1130116E+00
         25   -1    0    0    0    0  0.00000000000E+00  0.00000000000E+00  0.99999998245E-14  0.12500000000E+03  0.12500000000E+03 0.  0.
        -13    1    3    3    0    0  0.32777568770E+02  0.37743535044E+02 -0.36988211499E+02  0.62185869826E+02  0.10566000000E+00 0. -1.
         23    2    1    0    0    0  0.18503507136E+02  0.15051388699E+02 -0.19466990286E+02  0.94212213641E+02  0.89039617083E+02 0.  0.
         13    1    3    3    0    0 -0.14274061634E+02 -0.22692146345E+02  0.17521221213E+02  0.32026343814E+02  0.10566000000E+00 0.  1.
         22    1    1    0    0    0 -0.18503507136E+02 -0.15051388699E+02  0.19466990286E+02  0.30787786359E+02  0.00000000000E+00 0. -1.
</event>
<event>
 5    1  0.1319298E-009  0.9118800E+02  0.7818608E-02  0.1130116E+00
         25   -1    0    0    0    0  0.00000000000E+00  0.00000000000E+00  0.99999998245E-14  0.12500000000E+03  0.12500000000E+03 0.  0.
        -13    1    3    3    0    0  0.14796048699E+02 -0.44335315138E+02 -0.37341033125E+02  0.59823967976E+02  0.10566000000E+00 0.  1.
         23    2    1    0    0    0  0.16229017489E+02 -0.27703543837E+02 -0.10901510824E+02  0.91092621923E+02  0.84546765052E+02 0.  0.
         13    1    3    3    0    0  0.14329687905E+01  0.16631771301E+02  0.26439522301E+02  0.31268653948E+02  0.10566000000E+00 0. -1.
         22    1    1    0    0    0 -0.16229017489E+02  0.27703543837E+02  0.10901510824E+02  0.33907378077E+02  0.00000000000E+00 0.  1.
</event>
<event>
 5    1  0.1319298E-009  0.9118800E+02  0.7818608E-02  0.1130116E+00
         25   -1    0    0    0    0  0.00000000000E+00  0.00000000000E+00  0.99999998245E-14  0.12500000000E+03  0.12500000000E+03 0.  0.
        -13    1    3    3    0    0  0.48353366277E+02  0.32443321390E+01 -0.31158806662E+02  0.57614721365E+02  0.10566000000E+00 0. -1.
         23    2    1    0    0    0  0.29784799464E+02 -0.20267327216E-01  0.13385068863E+01  0.95185133062E+02  0.90395150675E+02 0.  0.
         13    1    3    3    0    0 -0.18568566813E+02 -0.32645994662E+01  0.32497313549E+02  0.37570411697E+02  0.10566000000E+00 0.  1.
         22    1    1    0    0    0 -0.29784799464E+02  0.20267327216E-01 -0.13385068863E+01  0.29814866938E+02  0.00000000000E+00 0. -1.
</event>
<event>
 5    1  0.1319298E-009  0.9118800E+02  0.7818608E-02  0.1130116E+00
         25   -1    0    0    0    0  0.00000000000E+00  0.00000000000E+00  0.99999998245E-14  0.12500000000E+03  0.12500000000E+03 0.  0.
        -13    1    3    3    0    0 -0.40306072662E+02  0.16773513514E+02 -0.18181561530E+02  0.47291760305E+02  0.10566000000E+00 0. -1.
         23    2    1    0    0    0 -0.94685040819E+01 -0.19711111142E+02 -0.20372468158E+02  0.95113248238E+02  0.90295692364E+02 0.  0.
         13    1    3    3    0    0  0.30837568580E+02 -0.36484624656E+02 -0.21909066280E+01  0.47821487933E+02  0.10566000000E+00 0.  1.
         22    1    1    0    0    0  0.94685040819E+01  0.19711111142E+02  0.20372468158E+02  0.29886751762E+02  0.00000000000E+00 0.  1.
</event>
<event>
 5    1  0.1319298E-009  0.9118800E+02  0.7818608E-02  0.1130116E+00
         25   -1    0    0    0    0  0.00000000000E+00  0.00000000000E+00  0.99999998245E-14  0.12500000000E+03  0.12500000000E+03 0.  0.
        -13    1    3    3    0    0  0.88658642099E+01 -0.34282499678E+02  0.74789822282E+01  0.36191707221E+02  0.10566000000E+00 0.  1.
         23    2    1    0    0    0  0.61705270197E+01  0.17830174505E+02 -0.21913793834E+02  0.96082792549E+02  0.91628042308E+02 0.  0.
         13    1    3    3    0    0 -0.26953371902E+01  0.52112674183E+02 -0.29392776062E+02  0.59891085328E+02  0.10566000000E+00 0. -1.
         22    1    1    0    0    0 -0.61705270197E+01 -0.17830174505E+02  0.21913793834E+02  0.28917207451E+02  0.00000000000E+00 0. -1.
</event>
<event>
 5    1  0.1319298E-009  0.9118800E+02  0.7818608E-02  0.1130116E+00
         25   -1    0    0    0    0  0.00000000000E+00  0.00000000000E+00  0.99999998245E-14  0.12500000000E+03  0.12500000000E+03 0.  0.
        -13    1    3    3    0    0 -0.43071156999E+02 -0.38464371821E+02 -0.18937940707E+01  0.57777418468E+02  0.10566000000E+00 0. -1.
         23    2    1    0    0    0 -0.30031231608E+02 -0.68033856353E+01 -0.93467354240E+01  0.92820466270E+02  0.87063864878E+02 0.  0.
         13    1    3    3    0    0  0.13039925391E+02  0.31660986185E+02 -0.74529413533E+01  0.35043047802E+02  0.10566000000E+00 0.  1.
         22    1    1    0    0    0  0.30031231608E+02  0.68033856353E+01  0.93467354240E+01  0.32179533730E+02  0.00000000000E+00 0.  1.
</event>
<event>
 5    1  0.1319298E-009  0.9118800E+02  0.7818608E-02  0.1130116E+00
         25   -1    0    0    0    0  0.00000000000E+00  0.00000000000E+00  0.99999998245E-14  0.12500000000E+03  0.12500000000E+03 0.  0.
        -13    1    3    3    0    0  0.37665891041E+01 -0.66360026184E+01  0.22887640798E+02  0.24126313219E+02  0.10566000000E+00 0. -1.
         23    2    1    0    0    0 -0.39694637892E+01 -0.19302495816E+02 -0.35514210029E+02  0.84384706065E+02  0.73967401713E+02 0.  0.
         13    1    3    3    0    0 -0.77360528933E+01 -0.12666493198E+02 -0.58401850826E+02  0.60258392845E+02  0.10566000000E+00 0.  1.
         22    1    1    0    0    0  0.39694637892E+01  0.19302495816E+02  0.35514210029E+02  0.40615293935E+02  0.00000000000E+00 0.  1.
</event>
<event>
 5    1  0.1319298E-009  0.9118800E+02  0.7818608E-02  0.1130116E+00
         25   -1    0    0    0    0  0.00000000000E+00  0.00000000000E+00  0.99999998245E-14  0.12500000000E+03  0.12500000000E+03 0.  0.
        -13    1    3    3    0    0 -0.17154082398E+02  0.37493126608E+02  0.28984681938E+02  0.50399603539E+02  0.10566000000E+00 0. -1.
         23    2    1    0    0    0  0.19578895553E+02  0.11602935490E+02  0.16005881350E+02  0.97176457794E+02  0.93108079394E+02 0.  0.
         13    1    3    3    0    0  0.36732977951E+02 -0.25890191118E+02 -0.12978800587E+02  0.46776854255E+02  0.10566000000E+00 0.  1.
         22    1    1    0    0    0 -0.19578895553E+02 -0.11602935490E+02 -0.16005881350E+02  0.27823542206E+02  0.00000000000E+00 0.  1.
</event>
<event>
 5    1  0.1319298E-009  0.9118800E+02  0.7818608E-02  0.1130116E+00
         25   -1    0    0    0    0  0.00000000000E+00  0.00000000000E+00  0.99999998245E-14  0.12500000000E+03  0.12500000000E+03 0.  0.
        -13    1    3    3    0    0  0.25534466404E+01  0.38810715149E+02 -0.30916827602E+01  0.39017449512E+02  0.10566000000E+00 0.  1.
         23    2    1    0    0    0 -0.15512934694E+02 -0.66481227691E+01  0.24552886441E+02  0.95205824197E+02  0.90423758213E+02 0.  0.
         13    1    3    3    0    0 -0.18066381334E+02 -0.45458837918E+02  0.27644569201E+02  0.56188374685E+02  0.10566000000E+00 0. -1.
         22    1    1    0    0    0  0.15512934694E+02  0.66481227691E+01 -0.24552886441E+02  0.29794175803E+02  0.00000000000E+00 0. -1.
</event>
<event>
 5    1  0.1319298E-009  0.9118800E+02  0.7818608E-02  0.1130116E+00
         25   -1    0    0    0    0  0.00000000000E+00  0.00000000000E+00  0.99999998245E-14  0.12500000000E+03  0.12500000000E+03 0.  0.
        -13    1    3    3    0    0  0.41940139228E+02 -0.32896928424E+02  0.13874306477E+02  0.55078949903E+02  0.10566000000E+00 0.  1.
         23    2    1    0    0    0  0.80223445568E+01 -0.13261032132E+02  0.24791166182E+02  0.95762782177E+02  0.91190435596E+02 0.  0.
         13    1    3    3    0    0 -0.33917794671E+02  0.19635896292E+02  0.10916859705E+02  0.40683832273E+02  0.10566000000E+00 0. -1.
         22    1    1    0    0    0 -0.80223445568E+01  0.13261032132E+02 -0.24791166182E+02  0.29237217823E+02  0.00000000000E+00 0.  1.
</event>
<event>
 5    1  0.1319298E-009  0.9118800E+02  0.7818608E-02  0.1130116E+00
         25   -1    0    0    0    0  0.00000000000E+00  0.00000000000E+00  0.99999998245E-14  0.12500000000E+03  0.12500000000E+03 0.  0.
        -13    1    3    3    0    0  0.47122672468E+02 -0.15243478841E+02 -0.49509200960E+01  0.49773815220E+02  0.10566000000E+00 0.  1.
         23    2    1    0    0    0 -0.47380158872E+01  0.12728450611E+02 -0.87897698335E+01  0.10882216630E+03  0.10761292476E+03 0.  0.
         13    1    3    3    0    0 -0.51860688355E+02  0.27971929451E+02 -0.38388497375E+01  0.59048351080E+02  0.10566000000E+00 0. -1.
         22    1    1    0    0    0  0.47380158872E+01 -0.12728450611E+02  0.87897698335E+01  0.16177833700E+02  0.00000000000E+00 0. -1.
</event>
<event>
 5    1  0.1319298E-009  0.9118800E+02  0.7818608E-02  0.1130116E+00
         25   -1    0    0    0    0  0.00000000000E+00  0.00000000000E+00  0.99999998245E-14  0.12500000000E+03  0.12500000000E+03 0.  0.
        -13    1    3    3    0    0  0.37203601079E+02  0.12515292231E+02  0.72926829760E+00  0.39259183246E+02  0.10566000000E+00 0.  1.
         23    2    1    0    0    0 -0.12848986692E+02 -0.20178065381E+02  0.86430917222E+01  0.99564713172E+02  0.96260990504E+02 0.  0.
         13    1    3    3    0    0 -0.50052587770E+02 -0.32693357612E+02  0.79138234246E+01  0.60305529926E+02  0.10566000000E+00 0. -1.
         22    1    1    0    0    0  0.12848986692E+02  0.20178065381E+02 -0.86430917222E+01  0.25435286828E+02  0.00000000000E+00 0. -1.
</event>
<event>
 5    1  0.1319298E-009  0.9118800E+02  0.7818608E-02  0.1130116E+00
         25   -1    0    0    0    0  0.00000000000E+00  0.00000000000E+00  0.99999998245E-14  0.12500000000E+03  0.12500000000E+03 0.  0.
        -13    1    3    3    0    0  0.76392278200E+01  0.21092898143E+02 -0.38997901474E+02  0.44990172673E+02  0.10566000000E+00 0. -1.
         23    2    1    0    0    0 -0.17838194119E+02 -0.16594639783E+02 -0.13048602098E+02  0.97362177082E+02  0.93357079380E+02 0.  0.
         13    1    3    3    0    0 -0.25477421939E+02 -0.37687537926E+02  0.25949299376E+02  0.52372004408E+02  0.10566000000E+00 0.  1.
         22    1    1    0    0    0  0.17838194119E+02  0.16594639783E+02  0.13048602098E+02  0.27637822918E+02  0.00000000000E+00 0.  1.
</event>
<event>
 5    1  0.1319298E-009  0.9118800E+02  0.7818608E-02  0.1130116E+00
         25   -1    0    0    0    0  0.00000000000E+00  0.00000000000E+00  0.99999998245E-14  0.12500000000E+03  0.12500000000E+03 0.  0.
        -13    1    3    3    0    0  0.10956324653E+02  0.91205487628E+01 -0.22308174920E+01  0.14429593562E+02  0.10566000000E+00 0. -1.
         23    2    1    0    0    0 -0.32539826574E+02 -0.94039126923E+01  0.36250538335E+02  0.75387749325E+02  0.56762111759E+02 0.  0.
         13    1    3    3    0    0 -0.43496151227E+02 -0.18524461455E+02  0.38481355827E+02  0.60958155764E+02  0.10566000000E+00 0.  1.
         22    1    1    0    0    0  0.32539826574E+02  0.94039126923E+01 -0.36250538335E+02  0.49612250675E+02  0.00000000000E+00 0.  1.
</event>
<event>
 5    1  0.1319298E-009  0.9118800E+02  0.7818608E-02  0.1130116E+00
         25   -1    0    0    0    0  0.00000000000E+00  0.00000000000E+00  0.99999998245E-14  0.12500000000E+03  0.12500000000E+03 0.  0.
        -13    1    3    3    0    0  0.18638760590E+02  0.41942544043E+02 -0.14848417689E+02  0.48239683550E+02  0.10566000000E+00 0. -1.
         23    2    1    0    0    0 -0.21716325438E+02  0.18156827767E+02 -0.31742026544E+01  0.96515886049E+02  0.92216980607E+02 0.  0.
         13    1    3    3    0    0 -0.40355086027E+02 -0.23785716276E+02  0.11674215035E+02  0.48276202499E+02  0.10566000000E+00 0.  1.
         22    1    1    0    0    0  0.21716325438E+02 -0.18156827767E+02  0.31742026544E+01  0.28484113951E+02  0.00000000000E+00 0.  1.
</event>
<event>
 5    1  0.1319298E-009  0.9118800E+02  0.7818608E-02  0.1130116E+00
         25   -1    0    0    0    0  0.00000000000E+00  0.00000000000E+00  0.99999998245E-14  0.12500000000E+03  0.12500000000E+03 0.  0.
        -13    1    3    3    0    0 -0.22492448634E+01  0.40324494048E+02 -0.34923582822E+02  0.53392805918E+02  0.10566000000E+00 0. -1.
         23    2    1    0    0    0 -0.34207307791E+01 -0.15110624001E+01 -0.29114725289E+02  0.95646091618E+02  0.91030340571E+02 0.  0.
         13    1    3    3    0    0 -0.11714859157E+01 -0.41835556448E+02  0.58088575325E+01  0.42253285700E+02  0.10566000000E+00 0.  1.
         22    1    1    0    0    0  0.34207307791E+01  0.15110624001E+01  0.29114725289E+02  0.29353908382E+02  0.00000000000E+00 0. -1.
</event>
<event>
 5    1  0.1319298E-009  0.9118800E+02  0.7818608E-02  0.1130116E+00
         25   -1    0    0    0    0  0.00000000000E+00  0.00000000000E+00  0.99999998245E-14  0.12500000000E+03  0.12500000000E+03 0.  0.
        -13    1    3    3    0    0 -0.22241347882E+02  0.35210403032E+02  0.30694487843E+01  0.41759821805E+02  0.10566000000E+00 0.  1.
         23    2    1    0    0    0  0.25440838851E+02  0.19432621312E+02 -0.49020215854E+01  0.92613384429E+02  0.86766042363E+02 0.  0.
         13    1    3    3    0    0  0.47682186734E+02 -0.15777781720E+02 -0.79714703696E+01  0.50853562624E+02  0.10566000000E+00 0. -1.
         22    1    1    0    0    0 -0.25440838851E+02 -0.19432621312E+02  0.49020215854E+01  0.32386615571E+02  0.00000000000E+00 0.  1.
</event>
<event>
 5    1  0.1319298E-009  0.9118800E+02  0.7818608E-02  0.1130116E+00
         25   -1    0    0    0    0  0.00000000000E+00  0.00000000000E+00  0.99999998245E-14  0.12500000000E+03  0.12500000000E+03 0.  0.
        -13    1    3    3    0    0  0.82074679174E+01 -0.33524069372E+01 -0.59346509662E+02  0.60005170902E+02  0.10566000000E+00 0.  1.
         23    2    1    0    0    0 -0.77979364093E+01 -0.59127422653E+01 -0.28749966640E+02  0.94630131460E+02  0.89624398827E+02 0.  0.
         13    1    3    3    0    0 -0.16005404327E+02 -0.25603353282E+01  0.30596543023E+02  0.34624960558E+02  0.10566000000E+00 0. -1.
         22    1    1    0    0    0  0.77979364093E+01  0.59127422653E+01  0.28749966640E+02  0.30369868540E+02  0.00000000000E+00 0.  1.
</event>
<event>
 5    1  0.1319298E-009  0.9118800E+02  0.7818608E-02  0.1130116E+00
         25   -1    0    0    0    0  0.00000000000E+00  0.00000000000E+00  0.99999998245E-14  0.12500000000E+03  0.12500000000E+03 0.  0.
        -13    1    3    3    0    0  0.15913580925E+01 -0.37528271506E+02  0.21024911483E+02  0.43046041045E+02  0.10566000000E+00 0. -1.
         23    2    1    0    0    0  0.85570781077E+01  0.96073902574E+01  0.30741924443E+02  0.91674462468E+02  0.85402667505E+02 0.  0.
         13    1    3    3    0    0  0.69657200152E+01  0.47135661763E+02  0.97170129606E+01  0.48628421423E+02  0.10566000000E+00 0.  1.
         22    1    1    0    0    0 -0.85570781077E+01 -0.96073902574E+01 -0.30741924443E+02  0.33325537532E+02  0.00000000000E+00 0. -1.
</event>
<event>
 5    1  0.1319298E-009  0.9118800E+02  0.7818608E-02  0.1130116E+00
         25   -1    0    0    0    0  0.00000000000E+00  0.00000000000E+00  0.99999998245E-14  0.12500000000E+03  0.12500000000E+03 0.  0.
        -13    1    3    3    0    0 -0.24816616647E+02 -0.48469489989E+02 -0.26190610083E+02  0.60424458146E+02  0.10566000000E+00 0.  1.
         23    2    1    0    0    0 -0.22089288251E+02 -0.18191879224E+02 -0.12124095864E+02  0.93921473239E+02  0.88630515680E+02 0.  0.
         13    1    3    3    0    0  0.27273283962E+01  0.30277610765E+02  0.14066514220E+02  0.33497015093E+02  0.10566000000E+00 0. -1.
         22    1    1    0    0    0  0.22089288251E+02  0.18191879224E+02  0.12124095864E+02  0.31078526761E+02  0.00000000000E+00 0.  1.
</event>
<event>
 5    1  0.1319298E-009  0.9118800E+02  0.7818608E-02  0.1130116E+00
         25   -1    0    0    0    0  0.00000000000E+00  0.00000000000E+00  0.99999998245E-14  0.12500000000E+03  0.12500000000E+03 0.  0.
        -13    1    3    3    0    0 -0.32499532759E+02 -0.39431032916E+02  0.32854474086E+02  0.60749103845E+02  0.10566000000E+00 0.  1.
         23    2    1    0    0    0 -0.95332496998E+01 -0.16667893133E+02  0.23977606384E+02  0.94281485726E+02  0.89136812998E+02 0.  0.
         13    1    3    3    0    0  0.22966283060E+02  0.22763139783E+02 -0.88768677029E+01  0.33532381881E+02  0.10566000000E+00 0. -1.
         22    1    1    0    0    0  0.95332496998E+01  0.16667893133E+02 -0.23977606384E+02  0.30718514274E+02  0.00000000000E+00 0.  1.
</event>
<event>
 5    1  0.1319298E-009  0.9118800E+02  0.7818608E-02  0.1130116E+00
         25   -1    0    0    0    0  0.00000000000E+00  0.00000000000E+00  0.99999998245E-14  0.12500000000E+03  0.12500000000E+03 0.  0.
        -13    1    3    3    0    0 -0.24302701123E+02  0.47804322974E+02  0.26650074818E+02  0.59884156742E+02  0.10566000000E+00 0.  1.
         23    2    1    0    0    0 -0.93271003676E+01  0.15708562345E+02  0.23201312404E+02  0.95469428900E+02  0.90787428783E+02 0.  0.
         13    1    3    3    0    0  0.14975600755E+02 -0.32095760629E+02 -0.34487624132E+01  0.35585272158E+02  0.10566000000E+00 0. -1.
         22    1    1    0    0    0  0.93271003676E+01 -0.15708562345E+02 -0.23201312404E+02  0.29530571100E+02  0.00000000000E+00 0.  1.
</event>
<event>
 5    1  0.1319298E-009  0.9118800E+02  0.7818608E-02  0.1130116E+00
         25   -1    0    0    0    0  0.00000000000E+00  0.00000000000E+00  0.99999998245E-14  0.12500000000E+03  0.12500000000E+03 0.  0.
        -13    1    3    3    0    0  0.12570579144E+02  0.29593808056E+02 -0.16417344971E+02  0.36101984920E+02  0.10566000000E+00 0. -1.
         23    2    1    0    0    0 -0.16577899156E+02 -0.13585743058E+02  0.16694992259E+02  0.97831600684E+02  0.93983510102E+02 0.  0.
         13    1    3    3    0    0 -0.29148478300E+02 -0.43179551114E+02  0.33112337229E+02  0.61729615764E+02  0.10566000000E+00 0.  1.
         22    1    1    0    0    0  0.16577899156E+02  0.13585743058E+02 -0.16694992259E+02  0.27168399316E+02  0.00000000000E+00 0.  1.
</event>
<event>
 5    1  0.1319298E-009  0.9118800E+02  0.7818608E-02  0.1130116E+00
         25   -1    0    0    0    0  0.00000000000E+00  0.00000000000E+00  0.99999998245E-14  0.12500000000E+03  0.12500000000E+03 0.  0.
        -13    1    3    3    0    0  0.14777204283E+02  0.81535630088E+01 -0.49644749987E+02  0.52435281266E+02  0.10566000000E+00 0. -1.
         23    2    1    0    0    0 -0.94830450573E+01  0.22425092990E+02 -0.18450303246E+02  0.94451241776E+02  0.89374551434E+02 0.  0.
         13    1    3    3    0    0 -0.24260249341E+02  0.14271529981E+02  0.31194446741E+02  0.42015960510E+02  0.10566000000E+00 0.  1.
         22    1    1    0    0    0  0.94830450573E+01 -0.22425092990E+02  0.18450303246E+02  0.30548758224E+02  0.00000000000E+00 0. -1.
</event>
<event>
 5    1  0.1319298E-009  0.9118800E+02  0.7818608E-02  0.1130116E+00
         25   -1    0    0    0    0  0.00000000000E+00  0.00000000000E+00  0.99999998245E-14  0.12500000000E+03  0.12500000000E+03 0.  0.
        -13    1    3    3    0    0  0.34602473400E+02 -0.57452289036E+01 -0.24201608740E+02  0.42615347590E+02  0.10566000000E+00 0.  1.
         23    2    1    0    0    0 -0.12602575099E+02  0.10136874182E+02 -0.28105216473E+02  0.92573401191E+02  0.86708421147E+02 0.  0.
         13    1    3    3    0    0 -0.47205048500E+02  0.15882103086E+02 -0.39036077329E+01  0.49958053602E+02  0.10566000000E+00 0. -1.
         22    1    1    0    0    0  0.12602575099E+02 -0.10136874182E+02  0.28105216473E+02  0.32426598809E+02  0.00000000000E+00 0. -1.
</event>
<event>
 5    1  0.1319298E-009  0.9118800E+02  0.7818608E-02  0.1130116E+00
         25   -1    0    0    0    0  0.00000000000E+00  0.00000000000E+00  0.99999998245E-14  0.12500000000E+03  0.12500000000E+03 0.  0.
        -13    1    3    3    0    0  0.28180949718E+02  0.41970439678E+02 -0.29164753472E+01  0.50637937619E+02  0.10566000000E+00 0.  1.
         23    2    1    0    0    0 -0.68318000187E+01  0.20668943579E+02 -0.20373496434E+02  0.95184600001E+02  0.90394413546E+02 0.  0.
         13    1    3    3    0    0 -0.35012749736E+02 -0.21301496099E+02 -0.17457021086E+02  0.44546662382E+02  0.10566000000E+00 0. -1.
         22    1    1    0    0    0  0.68318000187E+01 -0.20668943579E+02  0.20373496434E+02  0.29815399999E+02  0.00000000000E+00 0.  1.
</event>
<event>
 5    1  0.1319298E-009  0.9118800E+02  0.7818608E-02  0.1130116E+00
         25   -1    0    0    0    0  0.00000000000E+00  0.00000000000E+00  0.99999998245E-14  0.12500000000E+03  0.12500000000E+03 0.  0.
        -13    1    3    3    0    0  0.10328283896E+02  0.39242571851E+02  0.11072457305E+02  0.42062612479E+02  0.10566000000E+00 0. -1.
         23    2    1    0    0    0 -0.25300479919E+02  0.20905756922E+02 -0.13986674240E+02  0.89323789258E+02  0.81889848666E+02 0.  0.
         13    1    3    3    0    0 -0.35628763815E+02 -0.18336814929E+02 -0.25059131545E+02  0.47261176779E+02  0.10566000000E+00 0.  1.
         22    1    1    0    0    0  0.25300479919E+02 -0.20905756922E+02  0.13986674240E+02  0.35676210742E+02  0.00000000000E+00 0. -1.
</event>
<event>
 5    1  0.1319298E-009  0.9118800E+02  0.7818608E-02  0.1130116E+00
         25   -1    0    0    0    0  0.00000000000E+00  0.00000000000E+00  0.99999998245E-14  0.12500000000E+03  0.12500000000E+03 0.  0.
        -13    1    3    3    0    0 -0.25708043991E+02 -0.30559191958E+02 -0.33207510361E+02  0.51937632285E+02  0.10566000000E+00 0.  1.
         23    2    1    0    0    0  0.10505462417E+02 -0.26552761165E+02 -0.12693432790E+02  0.93750406369E+02  0.88388922339E+02 0.  0.
         13    1    3    3    0    0  0.36213506408E+02  0.40064307930E+01  0.20514077570E+02  0.41812774085E+02  0.10566000000E+00 0. -1.
         22    1    1    0    0    0 -0.10505462417E+02  0.26552761165E+02  0.12693432790E+02  0.31249593631E+02  0.00000000000E+00 0. -1.
</event>
<event>
 5    1  0.1319298E-009  0.9118800E+02  0.7818608E-02  0.1130116E+00
         25   -1    0    0    0    0  0.00000000000E+00  0.00000000000E+00  0.99999998245E-14  0.12500000000E+03  0.12500000000E+03 0.  0.
        -13    1    3    3    0    0 -0.64063657490E+01  0.89312080258E+01 -0.35210172059E+02  0.36885978086E+02  0.10566000000E+00 0.  1.
         23    2    1    0    0    0  0.39899223115E+01 -0.99709208573E+01  0.23352858331E+02  0.99296017137E+02  0.95911439798E+02 0.  0.
         13    1    3    3    0    0  0.10396288061E+02 -0.18902128883E+02  0.58563030390E+02  0.62410039051E+02  0.10566000000E+00 0. -1.
         22    1    1    0    0    0 -0.39899223115E+01  0.99709208573E+01 -0.23352858331E+02  0.25703982863E+02  0.00000000000E+00 0. -1.
</event>
<event>
 5    1  0.1319298E-009  0.9118800E+02  0.7818608E-02  0.1130116E+00
         25   -1    0    0    0    0  0.00000000000E+00  0.00000000000E+00  0.99999998245E-14  0.12500000000E+03  0.12500000000E+03 0.  0.
        -13    1    3    3    0    0 -0.39315481330E+02  0.60120270136E+01 -0.41026672554E+02  0.57140620979E+02  0.10566000000E+00 0.  1.
         23    2    1    0    0    0 -0.17214074698E+02  0.20229947567E+02 -0.13478619886E+02  0.95213285843E+02  0.90434072454E+02 0.  0.
         13    1    3    3    0    0  0.22101406632E+02  0.14217920553E+02  0.27548052667E+02  0.38072664863E+02  0.10566000000E+00 0. -1.
         22    1    1    0    0    0  0.17214074698E+02 -0.20229947567E+02  0.13478619886E+02  0.29786714157E+02  0.00000000000E+00 0.  1.
</event>
<event>
 5    1  0.1319298E-009  0.9118800E+02  0.7818608E-02  0.1130116E+00
         25   -1    0    0    0    0  0.00000000000E+00  0.00000000000E+00  0.99999998245E-14  0.12500000000E+03  0.12500000000E+03 0.  0.
        -13    1    3    3    0    0 -0.44567716066E+02  0.19399942005E+02 -0.22557048253E+02  0.53586105056E+02  0.10566000000E+00 0. -1.
         23    2    1    0    0    0 -0.26609876903E+02 -0.10609464254E+02 -0.22524313244E+02  0.88558389612E+02  0.80713055964E+02 0.  0.
         13    1    3    3    0    0  0.17957839163E+02 -0.30009406259E+02  0.32735009372E-01  0.34972284556E+02  0.10566000000E+00 0.  1.
         22    1    1    0    0    0  0.26609876903E+02  0.10609464254E+02  0.22524313244E+02  0.36441610388E+02  0.00000000000E+00 0. -1.
</event>
<event>
 5    1  0.1319298E-009  0.9118800E+02  0.7818608E-02  0.1130116E+00
         25   -1    0    0    0    0  0.00000000000E+00  0.00000000000E+00  0.99999998245E-14  0.12500000000E+03  0.12500000000E+03 0.  0.
        -13    1    3    3    0    0  0.15626374310E+02 -0.30964542955E+02 -0.69234424828E+00  0.34691166009E+02  0.10566000000E+00 0. -1.
         23    2    1    0    0    0 -0.23290205955E+02  0.15353640493E+02  0.83987700755E+01  0.95867418436E+02  0.91333753941E+02 0.  0.
         13    1    3    3    0    0 -0.38916580265E+02  0.46318183447E+02  0.90911143238E+01  0.61176252427E+02  0.10566000000E+00 0.  1.
         22    1    1    0    0    0  0.23290205955E+02 -0.15353640493E+02 -0.83987700755E+01  0.29132581564E+02  0.00000000000E+00 0.  1.
</event>
<event>
 5    1  0.1319298E-009  0.9118800E+02  0.7818608E-02  0.1130116E+00
         25   -1    0    0    0    0  0.00000000000E+00  0.00000000000E+00  0.99999998245E-14  0.12500000000E+03  0.12500000000E+03 0.  0.
        -13    1    3    3    0    0  0.26606785141E+01 -0.10290106521E+02 -0.60388287706E+02  0.61316571646E+02  0.10566000000E+00 0.  1.
         23    2    1    0    0    0 -0.29061699671E+01 -0.11860571717E+02 -0.24972807051E+02  0.97201437495E+02  0.93141609250E+02 0.  0.
         13    1    3    3    0    0 -0.55668484812E+01 -0.15704651963E+01  0.35415480655E+02  0.35884865849E+02  0.10566000000E+00 0. -1.
         22    1    1    0    0    0  0.29061699671E+01  0.11860571717E+02  0.24972807051E+02  0.27798562505E+02  0.00000000000E+00 0.  1.
</event>
<event>
 5    1  0.1319298E-009  0.9118800E+02  0.7818608E-02  0.1130116E+00
         25   -1    0    0    0    0  0.00000000000E+00  0.00000000000E+00  0.99999998245E-14  0.12500000000E+03  0.12500000000E+03 0.  0.
        -13    1    3    3    0    0 -0.36159751922E+02  0.13843662540E+02  0.47810229401E+01  0.39013382268E+02  0.10566000000E+00 0. -1.
         23    2    1    0    0    0  0.11913045157E+02  0.54546880289E+01 -0.25419763725E+02  0.96402121508E+02  0.92062643765E+02 0.  0.
         13    1    3    3    0    0  0.48072797079E+02 -0.83889745108E+01 -0.30200786666E+02  0.57388739240E+02  0.10566000000E+00 0.  1.
         22    1    1    0    0    0 -0.11913045157E+02 -0.54546880289E+01  0.25419763725E+02  0.28597878492E+02  0.00000000000E+00 0.  1.
</event>
<event>
 5    1  0.1319298E-009  0.9118800E+02  0.7818608E-02  0.1130116E+00
         25   -1    0    0    0    0  0.00000000000E+00  0.00000000000E+00  0.99999998245E-14  0.12500000000E+03  0.12500000000E+03 0.  0.
        -13    1    3    3    0    0 -0.29525403908E+02 -0.22720969587E+02  0.35486780328E+02  0.51452061931E+02  0.10566000000E+00 0.  1.
         23    2    1    0    0    0 -0.19012102737E+01  0.11142822493E+02  0.26668343731E+02  0.96034889073E+02  0.91562668530E+02 0.  0.
         13    1    3    3    0    0  0.27624193634E+02  0.33863792080E+02 -0.88184365967E+01  0.44582827142E+02  0.10566000000E+00 0. -1.
         22    1    1    0    0    0  0.19012102737E+01 -0.11142822493E+02 -0.26668343731E+02  0.28965110927E+02  0.00000000000E+00 0.  1.
</event>
<event>
 5    1  0.1319298E-009  0.9118800E+02  0.7818608E-02  0.1130116E+00
         25   -1    0    0    0    0  0.00000000000E+00  0.00000000000E+00  0.99999998245E-14  0.12500000000E+03  0.12500000000E+03 0.  0.
        -13    1    3    3    0    0  0.14480959006E+02  0.33981614994E+02  0.30146527120E+02  0.47678848484E+02  0.10566000000E+00 0.  1.
         23    2    1    0    0    0  0.25248745328E+02 -0.90206394696E+01  0.98250795474E+01  0.96444733144E+02  0.92120482446E+02 0.  0.
         13    1    3    3    0    0  0.10767786322E+02 -0.43002254464E+02 -0.20321447572E+02  0.48765884660E+02  0.10566000000E+00 0. -1.
         22    1    1    0    0    0 -0.25248745328E+02  0.90206394696E+01 -0.98250795474E+01  0.28555266856E+02  0.00000000000E+00 0. -1.
</event>
<event>
 5    1  0.1319298E-009  0.9118800E+02  0.7818608E-02  0.1130116E+00
         25   -1    0    0    0    0  0.00000000000E+00  0.00000000000E+00  0.99999998245E-14  0.12500000000E+03  0.12500000000E+03 0.  0.
        -13    1    3    3    0    0 -0.35393428197E+02 -0.40477151640E+01  0.40436031371E+01  0.35853042381E+02  0.10566000000E+00 0. -1.
         23    2    1    0    0    0  0.10390838255E+02  0.30056913352E+02  0.40277484775E+01  0.92943638421E+02  0.87240527310E+02 0.  0.
         13    1    3    3    0    0  0.45784266452E+02  0.34104628516E+02 -0.15854659576E-01  0.57090596040E+02  0.10566000000E+00 0.  1.
         22    1    1    0    0    0 -0.10390838255E+02 -0.30056913352E+02 -0.40277484775E+01  0.32056361579E+02  0.00000000000E+00 0. -1.
</event>
<event>
 5    1  0.1319298E-009  0.9118800E+02  0.7818608E-02  0.1130116E+00
         25   -1    0    0    0    0  0.00000000000E+00  0.00000000000E+00  0.99999998245E-14  0.12500000000E+03  0.12500000000E+03 0.  0.
        -13    1    3    3    0    0 -0.12294257501E+02 -0.17856541257E+02  0.53766722276E+02  0.57973066345E+02  0.10566000000E+00 0.  1.
         23    2    1    0    0    0 -0.62772359916E+01 -0.22322530280E+02  0.15170689835E+02  0.97289913752E+02  0.93260272561E+02 0.  0.
         13    1    3    3    0    0  0.60170215097E+01 -0.44659890229E+01 -0.38596032441E+02  0.39316847407E+02  0.10566000000E+00 0. -1.
         22    1    1    0    0    0  0.62772359916E+01  0.22322530280E+02 -0.15170689835E+02  0.27710086248E+02  0.00000000000E+00 0.  1.
</event>
<event>
 5    1  0.1319298E-009  0.9118800E+02  0.7818608E-02  0.1130116E+00
         25   -1    0    0    0    0  0.00000000000E+00  0.00000000000E+00  0.99999998245E-14  0.12500000000E+03  0.12500000000E+03 0.  0.
        -13    1    3    3    0    0  0.14856849463E+02  0.24424626123E+02  0.16786577987E+02  0.33152506719E+02  0.10566000000E+00 0. -1.
         23    2    1    0    0    0 -0.10245874195E+02 -0.15918564495E+02 -0.23060213165E+02  0.95164583716E+02  0.90366730211E+02 0.  0.
         13    1    3    3    0    0 -0.25102723658E+02 -0.40343190619E+02 -0.39846791152E+02  0.62012076997E+02  0.10566000000E+00 0.  1.
         22    1    1    0    0    0  0.10245874195E+02  0.15918564495E+02  0.23060213165E+02  0.29835416284E+02  0.00000000000E+00 0.  1.
</event>
<event>
 5    1  0.1319298E-009  0.9118800E+02  0.7818608E-02  0.1130116E+00
         25   -1    0    0    0    0  0.00000000000E+00  0.00000000000E+00  0.99999998245E-14  0.12500000000E+03  0.12500000000E+03 0.  0.
        -13    1    3    3    0    0  0.68133410798E+01 -0.23555017597E+02 -0.52177357480E+02  0.57651958061E+02  0.10566000000E+00 0.  1.
         23    2    1    0    0    0  0.18238833144E+02 -0.23996138366E+01 -0.25371648135E+02  0.93660987410E+02  0.88262375068E+02 0.  0.
         13    1    3    3    0    0  0.11425492064E+02  0.21155403760E+02  0.26805709345E+02  0.36009029349E+02  0.10566000000E+00 0. -1.
         22    1    1    0    0    0 -0.18238833144E+02  0.23996138366E+01  0.25371648135E+02  0.31339012590E+02  0.00000000000E+00 0.  1.
</event>
<event>
 5    1  0.1319298E-009  0.9118800E+02  0.7818608E-02  0.1130116E+00
         25   -1    0    0    0    0  0.00000000000E+00  0.00000000000E+00  0.99999998245E-14  0.12500000000E+03  0.12500000000E+03 0.  0.
        -13    1    3    3    0    0  0.49683538449E+02 -0.26894426647E+02  0.88102293477E+01  0.57178627849E+02  0.10566000000E+00 0.  1.
         23    2    1    0    0    0  0.25839715643E+02  0.32976942794E+01  0.13015871001E+02  0.95879928057E+02  0.91350873090E+02 0.  0.
         13    1    3    3    0    0 -0.23843822807E+02  0.30192120926E+02  0.42056416536E+01  0.38701300208E+02  0.10566000000E+00 0. -1.
         22    1    1    0    0    0 -0.25839715643E+02 -0.32976942794E+01 -0.13015871001E+02  0.29120071943E+02  0.00000000000E+00 0.  1.
</event>
<event>
 5    1  0.1319298E-009  0.9118800E+02  0.7818608E-02  0.1130116E+00
         25   -1    0    0    0    0  0.00000000000E+00  0.00000000000E+00  0.99999998245E-14  0.12500000000E+03  0.12500000000E+03 0.  0.
        -13    1    3    3    0    0  0.22932458208E+02 -0.38214951302E+02 -0.17049180442E+02  0.47717563436E+02  0.10566000000E+00 0.  1.
         23    2    1    0    0    0 -0.19096095269E+02 -0.24571920488E+02 -0.86997903460E+01  0.92687053940E+02  0.86872109937E+02 0.  0.
         13    1    3    3    0    0 -0.42028553477E+02  0.13643030814E+02  0.83493900960E+01  0.44969490504E+02  0.10566000000E+00 0. -1.
         22    1    1    0    0    0  0.19096095269E+02  0.24571920488E+02  0.86997903460E+01  0.32312946060E+02  0.00000000000E+00 0.  1.
</event>
<event>
 5    1  0.1319298E-009  0.9118800E+02  0.7818608E-02  0.1130116E+00
         25   -1    0    0    0    0  0.00000000000E+00  0.00000000000E+00  0.99999998245E-14  0.12500000000E+03  0.12500000000E+03 0.  0.
        -13    1    3    3    0    0  0.85863390224E+01 -0.86361427080E+01 -0.59185076311E+02  0.60425099095E+02  0.10566000000E+00 0.  1.
         23    2    1    0    0    0 -0.57807770244E+01  0.74057730889E+00 -0.31274592899E+02  0.93187015250E+02  0.87588548409E+02 0.  0.
         13    1    3    3    0    0 -0.14367116047E+02  0.93767200169E+01  0.27910483412E+02  0.32761916155E+02  0.10566000000E+00 0. -1.
         22    1    1    0    0    0  0.57807770244E+01 -0.74057730889E+00  0.31274592899E+02  0.31812984750E+02  0.00000000000E+00 0.  1.
</event>
<event>
 5    1  0.1319298E-009  0.9118800E+02  0.7818608E-02  0.1130116E+00
         25   -1    0    0    0    0  0.00000000000E+00  0.00000000000E+00  0.99999998245E-14  0.12500000000E+03  0.12500000000E+03 0.  0.
        -13    1    3    3    0    0 -0.27821809115E+02 -0.84011749360E+01 -0.18592827028E+02  0.34501263508E+02  0.10566000000E+00 0. -1.
         23    2    1    0    0    0  0.14980088832E+02  0.84632437678E+01  0.22834087609E+02  0.96409352693E+02  0.92072461536E+02 0.  0.
         13    1    3    3    0    0  0.42801897947E+02  0.16864418704E+02  0.41426914637E+02  0.61908089185E+02  0.10566000000E+00 0.  1.
         22    1    1    0    0    0 -0.14980088832E+02 -0.84632437678E+01 -0.22834087609E+02  0.28590647307E+02  0.00000000000E+00 0.  1.
</event>
<event>
 5    1  0.1319298E-009  0.9118800E+02  0.7818608E-02  0.1130116E+00
         25   -1    0    0    0    0  0.00000000000E+00  0.00000000000E+00  0.99999998245E-14  0.12500000000E+03  0.12500000000E+03 0.  0.
        -13    1    3    3    0    0  0.58948976090E+01 -0.51981740125E+01  0.29841028861E+02  0.30858856077E+02  0.10566000000E+00 0. -1.
         23    2    1    0    0    0 -0.14470882535E+02 -0.15470834979E+02 -0.26166623017E+02  0.91333320086E+02  0.84901884676E+02 0.  0.
         13    1    3    3    0    0 -0.20365780144E+02 -0.10272660967E+02 -0.56007651878E+02  0.60474464009E+02  0.10566000000E+00 0.  1.
         22    1    1    0    0    0  0.14470882535E+02  0.15470834979E+02  0.26166623017E+02  0.33666679914E+02  0.00000000000E+00 0.  1.
</event>
<event>
 5    1  0.1319298E-009  0.9118800E+02  0.7818608E-02  0.1130116E+00
         25   -1    0    0    0    0  0.00000000000E+00  0.00000000000E+00  0.99999998245E-14  0.12500000000E+03  0.12500000000E+03 0.  0.
        -13    1    3    3    0    0  0.27724215441E+02  0.14514757027E+02 -0.36514804277E+02  0.48090044591E+02  0.10566000000E+00 0.  1.
         23    2    1    0    0    0 -0.18550114229E+02  0.55582107640E+01 -0.17448887265E+02  0.98933467596E+02  0.95437764532E+02 0.  0.
         13    1    3    3    0    0 -0.46274329669E+02 -0.89565462628E+01  0.19065917012E+02  0.50843423005E+02  0.10566000000E+00 0. -1.
         22    1    1    0    0    0  0.18550114229E+02 -0.55582107640E+01  0.17448887265E+02  0.26066532404E+02  0.00000000000E+00 0. -1.
</event>
<event>
 5    1  0.1319298E-009  0.9118800E+02  0.7818608E-02  0.1130116E+00
         25   -1    0    0    0    0  0.00000000000E+00  0.00000000000E+00  0.99999998245E-14  0.12500000000E+03  0.12500000000E+03 0.  0.
        -13    1    3    3    0    0  0.31916822802E+02  0.75623130191E+01 -0.14591581674E+02  0.35899826960E+02  0.10566000000E+00 0.  1.
         23    2    1    0    0    0 -0.11073334416E+02  0.10351022830E+02  0.25879193836E+02  0.95008416475E+02  0.90150452681E+02 0.  0.
         13    1    3    3    0    0 -0.42990157218E+02  0.27887098113E+01  0.40470775510E+02  0.59108589515E+02  0.10566000000E+00 0. -1.
         22    1    1    0    0    0  0.11073334416E+02 -0.10351022830E+02 -0.25879193836E+02  0.29991583525E+02  0.00000000000E+00 0. -1.
</event>
<event>
 5    1  0.1319298E-009  0.9118800E+02  0.7818608E-02  0.1130116E+00
         25   -1    0    0    0    0  0.00000000000E+00  0.00000000000E+00  0.99999998245E-14  0.12500000000E+03  0.12500000000E+03 0.  0.
        -13    1    3    3    0    0  0.39659106268E+02 -0.15071241484E+02  0.34110406029E+02  0.54438203436E+02  0.10566000000E+00 0.  1.
         23    2    1    0    0    0  0.17945287125E+02 -0.26960126921E+02  0.57090974571E+01  0.92114204170E+02  0.86043890211E+02 0.  0.
         13    1    3    3    0    0 -0.21713819144E+02 -0.11888885436E+02 -0.28401308572E+02  0.37676000734E+02  0.10566000000E+00 0. -1.
         22    1    1    0    0    0 -0.17945287125E+02  0.26960126921E+02 -0.57090974571E+01  0.32885795830E+02  0.00000000000E+00 0.  1.
</event>
<event>
 5    1  0.1319298E-009  0.9118800E+02  0.7818608E-02  0.1130116E+00
         25   -1    0    0    0    0  0.00000000000E+00  0.00000000000E+00  0.99999998245E-14  0.12500000000E+03  0.12500000000E+03 0.  0.
        -13    1    3    3    0    0  0.42460348436E+02  0.24083955777E+02  0.30819558694E+02  0.57730186880E+02  0.10566000000E+00 0. -1.
         23    2    1    0    0    0  0.12437750477E+02  0.25847732206E+02  0.88272185406E+01  0.94987957679E+02  0.90122080645E+02 0.  0.
         13    1    3    3    0    0 -0.30022597959E+02  0.17637764291E+01 -0.21992340153E+02  0.37257770799E+02  0.10566000000E+00 0.  1.
         22    1    1    0    0    0 -0.12437750477E+02 -0.25847732206E+02 -0.88272185406E+01  0.30012042321E+02  0.00000000000E+00 0. -1.
</event>
<event>
 5    1  0.1319298E-009  0.9118800E+02  0.7818608E-02  0.1130116E+00
         25   -1    0    0    0    0  0.00000000000E+00  0.00000000000E+00  0.99999998245E-14  0.12500000000E+03  0.12500000000E+03 0.  0.
        -13    1    3    3    0    0 -0.30428386170E+02 -0.21589415968E+02  0.13308331499E+02  0.39612023655E+02  0.10566000000E+00 0.  1.
         23    2    1    0    0    0 -0.90574587132E+01  0.16043117662E+02 -0.22596763993E+02  0.95844675861E+02  0.91302622993E+02 0.  0.
         13    1    3    3    0    0  0.21370927457E+02  0.37632533630E+02 -0.35905095492E+02  0.56232652206E+02  0.10566000000E+00 0. -1.
         22    1    1    0    0    0  0.90574587132E+01 -0.16043117662E+02  0.22596763993E+02  0.29155324139E+02  0.00000000000E+00 0. -1.
</event>
<event>
 5    1  0.1319298E-009  0.9118800E+02  0.7818608E-02  0.1130116E+00
         25   -1    0    0    0    0  0.00000000000E+00  0.00000000000E+00  0.99999998245E-14  0.12500000000E+03  0.12500000000E+03 0.  0.
        -13    1    3    3    0    0  0.59566670171E+01  0.31272855501E+02  0.20997351956E+02  0.38136246884E+02  0.10566000000E+00 0.  1.
         23    2    1    0    0    0 -0.23290927146E+02 -0.16046640625E+02  0.32352311125E+01  0.96531970862E+02  0.92238780973E+02 0.  0.
         13    1    3    3    0    0 -0.29247594163E+02 -0.47319496127E+02 -0.17762120843E+02  0.58395723978E+02  0.10566000000E+00 0. -1.
         22    1    1    0    0    0  0.23290927146E+02  0.16046640625E+02 -0.32352311125E+01  0.28468029138E+02  0.00000000000E+00 0. -1.
</event>
<event>
 5    1  0.1319298E-009  0.9118800E+02  0.7818608E-02  0.1130116E+00
         25   -1    0    0    0    0  0.00000000000E+00  0.00000000000E+00  0.99999998245E-14  0.12500000000E+03  0.12500000000E+03 0.  0.
        -13    1    3    3    0    0 -0.50062059218E+02 -0.24260038807E+02 -0.19863499302E+02  0.59070542782E+02  0.10566000000E+00 0.  1.
         23    2    1    0    0    0 -0.23641543489E+02 -0.17617656462E+02  0.39479654974E+01  0.95252885362E+02  0.90488791242E+02 0.  0.
         13    1    3    3    0    0  0.26420515729E+02  0.66423823451E+01  0.23811464799E+02  0.36182342580E+02  0.10566000000E+00 0. -1.
         22    1    1    0    0    0  0.23641543489E+02  0.17617656462E+02 -0.39479654974E+01  0.29747114638E+02  0.00000000000E+00 0.  1.
</event>
<event>
 5    1  0.1319298E-009  0.9118800E+02  0.7818608E-02  0.1130116E+00
         25   -1    0    0    0    0  0.00000000000E+00  0.00000000000E+00  0.99999998245E-14  0.12500000000E+03  0.12500000000E+03 0.  0.
        -13    1    3    3    0    0  0.45999665145E+02  0.54474603993E+01 -0.19094075181E+02  0.50102284273E+02  0.10566000000E+00 0. -1.
         23    2    1    0    0    0  0.15710910033E+02  0.23981204150E+02  0.85270298996E+01  0.95089448593E+02  0.90262739535E+02 0.  0.
         13    1    3    3    0    0 -0.30288755112E+02  0.18533743751E+02  0.27621105081E+02  0.44987164320E+02  0.10566000000E+00 0.  1.
         22    1    1    0    0    0 -0.15710910033E+02 -0.23981204150E+02 -0.85270298996E+01  0.29910551407E+02  0.00000000000E+00 0. -1.
</event>
<event>
 5    1  0.1319298E-009  0.9118800E+02  0.7818608E-02  0.1130116E+00
         25   -1    0    0    0    0  0.00000000000E+00  0.00000000000E+00  0.99999998245E-14  0.12500000000E+03  0.12500000000E+03 0.  0.
        -13    1    3    3    0    0 -0.20291414418E-01  0.11369065524E+02 -0.38315035183E+02  0.39966350193E+02  0.10566000000E+00 0.  1.
         23    2    1    0    0    0 -0.18217321821E+02  0.21694636240E+02  0.11829180822E+02  0.94300528102E+02  0.89163512859E+02 0.  0.
         13    1    3    3    0    0 -0.18197030407E+02  0.10325570716E+02  0.50144216005E+02  0.54334177909E+02  0.10566000000E+00 0. -1.
         22    1    1    0    0    0  0.18217321821E+02 -0.21694636240E+02 -0.11829180822E+02  0.30699471898E+02  0.00000000000E+00 0. -1.
</event>
<event>
 5    1  0.1319298E-009  0.9118800E+02  0.7818608E-02  0.1130116E+00
         25   -1    0    0    0    0  0.00000000000E+00  0.00000000000E+00  0.99999998245E-14  0.12500000000E+03  0.12500000000E+03 0.  0.
        -13    1    3    3    0    0 -0.34992050544E+02 -0.84787957499E+01 -0.79018907322E+00  0.36013457782E+02  0.10566000000E+00 0.  1.
         23    2    1    0    0    0  0.12654753004E+02  0.26495547206E+02 -0.47699850612E+01  0.95252570652E+02  0.90488356506E+02 0.  0.
         13    1    3    3    0    0  0.47646803547E+02  0.34974342956E+02 -0.39797959880E+01  0.59239112870E+02  0.10566000000E+00 0. -1.
         22    1    1    0    0    0 -0.12654753004E+02 -0.26495547206E+02  0.47699850612E+01  0.29747429348E+02  0.00000000000E+00 0. -1.
</event>
<event>
 5    1  0.1319298E-009  0.9118800E+02  0.7818608E-02  0.1130116E+00
         25   -1    0    0    0    0  0.00000000000E+00  0.00000000000E+00  0.99999998245E-14  0.12500000000E+03  0.12500000000E+03 0.  0.
        -13    1    3    3    0    0  0.27038925760E+02 -0.43597711461E+02 -0.25185727084E+02  0.57150642724E+02  0.10566000000E+00 0.  1.
         23    2    1    0    0    0  0.27733701947E+00 -0.16028344101E+02 -0.24673326568E+02  0.95576237930E+02  0.90934369093E+02 0.  0.
         13    1    3    3    0    0 -0.26761588741E+02  0.27569367360E+02  0.51240051647E+00  0.38425595206E+02  0.10566000000E+00 0. -1.
         22    1    1    0    0    0 -0.27733701947E+00  0.16028344101E+02  0.24673326568E+02  0.29423762070E+02  0.00000000000E+00 0.  1.
</event>
<event>
 5    1  0.1319298E-009  0.9118800E+02  0.7818608E-02  0.1130116E+00
         25   -1    0    0    0    0  0.00000000000E+00  0.00000000000E+00  0.99999998245E-14  0.12500000000E+03  0.12500000000E+03 0.  0.
        -13    1    3    3    0    0  0.18101974924E+02  0.31893303608E+02 -0.16136845673E+02  0.40065861572E+02  0.10566000000E+00 0.  1.
         23    2    1    0    0    0  0.24232806482E+02 -0.15951923386E+02  0.92162363029E+01  0.94559372850E+02  0.89525656728E+02 0.  0.
         13    1    3    3    0    0  0.61308315581E+01 -0.47845226994E+02  0.25353081976E+02  0.54493511278E+02  0.10566000000E+00 0. -1.
         22    1    1    0    0    0 -0.24232806482E+02  0.15951923386E+02 -0.92162363029E+01  0.30440627150E+02  0.00000000000E+00 0.  1.
</event>
<event>
 5    1  0.1319298E-009  0.9118800E+02  0.7818608E-02  0.1130116E+00
         25   -1    0    0    0    0  0.00000000000E+00  0.00000000000E+00  0.99999998245E-14  0.12500000000E+03  0.12500000000E+03 0.  0.
        -13    1    3    3    0    0  0.60650105550E+01 -0.13244981106E+02  0.56618008785E+02  0.58462158362E+02  0.10566000000E+00 0. -1.
         23    2    1    0    0    0  0.53546666704E+01  0.95662938117E+01  0.27043859581E+02  0.95818554294E+02  0.91266853641E+02 0.  0.
         13    1    3    3    0    0 -0.71034388457E+00  0.22811274918E+02 -0.29574149204E+02  0.37356395932E+02  0.10566000000E+00 0.  1.
         22    1    1    0    0    0 -0.53546666704E+01 -0.95662938117E+01 -0.27043859581E+02  0.29181445706E+02  0.00000000000E+00 0. -1.
</event>
<event>
 5    1  0.1319298E-009  0.9118800E+02  0.7818608E-02  0.1130116E+00
         25   -1    0    0    0    0  0.00000000000E+00  0.00000000000E+00  0.99999998245E-14  0.12500000000E+03  0.12500000000E+03 0.  0.
        -13    1    3    3    0    0 -0.17377902229E+02  0.29506473679E+02  0.13739739966E+02  0.36897358893E+02  0.10566000000E+00 0.  1.
         23    2    1    0    0    0 -0.10962584300E+02 -0.15511650734E+02 -0.22866223616E+02  0.95273685975E+02  0.90517520370E+02 0.  0.
         13    1    3    3    0    0  0.64153179290E+01 -0.45018124414E+02 -0.36605963582E+02  0.58376327083E+02  0.10566000000E+00 0. -1.
         22    1    1    0    0    0  0.10962584300E+02  0.15511650734E+02  0.22866223616E+02  0.29726314025E+02  0.00000000000E+00 0. -1.
</event>
<event>
 5    1  0.1319298E-009  0.9118800E+02  0.7818608E-02  0.1130116E+00
         25   -1    0    0    0    0  0.00000000000E+00  0.00000000000E+00  0.99999998245E-14  0.12500000000E+03  0.12500000000E+03 0.  0.
        -13    1    3    3    0    0  0.14556726025E+01 -0.94919840611E+00  0.37602751564E+02  0.37643034543E+02  0.10566000000E+00 0.  1.
         23    2    1    0    0    0  0.21799671473E+02  0.97471550244E+01 -0.16196060787E+02  0.96146142504E+02  0.91714424308E+02 0.  0.
         13    1    3    3    0    0  0.20343998870E+02  0.10696353431E+02 -0.53798812351E+02  0.58503107961E+02  0.10566000000E+00 0. -1.
         22    1    1    0    0    0 -0.21799671473E+02 -0.97471550244E+01  0.16196060787E+02  0.28853857496E+02  0.00000000000E+00 0. -1.
</event>
<event>
 5    1  0.1319298E-009  0.9118800E+02  0.7818608E-02  0.1130116E+00
         25   -1    0    0    0    0  0.00000000000E+00  0.00000000000E+00  0.99999998245E-14  0.12500000000E+03  0.12500000000E+03 0.  0.
        -13    1    3    3    0    0 -0.30851516843E+02  0.35053185675E+02 -0.15313565206E+02  0.49143243287E+02  0.10566000000E+00 0. -1.
         23    2    1    0    0    0 -0.26633702086E+02 -0.10429412586E+02 -0.51761611931E+01  0.95932503060E+02  0.91422785808E+02 0.  0.
         13    1    3    3    0    0  0.42178147568E+01 -0.45482598261E+02  0.10137404013E+02  0.46789259772E+02  0.10566000000E+00 0.  1.
         22    1    1    0    0    0  0.26633702086E+02  0.10429412586E+02  0.51761611931E+01  0.29067496940E+02  0.00000000000E+00 0. -1.
</event>
<event>
 5    1  0.1319298E-009  0.9118800E+02  0.7818608E-02  0.1130116E+00
         25   -1    0    0    0    0  0.00000000000E+00  0.00000000000E+00  0.99999998245E-14  0.12500000000E+03  0.12500000000E+03 0.  0.
        -13    1    3    3    0    0  0.15283951615E+02 -0.18421369791E+02 -0.46875247193E+02  0.52633126503E+02  0.10566000000E+00 0. -1.
         23    2    1    0    0    0  0.46858645239E+01  0.15714807133E+02 -0.26668513437E+02  0.93693098229E+02  0.88307839727E+02 0.  0.
         13    1    3    3    0    0 -0.10598087091E+02  0.34136176925E+02  0.20206733756E+02  0.41059971726E+02  0.10566000000E+00 0.  1.
         22    1    1    0    0    0 -0.46858645239E+01 -0.15714807133E+02  0.26668513437E+02  0.31306901771E+02  0.00000000000E+00 0. -1.
</event>
<event>
 5    1  0.1319298E-009  0.9118800E+02  0.7818608E-02  0.1130116E+00
         25   -1    0    0    0    0  0.00000000000E+00  0.00000000000E+00  0.99999998245E-14  0.12500000000E+03  0.12500000000E+03 0.  0.
        -13    1    3    3    0    0  0.63428663170E+00  0.22533840961E+01  0.27231942601E+02  0.27332579850E+02  0.10566000000E+00 0.  1.
         23    2    1    0    0    0 -0.50976745111E+01  0.90992608220E+01 -0.34115148649E+02  0.89326113188E+02  0.81893395930E+02 0.  0.
         13    1    3    3    0    0 -0.57319611428E+01  0.68458767259E+01 -0.61347091251E+02  0.61993533337E+02  0.10566000000E+00 0. -1.
         22    1    1    0    0    0  0.50976745111E+01 -0.90992608220E+01  0.34115148649E+02  0.35673886812E+02  0.00000000000E+00 0. -1.
</event>
<event>
 5    1  0.1319298E-009  0.9118800E+02  0.7818608E-02  0.1130116E+00
         25   -1    0    0    0    0  0.00000000000E+00  0.00000000000E+00  0.99999998245E-14  0.12500000000E+03  0.12500000000E+03 0.  0.
        -13    1    3    3    0    0  0.23542621902E+02 -0.40048590167E+02  0.10019679714E+02  0.47524201898E+02  0.10566000000E+00 0. -1.
         23    2    1    0    0    0  0.10793669973E+02  0.33456071158E+01  0.26917995973E+02  0.95806252285E+02  0.91250003130E+02 0.  0.
         13    1    3    3    0    0 -0.12748951930E+02  0.43394197283E+02  0.16898316259E+02  0.48282050387E+02  0.10566000000E+00 0.  1.
         22    1    1    0    0    0 -0.10793669973E+02 -0.33456071158E+01 -0.26917995973E+02  0.29193747715E+02  0.00000000000E+00 0. -1.
</event>
<event>
 5    1  0.1319298E-009  0.9118800E+02  0.7818608E-02  0.1130116E+00
         25   -1    0    0    0    0  0.00000000000E+00  0.00000000000E+00  0.99999998245E-14  0.12500000000E+03  0.12500000000E+03 0.  0.
        -13    1    3    3    0    0  0.67021822218E+01  0.22130621923E+02 -0.28135737389E+02  0.36418601781E+02  0.10566000000E+00 0.  1.
         23    2    1    0    0    0  0.13985354954E+02 -0.24875445573E+02  0.70736615307E+01  0.95599070880E+02  0.90965750258E+02 0.  0.
         13    1    3    3    0    0  0.72831727324E+01 -0.47006067496E+02  0.35209398919E+02  0.59180469099E+02  0.10566000000E+00 0. -1.
         22    1    1    0    0    0 -0.13985354954E+02  0.24875445573E+02 -0.70736615307E+01  0.29400929120E+02  0.00000000000E+00 0. -1.
</event>
<event>
 5    1  0.1319298E-009  0.9118800E+02  0.7818608E-02  0.1130116E+00
         25   -1    0    0    0    0  0.00000000000E+00  0.00000000000E+00  0.99999998245E-14  0.12500000000E+03  0.12500000000E+03 0.  0.
        -13    1    3    3    0    0  0.18272773106E+02 -0.94319670504E+01 -0.88958877189E+00  0.20582972858E+02  0.10566000000E+00 0. -1.
         23    2    1    0    0    0 -0.16618185159E+02  0.27290504326E+02  0.31033315968E+02  0.80457858108E+02  0.67003466530E+02 0.  0.
         13    1    3    3    0    0 -0.34890958265E+02  0.36722471376E+02  0.31922904740E+02  0.59874885250E+02  0.10566000000E+00 0.  1.
         22    1    1    0    0    0  0.16618185159E+02 -0.27290504326E+02 -0.31033315968E+02  0.44542141892E+02  0.00000000000E+00 0.  1.
</event>
<event>
 5    1  0.1319298E-009  0.9118800E+02  0.7818608E-02  0.1130116E+00
         25   -1    0    0    0    0  0.00000000000E+00  0.00000000000E+00  0.99999998245E-14  0.12500000000E+03  0.12500000000E+03 0.  0.
        -13    1    3    3    0    0  0.24570950771E+02  0.16175284052E+02  0.37290585894E+02  0.47497056712E+02  0.10566000000E+00 0. -1.
         23    2    1    0    0    0  0.44994540615E+01 -0.23090272925E+02  0.16601239821E+02  0.96207519138E+02  0.91798038021E+02 0.  0.
         13    1    3    3    0    0 -0.20071496709E+02 -0.39265556976E+02 -0.20689346073E+02  0.48710462426E+02  0.10566000000E+00 0.  1.
         22    1    1    0    0    0 -0.44994540615E+01  0.23090272925E+02 -0.16601239821E+02  0.28792480862E+02  0.00000000000E+00 0.  1.
</event>
<event>
 5    1  0.1319298E-009  0.9118800E+02  0.7818608E-02  0.1130116E+00
         25   -1    0    0    0    0  0.00000000000E+00  0.00000000000E+00  0.99999998245E-14  0.12500000000E+03  0.12500000000E+03 0.  0.
        -13    1    3    3    0    0  0.50967130778E+01  0.34135475229E+02  0.14939142372E+02  0.37608460380E+02  0.10566000000E+00 0.  1.
         23    2    1    0    0    0  0.19445927737E+02 -0.20780872366E+02  0.10940472223E+02  0.94509301512E+02  0.89455717413E+02 0.  0.
         13    1    3    3    0    0  0.14349214659E+02 -0.54916347595E+02 -0.39986701492E+01  0.56900841132E+02  0.10566000000E+00 0. -1.
         22    1    1    0    0    0 -0.19445927737E+02  0.20780872366E+02 -0.10940472223E+02  0.30490698488E+02  0.00000000000E+00 0. -1.
</event>
<event>
 5    1  0.1319298E-009  0.9118800E+02  0.7818608E-02  0.1130116E+00
         25   -1    0    0    0    0  0.00000000000E+00  0.00000000000E+00  0.99999998245E-14  0.12500000000E+03  0.12500000000E+03 0.  0.
        -13    1    3    3    0    0  0.18111914091E+02 -0.31952839253E+02  0.53228140556E+01  0.37112920687E+02  0.10566000000E+00 0.  1.
         23    2    1    0    0    0 -0.15077832769E+02  0.56547174379E+01 -0.24658520042E+02  0.95549032597E+02  0.90896964467E+02 0.  0.
         13    1    3    3    0    0 -0.33189746860E+02  0.37607556691E+02 -0.29981334098E+02  0.58436111910E+02  0.10566000000E+00 0. -1.
         22    1    1    0    0    0  0.15077832769E+02 -0.56547174379E+01  0.24658520042E+02  0.29450967403E+02  0.00000000000E+00 0.  1.
</event>
<event>
 5    1  0.1319298E-009  0.9118800E+02  0.7818608E-02  0.1130116E+00
         25   -1    0    0    0    0  0.00000000000E+00  0.00000000000E+00  0.99999998245E-14  0.12500000000E+03  0.12500000000E+03 0.  0.
        -13    1    3    3    0    0  0.37469371038E+02  0.34435226756E+02 -0.10272474221E+02  0.51916023523E+02  0.10566000000E+00 0.  1.
         23    2    1    0    0    0  0.25198680662E+02  0.10213666067E+01  0.15078613633E+02  0.95616649512E+02  0.90989902615E+02 0.  0.
         13    1    3    3    0    0 -0.12270690377E+02 -0.33413860150E+02  0.25351087854E+02  0.43700625989E+02  0.10566000000E+00 0. -1.
         22    1    1    0    0    0 -0.25198680662E+02 -0.10213666067E+01 -0.15078613633E+02  0.29383350488E+02  0.00000000000E+00 0.  1.
</event>
<event>
 5    1  0.1319298E-009  0.9118800E+02  0.7818608E-02  0.1130116E+00
         25   -1    0    0    0    0  0.00000000000E+00  0.00000000000E+00  0.99999998245E-14  0.12500000000E+03  0.12500000000E+03 0.  0.
        -13    1    3    3    0    0  0.97809884496E+01  0.14493365055E+02 -0.37368826865E+02  0.41257311485E+02  0.10566000000E+00 0. -1.
         23    2    1    0    0    0  0.26372820605E+02  0.96268188845E+00  0.12700875439E+02  0.95712380432E+02  0.91121320820E+02 0.  0.
         13    1    3    3    0    0  0.16591832155E+02 -0.13530683166E+02  0.50069702304E+02  0.54455068947E+02  0.10566000000E+00 0.  1.
         22    1    1    0    0    0 -0.26372820605E+02 -0.96268188845E+00 -0.12700875439E+02  0.29287619568E+02  0.00000000000E+00 0.  1.
</event>
<event>
 5    1  0.1319298E-009  0.9118800E+02  0.7818608E-02  0.1130116E+00
         25   -1    0    0    0    0  0.00000000000E+00  0.00000000000E+00  0.99999998245E-14  0.12500000000E+03  0.12500000000E+03 0.  0.
        -13    1    3    3    0    0  0.25320998670E+02  0.40662112388E+02  0.16566815291E+02  0.50685608317E+02  0.10566000000E+00 0. -1.
         23    2    1    0    0    0 -0.13847029257E+02  0.18748100827E+02  0.17939224200E+02  0.95588314078E+02  0.90950967666E+02 0.  0.
         13    1    3    3    0    0 -0.39168027927E+02 -0.21914011561E+02  0.13724089092E+01  0.44902705761E+02  0.10566000000E+00 0.  1.
         22    1    1    0    0    0  0.13847029257E+02 -0.18748100827E+02 -0.17939224200E+02  0.29411685922E+02  0.00000000000E+00 0. -1.
</event>
<event>
 5    1  0.1319298E-009  0.9118800E+02  0.7818608E-02  0.1130116E+00
         25   -1    0    0    0    0  0.00000000000E+00  0.00000000000E+00  0.99999998245E-14  0.12500000000E+03  0.12500000000E+03 0.  0.
        -13    1    3    3    0    0  0.17352316326E+02  0.78668986429E+01 -0.34866048682E+02  0.39732146820E+02  0.10566000000E+00 0. -1.
         23    2    1    0    0    0 -0.10263988893E+02 -0.25577291459E+02  0.29593850189E+01  0.97281679956E+02  0.93249235863E+02 0.  0.
         13    1    3    3    0    0 -0.27616305220E+02 -0.33444190101E+02  0.37825433701E+02  0.57549533137E+02  0.10566000000E+00 0.  1.
         22    1    1    0    0    0  0.10263988893E+02  0.25577291459E+02 -0.29593850189E+01  0.27718320044E+02  0.00000000000E+00 0.  1.
</event>
<event>
 5    1  0.1319298E-009  0.9118800E+02  0.7818608E-02  0.1130116E+00
         25   -1    0    0    0    0  0.00000000000E+00  0.00000000000E+00  0.99999998245E-14  0.12500000000E+03  0.12500000000E+03 0.  0.
        -13    1    3    3    0    0 -0.20522180391E+02  0.24233935130E+02  0.24122976739E+02  0.39879476811E+02  0.10566000000E+00 0.  1.
         23    2    1    0    0    0 -0.69019347273E+01 -0.12068263314E+02 -0.21277312245E+02  0.99583397183E+02  0.96285249627E+02 0.  0.
         13    1    3    3    0    0  0.13620245664E+02 -0.36302198444E+02 -0.45400288985E+02  0.59703920372E+02  0.10566000000E+00 0. -1.
         22    1    1    0    0    0  0.69019347273E+01  0.12068263314E+02  0.21277312245E+02  0.25416602817E+02  0.00000000000E+00 0. -1.
</event>
<event>
 5    1  0.1319298E-009  0.9118800E+02  0.7818608E-02  0.1130116E+00
         25   -1    0    0    0    0  0.00000000000E+00  0.00000000000E+00  0.99999998245E-14  0.12500000000E+03  0.12500000000E+03 0.  0.
        -13    1    3    3    0    0  0.32081029563E+02 -0.33088299057E+02  0.73385110750E+01  0.46667900115E+02  0.10566000000E+00 0.  1.
         23    2    1    0    0    0 -0.15831371196E+02 -0.23384068163E+02  0.83120951491E+01  0.95562984466E+02  0.90916148821E+02 0.  0.
         13    1    3    3    0    0 -0.47912400759E+02  0.97042308935E+01  0.97358407407E+00  0.48895084351E+02  0.10566000000E+00 0. -1.
         22    1    1    0    0    0  0.15831371196E+02  0.23384068163E+02 -0.83120951491E+01  0.29437015534E+02  0.00000000000E+00 0. -1.
</event>
<event>
 5    1  0.1319298E-009  0.9118800E+02  0.7818608E-02  0.1130116E+00
         25   -1    0    0    0    0  0.00000000000E+00  0.00000000000E+00  0.99999998245E-14  0.12500000000E+03  0.12500000000E+03 0.  0.
        -13    1    3    3    0    0 -0.47498337310E+02  0.38004210526E+02 -0.13684197436E+02  0.62351266935E+02  0.10566000000E+00 0.  1.
         23    2    1    0    0    0 -0.21722077609E+02  0.19833495204E+02 -0.41775609794E+01  0.95290267530E+02  0.90540415741E+02 0.  0.
         13    1    3    3    0    0  0.25776259700E+02 -0.18170715321E+02  0.95066364568E+01  0.32939000595E+02  0.10566000000E+00 0. -1.
         22    1    1    0    0    0  0.21722077609E+02 -0.19833495204E+02  0.41775609794E+01  0.29709732470E+02  0.00000000000E+00 0.  1.
</event>
<event>
 5    1  0.1319298E-009  0.9118800E+02  0.7818608E-02  0.1130116E+00
         25   -1    0    0    0    0  0.00000000000E+00  0.00000000000E+00  0.99999998245E-14  0.12500000000E+03  0.12500000000E+03 0.  0.
        -13    1    3    3    0    0  0.13261198851E+02 -0.53976065451E+02 -0.71856671505E+01  0.56043911471E+02  0.10566000000E+00 0.  1.
         23    2    1    0    0    0  0.22614441548E+02 -0.16775526663E+02 -0.11377881463E+02  0.94630814171E+02  0.89625351004E+02 0.  0.
         13    1    3    3    0    0  0.93532426974E+01  0.37200538788E+02 -0.41922143123E+01  0.38586902699E+02  0.10566000000E+00 0. -1.
         22    1    1    0    0    0 -0.22614441548E+02  0.16775526663E+02  0.11377881463E+02  0.30369185829E+02  0.00000000000E+00 0.  1.
</event>
<event>
 5    1  0.1319298E-009  0.9118800E+02  0.7818608E-02  0.1130116E+00
         25   -1    0    0    0    0  0.00000000000E+00  0.00000000000E+00  0.99999998245E-14  0.12500000000E+03  0.12500000000E+03 0.  0.
        -13    1    3    3    0    0  0.26331047572E+02 -0.23128091375E+02 -0.10584206400E+02  0.36609688145E+02  0.10566000000E+00 0.  1.
         23    2    1    0    0    0  0.11371759089E+02  0.23120301508E+02  0.18524171477E+02  0.93266576366E+02  0.87702018742E+02 0.  0.
         13    1    3    3    0    0 -0.14959288483E+02  0.46248392883E+02  0.29108377878E+02  0.56656888221E+02  0.10566000000E+00 0. -1.
         22    1    1    0    0    0 -0.11371759089E+02 -0.23120301508E+02 -0.18524171477E+02  0.31733423634E+02  0.00000000000E+00 0.  1.
</event>
<event>
 5    1  0.1319298E-009  0.9118800E+02  0.7818608E-02  0.1130116E+00
         25   -1    0    0    0    0  0.00000000000E+00  0.00000000000E+00  0.99999998245E-14  0.12500000000E+03  0.12500000000E+03 0.  0.
        -13    1    3    3    0    0  0.16298688032E+02 -0.16279887866E+02  0.53023122235E+02  0.57811284678E+02  0.10566000000E+00 0. -1.
         23    2    1    0    0    0  0.13358733633E+02 -0.20565644878E+02  0.14862568085E+02  0.96324270827E+02  0.91956879605E+02 0.  0.
         13    1    3    3    0    0 -0.29399543989E+01 -0.42857570121E+01 -0.38160554150E+02  0.38512986149E+02  0.10566000000E+00 0.  1.
         22    1    1    0    0    0 -0.13358733633E+02  0.20565644878E+02 -0.14862568085E+02  0.28675729173E+02  0.00000000000E+00 0.  1.
</event>
<event>
 5    1  0.1319298E-009  0.9118800E+02  0.7818608E-02  0.1130116E+00
         25   -1    0    0    0    0  0.00000000000E+00  0.00000000000E+00  0.99999998245E-14  0.12500000000E+03  0.12500000000E+03 0.  0.
        -13    1    3    3    0    0  0.52477988649E+02  0.51743140229E+01 -0.22189820902E+02  0.57211118971E+02  0.10566000000E+00 0.  1.
         23    2    1    0    0    0  0.24353243872E+02 -0.78446021894E+01  0.55671072107E+01  0.98815826282E+02  0.95283558762E+02 0.  0.
         13    1    3    3    0    0 -0.28124744777E+02 -0.13018916212E+02  0.27756928112E+02  0.41604707310E+02  0.10566000000E+00 0. -1.
         22    1    1    0    0    0 -0.24353243872E+02  0.78446021894E+01 -0.55671072107E+01  0.26184173718E+02  0.00000000000E+00 0.  1.
</event>
<event>
 5    1  0.1319298E-009  0.9118800E+02  0.7818608E-02  0.1130116E+00
         25   -1    0    0    0    0  0.00000000000E+00  0.00000000000E+00  0.99999998245E-14  0.12500000000E+03  0.12500000000E+03 0.  0.
        -13    1    3    3    0    0 -0.11144149495E+02 -0.35162286757E+02  0.21892674245E+02  0.42893808732E+02  0.10566000000E+00 0. -1.
         23    2    1    0    0    0  0.56231051901E+01 -0.18237870186E+02 -0.23841087453E+02  0.94460899295E+02  0.89388057501E+02 0.  0.
         13    1    3    3    0    0  0.16767254686E+02  0.16924416570E+02 -0.45733761699E+02  0.51567090563E+02  0.10566000000E+00 0.  1.
         22    1    1    0    0    0 -0.56231051901E+01  0.18237870186E+02  0.23841087453E+02  0.30539100705E+02  0.00000000000E+00 0.  1.
</event>
<event>
 5    1  0.1319298E-009  0.9118800E+02  0.7818608E-02  0.1130116E+00
         25   -1    0    0    0    0  0.00000000000E+00  0.00000000000E+00  0.99999998245E-14  0.12500000000E+03  0.12500000000E+03 0.  0.
        -13    1    3    3    0    0  0.59263682880E+01  0.32520297866E+02 -0.47398372790E+02  0.57786750398E+02  0.10566000000E+00 0. -1.
         23    2    1    0    0    0  0.96325860673E+01  0.23733834405E+02 -0.82348251483E+01  0.98094722542E+02  0.94332818443E+02 0.  0.
         13    1    3    3    0    0  0.37062177794E+01 -0.87864634614E+01  0.39163547642E+02  0.40307972143E+02  0.10566000000E+00 0.  1.
         22    1    1    0    0    0 -0.96325860673E+01 -0.23733834405E+02  0.82348251483E+01  0.26905277458E+02  0.00000000000E+00 0. -1.
</event>
<event>
 5    1  0.1319298E-009  0.9118800E+02  0.7818608E-02  0.1130116E+00
         25   -1    0    0    0    0  0.00000000000E+00  0.00000000000E+00  0.99999998245E-14  0.12500000000E+03  0.12500000000E+03 0.  0.
        -13    1    3    3    0    0  0.21731951290E+02  0.53772098782E+01 -0.40781224109E+02  0.46522161351E+02  0.10566000000E+00 0. -1.
         23    2    1    0    0    0  0.36914261145E+01  0.28559615135E+02 -0.72676014417E+00  0.96193639179E+02  0.91779135945E+02 0.  0.
         13    1    3    3    0    0 -0.18040525175E+02  0.23182405257E+02  0.40054463965E+02  0.49671477828E+02  0.10566000000E+00 0.  1.
         22    1    1    0    0    0 -0.36914261145E+01 -0.28559615135E+02  0.72676014417E+00  0.28806360821E+02  0.00000000000E+00 0.  1.
</event>
<event>
 5    1  0.1319298E-009  0.9118800E+02  0.7818608E-02  0.1130116E+00
         25   -1    0    0    0    0  0.00000000000E+00  0.00000000000E+00  0.99999998245E-14  0.12500000000E+03  0.12500000000E+03 0.  0.
        -13    1    3    3    0    0  0.37199229726E+02  0.10090290730E+01  0.81432606718E+01  0.38093630573E+02  0.10566000000E+00 0.  1.
         23    2    1    0    0    0 -0.61894933272E+01  0.11541078252E+02 -0.27051009149E+02  0.94945659035E+02  0.90063393001E+02 0.  0.
         13    1    3    3    0    0 -0.43388723053E+02  0.10532049179E+02 -0.35194269820E+02  0.56852028462E+02  0.10566000000E+00 0. -1.
         22    1    1    0    0    0  0.61894933272E+01 -0.11541078252E+02  0.27051009149E+02  0.30054340965E+02  0.00000000000E+00 0. -1.
</event>
<event>
 4    1  0.1319298E-009  0.9118800E+02  0.7818608E-02  0.1130116E+00
         25   -1    0    0    0    0  0.00000000000E+00  0.00000000000E+00  0.99999998245E-14  0.12500000000E+03  0.12500000000E+03 0.  0.
        -13    1    1    0    0    0 -0.33605307933E+01  0.44750863621E+01 -0.95765642546E+01  0.11092398844E+02  0.10566000000E+00 0. -1.
         13    1    1    0    0    0  0.25147540880E+02  0.31206378751E+00  0.56559019819E+02  0.61898546695E+02  0.10566000000E+00 0.  1.
         22    1    1    0    0    0 -0.21787010086E+02 -0.47871501496E+01 -0.46982455564E+02  0.52009054461E+02  0.00000000000E+00 0.  1.
</event>
<event>
 5    1  0.1319298E-009  0.9118800E+02  0.7818608E-02  0.1130116E+00
         25   -1    0    0    0    0  0.00000000000E+00  0.00000000000E+00  0.99999998245E-14  0.12500000000E+03  0.12500000000E+03 0.  0.
        -13    1    3    3    0    0  0.25344046448E+02 -0.17654497870E+01 -0.24460268106E+02  0.35266887914E+02  0.10566000000E+00 0. -1.
         23    2    1    0    0    0 -0.29095184896E+01 -0.13401444091E+02  0.26772392116E+02  0.94919691139E+02  0.90027344650E+02 0.  0.
         13    1    3    3    0    0 -0.28253564937E+02 -0.11635994304E+02  0.51232660222E+02  0.59652803225E+02  0.10566000000E+00 0.  1.
         22    1    1    0    0    0  0.29095184896E+01  0.13401444091E+02 -0.26772392116E+02  0.30080308861E+02  0.00000000000E+00 0.  1.
</event>
<event>
 5    1  0.1319298E-009  0.9118800E+02  0.7818608E-02  0.1130116E+00
         25   -1    0    0    0    0  0.00000000000E+00  0.00000000000E+00  0.99999998245E-14  0.12500000000E+03  0.12500000000E+03 0.  0.
        -13    1    3    3    0    0 -0.22602184026E+01  0.64293783795E+00  0.55339527600E+02  0.55389497518E+02  0.10566000000E+00 0. -1.
         23    2    1    0    0    0  0.12670154860E+02 -0.14952175897E+02  0.18732673861E+02  0.97888868371E+02  0.94059646463E+02 0.  0.
         13    1    3    3    0    0  0.14930373263E+02 -0.15595113734E+02 -0.36606853739E+02  0.42499370853E+02  0.10566000000E+00 0.  1.
         22    1    1    0    0    0 -0.12670154860E+02  0.14952175897E+02 -0.18732673861E+02  0.27111131629E+02  0.00000000000E+00 0. -1.
</event>
<event>
 5    1  0.1319298E-009  0.9118800E+02  0.7818608E-02  0.1130116E+00
         25   -1    0    0    0    0  0.00000000000E+00  0.00000000000E+00  0.99999998245E-14  0.12500000000E+03  0.12500000000E+03 0.  0.
        -13    1    3    3    0    0 -0.27983263412E+02  0.30883047886E+02 -0.41096161990E+02  0.58529747755E+02  0.10566000000E+00 0.  1.
         23    2    1    0    0    0 -0.23492859641E+02  0.16710145823E+02 -0.75874516541E+01  0.95188712706E+02  0.90400100534E+02 0.  0.
         13    1    3    3    0    0  0.44904037711E+01 -0.14172902063E+02  0.33508710336E+02  0.36658964952E+02  0.10566000000E+00 0. -1.
         22    1    1    0    0    0  0.23492859641E+02 -0.16710145823E+02  0.75874516541E+01  0.29811287294E+02  0.00000000000E+00 0.  1.
</event>
<event>
 5    1  0.1319298E-009  0.9118800E+02  0.7818608E-02  0.1130116E+00
         25   -1    0    0    0    0  0.00000000000E+00  0.00000000000E+00  0.99999998245E-14  0.12500000000E+03  0.12500000000E+03 0.  0.
        -13    1    3    3    0    0 -0.11062459013E+02 -0.31336622485E+02  0.12148555589E+02  0.35383053502E+02  0.10566000000E+00 0. -1.
         23    2    1    0    0    0  0.42428302099E+00  0.23796451617E+02 -0.13905954451E+02  0.97435045895E+02  0.93454595787E+02 0.  0.
         13    1    3    3    0    0  0.11486742034E+02  0.55133074102E+02 -0.26054510039E+02  0.62051992393E+02  0.10566000000E+00 0.  1.
         22    1    1    0    0    0 -0.42428302099E+00 -0.23796451617E+02  0.13905954451E+02  0.27564954105E+02  0.00000000000E+00 0.  1.
</event>
<event>
 5    1  0.1319298E-009  0.9118800E+02  0.7818608E-02  0.1130116E+00
         25   -1    0    0    0    0  0.00000000000E+00  0.00000000000E+00  0.99999998245E-14  0.12500000000E+03  0.12500000000E+03 0.  0.
        -13    1    3    3    0    0  0.14337072793E+02 -0.51396772865E+02 -0.25098870565E+02  0.58967316243E+02  0.10566000000E+00 0.  1.
         23    2    1    0    0    0  0.16573139897E+02 -0.15638076711E+02 -0.19042514450E+02  0.95304280344E+02  0.90559759750E+02 0.  0.
         13    1    3    3    0    0  0.22360671044E+01  0.35758696153E+02  0.60563561146E+01  0.36336964101E+02  0.10566000000E+00 0. -1.
         22    1    1    0    0    0 -0.16573139897E+02  0.15638076711E+02  0.19042514450E+02  0.29695719656E+02  0.00000000000E+00 0.  1.
</event>
<event>
 5    1  0.1319298E-009  0.9118800E+02  0.7818608E-02  0.1130116E+00
         25   -1    0    0    0    0  0.00000000000E+00  0.00000000000E+00  0.99999998245E-14  0.12500000000E+03  0.12500000000E+03 0.  0.
        -13    1    3    3    0    0  0.33173736404E+02 -0.35881957711E+02  0.59435993101E+01  0.49227524953E+02  0.10566000000E+00 0. -1.
         23    2    1    0    0    0  0.14102641232E+02 -0.36507098945E+00  0.26872300343E+02  0.94649739832E+02  0.89651742637E+02 0.  0.
         13    1    3    3    0    0 -0.19071095172E+02  0.35516886722E+02  0.20928701033E+02  0.45422214879E+02  0.10566000000E+00 0.  1.
         22    1    1    0    0    0 -0.14102641232E+02  0.36507098945E+00 -0.26872300343E+02  0.30350260168E+02  0.00000000000E+00 0. -1.
</event>
<event>
 5    1  0.1319298E-009  0.9118800E+02  0.7818608E-02  0.1130116E+00
         25   -1    0    0    0    0  0.00000000000E+00  0.00000000000E+00  0.99999998245E-14  0.12500000000E+03  0.12500000000E+03 0.  0.
        -13    1    3    3    0    0 -0.56749546275E+02 -0.17761632863E+01  0.79237479482E+01  0.57327678342E+02  0.10566000000E+00 0.  1.
         23    2    1    0    0    0 -0.32032121057E+02  0.16306974930E+02 -0.35922369184E+00  0.89054162237E+02  0.81477239517E+02 0.  0.
         13    1    3    3    0    0  0.24717425218E+02  0.18083138216E+02 -0.82829716401E+01  0.31726483896E+02  0.10566000000E+00 0. -1.
         22    1    1    0    0    0  0.32032121057E+02 -0.16306974930E+02  0.35922369184E+00  0.35945837763E+02  0.00000000000E+00 0.  1.
</event>
<event>
 5    1  0.1319298E-009  0.9118800E+02  0.7818608E-02  0.1130116E+00
         25   -1    0    0    0    0  0.00000000000E+00  0.00000000000E+00  0.99999998245E-14  0.12500000000E+03  0.12500000000E+03 0.  0.
        -13    1    3    3    0    0  0.21723399443E+02 -0.41990019353E+02 -0.30773792327E+02  0.56410152162E+02  0.10566000000E+00 0.  1.
         23    2    1    0    0    0  0.19863685370E+02 -0.37164134730E+01 -0.20786876914E+02  0.96009105267E+02  0.91527462091E+02 0.  0.
         13    1    3    3    0    0 -0.18597140737E+01  0.38273605880E+02  0.99869154132E+01  0.39598953105E+02  0.10566000000E+00 0. -1.
         22    1    1    0    0    0 -0.19863685370E+02  0.37164134730E+01  0.20786876914E+02  0.28990894733E+02  0.00000000000E+00 0.  1.
</event>
<event>
 5    1  0.1319298E-009  0.9118800E+02  0.7818608E-02  0.1130116E+00
         25   -1    0    0    0    0  0.00000000000E+00  0.00000000000E+00  0.99999998245E-14  0.12500000000E+03  0.12500000000E+03 0.  0.
        -13    1    3    3    0    0 -0.19484571103E+02 -0.30462532207E+01  0.32416613117E+02  0.37944382190E+02  0.10566000000E+00 0. -1.
         23    2    1    0    0    0  0.10716046389E+01  0.20352271435E+02 -0.18397407773E+02  0.97544073466E+02  0.93600311787E+02 0.  0.
         13    1    3    3    0    0  0.20556175742E+02  0.23398524656E+02 -0.50814020890E+02  0.59599691276E+02  0.10566000000E+00 0.  1.
         22    1    1    0    0    0 -0.10716046389E+01 -0.20352271435E+02  0.18397407773E+02  0.27455926534E+02  0.00000000000E+00 0.  1.
</event>
<event>
 5    1  0.1319298E-009  0.9118800E+02  0.7818608E-02  0.1130116E+00
         25   -1    0    0    0    0  0.00000000000E+00  0.00000000000E+00  0.99999998245E-14  0.12500000000E+03  0.12500000000E+03 0.  0.
        -13    1    3    3    0    0  0.21336880765E+02 -0.33448426899E+02  0.13050397469E+02  0.41765820726E+02  0.10566000000E+00 0.  1.
         23    2    1    0    0    0 -0.19848931417E+02  0.10073618139E+01  0.21042673226E+02  0.96055415831E+02  0.91590687069E+02 0.  0.
         13    1    3    3    0    0 -0.41185812181E+02  0.34455788713E+02  0.79922757570E+01  0.54289595105E+02  0.10566000000E+00 0. -1.
         22    1    1    0    0    0  0.19848931417E+02 -0.10073618139E+01 -0.21042673226E+02  0.28944584169E+02  0.00000000000E+00 0. -1.
</event>
<event>
 5    1  0.1319298E-009  0.9118800E+02  0.7818608E-02  0.1130116E+00
         25   -1    0    0    0    0  0.00000000000E+00  0.00000000000E+00  0.99999998245E-14  0.12500000000E+03  0.12500000000E+03 0.  0.
        -13    1    3    3    0    0  0.35405337717E+02 -0.36858726359E+02 -0.18373158632E+02  0.54311028068E+02  0.10566000000E+00 0. -1.
         23    2    1    0    0    0  0.29446651087E+02 -0.22020027627E+02  0.10013246697E+02  0.86891575914E+02  0.78089013174E+02 0.  0.
         13    1    3    3    0    0 -0.59586866306E+01  0.14838698732E+02  0.28386405328E+02  0.32580547846E+02  0.10566000000E+00 0.  1.
         22    1    1    0    0    0 -0.29446651087E+02  0.22020027627E+02 -0.10013246697E+02  0.38108424086E+02  0.00000000000E+00 0. -1.
</event>
<event>
 5    1  0.1319298E-009  0.9118800E+02  0.7818608E-02  0.1130116E+00
         25   -1    0    0    0    0  0.00000000000E+00  0.00000000000E+00  0.99999998245E-14  0.12500000000E+03  0.12500000000E+03 0.  0.
        -13    1    3    3    0    0 -0.38050129027E+02  0.25087835844E+02 -0.50872988692E+01  0.45859607500E+02  0.10566000000E+00 0. -1.
         23    2    1    0    0    0 -0.22041635911E+02 -0.20644792823E+02  0.15203910845E+01  0.94761733294E+02  0.89807757591E+02 0.  0.
         13    1    3    3    0    0  0.16008493115E+02 -0.45732628667E+02  0.66076899538E+01  0.48902125794E+02  0.10566000000E+00 0.  1.
         22    1    1    0    0    0  0.22041635911E+02  0.20644792823E+02 -0.15203910845E+01  0.30238266706E+02  0.00000000000E+00 0.  1.
</event>
<event>
 5    1  0.1319298E-009  0.9118800E+02  0.7818608E-02  0.1130116E+00
         25   -1    0    0    0    0  0.00000000000E+00  0.00000000000E+00  0.99999998245E-14  0.12500000000E+03  0.12500000000E+03 0.  0.
        -13    1    3    3    0    0 -0.25035206697E+02 -0.32910548844E+02 -0.27321371636E+02  0.49561419588E+02  0.10566000000E+00 0. -1.
         23    2    1    0    0    0  0.13708943924E+02 -0.59134707329E+01 -0.23786689667E+02  0.96916003046E+02  0.92757753108E+02 0.  0.
         13    1    3    3    0    0  0.38744150620E+02  0.26997078111E+02  0.35346819691E+01  0.47354583458E+02  0.10566000000E+00 0.  1.
         22    1    1    0    0    0 -0.13708943924E+02  0.59134707329E+01  0.23786689667E+02  0.28083996954E+02  0.00000000000E+00 0.  1.
</event>
<event>
 5    1  0.1319298E-009  0.9118800E+02  0.7818608E-02  0.1130116E+00
         25   -1    0    0    0    0  0.00000000000E+00  0.00000000000E+00  0.99999998245E-14  0.12500000000E+03  0.12500000000E+03 0.  0.
        -13    1    3    3    0    0 -0.34358904451E+01  0.37628746188E+02 -0.80958474237E+01  0.38643004443E+02  0.10566000000E+00 0.  1.
         23    2    1    0    0    0 -0.22241080369E+02 -0.85178876406E+01  0.18236127203E+02  0.95003726879E+02  0.90143949989E+02 0.  0.
         13    1    3    3    0    0 -0.18805189923E+02 -0.46146633828E+02  0.26331974626E+02  0.56360722436E+02  0.10566000000E+00 0. -1.
         22    1    1    0    0    0  0.22241080369E+02  0.85178876406E+01 -0.18236127203E+02  0.29996273121E+02  0.00000000000E+00 0. -1.
</event>
<event>
 5    1  0.1319298E-009  0.9118800E+02  0.7818608E-02  0.1130116E+00
         25   -1    0    0    0    0  0.00000000000E+00  0.00000000000E+00  0.99999998245E-14  0.12500000000E+03  0.12500000000E+03 0.  0.
        -13    1    3    3    0    0 -0.11860301314E+02  0.33126585180E+02  0.13587930187E+02  0.37718435860E+02  0.10566000000E+00 0.  1.
         23    2    1    0    0    0 -0.15077465144E+02 -0.23793820599E+02  0.10908968333E+02  0.94792692210E+02  0.89850837795E+02 0.  0.
         13    1    3    3    0    0 -0.32171638295E+01 -0.56920405779E+02 -0.26789618546E+01  0.57074256349E+02  0.10566000000E+00 0. -1.
         22    1    1    0    0    0  0.15077465144E+02  0.23793820599E+02 -0.10908968333E+02  0.30207307790E+02  0.00000000000E+00 0. -1.
</event>
<event>
 5    1  0.1319298E-009  0.9118800E+02  0.7818608E-02  0.1130116E+00
         25   -1    0    0    0    0  0.00000000000E+00  0.00000000000E+00  0.99999998245E-14  0.12500000000E+03  0.12500000000E+03 0.  0.
        -13    1    3    3    0    0  0.24737610451E+02  0.43788410020E+02 -0.10811607080E+02  0.51441969583E+02  0.10566000000E+00 0. -1.
         23    2    1    0    0    0 -0.43955659508E+01  0.23248159450E+02  0.16335578553E+02  0.96248494918E+02  0.91853817174E+02 0.  0.
         13    1    3    3    0    0 -0.29133176402E+02 -0.20540250570E+02  0.27147185633E+02  0.44806525335E+02  0.10566000000E+00 0.  1.
         22    1    1    0    0    0  0.43955659508E+01 -0.23248159450E+02 -0.16335578553E+02  0.28751505082E+02  0.00000000000E+00 0. -1.
</event>
<event>
 5    1  0.1319298E-009  0.9118800E+02  0.7818608E-02  0.1130116E+00
         25   -1    0    0    0    0  0.00000000000E+00  0.00000000000E+00  0.99999998245E-14  0.12500000000E+03  0.12500000000E+03 0.  0.
        -13    1    3    3    0    0  0.17846864305E+02 -0.37239443934E+02 -0.14562571476E+02  0.43787742600E+02  0.10566000000E+00 0.  1.
         23    2    1    0    0    0 -0.92821356517E+01 -0.14810184084E+02  0.23552473958E+02  0.95670516124E+02  0.91063873358E+02 0.  0.
         13    1    3    3    0    0 -0.27128999957E+02  0.22429259850E+02  0.38115045434E+02  0.51882773524E+02  0.10566000000E+00 0. -1.
         22    1    1    0    0    0  0.92821356517E+01  0.14810184084E+02 -0.23552473958E+02  0.29329483876E+02  0.00000000000E+00 0. -1.
</event>
<event>
 5    1  0.1319298E-009  0.9118800E+02  0.7818608E-02  0.1130116E+00
         25   -1    0    0    0    0  0.00000000000E+00  0.00000000000E+00  0.99999998245E-14  0.12500000000E+03  0.12500000000E+03 0.  0.
        -13    1    3    3    0    0  0.37365965035E+02 -0.22631987265E+02  0.32764784502E+02  0.54607366335E+02  0.10566000000E+00 0.  1.
         23    2    1    0    0    0  0.17621040312E+02 -0.32813621104E+02  0.99572406170E+01  0.86446382370E+02  0.77373093466E+02 0.  0.
         13    1    3    3    0    0 -0.19744924723E+02 -0.10181633840E+02 -0.22807543885E+02  0.31839016035E+02  0.10566000000E+00 0. -1.
         22    1    1    0    0    0 -0.17621040312E+02  0.32813621104E+02 -0.99572406170E+01  0.38553617630E+02  0.00000000000E+00 0.  1.
</event>
<event>
 5    1  0.1319298E-009  0.9118800E+02  0.7818608E-02  0.1130116E+00
         25   -1    0    0    0    0  0.00000000000E+00  0.00000000000E+00  0.99999998245E-14  0.12500000000E+03  0.12500000000E+03 0.  0.
        -13    1    3    3    0    0 -0.47879568615E+01  0.12768269027E+02  0.52905909115E+02  0.54635149933E+02  0.10566000000E+00 0. -1.
         23    2    1    0    0    0  0.19847770645E+02  0.49275522663E+01  0.21230306522E+02  0.95522200117E+02  0.90860057392E+02 0.  0.
         13    1    3    3    0    0  0.24635727507E+02 -0.78407167609E+01 -0.31675602593E+02  0.40887050185E+02  0.10566000000E+00 0.  1.
         22    1    1    0    0    0 -0.19847770645E+02 -0.49275522663E+01 -0.21230306522E+02  0.29477799883E+02  0.00000000000E+00 0.  1.
</event>
<event>
 5    1  0.1319298E-009  0.9118800E+02  0.7818608E-02  0.1130116E+00
         25   -1    0    0    0    0  0.00000000000E+00  0.00000000000E+00  0.99999998245E-14  0.12500000000E+03  0.12500000000E+03 0.  0.
        -13    1    3    3    0    0 -0.47343270831E+02  0.85151584862E+01  0.20676920742E+01  0.48147478974E+02  0.10566000000E+00 0.  1.
         23    2    1    0    0    0 -0.29120690594E+02 -0.24286073765E+02  0.82967073759E+01  0.86184238345E+02  0.76948421596E+02 0.  0.
         13    1    3    3    0    0  0.18222580237E+02 -0.32801232252E+02  0.62290153016E+01  0.38036759370E+02  0.10566000000E+00 0. -1.
         22    1    1    0    0    0  0.29120690594E+02  0.24286073765E+02 -0.82967073759E+01  0.38815761655E+02  0.00000000000E+00 0. -1.
</event>
<event>
 5    1  0.1319298E-009  0.9118800E+02  0.7818608E-02  0.1130116E+00
         25   -1    0    0    0    0  0.00000000000E+00  0.00000000000E+00  0.99999998245E-14  0.12500000000E+03  0.12500000000E+03 0.  0.
        -13    1    3    3    0    0  0.28891838475E+02 -0.28374422441E+02 -0.35977284719E+02  0.54168462772E+02  0.10566000000E+00 0. -1.
         23    2    1    0    0    0  0.48471953941E+01 -0.28089544040E+02 -0.11738430181E+01  0.96471142768E+02  0.92156311189E+02 0.  0.
         13    1    3    3    0    0 -0.24044643081E+02  0.28487840173E+00  0.34803441701E+02  0.42302679996E+02  0.10566000000E+00 0.  1.
         22    1    1    0    0    0 -0.48471953941E+01  0.28089544040E+02  0.11738430181E+01  0.28528857232E+02  0.00000000000E+00 0.  1.
</event>
<event>
 5    1  0.1319298E-009  0.9118800E+02  0.7818608E-02  0.1130116E+00
         25   -1    0    0    0    0  0.00000000000E+00  0.00000000000E+00  0.99999998245E-14  0.12500000000E+03  0.12500000000E+03 0.  0.
        -13    1    3    3    0    0 -0.26548952483E+02 -0.20962039252E+02 -0.55238394925E+01  0.34275033688E+02  0.10566000000E+00 0.  1.
         23    2    1    0    0    0  0.20568331367E+02  0.36188035516E+01  0.22455309876E+02  0.94334173157E+02  0.89210668023E+02 0.  0.
         13    1    3    3    0    0  0.47117283849E+02  0.24580842804E+02  0.27979149369E+02  0.60059139469E+02  0.10566000000E+00 0. -1.
         22    1    1    0    0    0 -0.20568331367E+02 -0.36188035516E+01 -0.22455309876E+02  0.30665826843E+02  0.00000000000E+00 0. -1.
</event>
<event>
 5    1  0.1319298E-009  0.9118800E+02  0.7818608E-02  0.1130116E+00
         25   -1    0    0    0    0  0.00000000000E+00  0.00000000000E+00  0.99999998245E-14  0.12500000000E+03  0.12500000000E+03 0.  0.
        -13    1    3    3    0    0  0.48633372413E+02 -0.31832210519E+02 -0.32589370700E+01  0.58216203704E+02  0.10566000000E+00 0. -1.
         23    2    1    0    0    0  0.16407346898E+02 -0.22515418938E+02  0.11493750698E+02  0.94862789988E+02  0.89948304581E+02 0.  0.
         13    1    3    3    0    0 -0.32226025515E+02  0.93167915810E+01  0.14752687768E+02  0.36646586284E+02  0.10566000000E+00 0.  1.
         22    1    1    0    0    0 -0.16407346898E+02  0.22515418938E+02 -0.11493750698E+02  0.30137210012E+02  0.00000000000E+00 0. -1.
</event>
<event>
 5    1  0.1319298E-009  0.9118800E+02  0.7818608E-02  0.1130116E+00
         25   -1    0    0    0    0  0.00000000000E+00  0.00000000000E+00  0.99999998245E-14  0.12500000000E+03  0.12500000000E+03 0.  0.
        -13    1    3    3    0    0  0.21621714800E+01 -0.65168100329E+01 -0.58766701581E+02  0.59166546099E+02  0.10566000000E+00 0. -1.
         23    2    1    0    0    0  0.15121630651E+02 -0.54451048934E+00 -0.25781481539E+02  0.95106104376E+02  0.90285802284E+02 0.  0.
         13    1    3    3    0    0  0.12959459171E+02  0.59722995435E+01  0.32985220043E+02  0.35939558277E+02  0.10566000000E+00 0.  1.
         22    1    1    0    0    0 -0.15121630651E+02  0.54451048934E+00  0.25781481539E+02  0.29893895624E+02  0.00000000000E+00 0. -1.
</event>
<event>
 5    1  0.1319298E-009  0.9118800E+02  0.7818608E-02  0.1130116E+00
         25   -1    0    0    0    0  0.00000000000E+00  0.00000000000E+00  0.99999998245E-14  0.12500000000E+03  0.12500000000E+03 0.  0.
        -13    1    3    3    0    0  0.38705060848E+02  0.20944136403E+02 -0.15557381644E+02  0.46677423585E+02  0.10566000000E+00 0.  1.
         23    2    1    0    0    0  0.20930268958E+02 -0.17656281833E+02  0.95058098398E+01  0.96014126414E+02  0.91534319266E+02 0.  0.
         13    1    3    3    0    0 -0.17774791890E+02 -0.38600418235E+02  0.25063191484E+02  0.49336702829E+02  0.10566000000E+00 0. -1.
         22    1    1    0    0    0 -0.20930268958E+02  0.17656281833E+02 -0.95058098398E+01  0.28985873586E+02  0.00000000000E+00 0. -1.
</event>
<event>
 5    1  0.1319298E-009  0.9118800E+02  0.7818608E-02  0.1130116E+00
         25   -1    0    0    0    0  0.00000000000E+00  0.00000000000E+00  0.99999998245E-14  0.12500000000E+03  0.12500000000E+03 0.  0.
        -13    1    3    3    0    0  0.55866448608E+02  0.21979107717E+02 -0.38077122411E+01  0.60155224982E+02  0.10566000000E+00 0. -1.
         23    2    1    0    0    0  0.26677617705E+02  0.53345200474E+01  0.93378524694E+01  0.96236344473E+02  0.91837280656E+02 0.  0.
         13    1    3    3    0    0 -0.29188830903E+02 -0.16644587669E+02  0.13145564710E+02  0.36081119491E+02  0.10566000000E+00 0.  1.
         22    1    1    0    0    0 -0.26677617705E+02 -0.53345200474E+01 -0.93378524694E+01  0.28763655527E+02  0.00000000000E+00 0. -1.
</event>
<event>
 5    1  0.1319298E-009  0.9118800E+02  0.7818608E-02  0.1130116E+00
         25   -1    0    0    0    0  0.00000000000E+00  0.00000000000E+00  0.99999998245E-14  0.12500000000E+03  0.12500000000E+03 0.  0.
        -13    1    3    3    0    0  0.43858178561E+02 -0.15743221472E+02 -0.11739624673E+02  0.48054331756E+02  0.10566000000E+00 0.  1.
         23    2    1    0    0    0  0.24869818572E+00  0.44084145218E+01 -0.26361936025E+02  0.98270846621E+02  0.94565911698E+02 0.  0.
         13    1    3    3    0    0 -0.43609480376E+02  0.20151635994E+02 -0.14622311352E+02  0.50216514865E+02  0.10566000000E+00 0. -1.
         22    1    1    0    0    0 -0.24869818572E+00 -0.44084145218E+01  0.26361936025E+02  0.26729153379E+02  0.00000000000E+00 0. -1.
</event>
<event>
 5    1  0.1319298E-009  0.9118800E+02  0.7818608E-02  0.1130116E+00
         25   -1    0    0    0    0  0.00000000000E+00  0.00000000000E+00  0.99999998245E-14  0.12500000000E+03  0.12500000000E+03 0.  0.
        -13    1    3    3    0    0 -0.59698164947E+01 -0.33965512617E+02 -0.11515494541E+02  0.36358115117E+02  0.10566000000E+00 0.  1.
         23    2    1    0    0    0  0.18320887782E-02  0.25270079202E+02 -0.14309749315E+02  0.95959582791E+02  0.91459803726E+02 0.  0.
         13    1    3    3    0    0  0.59716485835E+01  0.59235591820E+02 -0.27942547744E+01  0.59601467673E+02  0.10566000000E+00 0. -1.
         22    1    1    0    0    0 -0.18320887782E-02 -0.25270079202E+02  0.14309749315E+02  0.29040417209E+02  0.00000000000E+00 0. -1.
</event>
<event>
 5    1  0.1319298E-009  0.9118800E+02  0.7818608E-02  0.1130116E+00
         25   -1    0    0    0    0  0.00000000000E+00  0.00000000000E+00  0.99999998245E-14  0.12500000000E+03  0.12500000000E+03 0.  0.
        -13    1    3    3    0    0  0.20683783039E+02 -0.51974228053E+02 -0.20411567161E+02  0.59546473452E+02  0.10566000000E+00 0. -1.
         23    2    1    0    0    0  0.52606373304E+01 -0.28884778718E+02  0.24834889174E+01  0.95535233517E+02  0.90877986219E+02 0.  0.
         13    1    3    3    0    0 -0.15423145709E+02  0.23089449335E+02  0.22895056078E+02  0.35988760065E+02  0.10566000000E+00 0.  1.
         22    1    1    0    0    0 -0.52606373304E+01  0.28884778718E+02 -0.24834889174E+01  0.29464766483E+02  0.00000000000E+00 0. -1.
</event>
<event>
 5    1  0.1319298E-009  0.9118800E+02  0.7818608E-02  0.1130116E+00
         25   -1    0    0    0    0  0.00000000000E+00  0.00000000000E+00  0.99999998245E-14  0.12500000000E+03  0.12500000000E+03 0.  0.
        -13    1    3    3    0    0  0.23406202652E+02 -0.26880424986E+02  0.28859085808E+02  0.45861373373E+02  0.10566000000E+00 0.  1.
         23    2    1    0    0    0 -0.15197136857E+02 -0.13987709701E+02 -0.99281447442E+01  0.10208325832E+03  0.99477708956E+02 0.  0.
         13    1    3    3    0    0 -0.38603339509E+02  0.12892715284E+02 -0.38787230552E+02  0.56221884943E+02  0.10566000000E+00 0. -1.
         22    1    1    0    0    0  0.15197136857E+02  0.13987709701E+02  0.99281447442E+01  0.22916741684E+02  0.00000000000E+00 0. -1.
</event>
<event>
 5    1  0.1319298E-009  0.9118800E+02  0.7818608E-02  0.1130116E+00
         25   -1    0    0    0    0  0.00000000000E+00  0.00000000000E+00  0.99999998245E-14  0.12500000000E+03  0.12500000000E+03 0.  0.
        -13    1    3    3    0    0  0.67122655322E+01  0.24277237186E+02  0.33542263305E+02  0.41946791839E+02  0.10566000000E+00 0.  1.
         23    2    1    0    0    0  0.25639083349E+02  0.11346541249E+02 -0.13202584549E+02  0.94009439629E+02  0.88754492322E+02 0.  0.
         13    1    3    3    0    0  0.18926817817E+02 -0.12930695936E+02 -0.46744847854E+02  0.52062647791E+02  0.10566000000E+00 0. -1.
         22    1    1    0    0    0 -0.25639083349E+02 -0.11346541249E+02  0.13202584549E+02  0.30990560371E+02  0.00000000000E+00 0.  1.
</event>
<event>
 5    1  0.1319298E-009  0.9118800E+02  0.7818608E-02  0.1130116E+00
         25   -1    0    0    0    0  0.00000000000E+00  0.00000000000E+00  0.99999998245E-14  0.12500000000E+03  0.12500000000E+03 0.  0.
        -13    1    3    3    0    0 -0.12523850979E+02  0.34415607493E+02 -0.78824483897E+01  0.37462314919E+02  0.10566000000E+00 0.  1.
         23    2    1    0    0    0 -0.12434982248E+02 -0.22849626289E+02 -0.14679873221E+02  0.95129732462E+02  0.90318509263E+02 0.  0.
         13    1    3    3    0    0  0.88868730873E-01 -0.57265233782E+02 -0.67974248308E+01  0.57667417543E+02  0.10566000000E+00 0. -1.
         22    1    1    0    0    0  0.12434982248E+02  0.22849626289E+02  0.14679873221E+02  0.29870267538E+02  0.00000000000E+00 0. -1.
</event>
<event>
 5    1  0.1319298E-009  0.9118800E+02  0.7818608E-02  0.1130116E+00
         25   -1    0    0    0    0  0.00000000000E+00  0.00000000000E+00  0.99999998245E-14  0.12500000000E+03  0.12500000000E+03 0.  0.
        -13    1    3    3    0    0  0.26664531007E+02  0.38454592849E-01  0.32549023734E+02  0.42076701423E+02  0.10566000000E+00 0. -1.
         23    2    1    0    0    0  0.19648624426E+02  0.17967230853E+02 -0.15745647445E+02  0.94067569772E+02  0.88836323894E+02 0.  0.
         13    1    3    3    0    0 -0.70159065811E+01  0.17928776260E+02 -0.48294671179E+02  0.51990868348E+02  0.10566000000E+00 0.  1.
         22    1    1    0    0    0 -0.19648624426E+02 -0.17967230853E+02  0.15745647445E+02  0.30932430228E+02  0.00000000000E+00 0.  1.
</event>
<event>
 5    1  0.1319298E-009  0.9118800E+02  0.7818608E-02  0.1130116E+00
         25   -1    0    0    0    0  0.00000000000E+00  0.00000000000E+00  0.99999998245E-14  0.12500000000E+03  0.12500000000E+03 0.  0.
        -13    1    3    3    0    0 -0.32060860251E+02  0.48079599108E+02  0.18518706422E+02  0.60683607852E+02  0.10566000000E+00 0. -1.
         23    2    1    0    0    0 -0.14611310686E+02  0.16145031655E+02  0.17458689784E+02  0.97090175635E+02  0.92992171223E+02 0.  0.
         13    1    3    3    0    0  0.17449549566E+02 -0.31934567452E+02 -0.10600166374E+01  0.36406567783E+02  0.10566000000E+00 0.  1.
         22    1    1    0    0    0  0.14611310686E+02 -0.16145031655E+02 -0.17458689784E+02  0.27909824365E+02  0.00000000000E+00 0. -1.
</event>
<event>
 5    1  0.1319298E-009  0.9118800E+02  0.7818608E-02  0.1130116E+00
         25   -1    0    0    0    0  0.00000000000E+00  0.00000000000E+00  0.99999998245E-14  0.12500000000E+03  0.12500000000E+03 0.  0.
        -13    1    3    3    0    0  0.31799492643E+02  0.13718174725E+02  0.17963244891E+02  0.39013912662E+02  0.10566000000E+00 0.  1.
         23    2    1    0    0    0 -0.12022138073E+02  0.23057433302E+02 -0.15310988692E+02  0.94823793992E+02  0.89894096012E+02 0.  0.
         13    1    3    3    0    0 -0.43821630717E+02  0.93392585771E+01 -0.33274233583E+02  0.55809881329E+02  0.10566000000E+00 0. -1.
         22    1    1    0    0    0  0.12022138073E+02 -0.23057433302E+02  0.15310988692E+02  0.30176206008E+02  0.00000000000E+00 0. -1.
</event>
<event>
 5    1  0.1319298E-009  0.9118800E+02  0.7818608E-02  0.1130116E+00
         25   -1    0    0    0    0  0.00000000000E+00  0.00000000000E+00  0.99999998245E-14  0.12500000000E+03  0.12500000000E+03 0.  0.
        -13    1    3    3    0    0  0.26910563490E+02 -0.11643683442E+02  0.35132081761E+02  0.45760552054E+02  0.10566000000E+00 0.  1.
         23    2    1    0    0    0 -0.17171453813E+02 -0.19620218066E+02  0.10426946937E+02  0.96919170144E+02  0.92762020978E+02 0.  0.
         13    1    3    3    0    0 -0.44082017303E+02 -0.79765346243E+01 -0.24705134824E+02  0.51158618089E+02  0.10566000000E+00 0. -1.
         22    1    1    0    0    0  0.17171453813E+02  0.19620218066E+02 -0.10426946937E+02  0.28080829856E+02  0.00000000000E+00 0.  1.
</event>
<event>
 5    1  0.1319298E-009  0.9118800E+02  0.7818608E-02  0.1130116E+00
         25   -1    0    0    0    0  0.00000000000E+00  0.00000000000E+00  0.99999998245E-14  0.12500000000E+03  0.12500000000E+03 0.  0.
        -13    1    3    3    0    0 -0.22345551216E+02  0.79923633831E+01 -0.25038701985E+02  0.34498540443E+02  0.10566000000E+00 0. -1.
         23    2    1    0    0    0  0.10958089004E+02  0.64748574039E+01  0.26340133530E+02  0.95745835725E+02  0.91167203156E+02 0.  0.
         13    1    3    3    0    0  0.33303640220E+02 -0.15175059792E+01  0.51378835516E+02  0.61247295282E+02  0.10566000000E+00 0.  1.
         22    1    1    0    0    0 -0.10958089004E+02 -0.64748574039E+01 -0.26340133530E+02  0.29254164275E+02  0.00000000000E+00 0.  1.
</event>
<event>
 5    1  0.1319298E-009  0.9118800E+02  0.7818608E-02  0.1130116E+00
         25   -1    0    0    0    0  0.00000000000E+00  0.00000000000E+00  0.99999998245E-14  0.12500000000E+03  0.12500000000E+03 0.  0.
        -13    1    3    3    0    0 -0.47431175157E+01  0.46331774450E+01 -0.36527096393E+02  0.37124162373E+02  0.10566000000E+00 0. -1.
         23    2    1    0    0    0  0.17568762246E+02  0.19491628398E+02  0.14686101400E+02  0.94928974763E+02  0.90040233734E+02 0.  0.
         13    1    3    3    0    0  0.22311879762E+02  0.14858450953E+02  0.51213197793E+02  0.57804812390E+02  0.10566000000E+00 0.  1.
         22    1    1    0    0    0 -0.17568762246E+02 -0.19491628398E+02 -0.14686101400E+02  0.30071025237E+02  0.00000000000E+00 0.  1.
</event>
<event>
 5    1  0.1319298E-009  0.9118800E+02  0.7818608E-02  0.1130116E+00
         25   -1    0    0    0    0  0.00000000000E+00  0.00000000000E+00  0.99999998245E-14  0.12500000000E+03  0.12500000000E+03 0.  0.
        -13    1    3    3    0    0  0.30503904072E+02 -0.45326698015E+01  0.44191136274E+02  0.53887855295E+02  0.10566000000E+00 0. -1.
         23    2    1    0    0    0 -0.44539724476E+01  0.10771950334E+02  0.26699243198E+02  0.95867159907E+02  0.91333400116E+02 0.  0.
         13    1    3    3    0    0 -0.34957876520E+02  0.15304620135E+02 -0.17491893076E+02  0.41979304611E+02  0.10566000000E+00 0.  1.
         22    1    1    0    0    0  0.44539724476E+01 -0.10771950334E+02 -0.26699243198E+02  0.29132840093E+02  0.00000000000E+00 0. -1.
</event>
<event>
 5    1  0.1319298E-009  0.9118800E+02  0.7818608E-02  0.1130116E+00
         25   -1    0    0    0    0  0.00000000000E+00  0.00000000000E+00  0.99999998245E-14  0.12500000000E+03  0.12500000000E+03 0.  0.
        -13    1    3    3    0    0 -0.12978081062E+02  0.57457788851E+02 -0.19225852549E+02  0.61963478421E+02  0.10566000000E+00 0. -1.
         23    2    1    0    0    0 -0.31496998643E+01  0.29631633916E+02 -0.47801348092E+01  0.94820470074E+02  0.89889473903E+02 0.  0.
         13    1    3    3    0    0  0.98283811982E+01 -0.27826154935E+02  0.14445717740E+02  0.32856991654E+02  0.10566000000E+00 0.  1.
         22    1    1    0    0    0  0.31496998643E+01 -0.29631633916E+02  0.47801348092E+01  0.30179529926E+02  0.00000000000E+00 0. -1.
</event>
<event>
 5    1  0.1319298E-009  0.9118800E+02  0.7818608E-02  0.1130116E+00
         25   -1    0    0    0    0  0.00000000000E+00  0.00000000000E+00  0.99999998245E-14  0.12500000000E+03  0.12500000000E+03 0.  0.
        -13    1    3    3    0    0  0.33750391558E+02  0.13754754383E+02  0.48048804775E+02  0.60307387630E+02  0.10566000000E+00 0.  1.
         23    2    1    0    0    0  0.66455554499E+01  0.13598740623E+02  0.24439122726E+02  0.96253524157E+02  0.91860661000E+02 0.  0.
         13    1    3    3    0    0 -0.27104836108E+02 -0.15601376053E+00 -0.23609682049E+02  0.35946136527E+02  0.10566000000E+00 0. -1.
         22    1    1    0    0    0 -0.66455554499E+01 -0.13598740623E+02 -0.24439122726E+02  0.28746475843E+02  0.00000000000E+00 0.  1.
</event>
<event>
 5    1  0.1319298E-009  0.9118800E+02  0.7818608E-02  0.1130116E+00
         25   -1    0    0    0    0  0.00000000000E+00  0.00000000000E+00  0.99999998245E-14  0.12500000000E+03  0.12500000000E+03 0.  0.
        -13    1    3    3    0    0  0.83712550730E+01 -0.37706437567E+02 -0.50059571105E+01  0.38947710024E+02  0.10566000000E+00 0. -1.
         23    2    1    0    0    0 -0.25669686067E+02 -0.77809534674E+01  0.20757685381E+02  0.91083079119E+02  0.84532655109E+02 0.  0.
         13    1    3    3    0    0 -0.34040941140E+02  0.29925484099E+02  0.25763642491E+02  0.52135369096E+02  0.10566000000E+00 0.  1.
         22    1    1    0    0    0  0.25669686067E+02  0.77809534674E+01 -0.20757685381E+02  0.33916920881E+02  0.00000000000E+00 0.  1.
</event>
<event>
 5    1  0.1319298E-009  0.9118800E+02  0.7818608E-02  0.1130116E+00
         25   -1    0    0    0    0  0.00000000000E+00  0.00000000000E+00  0.99999998245E-14  0.12500000000E+03  0.12500000000E+03 0.  0.
        -13    1    3    3    0    0 -0.16866844190E+02 -0.26779721861E+00 -0.22406956713E+02  0.28047192755E+02  0.10566000000E+00 0.  1.
         23    2    1    0    0    0  0.15621052967E+02 -0.28242452430E+02  0.18914363827E+02  0.87591356961E+02  0.79201257820E+02 0.  0.
         13    1    3    3    0    0  0.32487897156E+02 -0.27974655211E+02  0.41321320540E+02  0.59544164206E+02  0.10566000000E+00 0. -1.
         22    1    1    0    0    0 -0.15621052967E+02  0.28242452430E+02 -0.18914363827E+02  0.37408643039E+02  0.00000000000E+00 0. -1.
</event>
<event>
 5    1  0.1319298E-009  0.9118800E+02  0.7818608E-02  0.1130116E+00
         25   -1    0    0    0    0  0.00000000000E+00  0.00000000000E+00  0.99999998245E-14  0.12500000000E+03  0.12500000000E+03 0.  0.
        -13    1    3    3    0    0  0.22105189635E+02  0.44708235640E+02  0.31624352790E+02  0.59055707567E+02  0.10566000000E+00 0. -1.
         23    2    1    0    0    0  0.22386641528E+02  0.12485607458E+02  0.14608099786E+02  0.95496632534E+02  0.90824876182E+02 0.  0.
         13    1    3    3    0    0  0.28145189311E+00 -0.32222628182E+02 -0.17016253004E+02  0.36440924967E+02  0.10566000000E+00 0.  1.
         22    1    1    0    0    0 -0.22386641528E+02 -0.12485607458E+02 -0.14608099786E+02  0.29503367466E+02  0.00000000000E+00 0. -1.
</event>
<event>
 5    1  0.1319298E-009  0.9118800E+02  0.7818608E-02  0.1130116E+00
         25   -1    0    0    0    0  0.00000000000E+00  0.00000000000E+00  0.99999998245E-14  0.12500000000E+03  0.12500000000E+03 0.  0.
        -13    1    3    3    0    0 -0.24441306212E+02  0.28032020392E+02 -0.19709554811E+02  0.42090964962E+02  0.10566000000E+00 0. -1.
         23    2    1    0    0    0 -0.16020357508E+02 -0.23229758266E+02 -0.10731156872E+02  0.94810080298E+02  0.89875024754E+02 0.  0.
         13    1    3    3    0    0  0.84209487041E+01 -0.51261778658E+02  0.89783979392E+01  0.52719115336E+02  0.10566000000E+00 0.  1.
         22    1    1    0    0    0  0.16020357508E+02  0.23229758266E+02  0.10731156872E+02  0.30189919702E+02  0.00000000000E+00 0.  1.
</event>
<event>
 5    1  0.1319298E-009  0.9118800E+02  0.7818608E-02  0.1130116E+00
         25   -1    0    0    0    0  0.00000000000E+00  0.00000000000E+00  0.99999998245E-14  0.12500000000E+03  0.12500000000E+03 0.  0.
        -13    1    3    3    0    0  0.19185428695E+02  0.53299190390E+02  0.16249024985E+02  0.58931539496E+02  0.10566000000E+00 0.  1.
         23    2    1    0    0    0 -0.18709508793E+01  0.29141603072E+02 -0.18574921386E+01  0.95739382032E+02  0.91158354022E+02 0.  0.
         13    1    3    3    0    0 -0.21056379574E+02 -0.24157587318E+02 -0.18106517124E+02  0.36807842536E+02  0.10566000000E+00 0. -1.
         22    1    1    0    0    0  0.18709508793E+01 -0.29141603072E+02  0.18574921386E+01  0.29260617968E+02  0.00000000000E+00 0.  1.
</event>
<event>
 5    1  0.1319298E-009  0.9118800E+02  0.7818608E-02  0.1130116E+00
         25   -1    0    0    0    0  0.00000000000E+00  0.00000000000E+00  0.99999998245E-14  0.12500000000E+03  0.12500000000E+03 0.  0.
        -13    1    3    3    0    0  0.11298123222E+02  0.45910904810E+01 -0.41522796906E+02  0.43276778150E+02  0.10566000000E+00 0. -1.
         23    2    1    0    0    0  0.25615413470E+02  0.86655164882E+01  0.94314607577E+01  0.96360987530E+02  0.92006776285E+02 0.  0.
         13    1    3    3    0    0  0.14317290249E+02  0.40744260072E+01  0.50954257664E+02  0.53084209379E+02  0.10566000000E+00 0.  1.
         22    1    1    0    0    0 -0.25615413470E+02 -0.86655164882E+01 -0.94314607577E+01  0.28639012470E+02  0.00000000000E+00 0. -1.
</event>
<event>
 5    1  0.1319298E-009  0.9118800E+02  0.7818608E-02  0.1130116E+00
         25   -1    0    0    0    0  0.00000000000E+00  0.00000000000E+00  0.99999998245E-14  0.12500000000E+03  0.12500000000E+03 0.  0.
        -13    1    3    3    0    0 -0.32352174445E+02 -0.35442054508E+02  0.29224173230E+02  0.56185993665E+02  0.10566000000E+00 0.  1.
         23    2    1    0    0    0 -0.46266054567E+01 -0.28549119790E+02  0.14330748977E+01  0.96042938296E+02  0.91573656551E+02 0.  0.
         13    1    3    3    0    0  0.27725568989E+02  0.68929347175E+01 -0.27791098333E+02  0.39856944631E+02  0.10566000000E+00 0. -1.
         22    1    1    0    0    0  0.46266054567E+01  0.28549119790E+02 -0.14330748977E+01  0.28957061704E+02  0.00000000000E+00 0.  1.
</event>
<event>
 5    1  0.1319298E-009  0.9118800E+02  0.7818608E-02  0.1130116E+00
         25   -1    0    0    0    0  0.00000000000E+00  0.00000000000E+00  0.99999998245E-14  0.12500000000E+03  0.12500000000E+03 0.  0.
        -13    1    3    3    0    0 -0.11438476640E+02  0.40503653709E+02  0.12632716214E+02  0.43942933387E+02  0.10566000000E+00 0.  1.
         23    2    1    0    0    0 -0.28290594806E+02 -0.66619128458E+01  0.10576576860E+02  0.94071003649E+02  0.88841155509E+02 0.  0.
         13    1    3    3    0    0 -0.16852118165E+02 -0.47165566555E+02 -0.20561393545E+01  0.50128070262E+02  0.10566000000E+00 0. -1.
         22    1    1    0    0    0  0.28290594806E+02  0.66619128458E+01 -0.10576576860E+02  0.30928996351E+02  0.00000000000E+00 0.  1.
</event>
<event>
 5    1  0.1319298E-009  0.9118800E+02  0.7818608E-02  0.1130116E+00
         25   -1    0    0    0    0  0.00000000000E+00  0.00000000000E+00  0.99999998245E-14  0.12500000000E+03  0.12500000000E+03 0.  0.
        -13    1    3    3    0    0  0.42895238892E+02 -0.77522291763E+01  0.13222387262E+02  0.45551523198E+02  0.10566000000E+00 0.  1.
         23    2    1    0    0    0  0.43522186173E+01 -0.90293163681E+01 -0.23902096171E+02  0.99081270048E+02  0.95631153459E+02 0.  0.
         13    1    3    3    0    0 -0.38543020274E+02 -0.12770871918E+01 -0.37124483433E+02  0.53529746849E+02  0.10566000000E+00 0. -1.
         22    1    1    0    0    0 -0.43522186173E+01  0.90293163681E+01  0.23902096171E+02  0.25918729952E+02  0.00000000000E+00 0. -1.
</event>
<event>
 5    1  0.1319298E-009  0.9118800E+02  0.7818608E-02  0.1130116E+00
         25   -1    0    0    0    0  0.00000000000E+00  0.00000000000E+00  0.99999998245E-14  0.12500000000E+03  0.12500000000E+03 0.  0.
        -13    1    3    3    0    0 -0.73509826101E+00 -0.28209331486E+01 -0.60405819034E+02  0.60476211608E+02  0.10566000000E+00 0. -1.
         23    2    1    0    0    0 -0.11287284794E+02  0.11154895968E+01 -0.27663151206E+02  0.95101888861E+02  0.90279965747E+02 0.  0.
         13    1    3    3    0    0 -0.10552186533E+02  0.39364227454E+01  0.32742667828E+02  0.34625677253E+02  0.10566000000E+00 0.  1.
         22    1    1    0    0    0  0.11287284794E+02 -0.11154895968E+01  0.27663151206E+02  0.29898111139E+02  0.00000000000E+00 0. -1.
</event>
<event>
 5    1  0.1319298E-009  0.9118800E+02  0.7818608E-02  0.1130116E+00
         25   -1    0    0    0    0  0.00000000000E+00  0.00000000000E+00  0.99999998245E-14  0.12500000000E+03  0.12500000000E+03 0.  0.
        -13    1    3    3    0    0 -0.37871591905E+02 -0.34149173970E+02 -0.14682157832E+02  0.53066001158E+02  0.10566000000E+00 0.  1.
         23    2    1    0    0    0  0.17382919751E+01 -0.28877775718E+02  0.11493277640E+01  0.96047132375E+02  0.91579381379E+02 0.  0.
         13    1    3    3    0    0  0.39609883880E+02  0.52713982520E+01  0.15831485596E+02  0.42981131218E+02  0.10566000000E+00 0. -1.
         22    1    1    0    0    0 -0.17382919751E+01  0.28877775718E+02 -0.11493277640E+01  0.28952867625E+02  0.00000000000E+00 0.  1.
</event>
<event>
 5    1  0.1319298E-009  0.9118800E+02  0.7818608E-02  0.1130116E+00
         25   -1    0    0    0    0  0.00000000000E+00  0.00000000000E+00  0.99999998245E-14  0.12500000000E+03  0.12500000000E+03 0.  0.
        -13    1    3    3    0    0  0.22326545060E+02  0.57597901570E+02  0.79287384325E+01  0.62280566284E+02  0.10566000000E+00 0. -1.
         23    2    1    0    0    0  0.75704977620E+01  0.29705990769E+02  0.43386152467E+01  0.94039026078E+02  0.88796151491E+02 0.  0.
         13    1    3    3    0    0 -0.14756047298E+02 -0.27891910801E+02 -0.35901231858E+01  0.31758459794E+02  0.10566000000E+00 0.  1.
         22    1    1    0    0    0 -0.75704977620E+01 -0.29705990769E+02 -0.43386152467E+01  0.30960973922E+02  0.00000000000E+00 0. -1.
</event>
<event>
 5    1  0.1319298E-009  0.9118800E+02  0.7818608E-02  0.1130116E+00
         25   -1    0    0    0    0  0.00000000000E+00  0.00000000000E+00  0.99999998245E-14  0.12500000000E+03  0.12500000000E+03 0.  0.
        -13    1    3    3    0    0  0.41694556681E+02  0.17986796737E+02 -0.38001505354E+01  0.45567677380E+02  0.10566000000E+00 0. -1.
         23    2    1    0    0    0 -0.57894751142E+01  0.29802351453E+02 -0.88099268191E-01  0.94640389731E+02  0.89638704992E+02 0.  0.
         13    1    3    3    0    0 -0.47484031795E+02  0.11815554715E+02  0.37120512672E+01  0.49072712350E+02  0.10566000000E+00 0.  1.
         22    1    1    0    0    0  0.57894751142E+01 -0.29802351453E+02  0.88099268191E-01  0.30359610269E+02  0.00000000000E+00 0.  1.
</event>
<event>
 5    1  0.1319298E-009  0.9118800E+02  0.7818608E-02  0.1130116E+00
         25   -1    0    0    0    0  0.00000000000E+00  0.00000000000E+00  0.99999998245E-14  0.12500000000E+03  0.12500000000E+03 0.  0.
        -13    1    3    3    0    0  0.19507286844E+02  0.13781473651E+02  0.22114583360E+02  0.32550410400E+02  0.10566000000E+00 0.  1.
         23    2    1    0    0    0 -0.15219711883E+01  0.11390601707E+02 -0.32182783565E+02  0.90827002451E+02  0.84153137866E+02 0.  0.
         13    1    3    3    0    0 -0.21029258033E+02 -0.23908719444E+01 -0.54297366924E+02  0.58276592050E+02  0.10566000000E+00 0. -1.
         22    1    1    0    0    0  0.15219711883E+01 -0.11390601707E+02  0.32182783565E+02  0.34172997549E+02  0.00000000000E+00 0. -1.
</event>
<event>
 5    1  0.1319298E-009  0.9118800E+02  0.7818608E-02  0.1130116E+00
         25   -1    0    0    0    0  0.00000000000E+00  0.00000000000E+00  0.99999998245E-14  0.12500000000E+03  0.12500000000E+03 0.  0.
        -13    1    3    3    0    0 -0.28172884843E+01  0.41358096515E+02 -0.36309175587E+02  0.55107137992E+02  0.10566000000E+00 0.  1.
         23    2    1    0    0    0 -0.19950277117E+02  0.10707619526E+02 -0.23183059095E+02  0.92594431004E+02  0.86738732703E+02 0.  0.
         13    1    3    3    0    0 -0.17132988633E+02 -0.30650476990E+02  0.13126116492E+02  0.37487293012E+02  0.10566000000E+00 0. -1.
         22    1    1    0    0    0  0.19950277117E+02 -0.10707619526E+02  0.23183059095E+02  0.32405568996E+02  0.00000000000E+00 0.  1.
</event>
<event>
 5    1  0.1319298E-009  0.9118800E+02  0.7818608E-02  0.1130116E+00
         25   -1    0    0    0    0  0.00000000000E+00  0.00000000000E+00  0.99999998245E-14  0.12500000000E+03  0.12500000000E+03 0.  0.
        -13    1    3    3    0    0 -0.33435600876E+02  0.22781333890E+02  0.45755148682E+02  0.61077601252E+02  0.10566000000E+00 0. -1.
         23    2    1    0    0    0 -0.15966481484E+02  0.15008371271E+02  0.11636002715E+02  0.10018918989E+03  0.97068519470E+02 0.  0.
         13    1    3    3    0    0  0.17469119391E+02 -0.77729626182E+01 -0.34119145966E+02  0.39111588637E+02  0.10566000000E+00 0.  1.
         22    1    1    0    0    0  0.15966481484E+02 -0.15008371271E+02 -0.11636002715E+02  0.24810810112E+02  0.00000000000E+00 0. -1.
</event>
<event>
 5    1  0.1319298E-009  0.9118800E+02  0.7818608E-02  0.1130116E+00
         25   -1    0    0    0    0  0.00000000000E+00  0.00000000000E+00  0.99999998245E-14  0.12500000000E+03  0.12500000000E+03 0.  0.
        -13    1    3    3    0    0  0.39942228153E+02 -0.10972989295E+02  0.11033281978E+02  0.42866450275E+02  0.10566000000E+00 0.  1.
         23    2    1    0    0    0  0.31424146417E+01  0.26505848513E+02  0.12749808326E+02  0.95419729759E+02  0.90718975082E+02 0.  0.
         13    1    3    3    0    0 -0.36799813512E+02  0.37478837807E+02  0.17165263479E+01  0.52553279485E+02  0.10566000000E+00 0. -1.
         22    1    1    0    0    0 -0.31424146417E+01 -0.26505848513E+02 -0.12749808326E+02  0.29580270241E+02  0.00000000000E+00 0. -1.
</event>
<event>
 5    1  0.1319298E-009  0.9118800E+02  0.7818608E-02  0.1130116E+00
         25   -1    0    0    0    0  0.00000000000E+00  0.00000000000E+00  0.99999998245E-14  0.12500000000E+03  0.12500000000E+03 0.  0.
        -13    1    3    3    0    0 -0.28576812353E+02 -0.23717957177E+02 -0.22547932893E+02  0.43446474411E+02  0.10566000000E+00 0. -1.
         23    2    1    0    0    0  0.20137366946E+02 -0.52897686264E+01 -0.20815780582E+02  0.95558669852E+02  0.90910216495E+02 0.  0.
         13    1    3    3    0    0  0.48714179299E+02  0.18428188551E+02  0.17321523113E+01  0.52112195442E+02  0.10566000000E+00 0.  1.
         22    1    1    0    0    0 -0.20137366946E+02  0.52897686264E+01  0.20815780582E+02  0.29441330148E+02  0.00000000000E+00 0.  1.
</event>
<event>
 5    1  0.1319298E-009  0.9118800E+02  0.7818608E-02  0.1130116E+00
         25   -1    0    0    0    0  0.00000000000E+00  0.00000000000E+00  0.99999998245E-14  0.12500000000E+03  0.12500000000E+03 0.  0.
        -13    1    3    3    0    0  0.32797267775E+02  0.52943457578E+02  0.17940109842E+00  0.62279320987E+02  0.10566000000E+00 0.  1.
         23    2    1    0    0    0  0.16688507085E+02  0.22720398900E+02  0.30347023478E+01  0.96646301595E+02  0.92393589598E+02 0.  0.
         13    1    3    3    0    0 -0.16108760690E+02 -0.30223058678E+02  0.28553012494E+01  0.34366980608E+02  0.10566000000E+00 0. -1.
         22    1    1    0    0    0 -0.16688507085E+02 -0.22720398900E+02 -0.30347023478E+01  0.28353698405E+02  0.00000000000E+00 0.  1.
</event>
<event>
 5    1  0.1319298E-009  0.9118800E+02  0.7818608E-02  0.1130116E+00
         25   -1    0    0    0    0  0.00000000000E+00  0.00000000000E+00  0.99999998245E-14  0.12500000000E+03  0.12500000000E+03 0.  0.
        -13    1    3    3    0    0  0.12243080800E+02 -0.38617184988E+02  0.89728966898E+00  0.40521553483E+02  0.10566000000E+00 0.  1.
         23    2    1    0    0    0 -0.29448780887E+02 -0.31049992470E+01  0.22315496752E+01  0.95304014917E+02  0.90559393380E+02 0.  0.
         13    1    3    3    0    0 -0.41691861687E+02  0.35512185741E+02  0.13342600063E+01  0.54782461435E+02  0.10566000000E+00 0. -1.
         22    1    1    0    0    0  0.29448780887E+02  0.31049992470E+01 -0.22315496752E+01  0.29695985083E+02  0.00000000000E+00 0. -1.
</event>
<event>
 5    1  0.1319298E-009  0.9118800E+02  0.7818608E-02  0.1130116E+00
         25   -1    0    0    0    0  0.00000000000E+00  0.00000000000E+00  0.99999998245E-14  0.12500000000E+03  0.12500000000E+03 0.  0.
        -13    1    3    3    0    0 -0.28239993817E+01  0.30546108562E+02  0.43871806523E+02  0.53533039260E+02  0.10566000000E+00 0.  1.
         23    2    1    0    0    0 -0.10872301521E+01  0.29332979726E+02  0.18710684562E+01  0.95587304337E+02  0.90949579901E+02 0.  0.
         13    1    3    3    0    0  0.17367692295E+01 -0.12131288363E+01 -0.42000738067E+02  0.42054265077E+02  0.10566000000E+00 0. -1.
         22    1    1    0    0    0  0.10872301521E+01 -0.29332979726E+02 -0.18710684562E+01  0.29412695663E+02  0.00000000000E+00 0.  1.
</event>
<event>
 5    1  0.1319298E-009  0.9118800E+02  0.7818608E-02  0.1130116E+00
         25   -1    0    0    0    0  0.00000000000E+00  0.00000000000E+00  0.99999998245E-14  0.12500000000E+03  0.12500000000E+03 0.  0.
        -13    1    3    3    0    0  0.20965776003E+02  0.11290047828E+02  0.47267470630E+02  0.52926873015E+02  0.10566000000E+00 0.  1.
         23    2    1    0    0    0  0.51869635009E+01  0.26635640655E+02  0.10252258426E+02  0.95991884820E+02  0.91503940926E+02 0.  0.
         13    1    3    3    0    0 -0.15778812502E+02  0.15345592827E+02 -0.37015212204E+02  0.43065011805E+02  0.10566000000E+00 0. -1.
         22    1    1    0    0    0 -0.51869635009E+01 -0.26635640655E+02 -0.10252258426E+02  0.29008115180E+02  0.00000000000E+00 0.  1.
</event>
<event>
 5    1  0.1319298E-009  0.9118800E+02  0.7818608E-02  0.1130116E+00
         25   -1    0    0    0    0  0.00000000000E+00  0.00000000000E+00  0.99999998245E-14  0.12500000000E+03  0.12500000000E+03 0.  0.
        -13    1    3    3    0    0 -0.28807848611E+01  0.24567106943E+02 -0.22663607284E+02  0.33548352032E+02  0.10566000000E+00 0. -1.
         23    2    1    0    0    0  0.24055030236E+02 -0.20683637923E+02  0.47569680822E+01  0.92920628081E+02  0.87207551395E+02 0.  0.
         13    1    3    3    0    0  0.26935815097E+02 -0.45250744865E+02  0.27420575366E+02  0.59372276049E+02  0.10566000000E+00 0.  1.
         22    1    1    0    0    0 -0.24055030236E+02  0.20683637923E+02 -0.47569680822E+01  0.32079371919E+02  0.00000000000E+00 0.  1.
</event>
<event>
 5    1  0.1319298E-009  0.9118800E+02  0.7818608E-02  0.1130116E+00
         25   -1    0    0    0    0  0.00000000000E+00  0.00000000000E+00  0.99999998245E-14  0.12500000000E+03  0.12500000000E+03 0.  0.
        -13    1    3    3    0    0 -0.45812048877E+02 -0.22255486375E+02 -0.32447700519E+01  0.51035185831E+02  0.10566000000E+00 0. -1.
         23    2    1    0    0    0  0.19152714442E+01 -0.25894858997E+02 -0.25887995150E+01  0.98905673603E+02  0.95401354293E+02 0.  0.
         13    1    3    3    0    0  0.47727320321E+02 -0.36393726219E+01  0.65597053691E+00  0.47870487772E+02  0.10566000000E+00 0.  1.
         22    1    1    0    0    0 -0.19152714442E+01  0.25894858997E+02  0.25887995150E+01  0.26094326397E+02  0.00000000000E+00 0. -1.
</event>
<event>
 5    1  0.1319298E-009  0.9118800E+02  0.7818608E-02  0.1130116E+00
         25   -1    0    0    0    0  0.00000000000E+00  0.00000000000E+00  0.99999998245E-14  0.12500000000E+03  0.12500000000E+03 0.  0.
        -13    1    3    3    0    0  0.67469302995E+01  0.38479861287E+02  0.75980770958E+01  0.39799029294E+02  0.10566000000E+00 0.  1.
         23    2    1    0    0    0  0.29415859473E+02 -0.55192920232E+01 -0.11619349444E+02  0.92894476262E+02  0.87170058308E+02 0.  0.
         13    1    3    3    0    0  0.22668929174E+02 -0.43999153310E+02 -0.19217426540E+02  0.53095446968E+02  0.10566000000E+00 0. -1.
         22    1    1    0    0    0 -0.29415859473E+02  0.55192920232E+01  0.11619349444E+02  0.32105523738E+02  0.00000000000E+00 0. -1.
</event>
<event>
 5    1  0.1319298E-009  0.9118800E+02  0.7818608E-02  0.1130116E+00
         25   -1    0    0    0    0  0.00000000000E+00  0.00000000000E+00  0.99999998245E-14  0.12500000000E+03  0.12500000000E+03 0.  0.
        -13    1    3    3    0    0  0.54261764775E+02  0.93917057578E+01 -0.28924918927E+02  0.62202936848E+02  0.10566000000E+00 0.  1.
         23    2    1    0    0    0  0.23306778893E+02  0.72909809308E+01 -0.15944104549E+02  0.95835315616E+02  0.91289807230E+02 0.  0.
         13    1    3    3    0    0 -0.30954985881E+02 -0.21007248270E+01  0.12980814378E+02  0.33632378769E+02  0.10566000000E+00 0. -1.
         22    1    1    0    0    0 -0.23306778893E+02 -0.72909809308E+01  0.15944104549E+02  0.29164684384E+02  0.00000000000E+00 0.  1.
</event>
<event>
 5    1  0.1319298E-009  0.9118800E+02  0.7818608E-02  0.1130116E+00
         25   -1    0    0    0    0  0.00000000000E+00  0.00000000000E+00  0.99999998245E-14  0.12500000000E+03  0.12500000000E+03 0.  0.
        -13    1    3    3    0    0 -0.29597245168E+02 -0.24235531846E+02  0.34427181116E+01  0.38408610980E+02  0.10566000000E+00 0. -1.
         23    2    1    0    0    0  0.28097226127E+01  0.60525072224E+01 -0.30194006459E+02  0.94077428780E+02  0.88850195244E+02 0.  0.
         13    1    3    3    0    0  0.32406967781E+02  0.30288039068E+02 -0.33636724570E+02  0.55668817800E+02  0.10566000000E+00 0.  1.
         22    1    1    0    0    0 -0.28097226127E+01 -0.60525072224E+01  0.30194006459E+02  0.30922571220E+02  0.00000000000E+00 0.  1.
</event>
<event>
 5    1  0.1319298E-009  0.9118800E+02  0.7818608E-02  0.1130116E+00
         25   -1    0    0    0    0  0.00000000000E+00  0.00000000000E+00  0.99999998245E-14  0.12500000000E+03  0.12500000000E+03 0.  0.
        -13    1    3    3    0    0 -0.13428976367E+02  0.91323476080E+01 -0.29585139318E+02  0.33749500909E+02  0.10566000000E+00 0.  1.
         23    2    1    0    0    0  0.75809683187E+01 -0.95940111145E+01  0.26119324818E+02  0.96160179285E+02  0.91733553410E+02 0.  0.
         13    1    3    3    0    0  0.21009944686E+02 -0.18726358722E+02  0.55704464136E+02  0.62410678376E+02  0.10566000000E+00 0. -1.
         22    1    1    0    0    0 -0.75809683187E+01  0.95940111145E+01 -0.26119324818E+02  0.28839820715E+02  0.00000000000E+00 0. -1.
</event>
<event>
 5    1  0.1319298E-009  0.9118800E+02  0.7818608E-02  0.1130116E+00
         25   -1    0    0    0    0  0.00000000000E+00  0.00000000000E+00  0.99999998245E-14  0.12500000000E+03  0.12500000000E+03 0.  0.
        -13    1    3    3    0    0 -0.35218198521E+02  0.30391448007E+02 -0.38014366254E+02  0.60075492713E+02  0.10566000000E+00 0. -1.
         23    2    1    0    0    0 -0.24666348258E+02  0.15103656669E+02 -0.86699867684E+01  0.94805334052E+02  0.89868423336E+02 0.  0.
         13    1    3    3    0    0  0.10551850263E+02 -0.15287791338E+02  0.29344379486E+02  0.34729841338E+02  0.10566000000E+00 0.  1.
         22    1    1    0    0    0  0.24666348258E+02 -0.15103656669E+02  0.86699867684E+01  0.30194665948E+02  0.00000000000E+00 0. -1.
</event>
<event>
 5    1  0.1319298E-009  0.9118800E+02  0.7818608E-02  0.1130116E+00
         25   -1    0    0    0    0  0.00000000000E+00  0.00000000000E+00  0.99999998245E-14  0.12500000000E+03  0.12500000000E+03 0.  0.
        -13    1    3    3    0    0  0.38957102669E+02 -0.32408651757E+02  0.40834324801E+01  0.50839572598E+02  0.10566000000E+00 0. -1.
         23    2    1    0    0    0  0.35780958605E+01 -0.15663583273E+02 -0.21912948510E+02  0.97827809743E+02  0.93978467937E+02 0.  0.
         13    1    3    3    0    0 -0.35379006809E+02  0.16745068484E+02 -0.25996380990E+02  0.46988237145E+02  0.10566000000E+00 0.  1.
         22    1    1    0    0    0 -0.35780958605E+01  0.15663583273E+02  0.21912948510E+02  0.27172190257E+02  0.00000000000E+00 0. -1.
</event>
<event>
 5    1  0.1319298E-009  0.9118800E+02  0.7818608E-02  0.1130116E+00
         25   -1    0    0    0    0  0.00000000000E+00  0.00000000000E+00  0.99999998245E-14  0.12500000000E+03  0.12500000000E+03 0.  0.
        -13    1    3    3    0    0  0.45816694892E+02  0.17595083350E+02  0.18332145662E+02  0.52391174996E+02  0.10566000000E+00 0. -1.
         23    2    1    0    0    0  0.22084565441E+02 -0.16719181671E+02  0.12828091615E+02  0.94474289510E+02  0.89406780377E+02 0.  0.
         13    1    3    3    0    0 -0.23732129451E+02 -0.34314265021E+02 -0.55040540463E+01  0.42083114514E+02  0.10566000000E+00 0.  1.
         22    1    1    0    0    0 -0.22084565441E+02  0.16719181671E+02 -0.12828091615E+02  0.30525710490E+02  0.00000000000E+00 0. -1.
</event>
<event>
 5    1  0.1319298E-009  0.9118800E+02  0.7818608E-02  0.1130116E+00
         25   -1    0    0    0    0  0.00000000000E+00  0.00000000000E+00  0.99999998245E-14  0.12500000000E+03  0.12500000000E+03 0.  0.
        -13    1    3    3    0    0  0.55630817588E+02  0.52364178794E+01 -0.25085780908E+01  0.55933103488E+02  0.10566000000E+00 0. -1.
         23    2    1    0    0    0  0.21291142741E+02  0.15732642483E+02 -0.15739522723E+02  0.94201276418E+02  0.89024261326E+02 0.  0.
         13    1    3    3    0    0 -0.34339674847E+02  0.10496224604E+02 -0.13230944632E+02  0.38268172930E+02  0.10566000000E+00 0.  1.
         22    1    1    0    0    0 -0.21291142741E+02 -0.15732642483E+02  0.15739522723E+02  0.30798723582E+02  0.00000000000E+00 0. -1.
</event>
<event>
 5    1  0.1319298E-009  0.9118800E+02  0.7818608E-02  0.1130116E+00
         25   -1    0    0    0    0  0.00000000000E+00  0.00000000000E+00  0.99999998245E-14  0.12500000000E+03  0.12500000000E+03 0.  0.
        -13    1    3    3    0    0 -0.77363677907E+00  0.37944051021E+01  0.45950688670E+02  0.46113696200E+02  0.10566000000E+00 0. -1.
         23    2    1    0    0    0 -0.29931971019E+02  0.66688099118E+01  0.94673223335E+01  0.92905980201E+02  0.87186553150E+02 0.  0.
         13    1    3    3    0    0 -0.29158334240E+02  0.28744048097E+01 -0.36483366337E+02  0.46792284000E+02  0.10566000000E+00 0.  1.
         22    1    1    0    0    0  0.29931971019E+02 -0.66688099118E+01 -0.94673223335E+01  0.32094019799E+02  0.00000000000E+00 0.  1.
</event>
<event>
 5    1  0.1319298E-009  0.9118800E+02  0.7818608E-02  0.1130116E+00
         25   -1    0    0    0    0  0.00000000000E+00  0.00000000000E+00  0.99999998245E-14  0.12500000000E+03  0.12500000000E+03 0.  0.
        -13    1    3    3    0    0 -0.46724814927E+02  0.34848852039E+02  0.37162039236E+01  0.58407809015E+02  0.10566000000E+00 0. -1.
         23    2    1    0    0    0 -0.30410683318E+02  0.12113361789E+02  0.15512653416E+02  0.88775897393E+02  0.81049209424E+02 0.  0.
         13    1    3    3    0    0  0.16314131609E+02 -0.22735490250E+02  0.11796449492E+02  0.30368088378E+02  0.10566000000E+00 0.  1.
         22    1    1    0    0    0  0.30410683318E+02 -0.12113361789E+02 -0.15512653416E+02  0.36224102607E+02  0.00000000000E+00 0. -1.
</event>
<event>
 5    1  0.1319298E-009  0.9118800E+02  0.7818608E-02  0.1130116E+00
         25   -1    0    0    0    0  0.00000000000E+00  0.00000000000E+00  0.99999998245E-14  0.12500000000E+03  0.12500000000E+03 0.  0.
        -13    1    3    3    0    0 -0.57747663300E+02 -0.13478317850E+02 -0.13403455575E+02  0.60795735492E+02  0.10566000000E+00 0.  1.
         23    2    1    0    0    0 -0.27484228191E+02  0.38833632360E+01 -0.37957041689E+01  0.96984456467E+02  0.92849954856E+02 0.  0.
         13    1    3    3    0    0  0.30263435108E+02  0.17361681086E+02  0.96077514060E+01  0.36188720975E+02  0.10566000000E+00 0. -1.
         22    1    1    0    0    0  0.27484228191E+02 -0.38833632360E+01  0.37957041689E+01  0.28015543533E+02  0.00000000000E+00 0.  1.
</event>
<event>
 5    1  0.1319298E-009  0.9118800E+02  0.7818608E-02  0.1130116E+00
         25   -1    0    0    0    0  0.00000000000E+00  0.00000000000E+00  0.99999998245E-14  0.12500000000E+03  0.12500000000E+03 0.  0.
        -13    1    3    3    0    0 -0.59289912106E+02 -0.93555049976E+01 -0.78285905587E+01  0.60531951443E+02  0.10566000000E+00 0. -1.
         23    2    1    0    0    0 -0.28765375814E+02  0.63889352650E+01 -0.60165280303E+01  0.94925692875E+02  0.90035677476E+02 0.  0.
         13    1    3    3    0    0  0.30524536292E+02  0.15744440263E+02  0.18120625284E+01  0.34393741432E+02  0.10566000000E+00 0.  1.
         22    1    1    0    0    0  0.28765375814E+02 -0.63889352650E+01  0.60165280303E+01  0.30074307125E+02  0.00000000000E+00 0. -1.
</event>
<event>
 5    1  0.1319298E-009  0.9118800E+02  0.7818608E-02  0.1130116E+00
         25   -1    0    0    0    0  0.00000000000E+00  0.00000000000E+00  0.99999998245E-14  0.12500000000E+03  0.12500000000E+03 0.  0.
        -13    1    3    3    0    0 -0.31616152722E+02 -0.31247101647E+02 -0.28330801803E+02  0.52712502968E+02  0.10566000000E+00 0. -1.
         23    2    1    0    0    0 -0.26141597206E+02 -0.10431723576E+02  0.86964659987E+01  0.95541003376E+02  0.90885922144E+02 0.  0.
         13    1    3    3    0    0  0.54745555159E+01  0.20815378071E+02  0.37027267801E+02  0.42828500408E+02  0.10566000000E+00 0.  1.
         22    1    1    0    0    0  0.26141597206E+02  0.10431723576E+02 -0.86964659987E+01  0.29458996624E+02  0.00000000000E+00 0. -1.
</event>
<event>
 5    1  0.1319298E-009  0.9118800E+02  0.7818608E-02  0.1130116E+00
         25   -1    0    0    0    0  0.00000000000E+00  0.00000000000E+00  0.99999998245E-14  0.12500000000E+03  0.12500000000E+03 0.  0.
        -13    1    3    3    0    0  0.37922012896E+02  0.28462232901E+02  0.14514700986E+02  0.49586948611E+02  0.10566000000E+00 0.  1.
         23    2    1    0    0    0 -0.56136571969E+01  0.22435120148E+02  0.20689148011E+02  0.93969553522E+02  0.88698299762E+02 0.  0.
         13    1    3    3    0    0 -0.43535670093E+02 -0.60271127531E+01  0.61744470251E+01  0.44382604911E+02  0.10566000000E+00 0. -1.
         22    1    1    0    0    0  0.56136571969E+01 -0.22435120148E+02 -0.20689148011E+02  0.31030446478E+02  0.00000000000E+00 0.  1.
</event>
<event>
 5    1  0.1319298E-009  0.9118800E+02  0.7818608E-02  0.1130116E+00
         25   -1    0    0    0    0  0.00000000000E+00  0.00000000000E+00  0.99999998245E-14  0.12500000000E+03  0.12500000000E+03 0.  0.
        -13    1    3    3    0    0  0.21932162394E+02 -0.19455581025E+02 -0.18466772123E+02  0.34649274407E+02  0.10566000000E+00 0. -1.
         23    2    1    0    0    0 -0.18322078251E+02  0.92495253257E+01  0.19270676734E+02  0.96846647589E+02  0.92664242820E+02 0.  0.
         13    1    3    3    0    0 -0.40254240645E+02  0.28705106351E+02  0.37737448856E+02  0.62197373182E+02  0.10566000000E+00 0.  1.
         22    1    1    0    0    0  0.18322078251E+02 -0.92495253257E+01 -0.19270676734E+02  0.28153352411E+02  0.00000000000E+00 0.  1.
</event>
<event>
 5    1  0.1319298E-009  0.9118800E+02  0.7818608E-02  0.1130116E+00
         25   -1    0    0    0    0  0.00000000000E+00  0.00000000000E+00  0.99999998245E-14  0.12500000000E+03  0.12500000000E+03 0.  0.
        -13    1    3    3    0    0 -0.21651523663E+02 -0.18710497555E+02 -0.35360099427E+02  0.45488668822E+02  0.10566000000E+00 0. -1.
         23    2    1    0    0    0 -0.15099842391E+02 -0.44091702173E+01  0.17985860122E+02  0.10110570808E+03  0.98241676588E+02 0.  0.
         13    1    3    3    0    0  0.65516812715E+01  0.14301327337E+02  0.53345959549E+02  0.55617039254E+02  0.10566000000E+00 0.  1.
         22    1    1    0    0    0  0.15099842391E+02  0.44091702173E+01 -0.17985860122E+02  0.23894291925E+02  0.00000000000E+00 0.  1.
</event>
<event>
 5    1  0.1319298E-009  0.9118800E+02  0.7818608E-02  0.1130116E+00
         25   -1    0    0    0    0  0.00000000000E+00  0.00000000000E+00  0.99999998245E-14  0.12500000000E+03  0.12500000000E+03 0.  0.
        -13    1    3    3    0    0 -0.15289663242E+02  0.52174805564E+02  0.10484259823E+02  0.55370705303E+02  0.10566000000E+00 0.  1.
         23    2    1    0    0    0  0.75620585865E+01  0.23557164560E+02 -0.11102929352E+02  0.97881744666E+02  0.94050178982E+02 0.  0.
         13    1    3    3    0    0  0.22851721829E+02 -0.28617641004E+02 -0.21587189175E+02  0.42511039363E+02  0.10566000000E+00 0. -1.
         22    1    1    0    0    0 -0.75620585865E+01 -0.23557164560E+02  0.11102929352E+02  0.27118255334E+02  0.00000000000E+00 0. -1.
</event>
<event>
 5    1  0.1319298E-009  0.9118800E+02  0.7818608E-02  0.1130116E+00
         25   -1    0    0    0    0  0.00000000000E+00  0.00000000000E+00  0.99999998245E-14  0.12500000000E+03  0.12500000000E+03 0.  0.
        -13    1    3    3    0    0 -0.17270917879E+02 -0.31342890103E+02 -0.12889069391E+02  0.38036832652E+02  0.10566000000E+00 0.  1.
         23    2    1    0    0    0  0.21839820516E+02  0.10158533525E+02 -0.17466496082E+02  0.95246814474E+02  0.90480404611E+02 0.  0.
         13    1    3    3    0    0  0.39110738395E+02  0.41501423628E+02 -0.45774266913E+01  0.57209981822E+02  0.10566000000E+00 0. -1.
         22    1    1    0    0    0 -0.21839820516E+02 -0.10158533525E+02  0.17466496082E+02  0.29753185526E+02  0.00000000000E+00 0. -1.
</event>
<event>
 5    1  0.1319298E-009  0.9118800E+02  0.7818608E-02  0.1130116E+00
         25   -1    0    0    0    0  0.00000000000E+00  0.00000000000E+00  0.99999998245E-14  0.12500000000E+03  0.12500000000E+03 0.  0.
        -13    1    3    3    0    0 -0.24647512179E+02 -0.23780039536E+02 -0.48051336838E+02  0.59007900089E+02  0.10566000000E+00 0.  1.
         23    2    1    0    0    0 -0.55733816863E+01 -0.22915728792E+02 -0.15396510398E+02  0.96835381382E+02  0.92649043953E+02 0.  0.
         13    1    3    3    0    0  0.19074130493E+02  0.86431074441E+00  0.32654826440E+02  0.37827481293E+02  0.10566000000E+00 0. -1.
         22    1    1    0    0    0  0.55733816863E+01  0.22915728792E+02  0.15396510398E+02  0.28164618618E+02  0.00000000000E+00 0.  1.
</event>
<event>
 5    1  0.1319298E-009  0.9118800E+02  0.7818608E-02  0.1130116E+00
         25   -1    0    0    0    0  0.00000000000E+00  0.00000000000E+00  0.99999998245E-14  0.12500000000E+03  0.12500000000E+03 0.  0.
        -13    1    3    3    0    0  0.54277640230E+02 -0.10486205650E+01  0.19396841825E+02  0.57649028360E+02  0.10566000000E+00 0. -1.
         23    2    1    0    0    0  0.25416449633E+02 -0.13067535590E+02 -0.32260296160E+01  0.96239546850E+02  0.91841639317E+02 0.  0.
         13    1    3    3    0    0 -0.28861190597E+02 -0.12018915025E+02 -0.22622871441E+02  0.38590518490E+02  0.10566000000E+00 0.  1.
         22    1    1    0    0    0 -0.25416449633E+02  0.13067535590E+02  0.32260296160E+01  0.28760453150E+02  0.00000000000E+00 0. -1.
</event>
<event>
 5    1  0.1319298E-009  0.9118800E+02  0.7818608E-02  0.1130116E+00
         25   -1    0    0    0    0  0.00000000000E+00  0.00000000000E+00  0.99999998245E-14  0.12500000000E+03  0.12500000000E+03 0.  0.
        -13    1    3    3    0    0  0.37381583957E+02  0.13282197040E+02  0.40582067876E+02  0.56751343372E+02  0.10566000000E+00 0. -1.
         23    2    1    0    0    0  0.58991650422E+01 -0.59283392545E+01  0.28091579815E+02  0.95689895753E+02  0.91090471171E+02 0.  0.
         13    1    3    3    0    0 -0.31482418915E+02 -0.19210536294E+02 -0.12490488062E+02  0.38938552381E+02  0.10566000000E+00 0.  1.
         22    1    1    0    0    0 -0.58991650422E+01  0.59283392545E+01 -0.28091579815E+02  0.29310104247E+02  0.00000000000E+00 0. -1.
</event>
<event>
 5    1  0.1319298E-009  0.9118800E+02  0.7818608E-02  0.1130116E+00
         25   -1    0    0    0    0  0.00000000000E+00  0.00000000000E+00  0.99999998245E-14  0.12500000000E+03  0.12500000000E+03 0.  0.
        -13    1    3    3    0    0  0.26435448560E+02 -0.32877903158E+02 -0.12856442657E+01  0.42207268354E+02  0.10566000000E+00 0.  1.
         23    2    1    0    0    0 -0.21885489070E+02 -0.12699963123E+02 -0.13983679846E+02  0.96089673174E+02  0.91637428453E+02 0.  0.
         13    1    3    3    0    0 -0.48320937631E+02  0.20177940035E+02 -0.12698035580E+02  0.53882404820E+02  0.10566000000E+00 0. -1.
         22    1    1    0    0    0  0.21885489070E+02  0.12699963123E+02  0.13983679846E+02  0.28910326826E+02  0.00000000000E+00 0. -1.
</event>
<event>
 5    1  0.1319298E-009  0.9118800E+02  0.7818608E-02  0.1130116E+00
         25   -1    0    0    0    0  0.00000000000E+00  0.00000000000E+00  0.99999998245E-14  0.12500000000E+03  0.12500000000E+03 0.  0.
        -13    1    3    3    0    0 -0.97378110321E+01  0.22442834268E+02  0.40498817071E+02  0.47314597345E+02  0.10566000000E+00 0. -1.
         23    2    1    0    0    0 -0.27311180177E+02 -0.67147409875E+01  0.51196692077E+01  0.96413301660E+02  0.92077822601E+02 0.  0.
         13    1    3    3    0    0 -0.17573369145E+02 -0.29157575256E+02 -0.35379147863E+02  0.49098704316E+02  0.10566000000E+00 0.  1.
         22    1    1    0    0    0  0.27311180177E+02  0.67147409875E+01 -0.51196692077E+01  0.28586698340E+02  0.00000000000E+00 0. -1.
</event>
<event>
 5    1  0.1319298E-009  0.9118800E+02  0.7818608E-02  0.1130116E+00
         25   -1    0    0    0    0  0.00000000000E+00  0.00000000000E+00  0.99999998245E-14  0.12500000000E+03  0.12500000000E+03 0.  0.
        -13    1    3    3    0    0  0.40252710083E+02  0.34239834827E+02 -0.26095062872E+02  0.58937343242E+02  0.10566000000E+00 0.  1.
         23    2    1    0    0    0  0.98841188835E+01  0.27917627741E+02 -0.11342899878E+02  0.93286420536E+02  0.87730297697E+02 0.  0.
         13    1    3    3    0    0 -0.30368591200E+02 -0.63222070861E+01  0.14752162995E+02  0.34349077294E+02  0.10566000000E+00 0. -1.
         22    1    1    0    0    0 -0.98841188835E+01 -0.27917627741E+02  0.11342899878E+02  0.31713579464E+02  0.00000000000E+00 0.  1.
</event>
<event>
 5    1  0.1319298E-009  0.9118800E+02  0.7818608E-02  0.1130116E+00
         25   -1    0    0    0    0  0.00000000000E+00  0.00000000000E+00  0.99999998245E-14  0.12500000000E+03  0.12500000000E+03 0.  0.
        -13    1    3    3    0    0  0.15066525496E+02  0.18024076623E+02 -0.27900699835E+02  0.36473658220E+02  0.10566000000E+00 0. -1.
         23    2    1    0    0    0 -0.26786152972E+02  0.67745168091E+01  0.11526024389E+02  0.95062710422E+02  0.90225703686E+02 0.  0.
         13    1    3    3    0    0 -0.41852678468E+02 -0.11249559814E+02  0.39426724224E+02  0.58589052203E+02  0.10566000000E+00 0.  1.
         22    1    1    0    0    0  0.26786152972E+02 -0.67745168091E+01 -0.11526024389E+02  0.29937289578E+02  0.00000000000E+00 0.  1.
</event>
<event>
 5    1  0.1319298E-009  0.9118800E+02  0.7818608E-02  0.1130116E+00
         25   -1    0    0    0    0  0.00000000000E+00  0.00000000000E+00  0.99999998245E-14  0.12500000000E+03  0.12500000000E+03 0.  0.
        -13    1    3    3    0    0 -0.97795397653E+01  0.15578287757E+02 -0.54038245583E+02  0.57082971167E+02  0.10566000000E+00 0. -1.
         23    2    1    0    0    0 -0.17133669286E+02 -0.61464846804E+01 -0.24268180721E+02  0.94663775900E+02  0.89671310769E+02 0.  0.
         13    1    3    3    0    0 -0.73541295208E+01 -0.21724772437E+02  0.29770064863E+02  0.37580804733E+02  0.10566000000E+00 0.  1.
         22    1    1    0    0    0  0.17133669286E+02  0.61464846804E+01  0.24268180721E+02  0.30336224100E+02  0.00000000000E+00 0. -1.
</event>
<event>
 5    1  0.1319298E-009  0.9118800E+02  0.7818608E-02  0.1130116E+00
         25   -1    0    0    0    0  0.00000000000E+00  0.00000000000E+00  0.99999998245E-14  0.12500000000E+03  0.12500000000E+03 0.  0.
        -13    1    3    3    0    0 -0.37829137530E+02  0.13415814842E+02  0.19390613491E+01  0.40184559934E+02  0.10566000000E+00 0.  1.
         23    2    1    0    0    0  0.24813251255E+01 -0.14979330377E+02 -0.24532802866E+02  0.96148730888E+02  0.91717952016E+02 0.  0.
         13    1    3    3    0    0  0.40310462655E+02 -0.28395145219E+02 -0.26471864215E+02  0.55964170954E+02  0.10566000000E+00 0. -1.
         22    1    1    0    0    0 -0.24813251255E+01  0.14979330377E+02  0.24532802866E+02  0.28851269112E+02  0.00000000000E+00 0. -1.
</event>
<event>
 5    1  0.1319298E-009  0.9118800E+02  0.7818608E-02  0.1130116E+00
         25   -1    0    0    0    0  0.00000000000E+00  0.00000000000E+00  0.99999998245E-14  0.12500000000E+03  0.12500000000E+03 0.  0.
        -13    1    3    3    0    0  0.11410871780E+02 -0.35455521199E+02  0.38125154921E+02  0.53299536396E+02  0.10566000000E+00 0.  1.
         23    2    1    0    0    0  0.24337190481E+02 -0.16188496467E+01  0.13226492759E+02  0.97253655639E+02  0.93211661877E+02 0.  0.
         13    1    3    3    0    0  0.12926318701E+02  0.33836671553E+02 -0.24898662162E+02  0.43954119243E+02  0.10566000000E+00 0. -1.
         22    1    1    0    0    0 -0.24337190481E+02  0.16188496467E+01 -0.13226492759E+02  0.27746344361E+02  0.00000000000E+00 0.  1.
</event>
<event>
 5    1  0.1319298E-009  0.9118800E+02  0.7818608E-02  0.1130116E+00
         25   -1    0    0    0    0  0.00000000000E+00  0.00000000000E+00  0.99999998245E-14  0.12500000000E+03  0.12500000000E+03 0.  0.
        -13    1    3    3    0    0 -0.43412942087E+02 -0.23337777715E+01 -0.14880449034E+02  0.45951811573E+02  0.10566000000E+00 0.  1.
         23    2    1    0    0    0  0.68036335122E-02  0.61817963358E+01 -0.31261017443E+02  0.93133624872E+02  0.87512320378E+02 0.  0.
         13    1    3    3    0    0  0.43419745720E+02  0.85155741072E+01 -0.16380568409E+02  0.47181813299E+02  0.10566000000E+00 0. -1.
         22    1    1    0    0    0 -0.68036335122E-02 -0.61817963358E+01  0.31261017443E+02  0.31866375128E+02  0.00000000000E+00 0. -1.
</event>
<event>
 5    1  0.1319298E-009  0.9118800E+02  0.7818608E-02  0.1130116E+00
         25   -1    0    0    0    0  0.00000000000E+00  0.00000000000E+00  0.99999998245E-14  0.12500000000E+03  0.12500000000E+03 0.  0.
        -13    1    3    3    0    0  0.11163697578E+02  0.15088856042E+01 -0.53572451573E+02  0.54744165086E+02  0.10566000000E+00 0.  1.
         23    2    1    0    0    0  0.51916540364E+01 -0.20825510434E+02 -0.18994242194E+02  0.96339288338E+02  0.91977291134E+02 0.  0.
         13    1    3    3    0    0 -0.59720435419E+01 -0.22334396038E+02  0.34578209379E+02  0.41595123252E+02  0.10566000000E+00 0. -1.
         22    1    1    0    0    0 -0.51916540364E+01  0.20825510434E+02  0.18994242194E+02  0.28660711662E+02  0.00000000000E+00 0.  1.
</event>
<event>
 5    1  0.1319298E-009  0.9118800E+02  0.7818608E-02  0.1130116E+00
         25   -1    0    0    0    0  0.00000000000E+00  0.00000000000E+00  0.99999998245E-14  0.12500000000E+03  0.12500000000E+03 0.  0.
        -13    1    3    3    0    0 -0.23620241536E+01 -0.16867475015E+02 -0.53174531136E+02  0.55835766289E+02  0.10566000000E+00 0.  1.
         23    2    1    0    0    0 -0.19209408290E+02  0.15195947230E+01 -0.22135281491E+02  0.95652406885E+02  0.91039012084E+02 0.  0.
         13    1    3    3    0    0 -0.16847384137E+02  0.18387069738E+02  0.31039249645E+02  0.39816640596E+02  0.10566000000E+00 0. -1.
         22    1    1    0    0    0  0.19209408290E+02 -0.15195947230E+01  0.22135281491E+02  0.29347593115E+02  0.00000000000E+00 0.  1.
</event>
<event>
 5    1  0.1319298E-009  0.9118800E+02  0.7818608E-02  0.1130116E+00
         25   -1    0    0    0    0  0.00000000000E+00  0.00000000000E+00  0.99999998245E-14  0.12500000000E+03  0.12500000000E+03 0.  0.
        -13    1    3    3    0    0  0.17705795380E+02 -0.11125783034E+02  0.34575426790E+02  0.40407295627E+02  0.10566000000E+00 0.  1.
         23    2    1    0    0    0  0.27613515858E+02  0.10306221376E+02 -0.12431812156E+02  0.93011339344E+02  0.87337476698E+02 0.  0.
         13    1    3    3    0    0  0.99077204781E+01  0.21432004410E+02 -0.47007238946E+02  0.52604043717E+02  0.10566000000E+00 0. -1.
         22    1    1    0    0    0 -0.27613515858E+02 -0.10306221376E+02  0.12431812156E+02  0.31988660656E+02  0.00000000000E+00 0. -1.
</event>
<event>
 5    1  0.1319298E-009  0.9118800E+02  0.7818608E-02  0.1130116E+00
         25   -1    0    0    0    0  0.00000000000E+00  0.00000000000E+00  0.99999998245E-14  0.12500000000E+03  0.12500000000E+03 0.  0.
        -13    1    3    3    0    0 -0.16158850557E+02  0.17207752627E+01 -0.28822306610E+02  0.33087853379E+02  0.10566000000E+00 0.  1.
         23    2    1    0    0    0  0.16901540365E+02  0.92071039478E+01  0.22998426497E+02  0.95010661042E+02  0.90153564880E+02 0.  0.
         13    1    3    3    0    0  0.33060390922E+02  0.74863286851E+01  0.51820733107E+02  0.61922807663E+02  0.10566000000E+00 0. -1.
         22    1    1    0    0    0 -0.16901540365E+02 -0.92071039478E+01 -0.22998426497E+02  0.29989338958E+02  0.00000000000E+00 0. -1.
</event>
<event>
 5    1  0.1319298E-009  0.9118800E+02  0.7818608E-02  0.1130116E+00
         25   -1    0    0    0    0  0.00000000000E+00  0.00000000000E+00  0.99999998245E-14  0.12500000000E+03  0.12500000000E+03 0.  0.
        -13    1    3    3    0    0 -0.10772156701E+02  0.20150481700E+02  0.24574456392E+02  0.33555868991E+02  0.10566000000E+00 0. -1.
         23    2    1    0    0    0  0.24323350244E+02 -0.10446260704E+02 -0.14922318408E+02  0.94612086014E+02  0.89599227136E+02 0.  0.
         13    1    3    3    0    0  0.35095506945E+02 -0.30596742404E+02 -0.39496774800E+02  0.61056217023E+02  0.10566000000E+00 0.  1.
         22    1    1    0    0    0 -0.24323350244E+02  0.10446260704E+02  0.14922318408E+02  0.30387913986E+02  0.00000000000E+00 0.  1.
</event>
<event>
 5    1  0.1319298E-009  0.9118800E+02  0.7818608E-02  0.1130116E+00
         25   -1    0    0    0    0  0.00000000000E+00  0.00000000000E+00  0.99999998245E-14  0.12500000000E+03  0.12500000000E+03 0.  0.
        -13    1    3    3    0    0 -0.34945919674E+02 -0.27596253495E+02  0.22844002314E+02  0.50046279727E+02  0.10566000000E+00 0. -1.
         23    2    1    0    0    0 -0.22448530384E+02  0.14891996130E+02  0.62155843000E+01  0.97353272285E+02  0.93345155586E+02 0.  0.
         13    1    3    3    0    0  0.12497389290E+02  0.42488249625E+02 -0.16628418014E+02  0.47306992558E+02  0.10566000000E+00 0.  1.
         22    1    1    0    0    0  0.22448530384E+02 -0.14891996130E+02 -0.62155843000E+01  0.27646727715E+02  0.00000000000E+00 0. -1.
</event>
<event>
 5    1  0.1319298E-009  0.9118800E+02  0.7818608E-02  0.1130116E+00
         25   -1    0    0    0    0  0.00000000000E+00  0.00000000000E+00  0.99999998245E-14  0.12500000000E+03  0.12500000000E+03 0.  0.
        -13    1    3    3    0    0 -0.28196596865E+02 -0.12755923089E+02 -0.47535096572E+02  0.56721761421E+02  0.10566000000E+00 0.  1.
         23    2    1    0    0    0  0.21845217724E+01 -0.17713968029E+02 -0.21648405194E+02  0.96942732739E+02  0.92793766950E+02 0.  0.
         13    1    3    3    0    0  0.30381118637E+02 -0.49580449397E+01  0.25886691378E+02  0.40220971318E+02  0.10566000000E+00 0. -1.
         22    1    1    0    0    0 -0.21845217724E+01  0.17713968029E+02  0.21648405194E+02  0.28057267261E+02  0.00000000000E+00 0.  1.
</event>
<event>
 5    1  0.1319298E-009  0.9118800E+02  0.7818608E-02  0.1130116E+00
         25   -1    0    0    0    0  0.00000000000E+00  0.00000000000E+00  0.99999998245E-14  0.12500000000E+03  0.12500000000E+03 0.  0.
        -13    1    3    3    0    0 -0.19209927974E+02  0.35469087125E+02  0.21530741473E+02  0.45723751668E+02  0.10566000000E+00 0.  1.
         23    2    1    0    0    0 -0.12951611571E+02  0.90772368332E+01 -0.22535309689E+02  0.97468551553E+02  0.93499400470E+02 0.  0.
         13    1    3    3    0    0  0.62583164027E+01 -0.26391850291E+02 -0.44066051162E+02  0.51744799884E+02  0.10566000000E+00 0. -1.
         22    1    1    0    0    0  0.12951611571E+02 -0.90772368332E+01  0.22535309689E+02  0.27531448447E+02  0.00000000000E+00 0. -1.
</event>
<event>
 5    1  0.1319298E-009  0.9118800E+02  0.7818608E-02  0.1130116E+00
         25   -1    0    0    0    0  0.00000000000E+00  0.00000000000E+00  0.99999998245E-14  0.12500000000E+03  0.12500000000E+03 0.  0.
        -13    1    3    3    0    0 -0.57848883895E+01  0.24997310304E+02 -0.56910219097E+02  0.62426874484E+02  0.10566000000E+00 0. -1.
         23    2    1    0    0    0 -0.89646613389E+00  0.12804200579E+02 -0.26403079440E+02  0.95642312626E+02  0.91025151231E+02 0.  0.
         13    1    3    3    0    0  0.48884222556E+01 -0.12193109725E+02  0.30507139657E+02  0.33215438142E+02  0.10566000000E+00 0.  1.
         22    1    1    0    0    0  0.89646613389E+00 -0.12804200579E+02  0.26403079440E+02  0.29357687374E+02  0.00000000000E+00 0. -1.
</event>
<event>
 5    1  0.1319298E-009  0.9118800E+02  0.7818608E-02  0.1130116E+00
         25   -1    0    0    0    0  0.00000000000E+00  0.00000000000E+00  0.99999998245E-14  0.12500000000E+03  0.12500000000E+03 0.  0.
        -13    1    3    3    0    0  0.32566592748E+02  0.10157625780E+02  0.19439137365E+02  0.39263870801E+02  0.10566000000E+00 0. -1.
         23    2    1    0    0    0  0.80992400675E+01 -0.10777895272E+02 -0.26442945192E+02  0.95318523174E+02  0.90579417052E+02 0.  0.
         13    1    3    3    0    0 -0.24467352680E+02 -0.20935521052E+02 -0.45882082557E+02  0.56054652374E+02  0.10566000000E+00 0.  1.
         22    1    1    0    0    0 -0.80992400675E+01  0.10777895272E+02  0.26442945192E+02  0.29681476826E+02  0.00000000000E+00 0.  1.
</event>
<event>
 5    1  0.1319298E-009  0.9118800E+02  0.7818608E-02  0.1130116E+00
         25   -1    0    0    0    0  0.00000000000E+00  0.00000000000E+00  0.99999998245E-14  0.12500000000E+03  0.12500000000E+03 0.  0.
        -13    1    3    3    0    0  0.16890757715E+02  0.19127371794E+02 -0.48291473463E+02  0.54618967595E+02  0.10566000000E+00 0.  1.
         23    2    1    0    0    0 -0.24955518787E+01  0.22198934357E+02 -0.45323364622E+02  0.74470524974E+02  0.54704947156E+02 0.  0.
         13    1    3    3    0    0 -0.19386309593E+02  0.30715625628E+01  0.29681088404E+01  0.19851557378E+02  0.10566000000E+00 0. -1.
         22    1    1    0    0    0  0.24955518787E+01 -0.22198934357E+02  0.45323364622E+02  0.50529475026E+02  0.00000000000E+00 0.  1.
</event>
<event>
 5    1  0.1319298E-009  0.9118800E+02  0.7818608E-02  0.1130116E+00
         25   -1    0    0    0    0  0.00000000000E+00  0.00000000000E+00  0.99999998245E-14  0.12500000000E+03  0.12500000000E+03 0.  0.
        -13    1    3    3    0    0  0.20966801164E+02  0.34249560568E+01  0.55342670003E+02  0.59280345496E+02  0.10566000000E+00 0. -1.
         23    2    1    0    0    0  0.21347036285E+02 -0.33037056194E+01  0.19034059425E+02  0.96209274980E+02  0.91800428894E+02 0.  0.
         13    1    3    3    0    0  0.38023512093E+00 -0.67286616762E+01 -0.36308610578E+02  0.36928929484E+02  0.10566000000E+00 0.  1.
         22    1    1    0    0    0 -0.21347036285E+02  0.33037056194E+01 -0.19034059425E+02  0.28790725020E+02  0.00000000000E+00 0. -1.
</event>
<event>
 5    1  0.1319298E-009  0.9118800E+02  0.7818608E-02  0.1130116E+00
         25   -1    0    0    0    0  0.00000000000E+00  0.00000000000E+00  0.99999998245E-14  0.12500000000E+03  0.12500000000E+03 0.  0.
        -13    1    3    3    0    0 -0.42779185532E+02 -0.34687260808E+02 -0.28135911216E+02  0.61845819916E+02  0.10566000000E+00 0.  1.
         23    2    1    0    0    0 -0.22986971888E+02 -0.17750783704E+02 -0.77034754057E+01  0.94952791610E+02  0.90073291838E+02 0.  0.
         13    1    3    3    0    0  0.19792213643E+02  0.16936477104E+02  0.20432435810E+02  0.33106971694E+02  0.10566000000E+00 0. -1.
         22    1    1    0    0    0  0.22986971888E+02  0.17750783704E+02  0.77034754057E+01  0.30047208390E+02  0.00000000000E+00 0.  1.
</event>
<event>
 5    1  0.1319298E-009  0.9118800E+02  0.7818608E-02  0.1130116E+00
         25   -1    0    0    0    0  0.00000000000E+00  0.00000000000E+00  0.99999998245E-14  0.12500000000E+03  0.12500000000E+03 0.  0.
        -13    1    3    3    0    0 -0.49663778170E+02  0.35875049887E+02 -0.11758703308E+01  0.61277270677E+02  0.10566000000E+00 0.  1.
         23    2    1    0    0    0 -0.26417340297E+02  0.13858784813E+02  0.70745096768E+01  0.94340735951E+02  0.89219863191E+02 0.  0.
         13    1    3    3    0    0  0.23246437873E+02 -0.22016265074E+02  0.82503800076E+01  0.33063465274E+02  0.10566000000E+00 0. -1.
         22    1    1    0    0    0  0.26417340297E+02 -0.13858784813E+02 -0.70745096768E+01  0.30659264049E+02  0.00000000000E+00 0.  1.
</event>
<event>
 5    1  0.1319298E-009  0.9118800E+02  0.7818608E-02  0.1130116E+00
         25   -1    0    0    0    0  0.00000000000E+00  0.00000000000E+00  0.99999998245E-14  0.12500000000E+03  0.12500000000E+03 0.  0.
        -13    1    3    3    0    0 -0.30698624216E+02 -0.16328908349E+01 -0.60550648756E+01  0.31332839577E+02  0.10566000000E+00 0.  1.
         23    2    1    0    0    0  0.29174065978E+02 -0.13374327288E+02 -0.60233985175E+01  0.92346055586E+02  0.86380054970E+02 0.  0.
         13    1    3    3    0    0  0.59872690194E+02 -0.11741436453E+02  0.31666358097E-01  0.61013216010E+02  0.10566000000E+00 0. -1.
         22    1    1    0    0    0 -0.29174065978E+02  0.13374327288E+02  0.60233985175E+01  0.32653944414E+02  0.00000000000E+00 0. -1.
</event>
<event>
 5    1  0.1319298E-009  0.9118800E+02  0.7818608E-02  0.1130116E+00
         25   -1    0    0    0    0  0.00000000000E+00  0.00000000000E+00  0.99999998245E-14  0.12500000000E+03  0.12500000000E+03 0.  0.
        -13    1    3    3    0    0  0.45850223430E+02  0.59041639609E+00 -0.33953421176E+01  0.45979681298E+02  0.10566000000E+00 0.  1.
         23    2    1    0    0    0  0.51795791671E+01 -0.24832778267E+02 -0.15270822408E+02  0.95390999108E+02  0.90679379007E+02 0.  0.
         13    1    3    3    0    0 -0.40670644263E+02 -0.25423194663E+02 -0.11875480290E+02  0.49411317811E+02  0.10566000000E+00 0. -1.
         22    1    1    0    0    0 -0.51795791671E+01  0.24832778267E+02  0.15270822408E+02  0.29609000892E+02  0.00000000000E+00 0. -1.
</event>
<event>
 5    1  0.1319298E-009  0.9118800E+02  0.7818608E-02  0.1130116E+00
         25   -1    0    0    0    0  0.00000000000E+00  0.00000000000E+00  0.99999998245E-14  0.12500000000E+03  0.12500000000E+03 0.  0.
        -13    1    3    3    0    0  0.14926205640E+01  0.23436697958E+02 -0.55733549833E+02  0.60479306116E+02  0.10566000000E+00 0. -1.
         23    2    1    0    0    0  0.11933532314E+02  0.12046797800E+02 -0.26649058079E+02  0.93413502454E+02  0.87911180253E+02 0.  0.
         13    1    3    3    0    0  0.10440911750E+02 -0.11389900158E+02  0.29084491754E+02  0.32934196338E+02  0.10566000000E+00 0.  1.
         22    1    1    0    0    0 -0.11933532314E+02 -0.12046797800E+02  0.26649058079E+02  0.31586497546E+02  0.00000000000E+00 0. -1.
</event>
<event>
 5    1  0.1319298E-009  0.9118800E+02  0.7818608E-02  0.1130116E+00
         25   -1    0    0    0    0  0.00000000000E+00  0.00000000000E+00  0.99999998245E-14  0.12500000000E+03  0.12500000000E+03 0.  0.
        -13    1    3    3    0    0  0.30031812385E+02 -0.15241437385E+02  0.44606165650E+02  0.55892149240E+02  0.10566000000E+00 0. -1.
         23    2    1    0    0    0  0.34684720642E+02 -0.16442265961E+02  0.18586227407E+02  0.82352305980E+02  0.70449105708E+02 0.  0.
         13    1    3    3    0    0  0.46529082579E+01 -0.12008285766E+01 -0.26019938242E+02  0.26460156740E+02  0.10566000000E+00 0.  1.
         22    1    1    0    0    0 -0.34684720642E+02  0.16442265961E+02 -0.18586227407E+02  0.42647694020E+02  0.00000000000E+00 0. -1.
</event>
<event>
 5    1  0.1319298E-009  0.9118800E+02  0.7818608E-02  0.1130116E+00
         25   -1    0    0    0    0  0.00000000000E+00  0.00000000000E+00  0.99999998245E-14  0.12500000000E+03  0.12500000000E+03 0.  0.
        -13    1    3    3    0    0  0.45591634195E+02  0.73791911094E+01  0.28049850839E+02  0.54035681416E+02  0.10566000000E+00 0. -1.
         23    2    1    0    0    0  0.18997551177E+02  0.26346948969E+02  0.12771673286E+02  0.90097502822E+02  0.83062480733E+02 0.  0.
         13    1    3    3    0    0 -0.26594083017E+02  0.18967757860E+02 -0.15278177553E+02  0.36061821406E+02  0.10566000000E+00 0.  1.
         22    1    1    0    0    0 -0.18997551177E+02 -0.26346948969E+02 -0.12771673286E+02  0.34902497178E+02  0.00000000000E+00 0. -1.
</event>
<event>
 5    1  0.1319298E-009  0.9118800E+02  0.7818608E-02  0.1130116E+00
         25   -1    0    0    0    0  0.00000000000E+00  0.00000000000E+00  0.99999998245E-14  0.12500000000E+03  0.12500000000E+03 0.  0.
        -13    1    3    3    0    0 -0.41139877290E+02 -0.95390802788E+01 -0.33162414565E+02  0.53695814174E+02  0.10566000000E+00 0.  1.
         23    2    1    0    0    0 -0.38606307193E+00 -0.11702172549E+02 -0.27770964025E+02  0.94861713222E+02  0.89946808200E+02 0.  0.
         13    1    3    3    0    0  0.40753814218E+02 -0.21630922699E+01  0.53914505399E+01  0.41165899048E+02  0.10566000000E+00 0. -1.
         22    1    1    0    0    0  0.38606307193E+00  0.11702172549E+02  0.27770964025E+02  0.30138286778E+02  0.00000000000E+00 0. -1.
</event>
<event>
 5    1  0.1319298E-009  0.9118800E+02  0.7818608E-02  0.1130116E+00
         25   -1    0    0    0    0  0.00000000000E+00  0.00000000000E+00  0.99999998245E-14  0.12500000000E+03  0.12500000000E+03 0.  0.
        -13    1    3    3    0    0 -0.21992829021E+02 -0.56431912476E+02  0.87425418021E+01  0.61193859784E+02  0.10566000000E+00 0. -1.
         23    2    1    0    0    0 -0.18474398829E+02 -0.23488625572E+02  0.16779214276E+01  0.95069507794E+02  0.90235120372E+02 0.  0.
         13    1    3    3    0    0  0.35184301924E+01  0.32943286904E+02 -0.70646203745E+01  0.33875648010E+02  0.10566000000E+00 0.  1.
         22    1    1    0    0    0  0.18474398829E+02  0.23488625572E+02 -0.16779214276E+01  0.29930492206E+02  0.00000000000E+00 0. -1.
</event>
<event>
 5    1  0.1319298E-009  0.9118800E+02  0.7818608E-02  0.1130116E+00
         25   -1    0    0    0    0  0.00000000000E+00  0.00000000000E+00  0.99999998245E-14  0.12500000000E+03  0.12500000000E+03 0.  0.
        -13    1    3    3    0    0  0.95540288145E+01  0.55104427848E+02 -0.28243320902E+01  0.55997905772E+02  0.10566000000E+00 0.  1.
         23    2    1    0    0    0  0.76857410212E+01  0.22000144397E+02  0.18349357872E+02  0.95338983449E+02  0.90607647924E+02 0.  0.
         13    1    3    3    0    0 -0.18682877934E+01 -0.33104283452E+02  0.21173689962E+02  0.39341077677E+02  0.10566000000E+00 0. -1.
         22    1    1    0    0    0 -0.76857410212E+01 -0.22000144397E+02 -0.18349357872E+02  0.29661016551E+02  0.00000000000E+00 0. -1.
</event>
<event>
 5    1  0.1319298E-009  0.9118800E+02  0.7818608E-02  0.1130116E+00
         25   -1    0    0    0    0  0.00000000000E+00  0.00000000000E+00  0.99999998245E-14  0.12500000000E+03  0.12500000000E+03 0.  0.
        -13    1    3    3    0    0  0.31317228559E+02  0.17241942165E+02 -0.26073433114E+02  0.44248033319E+02  0.10566000000E+00 0.  1.
         23    2    1    0    0    0  0.11849371990E+02  0.64666984170E+00  0.22735087131E+02  0.99354142921E+02  0.95987164404E+02 0.  0.
         13    1    3    3    0    0 -0.19467856569E+02 -0.16595272323E+02  0.48808520245E+02  0.55106109602E+02  0.10566000000E+00 0. -1.
         22    1    1    0    0    0 -0.11849371990E+02 -0.64666984170E+00 -0.22735087131E+02  0.25645857079E+02  0.00000000000E+00 0.  1.
</event>
<event>
 5    1  0.1319298E-009  0.9118800E+02  0.7818608E-02  0.1130116E+00
         25   -1    0    0    0    0  0.00000000000E+00  0.00000000000E+00  0.99999998245E-14  0.12500000000E+03  0.12500000000E+03 0.  0.
        -13    1    3    3    0    0  0.45356729249E+02 -0.33501079831E+02 -0.24010711990E+02  0.61286872104E+02  0.10566000000E+00 0.  1.
         23    2    1    0    0    0  0.15971358478E+02 -0.22085371886E+02 -0.13975046761E+02  0.94370767640E+02  0.89261928671E+02 0.  0.
         13    1    3    3    0    0 -0.29385370771E+02  0.11415707945E+02  0.10035665229E+02  0.33083895536E+02  0.10566000000E+00 0. -1.
         22    1    1    0    0    0 -0.15971358478E+02  0.22085371886E+02  0.13975046761E+02  0.30629232360E+02  0.00000000000E+00 0.  1.
</event>
<event>
 5    1  0.1319298E-009  0.9118800E+02  0.7818608E-02  0.1130116E+00
         25   -1    0    0    0    0  0.00000000000E+00  0.00000000000E+00  0.99999998245E-14  0.12500000000E+03  0.12500000000E+03 0.  0.
        -13    1    3    3    0    0 -0.58589094139E+02 -0.16849032490E+02  0.58712673351E+01  0.61245855304E+02  0.10566000000E+00 0.  1.
         23    2    1    0    0    0 -0.27563540450E+02  0.71211069947E+00  0.54197079752E+01  0.96899660174E+02  0.92735726899E+02 0.  0.
         13    1    3    3    0    0  0.31025553688E+02  0.17561143189E+02 -0.45155935991E+00  0.35653804869E+02  0.10566000000E+00 0. -1.
         22    1    1    0    0    0  0.27563540450E+02 -0.71211069947E+00 -0.54197079752E+01  0.28100339826E+02  0.00000000000E+00 0.  1.
</event>
<event>
 5    1  0.1319298E-009  0.9118800E+02  0.7818608E-02  0.1130116E+00
         25   -1    0    0    0    0  0.00000000000E+00  0.00000000000E+00  0.99999998245E-14  0.12500000000E+03  0.12500000000E+03 0.  0.
        -13    1    3    3    0    0 -0.31094098719E+02  0.39644117311E+02 -0.14935458925E+02  0.52550719404E+02  0.10566000000E+00 0.  1.
         23    2    1    0    0    0 -0.10984864494E+02  0.22518892760E+02  0.17542903759E+02  0.94413708113E+02  0.89322041112E+02 0.  0.
         13    1    3    3    0    0  0.20109234225E+02 -0.17125224551E+02  0.32478362683E+02  0.41862988709E+02  0.10566000000E+00 0. -1.
         22    1    1    0    0    0  0.10984864494E+02 -0.22518892760E+02 -0.17542903759E+02  0.30586291887E+02  0.00000000000E+00 0.  1.
</event>
<event>
 5    1  0.1319298E-009  0.9118800E+02  0.7818608E-02  0.1130116E+00
         25   -1    0    0    0    0  0.00000000000E+00  0.00000000000E+00  0.99999998245E-14  0.12500000000E+03  0.12500000000E+03 0.  0.
        -13    1    3    3    0    0  0.26933429537E+02  0.96473906976E+01  0.15444448941E+02  0.32511904605E+02  0.10566000000E+00 0.  1.
         23    2    1    0    0    0 -0.14922223300E+02 -0.85245925771E+01 -0.25786962532E+02  0.94011149369E+02  0.88756900252E+02 0.  0.
         13    1    3    3    0    0 -0.41855652836E+02 -0.18171983275E+02 -0.41231411473E+02  0.61499244765E+02  0.10566000000E+00 0. -1.
         22    1    1    0    0    0  0.14922223300E+02  0.85245925771E+01  0.25786962532E+02  0.30988850631E+02  0.00000000000E+00 0. -1.
</event>
<event>
 5    1  0.1319298E-009  0.9118800E+02  0.7818608E-02  0.1130116E+00
         25   -1    0    0    0    0  0.00000000000E+00  0.00000000000E+00  0.99999998245E-14  0.12500000000E+03  0.12500000000E+03 0.  0.
        -13    1    3    3    0    0 -0.16232129732E+01  0.55343874626E+02 -0.26661090712E+02  0.61452454800E+02  0.10566000000E+00 0. -1.
         23    2    1    0    0    0 -0.24680851594E+01  0.29180202852E+02 -0.52990177876E+01  0.95240039107E+02  0.90471043858E+02 0.  0.
         13    1    3    3    0    0 -0.84487218620E+00 -0.26163671774E+02  0.21362072924E+02  0.33787584308E+02  0.10566000000E+00 0.  1.
         22    1    1    0    0    0  0.24680851594E+01 -0.29180202852E+02  0.52990177876E+01  0.29759960893E+02  0.00000000000E+00 0. -1.
</event>
<event>
 5    1  0.1319298E-009  0.9118800E+02  0.7818608E-02  0.1130116E+00
         25   -1    0    0    0    0  0.00000000000E+00  0.00000000000E+00  0.99999998245E-14  0.12500000000E+03  0.12500000000E+03 0.  0.
        -13    1    3    3    0    0  0.23776030284E+02  0.26773529827E+02 -0.20735698646E+02  0.41377552826E+02  0.10566000000E+00 0.  1.
         23    2    1    0    0    0 -0.15139184947E+02 -0.91478203642E+01 -0.24850602121E+02  0.94497049912E+02  0.89438596132E+02 0.  0.
         13    1    3    3    0    0 -0.38915215231E+02 -0.35921350192E+02 -0.41149034753E+01  0.53119497086E+02  0.10566000000E+00 0. -1.
         22    1    1    0    0    0  0.15139184947E+02  0.91478203642E+01  0.24850602121E+02  0.30502950088E+02  0.00000000000E+00 0.  1.
</event>
<event>
 5    1  0.1319298E-009  0.9118800E+02  0.7818608E-02  0.1130116E+00
         25   -1    0    0    0    0  0.00000000000E+00  0.00000000000E+00  0.99999998245E-14  0.12500000000E+03  0.12500000000E+03 0.  0.
        -13    1    3    3    0    0  0.68968748283E+01  0.25736910242E+01 -0.44032907950E+02  0.44644136395E+02  0.10566000000E+00 0.  1.
         23    2    1    0    0    0  0.26326697061E+02  0.10693893604E+02  0.32446039717E+01  0.96399618997E+02  0.92059245866E+02 0.  0.
         13    1    3    3    0    0  0.19429822232E+02  0.81202025802E+01  0.47277511921E+02  0.51755482603E+02  0.10566000000E+00 0. -1.
         22    1    1    0    0    0 -0.26326697061E+02 -0.10693893604E+02 -0.32446039717E+01  0.28600381003E+02  0.00000000000E+00 0. -1.
</event>
<event>
 5    1  0.1319298E-009  0.9118800E+02  0.7818608E-02  0.1130116E+00
         25   -1    0    0    0    0  0.00000000000E+00  0.00000000000E+00  0.99999998245E-14  0.12500000000E+03  0.12500000000E+03 0.  0.
        -13    1    3    3    0    0 -0.19727481440E+02  0.24034724429E+02 -0.34232631671E+02  0.46246359181E+02  0.10566000000E+00 0.  1.
         23    2    1    0    0    0 -0.17741401999E+01  0.23571761807E+02  0.13870337045E+02  0.97592669267E+02  0.93665187326E+02 0.  0.
         13    1    3    3    0    0  0.17953341240E+02 -0.46296262232E+00  0.48102968717E+02  0.51346310086E+02  0.10566000000E+00 0. -1.
         22    1    1    0    0    0  0.17741401999E+01 -0.23571761807E+02 -0.13870337045E+02  0.27407330733E+02  0.00000000000E+00 0. -1.
</event>
<event>
 5    1  0.1319298E-009  0.9118800E+02  0.7818608E-02  0.1130116E+00
         25   -1    0    0    0    0  0.00000000000E+00  0.00000000000E+00  0.99999998245E-14  0.12500000000E+03  0.12500000000E+03 0.  0.
        -13    1    3    3    0    0 -0.12528872775E+02 -0.43095566037E+02  0.27272032790E+02  0.52516429826E+02  0.10566000000E+00 0.  1.
         23    2    1    0    0    0 -0.31566879442E+01 -0.24392003496E+02 -0.12466577742E+02  0.97425553969E+02  0.93441899019E+02 0.  0.
         13    1    3    3    0    0  0.93721848306E+01  0.18703562541E+02 -0.39738610532E+02  0.44909124143E+02  0.10566000000E+00 0. -1.
         22    1    1    0    0    0  0.31566879442E+01  0.24392003496E+02  0.12466577742E+02  0.27574446031E+02  0.00000000000E+00 0.  1.
</event>
<event>
 5    1  0.1319298E-009  0.9118800E+02  0.7818608E-02  0.1130116E+00
         25   -1    0    0    0    0  0.00000000000E+00  0.00000000000E+00  0.99999998245E-14  0.12500000000E+03  0.12500000000E+03 0.  0.
        -13    1    3    3    0    0 -0.36372155126E+02 -0.87615668935E+01  0.31378599498E+02  0.48829564748E+02  0.10566000000E+00 0.  1.
         23    2    1    0    0    0  0.83454776880E+01 -0.86484137392E+01  0.28997206014E+02  0.93610829659E+02  0.88191311447E+02 0.  0.
         13    1    3    3    0    0  0.44717632814E+02  0.11315315421E+00 -0.23813934836E+01  0.44781264912E+02  0.10566000000E+00 0. -1.
         22    1    1    0    0    0 -0.83454776880E+01  0.86484137392E+01 -0.28997206014E+02  0.31389170341E+02  0.00000000000E+00 0. -1.
</event>
<event>
 5    1  0.1319298E-009  0.9118800E+02  0.7818608E-02  0.1130116E+00
         25   -1    0    0    0    0  0.00000000000E+00  0.00000000000E+00  0.99999998245E-14  0.12500000000E+03  0.12500000000E+03 0.  0.
        -13    1    3    3    0    0  0.33463333368E+02 -0.53114625466E+01 -0.14603822215E+02  0.36895651529E+02  0.10566000000E+00 0.  1.
         23    2    1    0    0    0 -0.16194326990E+02 -0.13950992859E+02  0.18109723973E+02  0.96984851761E+02  0.92850487023E+02 0.  0.
         13    1    3    3    0    0 -0.49657660358E+02 -0.86395303129E+01  0.32713546188E+02  0.60089200232E+02  0.10566000000E+00 0. -1.
         22    1    1    0    0    0  0.16194326990E+02  0.13950992859E+02 -0.18109723973E+02  0.28015148239E+02  0.00000000000E+00 0. -1.
</event>
<event>
 5    1  0.1319298E-009  0.9118800E+02  0.7818608E-02  0.1130116E+00
         25   -1    0    0    0    0  0.00000000000E+00  0.00000000000E+00  0.99999998245E-14  0.12500000000E+03  0.12500000000E+03 0.  0.
        -13    1    3    3    0    0  0.37358366951E+02  0.12909076675E+02  0.47702210859E+02  0.61950011515E+02  0.10566000000E+00 0. -1.
         23    2    1    0    0    0  0.20268673835E+02  0.88475582388E+01  0.17881739431E+02  0.96559623229E+02  0.92276247253E+02 0.  0.
         13    1    3    3    0    0 -0.17089693115E+02 -0.40615184360E+01 -0.29820471428E+02  0.34609611714E+02  0.10566000000E+00 0.  1.
         22    1    1    0    0    0 -0.20268673835E+02 -0.88475582388E+01 -0.17881739431E+02  0.28440376771E+02  0.00000000000E+00 0. -1.
</event>
<event>
 5    1  0.1319298E-009  0.9118800E+02  0.7818608E-02  0.1130116E+00
         25   -1    0    0    0    0  0.00000000000E+00  0.00000000000E+00  0.99999998245E-14  0.12500000000E+03  0.12500000000E+03 0.  0.
        -13    1    3    3    0    0  0.31705869801E+02  0.19399220856E+02  0.19939428955E+02  0.42180373881E+02  0.10566000000E+00 0. -1.
         23    2    1    0    0    0  0.13022539157E+01  0.14903848531E+02 -0.24548290053E+02  0.96252145979E+02  0.91858785615E+02 0.  0.
         13    1    3    3    0    0 -0.30403615886E+02 -0.44953723245E+01 -0.44487719007E+02  0.54071772098E+02  0.10566000000E+00 0.  1.
         22    1    1    0    0    0 -0.13022539157E+01 -0.14903848531E+02  0.24548290053E+02  0.28747854021E+02  0.00000000000E+00 0. -1.
</event>
<event>
 5    1  0.1319298E-009  0.9118800E+02  0.7818608E-02  0.1130116E+00
         25   -1    0    0    0    0  0.00000000000E+00  0.00000000000E+00  0.99999998245E-14  0.12500000000E+03  0.12500000000E+03 0.  0.
        -13    1    3    3    0    0  0.13076857623E+02  0.33706676628E+02 -0.19584016061E+02  0.41117990025E+02  0.10566000000E+00 0.  1.
         23    2    1    0    0    0 -0.26333643311E+02 -0.94611195822E+00 -0.16961839855E+02  0.93662164895E+02  0.88264042643E+02 0.  0.
         13    1    3    3    0    0 -0.39410500934E+02 -0.34652788586E+02  0.26221762065E+01  0.52544174870E+02  0.10566000000E+00 0. -1.
         22    1    1    0    0    0  0.26333643311E+02  0.94611195822E+00  0.16961839855E+02  0.31337835105E+02  0.00000000000E+00 0. -1.
</event>
<event>
 5    1  0.1319298E-009  0.9118800E+02  0.7818608E-02  0.1130116E+00
         25   -1    0    0    0    0  0.00000000000E+00  0.00000000000E+00  0.99999998245E-14  0.12500000000E+03  0.12500000000E+03 0.  0.
        -13    1    3    3    0    0 -0.28033592403E+02  0.35845265151E+02 -0.38526964095E+02  0.59624688369E+02  0.10566000000E+00 0.  1.
         23    2    1    0    0    0 -0.11668949143E+02  0.30254251986E+02 -0.13893938912E+02  0.89722164525E+02  0.82495703714E+02 0.  0.
         13    1    3    3    0    0  0.16364643260E+02 -0.55910131650E+01  0.24633025183E+02  0.30097476156E+02  0.10566000000E+00 0. -1.
         22    1    1    0    0    0  0.11668949143E+02 -0.30254251986E+02  0.13893938912E+02  0.35277835475E+02  0.00000000000E+00 0.  1.
</event>
<event>
 5    1  0.1319298E-009  0.9118800E+02  0.7818608E-02  0.1130116E+00
         25   -1    0    0    0    0  0.00000000000E+00  0.00000000000E+00  0.99999998245E-14  0.12500000000E+03  0.12500000000E+03 0.  0.
        -13    1    3    3    0    0 -0.31566632743E+02  0.10482740343E+02  0.36548712736E+01  0.33462059051E+02  0.10566000000E+00 0.  1.
         23    2    1    0    0    0  0.18891700408E+02 -0.19364242912E+02 -0.13800013163E+02  0.94630432812E+02  0.89624819124E+02 0.  0.
         13    1    3    3    0    0  0.50458333152E+02 -0.29846983255E+02 -0.17454884436E+02  0.61168373761E+02  0.10566000000E+00 0. -1.
         22    1    1    0    0    0 -0.18891700408E+02  0.19364242912E+02  0.13800013163E+02  0.30369567188E+02  0.00000000000E+00 0. -1.
</event>
<event>
 5    1  0.1319298E-009  0.9118800E+02  0.7818608E-02  0.1130116E+00
         25   -1    0    0    0    0  0.00000000000E+00  0.00000000000E+00  0.99999998245E-14  0.12500000000E+03  0.12500000000E+03 0.  0.
        -13    1    3    3    0    0 -0.84756932530E+01 -0.37435821771E+02 -0.97780789914E+01  0.39609343854E+02  0.10566000000E+00 0.  1.
         23    2    1    0    0    0  0.15093623111E+02  0.17213291117E+02 -0.11972365710E+02  0.99164900031E+02  0.95740404260E+02 0.  0.
         13    1    3    3    0    0  0.23569316364E+02  0.54649112888E+02 -0.21942867183E+01  0.59555556177E+02  0.10566000000E+00 0. -1.
         22    1    1    0    0    0 -0.15093623111E+02 -0.17213291117E+02  0.11972365710E+02  0.25835099969E+02  0.00000000000E+00 0. -1.
</event>
<event>
 5    1  0.1319298E-009  0.9118800E+02  0.7818608E-02  0.1130116E+00
         25   -1    0    0    0    0  0.00000000000E+00  0.00000000000E+00  0.99999998245E-14  0.12500000000E+03  0.12500000000E+03 0.  0.
        -13    1    3    3    0    0 -0.22252640767E+02  0.23256307155E+02  0.26401259862E+02  0.41630199734E+02  0.10566000000E+00 0.  1.
         23    2    1    0    0    0  0.14144632345E+02 -0.15731029513E+02  0.20920585997E+02  0.95247574348E+02  0.90481454382E+02 0.  0.
         13    1    3    3    0    0  0.36397273112E+02 -0.38987336668E+02 -0.54806738646E+01  0.53617374614E+02  0.10566000000E+00 0. -1.
         22    1    1    0    0    0 -0.14144632345E+02  0.15731029513E+02 -0.20920585997E+02  0.29752425652E+02  0.00000000000E+00 0. -1.
</event>
<event>
 5    1  0.1319298E-009  0.9118800E+02  0.7818608E-02  0.1130116E+00
         25   -1    0    0    0    0  0.00000000000E+00  0.00000000000E+00  0.99999998245E-14  0.12500000000E+03  0.12500000000E+03 0.  0.
        -13    1    3    3    0    0  0.42557980510E+02 -0.80652848858E+01 -0.25978431896E+02  0.50508619197E+02  0.10566000000E+00 0. -1.
         23    2    1    0    0    0  0.30298985019E+02  0.21758759537E+02 -0.10682014447E+02  0.86198227586E+02  0.76971143272E+02 0.  0.
         13    1    3    3    0    0 -0.12258995490E+02  0.29824044423E+02  0.15296417449E+02  0.35689608390E+02  0.10566000000E+00 0.  1.
         22    1    1    0    0    0 -0.30298985019E+02 -0.21758759537E+02  0.10682014447E+02  0.38801772414E+02  0.00000000000E+00 0. -1.
</event>
<event>
 5    1  0.1319298E-009  0.9118800E+02  0.7818608E-02  0.1130116E+00
         25   -1    0    0    0    0  0.00000000000E+00  0.00000000000E+00  0.99999998245E-14  0.12500000000E+03  0.12500000000E+03 0.  0.
        -13    1    3    3    0    0 -0.27209580337E+01 -0.28929303264E+02  0.18430566115E+02  0.34409375631E+02  0.10566000000E+00 0.  1.
         23    2    1    0    0    0  0.34024569508E+01  0.28587352914E+02 -0.29140345254E+01  0.96063776038E+02  0.91602096098E+02 0.  0.
         13    1    3    3    0    0  0.61234149844E+01  0.57516656179E+02 -0.21344600640E+02  0.61654400407E+02  0.10566000000E+00 0. -1.
         22    1    1    0    0    0 -0.34024569508E+01 -0.28587352914E+02  0.29140345254E+01  0.28936223962E+02  0.00000000000E+00 0. -1.
</event>
<event>
 5    1  0.1319298E-009  0.9118800E+02  0.7818608E-02  0.1130116E+00
         25   -1    0    0    0    0  0.00000000000E+00  0.00000000000E+00  0.99999998245E-14  0.12500000000E+03  0.12500000000E+03 0.  0.
        -13    1    3    3    0    0  0.26810355129E+02 -0.26696895278E+02 -0.47057376381E+02  0.60381513690E+02  0.10566000000E+00 0. -1.
         23    2    1    0    0    0  0.11757083343E+01 -0.12568927445E+02 -0.24866370219E+02  0.97112787965E+02  0.93022561733E+02 0.  0.
         13    1    3    3    0    0 -0.25634646794E+02  0.14127967833E+02  0.22191006162E+02  0.36731274275E+02  0.10566000000E+00 0.  1.
         22    1    1    0    0    0 -0.11757083343E+01  0.12568927445E+02  0.24866370219E+02  0.27887212035E+02  0.00000000000E+00 0. -1.
</event>
<event>
 5    1  0.1319298E-009  0.9118800E+02  0.7818608E-02  0.1130116E+00
         25   -1    0    0    0    0  0.00000000000E+00  0.00000000000E+00  0.99999998245E-14  0.12500000000E+03  0.12500000000E+03 0.  0.
        -13    1    3    3    0    0 -0.45084189702E+02 -0.19584782848E+02  0.15838903357E+02  0.51643294859E+02  0.10566000000E+00 0. -1.
         23    2    1    0    0    0 -0.46671206044E+01 -0.28269973666E+02 -0.11176073806E+01  0.96325578087E+02  0.91958656589E+02 0.  0.
         13    1    3    3    0    0  0.40417069098E+02 -0.86851908177E+01 -0.16956510738E+02  0.44682283227E+02  0.10566000000E+00 0.  1.
         22    1    1    0    0    0  0.46671206044E+01  0.28269973666E+02  0.11176073806E+01  0.28674421913E+02  0.00000000000E+00 0. -1.
</event>
<event>
 5    1  0.1319298E-009  0.9118800E+02  0.7818608E-02  0.1130116E+00
         25   -1    0    0    0    0  0.00000000000E+00  0.00000000000E+00  0.99999998245E-14  0.12500000000E+03  0.12500000000E+03 0.  0.
        -13    1    3    3    0    0 -0.34590828381E+02 -0.12627536178E+02  0.15348681570E+01  0.36855760233E+02  0.10566000000E+00 0.  1.
         23    2    1    0    0    0  0.23274075557E+02 -0.11144294239E+02  0.13370146025E+02  0.95937331646E+02  0.91429387571E+02 0.  0.
         13    1    3    3    0    0  0.57864903938E+02  0.14832419390E+01  0.11835277868E+02  0.59081571413E+02  0.10566000000E+00 0. -1.
         22    1    1    0    0    0 -0.23274075557E+02  0.11144294239E+02 -0.13370146025E+02  0.29062668354E+02  0.00000000000E+00 0. -1.
</event>
<event>
 5    1  0.1319298E-009  0.9118800E+02  0.7818608E-02  0.1130116E+00
         25   -1    0    0    0    0  0.00000000000E+00  0.00000000000E+00  0.99999998245E-14  0.12500000000E+03  0.12500000000E+03 0.  0.
        -13    1    3    3    0    0 -0.56140344690E+02 -0.45787276313E+01  0.23295552440E+02  0.60954056274E+02  0.10566000000E+00 0.  1.
         23    2    1    0    0    0 -0.26174418610E+02  0.76865262292E+01  0.10560872602E+02  0.95747394900E+02  0.91169340927E+02 0.  0.
         13    1    3    3    0    0  0.29965926081E+02  0.12265253860E+02 -0.12734679839E+02  0.34793338626E+02  0.10566000000E+00 0. -1.
         22    1    1    0    0    0  0.26174418610E+02 -0.76865262292E+01 -0.10560872602E+02  0.29252605100E+02  0.00000000000E+00 0.  1.
</event>
<event>
 5    1  0.1319298E-009  0.9118800E+02  0.7818608E-02  0.1130116E+00
         25   -1    0    0    0    0  0.00000000000E+00  0.00000000000E+00  0.99999998245E-14  0.12500000000E+03  0.12500000000E+03 0.  0.
        -13    1    3    3    0    0 -0.51431554336E+02  0.32113614212E+02  0.56544384304E+01  0.60897231770E+02  0.10566000000E+00 0. -1.
         23    2    1    0    0    0 -0.27260107885E+02  0.69117076755E+01  0.75908333392E+01  0.95870874787E+02  0.91338484205E+02 0.  0.
         13    1    3    3    0    0  0.24171446452E+02 -0.25201906536E+02  0.19363949088E+01  0.34973643017E+02  0.10566000000E+00 0.  1.
         22    1    1    0    0    0  0.27260107885E+02 -0.69117076755E+01 -0.75908333392E+01  0.29129125213E+02  0.00000000000E+00 0. -1.
</event>
<event>
 5    1  0.1319298E-009  0.9118800E+02  0.7818608E-02  0.1130116E+00
         25   -1    0    0    0    0  0.00000000000E+00  0.00000000000E+00  0.99999998245E-14  0.12500000000E+03  0.12500000000E+03 0.  0.
        -13    1    3    3    0    0 -0.69926798912E+01 -0.29454417861E+02  0.23196048506E+02  0.38138276494E+02  0.10566000000E+00 0. -1.
         23    2    1    0    0    0 -0.19242299228E+02  0.21996003745E+02  0.29113729370E+00  0.95773727209E+02  0.91205437350E+02 0.  0.
         13    1    3    3    0    0 -0.12249619337E+02  0.51450421607E+02 -0.22904911212E+02  0.57635450715E+02  0.10566000000E+00 0.  1.
         22    1    1    0    0    0  0.19242299228E+02 -0.21996003745E+02 -0.29113729370E+00  0.29226272791E+02  0.00000000000E+00 0.  1.
</event>
<event>
 4    1  0.1319298E-009  0.9118800E+02  0.7818608E-02  0.1130116E+00
         25   -1    0    0    0    0  0.00000000000E+00  0.00000000000E+00  0.99999998245E-14  0.12500000000E+03  0.12500000000E+03 0.  0.
        -13    1    1    0    0    0 -0.18886760491E+02  0.43875616623E+02 -0.37656595500E+02  0.60826061885E+02  0.10566000000E+00 0.  1.
         13    1    1    0    0    0  0.61393893847E+01 -0.15969447210E+01  0.10694377012E+02  0.12434757665E+02  0.10566000000E+00 0. -1.
         22    1    1    0    0    0  0.12747371106E+02 -0.42278671901E+02  0.26962218487E+02  0.51739180450E+02  0.00000000000E+00 0.  1.
</event>
<event>
 5    1  0.1319298E-009  0.9118800E+02  0.7818608E-02  0.1130116E+00
         25   -1    0    0    0    0  0.00000000000E+00  0.00000000000E+00  0.99999998245E-14  0.12500000000E+03  0.12500000000E+03 0.  0.
        -13    1    3    3    0    0 -0.35640586145E+02  0.25249852280E+02  0.14007366394E+02  0.45869640268E+02  0.10566000000E+00 0. -1.
         23    2    1    0    0    0 -0.23583740261E+02 -0.11768751858E+02 -0.15230772557E+02  0.94558699803E+02  0.89524716982E+02 0.  0.
         13    1    3    3    0    0  0.12056845884E+02 -0.37018604138E+02 -0.29238138952E+02  0.48689059535E+02  0.10566000000E+00 0.  1.
         22    1    1    0    0    0  0.23583740261E+02  0.11768751858E+02  0.15230772557E+02  0.30441300197E+02  0.00000000000E+00 0.  1.
</event>
<event>
 5    1  0.1319298E-009  0.9118800E+02  0.7818608E-02  0.1130116E+00
         25   -1    0    0    0    0  0.00000000000E+00  0.00000000000E+00  0.99999998245E-14  0.12500000000E+03  0.12500000000E+03 0.  0.
        -13    1    3    3    0    0  0.53176022106E+02  0.30584615616E+01 -0.26000454493E+01  0.53327431164E+02  0.10566000000E+00 0.  1.
         23    2    1    0    0    0  0.23317357405E+02  0.74016351181E+01 -0.24319552680E+02  0.90504724942E+02  0.83673061589E+02 0.  0.
         13    1    3    3    0    0 -0.29858664702E+02  0.43431735564E+01 -0.21719507230E+02  0.37177293778E+02  0.10566000000E+00 0. -1.
         22    1    1    0    0    0 -0.23317357405E+02 -0.74016351181E+01  0.24319552680E+02  0.34495275058E+02  0.00000000000E+00 0.  1.
</event>
<event>
 5    1  0.1319298E-009  0.9118800E+02  0.7818608E-02  0.1130116E+00
         25   -1    0    0    0    0  0.00000000000E+00  0.00000000000E+00  0.99999998245E-14  0.12500000000E+03  0.12500000000E+03 0.  0.
        -13    1    3    3    0    0  0.33496368379E+02  0.62544047464E+01  0.45924544968E+02  0.57185656137E+02  0.10566000000E+00 0.  1.
         23    2    1    0    0    0  0.13468776637E+01  0.12965908206E+02  0.26817678604E+02  0.95181939353E+02  0.90390734250E+02 0.  0.
         13    1    3    3    0    0 -0.32149490715E+02  0.67115034596E+01 -0.19106866363E+02  0.37996283216E+02  0.10566000000E+00 0. -1.
         22    1    1    0    0    0 -0.13468776637E+01 -0.12965908206E+02 -0.26817678604E+02  0.29818060647E+02  0.00000000000E+00 0.  1.
</event>
<event>
 5    1  0.1319298E-009  0.9118800E+02  0.7818608E-02  0.1130116E+00
         25   -1    0    0    0    0  0.00000000000E+00  0.00000000000E+00  0.99999998245E-14  0.12500000000E+03  0.12500000000E+03 0.  0.
        -13    1    3    3    0    0 -0.24870840659E+02  0.19441771196E+02 -0.27385224322E+02  0.41791181576E+02  0.10566000000E+00 0. -1.
         23    2    1    0    0    0  0.23734533639E+02  0.42147898355E+01 -0.20820774845E+02  0.93147257487E+02  0.87531790635E+02 0.  0.
         13    1    3    3    0    0  0.48605374298E+02 -0.15226981361E+02  0.65644494766E+01  0.51356075911E+02  0.10566000000E+00 0.  1.
         22    1    1    0    0    0 -0.23734533639E+02 -0.42147898355E+01  0.20820774845E+02  0.31852742513E+02  0.00000000000E+00 0.  1.
</event>
<event>
 5    1  0.1319298E-009  0.9118800E+02  0.7818608E-02  0.1130116E+00
         25   -1    0    0    0    0  0.00000000000E+00  0.00000000000E+00  0.99999998245E-14  0.12500000000E+03  0.12500000000E+03 0.  0.
        -13    1    3    3    0    0  0.26684846191E+02  0.24520325754E+02  0.25141778802E+02  0.44107228395E+02  0.10566000000E+00 0. -1.
         23    2    1    0    0    0 -0.20156459100E+02  0.92593531717E+01  0.22441975915E+02  0.93445907594E+02  0.87957244718E+02 0.  0.
         13    1    3    3    0    0 -0.46841305290E+02 -0.15260972582E+02 -0.26998028871E+01  0.49338679199E+02  0.10566000000E+00 0.  1.
         22    1    1    0    0    0  0.20156459100E+02 -0.92593531717E+01 -0.22441975915E+02  0.31554092406E+02  0.00000000000E+00 0.  1.
</event>
<event>
 5    1  0.1319298E-009  0.9118800E+02  0.7818608E-02  0.1130116E+00
         25   -1    0    0    0    0  0.00000000000E+00  0.00000000000E+00  0.99999998245E-14  0.12500000000E+03  0.12500000000E+03 0.  0.
        -13    1    3    3    0    0  0.38544141218E+02 -0.20339901842E+02 -0.32186369025E+02  0.54178740703E+02  0.10566000000E+00 0.  1.
         23    2    1    0    0    0  0.17422114903E+02  0.12786142784E+02 -0.20612874337E+02  0.95135202605E+02  0.90326079575E+02 0.  0.
         13    1    3    3    0    0 -0.21122026315E+02  0.33126044626E+02  0.11573494688E+02  0.40956461902E+02  0.10566000000E+00 0. -1.
         22    1    1    0    0    0 -0.17422114903E+02 -0.12786142784E+02  0.20612874337E+02  0.29864797395E+02  0.00000000000E+00 0. -1.
</event>
<event>
 5    1  0.1319298E-009  0.9118800E+02  0.7818608E-02  0.1130116E+00
         25   -1    0    0    0    0  0.00000000000E+00  0.00000000000E+00  0.99999998245E-14  0.12500000000E+03  0.12500000000E+03 0.  0.
        -13    1    3    3    0    0 -0.13031806456E+02  0.18685597913E+02  0.28673644698E+02  0.36621968997E+02  0.10566000000E+00 0.  1.
         23    2    1    0    0    0  0.30630448626E+02  0.78371345224E+00 -0.41144963472E+01  0.94084507605E+02  0.88860153620E+02 0.  0.
         13    1    3    3    0    0  0.43662255082E+02 -0.17901884461E+02 -0.32788141045E+02  0.57462538609E+02  0.10566000000E+00 0. -1.
         22    1    1    0    0    0 -0.30630448626E+02 -0.78371345224E+00  0.41144963472E+01  0.30915492395E+02  0.00000000000E+00 0. -1.
</event>
<event>
 5    1  0.1319298E-009  0.9118800E+02  0.7818608E-02  0.1130116E+00
         25   -1    0    0    0    0  0.00000000000E+00  0.00000000000E+00  0.99999998245E-14  0.12500000000E+03  0.12500000000E+03 0.  0.
        -13    1    3    3    0    0  0.24973707532E+02  0.13814521637E+02 -0.36504745278E+02  0.46337184504E+02  0.10566000000E+00 0. -1.
         23    2    1    0    0    0 -0.20786493726E+02  0.95661936870E+01 -0.18027275296E+02  0.95869723007E+02  0.91336907939E+02 0.  0.
         13    1    3    3    0    0 -0.45760201258E+02 -0.42483279497E+01  0.18477469982E+02  0.49532538503E+02  0.10566000000E+00 0.  1.
         22    1    1    0    0    0  0.20786493726E+02 -0.95661936870E+01  0.18027275296E+02  0.29130276993E+02  0.00000000000E+00 0.  1.
</event>
<event>
 5    1  0.1319298E-009  0.9118800E+02  0.7818608E-02  0.1130116E+00
         25   -1    0    0    0    0  0.00000000000E+00  0.00000000000E+00  0.99999998245E-14  0.12500000000E+03  0.12500000000E+03 0.  0.
        -13    1    3    3    0    0  0.10534063024E+01  0.42064409324E+01  0.33863155389E+02  0.34139834022E+02  0.10566000000E+00 0. -1.
         23    2    1    0    0    0 -0.12532521919E+02  0.11580038941E+02 -0.24850979015E+02  0.94854808584E+02  0.89937212242E+02 0.  0.
         13    1    3    3    0    0 -0.13585928222E+02  0.73735980084E+01 -0.58714134403E+02  0.60714974562E+02  0.10566000000E+00 0.  1.
         22    1    1    0    0    0  0.12532521919E+02 -0.11580038941E+02  0.24850979015E+02  0.30145191416E+02  0.00000000000E+00 0.  1.
</event>
<event>
 5    1  0.1319298E-009  0.9118800E+02  0.7818608E-02  0.1130116E+00
         25   -1    0    0    0    0  0.00000000000E+00  0.00000000000E+00  0.99999998245E-14  0.12500000000E+03  0.12500000000E+03 0.  0.
        -13    1    3    3    0    0  0.46730543803E+02  0.34955723209E+01  0.33294937805E+02  0.57485013677E+02  0.10566000000E+00 0.  1.
         23    2    1    0    0    0  0.34133387546E+02 -0.61715905249E+01  0.49679200582E+01  0.89959210844E+02  0.82854104974E+02 0.  0.
         13    1    3    3    0    0 -0.12597156257E+02 -0.96671628458E+01 -0.28327017746E+02  0.32474197168E+02  0.10566000000E+00 0. -1.
         22    1    1    0    0    0 -0.34133387546E+02  0.61715905249E+01 -0.49679200582E+01  0.35040789156E+02  0.00000000000E+00 0.  1.
</event>
<event>
 5    1  0.1319298E-009  0.9118800E+02  0.7818608E-02  0.1130116E+00
         25   -1    0    0    0    0  0.00000000000E+00  0.00000000000E+00  0.99999998245E-14  0.12500000000E+03  0.12500000000E+03 0.  0.
        -13    1    3    3    0    0 -0.88716782357E+01 -0.33759246980E+02  0.17579840949E+02  0.39082673951E+02  0.10566000000E+00 0.  1.
         23    2    1    0    0    0 -0.41072447145E+01  0.22286403409E+02 -0.81250318133E+01  0.10092575280E+03  0.98012439013E+02 0.  0.
         13    1    3    3    0    0  0.47644335212E+01  0.56045650389E+02 -0.25704872762E+02  0.61843078853E+02  0.10566000000E+00 0. -1.
         22    1    1    0    0    0  0.41072447145E+01 -0.22286403409E+02  0.81250318133E+01  0.24074247195E+02  0.00000000000E+00 0. -1.
</event>
<event>
 5    1  0.1319298E-009  0.9118800E+02  0.7818608E-02  0.1130116E+00
         25   -1    0    0    0    0  0.00000000000E+00  0.00000000000E+00  0.99999998245E-14  0.12500000000E+03  0.12500000000E+03 0.  0.
        -13    1    3    3    0    0  0.36958328871E+00 -0.36147135882E+02 -0.12218100279E+02  0.38158159844E+02  0.10566000000E+00 0.  1.
         23    2    1    0    0    0 -0.19733955010E+02  0.39252224934E+01  0.22466096499E+02  0.94841056983E+02  0.89918097432E+02 0.  0.
         13    1    3    3    0    0 -0.20103538299E+02  0.40072358375E+02  0.34684196778E+02  0.56682897139E+02  0.10566000000E+00 0. -1.
         22    1    1    0    0    0  0.19733955010E+02 -0.39252224934E+01 -0.22466096499E+02  0.30158943017E+02  0.00000000000E+00 0. -1.
</event>
<event>
 5    1  0.1319298E-009  0.9118800E+02  0.7818608E-02  0.1130116E+00
         25   -1    0    0    0    0  0.00000000000E+00  0.00000000000E+00  0.99999998245E-14  0.12500000000E+03  0.12500000000E+03 0.  0.
        -13    1    3    3    0    0 -0.28670177302E+02 -0.46300482154E+02  0.68395479963E+01  0.54886285127E+02  0.10566000000E+00 0.  1.
         23    2    1    0    0    0 -0.12091096630E+02 -0.20112892120E+02 -0.18656660500E+02  0.95020106269E+02  0.90166659954E+02 0.  0.
         13    1    3    3    0    0  0.16579080672E+02  0.26187590034E+02 -0.25496208496E+02  0.40133821142E+02  0.10566000000E+00 0. -1.
         22    1    1    0    0    0  0.12091096630E+02  0.20112892120E+02  0.18656660500E+02  0.29979893731E+02  0.00000000000E+00 0.  1.
</event>
<event>
 5    1  0.1319298E-009  0.9118800E+02  0.7818608E-02  0.1130116E+00
         25   -1    0    0    0    0  0.00000000000E+00  0.00000000000E+00  0.99999998245E-14  0.12500000000E+03  0.12500000000E+03 0.  0.
        -13    1    3    3    0    0  0.32579879593E+02 -0.11281523648E+02 -0.26417582843E+02  0.43435252703E+02  0.10566000000E+00 0.  1.
         23    2    1    0    0    0 -0.17909399762E+02 -0.17506500832E+02 -0.15754191740E+02  0.95412524126E+02  0.90709046029E+02 0.  0.
         13    1    3    3    0    0 -0.50489279354E+02 -0.62249771840E+01  0.10663391103E+02  0.51977271422E+02  0.10566000000E+00 0. -1.
         22    1    1    0    0    0  0.17909399762E+02  0.17506500832E+02  0.15754191740E+02  0.29587475874E+02  0.00000000000E+00 0.  1.
</event>
<event>
 5    1  0.1319298E-009  0.9118800E+02  0.7818608E-02  0.1130116E+00
         25   -1    0    0    0    0  0.00000000000E+00  0.00000000000E+00  0.99999998245E-14  0.12500000000E+03  0.12500000000E+03 0.  0.
        -13    1    3    3    0    0 -0.38246419513E+02  0.22237480985E+02 -0.15226269806E+01  0.44267637424E+02  0.10566000000E+00 0. -1.
         23    2    1    0    0    0 -0.50229318115E+01 -0.14931554770E+02 -0.21813930114E+02  0.98092218247E+02  0.94329499956E+02 0.  0.
         13    1    3    3    0    0  0.33223487701E+02 -0.37169035754E+02 -0.20291303133E+02  0.53824580824E+02  0.10566000000E+00 0.  1.
         22    1    1    0    0    0  0.50229318115E+01  0.14931554770E+02  0.21813930114E+02  0.26907781753E+02  0.00000000000E+00 0.  1.
</event>
<event>
 5    1  0.1319298E-009  0.9118800E+02  0.7818608E-02  0.1130116E+00
         25   -1    0    0    0    0  0.00000000000E+00  0.00000000000E+00  0.99999998245E-14  0.12500000000E+03  0.12500000000E+03 0.  0.
        -13    1    3    3    0    0  0.60775955034E+01 -0.32379294708E+02  0.28196504232E+01  0.33065351736E+02  0.10566000000E+00 0. -1.
         23    2    1    0    0    0 -0.80663142705E+01  0.26687553206E+02 -0.10434369248E+02  0.95231443037E+02  0.90459166253E+02 0.  0.
         13    1    3    3    0    0 -0.14143909774E+02  0.59066847914E+02 -0.13254019671E+02  0.62166091301E+02  0.10566000000E+00 0.  1.
         22    1    1    0    0    0  0.80663142705E+01 -0.26687553206E+02  0.10434369248E+02  0.29768556963E+02  0.00000000000E+00 0.  1.
</event>
<event>
 5    1  0.1319298E-009  0.9118800E+02  0.7818608E-02  0.1130116E+00
         25   -1    0    0    0    0  0.00000000000E+00  0.00000000000E+00  0.99999998245E-14  0.12500000000E+03  0.12500000000E+03 0.  0.
        -13    1    3    3    0    0 -0.42931712841E+02  0.23157515634E+02  0.84174931481E+01  0.49500180330E+02  0.10566000000E+00 0.  1.
         23    2    1    0    0    0 -0.11466635355E+02  0.28167203414E+01  0.30014530677E+02  0.92746477841E+02  0.86957572760E+02 0.  0.
         13    1    3    3    0    0  0.31465077486E+02 -0.20340795293E+02  0.21597037529E+02  0.43246297511E+02  0.10566000000E+00 0. -1.
         22    1    1    0    0    0  0.11466635355E+02 -0.28167203414E+01 -0.30014530677E+02  0.32253522159E+02  0.00000000000E+00 0.  1.
</event>
<event>
 5    1  0.1319298E-009  0.9118800E+02  0.7818608E-02  0.1130116E+00
         25   -1    0    0    0    0  0.00000000000E+00  0.00000000000E+00  0.99999998245E-14  0.12500000000E+03  0.12500000000E+03 0.  0.
        -13    1    3    3    0    0 -0.41381530220E+02 -0.19094452807E+02 -0.37121202982E+01  0.45725487121E+02  0.10566000000E+00 0. -1.
         23    2    1    0    0    0 -0.39983258259E+01  0.21157521040E+01 -0.29037011187E+02  0.95612740260E+02  0.90984532009E+02 0.  0.
         13    1    3    3    0    0  0.37383204394E+02  0.21210204911E+02 -0.25324890889E+02  0.49887253138E+02  0.10566000000E+00 0.  1.
         22    1    1    0    0    0  0.39983258259E+01 -0.21157521040E+01  0.29037011187E+02  0.29387259740E+02  0.00000000000E+00 0.  1.
</event>
<event>
 5    1  0.1319298E-009  0.9118800E+02  0.7818608E-02  0.1130116E+00
         25   -1    0    0    0    0  0.00000000000E+00  0.00000000000E+00  0.99999998245E-14  0.12500000000E+03  0.12500000000E+03 0.  0.
        -13    1    3    3    0    0 -0.42557959254E+02  0.79118914396E+01  0.25201172465E+02  0.50088802937E+02  0.10566000000E+00 0.  1.
         23    2    1    0    0    0 -0.20284979033E+02 -0.22186961325E+02  0.52371171416E+00  0.94933142812E+02  0.90046019917E+02 0.  0.
         13    1    3    3    0    0  0.22272980220E+02 -0.30098852765E+02 -0.24677460751E+02  0.44844339875E+02  0.10566000000E+00 0. -1.
         22    1    1    0    0    0  0.20284979033E+02  0.22186961325E+02 -0.52371171416E+00  0.30066857188E+02  0.00000000000E+00 0. -1.
</event>
<event>
 5    1  0.1319298E-009  0.9118800E+02  0.7818608E-02  0.1130116E+00
         25   -1    0    0    0    0  0.00000000000E+00  0.00000000000E+00  0.99999998245E-14  0.12500000000E+03  0.12500000000E+03 0.  0.
        -13    1    3    3    0    0 -0.28403614243E+02 -0.48719833703E+02 -0.23277113037E+02  0.61010020927E+02  0.10566000000E+00 0.  1.
         23    2    1    0    0    0 -0.83378110245E+01 -0.18249898009E+02 -0.18322138278E+02  0.97828716978E+02  0.93979674635E+02 0.  0.
         13    1    3    3    0    0  0.20065803219E+02  0.30469935694E+02  0.49549747593E+01  0.36818696051E+02  0.10566000000E+00 0. -1.
         22    1    1    0    0    0  0.83378110245E+01  0.18249898009E+02  0.18322138278E+02  0.27171283022E+02  0.00000000000E+00 0.  1.
</event>
<event>
 5    1  0.1319298E-009  0.9118800E+02  0.7818608E-02  0.1130116E+00
         25   -1    0    0    0    0  0.00000000000E+00  0.00000000000E+00  0.99999998245E-14  0.12500000000E+03  0.12500000000E+03 0.  0.
        -13    1    3    3    0    0  0.43345080906E+01  0.70941358142E+01  0.25598137637E+02  0.26914504228E+02  0.10566000000E+00 0. -1.
         23    2    1    0    0    0 -0.52899884284E+01 -0.44443113805E+01 -0.34988117917E+02  0.89336233001E+02  0.81908841099E+02 0.  0.
         13    1    3    3    0    0 -0.96244965189E+01 -0.11538447195E+02 -0.60586255554E+02  0.62421728773E+02  0.10566000000E+00 0.  1.
         22    1    1    0    0    0  0.52899884284E+01  0.44443113805E+01  0.34988117917E+02  0.35663766999E+02  0.00000000000E+00 0.  1.
</event>
<event>
 5    1  0.1319298E-009  0.9118800E+02  0.7818608E-02  0.1130116E+00
         25   -1    0    0    0    0  0.00000000000E+00  0.00000000000E+00  0.99999998245E-14  0.12500000000E+03  0.12500000000E+03 0.  0.
        -13    1    3    3    0    0  0.20838660259E+02 -0.57045711794E+02  0.10671898471E+02  0.61663308186E+02  0.10566000000E+00 0. -1.
         23    2    1    0    0    0  0.32145286218E+01 -0.27645233565E+02  0.15964991718E+01  0.97122752239E+02  0.93035950362E+02 0.  0.
         13    1    3    3    0    0 -0.17624131637E+02  0.29400478229E+02 -0.90753992989E+01  0.35459444053E+02  0.10566000000E+00 0.  1.
         22    1    1    0    0    0 -0.32145286218E+01  0.27645233565E+02 -0.15964991718E+01  0.27877247761E+02  0.00000000000E+00 0. -1.
</event>
<event>
 5    1  0.1319298E-009  0.9118800E+02  0.7818608E-02  0.1130116E+00
         25   -1    0    0    0    0  0.00000000000E+00  0.00000000000E+00  0.99999998245E-14  0.12500000000E+03  0.12500000000E+03 0.  0.
        -13    1    3    3    0    0  0.84713357591E+01 -0.35980218667E+02  0.47620099881E+02  0.60282872705E+02  0.10566000000E+00 0. -1.
         23    2    1    0    0    0  0.15188255167E+02 -0.13364430390E+02  0.21702686216E+02  0.95330189018E+02  0.90595514539E+02 0.  0.
         13    1    3    3    0    0  0.67169194082E+01  0.22615788277E+02 -0.25917413664E+02  0.35047316314E+02  0.10566000000E+00 0.  1.
         22    1    1    0    0    0 -0.15188255167E+02  0.13364430390E+02 -0.21702686216E+02  0.29669810982E+02  0.00000000000E+00 0. -1.
</event>
<event>
 5    1  0.1319298E-009  0.9118800E+02  0.7818608E-02  0.1130116E+00
         25   -1    0    0    0    0  0.00000000000E+00  0.00000000000E+00  0.99999998245E-14  0.12500000000E+03  0.12500000000E+03 0.  0.
        -13    1    3    3    0    0  0.48693474768E+02  0.29765481015E+01 -0.35620614207E+02  0.60404914072E+02  0.10566000000E+00 0. -1.
         23    2    1    0    0    0  0.15032971435E+02  0.30036627469E+01 -0.24950389956E+02  0.95716315481E+02  0.91126718751E+02 0.  0.
         13    1    3    3    0    0 -0.33660503333E+02  0.27114645441E-01  0.10670224252E+02  0.35311401409E+02  0.10566000000E+00 0.  1.
         22    1    1    0    0    0 -0.15032971435E+02 -0.30036627469E+01  0.24950389956E+02  0.29283684519E+02  0.00000000000E+00 0. -1.
</event>
<event>
 5    1  0.1319298E-009  0.9118800E+02  0.7818608E-02  0.1130116E+00
         25   -1    0    0    0    0  0.00000000000E+00  0.00000000000E+00  0.99999998245E-14  0.12500000000E+03  0.12500000000E+03 0.  0.
        -13    1    3    3    0    0 -0.33982110008E+02 -0.16444061884E+01  0.49385809450E+01  0.34378606983E+02  0.10566000000E+00 0.  1.
         23    2    1    0    0    0  0.26485089228E+02 -0.82733820361E+01  0.10204821386E+02  0.95435711047E+02  0.90740992731E+02 0.  0.
         13    1    3    3    0    0  0.60467199237E+02 -0.66289758477E+01  0.52662404407E+01  0.61057104064E+02  0.10566000000E+00 0. -1.
         22    1    1    0    0    0 -0.26485089228E+02  0.82733820361E+01 -0.10204821386E+02  0.29564288953E+02  0.00000000000E+00 0. -1.
</event>
<event>
 5    1  0.1319298E-009  0.9118800E+02  0.7818608E-02  0.1130116E+00
         25   -1    0    0    0    0  0.00000000000E+00  0.00000000000E+00  0.99999998245E-14  0.12500000000E+03  0.12500000000E+03 0.  0.
        -13    1    3    3    0    0  0.92286772000E+01  0.38215375982E+00 -0.48668426345E+02  0.49537272950E+02  0.10566000000E+00 0.  1.
         23    2    1    0    0    0 -0.23660471499E+02  0.57446587732E+01 -0.20496945889E+02  0.93173221860E+02  0.87568861275E+02 0.  0.
         13    1    3    3    0    0 -0.32889148699E+02  0.53625050133E+01  0.28171480456E+02  0.43635948910E+02  0.10566000000E+00 0. -1.
         22    1    1    0    0    0  0.23660471499E+02 -0.57446587732E+01  0.20496945889E+02  0.31826778140E+02  0.00000000000E+00 0. -1.
</event>
<event>
 5    1  0.1319298E-009  0.9118800E+02  0.7818608E-02  0.1130116E+00
         25   -1    0    0    0    0  0.00000000000E+00  0.00000000000E+00  0.99999998245E-14  0.12500000000E+03  0.12500000000E+03 0.  0.
        -13    1    3    3    0    0 -0.44045270589E+02  0.12847046334E+02  0.36859712994E+02  0.58853054864E+02  0.10566000000E+00 0. -1.
         23    2    1    0    0    0 -0.12284050248E+02  0.16872621311E+02  0.23571476796E+02  0.93516706673E+02  0.88057802994E+02 0.  0.
         13    1    3    3    0    0  0.31761220341E+02  0.40255749767E+01 -0.13288236199E+02  0.34663651809E+02  0.10566000000E+00 0.  1.
         22    1    1    0    0    0  0.12284050248E+02 -0.16872621311E+02 -0.23571476796E+02  0.31483293327E+02  0.00000000000E+00 0. -1.
</event>
<event>
 5    1  0.1319298E-009  0.9118800E+02  0.7818608E-02  0.1130116E+00
         25   -1    0    0    0    0  0.00000000000E+00  0.00000000000E+00  0.99999998245E-14  0.12500000000E+03  0.12500000000E+03 0.  0.
        -13    1    3    3    0    0 -0.25904727449E+01 -0.28950306366E+01 -0.40821125433E+02  0.41005697130E+02  0.10566000000E+00 0.  1.
         23    2    1    0    0    0 -0.19416126966E+02  0.27896504470E+02 -0.59130189936E+01  0.90501235651E+02  0.83667848739E+02 0.  0.
         13    1    3    3    0    0 -0.16825654222E+02  0.30791535107E+02  0.34908106440E+02  0.49495538521E+02  0.10566000000E+00 0. -1.
         22    1    1    0    0    0  0.19416126966E+02 -0.27896504470E+02  0.59130189936E+01  0.34498764349E+02  0.00000000000E+00 0. -1.
</event>
<event>
 5    1  0.1319298E-009  0.9118800E+02  0.7818608E-02  0.1130116E+00
         25   -1    0    0    0    0  0.00000000000E+00  0.00000000000E+00  0.99999998245E-14  0.12500000000E+03  0.12500000000E+03 0.  0.
        -13    1    3    3    0    0 -0.86655947730E+01 -0.16101497803E+02 -0.28185482390E+02  0.33597371116E+02  0.10566000000E+00 0.  1.
         23    2    1    0    0    0  0.37036693990E+02 -0.56576748532E+01 -0.23642948796E+02  0.80697460409E+02  0.67448981477E+02 0.  0.
         13    1    3    3    0    0  0.45702288763E+02  0.10443822950E+02  0.45425335940E+01  0.47100089293E+02  0.10566000000E+00 0. -1.
         22    1    1    0    0    0 -0.37036693990E+02  0.56576748532E+01  0.23642948796E+02  0.44302539591E+02  0.00000000000E+00 0. -1.
</event>
<event>
 5    1  0.1319298E-009  0.9118800E+02  0.7818608E-02  0.1130116E+00
         25   -1    0    0    0    0  0.00000000000E+00  0.00000000000E+00  0.99999998245E-14  0.12500000000E+03  0.12500000000E+03 0.  0.
        -13    1    3    3    0    0 -0.11540052948E+02 -0.53146815419E+01  0.32113196650E+02  0.34535304039E+02  0.10566000000E+00 0.  1.
         23    2    1    0    0    0 -0.83732866074E+01  0.25886768413E+01 -0.28211755920E+02  0.95458227060E+02  0.90772004301E+02 0.  0.
         13    1    3    3    0    0  0.31667663404E+01  0.79033583832E+01 -0.60324952570E+02  0.60922923021E+02  0.10566000000E+00 0. -1.
         22    1    1    0    0    0  0.83732866074E+01 -0.25886768413E+01  0.28211755920E+02  0.29541772940E+02  0.00000000000E+00 0. -1.
</event>
<event>
 5    1  0.1319298E-009  0.9118800E+02  0.7818608E-02  0.1130116E+00
         25   -1    0    0    0    0  0.00000000000E+00  0.00000000000E+00  0.99999998245E-14  0.12500000000E+03  0.12500000000E+03 0.  0.
        -13    1    3    3    0    0  0.37555507901E+02  0.57022869576E+01  0.37464091106E+02  0.53352615088E+02  0.10566000000E+00 0.  1.
         23    2    1    0    0    0  0.11263598405E+02  0.24803684643E+02  0.97403810094E+01  0.96069627671E+02  0.91610080874E+02 0.  0.
         13    1    3    3    0    0 -0.26291909496E+02  0.19101397686E+02 -0.27723710097E+02  0.42717012583E+02  0.10566000000E+00 0. -1.
         22    1    1    0    0    0 -0.11263598405E+02 -0.24803684643E+02 -0.97403810094E+01  0.28930372329E+02  0.00000000000E+00 0.  1.
</event>
<event>
 5    1  0.1319298E-009  0.9118800E+02  0.7818608E-02  0.1130116E+00
         25   -1    0    0    0    0  0.00000000000E+00  0.00000000000E+00  0.99999998245E-14  0.12500000000E+03  0.12500000000E+03 0.  0.
        -13    1    3    3    0    0 -0.13586189835E+02  0.29438577528E+02  0.20114964132E+01  0.32484945482E+02  0.10566000000E+00 0. -1.
         23    2    1    0    0    0  0.16350154518E+02 -0.25124668389E+02 -0.27190860575E+01  0.94900665399E+02  0.90000924161E+02 0.  0.
         13    1    3    3    0    0  0.29936344354E+02 -0.54563245917E+02 -0.47305824708E+01  0.62415719917E+02  0.10566000000E+00 0.  1.
         22    1    1    0    0    0 -0.16350154518E+02  0.25124668389E+02  0.27190860575E+01  0.30099334601E+02  0.00000000000E+00 0.  1.
</event>
<event>
 5    1  0.1319298E-009  0.9118800E+02  0.7818608E-02  0.1130116E+00
         25   -1    0    0    0    0  0.00000000000E+00  0.00000000000E+00  0.99999998245E-14  0.12500000000E+03  0.12500000000E+03 0.  0.
        -13    1    3    3    0    0  0.12507424181E+02 -0.51204217323E+02  0.26092398882E+02  0.58814385780E+02  0.10566000000E+00 0. -1.
         23    2    1    0    0    0 -0.77316729844E+01 -0.22817266085E+02  0.18821599618E+02  0.94427806573E+02  0.89341768750E+02 0.  0.
         13    1    3    3    0    0 -0.20239097165E+02  0.28386951237E+02 -0.72707992640E+01  0.35613420793E+02  0.10566000000E+00 0.  1.
         22    1    1    0    0    0  0.77316729844E+01  0.22817266085E+02 -0.18821599618E+02  0.30572193427E+02  0.00000000000E+00 0. -1.
</event>
<event>
 5    1  0.1319298E-009  0.9118800E+02  0.7818608E-02  0.1130116E+00
         25   -1    0    0    0    0  0.00000000000E+00  0.00000000000E+00  0.99999998245E-14  0.12500000000E+03  0.12500000000E+03 0.  0.
        -13    1    3    3    0    0 -0.35236915871E+02 -0.14779410758E+02 -0.28470146146E+02  0.47651144876E+02  0.10566000000E+00 0. -1.
         23    2    1    0    0    0  0.88733216625E+01 -0.23066021781E+02 -0.19730493250E+02  0.93376123545E+02  0.87858015493E+02 0.  0.
         13    1    3    3    0    0  0.44110237533E+02 -0.82866110232E+01  0.87396528956E+01  0.45724978669E+02  0.10566000000E+00 0.  1.
         22    1    1    0    0    0 -0.88733216625E+01  0.23066021781E+02  0.19730493250E+02  0.31623876455E+02  0.00000000000E+00 0. -1.
</event>
<event>
 5    1  0.1319298E-009  0.9118800E+02  0.7818608E-02  0.1130116E+00
         25   -1    0    0    0    0  0.00000000000E+00  0.00000000000E+00  0.99999998245E-14  0.12500000000E+03  0.12500000000E+03 0.  0.
        -13    1    3    3    0    0  0.14287906319E+02  0.59679723751E+02 -0.50472709871E+01  0.61573531671E+02  0.10566000000E+00 0. -1.
         23    2    1    0    0    0  0.46744366892E+00  0.25826830121E+02 -0.71445036860E+01  0.98199112131E+02  0.94471043355E+02 0.  0.
         13    1    3    3    0    0 -0.13820462650E+02 -0.33852893630E+02 -0.20972326989E+01  0.36625580460E+02  0.10566000000E+00 0.  1.
         22    1    1    0    0    0 -0.46744366892E+00 -0.25826830121E+02  0.71445036860E+01  0.26800887869E+02  0.00000000000E+00 0. -1.
</event>
<event>
 5    1  0.1319298E-009  0.9118800E+02  0.7818608E-02  0.1130116E+00
         25   -1    0    0    0    0  0.00000000000E+00  0.00000000000E+00  0.99999998245E-14  0.12500000000E+03  0.12500000000E+03 0.  0.
        -13    1    3    3    0    0  0.26800852901E+02 -0.28638693281E+02 -0.22871165755E+02  0.45404425512E+02  0.10566000000E+00 0. -1.
         23    2    1    0    0    0  0.20982820879E+02  0.18930505397E+02 -0.99460649152E+01  0.95040577209E+02  0.90195034799E+02 0.  0.
         13    1    3    3    0    0 -0.58180320223E+01  0.47569198679E+02  0.12925100840E+02  0.49636151697E+02  0.10566000000E+00 0.  1.
         22    1    1    0    0    0 -0.20982820879E+02 -0.18930505397E+02  0.99460649152E+01  0.29959422791E+02  0.00000000000E+00 0.  1.
</event>
<event>
 5    1  0.1319298E-009  0.9118800E+02  0.7818608E-02  0.1130116E+00
         25   -1    0    0    0    0  0.00000000000E+00  0.00000000000E+00  0.99999998245E-14  0.12500000000E+03  0.12500000000E+03 0.  0.
        -13    1    3    3    0    0  0.22355843306E+01 -0.14862051920E+02 -0.30762998491E+02  0.34238160943E+02  0.10566000000E+00 0. -1.
         23    2    1    0    0    0 -0.15060148304E+02  0.55714617268E+01  0.24536069176E+02  0.95676495037E+02  0.91072080020E+02 0.  0.
         13    1    3    3    0    0 -0.17295732635E+02  0.20433513647E+02  0.55299067667E+02  0.61438334094E+02  0.10566000000E+00 0.  1.
         22    1    1    0    0    0  0.15060148304E+02 -0.55714617268E+01 -0.24536069176E+02  0.29323504963E+02  0.00000000000E+00 0.  1.
</event>
<event>
 5    1  0.1319298E-009  0.9118800E+02  0.7818608E-02  0.1130116E+00
         25   -1    0    0    0    0  0.00000000000E+00  0.00000000000E+00  0.99999998245E-14  0.12500000000E+03  0.12500000000E+03 0.  0.
        -13    1    3    3    0    0  0.20461512857E+02 -0.17627719968E+02 -0.22646916849E+02  0.35246333518E+02  0.10566000000E+00 0. -1.
         23    2    1    0    0    0 -0.21653486455E+02  0.17394792131E+02  0.52770595019E+01  0.96728112445E+02  0.92504205911E+02 0.  0.
         13    1    3    3    0    0 -0.42114999312E+02  0.35022512099E+02  0.27923976351E+02  0.61481778927E+02  0.10566000000E+00 0.  1.
         22    1    1    0    0    0  0.21653486455E+02 -0.17394792131E+02 -0.52770595019E+01  0.28271887555E+02  0.00000000000E+00 0.  1.
</event>
<event>
 5    1  0.1319298E-009  0.9118800E+02  0.7818608E-02  0.1130116E+00
         25   -1    0    0    0    0  0.00000000000E+00  0.00000000000E+00  0.99999998245E-14  0.12500000000E+03  0.12500000000E+03 0.  0.
        -13    1    3    3    0    0  0.55730054628E+01 -0.29856410196E+02  0.19656860540E+02  0.36178266266E+02  0.10566000000E+00 0. -1.
         23    2    1    0    0    0 -0.23569173836E+02  0.13606076601E+02 -0.96142731216E+01  0.96137125517E+02  0.91702133995E+02 0.  0.
         13    1    3    3    0    0 -0.29142179298E+02  0.43462486797E+02 -0.29271133662E+02  0.59958859251E+02  0.10566000000E+00 0.  1.
         22    1    1    0    0    0  0.23569173836E+02 -0.13606076601E+02  0.96142731216E+01  0.28862874483E+02  0.00000000000E+00 0.  1.
</event>
<event>
 5    1  0.1319298E-009  0.9118800E+02  0.7818608E-02  0.1130116E+00
         25   -1    0    0    0    0  0.00000000000E+00  0.00000000000E+00  0.99999998245E-14  0.12500000000E+03  0.12500000000E+03 0.  0.
        -13    1    3    3    0    0 -0.25902604358E+02 -0.43549634268E+02 -0.97897864869E-01  0.50670862490E+02  0.10566000000E+00 0.  1.
         23    2    1    0    0    0 -0.28035905310E+02  0.74063536910E+00  0.81952559273E+01  0.95781465693E+02  0.91216042577E+02 0.  0.
         13    1    3    3    0    0 -0.21333009523E+01  0.44290269638E+02  0.82931537921E+01  0.45110603203E+02  0.10566000000E+00 0. -1.
         22    1    1    0    0    0  0.28035905310E+02 -0.74063536910E+00 -0.81952559273E+01  0.29218534307E+02  0.00000000000E+00 0.  1.
</event>
<event>
 5    1  0.1319298E-009  0.9118800E+02  0.7818608E-02  0.1130116E+00
         25   -1    0    0    0    0  0.00000000000E+00  0.00000000000E+00  0.99999998245E-14  0.12500000000E+03  0.12500000000E+03 0.  0.
        -13    1    3    3    0    0 -0.36473619216E+01  0.28920821723E+02 -0.35387709321E+02  0.45847773262E+02  0.10566000000E+00 0.  1.
         23    2    1    0    0    0  0.27980646988E+02  0.32749068226E+01 -0.56563298124E+01  0.96266122999E+02  0.91877803357E+02 0.  0.
         13    1    3    3    0    0  0.31628008910E+02 -0.25645914900E+02  0.29731379508E+02  0.50418349737E+02  0.10566000000E+00 0. -1.
         22    1    1    0    0    0 -0.27980646988E+02 -0.32749068226E+01  0.56563298124E+01  0.28733877001E+02  0.00000000000E+00 0. -1.
</event>
<event>
 5    1  0.1319298E-009  0.9118800E+02  0.7818608E-02  0.1130116E+00
         25   -1    0    0    0    0  0.00000000000E+00  0.00000000000E+00  0.99999998245E-14  0.12500000000E+03  0.12500000000E+03 0.  0.
        -13    1    3    3    0    0  0.38562873495E+02  0.77608305198E+01 -0.46852406099E+02  0.61175851640E+02  0.10566000000E+00 0. -1.
         23    2    1    0    0    0  0.23023549407E+02 -0.26245669611E+01 -0.17550633873E+02  0.95931169126E+02  0.91420961937E+02 0.  0.
         13    1    3    3    0    0 -0.15539324088E+02 -0.10385397481E+02  0.29301772226E+02  0.34755317486E+02  0.10566000000E+00 0.  1.
         22    1    1    0    0    0 -0.23023549407E+02  0.26245669611E+01  0.17550633873E+02  0.29068830874E+02  0.00000000000E+00 0. -1.
</event>
<event>
 5    1  0.1319298E-009  0.9118800E+02  0.7818608E-02  0.1130116E+00
         25   -1    0    0    0    0  0.00000000000E+00  0.00000000000E+00  0.99999998245E-14  0.12500000000E+03  0.12500000000E+03 0.  0.
        -13    1    3    3    0    0  0.22683266312E+02  0.26908921113E+02  0.25622962802E+02  0.43533527227E+02  0.10566000000E+00 0. -1.
         23    2    1    0    0    0 -0.16205499163E+02 -0.57453362487E+01  0.25416193544E+02  0.94314335822E+02  0.89182868061E+02 0.  0.
         13    1    3    3    0    0 -0.38888765475E+02 -0.32654257361E+02 -0.20676925787E+00  0.50780808595E+02  0.10566000000E+00 0.  1.
         22    1    1    0    0    0  0.16205499163E+02  0.57453362487E+01 -0.25416193544E+02  0.30685664178E+02  0.00000000000E+00 0. -1.
</event>
<event>
 5    1  0.1319298E-009  0.9118800E+02  0.7818608E-02  0.1130116E+00
         25   -1    0    0    0    0  0.00000000000E+00  0.00000000000E+00  0.99999998245E-14  0.12500000000E+03  0.12500000000E+03 0.  0.
        -13    1    3    3    0    0 -0.32873791966E+02  0.39708004282E+02 -0.11485875009E+02  0.52814281128E+02  0.10566000000E+00 0. -1.
         23    2    1    0    0    0  0.81283685831E+01  0.26773027383E+02 -0.77293422578E+01  0.95972287330E+02  0.91477165635E+02 0.  0.
         13    1    3    3    0    0  0.41002160549E+02 -0.12934976898E+02  0.37565327514E+01  0.43158006203E+02  0.10566000000E+00 0.  1.
         22    1    1    0    0    0 -0.81283685831E+01 -0.26773027383E+02  0.77293422578E+01  0.29027712670E+02  0.00000000000E+00 0. -1.
</event>
<event>
 5    1  0.1319298E-009  0.9118800E+02  0.7818608E-02  0.1130116E+00
         25   -1    0    0    0    0  0.00000000000E+00  0.00000000000E+00  0.99999998245E-14  0.12500000000E+03  0.12500000000E+03 0.  0.
        -13    1    3    3    0    0 -0.27234748879E+02  0.12767374242E+02 -0.16545603413E+02  0.34329368591E+02  0.10566000000E+00 0.  1.
         23    2    1    0    0    0  0.15380574705E+01 -0.17824556559E+02  0.25561155994E+02  0.93799789535E+02  0.88458732659E+02 0.  0.
         13    1    3    3    0    0  0.28772806350E+02 -0.30591930801E+02  0.42106759408E+02  0.59470420943E+02  0.10566000000E+00 0. -1.
         22    1    1    0    0    0 -0.15380574705E+01  0.17824556559E+02 -0.25561155994E+02  0.31200210465E+02  0.00000000000E+00 0. -1.
</event>
<event>
 5    1  0.1319298E-009  0.9118800E+02  0.7818608E-02  0.1130116E+00
         25   -1    0    0    0    0  0.00000000000E+00  0.00000000000E+00  0.99999998245E-14  0.12500000000E+03  0.12500000000E+03 0.  0.
        -13    1    3    3    0    0 -0.29036548798E+02  0.10299134887E+02  0.33655098393E+02  0.45627515354E+02  0.10566000000E+00 0.  1.
         23    2    1    0    0    0 -0.26628429962E+01  0.29250934655E+02 -0.40040589319E+01  0.95356444226E+02  0.90631733164E+02 0.  0.
         13    1    3    3    0    0  0.26373705802E+02  0.18951799769E+02 -0.37659157325E+02  0.49728928871E+02  0.10566000000E+00 0. -1.
         22    1    1    0    0    0  0.26628429962E+01 -0.29250934655E+02  0.40040589319E+01  0.29643555774E+02  0.00000000000E+00 0.  1.
</event>
<event>
 5    1  0.1319298E-009  0.9118800E+02  0.7818608E-02  0.1130116E+00
         25   -1    0    0    0    0  0.00000000000E+00  0.00000000000E+00  0.99999998245E-14  0.12500000000E+03  0.12500000000E+03 0.  0.
        -13    1    3    3    0    0 -0.21013369006E+02  0.15067683527E+01  0.44393000232E+02  0.49138392947E+02  0.10566000000E+00 0.  1.
         23    2    1    0    0    0  0.26832264507E+01  0.25361403920E+02  0.90033928425E+01  0.97954453312E+02  0.94146764830E+02 0.  0.
         13    1    3    3    0    0  0.23696595456E+02  0.23854635568E+02 -0.35389607389E+02  0.48816060364E+02  0.10566000000E+00 0. -1.
         22    1    1    0    0    0 -0.26832264507E+01 -0.25361403920E+02 -0.90033928425E+01  0.27045546688E+02  0.00000000000E+00 0.  1.
</event>
<event>
 5    1  0.1319298E-009  0.9118800E+02  0.7818608E-02  0.1130116E+00
         25   -1    0    0    0    0  0.00000000000E+00  0.00000000000E+00  0.99999998245E-14  0.12500000000E+03  0.12500000000E+03 0.  0.
        -13    1    3    3    0    0  0.38792758698E+02  0.28537896957E+02 -0.15545342432E+02  0.50605913938E+02  0.10566000000E+00 0.  1.
         23    2    1    0    0    0  0.11543814683E+02 -0.64682040797E+01 -0.25680804046E+02  0.96110537944E+02  0.91665885072E+02 0.  0.
         13    1    3    3    0    0 -0.27248944015E+02 -0.35006101037E+02 -0.10135461614E+02  0.45504624006E+02  0.10566000000E+00 0. -1.
         22    1    1    0    0    0 -0.11543814683E+02  0.64682040797E+01  0.25680804046E+02  0.28889462056E+02  0.00000000000E+00 0.  1.
</event>
<event>
 5    1  0.1319298E-009  0.9118800E+02  0.7818608E-02  0.1130116E+00
         25   -1    0    0    0    0  0.00000000000E+00  0.00000000000E+00  0.99999998245E-14  0.12500000000E+03  0.12500000000E+03 0.  0.
        -13    1    3    3    0    0  0.26611984434E+02  0.21372402240E+02  0.50652533004E+02  0.61079190865E+02  0.10566000000E+00 0.  1.
         23    2    1    0    0    0  0.12946345575E+02  0.14109524259E+01  0.27536782970E+02  0.94538991041E+02  0.89497194147E+02 0.  0.
         13    1    3    3    0    0 -0.13665638859E+02 -0.19961449814E+02 -0.23115750034E+02  0.33459800176E+02  0.10566000000E+00 0. -1.
         22    1    1    0    0    0 -0.12946345575E+02 -0.14109524259E+01 -0.27536782970E+02  0.30461008959E+02  0.00000000000E+00 0.  1.
</event>
<event>
 5    1  0.1319298E-009  0.9118800E+02  0.7818608E-02  0.1130116E+00
         25   -1    0    0    0    0  0.00000000000E+00  0.00000000000E+00  0.99999998245E-14  0.12500000000E+03  0.12500000000E+03 0.  0.
        -13    1    3    3    0    0 -0.48118428816E+02 -0.52987852989E+01  0.54799297343E+01  0.48718591023E+02  0.10566000000E+00 0.  1.
         23    2    1    0    0    0 -0.66946382568E+01 -0.51156027878E+00  0.28065974530E+02  0.96142092910E+02  0.91708904843E+02 0.  0.
         13    1    3    3    0    0  0.41423790559E+02  0.47872250201E+01  0.22586044795E+02  0.47423501887E+02  0.10566000000E+00 0. -1.
         22    1    1    0    0    0  0.66946382568E+01  0.51156027878E+00 -0.28065974530E+02  0.28857907090E+02  0.00000000000E+00 0.  1.
</event>
<event>
 5    1  0.1319298E-009  0.9118800E+02  0.7818608E-02  0.1130116E+00
         25   -1    0    0    0    0  0.00000000000E+00  0.00000000000E+00  0.99999998245E-14  0.12500000000E+03  0.12500000000E+03 0.  0.
        -13    1    3    3    0    0 -0.52998038798E+01 -0.74390883965E+01 -0.47729250194E+02  0.48595477623E+02  0.10566000000E+00 0. -1.
         23    2    1    0    0    0 -0.13262971118E+02 -0.27100185861E+02 -0.77577872976E+01  0.93846994682E+02  0.88525412569E+02 0.  0.
         13    1    3    3    0    0 -0.79631672380E+01 -0.19661097465E+02  0.39971462896E+02  0.45251517058E+02  0.10566000000E+00 0.  1.
         22    1    1    0    0    0  0.13262971118E+02  0.27100185861E+02  0.77577872976E+01  0.31153005318E+02  0.00000000000E+00 0.  1.
</event>
<event>
 5    1  0.1319298E-009  0.9118800E+02  0.7818608E-02  0.1130116E+00
         25   -1    0    0    0    0  0.00000000000E+00  0.00000000000E+00  0.99999998245E-14  0.12500000000E+03  0.12500000000E+03 0.  0.
        -13    1    3    3    0    0  0.41572224912E+02 -0.10390054214E+02 -0.10295486269E+02  0.44070526571E+02  0.10566000000E+00 0.  1.
         23    2    1    0    0    0  0.10119863934E+02  0.12832460712E+02  0.23923626742E+02  0.96027191878E+02  0.91552159830E+02 0.  0.
         13    1    3    3    0    0 -0.31452360977E+02  0.23222514926E+02  0.34219113011E+02  0.51956665307E+02  0.10566000000E+00 0. -1.
         22    1    1    0    0    0 -0.10119863934E+02 -0.12832460712E+02 -0.23923626742E+02  0.28972808122E+02  0.00000000000E+00 0. -1.
</event>
<event>
 5    1  0.1319298E-009  0.9118800E+02  0.7818608E-02  0.1130116E+00
         25   -1    0    0    0    0  0.00000000000E+00  0.00000000000E+00  0.99999998245E-14  0.12500000000E+03  0.12500000000E+03 0.  0.
        -13    1    3    3    0    0 -0.92825236790E+01 -0.36199402814E+01  0.38903286747E+02  0.40159010163E+02  0.10566000000E+00 0. -1.
         23    2    1    0    0    0  0.90446881219E+01  0.27615867296E+02 -0.32804364827E+01  0.95756132724E+02  0.91181320351E+02 0.  0.
         13    1    3    3    0    0  0.18327211801E+02  0.31235807578E+02 -0.42183723230E+02  0.55597122561E+02  0.10566000000E+00 0.  1.
         22    1    1    0    0    0 -0.90446881219E+01 -0.27615867296E+02  0.32804364827E+01  0.29243867276E+02  0.00000000000E+00 0.  1.
</event>
<event>
 5    1  0.1319298E-009  0.9118800E+02  0.7818608E-02  0.1130116E+00
         25   -1    0    0    0    0  0.00000000000E+00  0.00000000000E+00  0.99999998245E-14  0.12500000000E+03  0.12500000000E+03 0.  0.
        -13    1    3    3    0    0 -0.82097483389E+01  0.15657843113E+02 -0.50747908918E+02  0.53739458895E+02  0.10566000000E+00 0.  1.
         23    2    1    0    0    0  0.17296000950E+02  0.92737661870E+00 -0.31879806191E+02  0.88718686365E+02  0.80960926325E+02 0.  0.
         13    1    3    3    0    0  0.25505749289E+02 -0.14730466494E+02  0.18868102726E+02  0.34979227471E+02  0.10566000000E+00 0. -1.
         22    1    1    0    0    0 -0.17296000950E+02 -0.92737661870E+00  0.31879806191E+02  0.36281313635E+02  0.00000000000E+00 0.  1.
</event>
<event>
 5    1  0.1319298E-009  0.9118800E+02  0.7818608E-02  0.1130116E+00
         25   -1    0    0    0    0  0.00000000000E+00  0.00000000000E+00  0.99999998245E-14  0.12500000000E+03  0.12500000000E+03 0.  0.
        -13    1    3    3    0    0 -0.28374425029E+02 -0.11459789714E+02 -0.30768706905E+02  0.43395382987E+02  0.10566000000E+00 0. -1.
         23    2    1    0    0    0  0.21972009117E+02 -0.65188317650E+01 -0.18742151194E+02  0.95393707027E+02  0.90683111750E+02 0.  0.
         13    1    3    3    0    0  0.50346434146E+02  0.49409579488E+01  0.12026555710E+02  0.51998324040E+02  0.10566000000E+00 0.  1.
         22    1    1    0    0    0 -0.21972009117E+02  0.65188317650E+01  0.18742151194E+02  0.29606292973E+02  0.00000000000E+00 0. -1.
</event>
<event>
 5    1  0.1319298E-009  0.9118800E+02  0.7818608E-02  0.1130116E+00
         25   -1    0    0    0    0  0.00000000000E+00  0.00000000000E+00  0.99999998245E-14  0.12500000000E+03  0.12500000000E+03 0.  0.
        -13    1    3    3    0    0 -0.20380232584E+02 -0.96602135573E+01 -0.15403760515E+02  0.27312279440E+02  0.10566000000E+00 0.  1.
         23    2    1    0    0    0 -0.28194546071E+02 -0.35962776242E+01  0.35701474385E+02  0.79366011415E+02  0.64934604440E+02 0.  0.
         13    1    3    3    0    0 -0.78143134871E+01  0.60639359331E+01  0.51105234901E+02  0.52053731975E+02  0.10566000000E+00 0. -1.
         22    1    1    0    0    0  0.28194546071E+02  0.35962776242E+01 -0.35701474385E+02  0.45633988585E+02  0.00000000000E+00 0. -1.
</event>
<event>
 5    1  0.1319298E-009  0.9118800E+02  0.7818608E-02  0.1130116E+00
         25   -1    0    0    0    0  0.00000000000E+00  0.00000000000E+00  0.99999998245E-14  0.12500000000E+03  0.12500000000E+03 0.  0.
        -13    1    3    3    0    0 -0.21848330568E+02  0.31843312220E+01 -0.25329061033E+02  0.33601517984E+02  0.10566000000E+00 0.  1.
         23    2    1    0    0    0  0.20073185712E+02 -0.46969361157E+01  0.20302574585E+02  0.96065789655E+02  0.91604843833E+02 0.  0.
         13    1    3    3    0    0  0.41921516281E+02 -0.78812673377E+01  0.45631635619E+02  0.62464271671E+02  0.10566000000E+00 0. -1.
         22    1    1    0    0    0 -0.20073185712E+02  0.46969361157E+01 -0.20302574585E+02  0.28934210345E+02  0.00000000000E+00 0. -1.
</event>
<event>
 5    1  0.1319298E-009  0.9118800E+02  0.7818608E-02  0.1130116E+00
         25   -1    0    0    0    0  0.00000000000E+00  0.00000000000E+00  0.99999998245E-14  0.12500000000E+03  0.12500000000E+03 0.  0.
        -13    1    3    3    0    0 -0.19288824982E+02 -0.55017161849E+02  0.10280327622E+02  0.59200026749E+02  0.10566000000E+00 0. -1.
         23    2    1    0    0    0 -0.11419229011E+02 -0.19755392473E+02  0.17746770540E+02  0.96092869607E+02  0.91641788512E+02 0.  0.
         13    1    3    3    0    0  0.78695959716E+01  0.35261769375E+02  0.74664429181E+01  0.36892842858E+02  0.10566000000E+00 0.  1.
         22    1    1    0    0    0  0.11419229011E+02  0.19755392473E+02 -0.17746770540E+02  0.28907130393E+02  0.00000000000E+00 0. -1.
</event>
<event>
 5    1  0.1319298E-009  0.9118800E+02  0.7818608E-02  0.1130116E+00
         25   -1    0    0    0    0  0.00000000000E+00  0.00000000000E+00  0.99999998245E-14  0.12500000000E+03  0.12500000000E+03 0.  0.
        -13    1    3    3    0    0 -0.35868669743E+02  0.46741422806E+02  0.12026712599E+02  0.60132978099E+02  0.10566000000E+00 0. -1.
         23    2    1    0    0    0 -0.72920230648E+01  0.24512785759E+02  0.12918015255E+02  0.96348204521E+02  0.91989407707E+02 0.  0.
         13    1    3    3    0    0  0.28576646678E+02 -0.22228637047E+02  0.89130265587E+00  0.36215226422E+02  0.10566000000E+00 0.  1.
         22    1    1    0    0    0  0.72920230648E+01 -0.24512785759E+02 -0.12918015255E+02  0.28651795479E+02  0.00000000000E+00 0. -1.
</event>
<event>
 5    1  0.1319298E-009  0.9118800E+02  0.7818608E-02  0.1130116E+00
         25   -1    0    0    0    0  0.00000000000E+00  0.00000000000E+00  0.99999998245E-14  0.12500000000E+03  0.12500000000E+03 0.  0.
        -13    1    3    3    0    0 -0.12678876783E+02  0.20968062655E+02 -0.18840569426E+02  0.30909412617E+02  0.10566000000E+00 0.  1.
         23    2    1    0    0    0  0.10459930751E+02 -0.29849670825E+01  0.31727683360E+02  0.91459486123E+02  0.85087434623E+02 0.  0.
         13    1    3    3    0    0  0.23138807534E+02 -0.23953029737E+02  0.50568252786E+02  0.60550073506E+02  0.10566000000E+00 0. -1.
         22    1    1    0    0    0 -0.10459930751E+02  0.29849670825E+01 -0.31727683360E+02  0.33540513877E+02  0.00000000000E+00 0. -1.
</event>
<event>
 5    1  0.1319298E-009  0.9118800E+02  0.7818608E-02  0.1130116E+00
         25   -1    0    0    0    0  0.00000000000E+00  0.00000000000E+00  0.99999998245E-14  0.12500000000E+03  0.12500000000E+03 0.  0.
        -13    1    3    3    0    0 -0.14321849614E+01 -0.46473959819E+02  0.29679815834E+02  0.55161424266E+02  0.10566000000E+00 0.  1.
         23    2    1    0    0    0 -0.15324452796E+02 -0.89205054811E+01  0.23320216197E+02  0.95704151232E+02  0.91110031325E+02 0.  0.
         13    1    3    3    0    0 -0.13892267835E+02  0.37553454338E+02 -0.63595996373E+01  0.40542726967E+02  0.10566000000E+00 0. -1.
         22    1    1    0    0    0  0.15324452796E+02  0.89205054811E+01 -0.23320216197E+02  0.29295848768E+02  0.00000000000E+00 0. -1.
</event>
<event>
 5    1  0.1319298E-009  0.9118800E+02  0.7818608E-02  0.1130116E+00
         25   -1    0    0    0    0  0.00000000000E+00  0.00000000000E+00  0.99999998245E-14  0.12500000000E+03  0.12500000000E+03 0.  0.
        -13    1    3    3    0    0  0.20542027407E+02 -0.80358505164E+01  0.29490883573E+02  0.36827614116E+02  0.10566000000E+00 0.  1.
         23    2    1    0    0    0 -0.61496428979E+01 -0.26182176421E+02 -0.16821893313E+02  0.93277759150E+02  0.87717955901E+02 0.  0.
         13    1    3    3    0    0 -0.26691670304E+02 -0.18146325905E+02 -0.46312776886E+02  0.56450145034E+02  0.10566000000E+00 0. -1.
         22    1    1    0    0    0  0.61496428979E+01  0.26182176421E+02  0.16821893313E+02  0.31722240850E+02  0.00000000000E+00 0. -1.
</event>
<event>
 5    1  0.1319298E-009  0.9118800E+02  0.7818608E-02  0.1130116E+00
         25   -1    0    0    0    0  0.00000000000E+00  0.00000000000E+00  0.99999998245E-14  0.12500000000E+03  0.12500000000E+03 0.  0.
        -13    1    3    3    0    0  0.53935998808E+02 -0.27238187355E+02  0.11750576735E+02  0.61555649907E+02  0.10566000000E+00 0.  1.
         23    2    1    0    0    0  0.24466703974E+02 -0.14927548449E+02  0.13024308485E+02  0.93518514687E+02  0.88060369472E+02 0.  0.
         13    1    3    3    0    0 -0.29469294835E+02  0.12310638906E+02  0.12737317494E+01  0.31962864780E+02  0.10566000000E+00 0. -1.
         22    1    1    0    0    0 -0.24466703974E+02  0.14927548449E+02 -0.13024308485E+02  0.31481485313E+02  0.00000000000E+00 0.  1.
</event>
<event>
 5    1  0.1319298E-009  0.9118800E+02  0.7818608E-02  0.1130116E+00
         25   -1    0    0    0    0  0.00000000000E+00  0.00000000000E+00  0.99999998245E-14  0.12500000000E+03  0.12500000000E+03 0.  0.
        -13    1    3    3    0    0 -0.13316231023E+02 -0.46415350209E+02  0.39396102853E+02  0.62319907154E+02  0.10566000000E+00 0.  1.
         23    2    1    0    0    0 -0.96646023229E+01 -0.27621714445E+02  0.27386492575E+02  0.84920284152E+02  0.74867022366E+02 0.  0.
         13    1    3    3    0    0  0.36516286998E+01  0.18793635764E+02 -0.12009610278E+02  0.22600376998E+02  0.10566000000E+00 0. -1.
         22    1    1    0    0    0  0.96646023229E+01  0.27621714445E+02 -0.27386492575E+02  0.40079715848E+02  0.00000000000E+00 0.  1.
</event>
<event>
 5    1  0.1319298E-009  0.9118800E+02  0.7818608E-02  0.1130116E+00
         25   -1    0    0    0    0  0.00000000000E+00  0.00000000000E+00  0.99999998245E-14  0.12500000000E+03  0.12500000000E+03 0.  0.
        -13    1    3    3    0    0  0.57825053897E+02 -0.12275714158E+02  0.56137882943E+00  0.59116464090E+02  0.10566000000E+00 0. -1.
         23    2    1    0    0    0  0.27725588894E+02  0.71001574666E+01 -0.66141619474E+01  0.95625391001E+02  0.91001910695E+02 0.  0.
         13    1    3    3    0    0 -0.30099465003E+02  0.19375871624E+02 -0.71755407768E+01  0.36508926910E+02  0.10566000000E+00 0.  1.
         22    1    1    0    0    0 -0.27725588894E+02 -0.71001574666E+01  0.66141619474E+01  0.29374608999E+02  0.00000000000E+00 0. -1.
</event>
<event>
 5    1  0.1319298E-009  0.9118800E+02  0.7818608E-02  0.1130116E+00
         25   -1    0    0    0    0  0.00000000000E+00  0.00000000000E+00  0.99999998245E-14  0.12500000000E+03  0.12500000000E+03 0.  0.
        -13    1    3    3    0    0 -0.32257689032E+01 -0.49727563336E+02  0.35601866262E+02  0.61243286862E+02  0.10566000000E+00 0. -1.
         23    2    1    0    0    0  0.71834183833E+01 -0.21777848896E+02  0.17730138179E+02  0.96013209870E+02  0.91533067617E+02 0.  0.
         13    1    3    3    0    0  0.10409187286E+02  0.27949714440E+02 -0.17871728082E+02  0.34769923007E+02  0.10566000000E+00 0.  1.
         22    1    1    0    0    0 -0.71834183833E+01  0.21777848896E+02 -0.17730138179E+02  0.28986790130E+02  0.00000000000E+00 0. -1.
</event>
<event>
 5    1  0.1319298E-009  0.9118800E+02  0.7818608E-02  0.1130116E+00
         25   -1    0    0    0    0  0.00000000000E+00  0.00000000000E+00  0.99999998245E-14  0.12500000000E+03  0.12500000000E+03 0.  0.
        -13    1    3    3    0    0  0.55433577536E+02 -0.24023791026E+02 -0.13222095514E+02  0.61845444679E+02  0.10566000000E+00 0.  1.
         23    2    1    0    0    0  0.24205740365E+02 -0.17324532594E+02 -0.76447886635E+01  0.94267279815E+02  0.89116889274E+02 0.  0.
         13    1    3    3    0    0 -0.31227837171E+02  0.66992584313E+01  0.55773068508E+01  0.32421835137E+02  0.10566000000E+00 0. -1.
         22    1    1    0    0    0 -0.24205740365E+02  0.17324532594E+02  0.76447886635E+01  0.30732720185E+02  0.00000000000E+00 0.  1.
</event>
<event>
 5    1  0.1319298E-009  0.9118800E+02  0.7818608E-02  0.1130116E+00
         25   -1    0    0    0    0  0.00000000000E+00  0.00000000000E+00  0.99999998245E-14  0.12500000000E+03  0.12500000000E+03 0.  0.
        -13    1    3    3    0    0  0.34970702068E+02  0.12875661150E+02  0.28621044759E+02  0.46988381759E+02  0.10566000000E+00 0.  1.
         23    2    1    0    0    0  0.24794691447E+02 -0.73737492608E+00 -0.16502326165E+02  0.95206591088E+02  0.90424818341E+02 0.  0.
         13    1    3    3    0    0 -0.10176010621E+02 -0.13613036076E+02 -0.45123370924E+02  0.48218209329E+02  0.10566000000E+00 0. -1.
         22    1    1    0    0    0 -0.24794691447E+02  0.73737492608E+00  0.16502326165E+02  0.29793408912E+02  0.00000000000E+00 0. -1.
</event>
<event>
 5    1  0.1319298E-009  0.9118800E+02  0.7818608E-02  0.1130116E+00
         25   -1    0    0    0    0  0.00000000000E+00  0.00000000000E+00  0.99999998245E-14  0.12500000000E+03  0.12500000000E+03 0.  0.
        -13    1    3    3    0    0 -0.70721141074E+01  0.32266092576E+02  0.49169815170E+01  0.33396158452E+02  0.10566000000E+00 0. -1.
         23    2    1    0    0    0 -0.72284433432E+01 -0.21100244572E+02 -0.22435564393E+02  0.93364177523E+02  0.87841017644E+02 0.  0.
         13    1    3    3    0    0 -0.15632923579E+00 -0.53366337149E+02 -0.27352545910E+02  0.59968019071E+02  0.10566000000E+00 0.  1.
         22    1    1    0    0    0  0.72284433432E+01  0.21100244572E+02  0.22435564393E+02  0.31635822477E+02  0.00000000000E+00 0.  1.
</event>
<event>
 5    1  0.1319298E-009  0.9118800E+02  0.7818608E-02  0.1130116E+00
         25   -1    0    0    0    0  0.00000000000E+00  0.00000000000E+00  0.99999998245E-14  0.12500000000E+03  0.12500000000E+03 0.  0.
        -13    1    3    3    0    0  0.51744380654E+02 -0.18133810567E+01  0.15889987208E+02  0.54159691078E+02  0.10566000000E+00 0. -1.
         23    2    1    0    0    0  0.14903873652E+02  0.19968140579E+02  0.12585319539E+02  0.97085087213E+02  0.92985331118E+02 0.  0.
         13    1    3    3    0    0 -0.36840507002E+02  0.21781521635E+02 -0.33046676688E+01  0.42925396135E+02  0.10566000000E+00 0.  1.
         22    1    1    0    0    0 -0.14903873652E+02 -0.19968140579E+02 -0.12585319539E+02  0.27914912787E+02  0.00000000000E+00 0. -1.
</event>
<event>
 5    1  0.1319298E-009  0.9118800E+02  0.7818608E-02  0.1130116E+00
         25   -1    0    0    0    0  0.00000000000E+00  0.00000000000E+00  0.99999998245E-14  0.12500000000E+03  0.12500000000E+03 0.  0.
        -13    1    3    3    0    0  0.88957884292E+01 -0.20335920135E+02  0.29195268200E+02  0.36675053494E+02  0.10566000000E+00 0. -1.
         23    2    1    0    0    0  0.65886024572E+01  0.29784687410E+02  0.46621832942E+00  0.94491728237E+02  0.89431158212E+02 0.  0.
         13    1    3    3    0    0 -0.23071859720E+01  0.50120607545E+02 -0.28729049870E+02  0.57816674742E+02  0.10566000000E+00 0.  1.
         22    1    1    0    0    0 -0.65886024572E+01 -0.29784687410E+02 -0.46621832942E+00  0.30508271763E+02  0.00000000000E+00 0.  1.
</event>
<event>
 5    1  0.1319298E-009  0.9118800E+02  0.7818608E-02  0.1130116E+00
         25   -1    0    0    0    0  0.00000000000E+00  0.00000000000E+00  0.99999998245E-14  0.12500000000E+03  0.12500000000E+03 0.  0.
        -13    1    3    3    0    0 -0.98856813548E+01 -0.25346611676E+02  0.24385176630E+02  0.36535262728E+02  0.10566000000E+00 0. -1.
         23    2    1    0    0    0  0.57927200778E+01 -0.36672992668E+01 -0.28437787541E+02  0.95747436864E+02  0.91169398462E+02 0.  0.
         13    1    3    3    0    0  0.15678401433E+02  0.21679312409E+02 -0.52822964171E+02  0.59212174136E+02  0.10566000000E+00 0.  1.
         22    1    1    0    0    0 -0.57927200778E+01  0.36672992668E+01  0.28437787541E+02  0.29252563136E+02  0.00000000000E+00 0.  1.
</event>
<event>
 5    1  0.1319298E-009  0.9118800E+02  0.7818608E-02  0.1130116E+00
         25   -1    0    0    0    0  0.00000000000E+00  0.00000000000E+00  0.99999998245E-14  0.12500000000E+03  0.12500000000E+03 0.  0.
        -13    1    3    3    0    0 -0.44174566324E+02  0.50857785960E+01  0.42854966525E+02  0.61756107178E+02  0.10566000000E+00 0.  1.
         23    2    1    0    0    0 -0.22769981344E+02  0.69867705295E+01  0.15333706651E+02  0.96673165152E+02  0.92429926366E+02 0.  0.
         13    1    3    3    0    0  0.21404584980E+02  0.19009919336E+01 -0.27521259874E+02  0.34917057975E+02  0.10566000000E+00 0. -1.
         22    1    1    0    0    0  0.22769981344E+02 -0.69867705295E+01 -0.15333706651E+02  0.28326834848E+02  0.00000000000E+00 0.  1.
</event>
<event>
 5    1  0.1319298E-009  0.9118800E+02  0.7818608E-02  0.1130116E+00
         25   -1    0    0    0    0  0.00000000000E+00  0.00000000000E+00  0.99999998245E-14  0.12500000000E+03  0.12500000000E+03 0.  0.
        -13    1    3    3    0    0  0.39479163640E+02  0.25745295875E+02 -0.32774788964E+02  0.57407513246E+02  0.10566000000E+00 0. -1.
         23    2    1    0    0    0  0.32994116227E+02  0.20636250517E+02 -0.57550026510E+01  0.85660622825E+02  0.76093072657E+02 0.  0.
         13    1    3    3    0    0 -0.64850474136E+01 -0.51090453582E+01  0.27019786313E+02  0.28253109579E+02  0.10566000000E+00 0.  1.
         22    1    1    0    0    0 -0.32994116227E+02 -0.20636250517E+02  0.57550026510E+01  0.39339377175E+02  0.00000000000E+00 0. -1.
</event>
<event>
 5    1  0.1319298E-009  0.9118800E+02  0.7818608E-02  0.1130116E+00
         25   -1    0    0    0    0  0.00000000000E+00  0.00000000000E+00  0.99999998245E-14  0.12500000000E+03  0.12500000000E+03 0.  0.
        -13    1    3    3    0    0 -0.12538803276E+02 -0.33707085616E+02  0.25985124020E+02  0.44369212780E+02  0.10566000000E+00 0.  1.
         23    2    1    0    0    0 -0.25126205555E+02  0.12714752617E+02  0.79292518882E+01  0.95744843614E+02  0.91165842855E+02 0.  0.
         13    1    3    3    0    0 -0.12587402278E+02  0.46421838233E+02 -0.18055872132E+02  0.51375630834E+02  0.10566000000E+00 0. -1.
         22    1    1    0    0    0  0.25126205555E+02 -0.12714752617E+02 -0.79292518882E+01  0.29255156386E+02  0.00000000000E+00 0. -1.
</event>
<event>
 5    1  0.1319298E-009  0.9118800E+02  0.7818608E-02  0.1130116E+00
         25   -1    0    0    0    0  0.00000000000E+00  0.00000000000E+00  0.99999998245E-14  0.12500000000E+03  0.12500000000E+03 0.  0.
        -13    1    3    3    0    0  0.52401522920E+02 -0.26369214117E+02  0.25168093618E+01  0.58716271603E+02  0.10566000000E+00 0.  1.
         23    2    1    0    0    0  0.31835477151E+02 -0.29749975024E+00 -0.50250929880E+01  0.92768995189E+02  0.86989935035E+02 0.  0.
         13    1    3    3    0    0 -0.20566045769E+02  0.26071714367E+02 -0.75419023498E+01  0.34052723587E+02  0.10566000000E+00 0. -1.
         22    1    1    0    0    0 -0.31835477151E+02  0.29749975024E+00  0.50250929880E+01  0.32231004811E+02  0.00000000000E+00 0.  1.
</event>
<event>
 5    1  0.1319298E-009  0.9118800E+02  0.7818608E-02  0.1130116E+00
         25   -1    0    0    0    0  0.00000000000E+00  0.00000000000E+00  0.99999998245E-14  0.12500000000E+03  0.12500000000E+03 0.  0.
        -13    1    3    3    0    0 -0.58184883122E+02 -0.48842166475E+01 -0.20656570040E+02  0.61935783244E+02  0.10566000000E+00 0. -1.
         23    2    1    0    0    0 -0.23272146109E+02 -0.25612770561E+01 -0.14492943621E+02  0.97464598433E+02  0.93494115367E+02 0.  0.
         13    1    3    3    0    0  0.34912737013E+02  0.23229395914E+01  0.61636264190E+01  0.35528815189E+02  0.10566000000E+00 0.  1.
         22    1    1    0    0    0  0.23272146109E+02  0.25612770561E+01  0.14492943621E+02  0.27535401567E+02  0.00000000000E+00 0. -1.
</event>
<event>
 5    1  0.1319298E-009  0.9118800E+02  0.7818608E-02  0.1130116E+00
         25   -1    0    0    0    0  0.00000000000E+00  0.00000000000E+00  0.99999998245E-14  0.12500000000E+03  0.12500000000E+03 0.  0.
        -13    1    3    3    0    0  0.23994617162E+02 -0.24162220520E+02  0.32556165286E+02  0.47111247228E+02  0.10566000000E+00 0. -1.
         23    2    1    0    0    0 -0.76567123273E+01 -0.26096968604E+02 -0.61175921965E+01  0.97123451644E+02  0.93036890054E+02 0.  0.
         13    1    3    3    0    0 -0.31651329490E+02 -0.19347480839E+01 -0.38673757483E+02  0.50012204415E+02  0.10566000000E+00 0.  1.
         22    1    1    0    0    0  0.76567123273E+01  0.26096968604E+02  0.61175921965E+01  0.27876548356E+02  0.00000000000E+00 0. -1.
</event>
<event>
 5    1  0.1319298E-009  0.9118800E+02  0.7818608E-02  0.1130116E+00
         25   -1    0    0    0    0  0.00000000000E+00  0.00000000000E+00  0.99999998245E-14  0.12500000000E+03  0.12500000000E+03 0.  0.
        -13    1    3    3    0    0  0.28028411734E+02  0.11803926584E+02 -0.79413979562E-02  0.30412756768E+02  0.10566000000E+00 0.  1.
         23    2    1    0    0    0 -0.21191392279E+02 -0.14235371382E+01 -0.29004663294E+02  0.89050423403E+02  0.81471503304E+02 0.  0.
         13    1    3    3    0    0 -0.49219804013E+02 -0.13227463723E+02 -0.28996721896E+02  0.58637666635E+02  0.10566000000E+00 0. -1.
         22    1    1    0    0    0  0.21191392279E+02  0.14235371382E+01  0.29004663294E+02  0.35949576597E+02  0.00000000000E+00 0. -1.
</event>
<event>
 5    1  0.1319298E-009  0.9118800E+02  0.7818608E-02  0.1130116E+00
         25   -1    0    0    0    0  0.00000000000E+00  0.00000000000E+00  0.99999998245E-14  0.12500000000E+03  0.12500000000E+03 0.  0.
        -13    1    3    3    0    0 -0.18141258489E+02  0.42525485414E+02 -0.13350471269E+02  0.48122431530E+02  0.10566000000E+00 0. -1.
         23    2    1    0    0    0  0.67427595454E+01  0.58872291923E+01 -0.28653037948E+02  0.94981324854E+02  0.90112880397E+02 0.  0.
         13    1    3    3    0    0  0.24884018035E+02 -0.36638256222E+02 -0.15302566680E+02  0.46858893324E+02  0.10566000000E+00 0.  1.
         22    1    1    0    0    0 -0.67427595454E+01 -0.58872291923E+01  0.28653037948E+02  0.30018675146E+02  0.00000000000E+00 0.  1.
</event>
<event>
 5    1  0.1319298E-009  0.9118800E+02  0.7818608E-02  0.1130116E+00
         25   -1    0    0    0    0  0.00000000000E+00  0.00000000000E+00  0.99999998245E-14  0.12500000000E+03  0.12500000000E+03 0.  0.
        -13    1    3    3    0    0  0.12662254082E+02 -0.86538049754E+01 -0.31483664763E+02  0.35020755702E+02  0.10566000000E+00 0. -1.
         23    2    1    0    0    0  0.93812653274E+01 -0.44958562883E+01  0.28201708106E+02  0.94940771750E+02  0.90056609626E+02 0.  0.
         13    1    3    3    0    0 -0.32809887550E+01  0.41579486871E+01  0.59685372869E+02  0.59920016047E+02  0.10566000000E+00 0.  1.
         22    1    1    0    0    0 -0.93812653274E+01  0.44958562883E+01 -0.28201708106E+02  0.30059228250E+02  0.00000000000E+00 0.  1.
</event>
<event>
 5    1  0.1319298E-009  0.9118800E+02  0.7818608E-02  0.1130116E+00
         25   -1    0    0    0    0  0.00000000000E+00  0.00000000000E+00  0.99999998245E-14  0.12500000000E+03  0.12500000000E+03 0.  0.
        -13    1    3    3    0    0 -0.15411297834E+02 -0.14826588321E+02  0.50784689977E+02  0.55103826748E+02  0.10566000000E+00 0. -1.
         23    2    1    0    0    0 -0.26542959509E+02 -0.12088934313E+02  0.15990498452E+02  0.91737903357E+02  0.85495472624E+02 0.  0.
         13    1    3    3    0    0 -0.11131661675E+02  0.27376540078E+01 -0.34794191525E+02  0.36634076609E+02  0.10566000000E+00 0.  1.
         22    1    1    0    0    0  0.26542959509E+02  0.12088934313E+02 -0.15990498452E+02  0.33262096643E+02  0.00000000000E+00 0. -1.
</event>
<event>
 5    1  0.1319298E-009  0.9118800E+02  0.7818608E-02  0.1130116E+00
         25   -1    0    0    0    0  0.00000000000E+00  0.00000000000E+00  0.99999998245E-14  0.12500000000E+03  0.12500000000E+03 0.  0.
        -13    1    3    3    0    0  0.58131982261E+02 -0.21485836677E+02 -0.45431233724E+00  0.61977303128E+02  0.10566000000E+00 0. -1.
         23    2    1    0    0    0  0.24151289688E+02 -0.13931444355E+02 -0.33997016480E+01  0.96912139514E+02  0.92752546480E+02 0.  0.
         13    1    3    3    0    0 -0.33980692573E+02  0.75543923222E+01 -0.29453893108E+01  0.34934836386E+02  0.10566000000E+00 0.  1.
         22    1    1    0    0    0 -0.24151289688E+02  0.13931444355E+02  0.33997016480E+01  0.28087860486E+02  0.00000000000E+00 0. -1.
</event>
<event>
 5    1  0.1319298E-009  0.9118800E+02  0.7818608E-02  0.1130116E+00
         25   -1    0    0    0    0  0.00000000000E+00  0.00000000000E+00  0.99999998245E-14  0.12500000000E+03  0.12500000000E+03 0.  0.
        -13    1    3    3    0    0 -0.44538716632E+02 -0.90436375966E+00 -0.60145610543E+01  0.44952210866E+02  0.10566000000E+00 0.  1.
         23    2    1    0    0    0 -0.80324663626E+01 -0.21594449925E+02  0.20140540412E+02  0.94398004125E+02  0.89300061766E+02 0.  0.
         13    1    3    3    0    0  0.36506250270E+02 -0.20690086165E+02  0.26155101466E+02  0.49445793259E+02  0.10566000000E+00 0. -1.
         22    1    1    0    0    0  0.80324663626E+01  0.21594449925E+02 -0.20140540412E+02  0.30601995875E+02  0.00000000000E+00 0. -1.
</event>
<event>
 5    1  0.1319298E-009  0.9118800E+02  0.7818608E-02  0.1130116E+00
         25   -1    0    0    0    0  0.00000000000E+00  0.00000000000E+00  0.99999998245E-14  0.12500000000E+03  0.12500000000E+03 0.  0.
        -13    1    3    3    0    0  0.39596518625E+02  0.12708453165E+02  0.62853690371E+01  0.42058365363E+02  0.10566000000E+00 0.  1.
         23    2    1    0    0    0 -0.10077622067E+02  0.72717166684E+01  0.26318279448E+02  0.95895220961E+02  0.91371796744E+02 0.  0.
         13    1    3    3    0    0 -0.49674140691E+02 -0.54367364963E+01  0.20032910410E+02  0.53836855598E+02  0.10566000000E+00 0. -1.
         22    1    1    0    0    0  0.10077622067E+02 -0.72717166684E+01 -0.26318279448E+02  0.29104779039E+02  0.00000000000E+00 0. -1.
</event>
<event>
 5    1  0.1319298E-009  0.9118800E+02  0.7818608E-02  0.1130116E+00
         25   -1    0    0    0    0  0.00000000000E+00  0.00000000000E+00  0.99999998245E-14  0.12500000000E+03  0.12500000000E+03 0.  0.
        -13    1    3    3    0    0  0.14316291379E+02  0.29706410449E+01  0.60175497991E+02  0.61926429169E+02  0.10566000000E+00 0.  1.
         23    2    1    0    0    0  0.41912996228E+01 -0.42536779512E+01  0.26756991910E+02  0.97584723515E+02  0.93654582797E+02 0.  0.
         13    1    3    3    0    0 -0.10124991756E+02 -0.72243189960E+01 -0.33418506081E+02  0.35658294347E+02  0.10566000000E+00 0. -1.
         22    1    1    0    0    0 -0.41912996228E+01  0.42536779512E+01 -0.26756991910E+02  0.27415276485E+02  0.00000000000E+00 0.  1.
</event>
<event>
 5    1  0.1319298E-009  0.9118800E+02  0.7818608E-02  0.1130116E+00
         25   -1    0    0    0    0  0.00000000000E+00  0.00000000000E+00  0.99999998245E-14  0.12500000000E+03  0.12500000000E+03 0.  0.
        -13    1    3    3    0    0  0.43185231028E+02  0.26188354685E+02 -0.17435186155E+02  0.53430244060E+02  0.10566000000E+00 0. -1.
         23    2    1    0    0    0  0.23026972684E+02 -0.11046856613E+02 -0.13908664141E+02  0.95918640847E+02  0.91403830400E+02 0.  0.
         13    1    3    3    0    0 -0.20158258345E+02 -0.37235211299E+02  0.35265220133E+01  0.42488396786E+02  0.10566000000E+00 0.  1.
         22    1    1    0    0    0 -0.23026972684E+02  0.11046856613E+02  0.13908664141E+02  0.29081359153E+02  0.00000000000E+00 0. -1.
</event>
<event>
 5    1  0.1319298E-009  0.9118800E+02  0.7818608E-02  0.1130116E+00
         25   -1    0    0    0    0  0.00000000000E+00  0.00000000000E+00  0.99999998245E-14  0.12500000000E+03  0.12500000000E+03 0.  0.
        -13    1    3    3    0    0 -0.26488715131E+02  0.31840982568E+02  0.36753722261E+02  0.55374610286E+02  0.10566000000E+00 0. -1.
         23    2    1    0    0    0  0.68238425107E+01  0.19880713761E+02  0.24239195225E+02  0.92916574507E+02  0.87201740961E+02 0.  0.
         13    1    3    3    0    0  0.33312557642E+02 -0.11960268808E+02 -0.12514527036E+02  0.37541964221E+02  0.10566000000E+00 0.  1.
         22    1    1    0    0    0 -0.68238425107E+01 -0.19880713761E+02 -0.24239195225E+02  0.32083425493E+02  0.00000000000E+00 0. -1.
</event>
<event>
 5    1  0.1319298E-009  0.9118800E+02  0.7818608E-02  0.1130116E+00
         25   -1    0    0    0    0  0.00000000000E+00  0.00000000000E+00  0.99999998245E-14  0.12500000000E+03  0.12500000000E+03 0.  0.
        -13    1    3    3    0    0  0.12678422812E+02  0.81974044604E+01  0.31588906749E+02  0.35011570066E+02  0.10566000000E+00 0.  1.
         23    2    1    0    0    0  0.37277283292E+02  0.10805716551E+02 -0.11346818024E+02  0.84563511044E+02  0.74268955567E+02 0.  0.
         13    1    3    3    0    0  0.24598860480E+02  0.26083120911E+01 -0.42935724773E+02  0.49551940978E+02  0.10566000000E+00 0. -1.
         22    1    1    0    0    0 -0.37277283292E+02 -0.10805716551E+02  0.11346818024E+02  0.40436488956E+02  0.00000000000E+00 0.  1.
</event>
<event>
 5    1  0.1319298E-009  0.9118800E+02  0.7818608E-02  0.1130116E+00
         25   -1    0    0    0    0  0.00000000000E+00  0.00000000000E+00  0.99999998245E-14  0.12500000000E+03  0.12500000000E+03 0.  0.
        -13    1    3    3    0    0  0.36159779347E+02  0.26832092304E+01  0.10809648961E+02  0.37836344022E+02  0.10566000000E+00 0.  1.
         23    2    1    0    0    0 -0.21044596487E+02 -0.15677277596E+02  0.78237245319E+00  0.98746158742E+02  0.95192119871E+02 0.  0.
         13    1    3    3    0    0 -0.57204375835E+02 -0.18360486827E+02 -0.10027276507E+02  0.60909814721E+02  0.10566000000E+00 0. -1.
         22    1    1    0    0    0  0.21044596487E+02  0.15677277596E+02 -0.78237245319E+00  0.26253841258E+02  0.00000000000E+00 0. -1.
</event>
<event>
 5    1  0.1319298E-009  0.9118800E+02  0.7818608E-02  0.1130116E+00
         25   -1    0    0    0    0  0.00000000000E+00  0.00000000000E+00  0.99999998245E-14  0.12500000000E+03  0.12500000000E+03 0.  0.
        -13    1    3    3    0    0 -0.54126240833E+01  0.44629136848E+02  0.41681080054E+01  0.45149093497E+02  0.10566000000E+00 0.  1.
         23    2    1    0    0    0 -0.38328648484E+01 -0.35328398367E+01  0.26308527257E+02  0.98180036974E+02  0.94445800561E+02 0.  0.
         13    1    3    3    0    0  0.15797592349E+01 -0.48161976685E+02  0.22140419252E+02  0.53030943477E+02  0.10566000000E+00 0. -1.
         22    1    1    0    0    0  0.38328648484E+01  0.35328398367E+01 -0.26308527257E+02  0.26819963026E+02  0.00000000000E+00 0. -1.
</event>
<event>
 5    1  0.1319298E-009  0.9118800E+02  0.7818608E-02  0.1130116E+00
         25   -1    0    0    0    0  0.00000000000E+00  0.00000000000E+00  0.99999998245E-14  0.12500000000E+03  0.12500000000E+03 0.  0.
        -13    1    3    3    0    0  0.37018990962E+02  0.31888669598E+01 -0.18757343758E+02  0.41622393891E+02  0.10566000000E+00 0.  1.
         23    2    1    0    0    0 -0.17406115145E+02  0.11951235087E+02 -0.18770853172E+02  0.96748455027E+02  0.92531690554E+02 0.  0.
         13    1    3    3    0    0 -0.54425106106E+02  0.87623681273E+01 -0.13509414117E-01  0.55126061136E+02  0.10566000000E+00 0. -1.
         22    1    1    0    0    0  0.17406115145E+02 -0.11951235087E+02  0.18770853172E+02  0.28251544973E+02  0.00000000000E+00 0. -1.
</event>
<event>
 5    1  0.1319298E-009  0.9118800E+02  0.7818608E-02  0.1130116E+00
         25   -1    0    0    0    0  0.00000000000E+00  0.00000000000E+00  0.99999998245E-14  0.12500000000E+03  0.12500000000E+03 0.  0.
        -13    1    3    3    0    0 -0.20905047987E+02 -0.16134211346E+02  0.22470076137E+02  0.34673466696E+02  0.10566000000E+00 0. -1.
         23    2    1    0    0    0  0.18493018174E+02 -0.10154067499E+02 -0.22090669668E+02  0.94453404537E+02  0.89377576239E+02 0.  0.
         13    1    3    3    0    0  0.39398066161E+02  0.59801438466E+01 -0.44560745805E+02  0.59779937842E+02  0.10566000000E+00 0.  1.
         22    1    1    0    0    0 -0.18493018174E+02  0.10154067499E+02  0.22090669668E+02  0.30546595463E+02  0.00000000000E+00 0.  1.
</event>
<event>
 5    1  0.1319298E-009  0.9118800E+02  0.7818608E-02  0.1130116E+00
         25   -1    0    0    0    0  0.00000000000E+00  0.00000000000E+00  0.99999998245E-14  0.12500000000E+03  0.12500000000E+03 0.  0.
        -13    1    3    3    0    0 -0.80999026586E+01  0.20357323953E+02  0.58027805264E+02  0.62026336418E+02  0.10566000000E+00 0.  1.
         23    2    1    0    0    0 -0.83099436572E+01  0.64982731367E+01  0.27151771921E+02  0.95870952027E+02  0.91338589910E+02 0.  0.
         13    1    3    3    0    0 -0.21004099854E+00 -0.13859050817E+02 -0.30876033343E+02  0.33844615610E+02  0.10566000000E+00 0. -1.
         22    1    1    0    0    0  0.83099436572E+01 -0.64982731367E+01 -0.27151771921E+02  0.29129047973E+02  0.00000000000E+00 0.  1.
</event>
<event>
 5    1  0.1319298E-009  0.9118800E+02  0.7818608E-02  0.1130116E+00
         25   -1    0    0    0    0  0.00000000000E+00  0.00000000000E+00  0.99999998245E-14  0.12500000000E+03  0.12500000000E+03 0.  0.
        -13    1    3    3    0    0 -0.80894309867E+01  0.24781099204E+01 -0.38312916331E+02  0.39236088545E+02  0.10566000000E+00 0. -1.
         23    2    1    0    0    0  0.21023910873E+02  0.22664367407E+02  0.33269070660E+01  0.93907449622E+02  0.88610735273E+02 0.  0.
         13    1    3    3    0    0  0.29113341860E+02  0.20186257486E+02  0.41639823397E+02  0.54671361078E+02  0.10566000000E+00 0.  1.
         22    1    1    0    0    0 -0.21023910873E+02 -0.22664367407E+02 -0.33269070660E+01  0.31092550378E+02  0.00000000000E+00 0.  1.
</event>
<event>
 5    1  0.1319298E-009  0.9118800E+02  0.7818608E-02  0.1130116E+00
         25   -1    0    0    0    0  0.00000000000E+00  0.00000000000E+00  0.99999998245E-14  0.12500000000E+03  0.12500000000E+03 0.  0.
        -13    1    3    3    0    0 -0.24604965856E+02 -0.29849490983E+02  0.50143306098E+01  0.39007065158E+02  0.10566000000E+00 0.  1.
         23    2    1    0    0    0  0.93430766588E+01  0.96509585094E+01  0.26453738600E+02  0.95331256050E+02  0.90596986775E+02 0.  0.
         13    1    3    3    0    0  0.33948042515E+02  0.39500449493E+02  0.21439407991E+02  0.56324190893E+02  0.10566000000E+00 0. -1.
         22    1    1    0    0    0 -0.93430766588E+01 -0.96509585094E+01 -0.26453738600E+02  0.29668743950E+02  0.00000000000E+00 0. -1.
</event>
<event>
 5    1  0.1319298E-009  0.9118800E+02  0.7818608E-02  0.1130116E+00
         25   -1    0    0    0    0  0.00000000000E+00  0.00000000000E+00  0.99999998245E-14  0.12500000000E+03  0.12500000000E+03 0.  0.
        -13    1    3    3    0    0  0.19230874517E+02 -0.25873231900E+02  0.25621970971E+02  0.41179451479E+02  0.10566000000E+00 0.  1.
         23    2    1    0    0    0 -0.28078315604E+02 -0.92724036218E+01  0.74731186836E+01  0.94500544612E+02  0.89443480215E+02 0.  0.
         13    1    3    3    0    0 -0.47309190121E+02  0.16600828279E+02 -0.18148852288E+02  0.53321093133E+02  0.10566000000E+00 0. -1.
         22    1    1    0    0    0  0.28078315604E+02  0.92724036218E+01 -0.74731186836E+01  0.30499455388E+02  0.00000000000E+00 0. -1.
</event>
<event>
 5    1  0.1319298E-009  0.9118800E+02  0.7818608E-02  0.1130116E+00
         25   -1    0    0    0    0  0.00000000000E+00  0.00000000000E+00  0.99999998245E-14  0.12500000000E+03  0.12500000000E+03 0.  0.
        -13    1    3    3    0    0  0.10665895693E+02 -0.53612618771E+02 -0.32058928823E+01  0.54757311253E+02  0.10566000000E+00 0.  1.
         23    2    1    0    0    0  0.23227654612E+02 -0.12759480163E+02 -0.67726278217E+01  0.97646814437E+02  0.93737418406E+02 0.  0.
         13    1    3    3    0    0  0.12561758919E+02  0.40853138608E+02 -0.35667349395E+01  0.42889503184E+02  0.10566000000E+00 0. -1.
         22    1    1    0    0    0 -0.23227654612E+02  0.12759480163E+02  0.67726278217E+01  0.27353185563E+02  0.00000000000E+00 0.  1.
</event>
<event>
 5    1  0.1319298E-009  0.9118800E+02  0.7818608E-02  0.1130116E+00
         25   -1    0    0    0    0  0.00000000000E+00  0.00000000000E+00  0.99999998245E-14  0.12500000000E+03  0.12500000000E+03 0.  0.
        -13    1    3    3    0    0  0.61474368232E+01  0.13856484698E+02  0.36698139996E+02  0.39705891136E+02  0.10566000000E+00 0. -1.
         23    2    1    0    0    0 -0.24145011447E+02 -0.18233488071E+02  0.43255271586E+01  0.94436102176E+02  0.89353374553E+02 0.  0.
         13    1    3    3    0    0 -0.30292448270E+02 -0.32089972769E+02 -0.32372612837E+02  0.54730211040E+02  0.10566000000E+00 0.  1.
         22    1    1    0    0    0  0.24145011447E+02  0.18233488071E+02 -0.43255271586E+01  0.30563897824E+02  0.00000000000E+00 0.  1.
</event>
<event>
 5    1  0.1319298E-009  0.9118800E+02  0.7818608E-02  0.1130116E+00
         25   -1    0    0    0    0  0.00000000000E+00  0.00000000000E+00  0.99999998245E-14  0.12500000000E+03  0.12500000000E+03 0.  0.
        -13    1    3    3    0    0 -0.17292084072E+02  0.24412053542E+02 -0.15675457438E+02  0.33774186291E+02  0.10566000000E+00 0. -1.
         23    2    1    0    0    0  0.10178504106E+02 -0.23515843171E+02  0.13273306604E+02  0.96142115564E+02  0.91708935721E+02 0.  0.
         13    1    3    3    0    0  0.27470588178E+02 -0.47927896714E+02  0.28948764042E+02  0.62367929273E+02  0.10566000000E+00 0.  1.
         22    1    1    0    0    0 -0.10178504106E+02  0.23515843171E+02 -0.13273306604E+02  0.28857884436E+02  0.00000000000E+00 0.  1.
</event>
<event>
 5    1  0.1319298E-009  0.9118800E+02  0.7818608E-02  0.1130116E+00
         25   -1    0    0    0    0  0.00000000000E+00  0.00000000000E+00  0.99999998245E-14  0.12500000000E+03  0.12500000000E+03 0.  0.
        -13    1    3    3    0    0  0.99924569910E+01  0.32804277683E+02  0.14812656236E+02  0.37354996718E+02  0.10566000000E+00 0.  1.
         23    2    1    0    0    0 -0.95144800044E+01 -0.12899884841E+01 -0.27965667328E+02  0.95431977591E+02  0.90735849574E+02 0.  0.
         13    1    3    3    0    0 -0.19506936995E+02 -0.34094266167E+02 -0.42778323564E+02  0.58076980873E+02  0.10566000000E+00 0. -1.
         22    1    1    0    0    0  0.95144800044E+01  0.12899884841E+01  0.27965667328E+02  0.29568022409E+02  0.00000000000E+00 0. -1.
</event>
<event>
 5    1  0.1319298E-009  0.9118800E+02  0.7818608E-02  0.1130116E+00
         25   -1    0    0    0    0  0.00000000000E+00  0.00000000000E+00  0.99999998245E-14  0.12500000000E+03  0.12500000000E+03 0.  0.
        -13    1    3    3    0    0 -0.48176018595E+01 -0.23768696796E+02 -0.50544234719E+02  0.56061493580E+02  0.10566000000E+00 0.  1.
         23    2    1    0    0    0  0.62866707786E+01  0.70295361879E+01 -0.27036096339E+02  0.96366329021E+02  0.92014032926E+02 0.  0.
         13    1    3    3    0    0  0.11104272638E+02  0.30798232984E+02  0.23508138381E+02  0.40304835441E+02  0.10566000000E+00 0. -1.
         22    1    1    0    0    0 -0.62866707786E+01 -0.70295361879E+01  0.27036096339E+02  0.28633670979E+02  0.00000000000E+00 0.  1.
</event>
<event>
 5    1  0.1319298E-009  0.9118800E+02  0.7818608E-02  0.1130116E+00
         25   -1    0    0    0    0  0.00000000000E+00  0.00000000000E+00  0.99999998245E-14  0.12500000000E+03  0.12500000000E+03 0.  0.
        -13    1    3    3    0    0  0.63699135545E+00 -0.44474475765E+02 -0.15275407216E+02  0.47029075923E+02  0.10566000000E+00 0.  1.
         23    2    1    0    0    0 -0.19697529178E+02 -0.60095171280E+01 -0.25991718304E+02  0.91838631328E+02  0.85642616915E+02 0.  0.
         13    1    3    3    0    0 -0.20334520533E+02  0.38464958637E+02 -0.10716311088E+02  0.44809555405E+02  0.10566000000E+00 0. -1.
         22    1    1    0    0    0  0.19697529178E+02  0.60095171280E+01  0.25991718304E+02  0.33161368672E+02  0.00000000000E+00 0.  1.
</event>
<event>
 5    1  0.1319298E-009  0.9118800E+02  0.7818608E-02  0.1130116E+00
         25   -1    0    0    0    0  0.00000000000E+00  0.00000000000E+00  0.99999998245E-14  0.12500000000E+03  0.12500000000E+03 0.  0.
        -13    1    3    3    0    0 -0.16706935343E+02  0.36072457824E+02 -0.30329617360E+02  0.50002407495E+02  0.10566000000E+00 0.  1.
         23    2    1    0    0    0  0.60638045266E+01  0.28841382643E+02  0.73567015148E+01  0.94623757058E+02  0.89615507946E+02 0.  0.
         13    1    3    3    0    0  0.22770739869E+02 -0.72310751809E+01  0.37686318875E+02  0.44621349563E+02  0.10566000000E+00 0. -1.
         22    1    1    0    0    0 -0.60638045266E+01 -0.28841382643E+02 -0.73567015148E+01  0.30376242942E+02  0.00000000000E+00 0.  1.
</event>
<event>
 5    1  0.1319298E-009  0.9118800E+02  0.7818608E-02  0.1130116E+00
         25   -1    0    0    0    0  0.00000000000E+00  0.00000000000E+00  0.99999998245E-14  0.12500000000E+03  0.12500000000E+03 0.  0.
        -13    1    3    3    0    0  0.22293803092E+02 -0.72008924768E+01  0.27832064261E+02  0.36379959784E+02  0.10566000000E+00 0. -1.
         23    2    1    0    0    0  0.36964803493E+01 -0.24967501020E+02 -0.21389299558E+02  0.91916133694E+02  0.85755661175E+02 0.  0.
         13    1    3    3    0    0 -0.18597322743E+02 -0.17766608543E+02 -0.49221363819E+02  0.55536173910E+02  0.10566000000E+00 0.  1.
         22    1    1    0    0    0 -0.36964803493E+01  0.24967501020E+02  0.21389299558E+02  0.33083866306E+02  0.00000000000E+00 0.  1.
</event>
<event>
 5    1  0.1319298E-009  0.9118800E+02  0.7818608E-02  0.1130116E+00
         25   -1    0    0    0    0  0.00000000000E+00  0.00000000000E+00  0.99999998245E-14  0.12500000000E+03  0.12500000000E+03 0.  0.
        -13    1    3    3    0    0 -0.16562762592E+02 -0.56318921312E+01 -0.29468615408E+02  0.34270304518E+02  0.10566000000E+00 0. -1.
         23    2    1    0    0    0  0.12214932735E+02 -0.14464259358E+02  0.23273677076E+02  0.94998609613E+02  0.90136853747E+02 0.  0.
         13    1    3    3    0    0  0.28777695327E+02 -0.88323672267E+01  0.52742292485E+02  0.60728305095E+02  0.10566000000E+00 0.  1.
         22    1    1    0    0    0 -0.12214932735E+02  0.14464259358E+02 -0.23273677076E+02  0.30001390387E+02  0.00000000000E+00 0.  1.
</event>
<event>
 5    1  0.1319298E-009  0.9118800E+02  0.7818608E-02  0.1130116E+00
         25   -1    0    0    0    0  0.00000000000E+00  0.00000000000E+00  0.99999998245E-14  0.12500000000E+03  0.12500000000E+03 0.  0.
        -13    1    3    3    0    0 -0.41533867492E+02 -0.19003866540E+02 -0.14508269978E+02  0.47924003945E+02  0.10566000000E+00 0.  1.
         23    2    1    0    0    0  0.15502006095E+01 -0.26534728571E+02 -0.19625545056E+02  0.91959767540E+02  0.85819239597E+02 0.  0.
         13    1    3    3    0    0  0.43084068102E+02 -0.75308620307E+01 -0.51172750775E+01  0.44035763595E+02  0.10566000000E+00 0. -1.
         22    1    1    0    0    0 -0.15502006095E+01  0.26534728571E+02  0.19625545056E+02  0.33040232460E+02  0.00000000000E+00 0.  1.
</event>
<event>
 5    1  0.1319298E-009  0.9118800E+02  0.7818608E-02  0.1130116E+00
         25   -1    0    0    0    0  0.00000000000E+00  0.00000000000E+00  0.99999998245E-14  0.12500000000E+03  0.12500000000E+03 0.  0.
        -13    1    3    3    0    0 -0.31352545213E+02 -0.45392639610E+02  0.22844394571E+02  0.59710563131E+02  0.10566000000E+00 0.  1.
         23    2    1    0    0    0 -0.34768146825E+01 -0.22773737242E+02  0.17640842094E+02  0.95983958607E+02  0.91493112592E+02 0.  0.
         13    1    3    3    0    0  0.27875730530E+02  0.22618902368E+02 -0.52035524763E+01  0.36273395476E+02  0.10566000000E+00 0. -1.
         22    1    1    0    0    0  0.34768146825E+01  0.22773737242E+02 -0.17640842094E+02  0.29016041393E+02  0.00000000000E+00 0.  1.
</event>
<event>
 5    1  0.1319298E-009  0.9118800E+02  0.7818608E-02  0.1130116E+00
         25   -1    0    0    0    0  0.00000000000E+00  0.00000000000E+00  0.99999998245E-14  0.12500000000E+03  0.12500000000E+03 0.  0.
        -13    1    3    3    0    0  0.21174931702E+02 -0.24222831931E+02 -0.69683414512E+01  0.32919481556E+02  0.10566000000E+00 0. -1.
         23    2    1    0    0    0 -0.19675906507E+02  0.21824681573E+02 -0.82158171091E+01  0.94488401002E+02  0.89426507539E+02 0.  0.
         13    1    3    3    0    0 -0.40850838209E+02  0.46047513504E+02 -0.12474756579E+01  0.61568919446E+02  0.10566000000E+00 0.  1.
         22    1    1    0    0    0  0.19675906507E+02 -0.21824681573E+02  0.82158171091E+01  0.30511598998E+02  0.00000000000E+00 0.  1.
</event>
<event>
 5    1  0.1319298E-009  0.9118800E+02  0.7818608E-02  0.1130116E+00
         25   -1    0    0    0    0  0.00000000000E+00  0.00000000000E+00  0.99999998245E-14  0.12500000000E+03  0.12500000000E+03 0.  0.
        -13    1    3    3    0    0 -0.15379795737E+02  0.45632358998E+02 -0.31506322146E+02  0.57545719249E+02  0.10566000000E+00 0.  1.
         23    2    1    0    0    0  0.94444317052E+01  0.25842888514E+02 -0.10838244257E+02  0.95427720487E+02  0.90729984690E+02 0.  0.
         13    1    3    3    0    0  0.24824227442E+02 -0.19789470484E+02  0.20668077889E+02  0.37882001238E+02  0.10566000000E+00 0. -1.
         22    1    1    0    0    0 -0.94444317052E+01 -0.25842888514E+02  0.10838244257E+02  0.29572279513E+02  0.00000000000E+00 0.  1.
</event>
<event>
 5    1  0.1319298E-009  0.9118800E+02  0.7818608E-02  0.1130116E+00
         25   -1    0    0    0    0  0.00000000000E+00  0.00000000000E+00  0.99999998245E-14  0.12500000000E+03  0.12500000000E+03 0.  0.
        -13    1    3    3    0    0 -0.36624103125E+02 -0.96668567746E+01 -0.20629275788E+02  0.43131789126E+02  0.10566000000E+00 0. -1.
         23    2    1    0    0    0  0.33393458408E+00 -0.26265151386E+02  0.12913952667E+02  0.95729881054E+02  0.91145324968E+02 0.  0.
         13    1    3    3    0    0  0.36958037709E+02 -0.16598294611E+02  0.33543228455E+02  0.52598091928E+02  0.10566000000E+00 0.  1.
         22    1    1    0    0    0 -0.33393458408E+00  0.26265151386E+02 -0.12913952667E+02  0.29270118946E+02  0.00000000000E+00 0.  1.
</event>
<event>
 5    1  0.1319298E-009  0.9118800E+02  0.7818608E-02  0.1130116E+00
         25   -1    0    0    0    0  0.00000000000E+00  0.00000000000E+00  0.99999998245E-14  0.12500000000E+03  0.12500000000E+03 0.  0.
        -13    1    3    3    0    0 -0.23817692515E+02 -0.69210785808E+01 -0.54834355011E+02  0.60183066214E+02  0.10566000000E+00 0.  1.
         23    2    1    0    0    0 -0.17675876837E+02 -0.11694016503E+02 -0.20056237070E+02  0.95820567358E+02  0.91269610712E+02 0.  0.
         13    1    3    3    0    0  0.61418156783E+01 -0.47729379224E+01  0.34778117941E+02  0.35637501144E+02  0.10566000000E+00 0. -1.
         22    1    1    0    0    0  0.17675876837E+02  0.11694016503E+02  0.20056237070E+02  0.29179432642E+02  0.00000000000E+00 0.  1.
</event>
<event>
 5    1  0.1319298E-009  0.9118800E+02  0.7818608E-02  0.1130116E+00
         25   -1    0    0    0    0  0.00000000000E+00  0.00000000000E+00  0.99999998245E-14  0.12500000000E+03  0.12500000000E+03 0.  0.
        -13    1    3    3    0    0  0.35457671765E+02 -0.15872387709E+00 -0.15069778198E+01  0.35490193384E+02  0.10566000000E+00 0. -1.
         23    2    1    0    0    0 -0.97060595573E+01  0.39503379774E+01  0.31644438463E+02  0.91665584632E+02  0.85389672432E+02 0.  0.
         13    1    3    3    0    0 -0.45163731322E+02  0.41090618545E+01  0.33151416283E+02  0.56175391248E+02  0.10566000000E+00 0.  1.
         22    1    1    0    0    0  0.97060595573E+01 -0.39503379774E+01 -0.31644438463E+02  0.33334415368E+02  0.00000000000E+00 0.  1.
</event>
<event>
 5    1  0.1319298E-009  0.9118800E+02  0.7818608E-02  0.1130116E+00
         25   -1    0    0    0    0  0.00000000000E+00  0.00000000000E+00  0.99999998245E-14  0.12500000000E+03  0.12500000000E+03 0.  0.
        -13    1    3    3    0    0 -0.63868009536E+01 -0.42820970234E+02  0.24204367138E+02  0.49601303116E+02  0.10566000000E+00 0.  1.
         23    2    1    0    0    0  0.24705172755E+02 -0.17124556476E+02  0.41273327840E+01  0.94658100401E+02  0.89663398889E+02 0.  0.
         13    1    3    3    0    0  0.31091973709E+02  0.25696413758E+02 -0.20077034354E+02  0.45056797285E+02  0.10566000000E+00 0. -1.
         22    1    1    0    0    0 -0.24705172755E+02  0.17124556476E+02 -0.41273327840E+01  0.30341899599E+02  0.00000000000E+00 0.  1.
</event>
<event>
 5    1  0.1319298E-009  0.9118800E+02  0.7818608E-02  0.1130116E+00
         25   -1    0    0    0    0  0.00000000000E+00  0.00000000000E+00  0.99999998245E-14  0.12500000000E+03  0.12500000000E+03 0.  0.
        -13    1    3    3    0    0  0.21052437062E+02  0.20496554475E+02  0.21565256298E+02  0.36447020383E+02  0.10566000000E+00 0. -1.
         23    2    1    0    0    0 -0.28066772204E+02  0.43843549958E+01 -0.73209986844E+01  0.95664640919E+02  0.91055808325E+02 0.  0.
         13    1    3    3    0    0 -0.49119209266E+02 -0.16112199479E+02 -0.28886254982E+02  0.59217620536E+02  0.10566000000E+00 0.  1.
         22    1    1    0    0    0  0.28066772204E+02 -0.43843549958E+01  0.73209986844E+01  0.29335359081E+02  0.00000000000E+00 0.  1.
</event>
<event>
 5    1  0.1319298E-009  0.9118800E+02  0.7818608E-02  0.1130116E+00
         25   -1    0    0    0    0  0.00000000000E+00  0.00000000000E+00  0.99999998245E-14  0.12500000000E+03  0.12500000000E+03 0.  0.
        -13    1    3    3    0    0 -0.27928406466E+01 -0.45017092418E+01 -0.33286564595E+02  0.33705665571E+02  0.10566000000E+00 0.  1.
         23    2    1    0    0    0 -0.40284217564E+01 -0.28318271277E+01  0.28777335725E+02  0.95804409954E+02  0.91247479354E+02 0.  0.
         13    1    3    3    0    0 -0.12355811098E+01  0.16698821142E+01  0.62063900320E+02  0.62098744383E+02  0.10566000000E+00 0. -1.
         22    1    1    0    0    0  0.40284217564E+01  0.28318271277E+01 -0.28777335725E+02  0.29195590046E+02  0.00000000000E+00 0. -1.
</event>
<event>
 5    1  0.1319298E-009  0.9118800E+02  0.7818608E-02  0.1130116E+00
         25   -1    0    0    0    0  0.00000000000E+00  0.00000000000E+00  0.99999998245E-14  0.12500000000E+03  0.12500000000E+03 0.  0.
        -13    1    3    3    0    0 -0.16255741933E+02  0.45375876533E+02  0.68309837168E+01  0.48681544958E+02  0.10566000000E+00 0.  1.
         23    2    1    0    0    0  0.61196775961E+01  0.14902828275E+02 -0.23055384561E+02  0.96873580005E+02  0.92700566348E+02 0.  0.
         13    1    3    3    0    0  0.22375419529E+02 -0.30473048257E+02 -0.29886368277E+02  0.48192035048E+02  0.10566000000E+00 0. -1.
         22    1    1    0    0    0 -0.61196775961E+01 -0.14902828275E+02  0.23055384561E+02  0.28126419995E+02  0.00000000000E+00 0. -1.
</event>
<event>
 5    1  0.1319298E-009  0.9118800E+02  0.7818608E-02  0.1130116E+00
         25   -1    0    0    0    0  0.00000000000E+00  0.00000000000E+00  0.99999998245E-14  0.12500000000E+03  0.12500000000E+03 0.  0.
        -13    1    3    3    0    0 -0.41494215023E+02  0.19664034404E+02 -0.41494760765E+02  0.61889178896E+02  0.10566000000E+00 0.  1.
         23    2    1    0    0    0 -0.13404957870E+02  0.12266669265E+02 -0.19669928900E+02  0.98221834019E+02  0.94501103193E+02 0.  0.
         13    1    3    3    0    0  0.28089257152E+02 -0.73973651387E+01  0.21824831865E+02  0.36332655124E+02  0.10566000000E+00 0. -1.
         22    1    1    0    0    0  0.13404957870E+02 -0.12266669265E+02  0.19669928900E+02  0.26778165981E+02  0.00000000000E+00 0.  1.
</event>
<event>
 5    1  0.1319298E-009  0.9118800E+02  0.7818608E-02  0.1130116E+00
         25   -1    0    0    0    0  0.00000000000E+00  0.00000000000E+00  0.99999998245E-14  0.12500000000E+03  0.12500000000E+03 0.  0.
        -13    1    3    3    0    0  0.39596010471E+02 -0.10167295470E+02 -0.21847288669E+02  0.46352272097E+02  0.10566000000E+00 0.  1.
         23    2    1    0    0    0  0.64100987557E+01  0.25213958681E+02 -0.13884718882E+02  0.95510705386E+02  0.90844242230E+02 0.  0.
         13    1    3    3    0    0 -0.33185911715E+02  0.35381254152E+02  0.79625697866E+01  0.49158433288E+02  0.10566000000E+00 0. -1.
         22    1    1    0    0    0 -0.64100987557E+01 -0.25213958681E+02  0.13884718882E+02  0.29489294614E+02  0.00000000000E+00 0.  1.
</event>
<event>
 5    1  0.1319298E-009  0.9118800E+02  0.7818608E-02  0.1130116E+00
         25   -1    0    0    0    0  0.00000000000E+00  0.00000000000E+00  0.99999998245E-14  0.12500000000E+03  0.12500000000E+03 0.  0.
        -13    1    3    3    0    0 -0.48316276172E+02  0.17424873266E+02  0.35301474391E+02  0.62324104564E+02  0.10566000000E+00 0. -1.
         23    2    1    0    0    0 -0.32960389012E+02  0.88770646372E+01  0.24924538735E+02  0.82733912512E+02  0.71122978902E+02 0.  0.
         13    1    3    3    0    0  0.15355887160E+02 -0.85478086285E+01 -0.10376935656E+02  0.20409807948E+02  0.10566000000E+00 0.  1.
         22    1    1    0    0    0  0.32960389012E+02 -0.88770646372E+01 -0.24924538735E+02  0.42266087488E+02  0.00000000000E+00 0. -1.
</event>
<event>
 5    1  0.1319298E-009  0.9118800E+02  0.7818608E-02  0.1130116E+00
         25   -1    0    0    0    0  0.00000000000E+00  0.00000000000E+00  0.99999998245E-14  0.12500000000E+03  0.12500000000E+03 0.  0.
        -13    1    3    3    0    0 -0.11755078104E+02 -0.37919182358E+02  0.42515891084E+02  0.58169222193E+02  0.10566000000E+00 0. -1.
         23    2    1    0    0    0  0.67748434671E+00 -0.56174799252E+01  0.29204315088E+02  0.95252612123E+02  0.90488413792E+02 0.  0.
         13    1    3    3    0    0  0.12432562451E+02  0.32301702433E+02 -0.13311575995E+02  0.37083389929E+02  0.10566000000E+00 0.  1.
         22    1    1    0    0    0 -0.67748434671E+00  0.56174799252E+01 -0.29204315088E+02  0.29747387877E+02  0.00000000000E+00 0. -1.
</event>
<event>
 5    1  0.1319298E-009  0.9118800E+02  0.7818608E-02  0.1130116E+00
         25   -1    0    0    0    0  0.00000000000E+00  0.00000000000E+00  0.99999998245E-14  0.12500000000E+03  0.12500000000E+03 0.  0.
        -13    1    3    3    0    0 -0.43860943969E+02 -0.14900653758E+02 -0.24998131798E+02  0.52637720750E+02  0.10566000000E+00 0.  1.
         23    2    1    0    0    0 -0.14345030055E+01 -0.10338176671E+02 -0.27704532988E+02  0.95394648393E+02  0.90684409344E+02 0.  0.
         13    1    3    3    0    0  0.42426440964E+02  0.45624770871E+01 -0.27064011893E+01  0.42756927643E+02  0.10566000000E+00 0. -1.
         22    1    1    0    0    0  0.14345030055E+01  0.10338176671E+02  0.27704532988E+02  0.29605351607E+02  0.00000000000E+00 0.  1.
</event>
<event>
 5    1  0.1319298E-009  0.9118800E+02  0.7818608E-02  0.1130116E+00
         25   -1    0    0    0    0  0.00000000000E+00  0.00000000000E+00  0.99999998245E-14  0.12500000000E+03  0.12500000000E+03 0.  0.
        -13    1    3    3    0    0  0.28608905689E+02 -0.27997130502E+02 -0.30985350343E+02  0.50620271641E+02  0.10566000000E+00 0. -1.
         23    2    1    0    0    0  0.94824170063E+01 -0.25286401171E+02  0.10216648773E+02  0.96126167061E+02  0.91687195209E+02 0.  0.
         13    1    3    3    0    0 -0.19126488683E+02  0.27107293308E+01  0.41201999116E+02  0.45505895420E+02  0.10566000000E+00 0.  1.
         22    1    1    0    0    0 -0.94824170063E+01  0.25286401171E+02 -0.10216648773E+02  0.28873832939E+02  0.00000000000E+00 0. -1.
</event>
<event>
 5    1  0.1319298E-009  0.9118800E+02  0.7818608E-02  0.1130116E+00
         25   -1    0    0    0    0  0.00000000000E+00  0.00000000000E+00  0.99999998245E-14  0.12500000000E+03  0.12500000000E+03 0.  0.
        -13    1    3    3    0    0  0.35042951776E+02  0.26528884018E+02 -0.30218515546E+02  0.53338166468E+02  0.10566000000E+00 0.  1.
         23    2    1    0    0    0 -0.42280857423E+01  0.25284298731E+02 -0.13346416985E+02  0.96098454753E+02  0.91649406371E+02 0.  0.
         13    1    3    3    0    0 -0.39271037518E+02 -0.12445852873E+01  0.16872098561E+02  0.42760288284E+02  0.10566000000E+00 0. -1.
         22    1    1    0    0    0  0.42280857423E+01 -0.25284298731E+02  0.13346416985E+02  0.28901545247E+02  0.00000000000E+00 0.  1.
</event>
<event>
 5    1  0.1319298E-009  0.9118800E+02  0.7818608E-02  0.1130116E+00
         25   -1    0    0    0    0  0.00000000000E+00  0.00000000000E+00  0.99999998245E-14  0.12500000000E+03  0.12500000000E+03 0.  0.
        -13    1    3    3    0    0 -0.16714874607E+02  0.11890975357E+02 -0.38204321328E+02  0.43363160173E+02  0.10566000000E+00 0.  1.
         23    2    1    0    0    0 -0.24195866337E+02 -0.20875434928E+02 -0.16784637570E+01  0.92999359822E+02  0.87320329566E+02 0.  0.
         13    1    3    3    0    0 -0.74809917295E+01 -0.32766410285E+02  0.36525857571E+02  0.49636199648E+02  0.10566000000E+00 0. -1.
         22    1    1    0    0    0  0.24195866337E+02  0.20875434928E+02  0.16784637570E+01  0.32000640178E+02  0.00000000000E+00 0.  1.
</event>
<event>
 5    1  0.1319298E-009  0.9118800E+02  0.7818608E-02  0.1130116E+00
         25   -1    0    0    0    0  0.00000000000E+00  0.00000000000E+00  0.99999998245E-14  0.12500000000E+03  0.12500000000E+03 0.  0.
        -13    1    3    3    0    0  0.54844543502E+02 -0.28478546608E+01 -0.17968477330E+02  0.57783315669E+02  0.10566000000E+00 0. -1.
         23    2    1    0    0    0  0.21228361546E+02 -0.18028772211E+02 -0.88138145589E+01  0.95787617549E+02  0.91224472524E+02 0.  0.
         13    1    3    3    0    0 -0.33616181956E+02 -0.15180917550E+02  0.91546627715E+01  0.38004301881E+02  0.10566000000E+00 0.  1.
         22    1    1    0    0    0 -0.21228361546E+02  0.18028772211E+02  0.88138145589E+01  0.29212382451E+02  0.00000000000E+00 0. -1.
</event>
<event>
 5    1  0.1319298E-009  0.9118800E+02  0.7818608E-02  0.1130116E+00
         25   -1    0    0    0    0  0.00000000000E+00  0.00000000000E+00  0.99999998245E-14  0.12500000000E+03  0.12500000000E+03 0.  0.
        -13    1    3    3    0    0 -0.22676429720E+02  0.44989957603E+02  0.44545658843E+01  0.50578365644E+02  0.10566000000E+00 0.  1.
         23    2    1    0    0    0  0.16716658378E+02  0.21888221059E+02  0.78201459415E+01  0.96369673928E+02  0.92018576831E+02 0.  0.
         13    1    3    3    0    0  0.39393088098E+02 -0.23101736544E+02  0.33655800572E+01  0.45791308284E+02  0.10566000000E+00 0. -1.
         22    1    1    0    0    0 -0.16716658378E+02 -0.21888221059E+02 -0.78201459415E+01  0.28630326072E+02  0.00000000000E+00 0. -1.
</event>
<event>
 5    1  0.1319298E-009  0.9118800E+02  0.7818608E-02  0.1130116E+00
         25   -1    0    0    0    0  0.00000000000E+00  0.00000000000E+00  0.99999998245E-14  0.12500000000E+03  0.12500000000E+03 0.  0.
        -13    1    3    3    0    0 -0.35307022895E+02  0.46568913629E+02  0.21578046911E+02  0.62296652035E+02  0.10566000000E+00 0.  1.
         23    2    1    0    0    0 -0.14866606224E+02  0.20993975219E+02  0.13174971933E+02  0.96097701449E+02  0.91648378939E+02 0.  0.
         13    1    3    3    0    0  0.20440416672E+02 -0.25574938409E+02 -0.84030749780E+01  0.33801049414E+02  0.10566000000E+00 0. -1.
         22    1    1    0    0    0  0.14866606224E+02 -0.20993975219E+02 -0.13174971933E+02  0.28902298551E+02  0.00000000000E+00 0.  1.
</event>
<event>
 5    1  0.1319298E-009  0.9118800E+02  0.7818608E-02  0.1130116E+00
         25   -1    0    0    0    0  0.00000000000E+00  0.00000000000E+00  0.99999998245E-14  0.12500000000E+03  0.12500000000E+03 0.  0.
        -13    1    3    3    0    0 -0.29301765136E+02  0.50413494562E+02 -0.90490595948E+01  0.59008563087E+02  0.10566000000E+00 0.  1.
         23    2    1    0    0    0 -0.57550011166E+01  0.22391439984E+02 -0.16799095030E+02  0.96421927703E+02  0.92089532118E+02 0.  0.
         13    1    3    3    0    0  0.23546764020E+02 -0.28022054578E+02 -0.77500354354E+01  0.37413364616E+02  0.10566000000E+00 0. -1.
         22    1    1    0    0    0  0.57550011166E+01 -0.22391439984E+02  0.16799095030E+02  0.28578072297E+02  0.00000000000E+00 0.  1.
</event>
<event>
 5    1  0.1319298E-009  0.9118800E+02  0.7818608E-02  0.1130116E+00
         25   -1    0    0    0    0  0.00000000000E+00  0.00000000000E+00  0.99999998245E-14  0.12500000000E+03  0.12500000000E+03 0.  0.
        -13    1    3    3    0    0  0.90929050623E+01  0.36472193859E+02 -0.13481832655E+02  0.39933354769E+02  0.10566000000E+00 0.  1.
         23    2    1    0    0    0  0.23684883454E+02 -0.11044237749E+02  0.12511451675E+02  0.96026127033E+02  0.91550705941E+02 0.  0.
         13    1    3    3    0    0  0.14591978391E+02 -0.47516431607E+02  0.25993284330E+02  0.56092772265E+02  0.10566000000E+00 0. -1.
         22    1    1    0    0    0 -0.23684883454E+02  0.11044237749E+02 -0.12511451675E+02  0.28973872967E+02  0.00000000000E+00 0. -1.
</event>
<event>
 5    1  0.1319298E-009  0.9118800E+02  0.7818608E-02  0.1130116E+00
         25   -1    0    0    0    0  0.00000000000E+00  0.00000000000E+00  0.99999998245E-14  0.12500000000E+03  0.12500000000E+03 0.  0.
        -13    1    3    3    0    0 -0.42909330904E+02 -0.16513562539E+02  0.59168570612E+01  0.46356539861E+02  0.10566000000E+00 0. -1.
         23    2    1    0    0    0 -0.14456497924E+02 -0.86766918947E+01 -0.28618390544E+02  0.91784226762E+02  0.85563173682E+02 0.  0.
         13    1    3    3    0    0  0.28452832980E+02  0.78368706445E+01 -0.34535247605E+02  0.45427686902E+02  0.10566000000E+00 0.  1.
         22    1    1    0    0    0  0.14456497924E+02  0.86766918947E+01  0.28618390544E+02  0.33215773238E+02  0.00000000000E+00 0.  1.
</event>
<event>
 5    1  0.1319298E-009  0.9118800E+02  0.7818608E-02  0.1130116E+00
         25   -1    0    0    0    0  0.00000000000E+00  0.00000000000E+00  0.99999998245E-14  0.12500000000E+03  0.12500000000E+03 0.  0.
        -13    1    3    3    0    0  0.41513302899E+02 -0.17610600921E+02 -0.99259759497E+01  0.46173842649E+02  0.10566000000E+00 0.  1.
         23    2    1    0    0    0  0.16084157034E+02  0.15534828704E+02  0.17889505724E+02  0.96363215520E+02  0.92009803173E+02 0.  0.
         13    1    3    3    0    0 -0.25429145865E+02  0.33145429624E+02  0.27815481674E+02  0.50189372871E+02  0.10566000000E+00 0. -1.
         22    1    1    0    0    0 -0.16084157034E+02 -0.15534828704E+02 -0.17889505724E+02  0.28636784480E+02  0.00000000000E+00 0.  1.
</event>
<event>
 5    1  0.1319298E-009  0.9118800E+02  0.7818608E-02  0.1130116E+00
         25   -1    0    0    0    0  0.00000000000E+00  0.00000000000E+00  0.99999998245E-14  0.12500000000E+03  0.12500000000E+03 0.  0.
        -13    1    3    3    0    0  0.36426111966E+02 -0.15333071283E+02 -0.58179764243E+00  0.39526122507E+02  0.10566000000E+00 0.  1.
         23    2    1    0    0    0 -0.16527944741E+02 -0.17560226675E+02 -0.17547608589E+02  0.95176299937E+02  0.90382935249E+02 0.  0.
         13    1    3    3    0    0 -0.52954056707E+02 -0.22271553923E+01 -0.16965810947E+02  0.55650177430E+02  0.10566000000E+00 0. -1.
         22    1    1    0    0    0  0.16527944741E+02  0.17560226675E+02  0.17547608589E+02  0.29823700063E+02  0.00000000000E+00 0. -1.
</event>
<event>
 5    1  0.1319298E-009  0.9118800E+02  0.7818608E-02  0.1130116E+00
         25   -1    0    0    0    0  0.00000000000E+00  0.00000000000E+00  0.99999998245E-14  0.12500000000E+03  0.12500000000E+03 0.  0.
        -13    1    3    3    0    0 -0.53805923909E+02  0.21318034639E+02 -0.17104684475E+02  0.60349958107E+02  0.10566000000E+00 0.  1.
         23    2    1    0    0    0 -0.21921658361E+02  0.17041872526E+02  0.90625969694E+00  0.97218606387E+02  0.93164647784E+02 0.  0.
         13    1    3    3    0    0  0.31884265548E+02 -0.42761621131E+01  0.18010944172E+02  0.36868648279E+02  0.10566000000E+00 0. -1.
         22    1    1    0    0    0  0.21921658361E+02 -0.17041872526E+02 -0.90625969694E+00  0.27781393613E+02  0.00000000000E+00 0.  1.
</event>
<event>
 5    1  0.1319298E-009  0.9118800E+02  0.7818608E-02  0.1130116E+00
         25   -1    0    0    0    0  0.00000000000E+00  0.00000000000E+00  0.99999998245E-14  0.12500000000E+03  0.12500000000E+03 0.  0.
        -13    1    3    3    0    0  0.33296364689E+01 -0.94489865882E+01  0.56347904111E+02  0.57231698283E+02  0.10566000000E+00 0.  1.
         23    2    1    0    0    0 -0.64404043919E+01 -0.19554981479E+02  0.19609664967E+02  0.96567359083E+02  0.92286725864E+02 0.  0.
         13    1    3    3    0    0 -0.97700408609E+01 -0.10105994891E+02 -0.36738239144E+02  0.39335660800E+02  0.10566000000E+00 0. -1.
         22    1    1    0    0    0  0.64404043919E+01  0.19554981479E+02 -0.19609664967E+02  0.28432640917E+02  0.00000000000E+00 0.  1.
</event>
<event>
 5    1  0.1319298E-009  0.9118800E+02  0.7818608E-02  0.1130116E+00
         25   -1    0    0    0    0  0.00000000000E+00  0.00000000000E+00  0.99999998245E-14  0.12500000000E+03  0.12500000000E+03 0.  0.
        -13    1    3    3    0    0 -0.27651335271E+02 -0.53941689824E+01 -0.53873923418E+02  0.60795593506E+02  0.10566000000E+00 0. -1.
         23    2    1    0    0    0 -0.39617541999E+01  0.20681628130E+01 -0.27940597915E+02  0.96704244036E+02  0.92471947146E+02 0.  0.
         13    1    3    3    0    0  0.23689581071E+02  0.74623317955E+01  0.25933325503E+02  0.35908650529E+02  0.10566000000E+00 0.  1.
         22    1    1    0    0    0  0.39617541999E+01 -0.20681628130E+01  0.27940597915E+02  0.28295755964E+02  0.00000000000E+00 0. -1.
</event>
<event>
 5    1  0.1319298E-009  0.9118800E+02  0.7818608E-02  0.1130116E+00
         25   -1    0    0    0    0  0.00000000000E+00  0.00000000000E+00  0.99999998245E-14  0.12500000000E+03  0.12500000000E+03 0.  0.
        -13    1    3    3    0    0 -0.23131430839E+02 -0.49438501749E+02 -0.17537996029E+02  0.57330803383E+02  0.10566000000E+00 0. -1.
         23    2    1    0    0    0 -0.21933772477E+02 -0.19994395139E+02  0.55990336750E+01  0.94797096330E+02  0.89856964574E+02 0.  0.
         13    1    3    3    0    0  0.11976583622E+01  0.29444106610E+02  0.23137029704E+02  0.37466292947E+02  0.10566000000E+00 0.  1.
         22    1    1    0    0    0  0.21933772477E+02  0.19994395139E+02 -0.55990336750E+01  0.30202903670E+02  0.00000000000E+00 0. -1.
</event>
<event>
 5    1  0.1319298E-009  0.9118800E+02  0.7818608E-02  0.1130116E+00
         25   -1    0    0    0    0  0.00000000000E+00  0.00000000000E+00  0.99999998245E-14  0.12500000000E+03  0.12500000000E+03 0.  0.
        -13    1    3    3    0    0  0.29601072905E+02 -0.30957532025E+02 -0.97481258294E+01  0.43927547478E+02  0.10566000000E+00 0.  1.
         23    2    1    0    0    0  0.48306690114E+01  0.10313784791E+02  0.21046487652E+02  0.10106959753E+03  0.98195719779E+02 0.  0.
         13    1    3    3    0    0 -0.24770403894E+02  0.41271316816E+02  0.30794613481E+02  0.57142050053E+02  0.10566000000E+00 0. -1.
         22    1    1    0    0    0 -0.48306690114E+01 -0.10313784791E+02 -0.21046487652E+02  0.23930402468E+02  0.00000000000E+00 0. -1.
</event>
<event>
 5    1  0.1319298E-009  0.9118800E+02  0.7818608E-02  0.1130116E+00
         25   -1    0    0    0    0  0.00000000000E+00  0.00000000000E+00  0.99999998245E-14  0.12500000000E+03  0.12500000000E+03 0.  0.
        -13    1    3    3    0    0  0.45739066598E+02  0.10979408959E+02 -0.13578880153E+01  0.47058098753E+02  0.10566000000E+00 0. -1.
         23    2    1    0    0    0  0.18408042147E+00  0.28810571287E+02  0.21806286324E+01  0.96106435929E+02  0.91660291196E+02 0.  0.
         13    1    3    3    0    0 -0.45554986177E+02  0.17831162329E+02  0.35385166477E+01  0.49048337175E+02  0.10566000000E+00 0.  1.
         22    1    1    0    0    0 -0.18408042147E+00 -0.28810571287E+02 -0.21806286324E+01  0.28893564071E+02  0.00000000000E+00 0.  1.
</event>
<event>
 5    1  0.1319298E-009  0.9118800E+02  0.7818608E-02  0.1130116E+00
         25   -1    0    0    0    0  0.00000000000E+00  0.00000000000E+00  0.99999998245E-14  0.12500000000E+03  0.12500000000E+03 0.  0.
        -13    1    3    3    0    0  0.45573262474E+02  0.74409699561E+01 -0.11453232049E+02  0.47576023108E+02  0.10566000000E+00 0.  1.
         23    2    1    0    0    0  0.10495631343E+02 -0.10750815649E+01  0.24377830157E+02  0.98437005424E+02  0.94785290821E+02 0.  0.
         13    1    3    3    0    0 -0.35077631131E+02 -0.85160515210E+01  0.35831062206E+02  0.50860982316E+02  0.10566000000E+00 0. -1.
         22    1    1    0    0    0 -0.10495631343E+02  0.10750815649E+01 -0.24377830157E+02  0.26562994576E+02  0.00000000000E+00 0.  1.
</event>
<event>
 5    1  0.1319298E-009  0.9118800E+02  0.7818608E-02  0.1130116E+00
         25   -1    0    0    0    0  0.00000000000E+00  0.00000000000E+00  0.99999998245E-14  0.12500000000E+03  0.12500000000E+03 0.  0.
        -13    1    3    3    0    0 -0.70532929496E+01  0.18662920360E+02 -0.50006345252E+02  0.53839569717E+02  0.10566000000E+00 0.  1.
         23    2    1    0    0    0 -0.24961369344E+02  0.69909434808E+01 -0.14461534443E+02  0.95317021229E+02  0.90577344338E+02 0.  0.
         13    1    3    3    0    0 -0.17908076394E+02 -0.11671976879E+02  0.35544810809E+02  0.41477451512E+02  0.10566000000E+00 0. -1.
         22    1    1    0    0    0  0.24961369344E+02 -0.69909434808E+01  0.14461534443E+02  0.29682978771E+02  0.00000000000E+00 0.  1.
</event>
<event>
 5    1  0.1319298E-009  0.9118800E+02  0.7818608E-02  0.1130116E+00
         25   -1    0    0    0    0  0.00000000000E+00  0.00000000000E+00  0.99999998245E-14  0.12500000000E+03  0.12500000000E+03 0.  0.
        -13    1    3    3    0    0  0.12391298580E+02 -0.37636283353E+02 -0.29955532704E+02  0.49672720972E+02  0.10566000000E+00 0. -1.
         23    2    1    0    0    0  0.54944122527E+01 -0.24870960547E+02  0.13981964560E+02  0.95944044027E+02  0.91438564112E+02 0.  0.
         13    1    3    3    0    0 -0.68968863270E+01  0.12765322806E+02  0.43937497265E+02  0.46271323055E+02  0.10566000000E+00 0.  1.
         22    1    1    0    0    0 -0.54944122527E+01  0.24870960547E+02 -0.13981964560E+02  0.29055955973E+02  0.00000000000E+00 0. -1.
</event>
<event>
 5    1  0.1319298E-009  0.9118800E+02  0.7818608E-02  0.1130116E+00
         25   -1    0    0    0    0  0.00000000000E+00  0.00000000000E+00  0.99999998245E-14  0.12500000000E+03  0.12500000000E+03 0.  0.
        -13    1    3    3    0    0  0.11458963773E+02 -0.24437260368E+02 -0.34561043292E+02  0.43851618242E+02  0.10566000000E+00 0. -1.
         23    2    1    0    0    0 -0.11562663035E+01  0.23405553508E+02 -0.15649711038E+02  0.96820746242E+02  0.92629296448E+02 0.  0.
         13    1    3    3    0    0 -0.12615230076E+02  0.47842813876E+02  0.18911332253E+02  0.52969128000E+02  0.10566000000E+00 0.  1.
         22    1    1    0    0    0  0.11562663035E+01 -0.23405553508E+02  0.15649711038E+02  0.28179253758E+02  0.00000000000E+00 0.  1.
</event>
<event>
 5    1  0.1319298E-009  0.9118800E+02  0.7818608E-02  0.1130116E+00
         25   -1    0    0    0    0  0.00000000000E+00  0.00000000000E+00  0.99999998245E-14  0.12500000000E+03  0.12500000000E+03 0.  0.
        -13    1    3    3    0    0  0.28438224082E+02 -0.83674960571E+01 -0.17806044048E+02  0.34580542909E+02  0.10566000000E+00 0.  1.
         23    2    1    0    0    0 -0.15532949605E+02  0.21604376917E+02  0.12261509358E+02  0.95702112070E+02  0.91107233618E+02 0.  0.
         13    1    3    3    0    0 -0.43971173687E+02  0.29971872974E+02  0.30067553406E+02  0.61121569162E+02  0.10566000000E+00 0. -1.
         22    1    1    0    0    0  0.15532949605E+02 -0.21604376917E+02 -0.12261509358E+02  0.29297887930E+02  0.00000000000E+00 0. -1.
</event>
<event>
 5    1  0.1319298E-009  0.9118800E+02  0.7818608E-02  0.1130116E+00
         25   -1    0    0    0    0  0.00000000000E+00  0.00000000000E+00  0.99999998245E-14  0.12500000000E+03  0.12500000000E+03 0.  0.
        -13    1    3    3    0    0 -0.38368505110E+01 -0.32283909021E+02 -0.11826719685E+02  0.34595587379E+02  0.10566000000E+00 0. -1.
         23    2    1    0    0    0 -0.99234767899E+01  0.26963104038E+02  0.33949274858E+01  0.96068876558E+02  0.91609055991E+02 0.  0.
         13    1    3    3    0    0 -0.60866262789E+01  0.59247013059E+02  0.15221647171E+02  0.61473289179E+02  0.10566000000E+00 0.  1.
         22    1    1    0    0    0  0.99234767899E+01 -0.26963104038E+02 -0.33949274858E+01  0.28931123442E+02  0.00000000000E+00 0.  1.
</event>
<event>
 5    1  0.1319298E-009  0.9118800E+02  0.7818608E-02  0.1130116E+00
         25   -1    0    0    0    0  0.00000000000E+00  0.00000000000E+00  0.99999998245E-14  0.12500000000E+03  0.12500000000E+03 0.  0.
        -13    1    3    3    0    0  0.14016096769E+02  0.33003883882E+02 -0.37073999904E+01  0.36048069278E+02  0.10566000000E+00 0.  1.
         23    2    1    0    0    0  0.11487307808E+02 -0.23467513837E+02 -0.16622073153E+02  0.94032666207E+02  0.88787198129E+02 0.  0.
         13    1    3    3    0    0 -0.25287889605E+01 -0.56471397720E+02 -0.12914673162E+02  0.57984596928E+02  0.10566000000E+00 0. -1.
         22    1    1    0    0    0 -0.11487307808E+02  0.23467513837E+02  0.16622073153E+02  0.30967333793E+02  0.00000000000E+00 0. -1.
</event>
<event>
 5    1  0.1319298E-009  0.9118800E+02  0.7818608E-02  0.1130116E+00
         25   -1    0    0    0    0  0.00000000000E+00  0.00000000000E+00  0.99999998245E-14  0.12500000000E+03  0.12500000000E+03 0.  0.
        -13    1    3    3    0    0  0.31747232425E+02  0.51088597552E+02  0.62113327762E+01  0.60469193688E+02  0.10566000000E+00 0. -1.
         23    2    1    0    0    0  0.12735725945E+02  0.23878487978E+02 -0.82953517286E+01  0.96694633658E+02  0.92458955296E+02 0.  0.
         13    1    3    3    0    0 -0.19011506480E+02 -0.27210109574E+02 -0.14506684505E+02  0.36225439970E+02  0.10566000000E+00 0.  1.
         22    1    1    0    0    0 -0.12735725945E+02 -0.23878487978E+02  0.82953517286E+01  0.28305366342E+02  0.00000000000E+00 0. -1.
</event>
<event>
 5    1  0.1319298E-009  0.9118800E+02  0.7818608E-02  0.1130116E+00
         25   -1    0    0    0    0  0.00000000000E+00  0.00000000000E+00  0.99999998245E-14  0.12500000000E+03  0.12500000000E+03 0.  0.
        -13    1    3    3    0    0  0.13096806733E+02  0.13327175248E+02 -0.34441487747E+02  0.39183761802E+02  0.10566000000E+00 0.  1.
         23    2    1    0    0    0 -0.25240242742E+02 -0.15067849768E+02 -0.51769963633E+01  0.95151863682E+02  0.90349133479E+02 0.  0.
         13    1    3    3    0    0 -0.38337049475E+02 -0.28395025016E+02  0.29264491383E+02  0.55968101880E+02  0.10566000000E+00 0. -1.
         22    1    1    0    0    0  0.25240242742E+02  0.15067849768E+02  0.51769963633E+01  0.29848136318E+02  0.00000000000E+00 0. -1.
</event>
<event>
 5    1  0.1319298E-009  0.9118800E+02  0.7818608E-02  0.1130116E+00
         25   -1    0    0    0    0  0.00000000000E+00  0.00000000000E+00  0.99999998245E-14  0.12500000000E+03  0.12500000000E+03 0.  0.
        -13    1    3    3    0    0 -0.39145437937E+02 -0.27372458191E+02  0.31313211372E+02  0.57115191930E+02  0.10566000000E+00 0.  1.
         23    2    1    0    0    0 -0.26640519651E+02 -0.12048743840E+02 -0.18222061355E+01  0.95704779390E+02  0.91110893133E+02 0.  0.
         13    1    3    3    0    0  0.12504918285E+02  0.15323714352E+02 -0.33135417508E+02  0.38589587460E+02  0.10566000000E+00 0. -1.
         22    1    1    0    0    0  0.26640519651E+02  0.12048743840E+02  0.18222061355E+01  0.29295220610E+02  0.00000000000E+00 0.  1.
</event>
<event>
 5    1  0.1319298E-009  0.9118800E+02  0.7818608E-02  0.1130116E+00
         25   -1    0    0    0    0  0.00000000000E+00  0.00000000000E+00  0.99999998245E-14  0.12500000000E+03  0.12500000000E+03 0.  0.
        -13    1    3    3    0    0 -0.21604537645E+00 -0.12572649631E+02  0.52939093947E+02  0.54412103675E+02  0.10566000000E+00 0.  1.
         23    2    1    0    0    0  0.21627931780E+02 -0.58827219216E+01  0.17558123033E+02  0.96527881450E+02  0.92233238925E+02 0.  0.
         13    1    3    3    0    0  0.21843977156E+02  0.66899277097E+01 -0.35380970914E+02  0.42115777776E+02  0.10566000000E+00 0. -1.
         22    1    1    0    0    0 -0.21627931780E+02  0.58827219216E+01 -0.17558123033E+02  0.28472118550E+02  0.00000000000E+00 0.  1.
</event>
<event>
 5    1  0.1319298E-009  0.9118800E+02  0.7818608E-02  0.1130116E+00
         25   -1    0    0    0    0  0.00000000000E+00  0.00000000000E+00  0.99999998245E-14  0.12500000000E+03  0.12500000000E+03 0.  0.
        -13    1    3    3    0    0  0.19824326554E+02 -0.20497873131E+02  0.40173681616E+02  0.49265632898E+02  0.10566000000E+00 0. -1.
         23    2    1    0    0    0 -0.20500596611E+02 -0.75105358245E+01  0.13311518211E+02  0.99428939661E+02  0.96084519644E+02 0.  0.
         13    1    3    3    0    0 -0.40324923165E+02  0.12987337307E+02 -0.26862163405E+02  0.50163306763E+02  0.10566000000E+00 0.  1.
         22    1    1    0    0    0  0.20500596611E+02  0.75105358245E+01 -0.13311518211E+02  0.25571060339E+02  0.00000000000E+00 0. -1.
</event>
<event>
 5    1  0.1319298E-009  0.9118800E+02  0.7818608E-02  0.1130116E+00
         25   -1    0    0    0    0  0.00000000000E+00  0.00000000000E+00  0.99999998245E-14  0.12500000000E+03  0.12500000000E+03 0.  0.
        -13    1    3    3    0    0  0.11153064626E+02  0.33281198904E+02 -0.10657358288E+02  0.36682686662E+02  0.10566000000E+00 0.  1.
         23    2    1    0    0    0  0.12357587980E+02 -0.20615298569E+02  0.15291361292E+02  0.96512700269E+02  0.92212662186E+02 0.  0.
         13    1    3    3    0    0  0.12045233541E+01 -0.53896497473E+02  0.25948719580E+02  0.59830013607E+02  0.10566000000E+00 0. -1.
         22    1    1    0    0    0 -0.12357587980E+02  0.20615298569E+02 -0.15291361292E+02  0.28487299731E+02  0.00000000000E+00 0. -1.
</event>
<event>
 5    1  0.1319298E-009  0.9118800E+02  0.7818608E-02  0.1130116E+00
         25   -1    0    0    0    0  0.00000000000E+00  0.00000000000E+00  0.99999998245E-14  0.12500000000E+03  0.12500000000E+03 0.  0.
        -13    1    3    3    0    0  0.78134440967E+00 -0.13099253994E+02  0.40371157707E+02  0.42450471057E+02  0.10566000000E+00 0.  1.
         23    2    1    0    0    0  0.20306204424E+02 -0.19302684242E+02 -0.87303781877E+01  0.95654556395E+02  0.91041963395E+02 0.  0.
         13    1    3    3    0    0  0.19524860014E+02 -0.62034302480E+01 -0.49101535895E+02  0.53204085338E+02  0.10566000000E+00 0. -1.
         22    1    1    0    0    0 -0.20306204424E+02  0.19302684242E+02  0.87303781877E+01  0.29345443605E+02  0.00000000000E+00 0.  1.
</event>
<event>
 5    1  0.1319298E-009  0.9118800E+02  0.7818608E-02  0.1130116E+00
         25   -1    0    0    0    0  0.00000000000E+00  0.00000000000E+00  0.99999998245E-14  0.12500000000E+03  0.12500000000E+03 0.  0.
        -13    1    3    3    0    0  0.25175640544E+02  0.22702705787E+02 -0.26013191117E+02  0.42730820294E+02  0.10566000000E+00 0.  1.
         23    2    1    0    0    0  0.15246408963E+02 -0.24422532291E+02 -0.16482761403E+02  0.91824790985E+02  0.85622413808E+02 0.  0.
         13    1    3    3    0    0 -0.99292315819E+01 -0.47125238077E+02  0.95304297147E+01  0.49093970691E+02  0.10566000000E+00 0. -1.
         22    1    1    0    0    0 -0.15246408963E+02  0.24422532291E+02  0.16482761403E+02  0.33175209015E+02  0.00000000000E+00 0. -1.
</event>
<event>
 5    1  0.1319298E-009  0.9118800E+02  0.7818608E-02  0.1130116E+00
         25   -1    0    0    0    0  0.00000000000E+00  0.00000000000E+00  0.99999998245E-14  0.12500000000E+03  0.12500000000E+03 0.  0.
        -13    1    3    3    0    0  0.44180568588E+02  0.22311999494E+02  0.10687273425E+02  0.50635727895E+02  0.10566000000E+00 0.  1.
         23    2    1    0    0    0  0.18952753916E+02  0.10879260372E+01 -0.21228111985E+02  0.96521530896E+02  0.92224631872E+02 0.  0.
         13    1    3    3    0    0 -0.25227814672E+02 -0.21224073457E+02 -0.31915385410E+02  0.45885803001E+02  0.10566000000E+00 0. -1.
         22    1    1    0    0    0 -0.18952753916E+02 -0.10879260372E+01  0.21228111985E+02  0.28478469104E+02  0.00000000000E+00 0. -1.
</event>
<event>
 5    1  0.1319298E-009  0.9118800E+02  0.7818608E-02  0.1130116E+00
         25   -1    0    0    0    0  0.00000000000E+00  0.00000000000E+00  0.99999998245E-14  0.12500000000E+03  0.12500000000E+03 0.  0.
        -13    1    3    3    0    0  0.58834767133E+02  0.12359457294E+02 -0.21667889363E+01  0.60158059697E+02  0.10566000000E+00 0. -1.
         23    2    1    0    0    0  0.23646795677E+02  0.91811436543E+01 -0.12151355243E+02  0.96873148437E+02  0.92699984408E+02 0.  0.
         13    1    3    3    0    0 -0.35187971456E+02 -0.31783136395E+01 -0.99845663070E+01  0.36715088740E+02  0.10566000000E+00 0.  1.
         22    1    1    0    0    0 -0.23646795677E+02 -0.91811436543E+01  0.12151355243E+02  0.28126851563E+02  0.00000000000E+00 0. -1.
</event>
<event>
 5    1  0.1319298E-009  0.9118800E+02  0.7818608E-02  0.1130116E+00
         25   -1    0    0    0    0  0.00000000000E+00  0.00000000000E+00  0.99999998245E-14  0.12500000000E+03  0.12500000000E+03 0.  0.
        -13    1    3    3    0    0  0.21435026082E+02  0.50595701892E+02 -0.23266320314E+02  0.59671753939E+02  0.10566000000E+00 0.  1.
         23    2    1    0    0    0 -0.41174697918E+01  0.19838504879E+02 -0.12900710079E+02  0.10098025492E+03  0.98081923559E+02 0.  0.
         13    1    3    3    0    0 -0.25552495873E+02 -0.30757197013E+02  0.10365610235E+02  0.41308500978E+02  0.10566000000E+00 0. -1.
         22    1    1    0    0    0  0.41174697918E+01 -0.19838504879E+02  0.12900710079E+02  0.24019745084E+02  0.00000000000E+00 0.  1.
</event>
<event>
 5    1  0.1319298E-009  0.9118800E+02  0.7818608E-02  0.1130116E+00
         25   -1    0    0    0    0  0.00000000000E+00  0.00000000000E+00  0.99999998245E-14  0.12500000000E+03  0.12500000000E+03 0.  0.
        -13    1    3    3    0    0  0.20460399430E+02 -0.37102228774E+02 -0.94835902096E+01  0.43418348335E+02  0.10566000000E+00 0.  1.
         23    2    1    0    0    0  0.65222818309E+01  0.21940081106E+00  0.26868484244E+02  0.97350339196E+02  0.93341227756E+02 0.  0.
         13    1    3    3    0    0 -0.13938117599E+02  0.37321629585E+02  0.36352074454E+02  0.53931990861E+02  0.10566000000E+00 0. -1.
         22    1    1    0    0    0 -0.65222818309E+01 -0.21940081106E+00 -0.26868484244E+02  0.27649660804E+02  0.00000000000E+00 0. -1.
</event>
<event>
 5    1  0.1319298E-009  0.9118800E+02  0.7818608E-02  0.1130116E+00
         25   -1    0    0    0    0  0.00000000000E+00  0.00000000000E+00  0.99999998245E-14  0.12500000000E+03  0.12500000000E+03 0.  0.
        -13    1    3    3    0    0 -0.41085371250E+02 -0.18898942177E+02  0.42627926061E+01  0.45424226037E+02  0.10566000000E+00 0.  1.
         23    2    1    0    0    0  0.11938403727E+01 -0.15237845930E+02 -0.24096098519E+02  0.96465123669E+02  0.92148146575E+02 0.  0.
         13    1    3    3    0    0  0.42279211623E+02  0.36610962470E+01 -0.28358891125E+02  0.51040897632E+02  0.10566000000E+00 0. -1.
         22    1    1    0    0    0 -0.11938403727E+01  0.15237845930E+02  0.24096098519E+02  0.28534876331E+02  0.00000000000E+00 0.  1.
</event>
<event>
 5    1  0.1319298E-009  0.9118800E+02  0.7818608E-02  0.1130116E+00
         25   -1    0    0    0    0  0.00000000000E+00  0.00000000000E+00  0.99999998245E-14  0.12500000000E+03  0.12500000000E+03 0.  0.
        -13    1    3    3    0    0  0.48400558129E+02  0.57008389588E+01  0.34588041214E+02  0.59761671254E+02  0.10566000000E+00 0.  1.
         23    2    1    0    0    0  0.25569940929E+02 -0.92059123978E+01  0.11498918133E+02  0.95490750257E+02  0.90816780191E+02 0.  0.
         13    1    3    3    0    0 -0.22830617200E+02 -0.14906751357E+02 -0.23089123081E+02  0.35729079003E+02  0.10566000000E+00 0. -1.
         22    1    1    0    0    0 -0.25569940929E+02  0.92059123978E+01 -0.11498918133E+02  0.29509249743E+02  0.00000000000E+00 0.  1.
</event>
<event>
 5    1  0.1319298E-009  0.9118800E+02  0.7818608E-02  0.1130116E+00
         25   -1    0    0    0    0  0.00000000000E+00  0.00000000000E+00  0.99999998245E-14  0.12500000000E+03  0.12500000000E+03 0.  0.
        -13    1    3    3    0    0  0.23168981074E+02  0.50061484656E+02  0.19886776234E+02  0.58638289222E+02  0.10566000000E+00 0.  1.
         23    2    1    0    0    0 -0.30260217053E+01  0.27049329734E+02  0.23141138965E+01  0.97683738002E+02  0.93786643508E+02 0.  0.
         13    1    3    3    0    0 -0.26195002779E+02 -0.23012154921E+02 -0.17572662337E+02  0.39045448779E+02  0.10566000000E+00 0. -1.
         22    1    1    0    0    0  0.30260217053E+01 -0.27049329734E+02 -0.23141138965E+01  0.27316261998E+02  0.00000000000E+00 0.  1.
</event>
<event>
 5    1  0.1319298E-009  0.9118800E+02  0.7818608E-02  0.1130116E+00
         25   -1    0    0    0    0  0.00000000000E+00  0.00000000000E+00  0.99999998245E-14  0.12500000000E+03  0.12500000000E+03 0.  0.
        -13    1    3    3    0    0  0.20118319492E+02 -0.19304233649E+02 -0.29009805162E+02  0.40236552729E+02  0.10566000000E+00 0.  1.
         23    2    1    0    0    0 -0.15566485416E+02 -0.22645014432E+02  0.12270939275E+02  0.94905347693E+02  0.90007427045E+02 0.  0.
         13    1    3    3    0    0 -0.35684804908E+02 -0.33407807827E+01  0.41280744436E+02  0.54668794964E+02  0.10566000000E+00 0. -1.
         22    1    1    0    0    0  0.15566485416E+02  0.22645014432E+02 -0.12270939275E+02  0.30094652307E+02  0.00000000000E+00 0. -1.
</event>
<event>
 5    1  0.1319298E-009  0.9118800E+02  0.7818608E-02  0.1130116E+00
         25   -1    0    0    0    0  0.00000000000E+00  0.00000000000E+00  0.99999998245E-14  0.12500000000E+03  0.12500000000E+03 0.  0.
        -13    1    3    3    0    0  0.34198529303E+02  0.49717394377E+01 -0.48357626505E+01  0.34894890227E+02  0.10566000000E+00 0.  1.
         23    2    1    0    0    0 -0.21971884235E+02 -0.17621646138E+02  0.54660190762E+01  0.96309174393E+02  0.91936356238E+02 0.  0.
         13    1    3    3    0    0 -0.56170413538E+02 -0.22593385576E+02  0.10301781727E+02  0.61414284166E+02  0.10566000000E+00 0. -1.
         22    1    1    0    0    0  0.21971884235E+02  0.17621646138E+02 -0.54660190762E+01  0.28690825607E+02  0.00000000000E+00 0. -1.
</event>
<event>
 5    1  0.1319298E-009  0.9118800E+02  0.7818608E-02  0.1130116E+00
         25   -1    0    0    0    0  0.00000000000E+00  0.00000000000E+00  0.99999998245E-14  0.12500000000E+03  0.12500000000E+03 0.  0.
        -13    1    3    3    0    0  0.11778595407E+02  0.36522463721E+02 -0.22506829595E+02  0.44488135592E+02  0.10566000000E+00 0.  1.
         23    2    1    0    0    0 -0.16567211882E+02  0.19025053151E+02  0.15784579262E+02  0.95241335726E+02  0.90472835323E+02 0.  0.
         13    1    3    3    0    0 -0.28345807289E+02 -0.17497410571E+02  0.38291408857E+02  0.50753200134E+02  0.10566000000E+00 0. -1.
         22    1    1    0    0    0  0.16567211882E+02 -0.19025053151E+02 -0.15784579262E+02  0.29758664274E+02  0.00000000000E+00 0.  1.
</event>
<event>
 5    1  0.1319298E-009  0.9118800E+02  0.7818608E-02  0.1130116E+00
         25   -1    0    0    0    0  0.00000000000E+00  0.00000000000E+00  0.99999998245E-14  0.12500000000E+03  0.12500000000E+03 0.  0.
        -13    1    3    3    0    0  0.36050602956E+02  0.97672543437E+01  0.12340585292E+02  0.39336324692E+02  0.10566000000E+00 0.  1.
         23    2    1    0    0    0  0.15130192241E+01 -0.30867126189E+02  0.91890277827E+01  0.92758614516E+02  0.86975017269E+02 0.  0.
         13    1    3    3    0    0 -0.34537583731E+02 -0.40634380533E+02 -0.31515575093E+01  0.53422289824E+02  0.10566000000E+00 0. -1.
         22    1    1    0    0    0 -0.15130192241E+01  0.30867126189E+02 -0.91890277827E+01  0.32241385484E+02  0.00000000000E+00 0. -1.
</event>
<event>
 5    1  0.1319298E-009  0.9118800E+02  0.7818608E-02  0.1130116E+00
         25   -1    0    0    0    0  0.00000000000E+00  0.00000000000E+00  0.99999998245E-14  0.12500000000E+03  0.12500000000E+03 0.  0.
        -13    1    3    3    0    0 -0.18494319980E+02  0.34798362005E+02 -0.39882886597E+02  0.56068009391E+02  0.10566000000E+00 0.  1.
         23    2    1    0    0    0 -0.12014461062E+02 -0.16946881480E+01 -0.27156705567E+02  0.95255993885E+02  0.90493085213E+02 0.  0.
         13    1    3    3    0    0  0.64798589179E+01 -0.36493050153E+02  0.12726181031E+02  0.39187984494E+02  0.10566000000E+00 0. -1.
         22    1    1    0    0    0  0.12014461062E+02  0.16946881480E+01  0.27156705567E+02  0.29744006115E+02  0.00000000000E+00 0.  1.
</event>
<event>
 5    1  0.1319298E-009  0.9118800E+02  0.7818608E-02  0.1130116E+00
         25   -1    0    0    0    0  0.00000000000E+00  0.00000000000E+00  0.99999998245E-14  0.12500000000E+03  0.12500000000E+03 0.  0.
        -13    1    3    3    0    0  0.57875401149E+01  0.41771636939E+01 -0.46104586404E+02  0.46653921256E+02  0.10566000000E+00 0.  1.
         23    2    1    0    0    0  0.54944543557E+01  0.25129733607E+02  0.20748213755E+01  0.99193074116E+02  0.95777181672E+02 0.  0.
         13    1    3    3    0    0 -0.29308575914E+00  0.20952569913E+02  0.48179407779E+02  0.52539152860E+02  0.10566000000E+00 0. -1.
         22    1    1    0    0    0 -0.54944543557E+01 -0.25129733607E+02 -0.20748213755E+01  0.25806925884E+02  0.00000000000E+00 0. -1.
</event>
<event>
 5    1  0.1319298E-009  0.9118800E+02  0.7818608E-02  0.1130116E+00
         25   -1    0    0    0    0  0.00000000000E+00  0.00000000000E+00  0.99999998245E-14  0.12500000000E+03  0.12500000000E+03 0.  0.
        -13    1    3    3    0    0 -0.10399925454E+02  0.34629979465E+02  0.10146426499E+02  0.37554694273E+02  0.10566000000E+00 0.  1.
         23    2    1    0    0    0 -0.18592680005E+02 -0.12669704874E+02 -0.20545316622E+02  0.94531668795E+02  0.89486966641E+02 0.  0.
         13    1    3    3    0    0 -0.81927545511E+01 -0.47299684339E+02 -0.30691743121E+02  0.56976974521E+02  0.10566000000E+00 0. -1.
         22    1    1    0    0    0  0.18592680005E+02  0.12669704874E+02  0.20545316622E+02  0.30468331205E+02  0.00000000000E+00 0. -1.
</event>
<event>
 5    1  0.1319298E-009  0.9118800E+02  0.7818608E-02  0.1130116E+00
         25   -1    0    0    0    0  0.00000000000E+00  0.00000000000E+00  0.99999998245E-14  0.12500000000E+03  0.12500000000E+03 0.  0.
        -13    1    3    3    0    0  0.22581166112E+02 -0.47248956562E+01 -0.30896064598E+02  0.38559197004E+02  0.10566000000E+00 0. -1.
         23    2    1    0    0    0 -0.12720544601E+02  0.20988443213E+02  0.10100856146E+02  0.98460325956E+02  0.94816040252E+02 0.  0.
         13    1    3    3    0    0 -0.35301710714E+02  0.25713338870E+02  0.40996920744E+02  0.59901128952E+02  0.10566000000E+00 0.  1.
         22    1    1    0    0    0  0.12720544601E+02 -0.20988443213E+02 -0.10100856146E+02  0.26539674044E+02  0.00000000000E+00 0.  1.
</event>
<event>
 5    1  0.1319298E-009  0.9118800E+02  0.7818608E-02  0.1130116E+00
         25   -1    0    0    0    0  0.00000000000E+00  0.00000000000E+00  0.99999998245E-14  0.12500000000E+03  0.12500000000E+03 0.  0.
        -13    1    3    3    0    0 -0.18972277283E+02 -0.24081238402E+02  0.53857436449E+02  0.61971670731E+02  0.10566000000E+00 0.  1.
         23    2    1    0    0    0 -0.87408238399E+01 -0.14356833157E+02  0.18704700542E+02  0.99852704279E+02  0.96634238600E+02 0.  0.
         13    1    3    3    0    0  0.10231453443E+02  0.97244052449E+01 -0.35152735907E+02  0.37881033548E+02  0.10566000000E+00 0. -1.
         22    1    1    0    0    0  0.87408238399E+01  0.14356833157E+02 -0.18704700542E+02  0.25147295721E+02  0.00000000000E+00 0.  1.
</event>
<event>
 5    1  0.1319298E-009  0.9118800E+02  0.7818608E-02  0.1130116E+00
         25   -1    0    0    0    0  0.00000000000E+00  0.00000000000E+00  0.99999998245E-14  0.12500000000E+03  0.12500000000E+03 0.  0.
        -13    1    3    3    0    0 -0.54193971024E+01  0.29425650429E+02  0.15884631427E+02  0.33875823942E+02  0.10566000000E+00 0.  1.
         23    2    1    0    0    0  0.55059023906E+01 -0.21402343984E+02 -0.18476989285E+02  0.96194194645E+02  0.91779892466E+02 0.  0.
         13    1    3    3    0    0  0.10925299493E+02 -0.50827994413E+02 -0.34361620712E+02  0.62318370703E+02  0.10566000000E+00 0. -1.
         22    1    1    0    0    0 -0.55059023906E+01  0.21402343984E+02  0.18476989285E+02  0.28805805355E+02  0.00000000000E+00 0. -1.
</event>
<event>
 5    1  0.1319298E-009  0.9118800E+02  0.7818608E-02  0.1130116E+00
         25   -1    0    0    0    0  0.00000000000E+00  0.00000000000E+00  0.99999998245E-14  0.12500000000E+03  0.12500000000E+03 0.  0.
        -13    1    3    3    0    0  0.16845506887E+02  0.58427107337E+01 -0.45098553626E+02  0.48495351057E+02  0.10566000000E+00 0.  1.
         23    2    1    0    0    0 -0.22220010782E+02 -0.93861671294E-02 -0.18086003811E+02  0.96349825461E+02  0.91991610299E+02 0.  0.
         13    1    3    3    0    0 -0.39065517669E+02 -0.58520969008E+01  0.27012549815E+02  0.47854474404E+02  0.10566000000E+00 0. -1.
         22    1    1    0    0    0  0.22220010782E+02  0.93861671294E-02  0.18086003811E+02  0.28650174539E+02  0.00000000000E+00 0. -1.
</event>
<event>
 5    1  0.1319298E-009  0.9118800E+02  0.7818608E-02  0.1130116E+00
         25   -1    0    0    0    0  0.00000000000E+00  0.00000000000E+00  0.99999998245E-14  0.12500000000E+03  0.12500000000E+03 0.  0.
        -13    1    3    3    0    0  0.24191089455E+02 -0.20306958639E+02 -0.16347150704E+01  0.31626963743E+02  0.10566000000E+00 0.  1.
         23    2    1    0    0    0 -0.25573817686E+02  0.17312063843E+02 -0.24963219926E+01  0.94016789562E+02  0.88764843213E+02 0.  0.
         13    1    3    3    0    0 -0.49764907141E+02  0.37619022483E+02 -0.86160692224E+00  0.62389825819E+02  0.10566000000E+00 0. -1.
         22    1    1    0    0    0  0.25573817686E+02 -0.17312063843E+02  0.24963219926E+01  0.30983210438E+02  0.00000000000E+00 0. -1.
</event>
<event>
 5    1  0.1319298E-009  0.9118800E+02  0.7818608E-02  0.1130116E+00
         25   -1    0    0    0    0  0.00000000000E+00  0.00000000000E+00  0.99999998245E-14  0.12500000000E+03  0.12500000000E+03 0.  0.
        -13    1    3    3    0    0  0.22680969658E+01  0.26524753176E+02 -0.33823339010E+02  0.43043422503E+02  0.10566000000E+00 0.  1.
         23    2    1    0    0    0 -0.25488139642E+02 -0.92379564900E+01 -0.31939883231E+01  0.97701892668E+02  0.93810837151E+02 0.  0.
         13    1    3    3    0    0 -0.27756236608E+02 -0.35762709666E+02  0.30629350687E+02  0.54658470165E+02  0.10566000000E+00 0. -1.
         22    1    1    0    0    0  0.25488139642E+02  0.92379564900E+01  0.31939883231E+01  0.27298107332E+02  0.00000000000E+00 0. -1.
</event>
<event>
 5    1  0.1319298E-009  0.9118800E+02  0.7818608E-02  0.1130116E+00
         25   -1    0    0    0    0  0.00000000000E+00  0.00000000000E+00  0.99999998245E-14  0.12500000000E+03  0.12500000000E+03 0.  0.
        -13    1    3    3    0    0 -0.82730046343E+01 -0.82617798096E+01 -0.40171884218E+02  0.41838870168E+02  0.10566000000E+00 0. -1.
         23    2    1    0    0    0  0.28638838833E+02 -0.95429294225E+00 -0.75134429635E+00  0.96335417621E+02  0.91972030559E+02 0.  0.
         13    1    3    3    0    0  0.36911843468E+02  0.73074868674E+01  0.39420539921E+02  0.54496547452E+02  0.10566000000E+00 0.  1.
         22    1    1    0    0    0 -0.28638838833E+02  0.95429294225E+00  0.75134429635E+00  0.28664582379E+02  0.00000000000E+00 0.  1.
</event>
<event>
 5    1  0.1319298E-009  0.9118800E+02  0.7818608E-02  0.1130116E+00
         25   -1    0    0    0    0  0.00000000000E+00  0.00000000000E+00  0.99999998245E-14  0.12500000000E+03  0.12500000000E+03 0.  0.
        -13    1    3    3    0    0  0.23004000871E+02 -0.30796206267E+02 -0.86479488534E+01  0.39400362434E+02  0.10566000000E+00 0. -1.
         23    2    1    0    0    0 -0.18046149223E+02 -0.30299755327E+02 -0.23006887630E+02  0.82892333797E+02  0.71400864486E+02 0.  0.
         13    1    3    3    0    0 -0.41050150094E+02  0.49645094040E+00 -0.14358938776E+02  0.43491971363E+02  0.10566000000E+00 0.  1.
         22    1    1    0    0    0  0.18046149223E+02  0.30299755327E+02  0.23006887630E+02  0.42107666203E+02  0.00000000000E+00 0.  1.
</event>
<event>
 5    1  0.1319298E-009  0.9118800E+02  0.7818608E-02  0.1130116E+00
         25   -1    0    0    0    0  0.00000000000E+00  0.00000000000E+00  0.99999998245E-14  0.12500000000E+03  0.12500000000E+03 0.  0.
        -13    1    3    3    0    0 -0.14037419006E+02 -0.24313010607E+02 -0.21133472151E+02  0.35139812554E+02  0.10566000000E+00 0.  1.
         23    2    1    0    0    0 -0.59878986713E+01  0.18731499735E+02  0.21225130252E+02  0.96065070122E+02  0.91603861985E+02 0.  0.
         13    1    3    3    0    0  0.80495203343E+01  0.43044510342E+02  0.42358602403E+02  0.60925257568E+02  0.10566000000E+00 0. -1.
         22    1    1    0    0    0  0.59878986713E+01 -0.18731499735E+02 -0.21225130252E+02  0.28934929878E+02  0.00000000000E+00 0. -1.
</event>
<event>
 5    1  0.1319298E-009  0.9118800E+02  0.7818608E-02  0.1130116E+00
         25   -1    0    0    0    0  0.00000000000E+00  0.00000000000E+00  0.99999998245E-14  0.12500000000E+03  0.12500000000E+03 0.  0.
        -13    1    3    3    0    0 -0.15904489171E+02 -0.30089018679E+02  0.19954894991E+02  0.39452640203E+02  0.10566000000E+00 0.  1.
         23    2    1    0    0    0 -0.20231542164E+02  0.14754725805E+02 -0.14404803986E+02  0.96112016169E+02  0.91667900829E+02 0.  0.
         13    1    3    3    0    0 -0.43270529928E+01  0.44843744485E+02 -0.34359698977E+02  0.56659375966E+02  0.10566000000E+00 0. -1.
         22    1    1    0    0    0  0.20231542164E+02 -0.14754725805E+02  0.14404803986E+02  0.28887983831E+02  0.00000000000E+00 0. -1.
</event>
<event>
 5    1  0.1319298E-009  0.9118800E+02  0.7818608E-02  0.1130116E+00
         25   -1    0    0    0    0  0.00000000000E+00  0.00000000000E+00  0.99999998245E-14  0.12500000000E+03  0.12500000000E+03 0.  0.
        -13    1    3    3    0    0  0.20183297095E+02  0.24657427208E+02 -0.39916915102E+02  0.51075683779E+02  0.10566000000E+00 0.  1.
         23    2    1    0    0    0  0.93140051886E+01  0.25535012549E+02  0.50570664562E+01  0.97352911913E+02  0.93344673004E+02 0.  0.
         13    1    3    3    0    0 -0.10869291907E+02  0.87758534103E+00  0.44973981558E+02  0.46277228135E+02  0.10566000000E+00 0. -1.
         22    1    1    0    0    0 -0.93140051886E+01 -0.25535012549E+02 -0.50570664562E+01  0.27647088087E+02  0.00000000000E+00 0.  1.
</event>
<event>
 5    1  0.1319298E-009  0.9118800E+02  0.7818608E-02  0.1130116E+00
         25   -1    0    0    0    0  0.00000000000E+00  0.00000000000E+00  0.99999998245E-14  0.12500000000E+03  0.12500000000E+03 0.  0.
        -13    1    3    3    0    0 -0.99885501288E+01  0.31855261241E+02  0.24538494205E+01  0.33474786682E+02  0.10566000000E+00 0. -1.
         23    2    1    0    0    0  0.16527072457E+02 -0.23921611479E+02  0.59087095040E+01  0.95330142100E+02  0.90595449803E+02 0.  0.
         13    1    3    3    0    0  0.26515622586E+02 -0.55776872721E+02  0.34548600835E+01  0.61855355418E+02  0.10566000000E+00 0.  1.
         22    1    1    0    0    0 -0.16527072457E+02  0.23921611479E+02 -0.59087095040E+01  0.29669857900E+02  0.00000000000E+00 0.  1.
</event>
<event>
 5    1  0.1319298E-009  0.9118800E+02  0.7818608E-02  0.1130116E+00
         25   -1    0    0    0    0  0.00000000000E+00  0.00000000000E+00  0.99999998245E-14  0.12500000000E+03  0.12500000000E+03 0.  0.
        -13    1    3    3    0    0  0.33793862129E+02  0.32892016915E+02 -0.39326976065E+02  0.61404658657E+02  0.10566000000E+00 0.  1.
         23    2    1    0    0    0  0.20623859240E+02  0.17065302790E+02 -0.11886986379E+02  0.95710606452E+02  0.91118887246E+02 0.  0.
         13    1    3    3    0    0 -0.13170002889E+02 -0.15826714124E+02  0.27439989686E+02  0.34305947795E+02  0.10566000000E+00 0. -1.
         22    1    1    0    0    0 -0.20623859240E+02 -0.17065302790E+02  0.11886986379E+02  0.29289393548E+02  0.00000000000E+00 0.  1.
</event>
<event>
 5    1  0.1319298E-009  0.9118800E+02  0.7818608E-02  0.1130116E+00
         25   -1    0    0    0    0  0.00000000000E+00  0.00000000000E+00  0.99999998245E-14  0.12500000000E+03  0.12500000000E+03 0.  0.
        -13    1    3    3    0    0  0.10898909048E+02 -0.93743766138E+01 -0.58399721960E+02  0.60143194497E+02  0.10566000000E+00 0.  1.
         23    2    1    0    0    0  0.16114996785E+02  0.51987919821E+00 -0.26136411325E+02  0.94290467397E+02  0.89149407453E+02 0.  0.
         13    1    3    3    0    0  0.52160877364E+01  0.98942558120E+01  0.32263310635E+02  0.34147272900E+02  0.10566000000E+00 0. -1.
         22    1    1    0    0    0 -0.16114996785E+02 -0.51987919821E+00  0.26136411325E+02  0.30709532603E+02  0.00000000000E+00 0.  1.
</event>
<event>
 5    1  0.1319298E-009  0.9118800E+02  0.7818608E-02  0.1130116E+00
         25   -1    0    0    0    0  0.00000000000E+00  0.00000000000E+00  0.99999998245E-14  0.12500000000E+03  0.12500000000E+03 0.  0.
        -13    1    3    3    0    0  0.17073862899E+02 -0.23456752344E+02 -0.52883792035E+02  0.60319504714E+02  0.10566000000E+00 0. -1.
         23    2    1    0    0    0  0.10290736311E+02  0.75795678510E+00 -0.25464821181E+02  0.97523994649E+02  0.93573493374E+02 0.  0.
         13    1    3    3    0    0 -0.67831265884E+01  0.24214709130E+02  0.27418970855E+02  0.37204489935E+02  0.10566000000E+00 0.  1.
         22    1    1    0    0    0 -0.10290736311E+02 -0.75795678510E+00  0.25464821181E+02  0.27476005351E+02  0.00000000000E+00 0. -1.
</event>
<event>
 5    1  0.1319298E-009  0.9118800E+02  0.7818608E-02  0.1130116E+00
         25   -1    0    0    0    0  0.00000000000E+00  0.00000000000E+00  0.99999998245E-14  0.12500000000E+03  0.12500000000E+03 0.  0.
        -13    1    3    3    0    0 -0.50758264604E+02  0.34446805878E+02 -0.84543182474E+00  0.61349081329E+02  0.10566000000E+00 0. -1.
         23    2    1    0    0    0 -0.27983126068E+02  0.93667405013E+01  0.24621391854E+01  0.95388291142E+02  0.90675646043E+02 0.  0.
         13    1    3    3    0    0  0.22775138536E+02 -0.25080065377E+02  0.33075710102E+01  0.34039209813E+02  0.10566000000E+00 0.  1.
         22    1    1    0    0    0  0.27983126068E+02 -0.93667405013E+01 -0.24621391854E+01  0.29611708858E+02  0.00000000000E+00 0. -1.
</event>
<event>
 5    1  0.1319298E-009  0.9118800E+02  0.7818608E-02  0.1130116E+00
         25   -1    0    0    0    0  0.00000000000E+00  0.00000000000E+00  0.99999998245E-14  0.12500000000E+03  0.12500000000E+03 0.  0.
        -13    1    3    3    0    0 -0.74002083177E+01  0.43557944246E+02  0.37578940430E+02  0.58002116496E+02  0.10566000000E+00 0.  1.
         23    2    1    0    0    0 -0.60506829517E+01  0.76781705888E+01  0.28259866897E+02  0.95097071301E+02  0.90273295194E+02 0.  0.
         13    1    3    3    0    0  0.13495253660E+01 -0.35879773658E+02 -0.93190735328E+01  0.37094954805E+02  0.10566000000E+00 0. -1.
         22    1    1    0    0    0  0.60506829517E+01 -0.76781705888E+01 -0.28259866897E+02  0.29902928699E+02  0.00000000000E+00 0.  1.
</event>
<event>
 5    1  0.1319298E-009  0.9118800E+02  0.7818608E-02  0.1130116E+00
         25   -1    0    0    0    0  0.00000000000E+00  0.00000000000E+00  0.99999998245E-14  0.12500000000E+03  0.12500000000E+03 0.  0.
        -13    1    3    3    0    0  0.20090300778E+02 -0.22616821222E+02 -0.20783943299E+02  0.36703191286E+02  0.10566000000E+00 0. -1.
         23    2    1    0    0    0  0.13401591371E+02  0.18827940347E+01  0.29226314970E+02  0.92792469027E+02  0.87023659178E+02 0.  0.
         13    1    3    3    0    0 -0.66887094065E+01  0.24499615257E+02  0.50010258269E+02  0.56089277740E+02  0.10566000000E+00 0.  1.
         22    1    1    0    0    0 -0.13401591371E+02 -0.18827940347E+01 -0.29226314970E+02  0.32207530973E+02  0.00000000000E+00 0.  1.
</event>
<event>
 5    1  0.1319298E-009  0.9118800E+02  0.7818608E-02  0.1130116E+00
         25   -1    0    0    0    0  0.00000000000E+00  0.00000000000E+00  0.99999998245E-14  0.12500000000E+03  0.12500000000E+03 0.  0.
        -13    1    3    3    0    0 -0.43489559782E+02 -0.66671540286E+01 -0.85694686851E+01  0.44824543617E+02  0.10566000000E+00 0.  1.
         23    2    1    0    0    0  0.12697704496E+01 -0.25451702833E+02  0.11105701738E+02  0.97201832701E+02  0.93142139632E+02 0.  0.
         13    1    3    3    0    0  0.44759330232E+02 -0.18784548804E+02  0.19675170423E+02  0.52377289084E+02  0.10566000000E+00 0. -1.
         22    1    1    0    0    0 -0.12697704496E+01  0.25451702833E+02 -0.11105701738E+02  0.27798167299E+02  0.00000000000E+00 0.  1.
</event>
<event>
 5    1  0.1319298E-009  0.9118800E+02  0.7818608E-02  0.1130116E+00
         25   -1    0    0    0    0  0.00000000000E+00  0.00000000000E+00  0.99999998245E-14  0.12500000000E+03  0.12500000000E+03 0.  0.
        -13    1    3    3    0    0 -0.45025994007E+02  0.12834767806E+02 -0.14211832448E+02  0.48929119618E+02  0.10566000000E+00 0.  1.
         23    2    1    0    0    0 -0.79631324679E+01 -0.13889616127E+02 -0.24468216572E+02  0.95759163195E+02  0.91185474713E+02 0.  0.
         13    1    3    3    0    0  0.37062861539E+02 -0.26724383933E+02 -0.10256384124E+02  0.46830043577E+02  0.10566000000E+00 0. -1.
         22    1    1    0    0    0  0.79631324679E+01  0.13889616127E+02  0.24468216572E+02  0.29240836805E+02  0.00000000000E+00 0. -1.
</event>
<event>
 5    1  0.1319298E-009  0.9118800E+02  0.7818608E-02  0.1130116E+00
         25   -1    0    0    0    0  0.00000000000E+00  0.00000000000E+00  0.99999998245E-14  0.12500000000E+03  0.12500000000E+03 0.  0.
        -13    1    3    3    0    0 -0.90127361561E+01  0.50768345619E+02  0.10184487493E+02  0.52558436806E+02  0.10566000000E+00 0.  1.
         23    2    1    0    0    0 -0.77075006017E+01  0.59345508932E+01  0.23681818594E+02  0.99398183819E+02  0.96044499868E+02 0.  0.
         13    1    3    3    0    0  0.13052355544E+01 -0.44833794726E+02  0.13497331101E+02  0.46839747013E+02  0.10566000000E+00 0. -1.
         22    1    1    0    0    0  0.77075006017E+01 -0.59345508932E+01 -0.23681818594E+02  0.25601816181E+02  0.00000000000E+00 0.  1.
</event>
<event>
 5    1  0.1319298E-009  0.9118800E+02  0.7818608E-02  0.1130116E+00
         25   -1    0    0    0    0  0.00000000000E+00  0.00000000000E+00  0.99999998245E-14  0.12500000000E+03  0.12500000000E+03 0.  0.
        -13    1    3    3    0    0  0.28944712338E+02  0.21598576093E+02  0.31381614601E+02  0.47844662822E+02  0.10566000000E+00 0.  1.
         23    2    1    0    0    0 -0.15795993656E+02  0.11117230097E+02  0.23685440389E+02  0.94436847234E+02  0.89354416838E+02 0.  0.
         13    1    3    3    0    0 -0.44740705993E+02 -0.10481345997E+02 -0.76961742124E+01  0.46592184411E+02  0.10566000000E+00 0. -1.
         22    1    1    0    0    0  0.15795993656E+02 -0.11117230097E+02 -0.23685440389E+02  0.30563152766E+02  0.00000000000E+00 0. -1.
</event>
<event>
 5    1  0.1319298E-009  0.9118800E+02  0.7818608E-02  0.1130116E+00
         25   -1    0    0    0    0  0.00000000000E+00  0.00000000000E+00  0.99999998245E-14  0.12500000000E+03  0.12500000000E+03 0.  0.
        -13    1    3    3    0    0 -0.15437305484E+02  0.69691537592E+01  0.31258820908E+02  0.35552841706E+02  0.10566000000E+00 0.  1.
         23    2    1    0    0    0  0.23883258279E+02 -0.92993093248E+01 -0.12407923001E+02  0.96524682037E+02  0.92228902786E+02 0.  0.
         13    1    3    3    0    0  0.39320563762E+02 -0.16268463084E+02 -0.43666743909E+02  0.60971840331E+02  0.10566000000E+00 0. -1.
         22    1    1    0    0    0 -0.23883258279E+02  0.92993093248E+01  0.12407923001E+02  0.28475317963E+02  0.00000000000E+00 0. -1.
</event>
<event>
 5    1  0.1319298E-009  0.9118800E+02  0.7818608E-02  0.1130116E+00
         25   -1    0    0    0    0  0.00000000000E+00  0.00000000000E+00  0.99999998245E-14  0.12500000000E+03  0.12500000000E+03 0.  0.
        -13    1    3    3    0    0  0.30200186439E+01 -0.21694080034E+01 -0.60612742921E+02  0.60726786612E+02  0.10566000000E+00 0.  1.
         23    2    1    0    0    0  0.15151767266E+01  0.94963437152E+01 -0.27645209895E+02  0.95729982326E+02  0.91145463856E+02 0.  0.
         13    1    3    3    0    0 -0.15048419173E+01  0.11665751719E+02  0.32967533026E+02  0.35003195714E+02  0.10566000000E+00 0. -1.
         22    1    1    0    0    0 -0.15151767266E+01 -0.94963437152E+01  0.27645209895E+02  0.29270017674E+02  0.00000000000E+00 0.  1.
</event>
<event>
 5    1  0.1319298E-009  0.9118800E+02  0.7818608E-02  0.1130116E+00
         25   -1    0    0    0    0  0.00000000000E+00  0.00000000000E+00  0.99999998245E-14  0.12500000000E+03  0.12500000000E+03 0.  0.
        -13    1    3    3    0    0 -0.24270533920E+01 -0.15334294324E+02 -0.35116787834E+02  0.38395717501E+02  0.10566000000E+00 0.  1.
         23    2    1    0    0    0 -0.48189287896E+01  0.28286221516E+02  0.27043027655E+01  0.96179076077E+02  0.91759299361E+02 0.  0.
         13    1    3    3    0    0 -0.23918753977E+01  0.43620515841E+02  0.37821090599E+02  0.57783358576E+02  0.10566000000E+00 0. -1.
         22    1    1    0    0    0  0.48189287896E+01 -0.28286221516E+02 -0.27043027655E+01  0.28820923923E+02  0.00000000000E+00 0. -1.
</event>
<event>
 5    1  0.1319298E-009  0.9118800E+02  0.7818608E-02  0.1130116E+00
         25   -1    0    0    0    0  0.00000000000E+00  0.00000000000E+00  0.99999998245E-14  0.12500000000E+03  0.12500000000E+03 0.  0.
        -13    1    3    3    0    0 -0.38921863029E+02  0.19599217648E+02 -0.28588642413E+01  0.43671787493E+02  0.10566000000E+00 0. -1.
         23    2    1    0    0    0 -0.91633421389E+01 -0.22391272732E+02 -0.14977259660E+02  0.96545576080E+02  0.92257216628E+02 0.  0.
         13    1    3    3    0    0  0.29758520890E+02 -0.41990490380E+02 -0.12118395418E+02  0.52873788587E+02  0.10566000000E+00 0.  1.
         22    1    1    0    0    0  0.91633421389E+01  0.22391272732E+02  0.14977259660E+02  0.28454423920E+02  0.00000000000E+00 0. -1.
</event>
<event>
 5    1  0.1319298E-009  0.9118800E+02  0.7818608E-02  0.1130116E+00
         25   -1    0    0    0    0  0.00000000000E+00  0.00000000000E+00  0.99999998245E-14  0.12500000000E+03  0.12500000000E+03 0.  0.
        -13    1    3    3    0    0 -0.59948209050E+01 -0.36804053385E+02  0.16739710711E+02  0.40874262097E+02  0.10566000000E+00 0.  1.
         23    2    1    0    0    0  0.11843185850E+02  0.14766368949E+02  0.22327962090E+02  0.95728092066E+02  0.91142871451E+02 0.  0.
         13    1    3    3    0    0  0.17838006755E+02  0.51570422334E+02  0.55882513791E+01  0.54853829968E+02  0.10566000000E+00 0. -1.
         22    1    1    0    0    0 -0.11843185850E+02 -0.14766368949E+02 -0.22327962090E+02  0.29271907934E+02  0.00000000000E+00 0.  1.
</event>
<event>
 5    1  0.1319298E-009  0.9118800E+02  0.7818608E-02  0.1130116E+00
         25   -1    0    0    0    0  0.00000000000E+00  0.00000000000E+00  0.99999998245E-14  0.12500000000E+03  0.12500000000E+03 0.  0.
        -13    1    3    3    0    0 -0.14922008256E+02 -0.25989556977E+02 -0.41521061909E+02  0.51206768579E+02  0.10566000000E+00 0. -1.
         23    2    1    0    0    0 -0.27859000395E+02  0.32617859205E+01 -0.12903745606E+02  0.94124932372E+02  0.88917001147E+02 0.  0.
         13    1    3    3    0    0 -0.12936992138E+02  0.29251342898E+02  0.28617316303E+02  0.42918163793E+02  0.10566000000E+00 0.  1.
         22    1    1    0    0    0  0.27859000395E+02 -0.32617859205E+01  0.12903745606E+02  0.30875067628E+02  0.00000000000E+00 0.  1.
</event>
<event>
 5    1  0.1319298E-009  0.9118800E+02  0.7818608E-02  0.1130116E+00
         25   -1    0    0    0    0  0.00000000000E+00  0.00000000000E+00  0.99999998245E-14  0.12500000000E+03  0.12500000000E+03 0.  0.
        -13    1    3    3    0    0  0.14134360688E+02 -0.32475588348E+02  0.30140557966E+02  0.46507078914E+02  0.10566000000E+00 0. -1.
         23    2    1    0    0    0  0.83406202754E+01  0.15235087259E+02  0.24599497567E+02  0.94886728658E+02  0.89981565692E+02 0.  0.
         13    1    3    3    0    0 -0.57937404129E+01  0.47710675608E+02 -0.55410603981E+01  0.48379649743E+02  0.10566000000E+00 0.  1.
         22    1    1    0    0    0 -0.83406202754E+01 -0.15235087259E+02 -0.24599497567E+02  0.30113271342E+02  0.00000000000E+00 0.  1.
</event>
<event>
 5    1  0.1319298E-009  0.9118800E+02  0.7818608E-02  0.1130116E+00
         25   -1    0    0    0    0  0.00000000000E+00  0.00000000000E+00  0.99999998245E-14  0.12500000000E+03  0.12500000000E+03 0.  0.
        -13    1    3    3    0    0  0.21809836730E+01 -0.35174163168E+02 -0.96261771983E+01  0.36532901552E+02  0.10566000000E+00 0. -1.
         23    2    1    0    0    0 -0.14366931395E+01  0.49788466815E+01  0.30883186569E+02  0.93685080008E+02  0.88296489183E+02 0.  0.
         13    1    3    3    0    0 -0.36176768126E+01  0.40153009849E+02  0.40509363767E+02  0.57152178456E+02  0.10566000000E+00 0.  1.
         22    1    1    0    0    0  0.14366931395E+01 -0.49788466815E+01 -0.30883186569E+02  0.31314919992E+02  0.00000000000E+00 0.  1.
</event>
<event>
 5    1  0.1319298E-009  0.9118800E+02  0.7818608E-02  0.1130116E+00
         25   -1    0    0    0    0  0.00000000000E+00  0.00000000000E+00  0.99999998245E-14  0.12500000000E+03  0.12500000000E+03 0.  0.
        -13    1    3    3    0    0 -0.10714582599E+02  0.35256267628E+02  0.44793308353E+02  0.58002226893E+02  0.10566000000E+00 0.  1.
         23    2    1    0    0    0 -0.36566155877E+01  0.58912187337E+00  0.27264487334E+02  0.97485091828E+02  0.93521510665E+02 0.  0.
         13    1    3    3    0    0  0.70579670110E+01 -0.34667145755E+02 -0.17528821020E+02  0.39482864935E+02  0.10566000000E+00 0. -1.
         22    1    1    0    0    0  0.36566155877E+01 -0.58912187337E+00 -0.27264487334E+02  0.27514908172E+02  0.00000000000E+00 0.  1.
</event>
<event>
 5    1  0.1319298E-009  0.9118800E+02  0.7818608E-02  0.1130116E+00
         25   -1    0    0    0    0  0.00000000000E+00  0.00000000000E+00  0.99999998245E-14  0.12500000000E+03  0.12500000000E+03 0.  0.
        -13    1    3    3    0    0 -0.25860566887E+01 -0.26234082816E+02 -0.40511421309E+02  0.48333230917E+02  0.10566000000E+00 0. -1.
         23    2    1    0    0    0 -0.24582431543E+02 -0.16755697787E+02 -0.16954262003E+00  0.95249737924E+02  0.90484443310E+02 0.  0.
         13    1    3    3    0    0 -0.21996374854E+02  0.94783850295E+01  0.40341878689E+02  0.46916507007E+02  0.10566000000E+00 0.  1.
         22    1    1    0    0    0  0.24582431543E+02  0.16755697787E+02  0.16954262003E+00  0.29750262076E+02  0.00000000000E+00 0.  1.
</event>
<event>
 5    1  0.1319298E-009  0.9118800E+02  0.7818608E-02  0.1130116E+00
         25   -1    0    0    0    0  0.00000000000E+00  0.00000000000E+00  0.99999998245E-14  0.12500000000E+03  0.12500000000E+03 0.  0.
        -13    1    3    3    0    0 -0.53194843885E+00  0.27202904313E+02  0.93012825182E+01  0.28754234344E+02  0.10566000000E+00 0. -1.
         23    2    1    0    0    0 -0.23632024875E+02 -0.25688085471E+02  0.15513056505E+02  0.86803072676E+02  0.77947213992E+02 0.  0.
         13    1    3    3    0    0 -0.23100076436E+02 -0.52890989784E+02  0.62117739863E+01  0.58048838332E+02  0.10566000000E+00 0.  1.
         22    1    1    0    0    0  0.23632024875E+02  0.25688085471E+02 -0.15513056505E+02  0.38196927324E+02  0.00000000000E+00 0.  1.
</event>
<event>
 5    1  0.1319298E-009  0.9118800E+02  0.7818608E-02  0.1130116E+00
         25   -1    0    0    0    0  0.00000000000E+00  0.00000000000E+00  0.99999998245E-14  0.12500000000E+03  0.12500000000E+03 0.  0.
        -13    1    3    3    0    0 -0.11721063781E+02  0.35315607287E+02  0.33652339671E+02  0.50170375557E+02  0.10566000000E+00 0.  1.
         23    2    1    0    0    0  0.21331709060E+02  0.75421233337E+01  0.17981992417E+02  0.96098832427E+02  0.91649921477E+02 0.  0.
         13    1    3    3    0    0  0.33052772841E+02 -0.27773483953E+02 -0.15670347254E+02  0.45928456870E+02  0.10566000000E+00 0. -1.
         22    1    1    0    0    0 -0.21331709060E+02 -0.75421233337E+01 -0.17981992417E+02  0.28901167573E+02  0.00000000000E+00 0.  1.
</event>
<event>
 5    1  0.1319298E-009  0.9118800E+02  0.7818608E-02  0.1130116E+00
         25   -1    0    0    0    0  0.00000000000E+00  0.00000000000E+00  0.99999998245E-14  0.12500000000E+03  0.12500000000E+03 0.  0.
        -13    1    3    3    0    0  0.36255065311E+02  0.24200731894E+02  0.33811817575E+02  0.55166614512E+02  0.10566000000E+00 0.  1.
         23    2    1    0    0    0  0.70900971342E+00  0.91658615108E+01  0.29617003193E+02  0.93988992436E+02  0.88725690243E+02 0.  0.
         13    1    3    3    0    0 -0.35546055597E+02 -0.15034870384E+02 -0.41948143828E+01  0.38822377924E+02  0.10566000000E+00 0. -1.
         22    1    1    0    0    0 -0.70900971342E+00 -0.91658615108E+01 -0.29617003193E+02  0.31011007564E+02  0.00000000000E+00 0.  1.
</event>
<event>
 5    1  0.1319298E-009  0.9118800E+02  0.7818608E-02  0.1130116E+00
         25   -1    0    0    0    0  0.00000000000E+00  0.00000000000E+00  0.99999998245E-14  0.12500000000E+03  0.12500000000E+03 0.  0.
        -13    1    3    3    0    0 -0.46121814357E+02  0.38532183835E+02 -0.12344063392E+02  0.61354201288E+02  0.10566000000E+00 0. -1.
         23    2    1    0    0    0 -0.21389837253E+02  0.93875910203E+01 -0.98168068018E+01  0.99661852896E+02  0.96387049048E+02 0.  0.
         13    1    3    3    0    0  0.24731977105E+02 -0.29144592814E+02  0.25272565901E+01  0.38307651608E+02  0.10566000000E+00 0.  1.
         22    1    1    0    0    0  0.21389837253E+02 -0.93875910203E+01  0.98168068018E+01  0.25338147104E+02  0.00000000000E+00 0. -1.
</event>
<event>
 5    1  0.1319298E-009  0.9118800E+02  0.7818608E-02  0.1130116E+00
         25   -1    0    0    0    0  0.00000000000E+00  0.00000000000E+00  0.99999998245E-14  0.12500000000E+03  0.12500000000E+03 0.  0.
        -13    1    3    3    0    0 -0.15157608097E+02  0.90481205205E+01 -0.36256310767E+02  0.40325584964E+02  0.10566000000E+00 0. -1.
         23    2    1    0    0    0  0.22225541123E+02 -0.18834852089E+02 -0.82656219879E+01  0.94717218783E+02  0.89745778149E+02 0.  0.
         13    1    3    3    0    0  0.37383149220E+02 -0.27882972609E+02  0.27990688779E+02  0.54391633819E+02  0.10566000000E+00 0.  1.
         22    1    1    0    0    0 -0.22225541123E+02  0.18834852089E+02  0.82656219879E+01  0.30282781217E+02  0.00000000000E+00 0.  1.
</event>
<event>
 5    1  0.1319298E-009  0.9118800E+02  0.7818608E-02  0.1130116E+00
         25   -1    0    0    0    0  0.00000000000E+00  0.00000000000E+00  0.99999998245E-14  0.12500000000E+03  0.12500000000E+03 0.  0.
        -13    1    3    3    0    0  0.23859374399E+01 -0.20362295842E+02  0.29798934766E+02  0.36170477833E+02  0.10566000000E+00 0.  1.
         23    2    1    0    0    0  0.34847927552E+01  0.27336248940E+02 -0.71661805974E+01  0.96526004302E+02  0.92230694866E+02 0.  0.
         13    1    3    3    0    0  0.10988553154E+01  0.47698544783E+02 -0.36965115364E+02  0.60355526468E+02  0.10566000000E+00 0. -1.
         22    1    1    0    0    0 -0.34847927552E+01 -0.27336248940E+02  0.71661805974E+01  0.28473995698E+02  0.00000000000E+00 0. -1.
</event>
<event>
 5    1  0.1319298E-009  0.9118800E+02  0.7818608E-02  0.1130116E+00
         25   -1    0    0    0    0  0.00000000000E+00  0.00000000000E+00  0.99999998245E-14  0.12500000000E+03  0.12500000000E+03 0.  0.
        -13    1    3    3    0    0  0.12206647453E+02  0.35281702444E+02  0.93107419580E+01  0.38477290045E+02  0.10566000000E+00 0. -1.
         23    2    1    0    0    0  0.14446337221E+02 -0.18207236056E+02 -0.15066140796E+02  0.97301828538E+02  0.93276240996E+02 0.  0.
         13    1    3    3    0    0  0.22396897682E+01 -0.53488938499E+02 -0.24376882754E+02  0.58824538493E+02  0.10566000000E+00 0.  1.
         22    1    1    0    0    0 -0.14446337221E+02  0.18207236056E+02  0.15066140796E+02  0.27698171462E+02  0.00000000000E+00 0.  1.
</event>
<event>
 5    1  0.1319298E-009  0.9118800E+02  0.7818608E-02  0.1130116E+00
         25   -1    0    0    0    0  0.00000000000E+00  0.00000000000E+00  0.99999998245E-14  0.12500000000E+03  0.12500000000E+03 0.  0.
        -13    1    3    3    0    0  0.95434874773E+01  0.10917427155E+02  0.20264944701E+02  0.24918818525E+02  0.10566000000E+00 0.  1.
         23    2    1    0    0    0 -0.22079353000E+02  0.10079429265E+02 -0.31286720431E+02  0.85402631419E+02  0.75668076854E+02 0.  0.
         13    1    3    3    0    0 -0.31622840478E+02 -0.83799788982E+00 -0.51551665132E+02  0.60483812894E+02  0.10566000000E+00 0. -1.
         22    1    1    0    0    0  0.22079353000E+02 -0.10079429265E+02  0.31286720431E+02  0.39597368581E+02  0.00000000000E+00 0. -1.
</event>
<event>
 5    1  0.1319298E-009  0.9118800E+02  0.7818608E-02  0.1130116E+00
         25   -1    0    0    0    0  0.00000000000E+00  0.00000000000E+00  0.99999998245E-14  0.12500000000E+03  0.12500000000E+03 0.  0.
        -13    1    3    3    0    0 -0.34492466772E+02  0.48901858630E+02  0.11948720246E+02  0.61023807822E+02  0.10566000000E+00 0. -1.
         23    2    1    0    0    0 -0.13530620518E+02  0.25616085344E+02 -0.32527217149E+01  0.95847955157E+02  0.91307112479E+02 0.  0.
         13    1    3    3    0    0  0.20961846254E+02 -0.23285773286E+02 -0.15201441961E+02  0.34824147335E+02  0.10566000000E+00 0.  1.
         22    1    1    0    0    0  0.13530620518E+02 -0.25616085344E+02  0.32527217149E+01  0.29152044843E+02  0.00000000000E+00 0. -1.
</event>
<event>
 5    1  0.1319298E-009  0.9118800E+02  0.7818608E-02  0.1130116E+00
         25   -1    0    0    0    0  0.00000000000E+00  0.00000000000E+00  0.99999998245E-14  0.12500000000E+03  0.12500000000E+03 0.  0.
        -13    1    3    3    0    0  0.60337650396E+02 -0.51887012090E+01 -0.44751061161E+01  0.60725549930E+02  0.10566000000E+00 0.  1.
         23    2    1    0    0    0  0.26858965886E+02 -0.12325208091E+02  0.11996305950E+01  0.95423760947E+02  0.90724529410E+02 0.  0.
         13    1    3    3    0    0 -0.33478684510E+02 -0.71365068824E+01  0.56747367111E+01  0.34698211017E+02  0.10566000000E+00 0. -1.
         22    1    1    0    0    0 -0.26858965886E+02  0.12325208091E+02 -0.11996305950E+01  0.29576239053E+02  0.00000000000E+00 0.  1.
</event>
<event>
 5    1  0.1319298E-009  0.9118800E+02  0.7818608E-02  0.1130116E+00
         25   -1    0    0    0    0  0.00000000000E+00  0.00000000000E+00  0.99999998245E-14  0.12500000000E+03  0.12500000000E+03 0.  0.
        -13    1    3    3    0    0  0.75180392899E+01  0.59055734597E+02 -0.15822189026E+02  0.61599135815E+02  0.10566000000E+00 0. -1.
         23    2    1    0    0    0  0.87402199104E+01  0.27543053992E+02 -0.19923905286E+01  0.96034833207E+02  0.91562592262E+02 0.  0.
         13    1    3    3    0    0  0.12221806205E+01 -0.31512680605E+02  0.13829798498E+02  0.34435697392E+02  0.10566000000E+00 0.  1.
         22    1    1    0    0    0 -0.87402199104E+01 -0.27543053992E+02  0.19923905286E+01  0.28965166793E+02  0.00000000000E+00 0. -1.
</event>
<event>
 5    1  0.1319298E-009  0.9118800E+02  0.7818608E-02  0.1130116E+00
         25   -1    0    0    0    0  0.00000000000E+00  0.00000000000E+00  0.99999998245E-14  0.12500000000E+03  0.12500000000E+03 0.  0.
        -13    1    3    3    0    0  0.97523829085E+01  0.14382819650E+02 -0.43895078336E+02  0.47209782245E+02  0.10566000000E+00 0.  1.
         23    2    1    0    0    0 -0.90750602596E+01 -0.21667940273E+02 -0.17699342600E+02  0.95587025264E+02  0.90949196346E+02 0.  0.
         13    1    3    3    0    0 -0.18827443168E+02 -0.36050759923E+02  0.26195735736E+02  0.48377243018E+02  0.10566000000E+00 0. -1.
         22    1    1    0    0    0  0.90750602596E+01  0.21667940273E+02  0.17699342600E+02  0.29412974736E+02  0.00000000000E+00 0. -1.
</event>
<event>
 5    1  0.1319298E-009  0.9118800E+02  0.7818608E-02  0.1130116E+00
         25   -1    0    0    0    0  0.00000000000E+00  0.00000000000E+00  0.99999998245E-14  0.12500000000E+03  0.12500000000E+03 0.  0.
        -13    1    3    3    0    0  0.16627164987E+02  0.54947356338E+02  0.18882925032E+01  0.57439110340E+02  0.10566000000E+00 0. -1.
         23    2    1    0    0    0 -0.84854303280E+01  0.25516264755E+02  0.87294761934E+01  0.96728352551E+02  0.92504530363E+02 0.  0.
         13    1    3    3    0    0 -0.25112595315E+02 -0.29431091583E+02  0.68411836902E+01  0.39289242211E+02  0.10566000000E+00 0.  1.
         22    1    1    0    0    0  0.84854303280E+01 -0.25516264755E+02 -0.87294761934E+01  0.28271647449E+02  0.00000000000E+00 0. -1.
</event>
<event>
 5    1  0.1319298E-009  0.9118800E+02  0.7818608E-02  0.1130116E+00
         25   -1    0    0    0    0  0.00000000000E+00  0.00000000000E+00  0.99999998245E-14  0.12500000000E+03  0.12500000000E+03 0.  0.
        -13    1    3    3    0    0  0.15998068938E+01 -0.54887737576E+02 -0.21299683478E+02  0.58897460035E+02  0.10566000000E+00 0.  1.
         23    2    1    0    0    0  0.12941720959E+02 -0.33077089179E+02 -0.33763733961E+01  0.89321128560E+02  0.81885787167E+02 0.  0.
         13    1    3    3    0    0  0.11341914065E+02  0.21810648397E+02  0.17923310082E+02  0.30423668525E+02  0.10566000000E+00 0. -1.
         22    1    1    0    0    0 -0.12941720959E+02  0.33077089179E+02  0.33763733961E+01  0.35678871440E+02  0.00000000000E+00 0.  1.
</event>
<event>
 5    1  0.1319298E-009  0.9118800E+02  0.7818608E-02  0.1130116E+00
         25   -1    0    0    0    0  0.00000000000E+00  0.00000000000E+00  0.99999998245E-14  0.12500000000E+03  0.12500000000E+03 0.  0.
        -13    1    3    3    0    0 -0.17608095701E+02 -0.23235085376E+02 -0.31156615175E+02  0.42669193334E+02  0.10566000000E+00 0.  1.
         23    2    1    0    0    0 -0.22969441539E+02  0.44300239205E+01  0.15331026194E+02  0.97031075804E+02  0.92912695317E+02 0.  0.
         13    1    3    3    0    0 -0.53613458378E+01  0.27665109296E+02  0.46487641369E+02  0.54361882469E+02  0.10566000000E+00 0. -1.
         22    1    1    0    0    0  0.22969441539E+02 -0.44300239205E+01 -0.15331026194E+02  0.27968924196E+02  0.00000000000E+00 0. -1.
</event>
<event>
 5    1  0.1319298E-009  0.9118800E+02  0.7818608E-02  0.1130116E+00
         25   -1    0    0    0    0  0.00000000000E+00  0.00000000000E+00  0.99999998245E-14  0.12500000000E+03  0.12500000000E+03 0.  0.
        -13    1    3    3    0    0 -0.41014985487E+01  0.43698439683E+02 -0.17384883207E+02  0.47208275220E+02  0.10566000000E+00 0. -1.
         23    2    1    0    0    0 -0.26985651243E+02  0.82515319553E+01  0.69804519035E+01  0.95930430664E+02  0.91419952231E+02 0.  0.
         13    1    3    3    0    0 -0.22884152694E+02 -0.35446907728E+02  0.24365335111E+02  0.48722155444E+02  0.10566000000E+00 0.  1.
         22    1    1    0    0    0  0.26985651243E+02 -0.82515319553E+01 -0.69804519035E+01  0.29069569336E+02  0.00000000000E+00 0. -1.
</event>
<event>
 5    1  0.1319298E-009  0.9118800E+02  0.7818608E-02  0.1130116E+00
         25   -1    0    0    0    0  0.00000000000E+00  0.00000000000E+00  0.99999998245E-14  0.12500000000E+03  0.12500000000E+03 0.  0.
        -13    1    3    3    0    0 -0.27305557708E+02  0.35368455293E+02 -0.16916251225E+02  0.47777524330E+02  0.10566000000E+00 0.  1.
         23    2    1    0    0    0 -0.31321822037E+02 -0.73725480134E+01 -0.10300639099E+02  0.91213698548E+02  0.84725584312E+02 0.  0.
         13    1    3    3    0    0 -0.40162643289E+01 -0.42741003307E+02  0.66156121257E+01  0.43436174217E+02  0.10566000000E+00 0. -1.
         22    1    1    0    0    0  0.31321822037E+02  0.73725480134E+01  0.10300639099E+02  0.33786301452E+02  0.00000000000E+00 0.  1.
</event>
<event>
 5    1  0.1319298E-009  0.9118800E+02  0.7818608E-02  0.1130116E+00
         25   -1    0    0    0    0  0.00000000000E+00  0.00000000000E+00  0.99999998245E-14  0.12500000000E+03  0.12500000000E+03 0.  0.
        -13    1    3    3    0    0  0.29389019922E+02 -0.21468158124E+01  0.29074853626E+02  0.41396637394E+02  0.10566000000E+00 0.  1.
         23    2    1    0    0    0  0.22697637283E+02  0.68297873385E+01 -0.21380216754E+02  0.93079122791E+02  0.87434436567E+02 0.  0.
         13    1    3    3    0    0 -0.66913826388E+01  0.89766031509E+01 -0.50455070380E+02  0.51682485398E+02  0.10566000000E+00 0. -1.
         22    1    1    0    0    0 -0.22697637283E+02 -0.68297873385E+01  0.21380216754E+02  0.31920877209E+02  0.00000000000E+00 0. -1.
</event>
<event>
 5    1  0.1319298E-009  0.9118800E+02  0.7818608E-02  0.1130116E+00
         25   -1    0    0    0    0  0.00000000000E+00  0.00000000000E+00  0.99999998245E-14  0.12500000000E+03  0.12500000000E+03 0.  0.
        -13    1    3    3    0    0  0.34055789027E+02  0.46849029704E+02  0.10742564657E+02  0.58907064176E+02  0.10566000000E+00 0. -1.
         23    2    1    0    0    0  0.16604522998E+02  0.22784501092E+02 -0.99237918236E+01  0.95111451722E+02  0.90293205340E+02 0.  0.
         13    1    3    3    0    0 -0.17451266028E+02 -0.24064528612E+02 -0.20666356481E+02  0.36204387546E+02  0.10566000000E+00 0.  1.
         22    1    1    0    0    0 -0.16604522998E+02 -0.22784501092E+02  0.99237918236E+01  0.29888548278E+02  0.00000000000E+00 0. -1.
</event>
<event>
 5    1  0.1319298E-009  0.9118800E+02  0.7818608E-02  0.1130116E+00
         25   -1    0    0    0    0  0.00000000000E+00  0.00000000000E+00  0.99999998245E-14  0.12500000000E+03  0.12500000000E+03 0.  0.
        -13    1    3    3    0    0 -0.30575959637E+02  0.13033806983E+02  0.31537322360E+02  0.45819027683E+02  0.10566000000E+00 0.  1.
         23    2    1    0    0    0 -0.14399459289E+02  0.17540073850E+02 -0.16653256171E+02  0.96851650855E+02  0.92670991760E+02 0.  0.
         13    1    3    3    0    0  0.16176500348E+02  0.45062668673E+01 -0.48190578531E+02  0.51032623172E+02  0.10566000000E+00 0. -1.
         22    1    1    0    0    0  0.14399459289E+02 -0.17540073850E+02  0.16653256171E+02  0.28148349145E+02  0.00000000000E+00 0.  1.
</event>
<event>
 5    1  0.1319298E-009  0.9118800E+02  0.7818608E-02  0.1130116E+00
         25   -1    0    0    0    0  0.00000000000E+00  0.00000000000E+00  0.99999998245E-14  0.12500000000E+03  0.12500000000E+03 0.  0.
        -13    1    3    3    0    0  0.15555607049E+02 -0.53805701772E+02  0.24067857275E+02  0.60961490891E+02  0.10566000000E+00 0. -1.
         23    2    1    0    0    0  0.69186010712E+01 -0.42493663741E+02  0.10368951329E+02  0.80715762956E+02  0.67482892195E+02 0.  0.
         13    1    3    3    0    0 -0.86370059773E+01  0.11312038031E+02 -0.13698905946E+02  0.19754272065E+02  0.10566000000E+00 0.  1.
         22    1    1    0    0    0 -0.69186010712E+01  0.42493663741E+02 -0.10368951329E+02  0.44284237044E+02  0.00000000000E+00 0. -1.
</event>
<event>
 5    1  0.1319298E-009  0.9118800E+02  0.7818608E-02  0.1130116E+00
         25   -1    0    0    0    0  0.00000000000E+00  0.00000000000E+00  0.99999998245E-14  0.12500000000E+03  0.12500000000E+03 0.  0.
        -13    1    3    3    0    0 -0.28787111738E+02  0.12608710892E-01  0.31183039395E+02  0.42439263320E+02  0.10566000000E+00 0. -1.
         23    2    1    0    0    0  0.18469882121E+02  0.16314162200E+02  0.18974540665E+02  0.93898205400E+02  0.88597693819E+02 0.  0.
         13    1    3    3    0    0  0.47256993859E+02  0.16301553489E+02 -0.12208498729E+02  0.51458942081E+02  0.10566000000E+00 0.  1.
         22    1    1    0    0    0 -0.18469882121E+02 -0.16314162200E+02 -0.18974540665E+02  0.31101794600E+02  0.00000000000E+00 0.  1.
</event>
<event>
 5    1  0.1319298E-009  0.9118800E+02  0.7818608E-02  0.1130116E+00
         25   -1    0    0    0    0  0.00000000000E+00  0.00000000000E+00  0.99999998245E-14  0.12500000000E+03  0.12500000000E+03 0.  0.
        -13    1    3    3    0    0 -0.32316736226E+02 -0.11981108657E+02 -0.33688176363E+02  0.48195671960E+02  0.10566000000E+00 0.  1.
         23    2    1    0    0    0  0.11111024234E+02 -0.19856645860E+02 -0.20791412093E+02  0.94177539664E+02  0.88990926032E+02 0.  0.
         13    1    3    3    0    0  0.43427760461E+02 -0.78755372026E+01  0.12896764270E+02  0.45981867704E+02  0.10566000000E+00 0. -1.
         22    1    1    0    0    0 -0.11111024234E+02  0.19856645860E+02  0.20791412093E+02  0.30822460336E+02  0.00000000000E+00 0.  1.
</event>
<event>
 5    1  0.1319298E-009  0.9118800E+02  0.7818608E-02  0.1130116E+00
         25   -1    0    0    0    0  0.00000000000E+00  0.00000000000E+00  0.99999998245E-14  0.12500000000E+03  0.12500000000E+03 0.  0.
        -13    1    3    3    0    0 -0.24484469558E+02  0.94387147667E+01 -0.56536277119E+02  0.62329289909E+02  0.10566000000E+00 0.  1.
         23    2    1    0    0    0 -0.10802718974E+02  0.75442190244E+01 -0.29564363443E+02  0.92632337685E+02  0.86793343185E+02 0.  0.
         13    1    3    3    0    0  0.13681750584E+02 -0.18944957423E+01  0.26971913676E+02  0.30303047776E+02  0.10566000000E+00 0. -1.
         22    1    1    0    0    0  0.10802718974E+02 -0.75442190244E+01  0.29564363443E+02  0.32367662315E+02  0.00000000000E+00 0.  1.
</event>
<event>
 5    1  0.1319298E-009  0.9118800E+02  0.7818608E-02  0.1130116E+00
         25   -1    0    0    0    0  0.00000000000E+00  0.00000000000E+00  0.99999998245E-14  0.12500000000E+03  0.12500000000E+03 0.  0.
        -13    1    3    3    0    0  0.23984968942E+02 -0.18269554215E+02 -0.10498878471E+02  0.31926367779E+02  0.10566000000E+00 0.  1.
         23    2    1    0    0    0 -0.27426437286E+02  0.51277901691E+01  0.14336851842E+02  0.93630444457E+02  0.88219108555E+02 0.  0.
         13    1    3    3    0    0 -0.51411406228E+02  0.23397344384E+02  0.24835730312E+02  0.61704076679E+02  0.10566000000E+00 0. -1.
         22    1    1    0    0    0  0.27426437286E+02 -0.51277901691E+01 -0.14336851842E+02  0.31369555543E+02  0.00000000000E+00 0. -1.
</event>
<event>
 5    1  0.1319298E-009  0.9118800E+02  0.7818608E-02  0.1130116E+00
         25   -1    0    0    0    0  0.00000000000E+00  0.00000000000E+00  0.99999998245E-14  0.12500000000E+03  0.12500000000E+03 0.  0.
        -13    1    3    3    0    0  0.10791279454E+02 -0.33016270477E+01 -0.57143713345E+02  0.58247468549E+02  0.10566000000E+00 0. -1.
         23    2    1    0    0    0  0.17910073790E+02  0.80398225167E+01 -0.24004684296E+02  0.93989770117E+02  0.88726785861E+02 0.  0.
         13    1    3    3    0    0  0.71187943366E+01  0.11341449564E+02  0.33139029049E+02  0.35742301568E+02  0.10566000000E+00 0.  1.
         22    1    1    0    0    0 -0.17910073790E+02 -0.80398225167E+01  0.24004684296E+02  0.31010229883E+02  0.00000000000E+00 0. -1.
</event>
<event>
 5    1  0.1319298E-009  0.9118800E+02  0.7818608E-02  0.1130116E+00
         25   -1    0    0    0    0  0.00000000000E+00  0.00000000000E+00  0.99999998245E-14  0.12500000000E+03  0.12500000000E+03 0.  0.
        -13    1    3    3    0    0 -0.17709989741E+02 -0.11120300095E+02  0.10852271845E+02  0.23560300912E+02  0.10566000000E+00 0. -1.
         23    2    1    0    0    0  0.40846001091E+02 -0.38045933611E+01 -0.18978660867E+01  0.83933314822E+02  0.73200605910E+02 0.  0.
         13    1    3    3    0    0  0.58555990832E+02  0.73157067338E+01 -0.12750137932E+02  0.60373013911E+02  0.10566000000E+00 0.  1.
         22    1    1    0    0    0 -0.40846001091E+02  0.38045933611E+01  0.18978660867E+01  0.41066685178E+02  0.00000000000E+00 0.  1.
</event>
<event>
 5    1  0.1319298E-009  0.9118800E+02  0.7818608E-02  0.1130116E+00
         25   -1    0    0    0    0  0.00000000000E+00  0.00000000000E+00  0.99999998245E-14  0.12500000000E+03  0.12500000000E+03 0.  0.
        -13    1    3    3    0    0 -0.86813379190E+01 -0.25683687684E+02 -0.25831295015E+02  0.37447088102E+02  0.10566000000E+00 0. -1.
         23    2    1    0    0    0  0.15021937535E+02 -0.80327382987E+01  0.24110948401E+02  0.95478459988E+02  0.90799862318E+02 0.  0.
         13    1    3    3    0    0  0.23703275454E+02  0.17650949386E+02  0.49942243416E+02  0.58031371886E+02  0.10566000000E+00 0.  1.
         22    1    1    0    0    0 -0.15021937535E+02  0.80327382987E+01 -0.24110948401E+02  0.29521540012E+02  0.00000000000E+00 0.  1.
</event>
<event>
 5    1  0.1319298E-009  0.9118800E+02  0.7818608E-02  0.1130116E+00
         25   -1    0    0    0    0  0.00000000000E+00  0.00000000000E+00  0.99999998245E-14  0.12500000000E+03  0.12500000000E+03 0.  0.
        -13    1    3    3    0    0  0.33760010886E+02 -0.22052427107E+02  0.34491099182E+02  0.53063122440E+02  0.10566000000E+00 0. -1.
         23    2    1    0    0    0  0.28580622151E+02  0.19183289334E+01 -0.11563274338E+01  0.96331741568E+02  0.91967034267E+02 0.  0.
         13    1    3    3    0    0 -0.51793887351E+01  0.23970756040E+02 -0.35647426616E+02  0.43268619127E+02  0.10566000000E+00 0.  1.
         22    1    1    0    0    0 -0.28580622151E+02 -0.19183289334E+01  0.11563274338E+01  0.28668258432E+02  0.00000000000E+00 0. -1.
</event>
<event>
 5    1  0.1319298E-009  0.9118800E+02  0.7818608E-02  0.1130116E+00
         25   -1    0    0    0    0  0.00000000000E+00  0.00000000000E+00  0.99999998245E-14  0.12500000000E+03  0.12500000000E+03 0.  0.
        -13    1    3    3    0    0 -0.28083770836E+02  0.79044356063E+01  0.16976811527E+02  0.33755023037E+02  0.10566000000E+00 0.  1.
         23    2    1    0    0    0  0.22331639838E+02 -0.15204513182E+02 -0.10950044954E+02  0.95848964968E+02  0.91308494905E+02 0.  0.
         13    1    3    3    0    0  0.50415410674E+02 -0.23108948788E+02 -0.27926856480E+02  0.62093941930E+02  0.10566000000E+00 0. -1.
         22    1    1    0    0    0 -0.22331639838E+02  0.15204513182E+02  0.10950044954E+02  0.29151035032E+02  0.00000000000E+00 0. -1.
</event>
<event>
 5    1  0.1319298E-009  0.9118800E+02  0.7818608E-02  0.1130116E+00
         25   -1    0    0    0    0  0.00000000000E+00  0.00000000000E+00  0.99999998245E-14  0.12500000000E+03  0.12500000000E+03 0.  0.
        -13    1    3    3    0    0  0.12170780880E+02 -0.28128247852E+02 -0.44408128817E+02  0.53957569474E+02  0.10566000000E+00 0. -1.
         23    2    1    0    0    0  0.23779261179E+02  0.12497067217E+01 -0.20610444492E+02  0.93507057120E+02  0.88044104175E+02 0.  0.
         13    1    3    3    0    0  0.11608480298E+02  0.29377954574E+02  0.23797684325E+02  0.39549487646E+02  0.10566000000E+00 0.  1.
         22    1    1    0    0    0 -0.23779261179E+02 -0.12497067217E+01  0.20610444492E+02  0.31492942880E+02  0.00000000000E+00 0.  1.
</event>
<event>
 5    1  0.1319298E-009  0.9118800E+02  0.7818608E-02  0.1130116E+00
         25   -1    0    0    0    0  0.00000000000E+00  0.00000000000E+00  0.99999998245E-14  0.12500000000E+03  0.12500000000E+03 0.  0.
        -13    1    3    3    0    0  0.25956271641E+02 -0.19459734458E+02 -0.33307845429E+02  0.46495516277E+02  0.10566000000E+00 0. -1.
         23    2    1    0    0    0 -0.11474558884E+02 -0.27508326566E+02 -0.35558267846E+01  0.94983047520E+02  0.90115269961E+02 0.  0.
         13    1    3    3    0    0 -0.37430830525E+02 -0.80485921076E+01  0.29752018644E+02  0.48487531244E+02  0.10566000000E+00 0.  1.
         22    1    1    0    0    0  0.11474558884E+02  0.27508326566E+02  0.35558267846E+01  0.30016952480E+02  0.00000000000E+00 0. -1.
</event>
<event>
 5    1  0.1319298E-009  0.9118800E+02  0.7818608E-02  0.1130116E+00
         25   -1    0    0    0    0  0.00000000000E+00  0.00000000000E+00  0.99999998245E-14  0.12500000000E+03  0.12500000000E+03 0.  0.
        -13    1    3    3    0    0 -0.19429003041E+02 -0.27505027260E+02  0.19856682605E+01  0.33733762409E+02  0.10566000000E+00 0.  1.
         23    2    1    0    0    0  0.71720043073E+01  0.26069472355E+02 -0.12399500711E+02  0.95254367505E+02  0.90490838631E+02 0.  0.
         13    1    3    3    0    0  0.26601007349E+02  0.53574499615E+02 -0.14385168971E+02  0.61520605096E+02  0.10566000000E+00 0. -1.
         22    1    1    0    0    0 -0.71720043073E+01 -0.26069472355E+02  0.12399500711E+02  0.29745632495E+02  0.00000000000E+00 0. -1.
</event>
<event>
 5    1  0.1319298E-009  0.9118800E+02  0.7818608E-02  0.1130116E+00
         25   -1    0    0    0    0  0.00000000000E+00  0.00000000000E+00  0.99999998245E-14  0.12500000000E+03  0.12500000000E+03 0.  0.
        -13    1    3    3    0    0 -0.44550531421E+00 -0.12157226854E+02  0.51065901448E+02  0.52495086385E+02  0.10566000000E+00 0. -1.
         23    2    1    0    0    0 -0.13388073632E+02  0.14482259758E+02  0.30958417428E+02  0.88293052798E+02  0.80301078445E+02 0.  0.
         13    1    3    3    0    0 -0.12942568318E+02  0.26639486612E+02 -0.20107484020E+02  0.35797966413E+02  0.10566000000E+00 0.  1.
         22    1    1    0    0    0  0.13388073632E+02 -0.14482259758E+02 -0.30958417428E+02  0.36706947202E+02  0.00000000000E+00 0.  1.
</event>
<event>
 5    1  0.1319298E-009  0.9118800E+02  0.7818608E-02  0.1130116E+00
         25   -1    0    0    0    0  0.00000000000E+00  0.00000000000E+00  0.99999998245E-14  0.12500000000E+03  0.12500000000E+03 0.  0.
        -13    1    3    3    0    0  0.25264280283E+02 -0.40266756268E+02  0.28948606074E+02  0.55657241005E+02  0.10566000000E+00 0.  1.
         23    2    1    0    0    0  0.21859205982E+02 -0.14625609286E+01  0.19336361639E+02  0.95779136698E+02  0.91212850929E+02 0.  0.
         13    1    3    3    0    0 -0.34050743007E+01  0.38804195339E+02 -0.96122444349E+01  0.40121895694E+02  0.10566000000E+00 0. -1.
         22    1    1    0    0    0 -0.21859205982E+02  0.14625609286E+01 -0.19336361639E+02  0.29220863302E+02  0.00000000000E+00 0.  1.
</event>
<event>
 5    1  0.1319298E-009  0.9118800E+02  0.7818608E-02  0.1130116E+00
         25   -1    0    0    0    0  0.00000000000E+00  0.00000000000E+00  0.99999998245E-14  0.12500000000E+03  0.12500000000E+03 0.  0.
        -13    1    3    3    0    0 -0.10001854575E+02 -0.15093933262E+02 -0.27086970526E+02  0.32581882275E+02  0.10566000000E+00 0.  1.
         23    2    1    0    0    0  0.19658363731E+02  0.22227516521E+02  0.10744548849E+02  0.93441180547E+02  0.87950526643E+02 0.  0.
         13    1    3    3    0    0  0.29660218307E+02  0.37321449783E+02  0.37831519375E+02  0.60859298272E+02  0.10566000000E+00 0. -1.
         22    1    1    0    0    0 -0.19658363731E+02 -0.22227516521E+02 -0.10744548849E+02  0.31558819453E+02  0.00000000000E+00 0. -1.
</event>
<event>
 5    1  0.1319298E-009  0.9118800E+02  0.7818608E-02  0.1130116E+00
         25   -1    0    0    0    0  0.00000000000E+00  0.00000000000E+00  0.99999998245E-14  0.12500000000E+03  0.12500000000E+03 0.  0.
        -13    1    3    3    0    0 -0.19126540392E+02 -0.40867148290E+02 -0.35488394049E+02  0.57405449506E+02  0.10566000000E+00 0. -1.
         23    2    1    0    0    0  0.56113126253E+01 -0.26835515990E+02 -0.93479312551E+01  0.96034234576E+02  0.91561775016E+02 0.  0.
         13    1    3    3    0    0  0.24737853017E+02  0.14031632300E+02  0.26140462794E+02  0.38628785071E+02  0.10566000000E+00 0.  1.
         22    1    1    0    0    0 -0.56113126253E+01  0.26835515990E+02  0.93479312551E+01  0.28965765424E+02  0.00000000000E+00 0. -1.
</event>
<event>
 5    1  0.1319298E-009  0.9118800E+02  0.7818608E-02  0.1130116E+00
         25   -1    0    0    0    0  0.00000000000E+00  0.00000000000E+00  0.99999998245E-14  0.12500000000E+03  0.12500000000E+03 0.  0.
        -13    1    3    3    0    0 -0.16673555756E+02  0.31111588403E+02  0.21422293520E+02  0.41290001431E+02  0.10566000000E+00 0.  1.
         23    2    1    0    0    0  0.24908401636E+02  0.10894977729E+02 -0.86790969376E+01  0.96461329123E+02  0.92142999087E+02 0.  0.
         13    1    3    3    0    0  0.41581957392E+02 -0.20216610674E+02 -0.30101390457E+02  0.55171327691E+02  0.10566000000E+00 0. -1.
         22    1    1    0    0    0 -0.24908401636E+02 -0.10894977729E+02  0.86790969376E+01  0.28538670877E+02  0.00000000000E+00 0. -1.
</event>
<event>
 5    1  0.1319298E-009  0.9118800E+02  0.7818608E-02  0.1130116E+00
         25   -1    0    0    0    0  0.00000000000E+00  0.00000000000E+00  0.99999998245E-14  0.12500000000E+03  0.12500000000E+03 0.  0.
        -13    1    3    3    0    0  0.37979984953E+01  0.15530196725E+02  0.16329031590E+02  0.22853013796E+02  0.10566000000E+00 0. -1.
         23    2    1    0    0    0  0.87087530238E+01 -0.26448721222E+02 -0.28976844064E+02  0.84812505360E+02  0.74686855202E+02 0.  0.
         13    1    3    3    0    0  0.49107545284E+01 -0.41978917947E+02 -0.45305875654E+02  0.61959491564E+02  0.10566000000E+00 0.  1.
         22    1    1    0    0    0 -0.87087530238E+01  0.26448721222E+02  0.28976844064E+02  0.40187494640E+02  0.00000000000E+00 0.  1.
</event>
<event>
 5    1  0.1319298E-009  0.9118800E+02  0.7818608E-02  0.1130116E+00
         25   -1    0    0    0    0  0.00000000000E+00  0.00000000000E+00  0.99999998245E-14  0.12500000000E+03  0.12500000000E+03 0.  0.
        -13    1    3    3    0    0  0.44229180655E+02  0.14037869659E+02 -0.30540820134E+02  0.55552093251E+02  0.10566000000E+00 0. -1.
         23    2    1    0    0    0  0.88675607436E+01 -0.24550249052E+01 -0.28971497893E+02  0.94602492355E+02  0.89585842011E+02 0.  0.
         13    1    3    3    0    0 -0.35361619912E+02 -0.16492894565E+02  0.15693222411E+01  0.39050399105E+02  0.10566000000E+00 0.  1.
         22    1    1    0    0    0 -0.88675607436E+01  0.24550249052E+01  0.28971497893E+02  0.30397507645E+02  0.00000000000E+00 0. -1.
</event>
<event>
 5    1  0.1319298E-009  0.9118800E+02  0.7818608E-02  0.1130116E+00
         25   -1    0    0    0    0  0.00000000000E+00  0.00000000000E+00  0.99999998245E-14  0.12500000000E+03  0.12500000000E+03 0.  0.
        -13    1    3    3    0    0  0.33334113262E+01  0.29470279839E+02  0.19412227527E+02  0.35446505701E+02  0.10566000000E+00 0.  1.
         23    2    1    0    0    0 -0.91970281534E+01 -0.11892857975E+02 -0.23984158064E+02  0.96693371170E+02  0.92457248459E+02 0.  0.
         13    1    3    3    0    0 -0.12530439480E+02 -0.41363137814E+02 -0.43396385591E+02  0.61246865469E+02  0.10566000000E+00 0. -1.
         22    1    1    0    0    0  0.91970281534E+01  0.11892857975E+02  0.23984158064E+02  0.28306628830E+02  0.00000000000E+00 0. -1.
</event>
<event>
 5    1  0.1319298E-009  0.9118800E+02  0.7818608E-02  0.1130116E+00
         25   -1    0    0    0    0  0.00000000000E+00  0.00000000000E+00  0.99999998245E-14  0.12500000000E+03  0.12500000000E+03 0.  0.
        -13    1    3    3    0    0  0.30254318489E+02 -0.22087402283E+02  0.18086533466E+02  0.41597006908E+02  0.10566000000E+00 0.  1.
         23    2    1    0    0    0  0.71312008377E+01  0.25122678500E+02  0.16338674675E+02  0.94194882072E+02  0.89015282497E+02 0.  0.
         13    1    3    3    0    0 -0.23123117651E+02  0.47210080783E+02 -0.17478587910E+01  0.52597875164E+02  0.10566000000E+00 0. -1.
         22    1    1    0    0    0 -0.71312008377E+01 -0.25122678500E+02 -0.16338674675E+02  0.30805117928E+02  0.00000000000E+00 0. -1.
</event>
<event>
 5    1  0.1319298E-009  0.9118800E+02  0.7818608E-02  0.1130116E+00
         25   -1    0    0    0    0  0.00000000000E+00  0.00000000000E+00  0.99999998245E-14  0.12500000000E+03  0.12500000000E+03 0.  0.
        -13    1    3    3    0    0 -0.14783794877E+01  0.58470443581E+01  0.60011618845E+02  0.60314004129E+02  0.10566000000E+00 0. -1.
         23    2    1    0    0    0 -0.36386367263E+01  0.13510567977E+02  0.23791661449E+02  0.97398944245E+02  0.93406295619E+02 0.  0.
         13    1    3    3    0    0 -0.21602572387E+01  0.76635236193E+01 -0.36219957396E+02  0.37084940116E+02  0.10566000000E+00 0.  1.
         22    1    1    0    0    0  0.36386367263E+01 -0.13510567977E+02 -0.23791661449E+02  0.27601055755E+02  0.00000000000E+00 0. -1.
</event>
<event>
 5    1  0.1319298E-009  0.9118800E+02  0.7818608E-02  0.1130116E+00
         25   -1    0    0    0    0  0.00000000000E+00  0.00000000000E+00  0.99999998245E-14  0.12500000000E+03  0.12500000000E+03 0.  0.
        -13    1    3    3    0    0 -0.29853266423E+02 -0.23945857084E+02 -0.40509750368E+02  0.55728562035E+02  0.10566000000E+00 0. -1.
         23    2    1    0    0    0 -0.26681390637E+02  0.34139285861E+01 -0.11455227330E+02  0.95763486051E+02  0.91191400432E+02 0.  0.
         13    1    3    3    0    0  0.31718757861E+01  0.27359785670E+02  0.29054523038E+02  0.40034924015E+02  0.10566000000E+00 0.  1.
         22    1    1    0    0    0  0.26681390637E+02 -0.34139285861E+01  0.11455227330E+02  0.29236513949E+02  0.00000000000E+00 0. -1.
</event>
<event>
 5    1  0.1319298E-009  0.9118800E+02  0.7818608E-02  0.1130116E+00
         25   -1    0    0    0    0  0.00000000000E+00  0.00000000000E+00  0.99999998245E-14  0.12500000000E+03  0.12500000000E+03 0.  0.
        -13    1    3    3    0    0 -0.39047783915E+02  0.22923427798E+02  0.10836708188E+02  0.46558118294E+02  0.10566000000E+00 0. -1.
         23    2    1    0    0    0 -0.52238912523E+01 -0.53442389851E+01  0.29603609415E+02  0.94467662707E+02  0.89397514937E+02 0.  0.
         13    1    3    3    0    0  0.33823892662E+02 -0.28267666784E+02  0.18766901227E+02  0.47909544414E+02  0.10566000000E+00 0.  1.
         22    1    1    0    0    0  0.52238912523E+01  0.53442389851E+01 -0.29603609415E+02  0.30532337293E+02  0.00000000000E+00 0.  1.
</event>
<event>
 5    1  0.1319298E-009  0.9118800E+02  0.7818608E-02  0.1130116E+00
         25   -1    0    0    0    0  0.00000000000E+00  0.00000000000E+00  0.99999998245E-14  0.12500000000E+03  0.12500000000E+03 0.  0.
        -13    1    3    3    0    0  0.13960299887E+02  0.40293328742E+02  0.10066512003E+02  0.43815387046E+02  0.10566000000E+00 0.  1.
         23    2    1    0    0    0 -0.92261895603E+01 -0.25009211410E+01  0.27788372893E+02  0.95613424010E+02  0.90985471381E+02 0.  0.
         13    1    3    3    0    0 -0.23186489447E+02 -0.42794249883E+02  0.17721860890E+02  0.51798036964E+02  0.10566000000E+00 0. -1.
         22    1    1    0    0    0  0.92261895603E+01  0.25009211410E+01 -0.27788372893E+02  0.29386575990E+02  0.00000000000E+00 0. -1.
</event>
<event>
 5    1  0.1319298E-009  0.9118800E+02  0.7818608E-02  0.1130116E+00
         25   -1    0    0    0    0  0.00000000000E+00  0.00000000000E+00  0.99999998245E-14  0.12500000000E+03  0.12500000000E+03 0.  0.
        -13    1    3    3    0    0  0.63398901263E+01 -0.26341355059E+02 -0.21660768691E+02  0.34688056409E+02  0.10566000000E+00 0.  1.
         23    2    1    0    0    0 -0.19456262169E+02  0.18758634032E+02  0.10738163688E+02  0.95918379555E+02  0.91403473067E+02 0.  0.
         13    1    3    3    0    0 -0.25796152296E+02  0.45099989090E+02  0.32398932379E+02  0.61230323146E+02  0.10566000000E+00 0. -1.
         22    1    1    0    0    0  0.19456262169E+02 -0.18758634032E+02 -0.10738163688E+02  0.29081620445E+02  0.00000000000E+00 0. -1.
</event>
<event>
 5    1  0.1319298E-009  0.9118800E+02  0.7818608E-02  0.1130116E+00
         25   -1    0    0    0    0  0.00000000000E+00  0.00000000000E+00  0.99999998245E-14  0.12500000000E+03  0.12500000000E+03 0.  0.
        -13    1    3    3    0    0  0.33101410930E+02  0.31115566790E+01  0.25701708507E+02  0.42023495509E+02  0.10566000000E+00 0.  1.
         23    2    1    0    0    0 -0.81275139114E+01 -0.26422400118E+02  0.45027980150E+01  0.96991520921E+02  0.92859464947E+02 0.  0.
         13    1    3    3    0    0 -0.41228924842E+02 -0.29533956796E+02 -0.21198910492E+02  0.54968025412E+02  0.10566000000E+00 0. -1.
         22    1    1    0    0    0  0.81275139114E+01  0.26422400118E+02 -0.45027980150E+01  0.28008479079E+02  0.00000000000E+00 0. -1.
</event>
<event>
 5    1  0.1319298E-009  0.9118800E+02  0.7818608E-02  0.1130116E+00
         25   -1    0    0    0    0  0.00000000000E+00  0.00000000000E+00  0.99999998245E-14  0.12500000000E+03  0.12500000000E+03 0.  0.
        -13    1    3    3    0    0  0.21695369475E+02 -0.14278898892E+02  0.50720049905E+02  0.56983424227E+02  0.10566000000E+00 0.  1.
         23    2    1    0    0    0 -0.53056136555E+01 -0.17335998928E+02  0.21149284744E+02  0.97143606833E+02  0.93063965681E+02 0.  0.
         13    1    3    3    0    0 -0.27000983131E+02 -0.30571000366E+01 -0.29570765162E+02  0.40160182606E+02  0.10566000000E+00 0. -1.
         22    1    1    0    0    0  0.53056136555E+01  0.17335998928E+02 -0.21149284744E+02  0.27856393167E+02  0.00000000000E+00 0.  1.
</event>
<event>
 5    1  0.1319298E-009  0.9118800E+02  0.7818608E-02  0.1130116E+00
         25   -1    0    0    0    0  0.00000000000E+00  0.00000000000E+00  0.99999998245E-14  0.12500000000E+03  0.12500000000E+03 0.  0.
        -13    1    3    3    0    0 -0.13299966453E+02 -0.51095128510E+02  0.10175745714E+02  0.53769491629E+02  0.10566000000E+00 0. -1.
         23    2    1    0    0    0 -0.16695204920E+02 -0.16210954803E+02 -0.15344807410E+02  0.97125494850E+02  0.93039635169E+02 0.  0.
         13    1    3    3    0    0 -0.33952384666E+01  0.34884173708E+02 -0.25520553124E+02  0.43356003221E+02  0.10566000000E+00 0.  1.
         22    1    1    0    0    0  0.16695204920E+02  0.16210954803E+02  0.15344807410E+02  0.27874505150E+02  0.00000000000E+00 0. -1.
</event>
<event>
 5    1  0.1319298E-009  0.9118800E+02  0.7818608E-02  0.1130116E+00
         25   -1    0    0    0    0  0.00000000000E+00  0.00000000000E+00  0.99999998245E-14  0.12500000000E+03  0.12500000000E+03 0.  0.
        -13    1    3    3    0    0  0.62029743251E+01 -0.52979393928E+02 -0.64409224742E+01  0.53728853681E+02  0.10566000000E+00 0.  1.
         23    2    1    0    0    0 -0.16047247588E+02 -0.24476362883E+02  0.10819104716E+02  0.93796482218E+02  0.88454059005E+02 0.  0.
         13    1    3    3    0    0 -0.22250221913E+02  0.28503031045E+02  0.17260027190E+02  0.40067628537E+02  0.10566000000E+00 0. -1.
         22    1    1    0    0    0  0.16047247588E+02  0.24476362883E+02 -0.10819104716E+02  0.31203517782E+02  0.00000000000E+00 0. -1.
</event>
<event>
 5    1  0.1319298E-009  0.9118800E+02  0.7818608E-02  0.1130116E+00
         25   -1    0    0    0    0  0.00000000000E+00  0.00000000000E+00  0.99999998245E-14  0.12500000000E+03  0.12500000000E+03 0.  0.
        -13    1    3    3    0    0  0.24737542449E+02 -0.22630201085E+02  0.65789027785E+01  0.34166725529E+02  0.10566000000E+00 0. -1.
         23    2    1    0    0    0 -0.30256913946E+02  0.12171546851E+00 -0.35417963608E+01  0.94536251418E+02  0.89493367657E+02 0.  0.
         13    1    3    3    0    0 -0.54994456395E+02  0.22751916553E+02 -0.10120699139E+02  0.60369525889E+02  0.10566000000E+00 0.  1.
         22    1    1    0    0    0  0.30256913946E+02 -0.12171546851E+00  0.35417963608E+01  0.30463748582E+02  0.00000000000E+00 0.  1.
</event>
<event>
 5    1  0.1319298E-009  0.9118800E+02  0.7818608E-02  0.1130116E+00
         25   -1    0    0    0    0  0.00000000000E+00  0.00000000000E+00  0.99999998245E-14  0.12500000000E+03  0.12500000000E+03 0.  0.
        -13    1    3    3    0    0 -0.22763284315E+02 -0.85998596281E+01 -0.25610894737E+02  0.35327804796E+02  0.10566000000E+00 0.  1.
         23    2    1    0    0    0 -0.29095332528E+01  0.16681289202E+02  0.24713043805E+02  0.95042274330E+02  0.90197386783E+02 0.  0.
         13    1    3    3    0    0  0.19853751062E+02  0.25281148830E+02  0.50323938542E+02  0.59714469535E+02  0.10566000000E+00 0. -1.
         22    1    1    0    0    0  0.29095332528E+01 -0.16681289202E+02 -0.24713043805E+02  0.29957725670E+02  0.00000000000E+00 0. -1.
</event>
<event>
 5    1  0.1319298E-009  0.9118800E+02  0.7818608E-02  0.1130116E+00
         25   -1    0    0    0    0  0.00000000000E+00  0.00000000000E+00  0.99999998245E-14  0.12500000000E+03  0.12500000000E+03 0.  0.
        -13    1    3    3    0    0 -0.65323373319E+01  0.37476854325E+02  0.51044322517E+01  0.38382970622E+02  0.10566000000E+00 0. -1.
         23    2    1    0    0    0  0.24264349352E+02 -0.88637248737E+01 -0.11891698912E+02  0.96561702387E+02  0.92279063696E+02 0.  0.
         13    1    3    3    0    0  0.30796686684E+02 -0.46340579199E+02 -0.16996131164E+02  0.58178731765E+02  0.10566000000E+00 0.  1.
         22    1    1    0    0    0 -0.24264349352E+02  0.88637248737E+01  0.11891698912E+02  0.28438297613E+02  0.00000000000E+00 0.  1.
</event>
<event>
 5    1  0.1319298E-009  0.9118800E+02  0.7818608E-02  0.1130116E+00
         25   -1    0    0    0    0  0.00000000000E+00  0.00000000000E+00  0.99999998245E-14  0.12500000000E+03  0.12500000000E+03 0.  0.
        -13    1    3    3    0    0  0.25390433188E+02 -0.22275178050E+02 -0.15810124743E+02  0.37293818028E+02  0.10566000000E+00 0.  1.
         23    2    1    0    0    0 -0.12997181536E+02  0.22147162641E+02 -0.13354033009E+02  0.96056024141E+02  0.91591517267E+02 0.  0.
         13    1    3    3    0    0 -0.38387614724E+02  0.44422340691E+02  0.24560917348E+01  0.58762206113E+02  0.10566000000E+00 0. -1.
         22    1    1    0    0    0  0.12997181536E+02 -0.22147162641E+02  0.13354033009E+02  0.28943975859E+02  0.00000000000E+00 0. -1.
</event>
<event>
 5    1  0.1319298E-009  0.9118800E+02  0.7818608E-02  0.1130116E+00
         25   -1    0    0    0    0  0.00000000000E+00  0.00000000000E+00  0.99999998245E-14  0.12500000000E+03  0.12500000000E+03 0.  0.
        -13    1    3    3    0    0  0.34727193009E+02 -0.44004798577E+02  0.84479917897E+01  0.56690210455E+02  0.10566000000E+00 0.  1.
         23    2    1    0    0    0  0.25731823878E+02 -0.56994518385E+01  0.11684334258E+02  0.96170602185E+02  0.91747754993E+02 0.  0.
         13    1    3    3    0    0 -0.89953691313E+01  0.38305346738E+02  0.32363424681E+01  0.39480391730E+02  0.10566000000E+00 0. -1.
         22    1    1    0    0    0 -0.25731823878E+02  0.56994518385E+01 -0.11684334258E+02  0.28829397815E+02  0.00000000000E+00 0.  1.
</event>
<event>
 5    1  0.1319298E-009  0.9118800E+02  0.7818608E-02  0.1130116E+00
         25   -1    0    0    0    0  0.00000000000E+00  0.00000000000E+00  0.99999998245E-14  0.12500000000E+03  0.12500000000E+03 0.  0.
        -13    1    3    3    0    0  0.41956002034E+01 -0.15605401683E+02 -0.32146952963E+02  0.35980124675E+02  0.10566000000E+00 0.  1.
         23    2    1    0    0    0 -0.16377134020E+02  0.27215077133E+02 -0.18641131082E+00  0.93236724174E+02  0.87659460661E+02 0.  0.
         13    1    3    3    0    0 -0.20572734224E+02  0.42820478816E+02  0.31960541652E+02  0.57256599499E+02  0.10566000000E+00 0. -1.
         22    1    1    0    0    0  0.16377134020E+02 -0.27215077133E+02  0.18641131082E+00  0.31763275826E+02  0.00000000000E+00 0. -1.
</event>
<event>
 5    1  0.1319298E-009  0.9118800E+02  0.7818608E-02  0.1130116E+00
         25   -1    0    0    0    0  0.00000000000E+00  0.00000000000E+00  0.99999998245E-14  0.12500000000E+03  0.12500000000E+03 0.  0.
        -13    1    3    3    0    0 -0.95800284302E+01  0.28087410055E+02 -0.26106045399E+02  0.39524882273E+02  0.10566000000E+00 0. -1.
         23    2    1    0    0    0 -0.23193184291E+02 -0.23705195853E+01  0.18507613427E+02  0.95232989478E+02  0.90461303160E+02 0.  0.
         13    1    3    3    0    0 -0.13613155861E+02 -0.30457929640E+02  0.44613658826E+02  0.55708107205E+02  0.10566000000E+00 0.  1.
         22    1    1    0    0    0  0.23193184291E+02  0.23705195853E+01 -0.18507613427E+02  0.29767010522E+02  0.00000000000E+00 0.  1.
</event>
<event>
 5    1  0.1319298E-009  0.9118800E+02  0.7818608E-02  0.1130116E+00
         25   -1    0    0    0    0  0.00000000000E+00  0.00000000000E+00  0.99999998245E-14  0.12500000000E+03  0.12500000000E+03 0.  0.
        -13    1    3    3    0    0 -0.13473673173E+02 -0.16541170141E+02  0.31117047929E+02  0.37728397981E+02  0.10566000000E+00 0.  1.
         23    2    1    0    0    0  0.29181160101E+02 -0.43714252222E+01 -0.51781001909E+01  0.95042326778E+02  0.90197459467E+02 0.  0.
         13    1    3    3    0    0  0.42654833274E+02  0.12169744918E+02 -0.36295148120E+02  0.57313928796E+02  0.10566000000E+00 0. -1.
         22    1    1    0    0    0 -0.29181160101E+02  0.43714252222E+01  0.51781001909E+01  0.29957673222E+02  0.00000000000E+00 0. -1.
</event>
<event>
 5    1  0.1319298E-009  0.9118800E+02  0.7818608E-02  0.1130116E+00
         25   -1    0    0    0    0  0.00000000000E+00  0.00000000000E+00  0.99999998245E-14  0.12500000000E+03  0.12500000000E+03 0.  0.
        -13    1    3    3    0    0  0.20945009870E+01 -0.18837623774E+01  0.33735293290E+02  0.33852868010E+02  0.10566000000E+00 0.  1.
         23    2    1    0    0    0 -0.21938672436E+02 -0.10124468921E+02 -0.20221730542E+02  0.93492404007E+02  0.88023298062E+02 0.  0.
         13    1    3    3    0    0 -0.24033173423E+02 -0.82407065434E+01 -0.53957023832E+02  0.59639535997E+02  0.10566000000E+00 0. -1.
         22    1    1    0    0    0  0.21938672436E+02  0.10124468921E+02  0.20221730542E+02  0.31507595993E+02  0.00000000000E+00 0. -1.
</event>
<event>
 5    1  0.1319298E-009  0.9118800E+02  0.7818608E-02  0.1130116E+00
         25   -1    0    0    0    0  0.00000000000E+00  0.00000000000E+00  0.99999998245E-14  0.12500000000E+03  0.12500000000E+03 0.  0.
        -13    1    3    3    0    0 -0.28761190537E+02  0.50502178812E+02  0.14470802704E+02  0.59892332070E+02  0.10566000000E+00 0.  1.
         23    2    1    0    0    0 -0.86154439430E+01  0.34425909511E+02 -0.12465137761E+00  0.89512190009E+02  0.82176928041E+02 0.  0.
         13    1    3    3    0    0  0.20145746594E+02 -0.16076269301E+02 -0.14595454082E+02  0.29619857939E+02  0.10566000000E+00 0. -1.
         22    1    1    0    0    0  0.86154439430E+01 -0.34425909511E+02  0.12465137761E+00  0.35487809991E+02  0.00000000000E+00 0.  1.
</event>
<event>
 5    1  0.1319298E-009  0.9118800E+02  0.7818608E-02  0.1130116E+00
         25   -1    0    0    0    0  0.00000000000E+00  0.00000000000E+00  0.99999998245E-14  0.12500000000E+03  0.12500000000E+03 0.  0.
        -13    1    3    3    0    0 -0.20124896911E+02 -0.14571365319E+02  0.37338566666E+02  0.44849926283E+02  0.10566000000E+00 0. -1.
         23    2    1    0    0    0 -0.29890847661E+02 -0.14956367895E+01 -0.88121237385E+01  0.93801390607E+02  0.88460995087E+02 0.  0.
         13    1    3    3    0    0 -0.97659507495E+01  0.13075728529E+02 -0.46150690404E+02  0.48951464324E+02  0.10566000000E+00 0.  1.
         22    1    1    0    0    0  0.29890847661E+02  0.14956367895E+01  0.88121237385E+01  0.31198609393E+02  0.00000000000E+00 0.  1.
</event>
<event>
 5    1  0.1319298E-009  0.9118800E+02  0.7818608E-02  0.1130116E+00
         25   -1    0    0    0    0  0.00000000000E+00  0.00000000000E+00  0.99999998245E-14  0.12500000000E+03  0.12500000000E+03 0.  0.
        -13    1    3    3    0    0  0.34310113731E+02 -0.32593639165E+02 -0.37268075978E+02  0.60236615687E+02  0.10566000000E+00 0. -1.
         23    2    1    0    0    0  0.18555861999E+02 -0.20668427898E+02 -0.70466657730E+01  0.96344120589E+02  0.91983858079E+02 0.  0.
         13    1    3    3    0    0 -0.15754251732E+02  0.11925211266E+02  0.30221410205E+02  0.36107504902E+02  0.10566000000E+00 0.  1.
         22    1    1    0    0    0 -0.18555861999E+02  0.20668427898E+02  0.70466657730E+01  0.28655879411E+02  0.00000000000E+00 0. -1.
</event>
<event>
 5    1  0.1319298E-009  0.9118800E+02  0.7818608E-02  0.1130116E+00
         25   -1    0    0    0    0  0.00000000000E+00  0.00000000000E+00  0.99999998245E-14  0.12500000000E+03  0.12500000000E+03 0.  0.
        -13    1    3    3    0    0 -0.28861805084E+01  0.33952499613E+02  0.23980891273E+02  0.41667692258E+02  0.10566000000E+00 0. -1.
         23    2    1    0    0    0 -0.27392876806E+02  0.38555584494E+01 -0.12234631581E+02  0.94752334956E+02  0.89794675450E+02 0.  0.
         13    1    3    3    0    0 -0.24506696298E+02 -0.30096941163E+02 -0.36215522853E+02  0.53084642698E+02  0.10566000000E+00 0.  1.
         22    1    1    0    0    0  0.27392876806E+02 -0.38555584494E+01  0.12234631581E+02  0.30247665044E+02  0.00000000000E+00 0.  1.
</event>
<event>
 5    1  0.1319298E-009  0.9118800E+02  0.7818608E-02  0.1130116E+00
         25   -1    0    0    0    0  0.00000000000E+00  0.00000000000E+00  0.99999998245E-14  0.12500000000E+03  0.12500000000E+03 0.  0.
        -13    1    3    3    0    0  0.23581979212E+02 -0.41758333942E+02  0.31061842739E+02  0.57137705900E+02  0.10566000000E+00 0.  1.
         23    2    1    0    0    0  0.15872906068E+02 -0.46677171960E+01  0.24272926471E+02  0.95624641443E+02  0.91000881099E+02 0.  0.
         13    1    3    3    0    0 -0.77090731440E+01  0.37090616746E+02 -0.67889162679E+01  0.38486935543E+02  0.10566000000E+00 0. -1.
         22    1    1    0    0    0 -0.15872906068E+02  0.46677171960E+01 -0.24272926471E+02  0.29375358557E+02  0.00000000000E+00 0.  1.
</event>
<event>
 5    1  0.1319298E-009  0.9118800E+02  0.7818608E-02  0.1130116E+00
         25   -1    0    0    0    0  0.00000000000E+00  0.00000000000E+00  0.99999998245E-14  0.12500000000E+03  0.12500000000E+03 0.  0.
        -13    1    3    3    0    0 -0.10381588150E+01 -0.36792106351E+02 -0.25846094891E+02  0.44975200373E+02  0.10566000000E+00 0.  1.
         23    2    1    0    0    0 -0.28483620639E+02  0.53077605556E+00 -0.38742649342E+01  0.96249203547E+02  0.91854781513E+02 0.  0.
         13    1    3    3    0    0 -0.27445461824E+02  0.37322882406E+02  0.21971829957E+02  0.51274003174E+02  0.10566000000E+00 0. -1.
         22    1    1    0    0    0  0.28483620639E+02 -0.53077605556E+00  0.38742649342E+01  0.28750796453E+02  0.00000000000E+00 0. -1.
</event>
<event>
 5    1  0.1319298E-009  0.9118800E+02  0.7818608E-02  0.1130116E+00
         25   -1    0    0    0    0  0.00000000000E+00  0.00000000000E+00  0.99999998245E-14  0.12500000000E+03  0.12500000000E+03 0.  0.
        -13    1    3    3    0    0 -0.16857281840E+02  0.48223452832E+01 -0.41401040796E+02  0.44960875304E+02  0.10566000000E+00 0.  1.
         23    2    1    0    0    0  0.22547768610E+02  0.15810070602E+02 -0.18206643313E+02  0.91987243943E+02  0.85859251021E+02 0.  0.
         13    1    3    3    0    0  0.39405050450E+02  0.10987725319E+02  0.23194397484E+02  0.47026368639E+02  0.10566000000E+00 0. -1.
         22    1    1    0    0    0 -0.22547768610E+02 -0.15810070602E+02  0.18206643313E+02  0.33012756057E+02  0.00000000000E+00 0.  1.
</event>
<event>
 5    1  0.1319298E-009  0.9118800E+02  0.7818608E-02  0.1130116E+00
         25   -1    0    0    0    0  0.00000000000E+00  0.00000000000E+00  0.99999998245E-14  0.12500000000E+03  0.12500000000E+03 0.  0.
        -13    1    3    3    0    0 -0.39868302103E+02  0.14632338281E+02 -0.43216473213E+02  0.60590936262E+02  0.10566000000E+00 0.  1.
         23    2    1    0    0    0 -0.16123869591E+02 -0.33173294978E+01 -0.23550534271E+02  0.96266543716E+02  0.91878375742E+02 0.  0.
         13    1    3    3    0    0  0.23744432513E+02 -0.17949667779E+02  0.19665938941E+02  0.35675607454E+02  0.10566000000E+00 0. -1.
         22    1    1    0    0    0  0.16123869591E+02  0.33173294978E+01  0.23550534271E+02  0.28733456284E+02  0.00000000000E+00 0.  1.
</event>
<event>
 5    1  0.1319298E-009  0.9118800E+02  0.7818608E-02  0.1130116E+00
         25   -1    0    0    0    0  0.00000000000E+00  0.00000000000E+00  0.99999998245E-14  0.12500000000E+03  0.12500000000E+03 0.  0.
        -13    1    3    3    0    0 -0.31803199219E+02 -0.42975656865E+02 -0.14718055039E+02  0.55452528091E+02  0.10566000000E+00 0. -1.
         23    2    1    0    0    0 -0.27532021396E+02 -0.41033337015E+01 -0.21086156536E+00  0.97163081847E+02  0.93090120109E+02 0.  0.
         13    1    3    3    0    0  0.42711778224E+01  0.38872323164E+02  0.14507193473E+02  0.41710553756E+02  0.10566000000E+00 0.  1.
         22    1    1    0    0    0  0.27532021396E+02  0.41033337015E+01  0.21086156536E+00  0.27836918153E+02  0.00000000000E+00 0. -1.
</event>
<event>
 5    1  0.1319298E-009  0.9118800E+02  0.7818608E-02  0.1130116E+00
         25   -1    0    0    0    0  0.00000000000E+00  0.00000000000E+00  0.99999998245E-14  0.12500000000E+03  0.12500000000E+03 0.  0.
        -13    1    3    3    0    0  0.69970516921E+01  0.21256904496E+02 -0.27625636598E+02  0.35552801333E+02  0.10566000000E+00 0.  1.
         23    2    1    0    0    0  0.39149287989E+01 -0.92535737117E+01  0.25888144827E+02  0.97230388254E+02  0.93180454300E+02 0.  0.
         13    1    3    3    0    0 -0.30821228933E+01 -0.30510478207E+02  0.53513781425E+02  0.61677586921E+02  0.10566000000E+00 0. -1.
         22    1    1    0    0    0 -0.39149287989E+01  0.92535737117E+01 -0.25888144827E+02  0.27769611746E+02  0.00000000000E+00 0. -1.
</event>
<event>
 5    1  0.1319298E-009  0.9118800E+02  0.7818608E-02  0.1130116E+00
         25   -1    0    0    0    0  0.00000000000E+00  0.00000000000E+00  0.99999998245E-14  0.12500000000E+03  0.12500000000E+03 0.  0.
        -13    1    3    3    0    0  0.15574580531E+02  0.38063040211E+02 -0.49341946525E+01  0.41421250943E+02  0.10566000000E+00 0.  1.
         23    2    1    0    0    0 -0.81979735832E+01 -0.61089404562E+01 -0.26929968651E+02  0.96194633557E+02  0.91780490243E+02 0.  0.
         13    1    3    3    0    0 -0.23772554114E+02 -0.44171980667E+02 -0.21995773998E+02  0.54773382614E+02  0.10566000000E+00 0. -1.
         22    1    1    0    0    0  0.81979735832E+01  0.61089404562E+01  0.26929968651E+02  0.28805366443E+02  0.00000000000E+00 0. -1.
</event>
<event>
 5    1  0.1319298E-009  0.9118800E+02  0.7818608E-02  0.1130116E+00
         25   -1    0    0    0    0  0.00000000000E+00  0.00000000000E+00  0.99999998245E-14  0.12500000000E+03  0.12500000000E+03 0.  0.
        -13    1    3    3    0    0 -0.28893424918E+01  0.59961825679E+01 -0.39665943305E+02  0.40220650513E+02  0.10566000000E+00 0. -1.
         23    2    1    0    0    0  0.16296334581E+02 -0.21714444841E+02  0.62126347916E+01  0.97148887516E+02  0.93071058225E+02 0.  0.
         13    1    3    3    0    0  0.19185677073E+02 -0.27710627409E+02  0.45878578096E+02  0.56928237003E+02  0.10566000000E+00 0.  1.
         22    1    1    0    0    0 -0.16296334581E+02  0.21714444841E+02 -0.62126347916E+01  0.27851112484E+02  0.00000000000E+00 0.  1.
</event>
<event>
 5    1  0.1319298E-009  0.9118800E+02  0.7818608E-02  0.1130116E+00
         25   -1    0    0    0    0  0.00000000000E+00  0.00000000000E+00  0.99999998245E-14  0.12500000000E+03  0.12500000000E+03 0.  0.
        -13    1    3    3    0    0 -0.33118433214E+02  0.77772350061E+00 -0.38515203281E+02  0.50802239323E+02  0.10566000000E+00 0.  1.
         23    2    1    0    0    0 -0.20070471065E+02 -0.21541510052E+02 -0.20719177456E+01  0.95484693679E+02  0.90808443548E+02 0.  0.
         13    1    3    3    0    0  0.13047962149E+02 -0.22319233553E+02  0.36443285535E+02  0.44682454356E+02  0.10566000000E+00 0. -1.
         22    1    1    0    0    0  0.20070471065E+02  0.21541510052E+02  0.20719177456E+01  0.29515306321E+02  0.00000000000E+00 0.  1.
</event>
<event>
 5    1  0.1319298E-009  0.9118800E+02  0.7818608E-02  0.1130116E+00
         25   -1    0    0    0    0  0.00000000000E+00  0.00000000000E+00  0.99999998245E-14  0.12500000000E+03  0.12500000000E+03 0.  0.
        -13    1    3    3    0    0  0.42119366326E+02  0.44303001176E+01 -0.29112358856E+01  0.42451796632E+02  0.10566000000E+00 0.  1.
         23    2    1    0    0    0 -0.14990318988E+02  0.11828554513E+02 -0.14287063439E+02  0.10115163429E+03  0.98300094471E+02 0.  0.
         13    1    3    3    0    0 -0.57109685314E+02  0.73982543956E+01 -0.11375827553E+02  0.58699837660E+02  0.10566000000E+00 0. -1.
         22    1    1    0    0    0  0.14990318988E+02 -0.11828554513E+02  0.14287063439E+02  0.23848365708E+02  0.00000000000E+00 0. -1.
</event>
<event>
 5    1  0.1319298E-009  0.9118800E+02  0.7818608E-02  0.1130116E+00
         25   -1    0    0    0    0  0.00000000000E+00  0.00000000000E+00  0.99999998245E-14  0.12500000000E+03  0.12500000000E+03 0.  0.
        -13    1    3    3    0    0  0.20667178975E+02 -0.26144375272E+02 -0.41245725587E+02  0.53027178771E+02  0.10566000000E+00 0.  1.
         23    2    1    0    0    0  0.26926691577E+02 -0.19636416472E+02 -0.39032631742E+01  0.91445998233E+02  0.85067617566E+02 0.  0.
         13    1    3    3    0    0  0.62595126017E+01  0.65079587998E+01  0.37342462413E+02  0.38418819462E+02  0.10566000000E+00 0. -1.
         22    1    1    0    0    0 -0.26926691577E+02  0.19636416472E+02  0.39032631742E+01  0.33554001767E+02  0.00000000000E+00 0.  1.
</event>
<event>
 5    1  0.1319298E-009  0.9118800E+02  0.7818608E-02  0.1130116E+00
         25   -1    0    0    0    0  0.00000000000E+00  0.00000000000E+00  0.99999998245E-14  0.12500000000E+03  0.12500000000E+03 0.  0.
        -13    1    3    3    0    0  0.14601801546E+01 -0.49807161227E+02 -0.33421910092E+02  0.59999338945E+02  0.10566000000E+00 0. -1.
         23    2    1    0    0    0  0.11907329498E+01 -0.29394158447E+02 -0.47438315643E+01  0.95201705859E+02  0.90418064925E+02 0.  0.
         13    1    3    3    0    0 -0.26944720478E+00  0.20413002780E+02  0.28678078528E+02  0.35202366914E+02  0.10566000000E+00 0.  1.
         22    1    1    0    0    0 -0.11907329498E+01  0.29394158447E+02  0.47438315643E+01  0.29798294141E+02  0.00000000000E+00 0. -1.
</event>
<event>
 5    1  0.1319298E-009  0.9118800E+02  0.7818608E-02  0.1130116E+00
         25   -1    0    0    0    0  0.00000000000E+00  0.00000000000E+00  0.99999998245E-14  0.12500000000E+03  0.12500000000E+03 0.  0.
        -13    1    3    3    0    0 -0.45795262344E+02 -0.32133132198E+02 -0.64691210216E+01  0.56317003904E+02  0.10566000000E+00 0. -1.
         23    2    1    0    0    0 -0.83139283682E+01 -0.28871160634E+02  0.20262103548E+01  0.94887363953E+02  0.89982448224E+02 0.  0.
         13    1    3    3    0    0  0.37481333975E+02  0.32619715632E+01  0.84953313765E+01  0.38570360049E+02  0.10566000000E+00 0.  1.
         22    1    1    0    0    0  0.83139283682E+01  0.28871160634E+02 -0.20262103548E+01  0.30112636047E+02  0.00000000000E+00 0. -1.
</event>
<event>
 5    1  0.1319298E-009  0.9118800E+02  0.7818608E-02  0.1130116E+00
         25   -1    0    0    0    0  0.00000000000E+00  0.00000000000E+00  0.99999998245E-14  0.12500000000E+03  0.12500000000E+03 0.  0.
        -13    1    3    3    0    0 -0.22207485127E+02  0.29295597816E+02 -0.16434724590E+02  0.40268049164E+02  0.10566000000E+00 0.  1.
         23    2    1    0    0    0  0.12426211315E+02  0.11145406850E+02  0.23510939183E+02  0.96166077569E+02  0.91741590308E+02 0.  0.
         13    1    3    3    0    0  0.34633696442E+02 -0.18150190966E+02  0.39945663773E+02  0.55898028406E+02  0.10566000000E+00 0. -1.
         22    1    1    0    0    0 -0.12426211315E+02 -0.11145406850E+02 -0.23510939183E+02  0.28833922431E+02  0.00000000000E+00 0. -1.
</event>
<event>
 5    1  0.1319298E-009  0.9118800E+02  0.7818608E-02  0.1130116E+00
         25   -1    0    0    0    0  0.00000000000E+00  0.00000000000E+00  0.99999998245E-14  0.12500000000E+03  0.12500000000E+03 0.  0.
        -13    1    3    3    0    0  0.96509844777E+01  0.15282841127E+02 -0.52436864241E+02  0.55464787296E+02  0.10566000000E+00 0.  1.
         23    2    1    0    0    0 -0.89265677685E+01 -0.93260457871E+01 -0.25545178446E+02  0.96378069877E+02  0.92029981360E+02 0.  0.
         13    1    3    3    0    0 -0.18577552246E+02 -0.24608886914E+02  0.26891685795E+02  0.40913282581E+02  0.10566000000E+00 0. -1.
         22    1    1    0    0    0  0.89265677685E+01  0.93260457871E+01  0.25545178446E+02  0.28621930123E+02  0.00000000000E+00 0.  1.
</event>
<event>
 5    1  0.1319298E-009  0.9118800E+02  0.7818608E-02  0.1130116E+00
         25   -1    0    0    0    0  0.00000000000E+00  0.00000000000E+00  0.99999998245E-14  0.12500000000E+03  0.12500000000E+03 0.  0.
        -13    1    3    3    0    0  0.15987016194E+02  0.37294736589E+02  0.43088043485E+02  0.59186761353E+02  0.10566000000E+00 0. -1.
         23    2    1    0    0    0 -0.66482276813E+01  0.20530003919E+02  0.18726088429E+02  0.96428224065E+02  0.92098078244E+02 0.  0.
         13    1    3    3    0    0 -0.22635243875E+02 -0.16764732670E+02 -0.24361955056E+02  0.37241462712E+02  0.10566000000E+00 0.  1.
         22    1    1    0    0    0  0.66482276813E+01 -0.20530003919E+02 -0.18726088429E+02  0.28571775935E+02  0.00000000000E+00 0. -1.
</event>
<event>
 5    1  0.1319298E-009  0.9118800E+02  0.7818608E-02  0.1130116E+00
         25   -1    0    0    0    0  0.00000000000E+00  0.00000000000E+00  0.99999998245E-14  0.12500000000E+03  0.12500000000E+03 0.  0.
        -13    1    3    3    0    0 -0.44514864494E+02 -0.20567706914E+02 -0.37708394313E+01  0.49181644164E+02  0.10566000000E+00 0. -1.
         23    2    1    0    0    0 -0.21046089330E+01 -0.22930699539E+02  0.16915845043E+02  0.96427422699E+02  0.92096990585E+02 0.  0.
         13    1    3    3    0    0  0.42410255561E+02 -0.23629926246E+01  0.20686684474E+02  0.47245778535E+02  0.10566000000E+00 0.  1.
         22    1    1    0    0    0  0.21046089330E+01  0.22930699539E+02 -0.16915845043E+02  0.28572577301E+02  0.00000000000E+00 0. -1.
</event>
<event>
 5    1  0.1319298E-009  0.9118800E+02  0.7818608E-02  0.1130116E+00
         25   -1    0    0    0    0  0.00000000000E+00  0.00000000000E+00  0.99999998245E-14  0.12500000000E+03  0.12500000000E+03 0.  0.
        -13    1    3    3    0    0 -0.48489091471E+02  0.87793114745E+01 -0.32970479490E+02  0.59290235144E+02  0.10566000000E+00 0.  1.
         23    2    1    0    0    0 -0.30276624324E+02  0.10482692798E+02 -0.52046189778E+01  0.92540041783E+02  0.86660316442E+02 0.  0.
         13    1    3    3    0    0  0.18212467147E+02  0.17033813231E+01  0.27765860512E+02  0.33249806639E+02  0.10566000000E+00 0. -1.
         22    1    1    0    0    0  0.30276624324E+02 -0.10482692798E+02  0.52046189778E+01  0.32459958217E+02  0.00000000000E+00 0.  1.
</event>
<event>
 5    1  0.1319298E-009  0.9118800E+02  0.7818608E-02  0.1130116E+00
         25   -1    0    0    0    0  0.00000000000E+00  0.00000000000E+00  0.99999998245E-14  0.12500000000E+03  0.12500000000E+03 0.  0.
        -13    1    3    3    0    0  0.44049548312E+02  0.13791031546E+02 -0.41551903427E+02  0.62105773484E+02  0.10566000000E+00 0.  1.
         23    2    1    0    0    0  0.17059390702E+02  0.47784355331E+01 -0.22553377352E+02  0.96320545904E+02  0.91951816055E+02 0.  0.
         13    1    3    3    0    0 -0.26990157609E+02 -0.90125960132E+01  0.18998526075E+02  0.34214772420E+02  0.10566000000E+00 0. -1.
         22    1    1    0    0    0 -0.17059390702E+02 -0.47784355331E+01  0.22553377352E+02  0.28679454096E+02  0.00000000000E+00 0.  1.
</event>
<event>
 5    1  0.1319298E-009  0.9118800E+02  0.7818608E-02  0.1130116E+00
         25   -1    0    0    0    0  0.00000000000E+00  0.00000000000E+00  0.99999998245E-14  0.12500000000E+03  0.12500000000E+03 0.  0.
        -13    1    3    3    0    0  0.30322858933E+02 -0.98661615166E+01  0.37668529513E+02  0.49353279492E+02  0.10566000000E+00 0. -1.
         23    2    1    0    0    0  0.20898737189E+02 -0.19902264233E+02 -0.63292525537E+01  0.95454834988E+02  0.90767333039E+02 0.  0.
         13    1    3    3    0    0 -0.94241217437E+01 -0.10036102716E+02 -0.43997782067E+02  0.46101555496E+02  0.10566000000E+00 0.  1.
         22    1    1    0    0    0 -0.20898737189E+02  0.19902264233E+02  0.63292525537E+01  0.29545165012E+02  0.00000000000E+00 0. -1.
</event>
<event>
 5    1  0.1319298E-009  0.9118800E+02  0.7818608E-02  0.1130116E+00
         25   -1    0    0    0    0  0.00000000000E+00  0.00000000000E+00  0.99999998245E-14  0.12500000000E+03  0.12500000000E+03 0.  0.
        -13    1    3    3    0    0 -0.34368045073E+02 -0.16405114874E+02  0.45795321464E+02  0.59561001907E+02  0.10566000000E+00 0. -1.
         23    2    1    0    0    0 -0.13476221483E+02  0.52874301606E+01  0.24834165815E+02  0.96254543752E+02  0.91862048410E+02 0.  0.
         13    1    3    3    0    0  0.20891823590E+02  0.21692545035E+02 -0.20961155648E+02  0.36693541845E+02  0.10566000000E+00 0.  1.
         22    1    1    0    0    0  0.13476221483E+02 -0.52874301606E+01 -0.24834165815E+02  0.28745456248E+02  0.00000000000E+00 0. -1.
</event>
<event>
 5    1  0.1319298E-009  0.9118800E+02  0.7818608E-02  0.1130116E+00
         25   -1    0    0    0    0  0.00000000000E+00  0.00000000000E+00  0.99999998245E-14  0.12500000000E+03  0.12500000000E+03 0.  0.
        -13    1    3    3    0    0  0.27438224559E+02  0.22070486783E+02 -0.38041953452E+02  0.51837862034E+02  0.10566000000E+00 0. -1.
         23    2    1    0    0    0 -0.11947452687E+02  0.10544374638E+02 -0.25823081387E+02  0.94656022105E+02  0.89660501483E+02 0.  0.
         13    1    3    3    0    0 -0.39385677245E+02 -0.11526112145E+02  0.12218872066E+02  0.42818160071E+02  0.10566000000E+00 0.  1.
         22    1    1    0    0    0  0.11947452687E+02 -0.10544374638E+02  0.25823081387E+02  0.30343977895E+02  0.00000000000E+00 0. -1.
</event>
<event>
 5    1  0.1319298E-009  0.9118800E+02  0.7818608E-02  0.1130116E+00
         25   -1    0    0    0    0  0.00000000000E+00  0.00000000000E+00  0.99999998245E-14  0.12500000000E+03  0.12500000000E+03 0.  0.
        -13    1    3    3    0    0 -0.32744851824E+02 -0.73948012533E+01  0.14915628853E+01  0.33602742900E+02  0.10566000000E+00 0. -1.
         23    2    1    0    0    0  0.26459739919E+02  0.48299339899E+01  0.12974485636E+02  0.95137257721E+02  0.90328923552E+02 0.  0.
         13    1    3    3    0    0  0.59204591743E+02  0.12224735243E+02  0.11482922751E+02  0.61534514820E+02  0.10566000000E+00 0.  1.
         22    1    1    0    0    0 -0.26459739919E+02 -0.48299339899E+01 -0.12974485636E+02  0.29862742279E+02  0.00000000000E+00 0.  1.
</event>
<event>
 5    1  0.1319298E-009  0.9118800E+02  0.7818608E-02  0.1130116E+00
         25   -1    0    0    0    0  0.00000000000E+00  0.00000000000E+00  0.99999998245E-14  0.12500000000E+03  0.12500000000E+03 0.  0.
        -13    1    3    3    0    0  0.10693224995E+01  0.35120109343E+02 -0.19628849168E+02  0.40247588929E+02  0.10566000000E+00 0.  1.
         23    2    1    0    0    0  0.16753195024E+02 -0.18547614796E+02 -0.13764181949E+02  0.96466926859E+02  0.92150592590E+02 0.  0.
         13    1    3    3    0    0  0.15683872525E+02 -0.53667724139E+02  0.58646672192E+01  0.56219337930E+02  0.10566000000E+00 0. -1.
         22    1    1    0    0    0 -0.16753195024E+02  0.18547614796E+02  0.13764181949E+02  0.28533073141E+02  0.00000000000E+00 0. -1.
</event>
<event>
 5    1  0.1319298E-009  0.9118800E+02  0.7818608E-02  0.1130116E+00
         25   -1    0    0    0    0  0.00000000000E+00  0.00000000000E+00  0.99999998245E-14  0.12500000000E+03  0.12500000000E+03 0.  0.
        -13    1    3    3    0    0  0.55632663840E+02 -0.16825278682E+02  0.20603635013E+02  0.61665259494E+02  0.10566000000E+00 0.  1.
         23    2    1    0    0    0  0.29559915539E+02 -0.19958147901E+01  0.13227368319E+02  0.92554119584E+02  0.86680620071E+02 0.  0.
         13    1    3    3    0    0 -0.26072748301E+02  0.14829463892E+02 -0.73762666941E+01  0.30888860090E+02  0.10566000000E+00 0. -1.
         22    1    1    0    0    0 -0.29559915539E+02  0.19958147901E+01 -0.13227368319E+02  0.32445880416E+02  0.00000000000E+00 0.  1.
</event>
<event>
 5    1  0.1319298E-009  0.9118800E+02  0.7818608E-02  0.1130116E+00
         25   -1    0    0    0    0  0.00000000000E+00  0.00000000000E+00  0.99999998245E-14  0.12500000000E+03  0.12500000000E+03 0.  0.
        -13    1    3    3    0    0 -0.29680954249E+02 -0.14696341399E+02  0.88174652216E+01  0.34273901917E+02  0.10566000000E+00 0.  1.
         23    2    1    0    0    0  0.14585673009E+02  0.24834253484E+02 -0.63021680802E+01  0.95517813416E+02  0.90854022223E+02 0.  0.
         13    1    3    3    0    0  0.44266627258E+02  0.39530594883E+02 -0.15119633302E+02  0.61243911500E+02  0.10566000000E+00 0. -1.
         22    1    1    0    0    0 -0.14585673009E+02 -0.24834253484E+02  0.63021680802E+01  0.29482186584E+02  0.00000000000E+00 0. -1.
</event>
<event>
 5    1  0.1319298E-009  0.9118800E+02  0.7818608E-02  0.1130116E+00
         25   -1    0    0    0    0  0.00000000000E+00  0.00000000000E+00  0.99999998245E-14  0.12500000000E+03  0.12500000000E+03 0.  0.
        -13    1    3    3    0    0 -0.10767757355E+01  0.39928701134E+02 -0.28777896784E+02  0.49230469504E+02  0.10566000000E+00 0.  1.
         23    2    1    0    0    0  0.12205065912E+02  0.22727052330E+02  0.12842333111E+02  0.96183198282E+02  0.91764914703E+02 0.  0.
         13    1    3    3    0    0  0.13281841648E+02 -0.17201648804E+02  0.41620229895E+02  0.46952728778E+02  0.10566000000E+00 0. -1.
         22    1    1    0    0    0 -0.12205065912E+02 -0.22727052330E+02 -0.12842333111E+02  0.28816801718E+02  0.00000000000E+00 0. -1.
</event>
<event>
 5    1  0.1319298E-009  0.9118800E+02  0.7818608E-02  0.1130116E+00
         25   -1    0    0    0    0  0.00000000000E+00  0.00000000000E+00  0.99999998245E-14  0.12500000000E+03  0.12500000000E+03 0.  0.
        -13    1    3    3    0    0  0.44707788906E+02 -0.19433330257E+02 -0.27109935619E+02  0.55779929069E+02  0.10566000000E+00 0. -1.
         23    2    1    0    0    0  0.54402476404E+01 -0.11558926336E+02 -0.26213269973E+02  0.95839399953E+02  0.91295399600E+02 0.  0.
         13    1    3    3    0    0 -0.39267541265E+02  0.78744039205E+01  0.89666564563E+00  0.40059470883E+02  0.10566000000E+00 0.  1.
         22    1    1    0    0    0 -0.54402476404E+01  0.11558926336E+02  0.26213269973E+02  0.29160600047E+02  0.00000000000E+00 0. -1.
</event>
<event>
 5    1  0.1319298E-009  0.9118800E+02  0.7818608E-02  0.1130116E+00
         25   -1    0    0    0    0  0.00000000000E+00  0.00000000000E+00  0.99999998245E-14  0.12500000000E+03  0.12500000000E+03 0.  0.
        -13    1    3    3    0    0 -0.16257376239E+02 -0.34735803063E+02  0.20577296707E+02  0.43523724569E+02  0.10566000000E+00 0. -1.
         23    2    1    0    0    0 -0.24214500994E+02  0.14247796745E+02  0.14083251854E+02  0.93572627325E+02  0.88137147850E+02 0.  0.
         13    1    3    3    0    0 -0.79571247550E+01  0.48983599808E+02 -0.64940448523E+01  0.50048902756E+02  0.10566000000E+00 0.  1.
         22    1    1    0    0    0  0.24214500994E+02 -0.14247796745E+02 -0.14083251854E+02  0.31427372675E+02  0.00000000000E+00 0.  1.
</event>
<event>
 5    1  0.1319298E-009  0.9118800E+02  0.7818608E-02  0.1130116E+00
         25   -1    0    0    0    0  0.00000000000E+00  0.00000000000E+00  0.99999998245E-14  0.12500000000E+03  0.12500000000E+03 0.  0.
        -13    1    3    3    0    0 -0.15858162261E+02 -0.15721961452E+02 -0.48283167589E+02  0.53197150475E+02  0.10566000000E+00 0. -1.
         23    2    1    0    0    0 -0.26337440775E+02 -0.43992441226E+01 -0.68159280790E+01  0.97441498390E+02  0.93463225910E+02 0.  0.
         13    1    3    3    0    0 -0.10479278514E+02  0.11322717330E+02  0.41467239510E+02  0.44244347916E+02  0.10566000000E+00 0.  1.
         22    1    1    0    0    0  0.26337440775E+02  0.43992441226E+01  0.68159280790E+01  0.27558501610E+02  0.00000000000E+00 0. -1.
</event>
<event>
 5    1  0.1319298E-009  0.9118800E+02  0.7818608E-02  0.1130116E+00
         25   -1    0    0    0    0  0.00000000000E+00  0.00000000000E+00  0.99999998245E-14  0.12500000000E+03  0.12500000000E+03 0.  0.
        -13    1    3    3    0    0  0.10542065023E+02 -0.40252555753E+02 -0.40852921273E+02  0.58312740633E+02  0.10566000000E+00 0. -1.
         23    2    1    0    0    0  0.79850588647E+01 -0.43739422619E+01 -0.26394059283E+02  0.97079776121E+02  0.92978191154E+02 0.  0.
         13    1    3    3    0    0 -0.25570061584E+01  0.35878613491E+02  0.14458861989E+02  0.38767035488E+02  0.10566000000E+00 0.  1.
         22    1    1    0    0    0 -0.79850588647E+01  0.43739422619E+01  0.26394059283E+02  0.27920223879E+02  0.00000000000E+00 0. -1.
</event>
<event>
 5    1  0.1319298E-009  0.9118800E+02  0.7818608E-02  0.1130116E+00
         25   -1    0    0    0    0  0.00000000000E+00  0.00000000000E+00  0.99999998245E-14  0.12500000000E+03  0.12500000000E+03 0.  0.
        -13    1    3    3    0    0 -0.20231748915E+01 -0.39400534993E+02 -0.10823377855E+02  0.40910292918E+02  0.10566000000E+00 0.  1.
         23    2    1    0    0    0 -0.28047293712E+02  0.78023365453E+01 -0.43225616882E-03  0.95887680609E+02  0.91361480681E+02 0.  0.
         13    1    3    3    0    0 -0.26024118821E+02  0.47202871538E+02  0.10822945599E+02  0.54977387691E+02  0.10566000000E+00 0. -1.
         22    1    1    0    0    0  0.28047293712E+02 -0.78023365453E+01  0.43225616883E-03  0.29112319391E+02  0.00000000000E+00 0. -1.
</event>
<event>
 5    1  0.1319298E-009  0.9118800E+02  0.7818608E-02  0.1130116E+00
         25   -1    0    0    0    0  0.00000000000E+00  0.00000000000E+00  0.99999998245E-14  0.12500000000E+03  0.12500000000E+03 0.  0.
        -13    1    3    3    0    0  0.21001381798E+01 -0.27957583617E+02 -0.42867257138E+02  0.51221577100E+02  0.10566000000E+00 0.  1.
         23    2    1    0    0    0 -0.59704487906E+00  0.12757713085E+02 -0.27236757888E+02  0.94917501999E+02  0.90024305050E+02 0.  0.
         13    1    3    3    0    0 -0.26971830589E+01  0.40715296701E+02  0.15630499250E+02  0.43695924899E+02  0.10566000000E+00 0. -1.
         22    1    1    0    0    0  0.59704487906E+00 -0.12757713085E+02  0.27236757888E+02  0.30082498001E+02  0.00000000000E+00 0.  1.
</event>
<event>
 5    1  0.1319298E-009  0.9118800E+02  0.7818608E-02  0.1130116E+00
         25   -1    0    0    0    0  0.00000000000E+00  0.00000000000E+00  0.99999998245E-14  0.12500000000E+03  0.12500000000E+03 0.  0.
        -13    1    3    3    0    0  0.14663161040E+02  0.39683956496E+02  0.58952476465E+01  0.42715217472E+02  0.10566000000E+00 0. -1.
         23    2    1    0    0    0 -0.19544895094E+02  0.92492223980E+01 -0.20194054397E+02  0.95413670857E+02  0.90710626248E+02 0.  0.
         13    1    3    3    0    0 -0.34208056134E+02 -0.30434734098E+02 -0.26089302043E+02  0.52698453385E+02  0.10566000000E+00 0.  1.
         22    1    1    0    0    0  0.19544895094E+02 -0.92492223980E+01  0.20194054397E+02  0.29586329143E+02  0.00000000000E+00 0.  1.
</event>
<event>
 5    1  0.1319298E-009  0.9118800E+02  0.7818608E-02  0.1130116E+00
         25   -1    0    0    0    0  0.00000000000E+00  0.00000000000E+00  0.99999998245E-14  0.12500000000E+03  0.12500000000E+03 0.  0.
        -13    1    3    3    0    0 -0.35249636727E+02 -0.25421691395E+02  0.28267000834E+02  0.51844322572E+02  0.10566000000E+00 0. -1.
         23    2    1    0    0    0 -0.19946304610E+02  0.13968422954E+02  0.16057282515E+02  0.95831382803E+02  0.91284422005E+02 0.  0.
         13    1    3    3    0    0  0.15303332117E+02  0.39390114349E+02 -0.12209718319E+02  0.43987060231E+02  0.10566000000E+00 0.  1.
         22    1    1    0    0    0  0.19946304610E+02 -0.13968422954E+02 -0.16057282515E+02  0.29168617197E+02  0.00000000000E+00 0. -1.
</event>
<event>
 5    1  0.1319298E-009  0.9118800E+02  0.7818608E-02  0.1130116E+00
         25   -1    0    0    0    0  0.00000000000E+00  0.00000000000E+00  0.99999998245E-14  0.12500000000E+03  0.12500000000E+03 0.  0.
        -13    1    3    3    0    0  0.40413696498E+02  0.39349293358E+02  0.42239868842E+01  0.56564007828E+02  0.10566000000E+00 0.  1.
         23    2    1    0    0    0  0.25180776832E+02  0.54034129551E+01 -0.11295083725E+02  0.96877992430E+02  0.92706515993E+02 0.  0.
         13    1    3    3    0    0 -0.15232919666E+02 -0.33945880403E+02 -0.15519070610E+02  0.40313984602E+02  0.10566000000E+00 0. -1.
         22    1    1    0    0    0 -0.25180776832E+02 -0.54034129551E+01  0.11295083725E+02  0.28122007570E+02  0.00000000000E+00 0.  1.
</event>
<event>
 5    1  0.1319298E-009  0.9118800E+02  0.7818608E-02  0.1130116E+00
         25   -1    0    0    0    0  0.00000000000E+00  0.00000000000E+00  0.99999998245E-14  0.12500000000E+03  0.12500000000E+03 0.  0.
        -13    1    3    3    0    0 -0.20676508873E+02  0.44832679592E+02  0.21173815995E+02  0.53719910893E+02  0.10566000000E+00 0.  1.
         23    2    1    0    0    0 -0.24744448233E+02  0.19069427679E+02 -0.78979543746E+01  0.92777205682E+02  0.87001732285E+02 0.  0.
         13    1    3    3    0    0 -0.40679393596E+01 -0.25763251913E+02 -0.29071770370E+02  0.39057294789E+02  0.10566000000E+00 0. -1.
         22    1    1    0    0    0  0.24744448233E+02 -0.19069427679E+02  0.78979543746E+01  0.32222794318E+02  0.00000000000E+00 0.  1.
</event>
<event>
 5    1  0.1319298E-009  0.9118800E+02  0.7818608E-02  0.1130116E+00
         25   -1    0    0    0    0  0.00000000000E+00  0.00000000000E+00  0.99999998245E-14  0.12500000000E+03  0.12500000000E+03 0.  0.
        -13    1    3    3    0    0  0.27772209001E+02  0.19751909440E+02  0.27685769104E+02  0.43908387516E+02  0.10566000000E+00 0.  1.
         23    2    1    0    0    0 -0.21300930743E+02  0.15718343938E+02  0.14194777963E+02  0.94961895730E+02  0.90085925274E+02 0.  0.
         13    1    3    3    0    0 -0.49073139744E+02 -0.40335655018E+01 -0.13490991140E+02  0.51053508214E+02  0.10566000000E+00 0. -1.
         22    1    1    0    0    0  0.21300930743E+02 -0.15718343938E+02 -0.14194777963E+02  0.30038104270E+02  0.00000000000E+00 0. -1.
</event>
<event>
 5    1  0.1319298E-009  0.9118800E+02  0.7818608E-02  0.1130116E+00
         25   -1    0    0    0    0  0.00000000000E+00  0.00000000000E+00  0.99999998245E-14  0.12500000000E+03  0.12500000000E+03 0.  0.
        -13    1    3    3    0    0  0.33749120064E+02 -0.13832879779E+02  0.35759742271E+02  0.51079565380E+02  0.10566000000E+00 0. -1.
         23    2    1    0    0    0 -0.67591691500E+01  0.59259283100E+01  0.26400000725E+02  0.97111596815E+02  0.93020961099E+02 0.  0.
         13    1    3    3    0    0 -0.40508289214E+02  0.19758808089E+02 -0.93597415466E+01  0.46032031435E+02  0.10566000000E+00 0.  1.
         22    1    1    0    0    0  0.67591691500E+01 -0.59259283100E+01 -0.26400000725E+02  0.27888403185E+02  0.00000000000E+00 0. -1.
</event>
<event>
 5    1  0.1319298E-009  0.9118800E+02  0.7818608E-02  0.1130116E+00
         25   -1    0    0    0    0  0.00000000000E+00  0.00000000000E+00  0.99999998245E-14  0.12500000000E+03  0.12500000000E+03 0.  0.
        -13    1    3    3    0    0  0.89858723391E+01 -0.48364676420E+02 -0.24665291771E+02  0.55029770207E+02  0.10566000000E+00 0.  1.
         23    2    1    0    0    0  0.68124887336E+01 -0.11665627342E+02 -0.29924465428E+02  0.92167539002E+02  0.86121337371E+02 0.  0.
         13    1    3    3    0    0 -0.21733836054E+01  0.36699049077E+02 -0.52591736575E+01  0.37137768795E+02  0.10566000000E+00 0. -1.
         22    1    1    0    0    0 -0.68124887336E+01  0.11665627342E+02  0.29924465428E+02  0.32832460998E+02  0.00000000000E+00 0.  1.
</event>
<event>
 5    1  0.1319298E-009  0.9118800E+02  0.7818608E-02  0.1130116E+00
         25   -1    0    0    0    0  0.00000000000E+00  0.00000000000E+00  0.99999998245E-14  0.12500000000E+03  0.12500000000E+03 0.  0.
        -13    1    3    3    0    0 -0.91128511535E+01 -0.24054051339E+01 -0.57064544966E+02  0.57837734104E+02  0.10566000000E+00 0.  1.
         23    2    1    0    0    0 -0.20148360483E+02  0.87190076087E+00 -0.20208085800E+02  0.96450334979E+02  0.92128083366E+02 0.  0.
         13    1    3    3    0    0 -0.11035509330E+02  0.32773058948E+01  0.36856459166E+02  0.38612600875E+02  0.10566000000E+00 0. -1.
         22    1    1    0    0    0  0.20148360483E+02 -0.87190076087E+00  0.20208085800E+02  0.28549665021E+02  0.00000000000E+00 0.  1.
</event>
<event>
 5    1  0.1319298E-009  0.9118800E+02  0.7818608E-02  0.1130116E+00
         25   -1    0    0    0    0  0.00000000000E+00  0.00000000000E+00  0.99999998245E-14  0.12500000000E+03  0.12500000000E+03 0.  0.
        -13    1    3    3    0    0  0.14662069618E+02 -0.16594798086E+02  0.45603004493E+02  0.50695254135E+02  0.10566000000E+00 0. -1.
         23    2    1    0    0    0  0.17780794071E+01 -0.28590563675E+02  0.37375039272E+01  0.96111406520E+02  0.91667069496E+02 0.  0.
         13    1    3    3    0    0 -0.12883990211E+02 -0.11995765589E+02 -0.41865500566E+02  0.45416152385E+02  0.10566000000E+00 0.  1.
         22    1    1    0    0    0 -0.17780794071E+01  0.28590563675E+02 -0.37375039272E+01  0.28888593480E+02  0.00000000000E+00 0. -1.
</event>
<event>
 5    1  0.1319298E-009  0.9118800E+02  0.7818608E-02  0.1130116E+00
         25   -1    0    0    0    0  0.00000000000E+00  0.00000000000E+00  0.99999998245E-14  0.12500000000E+03  0.12500000000E+03 0.  0.
        -13    1    3    3    0    0  0.18381954935E+02  0.91413273529E+01  0.36217666138E+02  0.41631606233E+02  0.10566000000E+00 0.  1.
         23    2    1    0    0    0  0.26151559154E+02 -0.10584974322E+02 -0.12028172160E+02  0.94330427896E+02  0.89205420093E+02 0.  0.
         13    1    3    3    0    0  0.77696042187E+01 -0.19726301675E+02 -0.48245838298E+02  0.52698821663E+02  0.10566000000E+00 0. -1.
         22    1    1    0    0    0 -0.26151559154E+02  0.10584974322E+02  0.12028172160E+02  0.30669572104E+02  0.00000000000E+00 0. -1.
</event>
<event>
 5    1  0.1319298E-009  0.9118800E+02  0.7818608E-02  0.1130116E+00
         25   -1    0    0    0    0  0.00000000000E+00  0.00000000000E+00  0.99999998245E-14  0.12500000000E+03  0.12500000000E+03 0.  0.
        -13    1    3    3    0    0  0.66624039175E+01 -0.11759129161E+02 -0.55854218478E+02  0.57466247749E+02  0.10566000000E+00 0. -1.
         23    2    1    0    0    0  0.10460296462E+02 -0.20527390360E+02 -0.20262798411E+02  0.94318204803E+02  0.89188290715E+02 0.  0.
         13    1    3    3    0    0  0.37978925445E+01 -0.87682611997E+01  0.35591420067E+02  0.36851957053E+02  0.10566000000E+00 0.  1.
         22    1    1    0    0    0 -0.10460296462E+02  0.20527390360E+02  0.20262798411E+02  0.30681795197E+02  0.00000000000E+00 0. -1.
</event>
<event>
 5    1  0.1319298E-009  0.9118800E+02  0.7818608E-02  0.1130116E+00
         25   -1    0    0    0    0  0.00000000000E+00  0.00000000000E+00  0.99999998245E-14  0.12500000000E+03  0.12500000000E+03 0.  0.
        -13    1    3    3    0    0  0.24691174554E+02 -0.40887144062E+02 -0.10391707801E+02  0.48881606003E+02  0.10566000000E+00 0.  1.
         23    2    1    0    0    0  0.12870742080E+02 -0.65976315459E+01  0.22769042558E+02  0.98025678086E+02  0.94241283531E+02 0.  0.
         13    1    3    3    0    0 -0.11820432474E+02  0.34289512516E+02  0.33160750359E+02  0.49144072083E+02  0.10566000000E+00 0. -1.
         22    1    1    0    0    0 -0.12870742080E+02  0.65976315459E+01 -0.22769042558E+02  0.26974321914E+02  0.00000000000E+00 0. -1.
</event>
<event>
 5    1  0.1319298E-009  0.9118800E+02  0.7818608E-02  0.1130116E+00
         25   -1    0    0    0    0  0.00000000000E+00  0.00000000000E+00  0.99999998245E-14  0.12500000000E+03  0.12500000000E+03 0.  0.
        -13    1    3    3    0    0  0.42380188786E+02  0.11161424636E+02 -0.27534895513E+02  0.51757506087E+02  0.10566000000E+00 0. -1.
         23    2    1    0    0    0  0.22218316440E+02 -0.85017156940E+01  0.10427368788E+02  0.99025728595E+02  0.95558527347E+02 0.  0.
         13    1    3    3    0    0 -0.20161872345E+02 -0.19663140330E+02  0.37962264301E+02  0.47268222508E+02  0.10566000000E+00 0.  1.
         22    1    1    0    0    0 -0.22218316440E+02  0.85017156940E+01 -0.10427368788E+02  0.25974271405E+02  0.00000000000E+00 0. -1.
</event>
<event>
 5    1  0.1319298E-009  0.9118800E+02  0.7818608E-02  0.1130116E+00
         25   -1    0    0    0    0  0.00000000000E+00  0.00000000000E+00  0.99999998245E-14  0.12500000000E+03  0.12500000000E+03 0.  0.
        -13    1    3    3    0    0 -0.15821461672E+02 -0.15750238547E+02 -0.30788743496E+02  0.38030863175E+02  0.10566000000E+00 0. -1.
         23    2    1    0    0    0  0.20300416456E+02  0.14059467287E-01  0.15960517113E+02  0.99176653733E+02  0.95755748826E+02 0.  0.
         13    1    3    3    0    0  0.36121878128E+02  0.15764298014E+02  0.46749260609E+02  0.61145790557E+02  0.10566000000E+00 0.  1.
         22    1    1    0    0    0 -0.20300416456E+02 -0.14059467287E-01 -0.15960517113E+02  0.25823346267E+02  0.00000000000E+00 0.  1.
</event>
<event>
 5    1  0.1319298E-009  0.9118800E+02  0.7818608E-02  0.1130116E+00
         25   -1    0    0    0    0  0.00000000000E+00  0.00000000000E+00  0.99999998245E-14  0.12500000000E+03  0.12500000000E+03 0.  0.
        -13    1    3    3    0    0 -0.12790329811E+02  0.55529064033E+02 -0.11070138466E+02  0.58048502296E+02  0.10566000000E+00 0. -1.
         23    2    1    0    0    0 -0.12772432172E+02  0.14608590958E+02 -0.16755625678E+02  0.99362196950E+02  0.95997652250E+02 0.  0.
         13    1    3    3    0    0  0.17897639171E-01 -0.40920473076E+02 -0.56854872125E+01  0.41313694654E+02  0.10566000000E+00 0.  1.
         22    1    1    0    0    0  0.12772432172E+02 -0.14608590958E+02  0.16755625678E+02  0.25637803050E+02  0.00000000000E+00 0. -1.
</event>
<event>
 5    1  0.1319298E-009  0.9118800E+02  0.7818608E-02  0.1130116E+00
         25   -1    0    0    0    0  0.00000000000E+00  0.00000000000E+00  0.99999998245E-14  0.12500000000E+03  0.12500000000E+03 0.  0.
        -13    1    3    3    0    0  0.29937634067E+02 -0.31015548641E+02  0.35278402781E+02  0.55702810144E+02  0.10566000000E+00 0.  1.
         23    2    1    0    0    0 -0.54767255051E+01 -0.16722642477E+02  0.23448787221E+02  0.95682992721E+02  0.91080997909E+02 0.  0.
         13    1    3    3    0    0 -0.35414359572E+02  0.14292906165E+02 -0.11829615560E+02  0.39980182577E+02  0.10566000000E+00 0. -1.
         22    1    1    0    0    0  0.54767255051E+01  0.16722642477E+02 -0.23448787221E+02  0.29317007279E+02  0.00000000000E+00 0.  1.
</event>
<event>
 5    1  0.1319298E-009  0.9118800E+02  0.7818608E-02  0.1130116E+00
         25   -1    0    0    0    0  0.00000000000E+00  0.00000000000E+00  0.99999998245E-14  0.12500000000E+03  0.12500000000E+03 0.  0.
        -13    1    3    3    0    0  0.38600819253E+01 -0.47535342459E+02  0.38474594004E+02  0.61276541702E+02  0.10566000000E+00 0. -1.
         23    2    1    0    0    0  0.64389112742E+01 -0.26817317051E+02  0.12183137612E+02  0.94849429287E+02  0.89929735470E+02 0.  0.
         13    1    3    3    0    0  0.25788293489E+01  0.20718025408E+02 -0.26291456391E+02  0.33572887585E+02  0.10566000000E+00 0.  1.
         22    1    1    0    0    0 -0.64389112742E+01  0.26817317051E+02 -0.12183137612E+02  0.30150570713E+02  0.00000000000E+00 0. -1.
</event>
<event>
 5    1  0.1319298E-009  0.9118800E+02  0.7818608E-02  0.1130116E+00
         25   -1    0    0    0    0  0.00000000000E+00  0.00000000000E+00  0.99999998245E-14  0.12500000000E+03  0.12500000000E+03 0.  0.
        -13    1    3    3    0    0  0.27182573099E+02  0.24086511264E+02 -0.11180448259E+02  0.38000866996E+02  0.10566000000E+00 0. -1.
         23    2    1    0    0    0 -0.27546481485E+02  0.47999450221E+01 -0.31907698736E+00  0.97036632453E+02  0.92920170648E+02 0.  0.
         13    1    3    3    0    0 -0.54729054584E+02 -0.19286566242E+02  0.10861371272E+02  0.59035765457E+02  0.10566000000E+00 0.  1.
         22    1    1    0    0    0  0.27546481485E+02 -0.47999450221E+01  0.31907698736E+00  0.27963367547E+02  0.00000000000E+00 0.  1.
</event>
<event>
 5    1  0.1319298E-009  0.9118800E+02  0.7818608E-02  0.1130116E+00
         25   -1    0    0    0    0  0.00000000000E+00  0.00000000000E+00  0.99999998245E-14  0.12500000000E+03  0.12500000000E+03 0.  0.
        -13    1    3    3    0    0 -0.56899964041E+02  0.20238963073E+02  0.88444405782E+01  0.61036520439E+02  0.10566000000E+00 0. -1.
         23    2    1    0    0    0 -0.24055250090E+02  0.18628529079E+02  0.53828518592E+01  0.94102552749E+02  0.88885534184E+02 0.  0.
         13    1    3    3    0    0  0.32844713951E+02 -0.16104339948E+01 -0.34615887190E+01  0.33066032309E+02  0.10566000000E+00 0.  1.
         22    1    1    0    0    0  0.24055250090E+02 -0.18628529079E+02 -0.53828518592E+01  0.30897447251E+02  0.00000000000E+00 0. -1.
</event>
<event>
 5    1  0.1319298E-009  0.9118800E+02  0.7818608E-02  0.1130116E+00
         25   -1    0    0    0    0  0.00000000000E+00  0.00000000000E+00  0.99999998245E-14  0.12500000000E+03  0.12500000000E+03 0.  0.
        -13    1    3    3    0    0 -0.47587370079E+02  0.48843426544E+01  0.24794411196E+02  0.53881245204E+02  0.10566000000E+00 0. -1.
         23    2    1    0    0    0 -0.16393843866E+02 -0.20458168502E+02  0.68011427168E+01  0.97915865946E+02  0.94095517888E+02 0.  0.
         13    1    3    3    0    0  0.31193526212E+02 -0.25342511157E+02 -0.17993268479E+02  0.44034620742E+02  0.10566000000E+00 0.  1.
         22    1    1    0    0    0  0.16393843866E+02  0.20458168502E+02 -0.68011427168E+01  0.27084134054E+02  0.00000000000E+00 0.  1.
</event>
<event>
 5    1  0.1319298E-009  0.9118800E+02  0.7818608E-02  0.1130116E+00
         25   -1    0    0    0    0  0.00000000000E+00  0.00000000000E+00  0.99999998245E-14  0.12500000000E+03  0.12500000000E+03 0.  0.
        -13    1    3    3    0    0 -0.28670867171E+02  0.33361188141E+02 -0.13726269750E+02  0.46080463797E+02  0.10566000000E+00 0.  1.
         23    2    1    0    0    0  0.18553776060E+02  0.22375335159E+02 -0.26724624210E+01  0.95810270900E+02  0.91255507916E+02 0.  0.
         13    1    3    3    0    0  0.47224643230E+02 -0.10985852981E+02  0.11053807329E+02  0.49729807103E+02  0.10566000000E+00 0. -1.
         22    1    1    0    0    0 -0.18553776060E+02 -0.22375335159E+02  0.26724624210E+01  0.29189729100E+02  0.00000000000E+00 0. -1.
</event>
<event>
 5    1  0.1319298E-009  0.9118800E+02  0.7818608E-02  0.1130116E+00
         25   -1    0    0    0    0  0.00000000000E+00  0.00000000000E+00  0.99999998245E-14  0.12500000000E+03  0.12500000000E+03 0.  0.
        -13    1    3    3    0    0 -0.22128507491E+02 -0.31993359858E+02 -0.45462602593E+02  0.59833981293E+02  0.10566000000E+00 0. -1.
         23    2    1    0    0    0 -0.13591614249E+02 -0.21857754577E+02 -0.10539758641E+02  0.97186695176E+02  0.93121822329E+02 0.  0.
         13    1    3    3    0    0  0.85368932419E+01  0.10135605281E+02  0.34922843953E+02  0.37352713883E+02  0.10566000000E+00 0.  1.
         22    1    1    0    0    0  0.13591614249E+02  0.21857754577E+02  0.10539758641E+02  0.27813304824E+02  0.00000000000E+00 0. -1.
</event>
<event>
 5    1  0.1319298E-009  0.9118800E+02  0.7818608E-02  0.1130116E+00
         25   -1    0    0    0    0  0.00000000000E+00  0.00000000000E+00  0.99999998245E-14  0.12500000000E+03  0.12500000000E+03 0.  0.
        -13    1    3    3    0    0 -0.23692495557E+02  0.18534491857E+02 -0.40069617558E+02  0.50104362579E+02  0.10566000000E+00 0. -1.
         23    2    1    0    0    0 -0.30581121762E+01  0.23930863703E+02  0.53552496795E+01  0.10028731122E+03  0.97194793095E+02 0.  0.
         13    1    3    3    0    0  0.20634383381E+02  0.53963718459E+01  0.45424867238E+02  0.50182948640E+02  0.10566000000E+00 0.  1.
         22    1    1    0    0    0  0.30581121762E+01 -0.23930863703E+02 -0.53552496795E+01  0.24712688781E+02  0.00000000000E+00 0. -1.
</event>
<event>
 5    1  0.1319298E-009  0.9118800E+02  0.7818608E-02  0.1130116E+00
         25   -1    0    0    0    0  0.00000000000E+00  0.00000000000E+00  0.99999998245E-14  0.12500000000E+03  0.12500000000E+03 0.  0.
        -13    1    3    3    0    0  0.17839806017E+02 -0.18691442478E+01 -0.37297030766E+02  0.41386375137E+02  0.10566000000E+00 0.  1.
         23    2    1    0    0    0 -0.24994902179E+02  0.68801241431E+01  0.33811536979E+00  0.99073265435E+02  0.95620690015E+02 0.  0.
         13    1    3    3    0    0 -0.42834708197E+02  0.87492683909E+01  0.37635146136E+02  0.57686890299E+02  0.10566000000E+00 0. -1.
         22    1    1    0    0    0  0.24994902179E+02 -0.68801241431E+01 -0.33811536979E+00  0.25926734565E+02  0.00000000000E+00 0. -1.
</event>
<event>
 5    1  0.1319298E-009  0.9118800E+02  0.7818608E-02  0.1130116E+00
         25   -1    0    0    0    0  0.00000000000E+00  0.00000000000E+00  0.99999998245E-14  0.12500000000E+03  0.12500000000E+03 0.  0.
        -13    1    3    3    0    0  0.23019509211E+02  0.28635756361E+02  0.58938228740E+01  0.37210921230E+02  0.10566000000E+00 0.  1.
         23    2    1    0    0    0 -0.23403720369E+01 -0.26071753086E+02  0.82427781184E+01  0.97556293228E+02  0.93616629436E+02 0.  0.
         13    1    3    3    0    0 -0.25359881248E+02 -0.54707509447E+02  0.23489552444E+01  0.60345371998E+02  0.10566000000E+00 0. -1.
         22    1    1    0    0    0  0.23403720369E+01  0.26071753086E+02 -0.82427781184E+01  0.27443706772E+02  0.00000000000E+00 0. -1.
</event>
<event>
 5    1  0.1319298E-009  0.9118800E+02  0.7818608E-02  0.1130116E+00
         25   -1    0    0    0    0  0.00000000000E+00  0.00000000000E+00  0.99999998245E-14  0.12500000000E+03  0.12500000000E+03 0.  0.
        -13    1    3    3    0    0 -0.18082950113E+02  0.22519098480E+02  0.17615114582E+02  0.33829074876E+02  0.10566000000E+00 0.  1.
         23    2    1    0    0    0  0.22320174827E+02 -0.16342776910E+02 -0.90316627791E+01  0.95899355781E+02  0.91377453155E+02 0.  0.
         13    1    3    3    0    0  0.40403124940E+02 -0.38861875391E+02 -0.26646777361E+02  0.62070280905E+02  0.10566000000E+00 0. -1.
         22    1    1    0    0    0 -0.22320174827E+02  0.16342776910E+02  0.90316627791E+01  0.29100644219E+02  0.00000000000E+00 0. -1.
</event>
<event>
 5    1  0.1319298E-009  0.9118800E+02  0.7818608E-02  0.1130116E+00
         25   -1    0    0    0    0  0.00000000000E+00  0.00000000000E+00  0.99999998245E-14  0.12500000000E+03  0.12500000000E+03 0.  0.
        -13    1    3    3    0    0  0.29350494066E+02 -0.50207563524E+01 -0.22149740430E+02  0.37111745599E+02  0.10566000000E+00 0. -1.
         23    2    1    0    0    0  0.68731783617E+01  0.21217091583E+02  0.22334493011E+02  0.93436807289E+02  0.87944310915E+02 0.  0.
         13    1    3    3    0    0 -0.22477315705E+02  0.26237847936E+02  0.44484233440E+02  0.56325061690E+02  0.10566000000E+00 0.  1.
         22    1    1    0    0    0 -0.68731783617E+01 -0.21217091583E+02 -0.22334493011E+02  0.31563192711E+02  0.00000000000E+00 0.  1.
</event>
<event>
 5    1  0.1319298E-009  0.9118800E+02  0.7818608E-02  0.1130116E+00
         25   -1    0    0    0    0  0.00000000000E+00  0.00000000000E+00  0.99999998245E-14  0.12500000000E+03  0.12500000000E+03 0.  0.
        -13    1    3    3    0    0  0.96791556903E+01 -0.60161344325E+02  0.35725746122E+01  0.61039723617E+02  0.10566000000E+00 0.  1.
         23    2    1    0    0    0 -0.47169476063E+01 -0.30763239450E+02  0.13938962777E+01  0.93846036479E+02  0.88524059554E+02 0.  0.
         13    1    3    3    0    0 -0.14396103297E+02  0.29398104874E+02 -0.21786783345E+01  0.32806312863E+02  0.10566000000E+00 0. -1.
         22    1    1    0    0    0  0.47169476063E+01  0.30763239450E+02 -0.13938962777E+01  0.31153963521E+02  0.00000000000E+00 0.  1.
</event>
<event>
 5    1  0.1319298E-009  0.9118800E+02  0.7818608E-02  0.1130116E+00
         25   -1    0    0    0    0  0.00000000000E+00  0.00000000000E+00  0.99999998245E-14  0.12500000000E+03  0.12500000000E+03 0.  0.
        -13    1    3    3    0    0 -0.21230025874E+02 -0.41077932964E+02 -0.34989910122E+02  0.57986339336E+02  0.10566000000E+00 0.  1.
         23    2    1    0    0    0  0.90617180999E+00 -0.32044345772E+02 -0.13211382363E+02  0.90327217198E+02  0.83407459495E+02 0.  0.
         13    1    3    3    0    0  0.22136197684E+02  0.90335871917E+01  0.21778527759E+02  0.32340877861E+02  0.10566000000E+00 0. -1.
         22    1    1    0    0    0 -0.90617180999E+00  0.32044345772E+02  0.13211382363E+02  0.34672782802E+02  0.00000000000E+00 0.  1.
</event>
<event>
 5    1  0.1319298E-009  0.9118800E+02  0.7818608E-02  0.1130116E+00
         25   -1    0    0    0    0  0.00000000000E+00  0.00000000000E+00  0.99999998245E-14  0.12500000000E+03  0.12500000000E+03 0.  0.
        -13    1    3    3    0    0  0.63645219173E+01  0.49177924189E+02  0.32723446004E+02  0.59412207914E+02  0.10566000000E+00 0.  1.
         23    2    1    0    0    0 -0.47773264764E+01  0.16333252432E+02  0.24689687479E+02  0.95013692273E+02  0.90157767654E+02 0.  0.
         13    1    3    3    0    0 -0.11141848394E+02 -0.32844671758E+02 -0.80337585247E+01  0.35601484359E+02  0.10566000000E+00 0. -1.
         22    1    1    0    0    0  0.47773264764E+01 -0.16333252432E+02 -0.24689687479E+02  0.29986307727E+02  0.00000000000E+00 0.  1.
</event>
<event>
 5    1  0.1319298E-009  0.9118800E+02  0.7818608E-02  0.1130116E+00
         25   -1    0    0    0    0  0.00000000000E+00  0.00000000000E+00  0.99999998245E-14  0.12500000000E+03  0.12500000000E+03 0.  0.
        -13    1    3    3    0    0 -0.35132965325E+02 -0.65954825422E+01  0.17322132844E+02  0.39722702486E+02  0.10566000000E+00 0. -1.
         23    2    1    0    0    0 -0.87265564479E-01 -0.15640638342E+02 -0.25061778868E+02  0.95457996969E+02  0.90771687449E+02 0.  0.
         13    1    3    3    0    0  0.35045699760E+02 -0.90451558002E+01 -0.42383911712E+02  0.55735294484E+02  0.10566000000E+00 0.  1.
         22    1    1    0    0    0  0.87265564479E-01  0.15640638342E+02  0.25061778868E+02  0.29542003031E+02  0.00000000000E+00 0.  1.
</event>
<event>
 5    1  0.1319298E-009  0.9118800E+02  0.7818608E-02  0.1130116E+00
         25   -1    0    0    0    0  0.00000000000E+00  0.00000000000E+00  0.99999998245E-14  0.12500000000E+03  0.12500000000E+03 0.  0.
        -13    1    3    3    0    0  0.31476460594E+02 -0.26318724867E+02 -0.22664150151E+02  0.46873422280E+02  0.10566000000E+00 0. -1.
         23    2    1    0    0    0 -0.16320784287E+02 -0.13031988581E+02 -0.19243315105E+02  0.96600952439E+02  0.92332215991E+02 0.  0.
         13    1    3    3    0    0 -0.47797244881E+02  0.13286736286E+02  0.34208350452E+01  0.49727530160E+02  0.10566000000E+00 0.  1.
         22    1    1    0    0    0  0.16320784287E+02  0.13031988581E+02  0.19243315105E+02  0.28399047561E+02  0.00000000000E+00 0. -1.
</event>
<event>
 5    1  0.1319298E-009  0.9118800E+02  0.7818608E-02  0.1130116E+00
         25   -1    0    0    0    0  0.00000000000E+00  0.00000000000E+00  0.99999998245E-14  0.12500000000E+03  0.12500000000E+03 0.  0.
        -13    1    3    3    0    0  0.95312938474E+01  0.54397622347E+02  0.17897796078E+02  0.58054191476E+02  0.10566000000E+00 0.  1.
         23    2    1    0    0    0  0.10406006402E+01  0.32505872456E+02 -0.64109421835E+01  0.91851624874E+02  0.85661579593E+02 0.  0.
         13    1    3    3    0    0 -0.84906932072E+01 -0.21891749891E+02 -0.24308738261E+02  0.33797433398E+02  0.10566000000E+00 0. -1.
         22    1    1    0    0    0 -0.10406006402E+01 -0.32505872456E+02  0.64109421835E+01  0.33148375126E+02  0.00000000000E+00 0.  1.
</event>
<event>
 5    1  0.1319298E-009  0.9118800E+02  0.7818608E-02  0.1130116E+00
         25   -1    0    0    0    0  0.00000000000E+00  0.00000000000E+00  0.99999998245E-14  0.12500000000E+03  0.12500000000E+03 0.  0.
        -13    1    3    3    0    0 -0.30862965655E+02  0.23299749430E+02  0.23508252780E+02  0.45255387363E+02  0.10566000000E+00 0.  1.
         23    2    1    0    0    0  0.16087253539E+02  0.16372566302E+02  0.22695273863E+02  0.92720964861E+02  0.86920890558E+02 0.  0.
         13    1    3    3    0    0  0.46950219195E+02 -0.69271831289E+01 -0.81297891654E+00  0.47465577499E+02  0.10566000000E+00 0. -1.
         22    1    1    0    0    0 -0.16087253539E+02 -0.16372566302E+02 -0.22695273863E+02  0.32279035139E+02  0.00000000000E+00 0. -1.
</event>
<event>
 5    1  0.1319298E-009  0.9118800E+02  0.7818608E-02  0.1130116E+00
         25   -1    0    0    0    0  0.00000000000E+00  0.00000000000E+00  0.99999998245E-14  0.12500000000E+03  0.12500000000E+03 0.  0.
        -13    1    3    3    0    0 -0.79293407176E+00 -0.31132320235E+02  0.13371549707E+02  0.33891881229E+02  0.10566000000E+00 0. -1.
         23    2    1    0    0    0 -0.11908030505E+02  0.21506179453E+02 -0.16466663546E+02  0.95411692284E+02  0.90707899717E+02 0.  0.
         13    1    3    3    0    0 -0.11115096433E+02  0.52638499688E+02 -0.29838213253E+02  0.61519811055E+02  0.10566000000E+00 0.  1.
         22    1    1    0    0    0  0.11908030505E+02 -0.21506179453E+02  0.16466663546E+02  0.29588307716E+02  0.00000000000E+00 0.  1.
</event>
<event>
 5    1  0.1319298E-009  0.9118800E+02  0.7818608E-02  0.1130116E+00
         25   -1    0    0    0    0  0.00000000000E+00  0.00000000000E+00  0.99999998245E-14  0.12500000000E+03  0.12500000000E+03 0.  0.
        -13    1    3    3    0    0 -0.21814949915E+02 -0.44609147010E+02 -0.16665842174E+02  0.52379666820E+02  0.10566000000E+00 0. -1.
         23    2    1    0    0    0  0.15697305872E+02 -0.19295832628E+02 -0.10291788620E+02  0.98080574273E+02  0.94314068772E+02 0.  0.
         13    1    3    3    0    0  0.37512255787E+02  0.25313314382E+02  0.63740535539E+01  0.45700907453E+02  0.10566000000E+00 0.  1.
         22    1    1    0    0    0 -0.15697305872E+02  0.19295832628E+02  0.10291788620E+02  0.26919425727E+02  0.00000000000E+00 0. -1.
</event>
<event>
 5    1  0.1319298E-009  0.9118800E+02  0.7818608E-02  0.1130116E+00
         25   -1    0    0    0    0  0.00000000000E+00  0.00000000000E+00  0.99999998245E-14  0.12500000000E+03  0.12500000000E+03 0.  0.
        -13    1    3    3    0    0 -0.18994212059E+02 -0.40313155953E+02  0.54910827008E+01  0.44900933040E+02  0.10566000000E+00 0.  1.
         23    2    1    0    0    0 -0.14530279041E+02  0.63515471258E+01  0.24770335389E+02  0.95588426169E+02  0.90951121721E+02 0.  0.
         13    1    3    3    0    0  0.44639330172E+01  0.46664703079E+02  0.19279252688E+02  0.50687493129E+02  0.10566000000E+00 0. -1.
         22    1    1    0    0    0  0.14530279041E+02 -0.63515471258E+01 -0.24770335389E+02  0.29411573831E+02  0.00000000000E+00 0. -1.
</event>
<event>
 5    1  0.1319298E-009  0.9118800E+02  0.7818608E-02  0.1130116E+00
         25   -1    0    0    0    0  0.00000000000E+00  0.00000000000E+00  0.99999998245E-14  0.12500000000E+03  0.12500000000E+03 0.  0.
        -13    1    3    3    0    0 -0.31486780401E+00  0.34448845726E+02 -0.53651804972E+01  0.34865720119E+02  0.10566000000E+00 0. -1.
         23    2    1    0    0    0  0.10903937031E+02 -0.19650193706E+02  0.19305286434E+02  0.95373659697E+02  0.90655473769E+02 0.  0.
         13    1    3    3    0    0  0.11218804835E+02 -0.54099039432E+02  0.24670466931E+02  0.60507939578E+02  0.10566000000E+00 0.  1.
         22    1    1    0    0    0 -0.10903937031E+02  0.19650193706E+02 -0.19305286434E+02  0.29626340303E+02  0.00000000000E+00 0.  1.
</event>
<event>
 5    1  0.1319298E-009  0.9118800E+02  0.7818608E-02  0.1130116E+00
         25   -1    0    0    0    0  0.00000000000E+00  0.00000000000E+00  0.99999998245E-14  0.12500000000E+03  0.12500000000E+03 0.  0.
        -13    1    3    3    0    0  0.13767427166E+02  0.16203208742E+02  0.24229802998E+02  0.32236323327E+02  0.10566000000E+00 0.  1.
         23    2    1    0    0    0 -0.13673415226E+02 -0.18962694244E+02 -0.19391555346E+02  0.94626023052E+02  0.89618668607E+02 0.  0.
         13    1    3    3    0    0 -0.27440842392E+02 -0.35165902986E+02 -0.43621358343E+02  0.62389699725E+02  0.10566000000E+00 0. -1.
         22    1    1    0    0    0  0.13673415226E+02  0.18962694244E+02  0.19391555346E+02  0.30373976948E+02  0.00000000000E+00 0. -1.
</event>
<event>
 5    1  0.1319298E-009  0.9118800E+02  0.7818608E-02  0.1130116E+00
         25   -1    0    0    0    0  0.00000000000E+00  0.00000000000E+00  0.99999998245E-14  0.12500000000E+03  0.12500000000E+03 0.  0.
        -13    1    3    3    0    0 -0.14797166580E+02 -0.22740538514E+02  0.46318441475E+02  0.53679580991E+02  0.10566000000E+00 0. -1.
         23    2    1    0    0    0 -0.19703914128E+02  0.92347211668E+01  0.20997218263E+02  0.94760828686E+02  0.89806498492E+02 0.  0.
         13    1    3    3    0    0 -0.49067475486E+01  0.31975259680E+02 -0.25321223213E+02  0.41081247695E+02  0.10566000000E+00 0.  1.
         22    1    1    0    0    0  0.19703914128E+02 -0.92347211668E+01 -0.20997218263E+02  0.30239171314E+02  0.00000000000E+00 0. -1.
</event>
<event>
 5    1  0.1319298E-009  0.9118800E+02  0.7818608E-02  0.1130116E+00
         25   -1    0    0    0    0  0.00000000000E+00  0.00000000000E+00  0.99999998245E-14  0.12500000000E+03  0.12500000000E+03 0.  0.
        -13    1    3    3    0    0 -0.34796532986E+02 -0.71607484057E+01 -0.12581153686E+01  0.35548122930E+02  0.10566000000E+00 0.  1.
         23    2    1    0    0    0  0.21288746170E+02 -0.17770253473E+02  0.12986998798E+02  0.94378851103E+02  0.89273247817E+02 0.  0.
         13    1    3    3    0    0  0.56085279155E+02 -0.10609505068E+02  0.14245114166E+02  0.58830728173E+02  0.10566000000E+00 0. -1.
         22    1    1    0    0    0 -0.21288746170E+02  0.17770253473E+02 -0.12986998798E+02  0.30621148897E+02  0.00000000000E+00 0. -1.
</event>
<event>
 5    1  0.1319298E-009  0.9118800E+02  0.7818608E-02  0.1130116E+00
         25   -1    0    0    0    0  0.00000000000E+00  0.00000000000E+00  0.99999998245E-14  0.12500000000E+03  0.12500000000E+03 0.  0.
        -13    1    3    3    0    0  0.23233574257E+02  0.29934780967E+02  0.22132171113E+02  0.43883188655E+02  0.10566000000E+00 0.  1.
         23    2    1    0    0    0  0.14048313844E+02  0.30244813641E+02 -0.19399447294E+02  0.86419662659E+02  0.77329914423E+02 0.  0.
         13    1    3    3    0    0 -0.91852604124E+01  0.31003267392E+00 -0.41531618407E+02  0.42536474004E+02  0.10566000000E+00 0. -1.
         22    1    1    0    0    0 -0.14048313844E+02 -0.30244813641E+02  0.19399447294E+02  0.38580337341E+02  0.00000000000E+00 0.  1.
</event>
<event>
 5    1  0.1319298E-009  0.9118800E+02  0.7818608E-02  0.1130116E+00
         25   -1    0    0    0    0  0.00000000000E+00  0.00000000000E+00  0.99999998245E-14  0.12500000000E+03  0.12500000000E+03 0.  0.
        -13    1    3    3    0    0 -0.46123317072E+02 -0.29710896350E+02  0.14426192562E+02  0.56729392167E+02  0.10566000000E+00 0.  1.
         23    2    1    0    0    0 -0.75629003258E+01 -0.24385553260E+02 -0.28355943108E+01  0.99311612268E+02  0.95931762556E+02 0.  0.
         13    1    3    3    0    0  0.38560416747E+02  0.53253430900E+01 -0.17261786873E+02  0.42582220102E+02  0.10566000000E+00 0. -1.
         22    1    1    0    0    0  0.75629003258E+01  0.24385553260E+02  0.28355943108E+01  0.25688387732E+02  0.00000000000E+00 0.  1.
</event>
<event>
 5    1  0.1319298E-009  0.9118800E+02  0.7818608E-02  0.1130116E+00
         25   -1    0    0    0    0  0.00000000000E+00  0.00000000000E+00  0.99999998245E-14  0.12500000000E+03  0.12500000000E+03 0.  0.
        -13    1    3    3    0    0 -0.32154990062E+02 -0.19915462629E+02 -0.11181498310E+02  0.39441172728E+02  0.10566000000E+00 0.  1.
         23    2    1    0    0    0  0.22121364722E+01  0.24668358087E+02  0.80962548011E+01  0.98942932239E+02  0.95450160082E+02 0.  0.
         13    1    3    3    0    0  0.34367126534E+02  0.44583820716E+02  0.19277753111E+02  0.59501759511E+02  0.10566000000E+00 0. -1.
         22    1    1    0    0    0 -0.22121364722E+01 -0.24668358087E+02 -0.80962548011E+01  0.26057067761E+02  0.00000000000E+00 0. -1.
</event>
<event>
 5    1  0.1319298E-009  0.9118800E+02  0.7818608E-02  0.1130116E+00
         25   -1    0    0    0    0  0.00000000000E+00  0.00000000000E+00  0.99999998245E-14  0.12500000000E+03  0.12500000000E+03 0.  0.
        -13    1    3    3    0    0  0.37017382422E+02 -0.10719941768E+02 -0.17642892469E+01  0.38578849562E+02  0.10566000000E+00 0.  1.
         23    2    1    0    0    0 -0.14142960599E+02 -0.74669477237E+01  0.24161010523E+02  0.96025302895E+02  0.91549580686E+02 0.  0.
         13    1    3    3    0    0 -0.51160343022E+02  0.32529940443E+01  0.25925299770E+02  0.57446453333E+02  0.10566000000E+00 0. -1.
         22    1    1    0    0    0  0.14142960599E+02  0.74669477237E+01 -0.24161010523E+02  0.28974697105E+02  0.00000000000E+00 0. -1.
</event>
<event>
 5    1  0.1319298E-009  0.9118800E+02  0.7818608E-02  0.1130116E+00
         25   -1    0    0    0    0  0.00000000000E+00  0.00000000000E+00  0.99999998245E-14  0.12500000000E+03  0.12500000000E+03 0.  0.
        -13    1    3    3    0    0  0.16249943703E+02  0.31103728460E+02  0.28099714182E+01  0.35205250998E+02  0.10566000000E+00 0. -1.
         23    2    1    0    0    0 -0.22434052863E+02 -0.15055029301E+02  0.10691307035E+02  0.95944111075E+02  0.91438655768E+02 0.  0.
         13    1    3    3    0    0 -0.38683996566E+02 -0.46158757761E+02  0.78813356171E+01  0.60738860077E+02  0.10566000000E+00 0.  1.
         22    1    1    0    0    0  0.22434052863E+02  0.15055029301E+02 -0.10691307035E+02  0.29055888925E+02  0.00000000000E+00 0.  1.
</event>
<event>
 5    1  0.1319298E-009  0.9118800E+02  0.7818608E-02  0.1130116E+00
         25   -1    0    0    0    0  0.00000000000E+00  0.00000000000E+00  0.99999998245E-14  0.12500000000E+03  0.12500000000E+03 0.  0.
        -13    1    3    3    0    0 -0.10993059696E+02  0.35251326818E+01  0.50990324729E+02  0.52280955442E+02  0.10566000000E+00 0. -1.
         23    2    1    0    0    0 -0.21591994941E+02 -0.13667981514E+02  0.10807928475E+02  0.97254022235E+02  0.93212153493E+02 0.  0.
         13    1    3    3    0    0 -0.10598935245E+02 -0.17193114195E+02 -0.40182396254E+02  0.44973066793E+02  0.10566000000E+00 0.  1.
         22    1    1    0    0    0  0.21591994941E+02  0.13667981514E+02 -0.10807928475E+02  0.27745977765E+02  0.00000000000E+00 0.  1.
</event>
<event>
 5    1  0.1319298E-009  0.9118800E+02  0.7818608E-02  0.1130116E+00
         25   -1    0    0    0    0  0.00000000000E+00  0.00000000000E+00  0.99999998245E-14  0.12500000000E+03  0.12500000000E+03 0.  0.
        -13    1    3    3    0    0 -0.27712676372E+02 -0.28088344030E+02  0.12987089650E+02  0.41540620645E+02  0.10566000000E+00 0. -1.
         23    2    1    0    0    0  0.22450063866E+02 -0.20151113363E+02 -0.27439268030E+01  0.94708055994E+02  0.89733015097E+02 0.  0.
         13    1    3    3    0    0  0.50162740238E+02  0.79372306663E+01 -0.15731016453E+02  0.53167435348E+02  0.10566000000E+00 0.  1.
         22    1    1    0    0    0 -0.22450063866E+02  0.20151113363E+02  0.27439268030E+01  0.30291944006E+02  0.00000000000E+00 0.  1.
</event>
<event>
 5    1  0.1319298E-009  0.9118800E+02  0.7818608E-02  0.1130116E+00
         25   -1    0    0    0    0  0.00000000000E+00  0.00000000000E+00  0.99999998245E-14  0.12500000000E+03  0.12500000000E+03 0.  0.
        -13    1    3    3    0    0 -0.29284821290E+02 -0.23704502308E+02 -0.20533824488E+02  0.42908662294E+02  0.10566000000E+00 0. -1.
         23    2    1    0    0    0  0.22060174383E+02 -0.14130352171E+02 -0.13243561118E+02  0.95645101646E+02  0.91028981163E+02 0.  0.
         13    1    3    3    0    0  0.51344995673E+02  0.95741501375E+01  0.72902633696E+01  0.52736439352E+02  0.10566000000E+00 0.  1.
         22    1    1    0    0    0 -0.22060174383E+02  0.14130352171E+02  0.13243561118E+02  0.29354898354E+02  0.00000000000E+00 0.  1.
</event>
<event>
 5    1  0.1319298E-009  0.9118800E+02  0.7818608E-02  0.1130116E+00
         25   -1    0    0    0    0  0.00000000000E+00  0.00000000000E+00  0.99999998245E-14  0.12500000000E+03  0.12500000000E+03 0.  0.
        -13    1    3    3    0    0 -0.47926994996E+02 -0.21164142637E+02 -0.70657462820E+01  0.52866376058E+02  0.10566000000E+00 0.  1.
         23    2    1    0    0    0 -0.25178945346E+02  0.14802101610E+02 -0.19855244366E+01  0.95725031032E+02  0.91138673229E+02 0.  0.
         13    1    3    3    0    0  0.22748049650E+02  0.35966244247E+02  0.50802218454E+01  0.42858654974E+02  0.10566000000E+00 0. -1.
         22    1    1    0    0    0  0.25178945346E+02 -0.14802101610E+02  0.19855244366E+01  0.29274968968E+02  0.00000000000E+00 0.  1.
</event>
<event>
 5    1  0.1319298E-009  0.9118800E+02  0.7818608E-02  0.1130116E+00
         25   -1    0    0    0    0  0.00000000000E+00  0.00000000000E+00  0.99999998245E-14  0.12500000000E+03  0.12500000000E+03 0.  0.
        -13    1    3    3    0    0  0.37425631276E+02  0.17944011193E+01 -0.71142537172E+01  0.38138189807E+02  0.10566000000E+00 0.  1.
         23    2    1    0    0    0 -0.19492498523E+02 -0.14528990838E+02 -0.12623419660E+02  0.97606573830E+02  0.93683741692E+02 0.  0.
         13    1    3    3    0    0 -0.56918129799E+02 -0.16323391957E+02 -0.55091659423E+01  0.59468384022E+02  0.10566000000E+00 0. -1.
         22    1    1    0    0    0  0.19492498523E+02  0.14528990838E+02  0.12623419660E+02  0.27393426170E+02  0.00000000000E+00 0. -1.
</event>
<event>
 5    1  0.1319298E-009  0.9118800E+02  0.7818608E-02  0.1130116E+00
         25   -1    0    0    0    0  0.00000000000E+00  0.00000000000E+00  0.99999998245E-14  0.12500000000E+03  0.12500000000E+03 0.  0.
        -13    1    3    3    0    0  0.38841801022E+02 -0.37261724023E+02  0.18263814980E+02  0.56839244238E+02  0.10566000000E+00 0.  1.
         23    2    1    0    0    0  0.58193801786E+01 -0.21583281074E+02  0.22063112728E+02  0.93591654759E+02  0.88164129268E+02 0.  0.
         13    1    3    3    0    0 -0.33022420844E+02  0.15678442949E+02  0.37992977474E+01  0.36752410521E+02  0.10566000000E+00 0. -1.
         22    1    1    0    0    0 -0.58193801786E+01  0.21583281074E+02 -0.22063112728E+02  0.31408345241E+02  0.00000000000E+00 0.  1.
</event>
<event>
 5    1  0.1319298E-009  0.9118800E+02  0.7818608E-02  0.1130116E+00
         25   -1    0    0    0    0  0.00000000000E+00  0.00000000000E+00  0.99999998245E-14  0.12500000000E+03  0.12500000000E+03 0.  0.
        -13    1    3    3    0    0  0.94594802583E+01 -0.45038943476E+01 -0.37323980591E+02  0.38766706363E+02  0.10566000000E+00 0. -1.
         23    2    1    0    0    0 -0.33777477970E+01  0.28237224091E+02  0.73546108371E+01  0.95625856521E+02  0.91002550131E+02 0.  0.
         13    1    3    3    0    0 -0.12837228055E+02  0.32741118438E+02  0.44678591428E+02  0.56859150159E+02  0.10566000000E+00 0.  1.
         22    1    1    0    0    0  0.33777477970E+01 -0.28237224091E+02 -0.73546108371E+01  0.29374143479E+02  0.00000000000E+00 0.  1.
</event>
<event>
 5    1  0.1319298E-009  0.9118800E+02  0.7818608E-02  0.1130116E+00
         25   -1    0    0    0    0  0.00000000000E+00  0.00000000000E+00  0.99999998245E-14  0.12500000000E+03  0.12500000000E+03 0.  0.
        -13    1    3    3    0    0 -0.13782473914E+02 -0.50137087924E+02  0.55115992811E+01  0.52288364512E+02  0.10566000000E+00 0.  1.
         23    2    1    0    0    0  0.15132061952E+02 -0.21447315318E+02 -0.11388095350E+02  0.96387846132E+02  0.92043259031E+02 0.  0.
         13    1    3    3    0    0  0.28914535866E+02  0.28689772606E+02 -0.16899694631E+02  0.44099481620E+02  0.10566000000E+00 0. -1.
         22    1    1    0    0    0 -0.15132061952E+02  0.21447315318E+02  0.11388095350E+02  0.28612153868E+02  0.00000000000E+00 0.  1.
</event>
<event>
 5    1  0.1319298E-009  0.9118800E+02  0.7818608E-02  0.1130116E+00
         25   -1    0    0    0    0  0.00000000000E+00  0.00000000000E+00  0.99999998245E-14  0.12500000000E+03  0.12500000000E+03 0.  0.
        -13    1    3    3    0    0  0.11951552972E+00 -0.60500832066E+02 -0.81200678085E+00  0.60506491253E+02  0.10566000000E+00 0. -1.
         23    2    1    0    0    0  0.33949432938E+01 -0.27314492084E+02 -0.10974195645E+02  0.95368258778E+02  0.90648026424E+02 0.  0.
         13    1    3    3    0    0  0.32754277641E+01  0.33186339982E+02 -0.10162188864E+02  0.34861767525E+02  0.10566000000E+00 0.  1.
         22    1    1    0    0    0 -0.33949432938E+01  0.27314492084E+02  0.10974195645E+02  0.29631741222E+02  0.00000000000E+00 0. -1.
</event>
<event>
 5    1  0.1319298E-009  0.9118800E+02  0.7818608E-02  0.1130116E+00
         25   -1    0    0    0    0  0.00000000000E+00  0.00000000000E+00  0.99999998245E-14  0.12500000000E+03  0.12500000000E+03 0.  0.
        -13    1    3    3    0    0  0.35382234282E+02 -0.19757049391E+02  0.33918096107E+02  0.52845926153E+02  0.10566000000E+00 0.  1.
         23    2    1    0    0    0  0.14399634779E+02 -0.24893612678E+02 -0.34769976020E+01  0.96032242989E+02  0.91559056064E+02 0.  0.
         13    1    3    3    0    0 -0.20982599503E+02 -0.51365632872E+01 -0.37395093709E+02  0.43186316836E+02  0.10566000000E+00 0. -1.
         22    1    1    0    0    0 -0.14399634779E+02  0.24893612678E+02  0.34769976020E+01  0.28967757011E+02  0.00000000000E+00 0. -1.
</event>
<event>
 5    1  0.1319298E-009  0.9118800E+02  0.7818608E-02  0.1130116E+00
         25   -1    0    0    0    0  0.00000000000E+00  0.00000000000E+00  0.99999998245E-14  0.12500000000E+03  0.12500000000E+03 0.  0.
        -13    1    3    3    0    0  0.15650644982E+02  0.47437687107E+02 -0.16918124669E+02  0.52740031786E+02  0.10566000000E+00 0.  1.
         23    2    1    0    0    0 -0.15948080109E+02  0.24697047009E+02  0.97264718978E+00  0.95585183450E+02  0.90946664933E+02 0.  0.
         13    1    3    3    0    0 -0.31598725090E+02 -0.22740640098E+02  0.17890771859E+02  0.42845151664E+02  0.10566000000E+00 0. -1.
         22    1    1    0    0    0  0.15948080109E+02 -0.24697047009E+02 -0.97264718978E+00  0.29414816550E+02  0.00000000000E+00 0. -1.
</event>
<event>
 5    1  0.1319298E-009  0.9118800E+02  0.7818608E-02  0.1130116E+00
         25   -1    0    0    0    0  0.00000000000E+00  0.00000000000E+00  0.99999998245E-14  0.12500000000E+03  0.12500000000E+03 0.  0.
        -13    1    3    3    0    0  0.25350669486E+02 -0.26900332480E+01  0.26217783019E+02  0.36568784950E+02  0.10566000000E+00 0.  1.
         23    2    1    0    0    0 -0.27481171258E+02  0.96466955074E+01  0.25382663372E+01  0.95764468468E+02  0.91192747064E+02 0.  0.
         13    1    3    3    0    0 -0.52831840745E+02  0.12336728755E+02 -0.23679516682E+02  0.59195683518E+02  0.10566000000E+00 0. -1.
         22    1    1    0    0    0  0.27481171258E+02 -0.96466955074E+01 -0.25382663372E+01  0.29235531532E+02  0.00000000000E+00 0. -1.
</event>
<event>
 5    1  0.1319298E-009  0.9118800E+02  0.7818608E-02  0.1130116E+00
         25   -1    0    0    0    0  0.00000000000E+00  0.00000000000E+00  0.99999998245E-14  0.12500000000E+03  0.12500000000E+03 0.  0.
        -13    1    3    3    0    0 -0.25380803712E+02  0.12122155640E+02  0.20139338911E+02  0.34593872149E+02  0.10566000000E+00 0.  1.
         23    2    1    0    0    0  0.97523780909E+01  0.13129454788E+02 -0.27023235099E+02  0.93412871345E+02  0.87910282881E+02 0.  0.
         13    1    3    3    0    0  0.35133181803E+02  0.10072991483E+01 -0.47162574010E+02  0.58818999196E+02  0.10566000000E+00 0. -1.
         22    1    1    0    0    0 -0.97523780909E+01 -0.13129454788E+02  0.27023235099E+02  0.31587128655E+02  0.00000000000E+00 0. -1.
</event>
<event>
 5    1  0.1319298E-009  0.9118800E+02  0.7818608E-02  0.1130116E+00
         25   -1    0    0    0    0  0.00000000000E+00  0.00000000000E+00  0.99999998245E-14  0.12500000000E+03  0.12500000000E+03 0.  0.
        -13    1    3    3    0    0  0.32051173580E+02  0.21549515209E+02  0.47582167757E+02  0.61284036960E+02  0.10566000000E+00 0.  1.
         23    2    1    0    0    0  0.13325424063E+02  0.43592991583E+01  0.29054940390E+02  0.92739188220E+02  0.86947093425E+02 0.  0.
         13    1    3    3    0    0 -0.18725749517E+02 -0.17190216051E+02 -0.18527227367E+02  0.31455151260E+02  0.10566000000E+00 0. -1.
         22    1    1    0    0    0 -0.13325424063E+02 -0.43592991583E+01 -0.29054940390E+02  0.32260811780E+02  0.00000000000E+00 0.  1.
</event>
<event>
 5    1  0.1319298E-009  0.9118800E+02  0.7818608E-02  0.1130116E+00
         25   -1    0    0    0    0  0.00000000000E+00  0.00000000000E+00  0.99999998245E-14  0.12500000000E+03  0.12500000000E+03 0.  0.
        -13    1    3    3    0    0  0.34533202718E+02 -0.17350801756E+01 -0.47920277508E+02  0.59092442441E+02  0.10566000000E+00 0.  1.
         23    2    1    0    0    0  0.25114298054E+02  0.37953711838E+01 -0.11494573259E+02  0.97120652382E+02  0.93033129022E+02 0.  0.
         13    1    3    3    0    0 -0.94189046632E+01  0.55304513594E+01  0.36425704249E+02  0.38028209942E+02  0.10566000000E+00 0. -1.
         22    1    1    0    0    0 -0.25114298054E+02 -0.37953711838E+01  0.11494573259E+02  0.27879347618E+02  0.00000000000E+00 0.  1.
</event>
<event>
 5    1  0.1319298E-009  0.9118800E+02  0.7818608E-02  0.1130116E+00
         25   -1    0    0    0    0  0.00000000000E+00  0.00000000000E+00  0.99999998245E-14  0.12500000000E+03  0.12500000000E+03 0.  0.
        -13    1    3    3    0    0  0.43177467476E+01  0.19371565607E+00  0.52721448980E+02  0.52898419724E+02  0.10566000000E+00 0. -1.
         23    2    1    0    0    0  0.17776901976E+02 -0.17012202097E+02  0.15925318060E+02  0.95690461973E+02  0.91091248170E+02 0.  0.
         13    1    3    3    0    0  0.13459155229E+02 -0.17205917753E+02 -0.36796130919E+02  0.42792042249E+02  0.10566000000E+00 0.  1.
         22    1    1    0    0    0 -0.17776901976E+02  0.17012202097E+02 -0.15925318060E+02  0.29309538027E+02  0.00000000000E+00 0. -1.
</event>
<event>
 5    1  0.1319298E-009  0.9118800E+02  0.7818608E-02  0.1130116E+00
         25   -1    0    0    0    0  0.00000000000E+00  0.00000000000E+00  0.99999998245E-14  0.12500000000E+03  0.12500000000E+03 0.  0.
        -13    1    3    3    0    0 -0.17580189794E+02 -0.29512357340E+02 -0.98178330612E+00  0.34365933298E+02  0.10566000000E+00 0.  1.
         23    2    1    0    0    0 -0.23010075491E+01  0.26813491415E+02  0.14062575974E+02  0.94635316556E+02  0.89631630238E+02 0.  0.
         13    1    3    3    0    0  0.15279182245E+02  0.56325848755E+02  0.15044359280E+02  0.60269383258E+02  0.10566000000E+00 0. -1.
         22    1    1    0    0    0  0.23010075491E+01 -0.26813491415E+02 -0.14062575974E+02  0.30364683444E+02  0.00000000000E+00 0. -1.
</event>
<event>
 5    1  0.1319298E-009  0.9118800E+02  0.7818608E-02  0.1130116E+00
         25   -1    0    0    0    0  0.00000000000E+00  0.00000000000E+00  0.99999998245E-14  0.12500000000E+03  0.12500000000E+03 0.  0.
        -13    1    3    3    0    0 -0.35097819280E+01 -0.81827555236E+00 -0.48057263153E+02  0.48192321482E+02  0.10566000000E+00 0.  1.
         23    2    1    0    0    0  0.27910319451E+02 -0.24834970763E+00 -0.17315823268E+02  0.92153609865E+02  0.86101117683E+02 0.  0.
         13    1    3    3    0    0  0.31420101379E+02  0.56992584473E+00  0.30741439884E+02  0.43961288383E+02  0.10566000000E+00 0. -1.
         22    1    1    0    0    0 -0.27910319451E+02  0.24834970763E+00  0.17315823268E+02  0.32846390135E+02  0.00000000000E+00 0. -1.
</event>
<event>
 5    1  0.1319298E-009  0.9118800E+02  0.7818608E-02  0.1130116E+00
         25   -1    0    0    0    0  0.00000000000E+00  0.00000000000E+00  0.99999998245E-14  0.12500000000E+03  0.12500000000E+03 0.  0.
        -13    1    3    3    0    0  0.49713907374E+02 -0.89955892016E+01 -0.22374608572E+02  0.55254207842E+02  0.10566000000E+00 0. -1.
         23    2    1    0    0    0  0.18233092496E+02  0.13754821638E+02 -0.20770441862E+02  0.94128459135E+02  0.88921958951E+02 0.  0.
         13    1    3    3    0    0 -0.31480814877E+02  0.22750410839E+02  0.16041667107E+01  0.38874251293E+02  0.10566000000E+00 0.  1.
         22    1    1    0    0    0 -0.18233092496E+02 -0.13754821638E+02  0.20770441862E+02  0.30871540865E+02  0.00000000000E+00 0. -1.
</event>
<event>
 5    1  0.1319298E-009  0.9118800E+02  0.7818608E-02  0.1130116E+00
         25   -1    0    0    0    0  0.00000000000E+00  0.00000000000E+00  0.99999998245E-14  0.12500000000E+03  0.12500000000E+03 0.  0.
        -13    1    3    3    0    0 -0.19568213378E+02 -0.47211145055E+02  0.22306673997E+02  0.55762048573E+02  0.10566000000E+00 0.  1.
         23    2    1    0    0    0 -0.73870434846E+01 -0.27508681617E+02 -0.93792487433E+01  0.95012231114E+02  0.90155741794E+02 0.  0.
         13    1    3    3    0    0  0.12181169894E+02  0.19702463438E+02 -0.31685922741E+02  0.39250182541E+02  0.10566000000E+00 0. -1.
         22    1    1    0    0    0  0.73870434846E+01  0.27508681617E+02  0.93792487433E+01  0.29987768886E+02  0.00000000000E+00 0.  1.
</event>
<event>
 5    1  0.1319298E-009  0.9118800E+02  0.7818608E-02  0.1130116E+00
         25   -1    0    0    0    0  0.00000000000E+00  0.00000000000E+00  0.99999998245E-14  0.12500000000E+03  0.12500000000E+03 0.  0.
        -13    1    3    3    0    0  0.32230998762E+02 -0.28287016374E+02 -0.20805197244E+01  0.42934045965E+02  0.10566000000E+00 0. -1.
         23    2    1    0    0    0 -0.20845195984E+02 -0.14286813448E+02  0.74643863968E+01  0.98649434572E+02  0.95065023236E+02 0.  0.
         13    1    3    3    0    0 -0.53076194746E+02  0.14000202926E+02  0.95449061212E+01  0.55715388607E+02  0.10566000000E+00 0.  1.
         22    1    1    0    0    0  0.20845195984E+02  0.14286813448E+02 -0.74643863968E+01  0.26350565428E+02  0.00000000000E+00 0.  1.
</event>
<event>
 5    1  0.1319298E-009  0.9118800E+02  0.7818608E-02  0.1130116E+00
         25   -1    0    0    0    0  0.00000000000E+00  0.00000000000E+00  0.99999998245E-14  0.12500000000E+03  0.12500000000E+03 0.  0.
        -13    1    3    3    0    0  0.17224987117E+01  0.31840284240E+02 -0.33461617532E+02  0.46221874845E+02  0.10566000000E+00 0.  1.
         23    2    1    0    0    0 -0.26138663874E+02 -0.33669778877E+01 -0.10748463220E+02  0.96537818938E+02  0.92246705819E+02 0.  0.
         13    1    3    3    0    0 -0.27861162586E+02 -0.35207262128E+02  0.22713154312E+02  0.50315944093E+02  0.10566000000E+00 0. -1.
         22    1    1    0    0    0  0.26138663874E+02  0.33669778877E+01  0.10748463220E+02  0.28462181062E+02  0.00000000000E+00 0. -1.
</event>
<event>
 5    1  0.1319298E-009  0.9118800E+02  0.7818608E-02  0.1130116E+00
         25   -1    0    0    0    0  0.00000000000E+00  0.00000000000E+00  0.99999998245E-14  0.12500000000E+03  0.12500000000E+03 0.  0.
        -13    1    3    3    0    0 -0.74885161181E+01 -0.31179260485E+02 -0.42712115892E+02  0.53409364029E+02  0.10566000000E+00 0. -1.
         23    2    1    0    0    0  0.16746296123E+02 -0.10955111002E+01 -0.22266702728E+02  0.97117305927E+02  0.93028632591E+02 0.  0.
         13    1    3    3    0    0  0.24234812241E+02  0.30083749385E+02  0.20445413164E+02  0.43707941897E+02  0.10566000000E+00 0.  1.
         22    1    1    0    0    0 -0.16746296123E+02  0.10955111002E+01  0.22266702728E+02  0.27882694073E+02  0.00000000000E+00 0. -1.
</event>
<event>
 5    1  0.1319298E-009  0.9118800E+02  0.7818608E-02  0.1130116E+00
         25   -1    0    0    0    0  0.00000000000E+00  0.00000000000E+00  0.99999998245E-14  0.12500000000E+03  0.12500000000E+03 0.  0.
        -13    1    3    3    0    0  0.13615356000E+02 -0.57103886584E+02 -0.10778147147E+02  0.59685939734E+02  0.10566000000E+00 0.  1.
         23    2    1    0    0    0  0.11403930198E+02 -0.26129097469E+02  0.72363691595E+01  0.95586662938E+02  0.90948698367E+02 0.  0.
         13    1    3    3    0    0 -0.22114258023E+01  0.30974789115E+02  0.18014516306E+02  0.35900723204E+02  0.10566000000E+00 0. -1.
         22    1    1    0    0    0 -0.11403930198E+02  0.26129097469E+02 -0.72363691595E+01  0.29413337062E+02  0.00000000000E+00 0.  1.
</event>
<event>
 5    1  0.1319298E-009  0.9118800E+02  0.7818608E-02  0.1130116E+00
         25   -1    0    0    0    0  0.00000000000E+00  0.00000000000E+00  0.99999998245E-14  0.12500000000E+03  0.12500000000E+03 0.  0.
        -13    1    3    3    0    0  0.46637115639E+02 -0.22456197075E+02 -0.23639126614E+02  0.56904488516E+02  0.10566000000E+00 0. -1.
         23    2    1    0    0    0  0.31139092659E+02 -0.11822726725E+00  0.13492102346E+01  0.93831467189E+02  0.88503484662E+02 0.  0.
         13    1    3    3    0    0 -0.15498022980E+02  0.22337969808E+02  0.24988336849E+02  0.36926978673E+02  0.10566000000E+00 0.  1.
         22    1    1    0    0    0 -0.31139092659E+02  0.11822726725E+00 -0.13492102346E+01  0.31168532811E+02  0.00000000000E+00 0. -1.
</event>
<event>
 5    1  0.1319298E-009  0.9118800E+02  0.7818608E-02  0.1130116E+00
         25   -1    0    0    0    0  0.00000000000E+00  0.00000000000E+00  0.99999998245E-14  0.12500000000E+03  0.12500000000E+03 0.  0.
        -13    1    3    3    0    0 -0.70217916075E+01  0.38863252905E+02  0.12518210812E+02  0.41429153379E+02  0.10566000000E+00 0.  1.
         23    2    1    0    0    0  0.17650142841E+01 -0.17743328162E+02 -0.11753727917E+02  0.10364371077E+03  0.10141956267E+03 0.  0.
         13    1    3    3    0    0  0.87868058917E+01 -0.56606581067E+02 -0.24271938728E+02  0.62214557392E+02  0.10566000000E+00 0. -1.
         22    1    1    0    0    0 -0.17650142841E+01  0.17743328162E+02  0.11753727917E+02  0.21356289229E+02  0.00000000000E+00 0. -1.
</event>
<event>
 5    1  0.1319298E-009  0.9118800E+02  0.7818608E-02  0.1130116E+00
         25   -1    0    0    0    0  0.00000000000E+00  0.00000000000E+00  0.99999998245E-14  0.12500000000E+03  0.12500000000E+03 0.  0.
        -13    1    3    3    0    0 -0.34610590752E+02 -0.17041032188E+02  0.47528019059E+01  0.38870169285E+02  0.10566000000E+00 0.  1.
         23    2    1    0    0    0 -0.23368164814E+00  0.17365541078E+02  0.27429915731E+02  0.92534373546E+02  0.86652140115E+02 0.  0.
         13    1    3    3    0    0  0.34376909104E+02  0.34406573266E+02  0.22677113825E+02  0.53664204261E+02  0.10566000000E+00 0. -1.
         22    1    1    0    0    0  0.23368164814E+00 -0.17365541078E+02 -0.27429915731E+02  0.32465626454E+02  0.00000000000E+00 0. -1.
</event>
<event>
 5    1  0.1319298E-009  0.9118800E+02  0.7818608E-02  0.1130116E+00
         25   -1    0    0    0    0  0.00000000000E+00  0.00000000000E+00  0.99999998245E-14  0.12500000000E+03  0.12500000000E+03 0.  0.
        -13    1    3    3    0    0  0.34836810275E+01 -0.25234623759E+02 -0.21678696709E+02  0.33449952538E+02  0.10566000000E+00 0. -1.
         23    2    1    0    0    0 -0.65339501927E+01  0.25079757773E+02  0.13619458205E+02  0.95722425017E+02  0.91135098915E+02 0.  0.
         13    1    3    3    0    0 -0.10017631220E+02  0.50314381532E+02  0.35298154915E+02  0.62272472479E+02  0.10566000000E+00 0.  1.
         22    1    1    0    0    0  0.65339501927E+01 -0.25079757773E+02 -0.13619458205E+02  0.29277574983E+02  0.00000000000E+00 0.  1.
</event>
<event>
 5    1  0.1319298E-009  0.9118800E+02  0.7818608E-02  0.1130116E+00
         25   -1    0    0    0    0  0.00000000000E+00  0.00000000000E+00  0.99999998245E-14  0.12500000000E+03  0.12500000000E+03 0.  0.
        -13    1    3    3    0    0  0.32752037151E+01  0.57344263752E+02 -0.38851870185E+01  0.57569066232E+02  0.10566000000E+00 0. -1.
         23    2    1    0    0    0  0.50312033789E+01  0.45203955030E+02 -0.17834789531E+02  0.76145212360E+02  0.58406361725E+02 0.  0.
         13    1    3    3    0    0  0.17559996637E+01 -0.12140308722E+02 -0.13949602512E+02  0.18576146128E+02  0.10566000000E+00 0.  1.
         22    1    1    0    0    0 -0.50312033789E+01 -0.45203955030E+02  0.17834789531E+02  0.48854787640E+02  0.00000000000E+00 0. -1.
</event>
<event>
 5    1  0.1319298E-009  0.9118800E+02  0.7818608E-02  0.1130116E+00
         25   -1    0    0    0    0  0.00000000000E+00  0.00000000000E+00  0.99999998245E-14  0.12500000000E+03  0.12500000000E+03 0.  0.
        -13    1    3    3    0    0 -0.69229869345E+00  0.34271508965E+02  0.35631494398E+02  0.49443201366E+02  0.10566000000E+00 0. -1.
         23    2    1    0    0    0 -0.10204041216E+02 -0.10625447290E+02  0.24084768998E+02  0.96767063827E+02  0.92556825555E+02 0.  0.
         13    1    3    3    0    0 -0.95117425229E+01 -0.44896956255E+02 -0.11546725400E+02  0.47323862461E+02  0.10566000000E+00 0.  1.
         22    1    1    0    0    0  0.10204041216E+02  0.10625447290E+02 -0.24084768998E+02  0.28232936173E+02  0.00000000000E+00 0. -1.
</event>
<event>
 5    1  0.1319298E-009  0.9118800E+02  0.7818608E-02  0.1130116E+00
         25   -1    0    0    0    0  0.00000000000E+00  0.00000000000E+00  0.99999998245E-14  0.12500000000E+03  0.12500000000E+03 0.  0.
        -13    1    3    3    0    0 -0.19448018969E+02 -0.18161257408E+02 -0.22732545890E+02  0.34997664481E+02  0.10566000000E+00 0. -1.
         23    2    1    0    0    0  0.21914728673E+02 -0.31598965978E+01  0.19136905938E+02  0.95734637398E+02  0.91151847757E+02 0.  0.
         13    1    3    3    0    0  0.41362747642E+02  0.15001360810E+02  0.41869451829E+02  0.60736972917E+02  0.10566000000E+00 0.  1.
         22    1    1    0    0    0 -0.21914728673E+02  0.31598965978E+01 -0.19136905938E+02  0.29265362602E+02  0.00000000000E+00 0.  1.
</event>
<event>
 5    1  0.1319298E-009  0.9118800E+02  0.7818608E-02  0.1130116E+00
         25   -1    0    0    0    0  0.00000000000E+00  0.00000000000E+00  0.99999998245E-14  0.12500000000E+03  0.12500000000E+03 0.  0.
        -13    1    3    3    0    0  0.21599159654E+02  0.23198145342E+02  0.23321349162E+02  0.39351926711E+02  0.10566000000E+00 0.  1.
         23    2    1    0    0    0  0.15251880167E+02  0.26077306172E+02 -0.23522914240E+02  0.86711970014E+02  0.77800980094E+02 0.  0.
         13    1    3    3    0    0 -0.63472794873E+01  0.28791608300E+01 -0.46844263402E+02  0.47360043303E+02  0.10566000000E+00 0. -1.
         22    1    1    0    0    0 -0.15251880167E+02 -0.26077306172E+02  0.23522914240E+02  0.38288029986E+02  0.00000000000E+00 0.  1.
</event>
<event>
 5    1  0.1319298E-009  0.9118800E+02  0.7818608E-02  0.1130116E+00
         25   -1    0    0    0    0  0.00000000000E+00  0.00000000000E+00  0.99999998245E-14  0.12500000000E+03  0.12500000000E+03 0.  0.
        -13    1    3    3    0    0  0.27458696161E+01 -0.34379204075E+02  0.45384577102E+02  0.57002109396E+02  0.10566000000E+00 0. -1.
         23    2    1    0    0    0  0.11860545048E+02 -0.24351690791E+02  0.80154999384E+01  0.96752422892E+02  0.92537050542E+02 0.  0.
         13    1    3    3    0    0  0.91146754320E+01  0.10027513284E+02 -0.37369077164E+02  0.39750313496E+02  0.10566000000E+00 0.  1.
         22    1    1    0    0    0 -0.11860545048E+02  0.24351690791E+02 -0.80154999384E+01  0.28247577108E+02  0.00000000000E+00 0. -1.
</event>
<event>
 5    1  0.1319298E-009  0.9118800E+02  0.7818608E-02  0.1130116E+00
         25   -1    0    0    0    0  0.00000000000E+00  0.00000000000E+00  0.99999998245E-14  0.12500000000E+03  0.12500000000E+03 0.  0.
        -13    1    3    3    0    0  0.17959883140E+02 -0.28631129641E+02  0.10396517141E+02  0.35360963216E+02  0.10566000000E+00 0. -1.
         23    2    1    0    0    0  0.55873275960E+00  0.18179097329E+02 -0.23178092183E+02  0.95537893503E+02  0.90881644878E+02 0.  0.
         13    1    3    3    0    0 -0.17401150380E+02  0.46810226970E+02 -0.33574609323E+02  0.60176930287E+02  0.10566000000E+00 0.  1.
         22    1    1    0    0    0 -0.55873275960E+00 -0.18179097329E+02  0.23178092183E+02  0.29462106497E+02  0.00000000000E+00 0.  1.
</event>
<event>
 5    1  0.1319298E-009  0.9118800E+02  0.7818608E-02  0.1130116E+00
         25   -1    0    0    0    0  0.00000000000E+00  0.00000000000E+00  0.99999998245E-14  0.12500000000E+03  0.12500000000E+03 0.  0.
        -13    1    3    3    0    0  0.32676265180E+02  0.15616937248E+02 -0.41269752737E+02  0.54907473900E+02  0.10566000000E+00 0. -1.
         23    2    1    0    0    0  0.26672283275E+02 -0.83971486615E+01 -0.89045119161E+01  0.95653566942E+02  0.91040604873E+02 0.  0.
         13    1    3    3    0    0 -0.60039819050E+01 -0.24014085910E+02  0.32365240820E+02  0.40746093042E+02  0.10566000000E+00 0.  1.
         22    1    1    0    0    0 -0.26672283275E+02  0.83971486615E+01  0.89045119161E+01  0.29346433058E+02  0.00000000000E+00 0. -1.
</event>
<event>
 5    1  0.1319298E-009  0.9118800E+02  0.7818608E-02  0.1130116E+00
         25   -1    0    0    0    0  0.00000000000E+00  0.00000000000E+00  0.99999998245E-14  0.12500000000E+03  0.12500000000E+03 0.  0.
        -13    1    3    3    0    0  0.14136123379E+00  0.33540893958E+02  0.13626438808E+02  0.36203626187E+02  0.10566000000E+00 0.  1.
         23    2    1    0    0    0  0.16017739647E+02 -0.17287917819E+02 -0.15395395713E+02  0.96849364216E+02  0.92667907357E+02 0.  0.
         13    1    3    3    0    0  0.15876378413E+02 -0.50828811776E+02 -0.29021834521E+02  0.60645738029E+02  0.10566000000E+00 0. -1.
         22    1    1    0    0    0 -0.16017739647E+02  0.17287917819E+02  0.15395395713E+02  0.28150635784E+02  0.00000000000E+00 0. -1.
</event>
<event>
 5    1  0.1319298E-009  0.9118800E+02  0.7818608E-02  0.1130116E+00
         25   -1    0    0    0    0  0.00000000000E+00  0.00000000000E+00  0.99999998245E-14  0.12500000000E+03  0.12500000000E+03 0.  0.
        -13    1    3    3    0    0 -0.15612235346E+02  0.32781263559E+02 -0.10222294728E+02  0.37720811319E+02  0.10566000000E+00 0.  1.
         23    2    1    0    0    0  0.29992673126E+01 -0.25401984593E+02 -0.23414874261E+01  0.99314615264E+02  0.95935675408E+02 0.  0.
         13    1    3    3    0    0  0.18611502658E+02 -0.58183248152E+02  0.78808073018E+01  0.61593803945E+02  0.10566000000E+00 0. -1.
         22    1    1    0    0    0 -0.29992673126E+01  0.25401984593E+02  0.23414874261E+01  0.25685384736E+02  0.00000000000E+00 0. -1.
</event>
<event>
 5    1  0.1319298E-009  0.9118800E+02  0.7818608E-02  0.1130116E+00
         25   -1    0    0    0    0  0.00000000000E+00  0.00000000000E+00  0.99999998245E-14  0.12500000000E+03  0.12500000000E+03 0.  0.
        -13    1    3    3    0    0 -0.78460078984E+01 -0.12923558907E+02 -0.33788468752E+02  0.37016888029E+02  0.10566000000E+00 0. -1.
         23    2    1    0    0    0 -0.44982764660E+01 -0.10803039889E+02  0.25764933574E+02  0.96702085518E+02  0.92469029298E+02 0.  0.
         13    1    3    3    0    0  0.33477314324E+01  0.21205190179E+01  0.59553402325E+02  0.59685197488E+02  0.10566000000E+00 0.  1.
         22    1    1    0    0    0  0.44982764660E+01  0.10803039889E+02 -0.25764933574E+02  0.28297914482E+02  0.00000000000E+00 0.  1.
</event>
<event>
 5    1  0.1319298E-009  0.9118800E+02  0.7818608E-02  0.1130116E+00
         25   -1    0    0    0    0  0.00000000000E+00  0.00000000000E+00  0.99999998245E-14  0.12500000000E+03  0.12500000000E+03 0.  0.
        -13    1    3    3    0    0  0.39127488294E+02 -0.25820200165E+02  0.11575086457E+02  0.48287025869E+02  0.10566000000E+00 0.  1.
         23    2    1    0    0    0  0.34546208707E+01  0.84071499004E+00  0.28758822673E+02  0.96022231132E+02  0.91545386465E+02 0.  0.
         13    1    3    3    0    0 -0.35672867423E+02  0.26660915155E+02  0.17183736216E+02  0.47735205263E+02  0.10566000000E+00 0. -1.
         22    1    1    0    0    0 -0.34546208707E+01 -0.84071499004E+00 -0.28758822673E+02  0.28977768868E+02  0.00000000000E+00 0. -1.
</event>
<event>
 5    1  0.1319298E-009  0.9118800E+02  0.7818608E-02  0.1130116E+00
         25   -1    0    0    0    0  0.00000000000E+00  0.00000000000E+00  0.99999998245E-14  0.12500000000E+03  0.12500000000E+03 0.  0.
        -13    1    3    3    0    0  0.10955180224E+02 -0.69361784591E+01  0.46008852664E+02  0.47801173969E+02  0.10566000000E+00 0. -1.
         23    2    1    0    0    0 -0.23782142725E+02 -0.93770047187E+01  0.11032549262E+02  0.97156945690E+02  0.93081880205E+02 0.  0.
         13    1    3    3    0    0 -0.34737322949E+02 -0.24408262596E+01 -0.34976303402E+02  0.49355771721E+02  0.10566000000E+00 0.  1.
         22    1    1    0    0    0  0.23782142725E+02  0.93770047187E+01 -0.11032549262E+02  0.27843054310E+02  0.00000000000E+00 0. -1.
</event>
<event>
 5    1  0.1319298E-009  0.9118800E+02  0.7818608E-02  0.1130116E+00
         25   -1    0    0    0    0  0.00000000000E+00  0.00000000000E+00  0.99999998245E-14  0.12500000000E+03  0.12500000000E+03 0.  0.
        -13    1    3    3    0    0 -0.46751494893E+02  0.97681684220E+00 -0.63317143136E-01  0.46761860730E+02  0.10566000000E+00 0. -1.
         23    2    1    0    0    0 -0.27825533802E+01  0.26939233621E+02 -0.18425915285E+01  0.97854833673E+02  0.94014405376E+02 0.  0.
         13    1    3    3    0    0  0.43968941513E+02  0.25962416778E+02 -0.17792743854E+01  0.51092972943E+02  0.10566000000E+00 0.  1.
         22    1    1    0    0    0  0.27825533802E+01 -0.26939233621E+02  0.18425915285E+01  0.27145166327E+02  0.00000000000E+00 0. -1.
</event>
<event>
 5    1  0.1319298E-009  0.9118800E+02  0.7818608E-02  0.1130116E+00
         25   -1    0    0    0    0  0.00000000000E+00  0.00000000000E+00  0.99999998245E-14  0.12500000000E+03  0.12500000000E+03 0.  0.
        -13    1    3    3    0    0 -0.29030708181E+02  0.16494467699E+02 -0.30706958146E+02  0.45362737184E+02  0.10566000000E+00 0. -1.
         23    2    1    0    0    0  0.17121148707E+01  0.31489461575E+02  0.29202689981E+01  0.93329106444E+02  0.87791096422E+02 0.  0.
         13    1    3    3    0    0  0.30742823052E+02  0.14994993876E+02  0.33627227144E+02  0.47966369260E+02  0.10566000000E+00 0.  1.
         22    1    1    0    0    0 -0.17121148707E+01 -0.31489461575E+02 -0.29202689981E+01  0.31670893556E+02  0.00000000000E+00 0. -1.
</event>
<event>
 5    1  0.1319298E-009  0.9118800E+02  0.7818608E-02  0.1130116E+00
         25   -1    0    0    0    0  0.00000000000E+00  0.00000000000E+00  0.99999998245E-14  0.12500000000E+03  0.12500000000E+03 0.  0.
        -13    1    3    3    0    0  0.76195464162E+01 -0.59310615312E+02 -0.15836288554E+02  0.61859564948E+02  0.10566000000E+00 0.  1.
         23    2    1    0    0    0  0.83412624762E+01 -0.19770926191E+02 -0.74470664928E+01  0.10228601793E+03  0.99732163731E+02 0.  0.
         13    1    3    3    0    0  0.72171606000E+00  0.39539689121E+02  0.83892220609E+01  0.40426452982E+02  0.10566000000E+00 0. -1.
         22    1    1    0    0    0 -0.83412624762E+01  0.19770926191E+02  0.74470664928E+01  0.22713982070E+02  0.00000000000E+00 0.  1.
</event>
<event>
 5    1  0.1319298E-009  0.9118800E+02  0.7818608E-02  0.1130116E+00
         25   -1    0    0    0    0  0.00000000000E+00  0.00000000000E+00  0.99999998245E-14  0.12500000000E+03  0.12500000000E+03 0.  0.
        -13    1    3    3    0    0  0.13294420521E+02 -0.37202094720E+02 -0.39025668507E+02  0.55531535500E+02  0.10566000000E+00 0. -1.
         23    2    1    0    0    0  0.21009251327E+02 -0.27613646667E+01 -0.21017392583E+02  0.95154655855E+02  0.90352996429E+02 0.  0.
         13    1    3    3    0    0  0.77148308054E+01  0.34440730053E+02  0.18008275923E+02  0.39623120355E+02  0.10566000000E+00 0.  1.
         22    1    1    0    0    0 -0.21009251327E+02  0.27613646667E+01  0.21017392583E+02  0.29845344145E+02  0.00000000000E+00 0. -1.
</event>
<event>
 5    1  0.1319298E-009  0.9118800E+02  0.7818608E-02  0.1130116E+00
         25   -1    0    0    0    0  0.00000000000E+00  0.00000000000E+00  0.99999998245E-14  0.12500000000E+03  0.12500000000E+03 0.  0.
        -13    1    3    3    0    0  0.14871518717E+02 -0.36654028062E+02  0.96898128741E+01  0.40725710303E+02  0.10566000000E+00 0.  1.
         23    2    1    0    0    0  0.11551924996E+02  0.15061111664E+02 -0.17443418381E+02  0.99220998847E+02  0.95813619656E+02 0.  0.
         13    1    3    3    0    0 -0.33195937207E+01  0.51715139727E+02 -0.27133231255E+02  0.58495288543E+02  0.10566000000E+00 0. -1.
         22    1    1    0    0    0 -0.11551924996E+02 -0.15061111664E+02  0.17443418381E+02  0.25779001153E+02  0.00000000000E+00 0. -1.
</event>
<event>
 5    1  0.1319298E-009  0.9118800E+02  0.7818608E-02  0.1130116E+00
         25   -1    0    0    0    0  0.00000000000E+00  0.00000000000E+00  0.99999998245E-14  0.12500000000E+03  0.12500000000E+03 0.  0.
        -13    1    3    3    0    0  0.32947228825E+02 -0.11960386266E+02 -0.13952861054E+02  0.37726174236E+02  0.10566000000E+00 0.  1.
         23    2    1    0    0    0 -0.85007807997E+01  0.27572751933E+02 -0.38007740905E+01  0.95897323026E+02  0.91374672401E+02 0.  0.
         13    1    3    3    0    0 -0.41448009625E+02  0.39533138199E+02  0.10152086964E+02  0.58171148789E+02  0.10566000000E+00 0. -1.
         22    1    1    0    0    0  0.85007807997E+01 -0.27572751933E+02  0.38007740905E+01  0.29102676974E+02  0.00000000000E+00 0. -1.
</event>
<event>
 5    1  0.1319298E-009  0.9118800E+02  0.7818608E-02  0.1130116E+00
         25   -1    0    0    0    0  0.00000000000E+00  0.00000000000E+00  0.99999998245E-14  0.12500000000E+03  0.12500000000E+03 0.  0.
        -13    1    3    3    0    0  0.51288983532E+02 -0.14094495860E+02 -0.82755757054E+01  0.53830390697E+02  0.10566000000E+00 0.  1.
         23    2    1    0    0    0  0.18215259540E+02  0.45335066757E+01 -0.23668450321E+02  0.94791658379E+02  0.89849399523E+02 0.  0.
         13    1    3    3    0    0 -0.33073723991E+02  0.18628002536E+02 -0.15392874616E+02  0.40961267682E+02  0.10566000000E+00 0. -1.
         22    1    1    0    0    0 -0.18215259540E+02 -0.45335066757E+01  0.23668450321E+02  0.30208341621E+02  0.00000000000E+00 0. -1.
</event>
<event>
 5    1  0.1319298E-009  0.9118800E+02  0.7818608E-02  0.1130116E+00
         25   -1    0    0    0    0  0.00000000000E+00  0.00000000000E+00  0.99999998245E-14  0.12500000000E+03  0.12500000000E+03 0.  0.
        -13    1    3    3    0    0  0.43768538980E+02  0.28445820141E+02  0.10935449834E+02  0.53333337746E+02  0.10566000000E+00 0.  1.
         23    2    1    0    0    0  0.82529017635E+01  0.26343920952E+02 -0.11170071845E+02  0.95219418010E+02  0.90442548076E+02 0.  0.
         13    1    3    3    0    0 -0.35515637217E+02 -0.21018991894E+01 -0.22105521680E+02  0.41886080264E+02  0.10566000000E+00 0. -1.
         22    1    1    0    0    0 -0.82529017635E+01 -0.26343920952E+02  0.11170071845E+02  0.29780581990E+02  0.00000000000E+00 0.  1.
</event>
<event>
 5    1  0.1319298E-009  0.9118800E+02  0.7818608E-02  0.1130116E+00
         25   -1    0    0    0    0  0.00000000000E+00  0.00000000000E+00  0.99999998245E-14  0.12500000000E+03  0.12500000000E+03 0.  0.
        -13    1    3    3    0    0  0.16468939281E+02 -0.42406520852E+01  0.32627579924E+02  0.36793738963E+02  0.10566000000E+00 0. -1.
         23    2    1    0    0    0  0.26567649233E+00 -0.18943012028E+02 -0.22193791021E+02  0.95819995741E+02  0.91268827839E+02 0.  0.
         13    1    3    3    0    0 -0.16203262789E+02 -0.14702359943E+02 -0.54821370944E+02  0.59026256778E+02  0.10566000000E+00 0.  1.
         22    1    1    0    0    0 -0.26567649233E+00  0.18943012028E+02  0.22193791021E+02  0.29180004259E+02  0.00000000000E+00 0.  1.
</event>
<event>
 5    1  0.1319298E-009  0.9118800E+02  0.7818608E-02  0.1130116E+00
         25   -1    0    0    0    0  0.00000000000E+00  0.00000000000E+00  0.99999998245E-14  0.12500000000E+03  0.12500000000E+03 0.  0.
        -13    1    3    3    0    0  0.15343345302E+02  0.72404994670E+01  0.31335722556E+02  0.35633997106E+02  0.10566000000E+00 0.  1.
         23    2    1    0    0    0  0.10297488365E+02 -0.24726025217E+02 -0.16612620506E+02  0.93481850472E+02  0.88008309937E+02 0.  0.
         13    1    3    3    0    0 -0.50458569375E+01 -0.31966524684E+02 -0.47948343062E+02  0.57847853366E+02  0.10566000000E+00 0. -1.
         22    1    1    0    0    0 -0.10297488365E+02  0.24726025217E+02  0.16612620506E+02  0.31518149528E+02  0.00000000000E+00 0. -1.
</event>
<event>
 5    1  0.1319298E-009  0.9118800E+02  0.7818608E-02  0.1130116E+00
         25   -1    0    0    0    0  0.00000000000E+00  0.00000000000E+00  0.99999998245E-14  0.12500000000E+03  0.12500000000E+03 0.  0.
        -13    1    3    3    0    0  0.38796519893E+02  0.48681532332E+01 -0.99969171803E+01  0.40358622237E+02  0.10566000000E+00 0. -1.
         23    2    1    0    0    0  0.14307599221E+02  0.84728993426E+01 -0.41423934106E+02  0.80363246808E+02  0.66826728948E+02 0.  0.
         13    1    3    3    0    0 -0.24488920672E+02  0.36047461094E+01 -0.31427016926E+02  0.40004624571E+02  0.10566000000E+00 0.  1.
         22    1    1    0    0    0 -0.14307599221E+02 -0.84728993426E+01  0.41423934106E+02  0.44636753192E+02  0.00000000000E+00 0.  1.
</event>
<event>
 5    1  0.1319298E-009  0.9118800E+02  0.7818608E-02  0.1130116E+00
         25   -1    0    0    0    0  0.00000000000E+00  0.00000000000E+00  0.99999998245E-14  0.12500000000E+03  0.12500000000E+03 0.  0.
        -13    1    3    3    0    0 -0.23894263979E+02 -0.27476728057E+02 -0.38322614663E+01  0.36614257165E+02  0.10566000000E+00 0.  1.
         23    2    1    0    0    0 -0.20355898029E+01  0.26678510497E+02  0.96610577639E+01  0.96553162122E+02  0.92267494441E+02 0.  0.
         13    1    3    3    0    0  0.21858674176E+02  0.54155238553E+02  0.13493319230E+02  0.59938904956E+02  0.10566000000E+00 0. -1.
         22    1    1    0    0    0  0.20355898029E+01 -0.26678510497E+02 -0.96610577639E+01  0.28446837878E+02  0.00000000000E+00 0. -1.
</event>
<event>
 5    1  0.1319298E-009  0.9118800E+02  0.7818608E-02  0.1130116E+00
         25   -1    0    0    0    0  0.00000000000E+00  0.00000000000E+00  0.99999998245E-14  0.12500000000E+03  0.12500000000E+03 0.  0.
        -13    1    3    3    0    0 -0.22179066134E+02 -0.26997357750E+02  0.12090313287E+02  0.36972356423E+02  0.10566000000E+00 0. -1.
         23    2    1    0    0    0  0.51703205956E+01  0.97325417749E+01 -0.26143261376E+02  0.96628805103E+02  0.92369915426E+02 0.  0.
         13    1    3    3    0    0  0.27349386730E+02  0.36729899524E+02 -0.38233574664E+02  0.59656448681E+02  0.10566000000E+00 0.  1.
         22    1    1    0    0    0 -0.51703205956E+01 -0.97325417749E+01  0.26143261376E+02  0.28371194897E+02  0.00000000000E+00 0.  1.
</event>
<event>
 5    1  0.1319298E-009  0.9118800E+02  0.7818608E-02  0.1130116E+00
         25   -1    0    0    0    0  0.00000000000E+00  0.00000000000E+00  0.99999998245E-14  0.12500000000E+03  0.12500000000E+03 0.  0.
        -13    1    3    3    0    0  0.54718129102E+02  0.12421073042E+02  0.14179444187E+02  0.57874212819E+02  0.10566000000E+00 0.  1.
         23    2    1    0    0    0  0.24477550116E+02  0.12699866699E+02 -0.90161754199E+01  0.95987442494E+02  0.91497872235E+02 0.  0.
         13    1    3    3    0    0 -0.30240578986E+02  0.27879365685E+00 -0.23195619607E+02  0.38113229675E+02  0.10566000000E+00 0. -1.
         22    1    1    0    0    0 -0.24477550116E+02 -0.12699866699E+02  0.90161754199E+01  0.29012557506E+02  0.00000000000E+00 0.  1.
</event>
<event>
 5    1  0.1319298E-009  0.9118800E+02  0.7818608E-02  0.1130116E+00
         25   -1    0    0    0    0  0.00000000000E+00  0.00000000000E+00  0.99999998245E-14  0.12500000000E+03  0.12500000000E+03 0.  0.
        -13    1    3    3    0    0  0.55835572905E+02 -0.11692963159E+02  0.20915562372E+02  0.60760254299E+02  0.10566000000E+00 0.  1.
         23    2    1    0    0    0  0.29404292723E+02 -0.66460055370E+01 -0.19741964707E-01  0.94853985174E+02  0.89936067812E+02 0.  0.
         13    1    3    3    0    0 -0.26431280182E+02  0.50469576223E+01 -0.20935304336E+02  0.34093730875E+02  0.10566000000E+00 0. -1.
         22    1    1    0    0    0 -0.29404292723E+02  0.66460055370E+01  0.19741964707E-01  0.30146014826E+02  0.00000000000E+00 0.  1.
</event>
<event>
 5    1  0.1319298E-009  0.9118800E+02  0.7818608E-02  0.1130116E+00
         25   -1    0    0    0    0  0.00000000000E+00  0.00000000000E+00  0.99999998245E-14  0.12500000000E+03  0.12500000000E+03 0.  0.
        -13    1    3    3    0    0 -0.27430343536E+02  0.14962881061E+02  0.47137985251E+02  0.56553623878E+02  0.10566000000E+00 0. -1.
         23    2    1    0    0    0 -0.23845923159E+02 -0.71923279725E+01  0.14449860714E+02  0.96204929109E+02  0.91794511150E+02 0.  0.
         13    1    3    3    0    0  0.35844203773E+01 -0.22155209034E+02 -0.32688124537E+02  0.39651305231E+02  0.10566000000E+00 0.  1.
         22    1    1    0    0    0  0.23845923159E+02  0.71923279725E+01 -0.14449860714E+02  0.28795070891E+02  0.00000000000E+00 0. -1.
</event>
<event>
 5    1  0.1319298E-009  0.9118800E+02  0.7818608E-02  0.1130116E+00
         25   -1    0    0    0    0  0.00000000000E+00  0.00000000000E+00  0.99999998245E-14  0.12500000000E+03  0.12500000000E+03 0.  0.
        -13    1    3    3    0    0 -0.27563784670E+02 -0.27853233360E+00  0.51996038862E+02  0.58850990025E+02  0.10566000000E+00 0.  1.
         23    2    1    0    0    0 -0.20172562415E+02  0.10983828474E+02  0.16783665472E+02  0.96552360572E+02  0.92266408530E+02 0.  0.
         13    1    3    3    0    0  0.73912222556E+01  0.11262360808E+02 -0.35212373389E+02  0.37701370547E+02  0.10566000000E+00 0. -1.
         22    1    1    0    0    0  0.20172562415E+02 -0.10983828474E+02 -0.16783665472E+02  0.28447639428E+02  0.00000000000E+00 0.  1.
</event>
<event>
 5    1  0.1319298E-009  0.9118800E+02  0.7818608E-02  0.1130116E+00
         25   -1    0    0    0    0  0.00000000000E+00  0.00000000000E+00  0.99999998245E-14  0.12500000000E+03  0.12500000000E+03 0.  0.
        -13    1    3    3    0    0 -0.13604697477E+02  0.27959146363E+02 -0.28696495617E+02  0.42311956744E+02  0.10566000000E+00 0. -1.
         23    2    1    0    0    0 -0.24975317077E+02 -0.15862406855E+02 -0.97657845279E+00  0.95397025153E+02  0.90687685428E+02 0.  0.
         13    1    3    3    0    0 -0.11370619599E+02 -0.43821553217E+02  0.27719917164E+02  0.53085068410E+02  0.10566000000E+00 0.  1.
         22    1    1    0    0    0  0.24975317077E+02  0.15862406855E+02  0.97657845279E+00  0.29602974847E+02  0.00000000000E+00 0. -1.
</event>
<event>
 5    1  0.1319298E-009  0.9118800E+02  0.7818608E-02  0.1130116E+00
         25   -1    0    0    0    0  0.00000000000E+00  0.00000000000E+00  0.99999998245E-14  0.12500000000E+03  0.12500000000E+03 0.  0.
        -13    1    3    3    0    0 -0.37487962130E+02  0.87543589156E+01  0.29638308090E+02  0.48584221463E+02  0.10566000000E+00 0.  1.
         23    2    1    0    0    0 -0.15253186172E+01  0.28987100475E+02  0.14647373363E+02  0.92486554515E+02  0.86583131318E+02 0.  0.
         13    1    3    3    0    0  0.35962643513E+02  0.20232741560E+02 -0.14990934726E+02  0.43902333052E+02  0.10566000000E+00 0. -1.
         22    1    1    0    0    0  0.15253186172E+01 -0.28987100475E+02 -0.14647373363E+02  0.32513445485E+02  0.00000000000E+00 0. -1.
</event>
<event>
 5    1  0.1319298E-009  0.9118800E+02  0.7818608E-02  0.1130116E+00
         25   -1    0    0    0    0  0.00000000000E+00  0.00000000000E+00  0.99999998245E-14  0.12500000000E+03  0.12500000000E+03 0.  0.
        -13    1    3    3    0    0  0.34112422570E+02 -0.34731071732E+02  0.38273021611E+02  0.61925278074E+02  0.10566000000E+00 0.  1.
         23    2    1    0    0    0  0.18016947140E+02 -0.19591997979E+02  0.13384943537E+02  0.95207157193E+02  0.90425600900E+02 0.  0.
         13    1    3    3    0    0 -0.16095475430E+02  0.15139073754E+02 -0.24888078073E+02  0.33281879119E+02  0.10566000000E+00 0. -1.
         22    1    1    0    0    0 -0.18016947140E+02  0.19591997979E+02 -0.13384943537E+02  0.29792842807E+02  0.00000000000E+00 0.  1.
</event>
<event>
 5    1  0.1319298E-009  0.9118800E+02  0.7818608E-02  0.1130116E+00
         25   -1    0    0    0    0  0.00000000000E+00  0.00000000000E+00  0.99999998245E-14  0.12500000000E+03  0.12500000000E+03 0.  0.
        -13    1    3    3    0    0  0.17322675950E+02 -0.24841573733E+02 -0.34757652510E+02  0.46100807581E+02  0.10566000000E+00 0. -1.
         23    2    1    0    0    0  0.29207726404E+02  0.89071396360E+01 -0.23533897744E+01  0.94373755346E+02  0.89266112475E+02 0.  0.
         13    1    3    3    0    0  0.11885050454E+02  0.33748713369E+02  0.32404262736E+02  0.48272947764E+02  0.10566000000E+00 0.  1.
         22    1    1    0    0    0 -0.29207726404E+02 -0.89071396360E+01  0.23533897744E+01  0.30626244654E+02  0.00000000000E+00 0.  1.
</event>
<event>
 5    1  0.1319298E-009  0.9118800E+02  0.7818608E-02  0.1130116E+00
         25   -1    0    0    0    0  0.00000000000E+00  0.00000000000E+00  0.99999998245E-14  0.12500000000E+03  0.12500000000E+03 0.  0.
        -13    1    3    3    0    0 -0.12455163835E+02  0.40214202449E+02  0.80842315075E+01  0.42868160070E+02  0.10566000000E+00 0.  1.
         23    2    1    0    0    0 -0.42638825037E+01 -0.10985786804E+01 -0.26975104684E+02  0.97667897230E+02  0.93765528353E+02 0.  0.
         13    1    3    3    0    0  0.81912813309E+01 -0.41312781129E+02 -0.35059336192E+02  0.54799737159E+02  0.10566000000E+00 0. -1.
         22    1    1    0    0    0  0.42638825037E+01  0.10985786804E+01  0.26975104684E+02  0.27332102770E+02  0.00000000000E+00 0. -1.
</event>
<event>
 5    1  0.1319298E-009  0.9118800E+02  0.7818608E-02  0.1130116E+00
         25   -1    0    0    0    0  0.00000000000E+00  0.00000000000E+00  0.99999998245E-14  0.12500000000E+03  0.12500000000E+03 0.  0.
        -13    1    3    3    0    0 -0.46725804162E+00 -0.78632214358E+01  0.29669741588E+02  0.30697773720E+02  0.10566000000E+00 0.  1.
         23    2    1    0    0    0 -0.11041636650E+02 -0.27311012158E+01 -0.30730954696E+02  0.92231597075E+02  0.86214263719E+02 0.  0.
         13    1    3    3    0    0 -0.10574378609E+02  0.51321202200E+01 -0.60400696284E+02  0.61533823354E+02  0.10566000000E+00 0. -1.
         22    1    1    0    0    0  0.11041636650E+02  0.27311012158E+01  0.30730954696E+02  0.32768402925E+02  0.00000000000E+00 0. -1.
</event>
<event>
 5    1  0.1319298E-009  0.9118800E+02  0.7818608E-02  0.1130116E+00
         25   -1    0    0    0    0  0.00000000000E+00  0.00000000000E+00  0.99999998245E-14  0.12500000000E+03  0.12500000000E+03 0.  0.
        -13    1    3    3    0    0  0.22802975436E+02 -0.22126214659E+02  0.16895566971E+02  0.35986336452E+02  0.10566000000E+00 0. -1.
         23    2    1    0    0    0 -0.19880925909E+02  0.19346542278E+02  0.77349424702E+01  0.96201228358E+02  0.91789471561E+02 0.  0.
         13    1    3    3    0    0 -0.42683901345E+02  0.41472756937E+02 -0.91606245010E+01  0.60214891906E+02  0.10566000000E+00 0.  1.
         22    1    1    0    0    0  0.19880925909E+02 -0.19346542278E+02 -0.77349424702E+01  0.28798771642E+02  0.00000000000E+00 0.  1.
</event>
<event>
 5    1  0.1319298E-009  0.9118800E+02  0.7818608E-02  0.1130116E+00
         25   -1    0    0    0    0  0.00000000000E+00  0.00000000000E+00  0.99999998245E-14  0.12500000000E+03  0.12500000000E+03 0.  0.
        -13    1    3    3    0    0 -0.27973014665E+02 -0.51746404130E+02  0.38750098377E+01  0.58950884260E+02  0.10566000000E+00 0.  1.
         23    2    1    0    0    0  0.40872298501E+00 -0.29917637725E+02 -0.85477086822E+00  0.95067363385E+02  0.90232149737E+02 0.  0.
         13    1    3    3    0    0  0.28381737650E+02  0.21828766405E+02 -0.47297807059E+01  0.36116479124E+02  0.10566000000E+00 0. -1.
         22    1    1    0    0    0 -0.40872298501E+00  0.29917637725E+02  0.85477086822E+00  0.29932636615E+02  0.00000000000E+00 0.  1.
</event>
<event>
 5    1  0.1319298E-009  0.9118800E+02  0.7818608E-02  0.1130116E+00
         25   -1    0    0    0    0  0.00000000000E+00  0.00000000000E+00  0.99999998245E-14  0.12500000000E+03  0.12500000000E+03 0.  0.
        -13    1    3    3    0    0 -0.51094750320E+01  0.14070674194E+02 -0.28661353605E+02  0.32335351582E+02  0.10566000000E+00 0. -1.
         23    2    1    0    0    0  0.35157662980E+01 -0.16147777648E+02  0.25300201907E+02  0.94780609665E+02  0.89834027052E+02 0.  0.
         13    1    3    3    0    0  0.86252413300E+01 -0.30218451843E+02  0.53961555513E+02  0.62445258084E+02  0.10566000000E+00 0.  1.
         22    1    1    0    0    0 -0.35157662980E+01  0.16147777648E+02 -0.25300201907E+02  0.30219390335E+02  0.00000000000E+00 0.  1.
</event>
<event>
 5    1  0.1319298E-009  0.9118800E+02  0.7818608E-02  0.1130116E+00
         25   -1    0    0    0    0  0.00000000000E+00  0.00000000000E+00  0.99999998245E-14  0.12500000000E+03  0.12500000000E+03 0.  0.
        -13    1    3    3    0    0 -0.51346437320E+01 -0.37087767765E+02  0.12660470402E+02  0.39524242673E+02  0.10566000000E+00 0. -1.
         23    2    1    0    0    0  0.24970032749E+02  0.70502371096E+01 -0.95058512700E+01  0.97367237070E+02  0.93363854180E+02 0.  0.
         13    1    3    3    0    0  0.30104676481E+02  0.44138004874E+02 -0.22166321672E+02  0.57842994397E+02  0.10566000000E+00 0.  1.
         22    1    1    0    0    0 -0.24970032749E+02 -0.70502371096E+01  0.95058512700E+01  0.27632762930E+02  0.00000000000E+00 0.  1.
</event>
<event>
 5    1  0.1319298E-009  0.9118800E+02  0.7818608E-02  0.1130116E+00
         25   -1    0    0    0    0  0.00000000000E+00  0.00000000000E+00  0.99999998245E-14  0.12500000000E+03  0.12500000000E+03 0.  0.
        -13    1    3    3    0    0  0.37947003879E+02  0.45511158888E+02  0.77405115702E+00  0.59260872471E+02  0.10566000000E+00 0.  1.
         23    2    1    0    0    0  0.21020474028E+02  0.17644504330E+02 -0.12971515426E+02  0.94644620347E+02  0.89644604337E+02 0.  0.
         13    1    3    3    0    0 -0.16926529852E+02 -0.27866654558E+02 -0.13745566583E+02  0.35383747877E+02  0.10566000000E+00 0. -1.
         22    1    1    0    0    0 -0.21020474028E+02 -0.17644504330E+02  0.12971515426E+02  0.30355379653E+02  0.00000000000E+00 0.  1.
</event>
<event>
 5    1  0.1319298E-009  0.9118800E+02  0.7818608E-02  0.1130116E+00
         25   -1    0    0    0    0  0.00000000000E+00  0.00000000000E+00  0.99999998245E-14  0.12500000000E+03  0.12500000000E+03 0.  0.
        -13    1    3    3    0    0 -0.64731489900E+01  0.22936701753E+02  0.42150782188E+02  0.48422035771E+02  0.10566000000E+00 0.  1.
         23    2    1    0    0    0  0.13015866534E+02  0.27700853552E+02  0.79988848052E+00  0.94383176345E+02  0.89279303796E+02 0.  0.
         13    1    3    3    0    0  0.19489015524E+02  0.47641517991E+01 -0.41350893707E+02  0.45961140574E+02  0.10566000000E+00 0. -1.
         22    1    1    0    0    0 -0.13015866534E+02 -0.27700853552E+02 -0.79988848052E+00  0.30616823655E+02  0.00000000000E+00 0.  1.
</event>
<event>
 5    1  0.1319298E-009  0.9118800E+02  0.7818608E-02  0.1130116E+00
         25   -1    0    0    0    0  0.00000000000E+00  0.00000000000E+00  0.99999998245E-14  0.12500000000E+03  0.12500000000E+03 0.  0.
        -13    1    3    3    0    0 -0.49089720236E+01  0.11979769168E+02  0.48883037786E+02  0.50568522056E+02  0.10566000000E+00 0.  1.
         23    2    1    0    0    0 -0.23522308664E+02  0.19700501828E+02  0.13094804545E+02  0.91640103669E+02  0.85352363279E+02 0.  0.
         13    1    3    3    0    0 -0.18613336640E+02  0.77207326590E+01 -0.35788233241E+02  0.41071581613E+02  0.10566000000E+00 0. -1.
         22    1    1    0    0    0  0.23522308664E+02 -0.19700501828E+02 -0.13094804545E+02  0.33359896331E+02  0.00000000000E+00 0. -1.
</event>
<event>
 5    1  0.1319298E-009  0.9118800E+02  0.7818608E-02  0.1130116E+00
         25   -1    0    0    0    0  0.00000000000E+00  0.00000000000E+00  0.99999998245E-14  0.12500000000E+03  0.12500000000E+03 0.  0.
        -13    1    3    3    0    0 -0.73080105605E+01 -0.40088877992E+02 -0.28735310502E+02  0.49862354444E+02  0.10566000000E+00 0. -1.
         23    2    1    0    0    0  0.12777566701E+02  0.80935560374E+00 -0.26602878486E+02  0.95476544731E+02  0.90797225634E+02 0.  0.
         13    1    3    3    0    0  0.20085577262E+02  0.40898233596E+02  0.21324320168E+01  0.45614190287E+02  0.10566000000E+00 0.  1.
         22    1    1    0    0    0 -0.12777566701E+02 -0.80935560374E+00  0.26602878486E+02  0.29523455269E+02  0.00000000000E+00 0. -1.
</event>
<event>
 5    1  0.1319298E-009  0.9118800E+02  0.7818608E-02  0.1130116E+00
         25   -1    0    0    0    0  0.00000000000E+00  0.00000000000E+00  0.99999998245E-14  0.12500000000E+03  0.12500000000E+03 0.  0.
        -13    1    3    3    0    0 -0.79075484161E+01  0.35959863011E+02  0.27578241909E+02  0.46002300601E+02  0.10566000000E+00 0. -1.
         23    2    1    0    0    0 -0.27286230671E+02  0.20457950616E+00 -0.39068465469E+01  0.97434737677E+02  0.93454183530E+02 0.  0.
         13    1    3    3    0    0 -0.19378682255E+02 -0.35755283505E+02 -0.31485088456E+02  0.51432437076E+02  0.10566000000E+00 0.  1.
         22    1    1    0    0    0  0.27286230671E+02 -0.20457950616E+00  0.39068465469E+01  0.27565262323E+02  0.00000000000E+00 0.  1.
</event>
<event>
 5    1  0.1319298E-009  0.9118800E+02  0.7818608E-02  0.1130116E+00
         25   -1    0    0    0    0  0.00000000000E+00  0.00000000000E+00  0.99999998245E-14  0.12500000000E+03  0.12500000000E+03 0.  0.
        -13    1    3    3    0    0  0.72030633403E+01 -0.14224832413E+02 -0.59822810713E+02  0.61911306111E+02  0.10566000000E+00 0. -1.
         23    2    1    0    0    0  0.12249520368E+01 -0.16853353208E+01 -0.31233370538E+02  0.93697215814E+02  0.88313667988E+02 0.  0.
         13    1    3    3    0    0 -0.59781113036E+01  0.12539497092E+02  0.28589440176E+02  0.31785909703E+02  0.10566000000E+00 0.  1.
         22    1    1    0    0    0 -0.12249520368E+01  0.16853353208E+01  0.31233370538E+02  0.31302784186E+02  0.00000000000E+00 0. -1.
</event>
<event>
 5    1  0.1319298E-009  0.9118800E+02  0.7818608E-02  0.1130116E+00
         25   -1    0    0    0    0  0.00000000000E+00  0.00000000000E+00  0.99999998245E-14  0.12500000000E+03  0.12500000000E+03 0.  0.
        -13    1    3    3    0    0  0.23732417705E+02 -0.31936257282E+02 -0.84018145705E+01  0.40666372243E+02  0.10566000000E+00 0. -1.
         23    2    1    0    0    0  0.18345373701E+02  0.15922432187E+02  0.17225083342E+02  0.95221147116E+02  0.90444937829E+02 0.  0.
         13    1    3    3    0    0 -0.53870440042E+01  0.47858689469E+02  0.25626897912E+02  0.54554774873E+02  0.10566000000E+00 0.  1.
         22    1    1    0    0    0 -0.18345373701E+02 -0.15922432187E+02 -0.17225083342E+02  0.29778852884E+02  0.00000000000E+00 0.  1.
</event>
<event>
 5    1  0.1319298E-009  0.9118800E+02  0.7818608E-02  0.1130116E+00
         25   -1    0    0    0    0  0.00000000000E+00  0.00000000000E+00  0.99999998245E-14  0.12500000000E+03  0.12500000000E+03 0.  0.
        -13    1    3    3    0    0 -0.89084414876E+00 -0.48732989979E+02  0.89568797758E+01  0.49557388702E+02  0.10566000000E+00 0. -1.
         23    2    1    0    0    0  0.86182582898E+01 -0.74422534144E+01  0.27065686539E+02  0.95636538017E+02  0.91017220921E+02 0.  0.
         13    1    3    3    0    0  0.95091024386E+01  0.41290736564E+02  0.18108806763E+02  0.46079149315E+02  0.10566000000E+00 0.  1.
         22    1    1    0    0    0 -0.86182582898E+01  0.74422534144E+01 -0.27065686539E+02  0.29363461983E+02  0.00000000000E+00 0. -1.
</event>
<event>
 5    1  0.1319298E-009  0.9118800E+02  0.7818608E-02  0.1130116E+00
         25   -1    0    0    0    0  0.00000000000E+00  0.00000000000E+00  0.99999998245E-14  0.12500000000E+03  0.12500000000E+03 0.  0.
        -13    1    3    3    0    0 -0.14441797584E+02  0.35884354475E+02 -0.48449934882E+02  0.61997256130E+02  0.10566000000E+00 0. -1.
         23    2    1    0    0    0 -0.29710377505E+01  0.20665701289E+02 -0.21245100636E+02  0.95213214740E+02  0.90433974174E+02 0.  0.
         13    1    3    3    0    0  0.11470759834E+02 -0.15218653186E+02  0.27204834246E+02  0.33215958609E+02  0.10566000000E+00 0.  1.
         22    1    1    0    0    0  0.29710377505E+01 -0.20665701289E+02  0.21245100636E+02  0.29786785260E+02  0.00000000000E+00 0. -1.
</event>
<event>
 5    1  0.1319298E-009  0.9118800E+02  0.7818608E-02  0.1130116E+00
         25   -1    0    0    0    0  0.00000000000E+00  0.00000000000E+00  0.99999998245E-14  0.12500000000E+03  0.12500000000E+03 0.  0.
        -13    1    3    3    0    0  0.13303107011E+02  0.16873322914E+02  0.25559991915E+02  0.33391706052E+02  0.10566000000E+00 0.  1.
         23    2    1    0    0    0 -0.38478388212E+01 -0.19250571321E+02 -0.21990394680E+02  0.95521739909E+02  0.90859424262E+02 0.  0.
         13    1    3    3    0    0 -0.17150945832E+02 -0.36123894235E+02 -0.47550386596E+02  0.62130033857E+02  0.10566000000E+00 0. -1.
         22    1    1    0    0    0  0.38478388212E+01  0.19250571321E+02  0.21990394680E+02  0.29478260091E+02  0.00000000000E+00 0. -1.
</event>
<event>
 5    1  0.1319298E-009  0.9118800E+02  0.7818608E-02  0.1130116E+00
         25   -1    0    0    0    0  0.00000000000E+00  0.00000000000E+00  0.99999998245E-14  0.12500000000E+03  0.12500000000E+03 0.  0.
        -13    1    3    3    0    0  0.10323392978E+02  0.93102675795E+01  0.29181327973E+02  0.32323591869E+02  0.10566000000E+00 0. -1.
         23    2    1    0    0    0 -0.13010579367E+02 -0.20972592601E+02 -0.19016983168E+02  0.93842810386E+02  0.88519504045E+02 0.  0.
         13    1    3    3    0    0 -0.23333972345E+02 -0.30282860181E+02 -0.48198311140E+02  0.61519218517E+02  0.10566000000E+00 0.  1.
         22    1    1    0    0    0  0.13010579367E+02  0.20972592601E+02  0.19016983168E+02  0.31157189614E+02  0.00000000000E+00 0.  1.
</event>
<event>
 5    1  0.1319298E-009  0.9118800E+02  0.7818608E-02  0.1130116E+00
         25   -1    0    0    0    0  0.00000000000E+00  0.00000000000E+00  0.99999998245E-14  0.12500000000E+03  0.12500000000E+03 0.  0.
        -13    1    3    3    0    0  0.26672446480E+02 -0.40625738870E+02  0.37711930778E+02  0.61514802666E+02  0.10566000000E+00 0.  1.
         23    2    1    0    0    0  0.84200426241E+01 -0.24843101470E+02  0.14353824196E+02  0.95098343232E+02  0.90275056399E+02 0.  0.
         13    1    3    3    0    0 -0.18252403856E+02  0.15782637400E+02 -0.23358106582E+02  0.33583540566E+02  0.10566000000E+00 0. -1.
         22    1    1    0    0    0 -0.84200426241E+01  0.24843101470E+02 -0.14353824196E+02  0.29901656768E+02  0.00000000000E+00 0.  1.
</event>
<event>
 5    1  0.1319298E-009  0.9118800E+02  0.7818608E-02  0.1130116E+00
         25   -1    0    0    0    0  0.00000000000E+00  0.00000000000E+00  0.99999998245E-14  0.12500000000E+03  0.12500000000E+03 0.  0.
        -13    1    3    3    0    0  0.58195030615E+02  0.12864154415E+01 -0.70849564511E+01  0.58638930967E+02  0.10566000000E+00 0. -1.
         23    2    1    0    0    0  0.27633218696E+02  0.29033342060E+01  0.12029566265E+02  0.94722374771E+02  0.89752959242E+02 0.  0.
         13    1    3    3    0    0 -0.30561811919E+02  0.16169187644E+01  0.19114522716E+02  0.36083443804E+02  0.10566000000E+00 0.  1.
         22    1    1    0    0    0 -0.27633218696E+02 -0.29033342060E+01 -0.12029566265E+02  0.30277625229E+02  0.00000000000E+00 0. -1.
</event>
<event>
 5    1  0.1319298E-009  0.9118800E+02  0.7818608E-02  0.1130116E+00
         25   -1    0    0    0    0  0.00000000000E+00  0.00000000000E+00  0.99999998245E-14  0.12500000000E+03  0.12500000000E+03 0.  0.
        -13    1    3    3    0    0  0.15709561093E+02  0.77765242203E+01  0.24956956004E+02  0.30497958222E+02  0.10566000000E+00 0. -1.
         23    2    1    0    0    0 -0.21595685016E+02 -0.14784133900E+02 -0.19192771238E+02  0.92545313215E+02  0.86667919693E+02 0.  0.
         13    1    3    3    0    0 -0.37305246109E+02 -0.22560658121E+02 -0.44149727242E+02  0.62047354993E+02  0.10566000000E+00 0.  1.
         22    1    1    0    0    0  0.21595685016E+02  0.14784133900E+02  0.19192771238E+02  0.32454686785E+02  0.00000000000E+00 0.  1.
</event>
<event>
 5    1  0.1319298E-009  0.9118800E+02  0.7818608E-02  0.1130116E+00
         25   -1    0    0    0    0  0.00000000000E+00  0.00000000000E+00  0.99999998245E-14  0.12500000000E+03  0.12500000000E+03 0.  0.
        -13    1    3    3    0    0 -0.25477823095E+01 -0.26569465214E+02  0.19377149599E+02  0.32983522660E+02  0.10566000000E+00 0. -1.
         23    2    1    0    0    0  0.14681957795E+02  0.19231163162E+02 -0.18235255318E+02  0.94702771451E+02  0.89725653314E+02 0.  0.
         13    1    3    3    0    0  0.17229740104E+02  0.45800628376E+02 -0.37612404917E+02  0.61719248791E+02  0.10566000000E+00 0.  1.
         22    1    1    0    0    0 -0.14681957795E+02 -0.19231163162E+02  0.18235255318E+02  0.30297228549E+02  0.00000000000E+00 0.  1.
</event>
<event>
 5    1  0.1319298E-009  0.9118800E+02  0.7818608E-02  0.1130116E+00
         25   -1    0    0    0    0  0.00000000000E+00  0.00000000000E+00  0.99999998245E-14  0.12500000000E+03  0.12500000000E+03 0.  0.
        -13    1    3    3    0    0 -0.33867472832E+02  0.29934274289E+02 -0.33307327247E+01  0.45322968104E+02  0.10566000000E+00 0.  1.
         23    2    1    0    0    0  0.15457103980E+02  0.25755257278E+02  0.34260769552E+00  0.94960480680E+02  0.90083961780E+02 0.  0.
         13    1    3    3    0    0  0.49324576812E+02 -0.41790170104E+01  0.36733404202E+01  0.49637512576E+02  0.10566000000E+00 0. -1.
         22    1    1    0    0    0 -0.15457103980E+02 -0.25755257278E+02 -0.34260769552E+00  0.30039519320E+02  0.00000000000E+00 0. -1.
</event>
<event>
 5    1  0.1319298E-009  0.9118800E+02  0.7818608E-02  0.1130116E+00
         25   -1    0    0    0    0  0.00000000000E+00  0.00000000000E+00  0.99999998245E-14  0.12500000000E+03  0.12500000000E+03 0.  0.
        -13    1    3    3    0    0  0.20804914706E+02 -0.49450958936E+01 -0.51763822978E+02  0.56007169029E+02  0.10566000000E+00 0.  1.
         23    2    1    0    0    0  0.23233241493E+02  0.10788596703E+02 -0.16962879970E+02  0.94276773836E+02  0.89130205087E+02 0.  0.
         13    1    3    3    0    0  0.24283267867E+01  0.15733692597E+02  0.34800943008E+02  0.38269604806E+02  0.10566000000E+00 0. -1.
         22    1    1    0    0    0 -0.23233241493E+02 -0.10788596703E+02  0.16962879970E+02  0.30723226164E+02  0.00000000000E+00 0.  1.
</event>
<event>
 5    1  0.1319298E-009  0.9118800E+02  0.7818608E-02  0.1130116E+00
         25   -1    0    0    0    0  0.00000000000E+00  0.00000000000E+00  0.99999998245E-14  0.12500000000E+03  0.12500000000E+03 0.  0.
        -13    1    3    3    0    0  0.35802360197E+02  0.16007956575E+02 -0.42749278544E+02  0.58013581594E+02  0.10566000000E+00 0. -1.
         23    2    1    0    0    0  0.27026509357E+02 -0.47429854952E+01 -0.15100604901E+02  0.93679776696E+02  0.88288981046E+02 0.  0.
         13    1    3    3    0    0 -0.87758508395E+01 -0.20750942070E+02  0.27648673643E+02  0.35666195102E+02  0.10566000000E+00 0.  1.
         22    1    1    0    0    0 -0.27026509357E+02  0.47429854952E+01  0.15100604901E+02  0.31320223304E+02  0.00000000000E+00 0. -1.
</event>
<event>
 5    1  0.1319298E-009  0.9118800E+02  0.7818608E-02  0.1130116E+00
         25   -1    0    0    0    0  0.00000000000E+00  0.00000000000E+00  0.99999998245E-14  0.12500000000E+03  0.12500000000E+03 0.  0.
        -13    1    3    3    0    0  0.35780144282E+02 -0.28586062160E+02 -0.61926153295E+01  0.46214081440E+02  0.10566000000E+00 0.  1.
         23    2    1    0    0    0 -0.76846443141E+01 -0.33467007623E+02 -0.69824383682E+01  0.89959326448E+02  0.82854279382E+02 0.  0.
         13    1    3    3    0    0 -0.43464788596E+02 -0.48809454625E+01 -0.78982303872E+00  0.43745245008E+02  0.10566000000E+00 0. -1.
         22    1    1    0    0    0  0.76846443141E+01  0.33467007623E+02  0.69824383682E+01  0.35040673552E+02  0.00000000000E+00 0.  1.
</event>
<event>
 5    1  0.1319298E-009  0.9118800E+02  0.7818608E-02  0.1130116E+00
         25   -1    0    0    0    0  0.00000000000E+00  0.00000000000E+00  0.99999998245E-14  0.12500000000E+03  0.12500000000E+03 0.  0.
        -13    1    3    3    0    0  0.25294429573E+02 -0.10720277089E+02  0.33467101112E+02  0.43298851361E+02  0.10566000000E+00 0.  1.
         23    2    1    0    0    0  0.10932606924E+02 -0.15121233697E+02 -0.19295493469E+02  0.98158061342E+02  0.94416711103E+02 0.  0.
         13    1    3    3    0    0 -0.14361822649E+02 -0.44009566076E+01 -0.52762594581E+02  0.54859209982E+02  0.10566000000E+00 0. -1.
         22    1    1    0    0    0 -0.10932606924E+02  0.15121233697E+02  0.19295493469E+02  0.26841938658E+02  0.00000000000E+00 0.  1.
</event>
<event>
 5    1  0.1319298E-009  0.9118800E+02  0.7818608E-02  0.1130116E+00
         25   -1    0    0    0    0  0.00000000000E+00  0.00000000000E+00  0.99999998245E-14  0.12500000000E+03  0.12500000000E+03 0.  0.
        -13    1    3    3    0    0 -0.25994614367E+02  0.47811556417E+02  0.85699166905E+01  0.55091919001E+02  0.10566000000E+00 0. -1.
         23    2    1    0    0    0 -0.53016786609E+01  0.15334939494E+02  0.23541267245E+02  0.96408752573E+02  0.92071646793E+02 0.  0.
         13    1    3    3    0    0  0.20692935706E+02 -0.32476616923E+02  0.14971350555E+02  0.41316833572E+02  0.10566000000E+00 0.  1.
         22    1    1    0    0    0  0.53016786609E+01 -0.15334939494E+02 -0.23541267245E+02  0.28591247427E+02  0.00000000000E+00 0. -1.
</event>
<event>
 5    1  0.1319298E-009  0.9118800E+02  0.7818608E-02  0.1130116E+00
         25   -1    0    0    0    0  0.00000000000E+00  0.00000000000E+00  0.99999998245E-14  0.12500000000E+03  0.12500000000E+03 0.  0.
        -13    1    3    3    0    0 -0.44344354744E+02  0.17755166959E+02  0.16786603119E+02  0.50630711625E+02  0.10566000000E+00 0. -1.
         23    2    1    0    0    0 -0.21152695324E+02 -0.19209508900E+02  0.37030967953E+01  0.96187595076E+02  0.91770903717E+02 0.  0.
         13    1    3    3    0    0  0.23191659419E+02 -0.36964675859E+02 -0.13083506324E+02  0.45556883451E+02  0.10566000000E+00 0.  1.
         22    1    1    0    0    0  0.21152695324E+02  0.19209508900E+02 -0.37030967953E+01  0.28812404924E+02  0.00000000000E+00 0. -1.
</event>
<event>
 5    1  0.1319298E-009  0.9118800E+02  0.7818608E-02  0.1130116E+00
         25   -1    0    0    0    0  0.00000000000E+00  0.00000000000E+00  0.99999998245E-14  0.12500000000E+03  0.12500000000E+03 0.  0.
        -13    1    3    3    0    0 -0.23897959310E+01 -0.39738836530E+02 -0.11416575515E+02  0.41415403099E+02  0.10566000000E+00 0.  1.
         23    2    1    0    0    0 -0.26594128596E+01  0.12449669824E+02 -0.26381180931E+02  0.95707791774E+02  0.91115025892E+02 0.  0.
         13    1    3    3    0    0 -0.26961692857E+00  0.52188506354E+02 -0.14964605415E+02  0.54292388675E+02  0.10566000000E+00 0. -1.
         22    1    1    0    0    0  0.26594128596E+01 -0.12449669824E+02  0.26381180931E+02  0.29292208226E+02  0.00000000000E+00 0. -1.
</event>
<event>
 5    1  0.1319298E-009  0.9118800E+02  0.7818608E-02  0.1130116E+00
         25   -1    0    0    0    0  0.00000000000E+00  0.00000000000E+00  0.99999998245E-14  0.12500000000E+03  0.12500000000E+03 0.  0.
        -13    1    3    3    0    0  0.25764004831E+02 -0.34908773117E+01 -0.29829785106E+02  0.39570158110E+02  0.10566000000E+00 0. -1.
         23    2    1    0    0    0 -0.25287364068E+02 -0.12305882307E+02 -0.12771180540E+02  0.94113294555E+02  0.88900639136E+02 0.  0.
         13    1    3    3    0    0 -0.51051368899E+02 -0.88150049954E+01  0.17058604566E+02  0.54543136445E+02  0.10566000000E+00 0.  1.
         22    1    1    0    0    0  0.25287364068E+02  0.12305882307E+02  0.12771180540E+02  0.30886705445E+02  0.00000000000E+00 0.  1.
</event>
<event>
 5    1  0.1319298E-009  0.9118800E+02  0.7818608E-02  0.1130116E+00
         25   -1    0    0    0    0  0.00000000000E+00  0.00000000000E+00  0.99999998245E-14  0.12500000000E+03  0.12500000000E+03 0.  0.
        -13    1    3    3    0    0  0.20701681370E+01 -0.21438377705E+02  0.55494011198E+02  0.59527187719E+02  0.10566000000E+00 0. -1.
         23    2    1    0    0    0 -0.12621246916E+02 -0.10665067936E+02  0.26144253846E+02  0.94071670640E+02  0.88842093965E+02 0.  0.
         13    1    3    3    0    0 -0.14691415053E+02  0.10773309769E+02 -0.29349757353E+02  0.34544482922E+02  0.10566000000E+00 0.  1.
         22    1    1    0    0    0  0.12621246916E+02  0.10665067936E+02 -0.26144253846E+02  0.30928329360E+02  0.00000000000E+00 0. -1.
</event>
<event>
 5    1  0.1319298E-009  0.9118800E+02  0.7818608E-02  0.1130116E+00
         25   -1    0    0    0    0  0.00000000000E+00  0.00000000000E+00  0.99999998245E-14  0.12500000000E+03  0.12500000000E+03 0.  0.
        -13    1    3    3    0    0  0.19727879705E+02  0.44987433436E+02 -0.58197265321E+01  0.49466542084E+02  0.10566000000E+00 0.  1.
         23    2    1    0    0    0 -0.97712614588E+01  0.20160702926E+02  0.19254660111E+02  0.95458953489E+02  0.90773004645E+02 0.  0.
         13    1    3    3    0    0 -0.29499141164E+02 -0.24826730510E+02  0.25074386643E+02  0.45992411405E+02  0.10566000000E+00 0. -1.
         22    1    1    0    0    0  0.97712614588E+01 -0.20160702926E+02 -0.19254660111E+02  0.29541046511E+02  0.00000000000E+00 0.  1.
</event>
<event>
 5    1  0.1319298E-009  0.9118800E+02  0.7818608E-02  0.1130116E+00
         25   -1    0    0    0    0  0.00000000000E+00  0.00000000000E+00  0.99999998245E-14  0.12500000000E+03  0.12500000000E+03 0.  0.
        -13    1    3    3    0    0  0.96654679300E+01 -0.26260665812E+02 -0.43465240118E+02  0.51694120572E+02  0.10566000000E+00 0.  1.
         23    2    1    0    0    0 -0.15769155939E+02  0.57528508830E+01 -0.20194717102E+02  0.98739989126E+02  0.95184017994E+02 0.  0.
         13    1    3    3    0    0 -0.25434623869E+02  0.32013516695E+02  0.23270523016E+02  0.47045868554E+02  0.10566000000E+00 0. -1.
         22    1    1    0    0    0  0.15769155939E+02 -0.57528508830E+01  0.20194717102E+02  0.26260010874E+02  0.00000000000E+00 0.  1.
</event>
<event>
 5    1  0.1319298E-009  0.9118800E+02  0.7818608E-02  0.1130116E+00
         25   -1    0    0    0    0  0.00000000000E+00  0.00000000000E+00  0.99999998245E-14  0.12500000000E+03  0.12500000000E+03 0.  0.
        -13    1    3    3    0    0 -0.39313966722E+02 -0.35143316929E+02 -0.33469143623E+02  0.62456668524E+02  0.10566000000E+00 0.  1.
         23    2    1    0    0    0 -0.28761519239E+02 -0.26780640284E+02 -0.26315448038E+02  0.77703800486E+02  0.61651846052E+02 0.  0.
         13    1    3    3    0    0  0.10552447483E+02  0.83626766443E+01  0.71536955849E+01  0.15247131963E+02  0.10566000000E+00 0. -1.
         22    1    1    0    0    0  0.28761519239E+02  0.26780640284E+02  0.26315448038E+02  0.47296199514E+02  0.00000000000E+00 0.  1.
</event>
<event>
 5    1  0.1319298E-009  0.9118800E+02  0.7818608E-02  0.1130116E+00
         25   -1    0    0    0    0  0.00000000000E+00  0.00000000000E+00  0.99999998245E-14  0.12500000000E+03  0.12500000000E+03 0.  0.
        -13    1    3    3    0    0 -0.18166821543E+02  0.57983025808E+02  0.76466170511E+01  0.61241706403E+02  0.10566000000E+00 0.  1.
         23    2    1    0    0    0 -0.97042836075E+01  0.24561468233E+02  0.12000933097E+02  0.95992048723E+02  0.91504164828E+02 0.  0.
         13    1    3    3    0    0  0.84625379357E+01 -0.33421557575E+02  0.43543160462E+01  0.34750342320E+02  0.10566000000E+00 0. -1.
         22    1    1    0    0    0  0.97042836075E+01 -0.24561468233E+02 -0.12000933097E+02  0.29007951277E+02  0.00000000000E+00 0.  1.
</event>
<event>
 5    1  0.1319298E-009  0.9118800E+02  0.7818608E-02  0.1130116E+00
         25   -1    0    0    0    0  0.00000000000E+00  0.00000000000E+00  0.99999998245E-14  0.12500000000E+03  0.12500000000E+03 0.  0.
        -13    1    3    3    0    0  0.20850707606E+02  0.51144205237E+02 -0.27302339624E+02  0.61610962092E+02  0.10566000000E+00 0.  1.
         23    2    1    0    0    0  0.15232253595E+02  0.23283566255E+02 -0.77208327800E+01  0.96125144746E+02  0.91685801444E+02 0.  0.
         13    1    3    3    0    0 -0.56184540114E+01 -0.27860638982E+02  0.19581506844E+02  0.34514182654E+02  0.10566000000E+00 0. -1.
         22    1    1    0    0    0 -0.15232253595E+02 -0.23283566255E+02  0.77208327800E+01  0.28874855254E+02  0.00000000000E+00 0.  1.
</event>
<event>
 5    1  0.1319298E-009  0.9118800E+02  0.7818608E-02  0.1130116E+00
         25   -1    0    0    0    0  0.00000000000E+00  0.00000000000E+00  0.99999998245E-14  0.12500000000E+03  0.12500000000E+03 0.  0.
        -13    1    3    3    0    0 -0.11861642698E+02  0.18552606139E+02 -0.37381014165E+02  0.43384895368E+02  0.10566000000E+00 0. -1.
         23    2    1    0    0    0 -0.13355145344E+02 -0.24695076845E+02 -0.76047976456E+01  0.95913238840E+02  0.91396442545E+02 0.  0.
         13    1    3    3    0    0 -0.14935026456E+01 -0.43247682984E+02  0.29776216519E+02  0.52528343472E+02  0.10566000000E+00 0.  1.
         22    1    1    0    0    0  0.13355145344E+02  0.24695076845E+02  0.76047976456E+01  0.29086761160E+02  0.00000000000E+00 0.  1.
</event>
<event>
 5    1  0.1319298E-009  0.9118800E+02  0.7818608E-02  0.1130116E+00
         25   -1    0    0    0    0  0.00000000000E+00  0.00000000000E+00  0.99999998245E-14  0.12500000000E+03  0.12500000000E+03 0.  0.
        -13    1    3    3    0    0  0.77283897150E+00 -0.99996024422E+01  0.50462869503E+02  0.51449992143E+02  0.10566000000E+00 0.  1.
         23    2    1    0    0    0 -0.23539683740E+02  0.47716824031E+01  0.15988231721E+02  0.96146764184E+02  0.91715271607E+02 0.  0.
         13    1    3    3    0    0 -0.24312522711E+02  0.14771284845E+02 -0.34474637782E+02  0.44696772040E+02  0.10566000000E+00 0. -1.
         22    1    1    0    0    0  0.23539683740E+02 -0.47716824031E+01 -0.15988231721E+02  0.28853235816E+02  0.00000000000E+00 0.  1.
</event>
<event>
 5    1  0.1319298E-009  0.9118800E+02  0.7818608E-02  0.1130116E+00
         25   -1    0    0    0    0  0.00000000000E+00  0.00000000000E+00  0.99999998245E-14  0.12500000000E+03  0.12500000000E+03 0.  0.
        -13    1    3    3    0    0 -0.43303140863E+02 -0.31219017772E+02 -0.18276119293E+01  0.53414795784E+02  0.10566000000E+00 0.  1.
         23    2    1    0    0    0 -0.25884945207E+02  0.44891440339E+01  0.12830939308E+02  0.95762766785E+02  0.91190414498E+02 0.  0.
         13    1    3    3    0    0  0.17418195656E+02  0.35708161806E+02  0.14658551237E+02  0.42347971001E+02  0.10566000000E+00 0. -1.
         22    1    1    0    0    0  0.25884945207E+02 -0.44891440339E+01 -0.12830939308E+02  0.29237233215E+02  0.00000000000E+00 0. -1.
</event>
<event>
 5    1  0.1319298E-009  0.9118800E+02  0.7818608E-02  0.1130116E+00
         25   -1    0    0    0    0  0.00000000000E+00  0.00000000000E+00  0.99999998245E-14  0.12500000000E+03  0.12500000000E+03 0.  0.
        -13    1    3    3    0    0 -0.11473208439E+02  0.39250895472E+02  0.13339067461E+02  0.43014058074E+02  0.10566000000E+00 0. -1.
         23    2    1    0    0    0  0.18855614542E+02 -0.12838993561E+01  0.23698373750E+02  0.94688360062E+02  0.89705574050E+02 0.  0.
         13    1    3    3    0    0  0.30328822981E+02 -0.40534794828E+02  0.10359306290E+02  0.51674301988E+02  0.10566000000E+00 0.  1.
         22    1    1    0    0    0 -0.18855614542E+02  0.12838993561E+01 -0.23698373750E+02  0.30311639938E+02  0.00000000000E+00 0. -1.
</event>
<event>
 5    1  0.1319298E-009  0.9118800E+02  0.7818608E-02  0.1130116E+00
         25   -1    0    0    0    0  0.00000000000E+00  0.00000000000E+00  0.99999998245E-14  0.12500000000E+03  0.12500000000E+03 0.  0.
        -13    1    3    3    0    0  0.53672105199E+02  0.22012951227E+02  0.17622144361E+02  0.60628508427E+02  0.10566000000E+00 0.  1.
         23    2    1    0    0    0  0.20448167362E+02  0.89556976888E+01  0.17992723368E+02  0.96328234031E+02  0.91962266761E+02 0.  0.
         13    1    3    3    0    0 -0.33223937837E+02 -0.13057253538E+02  0.37057900754E+00  0.35699725604E+02  0.10566000000E+00 0. -1.
         22    1    1    0    0    0 -0.20448167362E+02 -0.89556976888E+01 -0.17992723368E+02  0.28671765969E+02  0.00000000000E+00 0.  1.
</event>
<event>
 5    1  0.1319298E-009  0.9118800E+02  0.7818608E-02  0.1130116E+00
         25   -1    0    0    0    0  0.00000000000E+00  0.00000000000E+00  0.99999998245E-14  0.12500000000E+03  0.12500000000E+03 0.  0.
        -13    1    3    3    0    0 -0.15603772289E+02 -0.34998368741E+02  0.29558522311E+01  0.38433211557E+02  0.10566000000E+00 0.  1.
         23    2    1    0    0    0  0.21329719107E+02  0.11220723952E+02 -0.98452797819E+01  0.98965578609E+02  0.95479812800E+02 0.  0.
         13    1    3    3    0    0  0.36933491395E+02  0.46219092693E+02 -0.12801132013E+02  0.60532367052E+02  0.10566000000E+00 0. -1.
         22    1    1    0    0    0 -0.21329719107E+02 -0.11220723952E+02  0.98452797819E+01  0.26034421391E+02  0.00000000000E+00 0. -1.
</event>
<event>
 5    1  0.1319298E-009  0.9118800E+02  0.7818608E-02  0.1130116E+00
         25   -1    0    0    0    0  0.00000000000E+00  0.00000000000E+00  0.99999998245E-14  0.12500000000E+03  0.12500000000E+03 0.  0.
        -13    1    3    3    0    0  0.24079385028E+02 -0.28855717753E+02 -0.39438222866E+01  0.37789338823E+02  0.10566000000E+00 0. -1.
         23    2    1    0    0    0  0.35797284347E+01  0.20341324424E+02  0.20028643330E+02  0.96229694325E+02  0.91828228673E+02 0.  0.
         13    1    3    3    0    0 -0.20499656593E+02  0.49197042177E+02  0.23972465617E+02  0.58440355502E+02  0.10566000000E+00 0.  1.
         22    1    1    0    0    0 -0.35797284347E+01 -0.20341324424E+02 -0.20028643330E+02  0.28770305675E+02  0.00000000000E+00 0.  1.
</event>
<event>
 5    1  0.1319298E-009  0.9118800E+02  0.7818608E-02  0.1130116E+00
         25   -1    0    0    0    0  0.00000000000E+00  0.00000000000E+00  0.99999998245E-14  0.12500000000E+03  0.12500000000E+03 0.  0.
        -13    1    3    3    0    0  0.10592657273E+02  0.10230223161E+02 -0.34254702287E+02  0.37286158918E+02  0.10566000000E+00 0.  1.
         23    2    1    0    0    0 -0.23036245720E+02  0.12086649427E+02  0.13475054237E+02  0.95702682752E+02  0.91108016596E+02 0.  0.
         13    1    3    3    0    0 -0.33628902993E+02  0.18564262652E+01  0.47729756524E+02  0.58416523834E+02  0.10566000000E+00 0. -1.
         22    1    1    0    0    0  0.23036245720E+02 -0.12086649427E+02 -0.13475054237E+02  0.29297317248E+02  0.00000000000E+00 0. -1.
</event>
<event>
 5    1  0.1319298E-009  0.9118800E+02  0.7818608E-02  0.1130116E+00
         25   -1    0    0    0    0  0.00000000000E+00  0.00000000000E+00  0.99999998245E-14  0.12500000000E+03  0.12500000000E+03 0.  0.
        -13    1    3    3    0    0  0.31614310322E+02 -0.43196765080E+02  0.33713082958E+01  0.53635827710E+02  0.10566000000E+00 0.  1.
         23    2    1    0    0    0  0.19569697428E+02 -0.83101608094E+01  0.21506629077E+02  0.94758192443E+02  0.89802829079E+02 0.  0.
         13    1    3    3    0    0 -0.12044612895E+02  0.34886604271E+02  0.18135320781E+02  0.41122364732E+02  0.10566000000E+00 0. -1.
         22    1    1    0    0    0 -0.19569697428E+02  0.83101608094E+01 -0.21506629077E+02  0.30241807557E+02  0.00000000000E+00 0. -1.
</event>
<event>
 5    1  0.1319298E-009  0.9118800E+02  0.7818608E-02  0.1130116E+00
         25   -1    0    0    0    0  0.00000000000E+00  0.00000000000E+00  0.99999998245E-14  0.12500000000E+03  0.12500000000E+03 0.  0.
        -13    1    3    3    0    0 -0.41785450453E+02  0.23915123426E+02 -0.15127752759E+02  0.50465999105E+02  0.10566000000E+00 0. -1.
         23    2    1    0    0    0 -0.23664341612E+02 -0.22799218336E+01  0.17051211511E+02  0.95743497791E+02  0.91163997542E+02 0.  0.
         13    1    3    3    0    0  0.18121108841E+02 -0.26195045260E+02  0.32178964270E+02  0.45277498687E+02  0.10566000000E+00 0.  1.
         22    1    1    0    0    0  0.23664341612E+02  0.22799218336E+01 -0.17051211511E+02  0.29256502209E+02  0.00000000000E+00 0. -1.
</event>
<event>
 5    1  0.1319298E-009  0.9118800E+02  0.7818608E-02  0.1130116E+00
         25   -1    0    0    0    0  0.00000000000E+00  0.00000000000E+00  0.99999998245E-14  0.12500000000E+03  0.12500000000E+03 0.  0.
        -13    1    3    3    0    0 -0.22404617449E+02 -0.18418820940E+02  0.27944365183E+02  0.40275532986E+02  0.10566000000E+00 0. -1.
         23    2    1    0    0    0 -0.17758512841E+02  0.22150515719E+02 -0.88711271673E+01  0.95255975018E+02  0.90493059150E+02 0.  0.
         13    1    3    3    0    0  0.46461046075E+01  0.40569336658E+02 -0.36815492350E+02  0.54980442031E+02  0.10566000000E+00 0.  1.
         22    1    1    0    0    0  0.17758512841E+02 -0.22150515719E+02  0.88711271673E+01  0.29744024982E+02  0.00000000000E+00 0.  1.
</event>
<event>
 5    1  0.1319298E-009  0.9118800E+02  0.7818608E-02  0.1130116E+00
         25   -1    0    0    0    0  0.00000000000E+00  0.00000000000E+00  0.99999998245E-14  0.12500000000E+03  0.12500000000E+03 0.  0.
        -13    1    3    3    0    0 -0.36316283359E+02  0.11008958267E+02 -0.23574947514E+01  0.38021553686E+02  0.10566000000E+00 0. -1.
         23    2    1    0    0    0  0.60835380719E+01 -0.12648264621E+02 -0.28548137727E+02  0.93188300877E+02  0.87590383144E+02 0.  0.
         13    1    3    3    0    0  0.42399821431E+02 -0.23657222888E+02 -0.26190642976E+02  0.55166747191E+02  0.10566000000E+00 0.  1.
         22    1    1    0    0    0 -0.60835380719E+01  0.12648264621E+02  0.28548137727E+02  0.31811699123E+02  0.00000000000E+00 0. -1.
</event>
<event>
 5    1  0.1319298E-009  0.9118800E+02  0.7818608E-02  0.1130116E+00
         25   -1    0    0    0    0  0.00000000000E+00  0.00000000000E+00  0.99999998245E-14  0.12500000000E+03  0.12500000000E+03 0.  0.
        -13    1    3    3    0    0  0.44324302310E+02 -0.34650471314E+02 -0.21838320114E+02  0.60350827062E+02  0.10566000000E+00 0. -1.
         23    2    1    0    0    0  0.17685046259E+02 -0.10982984038E+02 -0.20153440313E+02  0.96025046057E+02  0.91549230003E+02 0.  0.
         13    1    3    3    0    0 -0.26639256051E+02  0.23667487276E+02  0.16848798013E+01  0.35674218995E+02  0.10566000000E+00 0.  1.
         22    1    1    0    0    0 -0.17685046259E+02  0.10982984038E+02  0.20153440313E+02  0.28974953943E+02  0.00000000000E+00 0. -1.
</event>
<event>
 5    1  0.1319298E-009  0.9118800E+02  0.7818608E-02  0.1130116E+00
         25   -1    0    0    0    0  0.00000000000E+00  0.00000000000E+00  0.99999998245E-14  0.12500000000E+03  0.12500000000E+03 0.  0.
        -13    1    3    3    0    0 -0.80550319603E+01 -0.41835624921E+02 -0.10402675692E+02  0.43855785000E+02  0.10566000000E+00 0.  1.
         23    2    1    0    0    0  0.19639808038E+02  0.66669295826E+01 -0.14242360034E+02  0.99840214048E+02  0.96618080668E+02 0.  0.
         13    1    3    3    0    0  0.27694839998E+02  0.48502554503E+02 -0.38396843412E+01  0.55984429047E+02  0.10566000000E+00 0. -1.
         22    1    1    0    0    0 -0.19639808038E+02 -0.66669295826E+01  0.14242360034E+02  0.25159785952E+02  0.00000000000E+00 0. -1.
</event>
<event>
 5    1  0.1319298E-009  0.9118800E+02  0.7818608E-02  0.1130116E+00
         25   -1    0    0    0    0  0.00000000000E+00  0.00000000000E+00  0.99999998245E-14  0.12500000000E+03  0.12500000000E+03 0.  0.
        -13    1    3    3    0    0  0.38078915385E+02  0.11042152910E+02 -0.94183089276E+01  0.40751056978E+02  0.10566000000E+00 0. -1.
         23    2    1    0    0    0 -0.23993870158E+01 -0.25390195097E+02 -0.14862736302E+02  0.95481870055E+02  0.90804556679E+02 0.  0.
         13    1    3    3    0    0 -0.40478302400E+02 -0.36432348007E+02 -0.54444273739E+01  0.54730813076E+02  0.10566000000E+00 0.  1.
         22    1    1    0    0    0  0.23993870158E+01  0.25390195097E+02  0.14862736302E+02  0.29518129945E+02  0.00000000000E+00 0.  1.
</event>
<event>
 5    1  0.1319298E-009  0.9118800E+02  0.7818608E-02  0.1130116E+00
         25   -1    0    0    0    0  0.00000000000E+00  0.00000000000E+00  0.99999998245E-14  0.12500000000E+03  0.12500000000E+03 0.  0.
        -13    1    3    3    0    0  0.22327055359E+02  0.22039966795E+02 -0.50084883927E+02  0.59099613360E+02  0.10566000000E+00 0.  1.
         23    2    1    0    0    0  0.22732976857E+02  0.56171487646E+01 -0.16920833795E+02  0.96109599980E+02  0.91664606010E+02 0.  0.
         13    1    3    3    0    0  0.40592149843E+00 -0.16422818031E+02  0.33164050132E+02  0.37009986619E+02  0.10566000000E+00 0. -1.
         22    1    1    0    0    0 -0.22732976857E+02 -0.56171487646E+01  0.16920833795E+02  0.28890400020E+02  0.00000000000E+00 0.  1.
</event>
<event>
 5    1  0.1319298E-009  0.9118800E+02  0.7818608E-02  0.1130116E+00
         25   -1    0    0    0    0  0.00000000000E+00  0.00000000000E+00  0.99999998245E-14  0.12500000000E+03  0.12500000000E+03 0.  0.
        -13    1    3    3    0    0 -0.20233958142E+02 -0.51093782921E+02  0.13341641572E+02  0.56550846847E+02  0.10566000000E+00 0. -1.
         23    2    1    0    0    0  0.88271843352E+01 -0.26152359789E+02  0.12085752314E+02  0.94868114649E+02  0.89955703889E+02 0.  0.
         13    1    3    3    0    0  0.29061142478E+02  0.24941423131E+02 -0.12558892579E+01  0.38317267802E+02  0.10566000000E+00 0.  1.
         22    1    1    0    0    0 -0.88271843352E+01  0.26152359789E+02 -0.12085752314E+02  0.30131885351E+02  0.00000000000E+00 0. -1.
</event>
<event>
 5    1  0.1319298E-009  0.9118800E+02  0.7818608E-02  0.1130116E+00
         25   -1    0    0    0    0  0.00000000000E+00  0.00000000000E+00  0.99999998245E-14  0.12500000000E+03  0.12500000000E+03 0.  0.
        -13    1    3    3    0    0  0.42939925634E+02 -0.25068416640E+02  0.11953585949E+02  0.51138655705E+02  0.10566000000E+00 0.  1.
         23    2    1    0    0    0  0.26303938671E+02  0.13507812506E+02 -0.18865227887E+01  0.95370333169E+02  0.90650886881E+02 0.  0.
         13    1    3    3    0    0 -0.16635986963E+02  0.38576229145E+02 -0.13840108738E+02  0.44231677463E+02  0.10566000000E+00 0. -1.
         22    1    1    0    0    0 -0.26303938671E+02 -0.13507812506E+02  0.18865227887E+01  0.29629666831E+02  0.00000000000E+00 0.  1.
</event>
<event>
 5    1  0.1319298E-009  0.9118800E+02  0.7818608E-02  0.1130116E+00
         25   -1    0    0    0    0  0.00000000000E+00  0.00000000000E+00  0.99999998245E-14  0.12500000000E+03  0.12500000000E+03 0.  0.
        -13    1    3    3    0    0 -0.44182384883E+02 -0.13264391527E+02 -0.35760886002E+02  0.58368479064E+02  0.10566000000E+00 0.  1.
         23    2    1    0    0    0 -0.19844471095E+02  0.10283661424E+02 -0.13741690293E+02  0.98762797835E+02  0.95213966722E+02 0.  0.
         13    1    3    3    0    0  0.24337913788E+02  0.23548052951E+02  0.22019195709E+02  0.40394318772E+02  0.10566000000E+00 0. -1.
         22    1    1    0    0    0  0.19844471095E+02 -0.10283661424E+02  0.13741690293E+02  0.26237202165E+02  0.00000000000E+00 0.  1.
</event>
<event>
 5    1  0.1319298E-009  0.9118800E+02  0.7818608E-02  0.1130116E+00
         25   -1    0    0    0    0  0.00000000000E+00  0.00000000000E+00  0.99999998245E-14  0.12500000000E+03  0.12500000000E+03 0.  0.
        -13    1    3    3    0    0  0.47466372534E+01 -0.51371989256E+02 -0.86378303597E+01  0.52309034810E+02  0.10566000000E+00 0.  1.
         23    2    1    0    0    0  0.18835898737E+02 -0.10503267052E+02 -0.18427655048E+02  0.96632973886E+02  0.92375556678E+02 0.  0.
         13    1    3    3    0    0  0.14089261483E+02  0.40868722204E+02 -0.97898246882E+01  0.44323939076E+02  0.10566000000E+00 0. -1.
         22    1    1    0    0    0 -0.18835898737E+02  0.10503267052E+02  0.18427655048E+02  0.28367026114E+02  0.00000000000E+00 0.  1.
</event>
<event>
 5    1  0.1319298E-009  0.9118800E+02  0.7818608E-02  0.1130116E+00
         25   -1    0    0    0    0  0.00000000000E+00  0.00000000000E+00  0.99999998245E-14  0.12500000000E+03  0.12500000000E+03 0.  0.
        -13    1    3    3    0    0 -0.18278681426E+02 -0.26977751206E+01 -0.31939522642E+02  0.36898949252E+02  0.10566000000E+00 0.  1.
         23    2    1    0    0    0 -0.10766550723E+02 -0.13306951781E+02  0.24665181758E+02  0.94977262428E+02  0.90107245030E+02 0.  0.
         13    1    3    3    0    0  0.75121307030E+01 -0.10609176660E+02  0.56604704400E+02  0.58078313176E+02  0.10566000000E+00 0. -1.
         22    1    1    0    0    0  0.10766550723E+02  0.13306951781E+02 -0.24665181758E+02  0.30022737572E+02  0.00000000000E+00 0. -1.
</event>
<event>
 5    1  0.1319298E-009  0.9118800E+02  0.7818608E-02  0.1130116E+00
         25   -1    0    0    0    0  0.00000000000E+00  0.00000000000E+00  0.99999998245E-14  0.12500000000E+03  0.12500000000E+03 0.  0.
        -13    1    3    3    0    0  0.43440146597E+02  0.42213577925E+02  0.13494026049E+02  0.62057492703E+02  0.10566000000E+00 0. -1.
         23    2    1    0    0    0  0.16910745509E+02  0.23282172392E+02  0.82221752841E+01  0.95072804486E+02  0.90239687064E+02 0.  0.
         13    1    3    3    0    0 -0.26529401088E+02 -0.18931405533E+02 -0.52718507649E+01  0.33015311782E+02  0.10566000000E+00 0.  1.
         22    1    1    0    0    0 -0.16910745509E+02 -0.23282172392E+02 -0.82221752841E+01  0.29927195514E+02  0.00000000000E+00 0. -1.
</event>
<event>
 5    1  0.1319298E-009  0.9118800E+02  0.7818608E-02  0.1130116E+00
         25   -1    0    0    0    0  0.00000000000E+00  0.00000000000E+00  0.99999998245E-14  0.12500000000E+03  0.12500000000E+03 0.  0.
        -13    1    3    3    0    0 -0.41412538903E+02  0.37252218428E+02  0.26610225421E+02  0.61732012904E+02  0.10566000000E+00 0.  1.
         23    2    1    0    0    0 -0.14967620469E+02  0.22752325030E+02  0.12162667312E+02  0.95173360348E+02  0.90378869693E+02 0.  0.
         13    1    3    3    0    0  0.26444918434E+02 -0.14499893397E+02 -0.14447558109E+02  0.33441347444E+02  0.10566000000E+00 0. -1.
         22    1    1    0    0    0  0.14967620469E+02 -0.22752325030E+02 -0.12162667312E+02  0.29826639652E+02  0.00000000000E+00 0.  1.
</event>
<event>
 5    1  0.1319298E-009  0.9118800E+02  0.7818608E-02  0.1130116E+00
         25   -1    0    0    0    0  0.00000000000E+00  0.00000000000E+00  0.99999998245E-14  0.12500000000E+03  0.12500000000E+03 0.  0.
        -13    1    3    3    0    0  0.19259639286E+02  0.21500637220E+02 -0.25957465455E+02  0.38820256094E+02  0.10566000000E+00 0.  1.
         23    2    1    0    0    0  0.48358205486E+01 -0.28318729643E+02 -0.13174043655E+01  0.96241155043E+02  0.91843828104E+02 0.  0.
         13    1    3    3    0    0 -0.14423818738E+02 -0.49819366863E+02  0.24640061090E+02  0.57420898949E+02  0.10566000000E+00 0. -1.
         22    1    1    0    0    0 -0.48358205486E+01  0.28318729643E+02  0.13174043655E+01  0.28758844957E+02  0.00000000000E+00 0. -1.
</event>
<event>
 5    1  0.1319298E-009  0.9118800E+02  0.7818608E-02  0.1130116E+00
         25   -1    0    0    0    0  0.00000000000E+00  0.00000000000E+00  0.99999998245E-14  0.12500000000E+03  0.12500000000E+03 0.  0.
        -13    1    3    3    0    0 -0.42231325984E+02 -0.13529178044E+02  0.77736620912E-01  0.44345696070E+02  0.10566000000E+00 0. -1.
         23    2    1    0    0    0  0.83049969832E+01 -0.17531890485E+02  0.18412185212E+02  0.98253996127E+02  0.94543635596E+02 0.  0.
         13    1    3    3    0    0  0.50536322967E+02 -0.40027124416E+01  0.18334448591E+02  0.53908300057E+02  0.10566000000E+00 0.  1.
         22    1    1    0    0    0 -0.83049969832E+01  0.17531890485E+02 -0.18412185212E+02  0.26746003873E+02  0.00000000000E+00 0.  1.
</event>
<event>
 5    1  0.1319298E-009  0.9118800E+02  0.7818608E-02  0.1130116E+00
         25   -1    0    0    0    0  0.00000000000E+00  0.00000000000E+00  0.99999998245E-14  0.12500000000E+03  0.12500000000E+03 0.  0.
        -13    1    3    3    0    0 -0.16037499473E+02  0.24530473412E+02  0.25888286749E+02  0.39104476342E+02  0.10566000000E+00 0.  1.
         23    2    1    0    0    0 -0.19794668157E+02 -0.23989450681E+02  0.72659861575E+00  0.93889703039E+02  0.88585697264E+02 0.  0.
         13    1    3    3    0    0 -0.37571686840E+01 -0.48519924093E+02 -0.25161688133E+02  0.54785226697E+02  0.10566000000E+00 0. -1.
         22    1    1    0    0    0  0.19794668157E+02  0.23989450681E+02 -0.72659861575E+00  0.31110296961E+02  0.00000000000E+00 0. -1.
</event>
<event>
 5    1  0.1319298E-009  0.9118800E+02  0.7818608E-02  0.1130116E+00
         25   -1    0    0    0    0  0.00000000000E+00  0.00000000000E+00  0.99999998245E-14  0.12500000000E+03  0.12500000000E+03 0.  0.
        -13    1    3    3    0    0  0.14409197643E+02  0.57307421260E+02  0.38482975857E+01  0.59216434092E+02  0.10566000000E+00 0. -1.
         23    2    1    0    0    0  0.12127100513E+02  0.24722648536E+02 -0.11315027616E+02  0.95229112082E+02  0.90455945191E+02 0.  0.
         13    1    3    3    0    0 -0.22820971292E+01 -0.32584772725E+02 -0.15163325202E+02  0.36012677990E+02  0.10566000000E+00 0.  1.
         22    1    1    0    0    0 -0.12127100513E+02 -0.24722648536E+02  0.11315027616E+02  0.29770887918E+02  0.00000000000E+00 0. -1.
</event>
<event>
 5    1  0.1319298E-009  0.9118800E+02  0.7818608E-02  0.1130116E+00
         25   -1    0    0    0    0  0.00000000000E+00  0.00000000000E+00  0.99999998245E-14  0.12500000000E+03  0.12500000000E+03 0.  0.
        -13    1    3    3    0    0  0.36983235247E+02  0.41925963071E+02 -0.93156773702E+01  0.56677500630E+02  0.10566000000E+00 0. -1.
         23    2    1    0    0    0  0.24355923766E+02  0.17567795069E+01 -0.95346890146E+01  0.98785355404E+02  0.95243576428E+02 0.  0.
         13    1    3    3    0    0 -0.12627311481E+02 -0.40169183564E+02 -0.21901164443E+00  0.42107854773E+02  0.10566000000E+00 0.  1.
         22    1    1    0    0    0 -0.24355923766E+02 -0.17567795069E+01  0.95346890146E+01  0.26214644596E+02  0.00000000000E+00 0. -1.
</event>
<event>
 5    1  0.1319298E-009  0.9118800E+02  0.7818608E-02  0.1130116E+00
         25   -1    0    0    0    0  0.00000000000E+00  0.00000000000E+00  0.99999998245E-14  0.12500000000E+03  0.12500000000E+03 0.  0.
        -13    1    3    3    0    0 -0.37186374081E+02 -0.22197764744E+02 -0.19545002777E+02  0.47514055547E+02  0.10566000000E+00 0.  1.
         23    2    1    0    0    0 -0.21516407696E+02  0.19491767677E+02 -0.47169837357E+00  0.95963689858E+02  0.91465416768E+02 0.  0.
         13    1    3    3    0    0  0.15669966385E+02  0.41689532421E+02  0.19073304404E+02  0.48449634311E+02  0.10566000000E+00 0. -1.
         22    1    1    0    0    0  0.21516407696E+02 -0.19491767677E+02  0.47169837357E+00  0.29036310142E+02  0.00000000000E+00 0. -1.
</event>
<event>
 5    1  0.1319298E-009  0.9118800E+02  0.7818608E-02  0.1130116E+00
         25   -1    0    0    0    0  0.00000000000E+00  0.00000000000E+00  0.99999998245E-14  0.12500000000E+03  0.12500000000E+03 0.  0.
        -13    1    3    3    0    0  0.14076653496E+02 -0.13015097671E+02  0.30685592000E+02  0.36182339083E+02  0.10566000000E+00 0. -1.
         23    2    1    0    0    0 -0.23037904160E+02  0.20271686373E+02  0.81212764680E+00  0.94302347845E+02  0.89166063956E+02 0.  0.
         13    1    3    3    0    0 -0.37114557656E+02  0.33286784045E+02 -0.29873464354E+02  0.58120008763E+02  0.10566000000E+00 0.  1.
         22    1    1    0    0    0  0.23037904160E+02 -0.20271686373E+02 -0.81212764680E+00  0.30697652155E+02  0.00000000000E+00 0.  1.
</event>
<event>
 5    1  0.1319298E-009  0.9118800E+02  0.7818608E-02  0.1130116E+00
         25   -1    0    0    0    0  0.00000000000E+00  0.00000000000E+00  0.99999998245E-14  0.12500000000E+03  0.12500000000E+03 0.  0.
        -13    1    3    3    0    0  0.17023480699E+02 -0.34779331835E+02  0.63788640775E+01  0.39244131905E+02  0.10566000000E+00 0.  1.
         23    2    1    0    0    0  0.16036318225E+02  0.17059789464E+02 -0.16945574445E+02  0.96097536229E+02  0.91648153594E+02 0.  0.
         13    1    3    3    0    0 -0.98716247398E+00  0.51839121299E+02 -0.23324438523E+02  0.56853404324E+02  0.10566000000E+00 0. -1.
         22    1    1    0    0    0 -0.16036318225E+02 -0.17059789464E+02  0.16945574445E+02  0.28902463771E+02  0.00000000000E+00 0. -1.
</event>
<event>
 5    1  0.1319298E-009  0.9118800E+02  0.7818608E-02  0.1130116E+00
         25   -1    0    0    0    0  0.00000000000E+00  0.00000000000E+00  0.99999998245E-14  0.12500000000E+03  0.12500000000E+03 0.  0.
        -13    1    3    3    0    0 -0.25814847889E+01 -0.42365966932E+02 -0.43948118225E+02  0.61098179002E+02  0.10566000000E+00 0. -1.
         23    2    1    0    0    0  0.72470969637E+01 -0.18529444985E+02 -0.24751250013E+02  0.93243345216E+02  0.87668901579E+02 0.  0.
         13    1    3    3    0    0  0.98285817526E+01  0.23836521947E+02  0.19196868212E+02  0.32145166215E+02  0.10566000000E+00 0.  1.
         22    1    1    0    0    0 -0.72470969637E+01  0.18529444985E+02  0.24751250013E+02  0.31756654784E+02  0.00000000000E+00 0. -1.
</event>
<event>
 5    1  0.1319298E-009  0.9118800E+02  0.7818608E-02  0.1130116E+00
         25   -1    0    0    0    0  0.00000000000E+00  0.00000000000E+00  0.99999998245E-14  0.12500000000E+03  0.12500000000E+03 0.  0.
        -13    1    3    3    0    0  0.24915288296E+02 -0.17148968630E+02  0.20978266383E+02  0.36809747899E+02  0.10566000000E+00 0. -1.
         23    2    1    0    0    0  0.12620523906E+01  0.17979748810E+02 -0.21603043827E+02  0.96865401263E+02  0.92689537251E+02 0.  0.
         13    1    3    3    0    0 -0.23653235905E+02  0.35128717439E+02 -0.42581310210E+02  0.60055653364E+02  0.10566000000E+00 0.  1.
         22    1    1    0    0    0 -0.12620523906E+01 -0.17979748810E+02  0.21603043827E+02  0.28134598737E+02  0.00000000000E+00 0.  1.
</event>
<event>
 5    1  0.1319298E-009  0.9118800E+02  0.7818608E-02  0.1130116E+00
         25   -1    0    0    0    0  0.00000000000E+00  0.00000000000E+00  0.99999998245E-14  0.12500000000E+03  0.12500000000E+03 0.  0.
        -13    1    3    3    0    0 -0.30506898621E+02  0.26553699440E+02  0.47297270644E+02  0.62231927432E+02  0.10566000000E+00 0. -1.
         23    2    1    0    0    0 -0.16813492253E+02  0.92231414958E+01  0.21891002473E+02  0.95897150482E+02  0.91374436362E+02 0.  0.
         13    1    3    3    0    0  0.13693406368E+02 -0.17330557945E+02 -0.25406268171E+02  0.33665223051E+02  0.10566000000E+00 0.  1.
         22    1    1    0    0    0  0.16813492253E+02 -0.92231414958E+01 -0.21891002473E+02  0.29102849518E+02  0.00000000000E+00 0. -1.
</event>
<event>
 5    1  0.1319298E-009  0.9118800E+02  0.7818608E-02  0.1130116E+00
         25   -1    0    0    0    0  0.00000000000E+00  0.00000000000E+00  0.99999998245E-14  0.12500000000E+03  0.12500000000E+03 0.  0.
        -13    1    3    3    0    0  0.84450079740E+01 -0.44314279929E+02 -0.84900676496E+01  0.45903877593E+02  0.10566000000E+00 0. -1.
         23    2    1    0    0    0 -0.89431434891E+01 -0.77351552973E+01 -0.30704289012E+02  0.92097632203E+02  0.86019811966E+02 0.  0.
         13    1    3    3    0    0 -0.17388151463E+02  0.36579124632E+02 -0.22214221362E+02  0.46193754610E+02  0.10566000000E+00 0.  1.
         22    1    1    0    0    0  0.89431434891E+01  0.77351552973E+01  0.30704289012E+02  0.32902367797E+02  0.00000000000E+00 0.  1.
</event>
<event>
 5    1  0.1319298E-009  0.9118800E+02  0.7818608E-02  0.1130116E+00
         25   -1    0    0    0    0  0.00000000000E+00  0.00000000000E+00  0.99999998245E-14  0.12500000000E+03  0.12500000000E+03 0.  0.
        -13    1    3    3    0    0 -0.12548325478E+02  0.58331215167E+02 -0.18048256973E+02  0.62335719126E+02  0.10566000000E+00 0.  1.
         23    2    1    0    0    0 -0.40622173498E+01  0.31082604627E+02 -0.74478352367E+01  0.92780438086E+02  0.87006376327E+02 0.  0.
         13    1    3    3    0    0  0.84861081284E+01 -0.27248610540E+02  0.10600421736E+02  0.30444718960E+02  0.10566000000E+00 0. -1.
         22    1    1    0    0    0  0.40622173498E+01 -0.31082604627E+02  0.74478352367E+01  0.32219561914E+02  0.00000000000E+00 0.  1.
</event>
<event>
 5    1  0.1319298E-009  0.9118800E+02  0.7818608E-02  0.1130116E+00
         25   -1    0    0    0    0  0.00000000000E+00  0.00000000000E+00  0.99999998245E-14  0.12500000000E+03  0.12500000000E+03 0.  0.
        -13    1    3    3    0    0  0.24111698626E+02  0.23206858224E+02 -0.84991314240E+01  0.34527940545E+02  0.10566000000E+00 0. -1.
         23    2    1    0    0    0 -0.29067009285E+01 -0.25037940533E+02  0.16145265794E+02  0.95066457209E+02  0.90230894390E+02 0.  0.
         13    1    3    3    0    0 -0.27018399555E+02 -0.48244798757E+02  0.24644397218E+02  0.60538516664E+02  0.10566000000E+00 0.  1.
         22    1    1    0    0    0  0.29067009285E+01  0.25037940533E+02 -0.16145265794E+02  0.29933542791E+02  0.00000000000E+00 0.  1.
</event>
<event>
 5    1  0.1319298E-009  0.9118800E+02  0.7818608E-02  0.1130116E+00
         25   -1    0    0    0    0  0.00000000000E+00  0.00000000000E+00  0.99999998245E-14  0.12500000000E+03  0.12500000000E+03 0.  0.
        -13    1    3    3    0    0  0.21198606733E+01 -0.34504352727E+00 -0.42743857763E+02  0.42797913556E+02  0.10566000000E+00 0.  1.
         23    2    1    0    0    0  0.28826848797E+02 -0.39609428926E+01  0.28515519261E+01  0.95762906633E+02  0.91190606195E+02 0.  0.
         13    1    3    3    0    0  0.26706988124E+02 -0.36158993654E+01  0.45595409689E+02  0.52964993076E+02  0.10566000000E+00 0. -1.
         22    1    1    0    0    0 -0.28826848797E+02  0.39609428926E+01 -0.28515519261E+01  0.29237093367E+02  0.00000000000E+00 0. -1.
</event>
<event>
 5    1  0.1319298E-009  0.9118800E+02  0.7818608E-02  0.1130116E+00
         25   -1    0    0    0    0  0.00000000000E+00  0.00000000000E+00  0.99999998245E-14  0.12500000000E+03  0.12500000000E+03 0.  0.
        -13    1    3    3    0    0 -0.44921043664E+02 -0.30837425413E+02 -0.20239289248E+02  0.58124753447E+02  0.10566000000E+00 0. -1.
         23    2    1    0    0    0 -0.28112393378E+02 -0.20525256267E+01 -0.61449159990E+00  0.96806080038E+02  0.92609502804E+02 0.  0.
         13    1    3    3    0    0  0.16808650286E+02  0.28784899786E+02  0.19624797648E+02  0.38681326592E+02  0.10566000000E+00 0.  1.
         22    1    1    0    0    0  0.28112393378E+02  0.20525256267E+01  0.61449159990E+00  0.28193919962E+02  0.00000000000E+00 0. -1.
</event>
<event>
 5    1  0.1319298E-009  0.9118800E+02  0.7818608E-02  0.1130116E+00
         25   -1    0    0    0    0  0.00000000000E+00  0.00000000000E+00  0.99999998245E-14  0.12500000000E+03  0.12500000000E+03 0.  0.
        -13    1    3    3    0    0 -0.11336085733E+02  0.56447199398E+01 -0.27562884781E+02  0.30333042782E+02  0.10566000000E+00 0. -1.
         23    2    1    0    0    0  0.10326811105E+02  0.66129163011E+01  0.30400259229E+02  0.92219678910E+02  0.86196982125E+02 0.  0.
         13    1    3    3    0    0  0.21662896838E+02  0.96819636133E+00  0.57963144010E+02  0.61886636127E+02  0.10566000000E+00 0.  1.
         22    1    1    0    0    0 -0.10326811105E+02 -0.66129163011E+01 -0.30400259229E+02  0.32780321090E+02  0.00000000000E+00 0.  1.
</event>
<event>
 5    1  0.1319298E-009  0.9118800E+02  0.7818608E-02  0.1130116E+00
         25   -1    0    0    0    0  0.00000000000E+00  0.00000000000E+00  0.99999998245E-14  0.12500000000E+03  0.12500000000E+03 0.  0.
        -13    1    3    3    0    0  0.19255132448E+02  0.30929944876E+02 -0.10791970689E+01  0.36449930672E+02  0.10566000000E+00 0. -1.
         23    2    1    0    0    0  0.37138511380E+00 -0.26973712728E+02 -0.53260146640E+01  0.97502990391E+02  0.93545430662E+02 0.  0.
         13    1    3    3    0    0 -0.18883747334E+02 -0.57903657604E+02 -0.42468175951E+01  0.61053059719E+02  0.10566000000E+00 0.  1.
         22    1    1    0    0    0 -0.37138511380E+00  0.26973712728E+02  0.53260146640E+01  0.27497009609E+02  0.00000000000E+00 0.  1.
</event>
<event>
 5    1  0.1319298E-009  0.9118800E+02  0.7818608E-02  0.1130116E+00
         25   -1    0    0    0    0  0.00000000000E+00  0.00000000000E+00  0.99999998245E-14  0.12500000000E+03  0.12500000000E+03 0.  0.
        -13    1    3    3    0    0 -0.33101812946E+02 -0.97044685527E+00  0.18850725177E+02  0.38105548037E+02  0.10566000000E+00 0. -1.
         23    2    1    0    0    0  0.61910303988E+01  0.22816488284E+02 -0.16587705364E+02  0.96119678598E+02  0.91678348859E+02 0.  0.
         13    1    3    3    0    0  0.39292843345E+02  0.23786935140E+02 -0.35438430541E+02  0.58014130561E+02  0.10566000000E+00 0.  1.
         22    1    1    0    0    0 -0.61910303988E+01 -0.22816488284E+02  0.16587705364E+02  0.28880321402E+02  0.00000000000E+00 0.  1.
</event>
<event>
 5    1  0.1319298E-009  0.9118800E+02  0.7818608E-02  0.1130116E+00
         25   -1    0    0    0    0  0.00000000000E+00  0.00000000000E+00  0.99999998245E-14  0.12500000000E+03  0.12500000000E+03 0.  0.
        -13    1    3    3    0    0 -0.25837885958E+02 -0.16222323608E+02 -0.27744784752E+02  0.41237657293E+02  0.10566000000E+00 0. -1.
         23    2    1    0    0    0 -0.94996700477E+01  0.27339352492E+02  0.12014615414E+01  0.96032303586E+02  0.91559138793E+02 0.  0.
         13    1    3    3    0    0  0.16338215911E+02  0.43561676100E+02  0.28946246293E+02  0.54794646293E+02  0.10566000000E+00 0.  1.
         22    1    1    0    0    0  0.94996700477E+01 -0.27339352492E+02 -0.12014615414E+01  0.28967696414E+02  0.00000000000E+00 0.  1.
</event>
<event>
 5    1  0.1319298E-009  0.9118800E+02  0.7818608E-02  0.1130116E+00
         25   -1    0    0    0    0  0.00000000000E+00  0.00000000000E+00  0.99999998245E-14  0.12500000000E+03  0.12500000000E+03 0.  0.
        -13    1    3    3    0    0  0.15273128022E+02 -0.45121082918E+01  0.34700174270E+02  0.38180372172E+02  0.10566000000E+00 0.  1.
         23    2    1    0    0    0  0.16011290103E+02 -0.61717477164E+01 -0.23219112839E+02  0.96128230368E+02  0.91690008137E+02 0.  0.
         13    1    3    3    0    0  0.73816208129E+00 -0.16596394246E+01 -0.57919287109E+02  0.57947858196E+02  0.10566000000E+00 0. -1.
         22    1    1    0    0    0 -0.16011290103E+02  0.61717477164E+01  0.23219112839E+02  0.28871769632E+02  0.00000000000E+00 0. -1.
</event>
<event>
 5    1  0.1319298E-009  0.9118800E+02  0.7818608E-02  0.1130116E+00
         25   -1    0    0    0    0  0.00000000000E+00  0.00000000000E+00  0.99999998245E-14  0.12500000000E+03  0.12500000000E+03 0.  0.
        -13    1    3    3    0    0  0.15307706326E+02 -0.26019971301E+02 -0.45778059772E+02  0.54836180574E+02  0.10566000000E+00 0. -1.
         23    2    1    0    0    0  0.96612661063E+01 -0.26789398866E+02 -0.49078226800E+01  0.96101926053E+02  0.91654140732E+02 0.  0.
         13    1    3    3    0    0 -0.56464402195E+01 -0.76942756501E+00  0.40870237092E+02  0.41265745479E+02  0.10566000000E+00 0.  1.
         22    1    1    0    0    0 -0.96612661063E+01  0.26789398866E+02  0.49078226800E+01  0.28898073947E+02  0.00000000000E+00 0. -1.
</event>
<event>
 5    1  0.1319298E-009  0.9118800E+02  0.7818608E-02  0.1130116E+00
         25   -1    0    0    0    0  0.00000000000E+00  0.00000000000E+00  0.99999998245E-14  0.12500000000E+03  0.12500000000E+03 0.  0.
        -13    1    3    3    0    0  0.48987046470E+01 -0.43015151403E+02 -0.33307859927E+02  0.54623486289E+02  0.10566000000E+00 0. -1.
         23    2    1    0    0    0  0.11054335015E+02  0.49329202010E+01 -0.13504741770E+02  0.10686412190E+03  0.10531396144E+03 0.  0.
         13    1    3    3    0    0  0.61556303682E+01  0.47948071604E+02  0.19803118157E+02  0.52240635607E+02  0.10566000000E+00 0.  1.
         22    1    1    0    0    0 -0.11054335015E+02 -0.49329202010E+01  0.13504741770E+02  0.18135878104E+02  0.00000000000E+00 0.  1.
</event>
<event>
 5    1  0.1319298E-009  0.9118800E+02  0.7818608E-02  0.1130116E+00
         25   -1    0    0    0    0  0.00000000000E+00  0.00000000000E+00  0.99999998245E-14  0.12500000000E+03  0.12500000000E+03 0.  0.
        -13    1    3    3    0    0 -0.21013416719E+02 -0.24299248656E+02  0.49456228380E+02  0.58974120231E+02  0.10566000000E+00 0.  1.
         23    2    1    0    0    0 -0.14792767901E+02  0.26291859366E+01  0.24758630352E+02  0.96039192384E+02  0.91568543157E+02 0.  0.
         13    1    3    3    0    0  0.62206488179E+01  0.26928434593E+02 -0.24697598027E+02  0.37065072153E+02  0.10566000000E+00 0. -1.
         22    1    1    0    0    0  0.14792767901E+02 -0.26291859366E+01 -0.24758630352E+02  0.28960807616E+02  0.00000000000E+00 0.  1.
</event>
<event>
 5    1  0.1319298E-009  0.9118800E+02  0.7818608E-02  0.1130116E+00
         25   -1    0    0    0    0  0.00000000000E+00  0.00000000000E+00  0.99999998245E-14  0.12500000000E+03  0.12500000000E+03 0.  0.
        -13    1    3    3    0    0  0.21074346044E+02  0.64141617695E+00 -0.18506584842E+02  0.28054310229E+02  0.10566000000E+00 0. -1.
         23    2    1    0    0    0 -0.28329556768E+02 -0.24652372548E+02  0.24133600145E+01  0.87368529586E+02  0.78848794516E+02 0.  0.
         13    1    3    3    0    0 -0.49403902812E+02 -0.25293788725E+02  0.20919944856E+02  0.59314219357E+02  0.10566000000E+00 0.  1.
         22    1    1    0    0    0  0.28329556768E+02  0.24652372548E+02 -0.24133600145E+01  0.37631470414E+02  0.00000000000E+00 0.  1.
</event>
<event>
 5    1  0.1319298E-009  0.9118800E+02  0.7818608E-02  0.1130116E+00
         25   -1    0    0    0    0  0.00000000000E+00  0.00000000000E+00  0.99999998245E-14  0.12500000000E+03  0.12500000000E+03 0.  0.
        -13    1    3    3    0    0 -0.16140844167E+02 -0.24818733373E+02 -0.39548135960E+02  0.49402050551E+02  0.10566000000E+00 0. -1.
         23    2    1    0    0    0 -0.11732068656E+02  0.16963386464E+02 -0.21735196915E+02  0.95036410425E+02  0.90189259927E+02 0.  0.
         13    1    3    3    0    0  0.44087755117E+01  0.41782119838E+02  0.17812939045E+02  0.45634359874E+02  0.10566000000E+00 0.  1.
         22    1    1    0    0    0  0.11732068656E+02 -0.16963386464E+02  0.21735196915E+02  0.29963589575E+02  0.00000000000E+00 0.  1.
</event>
<event>
 5    1  0.1319298E-009  0.9118800E+02  0.7818608E-02  0.1130116E+00
         25   -1    0    0    0    0  0.00000000000E+00  0.00000000000E+00  0.99999998245E-14  0.12500000000E+03  0.12500000000E+03 0.  0.
        -13    1    3    3    0    0 -0.40339075118E+02  0.21486957029E+02 -0.17026725398E+01  0.45736643532E+02  0.10566000000E+00 0.  1.
         23    2    1    0    0    0 -0.36332397079E+01 -0.15554049896E+01 -0.28193541255E+02  0.96530797623E+02  0.92237191012E+02 0.  0.
         13    1    3    3    0    0  0.36705835410E+02 -0.23042362018E+02 -0.26490868715E+02  0.50794154092E+02  0.10566000000E+00 0. -1.
         22    1    1    0    0    0  0.36332397079E+01  0.15554049896E+01  0.28193541255E+02  0.28469202377E+02  0.00000000000E+00 0. -1.
</event>
<event>
 5    1  0.1319298E-009  0.9118800E+02  0.7818608E-02  0.1130116E+00
         25   -1    0    0    0    0  0.00000000000E+00  0.00000000000E+00  0.99999998245E-14  0.12500000000E+03  0.12500000000E+03 0.  0.
        -13    1    3    3    0    0  0.44861490561E+02 -0.96897256382E+01  0.16004155215E+01  0.45924030879E+02  0.10566000000E+00 0. -1.
         23    2    1    0    0    0 -0.33599278532E+01 -0.27455456015E+02  0.11427857046E+01  0.97316121310E+02  0.93295392852E+02 0.  0.
         13    1    3    3    0    0 -0.48221418415E+02 -0.17765730377E+02 -0.45762981682E+00  0.51392090430E+02  0.10566000000E+00 0.  1.
         22    1    1    0    0    0  0.33599278532E+01  0.27455456015E+02 -0.11427857046E+01  0.27683878690E+02  0.00000000000E+00 0. -1.
</event>
<event>
 5    1  0.1319298E-009  0.9118800E+02  0.7818608E-02  0.1130116E+00
         25   -1    0    0    0    0  0.00000000000E+00  0.00000000000E+00  0.99999998245E-14  0.12500000000E+03  0.12500000000E+03 0.  0.
        -13    1    3    3    0    0  0.49743192450E+02  0.24266314694E+01  0.16170180710E+02  0.52361814748E+02  0.10566000000E+00 0. -1.
         23    2    1    0    0    0  0.21651763054E+02  0.14429312853E+02 -0.14132483463E+02  0.95390356274E+02  0.90678492867E+02 0.  0.
         13    1    3    3    0    0 -0.28091429397E+02  0.12002681384E+02 -0.30302664172E+02  0.43028541527E+02  0.10566000000E+00 0.  1.
         22    1    1    0    0    0 -0.21651763054E+02 -0.14429312853E+02  0.14132483463E+02  0.29609643726E+02  0.00000000000E+00 0. -1.
</event>
<event>
 5    1  0.1319298E-009  0.9118800E+02  0.7818608E-02  0.1130116E+00
         25   -1    0    0    0    0  0.00000000000E+00  0.00000000000E+00  0.99999998245E-14  0.12500000000E+03  0.12500000000E+03 0.  0.
        -13    1    3    3    0    0  0.40814339050E+02  0.41412087158E+02 -0.19480523444E+02  0.61321066467E+02  0.10566000000E+00 0. -1.
         23    2    1    0    0    0  0.11801680665E+02  0.21378572322E+02 -0.13547017889E+02  0.97074300103E+02  0.92970828897E+02 0.  0.
         13    1    3    3    0    0 -0.29012658385E+02 -0.20033514836E+02  0.59335055545E+01  0.35753233636E+02  0.10566000000E+00 0.  1.
         22    1    1    0    0    0 -0.11801680665E+02 -0.21378572322E+02  0.13547017889E+02  0.27925699897E+02  0.00000000000E+00 0. -1.
</event>
<event>
 5    1  0.1319298E-009  0.9118800E+02  0.7818608E-02  0.1130116E+00
         25   -1    0    0    0    0  0.00000000000E+00  0.00000000000E+00  0.99999998245E-14  0.12500000000E+03  0.12500000000E+03 0.  0.
        -13    1    3    3    0    0  0.25983546477E+02 -0.16806979865E+02  0.48483201375E+00  0.30949402027E+02  0.10566000000E+00 0.  1.
         23    2    1    0    0    0 -0.46865352863E+01  0.32273638947E+02  0.12527438654E+02  0.90064515130E+02  0.83012823000E+02 0.  0.
         13    1    3    3    0    0 -0.30670081764E+02  0.49080618812E+02  0.12042606640E+02  0.59115113102E+02  0.10566000000E+00 0. -1.
         22    1    1    0    0    0  0.46865352863E+01 -0.32273638947E+02 -0.12527438654E+02  0.34935484870E+02  0.00000000000E+00 0. -1.
</event>
<event>
 5    1  0.1319298E-009  0.9118800E+02  0.7818608E-02  0.1130116E+00
         25   -1    0    0    0    0  0.00000000000E+00  0.00000000000E+00  0.99999998245E-14  0.12500000000E+03  0.12500000000E+03 0.  0.
        -13    1    3    3    0    0 -0.51457909632E+02 -0.10477190686E+02 -0.16047972832E+02  0.54911169943E+02  0.10566000000E+00 0. -1.
         23    2    1    0    0    0 -0.15492124382E+02 -0.24662923369E+02 -0.29774786382E+01  0.95723198843E+02  0.91136160281E+02 0.  0.
         13    1    3    3    0    0  0.35965785251E+02 -0.14185732682E+02  0.13070494194E+02  0.40812028900E+02  0.10566000000E+00 0.  1.
         22    1    1    0    0    0  0.15492124382E+02  0.24662923369E+02  0.29774786382E+01  0.29276801157E+02  0.00000000000E+00 0. -1.
</event>
<event>
 5    1  0.1319298E-009  0.9118800E+02  0.7818608E-02  0.1130116E+00
         25   -1    0    0    0    0  0.00000000000E+00  0.00000000000E+00  0.99999998245E-14  0.12500000000E+03  0.12500000000E+03 0.  0.
        -13    1    3    3    0    0  0.22447141004E+02 -0.84065536028E+00 -0.24549797579E+02  0.33275885652E+02  0.10566000000E+00 0.  1.
         23    2    1    0    0    0 -0.17221462736E+02  0.60753402368E+01  0.23030300527E+02  0.95608108600E+02  0.90978168534E+02 0.  0.
         13    1    3    3    0    0 -0.39668603740E+02  0.69159955970E+01  0.47580098106E+02  0.62332222948E+02  0.10566000000E+00 0. -1.
         22    1    1    0    0    0  0.17221462736E+02 -0.60753402368E+01 -0.23030300527E+02  0.29391891400E+02  0.00000000000E+00 0. -1.
</event>
<event>
 5    1  0.1319298E-009  0.9118800E+02  0.7818608E-02  0.1130116E+00
         25   -1    0    0    0    0  0.00000000000E+00  0.00000000000E+00  0.99999998245E-14  0.12500000000E+03  0.12500000000E+03 0.  0.
        -13    1    3    3    0    0 -0.24762563981E+02 -0.55087615629E+01 -0.30752986582E+02  0.39865879855E+02  0.10566000000E+00 0. -1.
         23    2    1    0    0    0  0.88859392636E+01  0.13657781176E+02 -0.41800987333E+02  0.80135565920E+02  0.66399484035E+02 0.  0.
         13    1    3    3    0    0  0.33648503244E+02  0.19166542739E+02 -0.11048000751E+02  0.40269686065E+02  0.10566000000E+00 0.  1.
         22    1    1    0    0    0 -0.88859392636E+01 -0.13657781176E+02  0.41800987333E+02  0.44864434080E+02  0.00000000000E+00 0.  1.
</event>
<event>
 5    1  0.1319298E-009  0.9118800E+02  0.7818608E-02  0.1130116E+00
         25   -1    0    0    0    0  0.00000000000E+00  0.00000000000E+00  0.99999998245E-14  0.12500000000E+03  0.12500000000E+03 0.  0.
        -13    1    3    3    0    0  0.23846061539E+02 -0.39856135349E+01  0.28758013496E+02  0.37570657040E+02  0.10566000000E+00 0.  1.
         23    2    1    0    0    0 -0.27070889210E+02 -0.11016963316E+02  0.15398021604E+01  0.95732654476E+02  0.91149128460E+02 0.  0.
         13    1    3    3    0    0 -0.50916950749E+02 -0.70313497815E+01 -0.27218211336E+02  0.58161997435E+02  0.10566000000E+00 0. -1.
         22    1    1    0    0    0  0.27070889210E+02  0.11016963316E+02 -0.15398021604E+01  0.29267345524E+02  0.00000000000E+00 0. -1.
</event>
<event>
 5    1  0.1319298E-009  0.9118800E+02  0.7818608E-02  0.1130116E+00
         25   -1    0    0    0    0  0.00000000000E+00  0.00000000000E+00  0.99999998245E-14  0.12500000000E+03  0.12500000000E+03 0.  0.
        -13    1    3    3    0    0 -0.12566926884E+01 -0.30656761924E+01 -0.48522421804E+02  0.48635524350E+02  0.10566000000E+00 0.  1.
         23    2    1    0    0    0  0.13421887918E+02 -0.23723851560E+02 -0.77149687594E+01  0.96671764067E+02  0.92428031552E+02 0.  0.
         13    1    3    3    0    0  0.14678580606E+02 -0.20658175368E+02  0.40807453044E+02  0.48036239717E+02  0.10566000000E+00 0. -1.
         22    1    1    0    0    0 -0.13421887918E+02  0.23723851560E+02  0.77149687594E+01  0.28328235933E+02  0.00000000000E+00 0.  1.
</event>
<event>
 5    1  0.1319298E-009  0.9118800E+02  0.7818608E-02  0.1130116E+00
         25   -1    0    0    0    0  0.00000000000E+00  0.00000000000E+00  0.99999998245E-14  0.12500000000E+03  0.12500000000E+03 0.  0.
        -13    1    3    3    0    0 -0.27204478061E+01 -0.34478041313E+02 -0.11623836573E+02  0.36486448303E+02  0.10566000000E+00 0.  1.
         23    2    1    0    0    0  0.12991680497E+02  0.23540374616E+02 -0.89788057032E+01  0.96653008077E+02  0.92402662404E+02 0.  0.
         13    1    3    3    0    0  0.15712128303E+02  0.58018415929E+02  0.26450308696E+01  0.60166559774E+02  0.10566000000E+00 0. -1.
         22    1    1    0    0    0 -0.12991680497E+02 -0.23540374616E+02  0.89788057032E+01  0.28346991923E+02  0.00000000000E+00 0. -1.
</event>
<event>
 5    1  0.1319298E-009  0.9118800E+02  0.7818608E-02  0.1130116E+00
         25   -1    0    0    0    0  0.00000000000E+00  0.00000000000E+00  0.99999998245E-14  0.12500000000E+03  0.12500000000E+03 0.  0.
        -13    1    3    3    0    0  0.48833062057E+01  0.38836244798E+02 -0.45229271990E+02  0.59814703864E+02  0.10566000000E+00 0. -1.
         23    2    1    0    0    0  0.60121752257E+01  0.23591524839E+02 -0.91625548520E+01  0.98987335650E+02  0.95508292375E+02 0.  0.
         13    1    3    3    0    0  0.11288690200E+01 -0.15244719958E+02  0.36066717138E+02  0.39172631786E+02  0.10566000000E+00 0.  1.
         22    1    1    0    0    0 -0.60121752257E+01 -0.23591524839E+02  0.91625548520E+01  0.26012664350E+02  0.00000000000E+00 0. -1.
</event>
<event>
 5    1  0.1319298E-009  0.9118800E+02  0.7818608E-02  0.1130116E+00
         25   -1    0    0    0    0  0.00000000000E+00  0.00000000000E+00  0.99999998245E-14  0.12500000000E+03  0.12500000000E+03 0.  0.
        -13    1    3    3    0    0 -0.36718445137E+02  0.50363713219E+02  0.43110654339E+01  0.62476749849E+02  0.10566000000E+00 0.  1.
         23    2    1    0    0    0 -0.17519315227E+02  0.23748857556E+02  0.84725792245E+00  0.95476238600E+02  0.90796804184E+02 0.  0.
         13    1    3    3    0    0  0.19199129910E+02 -0.26614855663E+02 -0.34638075115E+01  0.32999488751E+02  0.10566000000E+00 0. -1.
         22    1    1    0    0    0  0.17519315227E+02 -0.23748857556E+02 -0.84725792245E+00  0.29523761400E+02  0.00000000000E+00 0.  1.
</event>
<event>
 5    1  0.1319298E-009  0.9118800E+02  0.7818608E-02  0.1130116E+00
         25   -1    0    0    0    0  0.00000000000E+00  0.00000000000E+00  0.99999998245E-14  0.12500000000E+03  0.12500000000E+03 0.  0.
        -13    1    3    3    0    0 -0.15787117735E+02  0.21986016881E+00 -0.29228574151E+02  0.33220507760E+02  0.10566000000E+00 0.  1.
         23    2    1    0    0    0  0.15061016839E+02  0.35299546677E+02 -0.37292972096E+01  0.86440955905E+02  0.77364326251E+02 0.  0.
         13    1    3    3    0    0  0.30848134574E+02  0.35079686509E+02  0.25499276941E+02  0.53220448145E+02  0.10566000000E+00 0. -1.
         22    1    1    0    0    0 -0.15061016839E+02 -0.35299546677E+02  0.37292972096E+01  0.38559044095E+02  0.00000000000E+00 0. -1.
</event>
<event>
 5    1  0.1319298E-009  0.9118800E+02  0.7818608E-02  0.1130116E+00
         25   -1    0    0    0    0  0.00000000000E+00  0.00000000000E+00  0.99999998245E-14  0.12500000000E+03  0.12500000000E+03 0.  0.
        -13    1    3    3    0    0  0.31706420202E+02  0.16661988696E+02  0.45390587263E+02  0.57820718825E+02  0.10566000000E+00 0.  1.
         23    2    1    0    0    0  0.25056225970E+02 -0.50655035940E+01  0.16509001149E+02  0.94569408395E+02  0.89539667738E+02 0.  0.
         13    1    3    3    0    0 -0.66501942324E+01 -0.21727492290E+02 -0.28881586114E+02  0.36748689569E+02  0.10566000000E+00 0. -1.
         22    1    1    0    0    0 -0.25056225970E+02  0.50655035940E+01 -0.16509001149E+02  0.30430591605E+02  0.00000000000E+00 0.  1.
</event>
<event>
 5    1  0.1319298E-009  0.9118800E+02  0.7818608E-02  0.1130116E+00
         25   -1    0    0    0    0  0.00000000000E+00  0.00000000000E+00  0.99999998245E-14  0.12500000000E+03  0.12500000000E+03 0.  0.
        -13    1    3    3    0    0 -0.14787257291E+02  0.33278421337E+02  0.33838630022E+02  0.49710968113E+02  0.10566000000E+00 0. -1.
         23    2    1    0    0    0 -0.28125007713E+02  0.32306470892E+01  0.28079900319E+00  0.96688659736E+02  0.92450878493E+02 0.  0.
         13    1    3    3    0    0 -0.13337750421E+02 -0.30047774248E+02 -0.33557831019E+02  0.46977691624E+02  0.10566000000E+00 0.  1.
         22    1    1    0    0    0  0.28125007713E+02 -0.32306470892E+01 -0.28079900319E+00  0.28311340264E+02  0.00000000000E+00 0. -1.
</event>
<event>
 5    1  0.1319298E-009  0.9118800E+02  0.7818608E-02  0.1130116E+00
         25   -1    0    0    0    0  0.00000000000E+00  0.00000000000E+00  0.99999998245E-14  0.12500000000E+03  0.12500000000E+03 0.  0.
        -13    1    3    3    0    0 -0.14176423365E+02 -0.10669244268E+02 -0.41375150440E+02  0.45019084738E+02  0.10566000000E+00 0. -1.
         23    2    1    0    0    0 -0.21349021317E+02 -0.13678481009E+02  0.10560117009E+02  0.97533700192E+02  0.93586457610E+02 0.  0.
         13    1    3    3    0    0 -0.71725979520E+01 -0.30092367415E+01  0.51935267449E+02  0.52514615453E+02  0.10566000000E+00 0.  1.
         22    1    1    0    0    0  0.21349021317E+02  0.13678481009E+02 -0.10560117009E+02  0.27466299808E+02  0.00000000000E+00 0. -1.
</event>
<event>
 5    1  0.1319298E-009  0.9118800E+02  0.7818608E-02  0.1130116E+00
         25   -1    0    0    0    0  0.00000000000E+00  0.00000000000E+00  0.99999998245E-14  0.12500000000E+03  0.12500000000E+03 0.  0.
        -13    1    3    3    0    0 -0.17916107241E+02 -0.30167380822E+02 -0.34734266943E+02  0.49371431298E+02  0.10566000000E+00 0.  1.
         23    2    1    0    0    0 -0.25229102940E+02  0.87070232395E+01 -0.20256622235E+02  0.91494020933E+02  0.85138153805E+02 0.  0.
         13    1    3    3    0    0 -0.73129956988E+01  0.38874404062E+02  0.14477644707E+02  0.42122589635E+02  0.10566000000E+00 0. -1.
         22    1    1    0    0    0  0.25229102940E+02 -0.87070232395E+01  0.20256622235E+02  0.33505979067E+02  0.00000000000E+00 0. -1.
</event>
<event>
 5    1  0.1319298E-009  0.9118800E+02  0.7818608E-02  0.1130116E+00
         25   -1    0    0    0    0  0.00000000000E+00  0.00000000000E+00  0.99999998245E-14  0.12500000000E+03  0.12500000000E+03 0.  0.
        -13    1    3    3    0    0  0.47549235205E+02 -0.38476493211E+02  0.39029296285E+01  0.61291225490E+02  0.10566000000E+00 0.  1.
         23    2    1    0    0    0  0.25603515080E+02 -0.10416287309E+02 -0.14823593210E+01  0.97319024315E+02  0.93299282305E+02 0.  0.
         13    1    3    3    0    0 -0.21945720125E+02  0.28060205902E+02 -0.53852889495E+01  0.36027798825E+02  0.10566000000E+00 0. -1.
         22    1    1    0    0    0 -0.25603515080E+02  0.10416287309E+02  0.14823593210E+01  0.27680975685E+02  0.00000000000E+00 0.  1.
</event>
<event>
 5    1  0.1319298E-009  0.9118800E+02  0.7818608E-02  0.1130116E+00
         25   -1    0    0    0    0  0.00000000000E+00  0.00000000000E+00  0.99999998245E-14  0.12500000000E+03  0.12500000000E+03 0.  0.
        -13    1    3    3    0    0 -0.44781440124E+02  0.22606250309E+02 -0.36895819662E+02  0.62271442935E+02  0.10566000000E+00 0.  1.
         23    2    1    0    0    0 -0.23492140058E+02  0.16047473033E+02 -0.21053812004E+02  0.89606991720E+02  0.82321005399E+02 0.  0.
         13    1    3    3    0    0  0.21289300066E+02 -0.65587772760E+01  0.15842007659E+02  0.27335548785E+02  0.10566000000E+00 0. -1.
         22    1    1    0    0    0  0.23492140058E+02 -0.16047473033E+02  0.21053812004E+02  0.35393008280E+02  0.00000000000E+00 0.  1.
</event>
<event>
 5    1  0.1319298E-009  0.9118800E+02  0.7818608E-02  0.1130116E+00
         25   -1    0    0    0    0  0.00000000000E+00  0.00000000000E+00  0.99999998245E-14  0.12500000000E+03  0.12500000000E+03 0.  0.
        -13    1    3    3    0    0  0.16414944601E+02 -0.50285979934E+02  0.12974583324E+02  0.54465412517E+02  0.10566000000E+00 0. -1.
         23    2    1    0    0    0 -0.14809737770E+02 -0.25038142477E+02  0.71826092948E+01  0.95036242095E+02  0.90189026626E+02 0.  0.
         13    1    3    3    0    0 -0.31224682371E+02  0.25247837458E+02 -0.57919740291E+01  0.40570829578E+02  0.10566000000E+00 0.  1.
         22    1    1    0    0    0  0.14809737770E+02  0.25038142477E+02 -0.71826092948E+01  0.29963757905E+02  0.00000000000E+00 0.  1.
</event>
<event>
 5    1  0.1319298E-009  0.9118800E+02  0.7818608E-02  0.1130116E+00
         25   -1    0    0    0    0  0.00000000000E+00  0.00000000000E+00  0.99999998245E-14  0.12500000000E+03  0.12500000000E+03 0.  0.
        -13    1    3    3    0    0 -0.26413920422E+02  0.42923786342E+02  0.59116931376E+01  0.50745501336E+02  0.10566000000E+00 0. -1.
         23    2    1    0    0    0 -0.27392657394E+02  0.68995778266E+01 -0.15615218015E+02  0.92723121481E+02  0.86923991914E+02 0.  0.
         13    1    3    3    0    0 -0.97873697164E+00 -0.36024208516E+02 -0.21526911153E+02  0.41977620145E+02  0.10566000000E+00 0.  1.
         22    1    1    0    0    0  0.27392657394E+02 -0.68995778266E+01  0.15615218015E+02  0.32276878519E+02  0.00000000000E+00 0. -1.
</event>
<event>
 5    1  0.1319298E-009  0.9118800E+02  0.7818608E-02  0.1130116E+00
         25   -1    0    0    0    0  0.00000000000E+00  0.00000000000E+00  0.99999998245E-14  0.12500000000E+03  0.12500000000E+03 0.  0.
        -13    1    3    3    0    0 -0.31312379706E+02 -0.18848186421E+02  0.28254859303E+01  0.36656701829E+02  0.10566000000E+00 0. -1.
         23    2    1    0    0    0  0.22746336220E+02 -0.75258820954E+00  0.18378250446E+02  0.95747268676E+02  0.91169167864E+02 0.  0.
         13    1    3    3    0    0  0.54058715926E+02  0.18095598212E+02  0.15552764515E+02  0.59090566847E+02  0.10566000000E+00 0.  1.
         22    1    1    0    0    0 -0.22746336220E+02  0.75258820954E+00 -0.18378250446E+02  0.29252731324E+02  0.00000000000E+00 0.  1.
</event>
<event>
 5    1  0.1319298E-009  0.9118800E+02  0.7818608E-02  0.1130116E+00
         25   -1    0    0    0    0  0.00000000000E+00  0.00000000000E+00  0.99999998245E-14  0.12500000000E+03  0.12500000000E+03 0.  0.
        -13    1    3    3    0    0  0.35236069196E+02  0.16938058143E+01 -0.22766352049E+01  0.35350301023E+02  0.10566000000E+00 0.  1.
         23    2    1    0    0    0 -0.19329850842E+02 -0.77022056385E+00  0.22498588491E+02  0.95328079648E+02  0.90592604069E+02 0.  0.
         13    1    3    3    0    0 -0.54565920038E+02 -0.24640263781E+01  0.24775223696E+02  0.59977778625E+02  0.10566000000E+00 0. -1.
         22    1    1    0    0    0  0.19329850842E+02  0.77022056385E+00 -0.22498588491E+02  0.29671920352E+02  0.00000000000E+00 0. -1.
</event>
<event>
 5    1  0.1319298E-009  0.9118800E+02  0.7818608E-02  0.1130116E+00
         25   -1    0    0    0    0  0.00000000000E+00  0.00000000000E+00  0.99999998245E-14  0.12500000000E+03  0.12500000000E+03 0.  0.
        -13    1    3    3    0    0  0.13472393426E+02 -0.34551390566E+02 -0.93506226385E+01  0.38245905433E+02  0.10566000000E+00 0. -1.
         23    2    1    0    0    0 -0.56162312461E+01  0.54982108427E+01  0.27798744268E+02  0.96111549735E+02  0.91667264788E+02 0.  0.
         13    1    3    3    0    0 -0.19088624672E+02  0.40049601408E+02  0.37149366906E+02  0.57865644301E+02  0.10566000000E+00 0.  1.
         22    1    1    0    0    0  0.56162312461E+01 -0.54982108427E+01 -0.27798744268E+02  0.28888450265E+02  0.00000000000E+00 0.  1.
</event>
<event>
 5    1  0.1319298E-009  0.9118800E+02  0.7818608E-02  0.1130116E+00
         25   -1    0    0    0    0  0.00000000000E+00  0.00000000000E+00  0.99999998245E-14  0.12500000000E+03  0.12500000000E+03 0.  0.
        -13    1    3    3    0    0  0.27424121784E+02  0.23823106680E+02 -0.36279808321E+02  0.51340612806E+02  0.10566000000E+00 0.  1.
         23    2    1    0    0    0 -0.49095209669E+01  0.28382343625E+02 -0.66389899542E+01  0.95440957164E+02  0.90748219217E+02 0.  0.
         13    1    3    3    0    0 -0.32333642750E+02  0.45592369446E+01  0.29640818366E+02  0.44100344358E+02  0.10566000000E+00 0. -1.
         22    1    1    0    0    0  0.49095209669E+01 -0.28382343625E+02  0.66389899542E+01  0.29559042836E+02  0.00000000000E+00 0.  1.
</event>
<event>
 5    1  0.1319298E-009  0.9118800E+02  0.7818608E-02  0.1130116E+00
         25   -1    0    0    0    0  0.00000000000E+00  0.00000000000E+00  0.99999998245E-14  0.12500000000E+03  0.12500000000E+03 0.  0.
        -13    1    3    3    0    0  0.26473171258E+02 -0.21240477044E+02 -0.14276892504E+02  0.36821562774E+02  0.10566000000E+00 0. -1.
         23    2    1    0    0    0 -0.15631586951E+01  0.29232771013E+02 -0.44491061914E+01  0.95389310848E+02  0.90677051738E+02 0.  0.
         13    1    3    3    0    0 -0.28036329953E+02  0.50473248057E+02  0.98277863122E+01  0.58567748074E+02  0.10566000000E+00 0.  1.
         22    1    1    0    0    0  0.15631586951E+01 -0.29232771013E+02  0.44491061914E+01  0.29610689152E+02  0.00000000000E+00 0.  1.
</event>
<event>
 5    1  0.1319298E-009  0.9118800E+02  0.7818608E-02  0.1130116E+00
         25   -1    0    0    0    0  0.00000000000E+00  0.00000000000E+00  0.99999998245E-14  0.12500000000E+03  0.12500000000E+03 0.  0.
        -13    1    3    3    0    0 -0.45290978650E+02 -0.14712038081E+02  0.16773218349E+02  0.50488303887E+02  0.10566000000E+00 0. -1.
         23    2    1    0    0    0 -0.21075896844E+02  0.20615292630E+02  0.35953706002E+01  0.95299656437E+02  0.90553377128E+02 0.  0.
         13    1    3    3    0    0  0.24215081806E+02  0.35327330711E+02 -0.13177847749E+02  0.44811352550E+02  0.10566000000E+00 0.  1.
         22    1    1    0    0    0  0.21075896844E+02 -0.20615292630E+02 -0.35953706002E+01  0.29700343563E+02  0.00000000000E+00 0.  1.
</event>
<event>
 5    1  0.1319298E-009  0.9118800E+02  0.7818608E-02  0.1130116E+00
         25   -1    0    0    0    0  0.00000000000E+00  0.00000000000E+00  0.99999998245E-14  0.12500000000E+03  0.12500000000E+03 0.  0.
        -13    1    3    3    0    0  0.54616073278E+01 -0.59483678633E+01 -0.49486871536E+02  0.50141538202E+02  0.10566000000E+00 0. -1.
         23    2    1    0    0    0 -0.16405886097E+02  0.17408119506E+02 -0.17699737583E+02  0.95243043941E+02  0.90475195414E+02 0.  0.
         13    1    3    3    0    0 -0.21867493425E+02  0.23356487369E+02  0.31787133953E+02  0.45101505739E+02  0.10566000000E+00 0.  1.
         22    1    1    0    0    0  0.16405886097E+02 -0.17408119506E+02  0.17699737583E+02  0.29756956059E+02  0.00000000000E+00 0. -1.
</event>
<event>
 5    1  0.1319298E-009  0.9118800E+02  0.7818608E-02  0.1130116E+00
         25   -1    0    0    0    0  0.00000000000E+00  0.00000000000E+00  0.99999998245E-14  0.12500000000E+03  0.12500000000E+03 0.  0.
        -13    1    3    3    0    0  0.20574243475E+01  0.74569845248E+01 -0.57287813479E+02  0.57807822571E+02  0.10566000000E+00 0.  1.
         23    2    1    0    0    0  0.40658044346E+01  0.19664000912E+02 -0.21938955668E+02  0.95259094274E+02  0.90497367744E+02 0.  0.
         13    1    3    3    0    0  0.20083800871E+01  0.12207016388E+02  0.35348857810E+02  0.37451271703E+02  0.10566000000E+00 0. -1.
         22    1    1    0    0    0 -0.40658044346E+01 -0.19664000912E+02  0.21938955668E+02  0.29740905726E+02  0.00000000000E+00 0.  1.
</event>
<event>
 5    1  0.1319298E-009  0.9118800E+02  0.7818608E-02  0.1130116E+00
         25   -1    0    0    0    0  0.00000000000E+00  0.00000000000E+00  0.99999998245E-14  0.12500000000E+03  0.12500000000E+03 0.  0.
        -13    1    3    3    0    0 -0.32666636198E+02  0.32304482208E+02  0.25123297325E+02  0.52362963283E+02  0.10566000000E+00 0.  1.
         23    2    1    0    0    0 -0.27753658084E+02 -0.67902422062E+01  0.79712617395E+01  0.95336656628E+02  0.90604437845E+02 0.  0.
         13    1    3    3    0    0  0.49129781140E+01 -0.39094724415E+02 -0.17152035586E+02  0.42973693346E+02  0.10566000000E+00 0. -1.
         22    1    1    0    0    0  0.27753658084E+02  0.67902422062E+01 -0.79712617395E+01  0.29663343372E+02  0.00000000000E+00 0. -1.
</event>
<event>
 5    1  0.1319298E-009  0.9118800E+02  0.7818608E-02  0.1130116E+00
         25   -1    0    0    0    0  0.00000000000E+00  0.00000000000E+00  0.99999998245E-14  0.12500000000E+03  0.12500000000E+03 0.  0.
        -13    1    3    3    0    0  0.39789607004E+02 -0.74574579209E+01  0.24226907177E+02  0.47178180334E+02  0.10566000000E+00 0.  1.
         23    2    1    0    0    0  0.13698733567E+02 -0.22651014189E+02 -0.13326349510E+02  0.95363614654E+02  0.90641622137E+02 0.  0.
         13    1    3    3    0    0 -0.26090873438E+02 -0.15193556268E+02 -0.37553256687E+02  0.48185434320E+02  0.10566000000E+00 0. -1.
         22    1    1    0    0    0 -0.13698733567E+02  0.22651014189E+02  0.13326349510E+02  0.29636385346E+02  0.00000000000E+00 0. -1.
</event>
<event>
 5    1  0.1319298E-009  0.9118800E+02  0.7818608E-02  0.1130116E+00
         25   -1    0    0    0    0  0.00000000000E+00  0.00000000000E+00  0.99999998245E-14  0.12500000000E+03  0.12500000000E+03 0.  0.
        -13    1    3    3    0    0 -0.37387811010E+02 -0.16076792793E+02 -0.92051305535E+01  0.41725978373E+02  0.10566000000E+00 0. -1.
         23    2    1    0    0    0  0.15252686318E+02 -0.24571464369E+02  0.12051405382E+01  0.96054297990E+02  0.91589161462E+02 0.  0.
         13    1    3    3    0    0  0.52640497328E+02 -0.84946715764E+01  0.10410271092E+02  0.54328319617E+02  0.10566000000E+00 0.  1.
         22    1    1    0    0    0 -0.15252686318E+02  0.24571464369E+02 -0.12051405382E+01  0.28945702010E+02  0.00000000000E+00 0.  1.
</event>
<event>
 5    1  0.1319298E-009  0.9118800E+02  0.7818608E-02  0.1130116E+00
         25   -1    0    0    0    0  0.00000000000E+00  0.00000000000E+00  0.99999998245E-14  0.12500000000E+03  0.12500000000E+03 0.  0.
        -13    1    3    3    0    0 -0.24414576526E+02  0.13965265332E+02 -0.21105837397E+02  0.35164864837E+02  0.10566000000E+00 0.  1.
         23    2    1    0    0    0  0.68927544477E+01 -0.29843396240E+02  0.31260899087E+01  0.94211839920E+02  0.89039092425E+02 0.  0.
         13    1    3    3    0    0  0.31307330974E+02 -0.43808661572E+02  0.24231927306E+02  0.59046975083E+02  0.10566000000E+00 0. -1.
         22    1    1    0    0    0 -0.68927544477E+01  0.29843396240E+02 -0.31260899087E+01  0.30788160080E+02  0.00000000000E+00 0. -1.
</event>
<event>
 5    1  0.1319298E-009  0.9118800E+02  0.7818608E-02  0.1130116E+00
         25   -1    0    0    0    0  0.00000000000E+00  0.00000000000E+00  0.99999998245E-14  0.12500000000E+03  0.12500000000E+03 0.  0.
        -13    1    3    3    0    0  0.35584188017E+01  0.32134124936E+02  0.29958994746E+02  0.44077396248E+02  0.10566000000E+00 0.  1.
         23    2    1    0    0    0  0.17766271310E+02 -0.11423530659E+02  0.27988105668E+02  0.89936179502E+02  0.82819350852E+02 0.  0.
         13    1    3    3    0    0  0.14207852508E+02 -0.43557655595E+02 -0.19708890774E+01  0.45858783255E+02  0.10566000000E+00 0. -1.
         22    1    1    0    0    0 -0.17766271310E+02  0.11423530659E+02 -0.27988105668E+02  0.35063820498E+02  0.00000000000E+00 0. -1.
</event>
<event>
 5    1  0.1319298E-009  0.9118800E+02  0.7818608E-02  0.1130116E+00
         25   -1    0    0    0    0  0.00000000000E+00  0.00000000000E+00  0.99999998245E-14  0.12500000000E+03  0.12500000000E+03 0.  0.
        -13    1    3    3    0    0  0.30559251240E+02 -0.26637013401E+02  0.33949140593E+02  0.52876777799E+02  0.10566000000E+00 0.  1.
         23    2    1    0    0    0 -0.30181173560E+01 -0.27643536983E+02  0.60554637787E+01  0.96540505787E+02  0.92250346594E+02 0.  0.
         13    1    3    3    0    0 -0.33577368596E+02 -0.10065235812E+01 -0.27893676815E+02  0.43663727988E+02  0.10566000000E+00 0. -1.
         22    1    1    0    0    0  0.30181173560E+01  0.27643536983E+02 -0.60554637787E+01  0.28459494213E+02  0.00000000000E+00 0.  1.
</event>
<event>
 5    1  0.1319298E-009  0.9118800E+02  0.7818608E-02  0.1130116E+00
         25   -1    0    0    0    0  0.00000000000E+00  0.00000000000E+00  0.99999998245E-14  0.12500000000E+03  0.12500000000E+03 0.  0.
        -13    1    3    3    0    0  0.17739067355E+02 -0.93400691065E+00 -0.38368175934E+02  0.42280905478E+02  0.10566000000E+00 0.  1.
         23    2    1    0    0    0 -0.47737106553E+00  0.30802981286E+02 -0.16058032965E+01  0.94151496900E+02  0.88954337865E+02 0.  0.
         13    1    3    3    0    0 -0.18216438421E+02  0.31736988197E+02  0.36762372637E+02  0.51870591422E+02  0.10566000000E+00 0. -1.
         22    1    1    0    0    0  0.47737106553E+00 -0.30802981286E+02  0.16058032965E+01  0.30848503100E+02  0.00000000000E+00 0. -1.
</event>
<event>
 5    1  0.1319298E-009  0.9118800E+02  0.7818608E-02  0.1130116E+00
         25   -1    0    0    0    0  0.00000000000E+00  0.00000000000E+00  0.99999998245E-14  0.12500000000E+03  0.12500000000E+03 0.  0.
        -13    1    3    3    0    0 -0.28514718429E+02 -0.10117050164E+02 -0.17458386019E+02  0.34932080922E+02  0.10566000000E+00 0.  1.
         23    2    1    0    0    0  0.27688112171E+02  0.87826052305E+01 -0.65582026545E+01  0.95221220100E+02  0.90445038698E+02 0.  0.
         13    1    3    3    0    0  0.56202830600E+02  0.18899655394E+02  0.10900183364E+02  0.60289139179E+02  0.10566000000E+00 0. -1.
         22    1    1    0    0    0 -0.27688112171E+02 -0.87826052305E+01  0.65582026545E+01  0.29778779900E+02  0.00000000000E+00 0. -1.
</event>
<event>
 5    1  0.1319298E-009  0.9118800E+02  0.7818608E-02  0.1130116E+00
         25   -1    0    0    0    0  0.00000000000E+00  0.00000000000E+00  0.99999998245E-14  0.12500000000E+03  0.12500000000E+03 0.  0.
        -13    1    3    3    0    0  0.54711725192E+02 -0.42754279243E+01 -0.31873246131E+01  0.54971104770E+02  0.10566000000E+00 0. -1.
         23    2    1    0    0    0  0.21660709732E+02  0.93118350848E+01  0.16924526521E+02  0.95976970925E+02  0.91483565362E+02 0.  0.
         13    1    3    3    0    0 -0.33051015460E+02  0.13587263009E+02  0.20111851134E+02  0.41005866155E+02  0.10566000000E+00 0.  1.
         22    1    1    0    0    0 -0.21660709732E+02 -0.93118350848E+01 -0.16924526521E+02  0.29023029075E+02  0.00000000000E+00 0. -1.
</event>
<event>
 5    1  0.1319298E-009  0.9118800E+02  0.7818608E-02  0.1130116E+00
         25   -1    0    0    0    0  0.00000000000E+00  0.00000000000E+00  0.99999998245E-14  0.12500000000E+03  0.12500000000E+03 0.  0.
        -13    1    3    3    0    0 -0.13162284263E+02  0.46190763363E+02 -0.17510040996E+02  0.51121864665E+02  0.10566000000E+00 0. -1.
         23    2    1    0    0    0  0.18094579447E+02  0.21984132570E+02  0.41902136546E+01  0.96220253985E+02  0.91815377232E+02 0.  0.
         13    1    3    3    0    0  0.31256863710E+02 -0.24206630793E+02  0.21700254650E+02  0.45098389320E+02  0.10566000000E+00 0.  1.
         22    1    1    0    0    0 -0.18094579447E+02 -0.21984132570E+02 -0.41902136546E+01  0.28779746015E+02  0.00000000000E+00 0. -1.
</event>
<event>
 5    1  0.1319298E-009  0.9118800E+02  0.7818608E-02  0.1130116E+00
         25   -1    0    0    0    0  0.00000000000E+00  0.00000000000E+00  0.99999998245E-14  0.12500000000E+03  0.12500000000E+03 0.  0.
        -13    1    3    3    0    0  0.38705334858E+02 -0.25688452087E+02  0.23122243063E+02  0.51890739110E+02  0.10566000000E+00 0.  1.
         23    2    1    0    0    0  0.28025951587E+02  0.24254409249E+01 -0.85815111342E+01  0.95589473664E+02  0.90952561349E+02 0.  0.
         13    1    3    3    0    0 -0.10679383271E+02  0.28113893012E+02 -0.31703754197E+02  0.43698734553E+02  0.10566000000E+00 0. -1.
         22    1    1    0    0    0 -0.28025951587E+02 -0.24254409249E+01  0.85815111342E+01  0.29410526336E+02  0.00000000000E+00 0. -1.
</event>
<event>
 5    1  0.1319298E-009  0.9118800E+02  0.7818608E-02  0.1130116E+00
         25   -1    0    0    0    0  0.00000000000E+00  0.00000000000E+00  0.99999998245E-14  0.12500000000E+03  0.12500000000E+03 0.  0.
        -13    1    3    3    0    0 -0.34101097726E+02  0.95988169549E+01 -0.50378318959E+02  0.61587404054E+02  0.10566000000E+00 0.  1.
         23    2    1    0    0    0 -0.21337968947E+02  0.95471434640E+01 -0.21171756052E+02  0.93461133162E+02  0.87978879798E+02 0.  0.
         13    1    3    3    0    0  0.12763128779E+02 -0.51673490908E-01  0.29206562907E+02  0.31873729108E+02  0.10566000000E+00 0. -1.
         22    1    1    0    0    0  0.21337968947E+02 -0.95471434640E+01  0.21171756052E+02  0.31538866838E+02  0.00000000000E+00 0.  1.
</event>
<event>
 5    1  0.1319298E-009  0.9118800E+02  0.7818608E-02  0.1130116E+00
         25   -1    0    0    0    0  0.00000000000E+00  0.00000000000E+00  0.99999998245E-14  0.12500000000E+03  0.12500000000E+03 0.  0.
        -13    1    3    3    0    0  0.25268506748E+02 -0.52328383657E+02  0.13960204693E+02  0.59763330300E+02  0.10566000000E+00 0.  1.
         23    2    1    0    0    0  0.22301607041E+02 -0.16870672196E+02  0.37172859958E+01  0.96790082025E+02  0.92587906912E+02 0.  0.
         13    1    3    3    0    0 -0.29668997067E+01  0.35457711461E+02 -0.10242918697E+02  0.37026751726E+02  0.10566000000E+00 0. -1.
         22    1    1    0    0    0 -0.22301607041E+02  0.16870672196E+02 -0.37172859958E+01  0.28209917975E+02  0.00000000000E+00 0.  1.
</event>
<event>
 5    1  0.1319298E-009  0.9118800E+02  0.7818608E-02  0.1130116E+00
         25   -1    0    0    0    0  0.00000000000E+00  0.00000000000E+00  0.99999998245E-14  0.12500000000E+03  0.12500000000E+03 0.  0.
        -13    1    3    3    0    0 -0.37411456946E+02  0.14319761623E+02  0.33901536810E+02  0.52478548436E+02  0.10566000000E+00 0.  1.
         23    2    1    0    0    0 -0.26918866855E+02  0.81853210004E+01 -0.77083397098E+01  0.95827352302E+02  0.91278902685E+02 0.  0.
         13    1    3    3    0    0  0.10492590091E+02 -0.61344406223E+01 -0.41609876520E+02  0.43348803866E+02  0.10566000000E+00 0. -1.
         22    1    1    0    0    0  0.26918866855E+02 -0.81853210004E+01  0.77083397098E+01  0.29172647698E+02  0.00000000000E+00 0.  1.
</event>
<event>
 5    1  0.1319298E-009  0.9118800E+02  0.7818608E-02  0.1130116E+00
         25   -1    0    0    0    0  0.00000000000E+00  0.00000000000E+00  0.99999998245E-14  0.12500000000E+03  0.12500000000E+03 0.  0.
        -13    1    3    3    0    0 -0.35195801579E+02  0.13128035479E+02  0.48353191997E+02  0.61230156824E+02  0.10566000000E+00 0.  1.
         23    2    1    0    0    0 -0.11235144481E+02  0.12948900516E+02  0.24977000094E+02  0.94705561075E+02  0.89729539555E+02 0.  0.
         13    1    3    3    0    0  0.23960657097E+02 -0.17913496343E+00 -0.23376191903E+02  0.33475404251E+02  0.10566000000E+00 0. -1.
         22    1    1    0    0    0  0.11235144481E+02 -0.12948900516E+02 -0.24977000094E+02  0.30294438925E+02  0.00000000000E+00 0.  1.
</event>
<event>
 5    1  0.1319298E-009  0.9118800E+02  0.7818608E-02  0.1130116E+00
         25   -1    0    0    0    0  0.00000000000E+00  0.00000000000E+00  0.99999998245E-14  0.12500000000E+03  0.12500000000E+03 0.  0.
        -13    1    3    3    0    0 -0.68161817941E+01  0.14830814414E+01  0.36354079882E+02  0.37017430393E+02  0.10566000000E+00 0.  1.
         23    2    1    0    0    0  0.25181521187E+02 -0.75112123255E+01 -0.12335963394E+02  0.95970647393E+02  0.91474924697E+02 0.  0.
         13    1    3    3    0    0  0.31997702982E+02 -0.89942937669E+01 -0.48690043276E+02  0.58953217000E+02  0.10566000000E+00 0. -1.
         22    1    1    0    0    0 -0.25181521187E+02  0.75112123255E+01  0.12335963394E+02  0.29029352607E+02  0.00000000000E+00 0. -1.
</event>
<event>
 5    1  0.1319298E-009  0.9118800E+02  0.7818608E-02  0.1130116E+00
         25   -1    0    0    0    0  0.00000000000E+00  0.00000000000E+00  0.99999998245E-14  0.12500000000E+03  0.12500000000E+03 0.  0.
        -13    1    3    3    0    0 -0.33546885376E+02  0.24426528763E+02  0.91606775448E+01  0.42496799914E+02  0.10566000000E+00 0.  1.
         23    2    1    0    0    0  0.10712502710E+02  0.26971262671E+02 -0.14292215291E+02  0.92650747423E+02  0.86819852889E+02 0.  0.
         13    1    3    3    0    0  0.44259388085E+02  0.25447339082E+01 -0.23452892835E+02  0.50153947509E+02  0.10566000000E+00 0. -1.
         22    1    1    0    0    0 -0.10712502710E+02 -0.26971262671E+02  0.14292215291E+02  0.32349252577E+02  0.00000000000E+00 0. -1.
</event>
<event>
 5    1  0.1319298E-009  0.9118800E+02  0.7818608E-02  0.1130116E+00
         25   -1    0    0    0    0  0.00000000000E+00  0.00000000000E+00  0.99999998245E-14  0.12500000000E+03  0.12500000000E+03 0.  0.
        -13    1    3    3    0    0  0.24824123327E+02  0.27817067921E+02 -0.43332015280E+00  0.37285725111E+02  0.10566000000E+00 0.  1.
         23    2    1    0    0    0 -0.15599503047E+02  0.53655046657E+00  0.27421026406E+02  0.93447740638E+02  0.87959849701E+02 0.  0.
         13    1    3    3    0    0 -0.40423626374E+02 -0.27280517454E+02  0.27854346558E+02  0.56162015527E+02  0.10566000000E+00 0. -1.
         22    1    1    0    0    0  0.15599503047E+02 -0.53655046657E+00 -0.27421026406E+02  0.31552259362E+02  0.00000000000E+00 0. -1.
</event>
<event>
 5    1  0.1319298E-009  0.9118800E+02  0.7818608E-02  0.1130116E+00
         25   -1    0    0    0    0  0.00000000000E+00  0.00000000000E+00  0.99999998245E-14  0.12500000000E+03  0.12500000000E+03 0.  0.
        -13    1    3    3    0    0  0.24047299136E+01  0.31731828725E+02 -0.28195196233E+02  0.42516725354E+02  0.10566000000E+00 0.  1.
         23    2    1    0    0    0  0.17190830603E+02  0.20986946651E+02  0.18165777078E+02  0.92350772698E+02  0.86386880801E+02 0.  0.
         13    1    3    3    0    0  0.14786100689E+02 -0.10744882074E+02  0.46360973310E+02  0.49834047344E+02  0.10566000000E+00 0. -1.
         22    1    1    0    0    0 -0.17190830603E+02 -0.20986946651E+02 -0.18165777078E+02  0.32649227302E+02  0.00000000000E+00 0. -1.
</event>
<event>
 5    1  0.1319298E-009  0.9118800E+02  0.7818608E-02  0.1130116E+00
         25   -1    0    0    0    0  0.00000000000E+00  0.00000000000E+00  0.99999998245E-14  0.12500000000E+03  0.12500000000E+03 0.  0.
        -13    1    3    3    0    0 -0.30515764195E+02 -0.14422416965E+02 -0.58608207617E+01  0.34257529969E+02  0.10566000000E+00 0.  1.
         23    2    1    0    0    0  0.20981661554E+02  0.11931818279E+02 -0.19821053501E+02  0.93767443734E+02  0.88413013372E+02 0.  0.
         13    1    3    3    0    0  0.51497425750E+02  0.26354235244E+02 -0.13960232739E+02  0.59509913765E+02  0.10566000000E+00 0. -1.
         22    1    1    0    0    0 -0.20981661554E+02 -0.11931818279E+02  0.19821053501E+02  0.31232556266E+02  0.00000000000E+00 0. -1.
</event>
<event>
 5    1  0.1319298E-009  0.9118800E+02  0.7818608E-02  0.1130116E+00
         25   -1    0    0    0    0  0.00000000000E+00  0.00000000000E+00  0.99999998245E-14  0.12500000000E+03  0.12500000000E+03 0.  0.
        -13    1    3    3    0    0  0.24732160849E+02  0.31492969031E+02 -0.14799762515E+02  0.42691111641E+02  0.10566000000E+00 0.  1.
         23    2    1    0    0    0  0.11275226404E+02 -0.21004238672E+02 -0.14902941705E+02  0.96885831968E+02  0.92717085761E+02 0.  0.
         13    1    3    3    0    0 -0.13456934444E+02 -0.52497207703E+02 -0.10317919019E+00  0.54194720327E+02  0.10566000000E+00 0. -1.
         22    1    1    0    0    0 -0.11275226404E+02  0.21004238672E+02  0.14902941705E+02  0.28114168032E+02  0.00000000000E+00 0.  1.
</event>
<event>
 5    1  0.1319298E-009  0.9118800E+02  0.7818608E-02  0.1130116E+00
         25   -1    0    0    0    0  0.00000000000E+00  0.00000000000E+00  0.99999998245E-14  0.12500000000E+03  0.12500000000E+03 0.  0.
        -13    1    3    3    0    0  0.30205163680E+02  0.17456911481E+02 -0.22077043074E+02  0.41285622998E+02  0.10566000000E+00 0.  1.
         23    2    1    0    0    0  0.44324195631E+01 -0.27945370750E+02 -0.10915459686E+02  0.94672828195E+02  0.89683928598E+02 0.  0.
         13    1    3    3    0    0 -0.25772744117E+02 -0.45402282230E+02  0.11161583388E+02  0.53387205198E+02  0.10566000000E+00 0. -1.
         22    1    1    0    0    0 -0.44324195631E+01  0.27945370750E+02  0.10915459686E+02  0.30327171805E+02  0.00000000000E+00 0. -1.
</event>
<event>
 5    1  0.1319298E-009  0.9118800E+02  0.7818608E-02  0.1130116E+00
         25   -1    0    0    0    0  0.00000000000E+00  0.00000000000E+00  0.99999998245E-14  0.12500000000E+03  0.12500000000E+03 0.  0.
        -13    1    3    3    0    0 -0.36793848739E+02 -0.15387301837E+02 -0.30833045226E+02  0.50410754852E+02  0.10566000000E+00 0.  1.
         23    2    1    0    0    0 -0.19946947686E+02 -0.15043329455E+02  0.12615063926E+02  0.97012104028E+02  0.92887168151E+02 0.  0.
         13    1    3    3    0    0  0.16846901053E+02  0.34397238191E+00  0.43448109152E+02  0.46601349176E+02  0.10566000000E+00 0. -1.
         22    1    1    0    0    0  0.19946947686E+02  0.15043329455E+02 -0.12615063926E+02  0.27987895972E+02  0.00000000000E+00 0. -1.
</event>
<event>
 5    1  0.1319298E-009  0.9118800E+02  0.7818608E-02  0.1130116E+00
         25   -1    0    0    0    0  0.00000000000E+00  0.00000000000E+00  0.99999998245E-14  0.12500000000E+03  0.12500000000E+03 0.  0.
        -13    1    3    3    0    0  0.28281030283E+02 -0.21269221209E+02  0.13753082554E+02  0.37965179948E+02  0.10566000000E+00 0.  1.
         23    2    1    0    0    0 -0.21060466276E+02  0.12634670217E+02  0.11516986224E+02  0.97874014250E+02  0.94039904096E+02 0.  0.
         13    1    3    3    0    0 -0.49341496559E+02  0.33903891426E+02 -0.22360963301E+01  0.59908834301E+02  0.10566000000E+00 0. -1.
         22    1    1    0    0    0  0.21060466276E+02 -0.12634670217E+02 -0.11516986224E+02  0.27125985750E+02  0.00000000000E+00 0. -1.
</event>
<event>
 5    1  0.1319298E-009  0.9118800E+02  0.7818608E-02  0.1130116E+00
         25   -1    0    0    0    0  0.00000000000E+00  0.00000000000E+00  0.99999998245E-14  0.12500000000E+03  0.12500000000E+03 0.  0.
        -13    1    3    3    0    0 -0.23982701377E+02 -0.15405343001E+02  0.21304805500E+02  0.35586520759E+02  0.10566000000E+00 0.  1.
         23    2    1    0    0    0 -0.20054338821E+01  0.12273183685E+02 -0.26902885621E+02  0.95361881680E+02  0.90639232234E+02 0.  0.
         13    1    3    3    0    0  0.21977267495E+02  0.27678526686E+02 -0.48207691121E+02  0.59775360921E+02  0.10566000000E+00 0. -1.
         22    1    1    0    0    0  0.20054338821E+01 -0.12273183685E+02  0.26902885621E+02  0.29638118320E+02  0.00000000000E+00 0. -1.
</event>
<event>
 5    1  0.1319298E-009  0.9118800E+02  0.7818608E-02  0.1130116E+00
         25   -1    0    0    0    0  0.00000000000E+00  0.00000000000E+00  0.99999998245E-14  0.12500000000E+03  0.12500000000E+03 0.  0.
        -13    1    3    3    0    0 -0.32863097773E+02  0.77216940041E+00  0.90959678363E+01  0.34107583259E+02  0.10566000000E+00 0.  1.
         23    2    1    0    0    0  0.27743280110E+02  0.71349352645E+01 -0.28689579357E+01  0.96210630224E+02  0.91802274242E+02 0.  0.
         13    1    3    3    0    0  0.60606377883E+02  0.63627658641E+01 -0.11964925772E+02  0.62103046965E+02  0.10566000000E+00 0. -1.
         22    1    1    0    0    0 -0.27743280110E+02 -0.71349352645E+01  0.28689579357E+01  0.28789369776E+02  0.00000000000E+00 0. -1.
</event>
<event>
 5    1  0.1319298E-009  0.9118800E+02  0.7818608E-02  0.1130116E+00
         25   -1    0    0    0    0  0.00000000000E+00  0.00000000000E+00  0.99999998245E-14  0.12500000000E+03  0.12500000000E+03 0.  0.
        -13    1    3    3    0    0 -0.12989089420E+02  0.33716884488E+02  0.82466906390E+01  0.37061621849E+02  0.10566000000E+00 0.  1.
         23    2    1    0    0    0 -0.11377888381E+02 -0.24674229587E+02  0.11341024226E+02  0.95556957015E+02  0.90907861342E+02 0.  0.
         13    1    3    3    0    0  0.16112010387E+01 -0.58391114076E+02  0.30943335867E+01  0.58495335166E+02  0.10566000000E+00 0. -1.
         22    1    1    0    0    0  0.11377888381E+02  0.24674229587E+02 -0.11341024226E+02  0.29443042985E+02  0.00000000000E+00 0. -1.
</event>
<event>
 5    1  0.1319298E-009  0.9118800E+02  0.7818608E-02  0.1130116E+00
         25   -1    0    0    0    0  0.00000000000E+00  0.00000000000E+00  0.99999998245E-14  0.12500000000E+03  0.12500000000E+03 0.  0.
        -13    1    3    3    0    0  0.41619328687E+01  0.23984479236E+02 -0.35282087116E+02  0.42865064618E+02  0.10566000000E+00 0.  1.
         23    2    1    0    0    0 -0.16955443465E+02  0.20143039221E+02  0.12950607013E+02  0.95658096276E+02  0.91046823497E+02 0.  0.
         13    1    3    3    0    0 -0.21117376333E+02 -0.38414400145E+01  0.48232694129E+02  0.52793031658E+02  0.10566000000E+00 0. -1.
         22    1    1    0    0    0  0.16955443465E+02 -0.20143039221E+02 -0.12950607013E+02  0.29341903724E+02  0.00000000000E+00 0. -1.
</event>
<event>
 5    1  0.1319298E-009  0.9118800E+02  0.7818608E-02  0.1130116E+00
         25   -1    0    0    0    0  0.00000000000E+00  0.00000000000E+00  0.99999998245E-14  0.12500000000E+03  0.12500000000E+03 0.  0.
        -13    1    3    3    0    0 -0.87025604220E+01  0.47950077611E+02 -0.19322917818E+02  0.52424524966E+02  0.10566000000E+00 0. -1.
         23    2    1    0    0    0 -0.15192946465E+02  0.62772423891E+01 -0.25102358218E+02  0.94994037552E+02  0.90130513079E+02 0.  0.
         13    1    3    3    0    0 -0.64903860433E+01 -0.41672835222E+02 -0.57794404005E+01  0.42569512586E+02  0.10566000000E+00 0.  1.
         22    1    1    0    0    0  0.15192946465E+02 -0.62772423891E+01  0.25102358218E+02  0.30005962448E+02  0.00000000000E+00 0. -1.
</event>
<event>
 5    1  0.1319298E-009  0.9118800E+02  0.7818608E-02  0.1130116E+00
         25   -1    0    0    0    0  0.00000000000E+00  0.00000000000E+00  0.99999998245E-14  0.12500000000E+03  0.12500000000E+03 0.  0.
        -13    1    3    3    0    0  0.79351121472E+00  0.40887792771E+01  0.34677687404E+02  0.34927080378E+02  0.10566000000E+00 0.  1.
         23    2    1    0    0    0 -0.16170537575E+02  0.18141707016E+01 -0.23974066415E+02  0.96025297909E+02  0.91549573878E+02 0.  0.
         13    1    3    3    0    0 -0.16964048790E+02 -0.22746085754E+01 -0.58651753818E+02  0.61098217531E+02  0.10566000000E+00 0. -1.
         22    1    1    0    0    0  0.16170537575E+02 -0.18141707016E+01  0.23974066415E+02  0.28974702091E+02  0.00000000000E+00 0. -1.
</event>
<event>
 5    1  0.1319298E-009  0.9118800E+02  0.7818608E-02  0.1130116E+00
         25   -1    0    0    0    0  0.00000000000E+00  0.00000000000E+00  0.99999998245E-14  0.12500000000E+03  0.12500000000E+03 0.  0.
        -13    1    3    3    0    0 -0.42347580181E+02 -0.14699998426E+02 -0.43507226028E+02  0.62468371049E+02  0.10566000000E+00 0. -1.
         23    2    1    0    0    0 -0.19458127074E+02 -0.81027367660E+01 -0.21242441715E+02  0.95074853679E+02  0.90242525562E+02 0.  0.
         13    1    3    3    0    0  0.22889453106E+02  0.65972616596E+01  0.22264784313E+02  0.32606482630E+02  0.10566000000E+00 0.  1.
         22    1    1    0    0    0  0.19458127074E+02  0.81027367660E+01  0.21242441715E+02  0.29925146321E+02  0.00000000000E+00 0. -1.
</event>
<event>
 5    1  0.1319298E-009  0.9118800E+02  0.7818608E-02  0.1130116E+00
         25   -1    0    0    0    0  0.00000000000E+00  0.00000000000E+00  0.99999998245E-14  0.12500000000E+03  0.12500000000E+03 0.  0.
        -13    1    3    3    0    0 -0.12534849296E+02  0.17957703187E+02 -0.57225680286E+02  0.61273087068E+02  0.10566000000E+00 0. -1.
         23    2    1    0    0    0 -0.12691570795E+01  0.16034002351E+02 -0.27202152962E+02  0.93398463378E+02  0.87889793745E+02 0.  0.
         13    1    3    3    0    0  0.11265692216E+02 -0.19237008359E+01  0.30023527325E+02  0.32125376310E+02  0.10566000000E+00 0.  1.
         22    1    1    0    0    0  0.12691570795E+01 -0.16034002351E+02  0.27202152962E+02  0.31601536622E+02  0.00000000000E+00 0. -1.
</event>
<event>
 5    1  0.1319298E-009  0.9118800E+02  0.7818608E-02  0.1130116E+00
         25   -1    0    0    0    0  0.00000000000E+00  0.00000000000E+00  0.99999998245E-14  0.12500000000E+03  0.12500000000E+03 0.  0.
        -13    1    3    3    0    0  0.33237713966E+02 -0.29449523528E+01  0.18564985952E+02  0.38184921651E+02  0.10566000000E+00 0. -1.
         23    2    1    0    0    0 -0.95601571793E+01 -0.25963879066E+02 -0.11176970169E+02  0.95159686938E+02  0.90359956477E+02 0.  0.
         13    1    3    3    0    0 -0.42797871145E+02 -0.23018926714E+02 -0.29741956121E+02  0.56974765287E+02  0.10566000000E+00 0.  1.
         22    1    1    0    0    0  0.95601571793E+01  0.25963879066E+02  0.11176970169E+02  0.29840313062E+02  0.00000000000E+00 0.  1.
</event>
<event>
 5    1  0.1319298E-009  0.9118800E+02  0.7818608E-02  0.1130116E+00
         25   -1    0    0    0    0  0.00000000000E+00  0.00000000000E+00  0.99999998245E-14  0.12500000000E+03  0.12500000000E+03 0.  0.
        -13    1    3    3    0    0  0.17628928469E+02 -0.14158838198E+02  0.44704051497E+02  0.50097057821E+02  0.10566000000E+00 0. -1.
         23    2    1    0    0    0 -0.10046963165E+02  0.12520516200E+02  0.29458532170E+02  0.91451379874E+02  0.85075525085E+02 0.  0.
         13    1    3    3    0    0 -0.27675891634E+02  0.26679354398E+02 -0.15245519327E+02  0.41354322053E+02  0.10566000000E+00 0.  1.
         22    1    1    0    0    0  0.10046963165E+02 -0.12520516200E+02 -0.29458532170E+02  0.33548620126E+02  0.00000000000E+00 0. -1.
</event>
<event>
 5    1  0.1319298E-009  0.9118800E+02  0.7818608E-02  0.1130116E+00
         25   -1    0    0    0    0  0.00000000000E+00  0.00000000000E+00  0.99999998245E-14  0.12500000000E+03  0.12500000000E+03 0.  0.
        -13    1    3    3    0    0 -0.10748134278E+02  0.33294036152E+02  0.25052409833E+02  0.43030798694E+02  0.10566000000E+00 0.  1.
         23    2    1    0    0    0 -0.39058552862E+02  0.17286383173E+02  0.24910261340E+02  0.75553961586E+02  0.57126967331E+02 0.  0.
         13    1    3    3    0    0 -0.28310418583E+02 -0.16007652979E+02 -0.14214849319E+00  0.32523162892E+02  0.10566000000E+00 0. -1.
         22    1    1    0    0    0  0.39058552862E+02 -0.17286383173E+02 -0.24910261340E+02  0.49446038414E+02  0.00000000000E+00 0.  1.
</event>
<event>
 5    1  0.1319298E-009  0.9118800E+02  0.7818608E-02  0.1130116E+00
         25   -1    0    0    0    0  0.00000000000E+00  0.00000000000E+00  0.99999998245E-14  0.12500000000E+03  0.12500000000E+03 0.  0.
        -13    1    3    3    0    0  0.20783905167E+01 -0.14658849729E+01 -0.36551666661E+02  0.36640196855E+02  0.10566000000E+00 0.  1.
         23    2    1    0    0    0 -0.18280380746E+02 -0.39854928163E+01  0.20486659023E+02  0.97255456913E+02  0.93214077414E+02 0.  0.
         13    1    3    3    0    0 -0.20358771263E+02 -0.25196078435E+01  0.57038325683E+02  0.60615260057E+02  0.10566000000E+00 0. -1.
         22    1    1    0    0    0  0.18280380746E+02  0.39854928163E+01 -0.20486659023E+02  0.27744543087E+02  0.00000000000E+00 0. -1.
</event>
<event>
 5    1  0.1319298E-009  0.9118800E+02  0.7818608E-02  0.1130116E+00
         25   -1    0    0    0    0  0.00000000000E+00  0.00000000000E+00  0.99999998245E-14  0.12500000000E+03  0.12500000000E+03 0.  0.
        -13    1    3    3    0    0 -0.46171411565E+02  0.13208950546E+02  0.13088389240E+02  0.49775422824E+02  0.10566000000E+00 0.  1.
         23    2    1    0    0    0 -0.24229170528E+02 -0.21908283284E+02  0.54365126790E+01  0.91885331784E+02  0.85710751636E+02 0.  0.
         13    1    3    3    0    0  0.21942241036E+02 -0.35117233831E+02 -0.76518765609E+01  0.42109908959E+02  0.10566000000E+00 0. -1.
         22    1    1    0    0    0  0.24229170528E+02  0.21908283284E+02 -0.54365126790E+01  0.33114668216E+02  0.00000000000E+00 0.  1.
</event>
<event>
 5    1  0.1319298E-009  0.9118800E+02  0.7818608E-02  0.1130116E+00
         25   -1    0    0    0    0  0.00000000000E+00  0.00000000000E+00  0.99999998245E-14  0.12500000000E+03  0.12500000000E+03 0.  0.
        -13    1    3    3    0    0  0.15538816100E+02  0.33638198889E+02  0.28701972034E+02  0.46870007392E+02  0.10566000000E+00 0.  1.
         23    2    1    0    0    0  0.53165354313E+01  0.28970821510E+02 -0.14966335161E+02  0.91961155648E+02  0.85821261422E+02 0.  0.
         13    1    3    3    0    0 -0.10222280668E+02 -0.46673773792E+01 -0.43668307196E+02  0.45091148256E+02  0.10566000000E+00 0. -1.
         22    1    1    0    0    0 -0.53165354313E+01 -0.28970821510E+02  0.14966335161E+02  0.33038844352E+02  0.00000000000E+00 0.  1.
</event>
<event>
 5    1  0.1319298E-009  0.9118800E+02  0.7818608E-02  0.1130116E+00
         25   -1    0    0    0    0  0.00000000000E+00  0.00000000000E+00  0.99999998245E-14  0.12500000000E+03  0.12500000000E+03 0.  0.
        -13    1    3    3    0    0  0.49861569038E+02  0.14560684606E+02  0.54249315524E+01  0.52226723519E+02  0.10566000000E+00 0.  1.
         23    2    1    0    0    0  0.19682494716E+02 -0.14915601032E+02  0.15816614385E+02  0.95673543633E+02  0.91068029013E+02 0.  0.
         13    1    3    3    0    0 -0.30179074321E+02 -0.29476285639E+02  0.10391682833E+02  0.43446820115E+02  0.10566000000E+00 0. -1.
         22    1    1    0    0    0 -0.19682494716E+02  0.14915601032E+02 -0.15816614385E+02  0.29326456367E+02  0.00000000000E+00 0. -1.
</event>
<event>
 5    1  0.1319298E-009  0.9118800E+02  0.7818608E-02  0.1130116E+00
         25   -1    0    0    0    0  0.00000000000E+00  0.00000000000E+00  0.99999998245E-14  0.12500000000E+03  0.12500000000E+03 0.  0.
        -13    1    3    3    0    0  0.50434730259E+02 -0.83942803676E+01  0.28416558431E+02  0.58494768281E+02  0.10566000000E+00 0. -1.
         23    2    1    0    0    0  0.25015165684E+02  0.11479772834E+02  0.95823071762E+01  0.95856144570E+02  0.91318323148E+02 0.  0.
         13    1    3    3    0    0 -0.25419564575E+02  0.19874053201E+02 -0.18834251255E+02  0.37361376289E+02  0.10566000000E+00 0.  1.
         22    1    1    0    0    0 -0.25015165684E+02 -0.11479772834E+02 -0.95823071762E+01  0.29143855430E+02  0.00000000000E+00 0. -1.
</event>
<event>
 5    1  0.1319298E-009  0.9118800E+02  0.7818608E-02  0.1130116E+00
         25   -1    0    0    0    0  0.00000000000E+00  0.00000000000E+00  0.99999998245E-14  0.12500000000E+03  0.12500000000E+03 0.  0.
        -13    1    3    3    0    0  0.98424165478E+01 -0.22536102811E+02 -0.34696135026E+02  0.42527426952E+02  0.10566000000E+00 0. -1.
         23    2    1    0    0    0  0.82794058349E+01 -0.18507992881E+02  0.19484337374E+02  0.96880011303E+02  0.92709238081E+02 0.  0.
         13    1    3    3    0    0 -0.15630107129E+01  0.40281099307E+01  0.54180472399E+02  0.54352584350E+02  0.10566000000E+00 0.  1.
         22    1    1    0    0    0 -0.82794058349E+01  0.18507992881E+02 -0.19484337374E+02  0.28119988697E+02  0.00000000000E+00 0.  1.
</event>
<event>
 5    1  0.1319298E-009  0.9118800E+02  0.7818608E-02  0.1130116E+00
         25   -1    0    0    0    0  0.00000000000E+00  0.00000000000E+00  0.99999998245E-14  0.12500000000E+03  0.12500000000E+03 0.  0.
        -13    1    3    3    0    0  0.33636790157E+02 -0.47405654457E+02  0.63302651192E+01  0.58470617810E+02  0.10566000000E+00 0.  1.
         23    2    1    0    0    0  0.51794867007E+01 -0.23106691456E+02  0.15113723974E+02  0.96907813811E+02  0.92746716668E+02 0.  0.
         13    1    3    3    0    0 -0.28457303456E+02  0.24298963001E+02  0.87834588547E+01  0.38437196001E+02  0.10566000000E+00 0. -1.
         22    1    1    0    0    0 -0.51794867007E+01  0.23106691456E+02 -0.15113723974E+02  0.28092186189E+02  0.00000000000E+00 0.  1.
</event>
<event>
 5    1  0.1319298E-009  0.9118800E+02  0.7818608E-02  0.1130116E+00
         25   -1    0    0    0    0  0.00000000000E+00  0.00000000000E+00  0.99999998245E-14  0.12500000000E+03  0.12500000000E+03 0.  0.
        -13    1    3    3    0    0  0.13514796896E+02  0.26761598015E+02  0.18110885537E+02  0.35026392941E+02  0.10566000000E+00 0. -1.
         23    2    1    0    0    0  0.37692968482E+01 -0.29355916349E+02 -0.17604416818E+01  0.95350774405E+02  0.90623912967E+02 0.  0.
         13    1    3    3    0    0 -0.97455000481E+01 -0.56117514364E+02 -0.19871327219E+02  0.60324381465E+02  0.10566000000E+00 0.  1.
         22    1    1    0    0    0 -0.37692968482E+01  0.29355916349E+02  0.17604416818E+01  0.29649225595E+02  0.00000000000E+00 0.  1.
</event>
<event>
 5    1  0.1319298E-009  0.9118800E+02  0.7818608E-02  0.1130116E+00
         25   -1    0    0    0    0  0.00000000000E+00  0.00000000000E+00  0.99999998245E-14  0.12500000000E+03  0.12500000000E+03 0.  0.
        -13    1    3    3    0    0 -0.57430425528E+02  0.24377503250E+02 -0.13485267393E+01  0.62404696373E+02  0.10566000000E+00 0. -1.
         23    2    1    0    0    0 -0.26409910601E+02  0.89016896299E+01 -0.17709566513E+01  0.97074031016E+02  0.92970467107E+02 0.  0.
         13    1    3    3    0    0  0.31020514927E+02 -0.15475813620E+02 -0.42242991197E+00  0.34669334643E+02  0.10566000000E+00 0.  1.
         22    1    1    0    0    0  0.26409910601E+02 -0.89016896299E+01  0.17709566513E+01  0.27925968984E+02  0.00000000000E+00 0. -1.
</event>
<event>
 5    1  0.1319298E-009  0.9118800E+02  0.7818608E-02  0.1130116E+00
         25   -1    0    0    0    0  0.00000000000E+00  0.00000000000E+00  0.99999998245E-14  0.12500000000E+03  0.12500000000E+03 0.  0.
        -13    1    3    3    0    0  0.39035190925E+02 -0.18590108890E+02 -0.13686075715E+02  0.45350392629E+02  0.10566000000E+00 0.  1.
         23    2    1    0    0    0  0.13760724155E+02  0.24678828114E+02 -0.68600369602E+01  0.95923167410E+02  0.91410020526E+02 0.  0.
         13    1    3    3    0    0 -0.25274466770E+02  0.43268937004E+02  0.68260387543E+01  0.50572774781E+02  0.10566000000E+00 0. -1.
         22    1    1    0    0    0 -0.13760724155E+02 -0.24678828114E+02  0.68600369602E+01  0.29076832590E+02  0.00000000000E+00 0. -1.
</event>
<event>
 5    1  0.1319298E-009  0.9118800E+02  0.7818608E-02  0.1130116E+00
         25   -1    0    0    0    0  0.00000000000E+00  0.00000000000E+00  0.99999998245E-14  0.12500000000E+03  0.12500000000E+03 0.  0.
        -13    1    3    3    0    0 -0.25848818405E+02 -0.44649927476E+02 -0.12835029963E+01  0.51608487485E+02  0.10566000000E+00 0. -1.
         23    2    1    0    0    0 -0.12021185622E+02 -0.10314958905E+02 -0.24880446233E+02  0.95505188834E+02  0.90836651240E+02 0.  0.
         13    1    3    3    0    0  0.13827632783E+02  0.34334968572E+02 -0.23596943237E+02  0.43896701349E+02  0.10566000000E+00 0.  1.
         22    1    1    0    0    0  0.12021185622E+02  0.10314958905E+02  0.24880446233E+02  0.29494811166E+02  0.00000000000E+00 0. -1.
</event>
<event>
 5    1  0.1319298E-009  0.9118800E+02  0.7818608E-02  0.1130116E+00
         25   -1    0    0    0    0  0.00000000000E+00  0.00000000000E+00  0.99999998245E-14  0.12500000000E+03  0.12500000000E+03 0.  0.
        -13    1    3    3    0    0  0.13181396726E+00 -0.14154464439E+02  0.60091570632E+02  0.61736328556E+02  0.10566000000E+00 0. -1.
         23    2    1    0    0    0 -0.54455299358E+01 -0.21873591345E+01  0.27100728249E+02  0.97271173702E+02  0.93235151233E+02 0.  0.
         13    1    3    3    0    0 -0.55773439030E+01  0.11967105304E+02 -0.32990842383E+02  0.35534845146E+02  0.10566000000E+00 0.  1.
         22    1    1    0    0    0  0.54455299358E+01  0.21873591345E+01 -0.27100728249E+02  0.27728826298E+02  0.00000000000E+00 0. -1.
</event>
<event>
 5    1  0.1319298E-009  0.9118800E+02  0.7818608E-02  0.1130116E+00
         25   -1    0    0    0    0  0.00000000000E+00  0.00000000000E+00  0.99999998245E-14  0.12500000000E+03  0.12500000000E+03 0.  0.
        -13    1    3    3    0    0  0.23365532592E+02  0.17631670386E+02  0.15920992179E+02  0.33321360566E+02  0.10566000000E+00 0. -1.
         23    2    1    0    0    0 -0.22725232191E+02 -0.12595507245E+02 -0.13413161957E+02  0.95759687167E+02  0.91186192989E+02 0.  0.
         13    1    3    3    0    0 -0.46090764784E+02 -0.30227177631E+02 -0.29334154136E+02  0.62438326601E+02  0.10566000000E+00 0.  1.
         22    1    1    0    0    0  0.22725232191E+02  0.12595507245E+02  0.13413161957E+02  0.29240312833E+02  0.00000000000E+00 0.  1.
</event>
<event>
 5    1  0.1319298E-009  0.9118800E+02  0.7818608E-02  0.1130116E+00
         25   -1    0    0    0    0  0.00000000000E+00  0.00000000000E+00  0.99999998245E-14  0.12500000000E+03  0.12500000000E+03 0.  0.
        -13    1    3    3    0    0  0.53055709057E+01  0.16346096743E+02  0.27189999486E+02  0.32165994426E+02  0.10566000000E+00 0. -1.
         23    2    1    0    0    0  0.48335822933E+01 -0.18965326958E+02 -0.23796974274E+02  0.94188587683E+02  0.89006443141E+02 0.  0.
         13    1    3    3    0    0 -0.47198861241E+00 -0.35311423700E+02 -0.50986973760E+02  0.62022593256E+02  0.10566000000E+00 0.  1.
         22    1    1    0    0    0 -0.48335822933E+01  0.18965326958E+02  0.23796974274E+02  0.30811412317E+02  0.00000000000E+00 0.  1.
</event>
<event>
 5    1  0.1319298E-009  0.9118800E+02  0.7818608E-02  0.1130116E+00
         25   -1    0    0    0    0  0.00000000000E+00  0.00000000000E+00  0.99999998245E-14  0.12500000000E+03  0.12500000000E+03 0.  0.
        -13    1    3    3    0    0 -0.39715578241E+02  0.25713026036E+02 -0.15536243100E+02  0.49798322027E+02  0.10566000000E+00 0.  1.
         23    2    1    0    0    0  0.55404566739E+00  0.24634732264E+02  0.10977070923E+02  0.98024583666E+02  0.94239831900E+02 0.  0.
         13    1    3    3    0    0  0.40269623909E+02 -0.10782937722E+01  0.26513314023E+02  0.48226261640E+02  0.10566000000E+00 0. -1.
         22    1    1    0    0    0 -0.55404566739E+00 -0.24634732264E+02 -0.10977070923E+02  0.26975416334E+02  0.00000000000E+00 0.  1.
</event>
<event>
 5    1  0.1319298E-009  0.9118800E+02  0.7818608E-02  0.1130116E+00
         25   -1    0    0    0    0  0.00000000000E+00  0.00000000000E+00  0.99999998245E-14  0.12500000000E+03  0.12500000000E+03 0.  0.
        -13    1    3    3    0    0 -0.72278851035E+01  0.55778963209E+02  0.25760888300E+02  0.61864121992E+02  0.10566000000E+00 0.  1.
         23    2    1    0    0    0 -0.94010188802E+01  0.24292445828E+02  0.10608760516E+02  0.96874426584E+02  0.92701707891E+02 0.  0.
         13    1    3    3    0    0 -0.21731337767E+01 -0.31486517381E+02 -0.15152127784E+02  0.35010304592E+02  0.10566000000E+00 0. -1.
         22    1    1    0    0    0  0.94010188802E+01 -0.24292445828E+02 -0.10608760516E+02  0.28125573416E+02  0.00000000000E+00 0.  1.
</event>
<event>
 5    1  0.1319298E-009  0.9118800E+02  0.7818608E-02  0.1130116E+00
         25   -1    0    0    0    0  0.00000000000E+00  0.00000000000E+00  0.99999998245E-14  0.12500000000E+03  0.12500000000E+03 0.  0.
        -13    1    3    3    0    0  0.46535904673E+01  0.40210960534E+02  0.29065940962E+01  0.40583699987E+02  0.10566000000E+00 0. -1.
         23    2    1    0    0    0  0.21703224747E+02 -0.99169176319E+01 -0.15392172375E+02  0.96604680136E+02  0.92337262436E+02 0.  0.
         13    1    3    3    0    0  0.17049634280E+02 -0.50127878166E+02 -0.18298766471E+02  0.56020980150E+02  0.10566000000E+00 0.  1.
         22    1    1    0    0    0 -0.21703224747E+02  0.99169176319E+01  0.15392172375E+02  0.28395319864E+02  0.00000000000E+00 0.  1.
</event>
<event>
 5    1  0.1319298E-009  0.9118800E+02  0.7818608E-02  0.1130116E+00
         25   -1    0    0    0    0  0.00000000000E+00  0.00000000000E+00  0.99999998245E-14  0.12500000000E+03  0.12500000000E+03 0.  0.
        -13    1    3    3    0    0 -0.42477756428E+02  0.19615687509E+02 -0.37269940417E+02  0.59818012424E+02  0.10566000000E+00 0. -1.
         23    2    1    0    0    0 -0.26573886457E+02  0.86434954605E+01 -0.62470287932E+01  0.96365984844E+02  0.92013565364E+02 0.  0.
         13    1    3    3    0    0  0.15903869971E+02 -0.10972192049E+02  0.31022911623E+02  0.36547972420E+02  0.10566000000E+00 0.  1.
         22    1    1    0    0    0  0.26573886457E+02 -0.86434954605E+01  0.62470287932E+01  0.28634015156E+02  0.00000000000E+00 0. -1.
</event>
<event>
 5    1  0.1319298E-009  0.9118800E+02  0.7818608E-02  0.1130116E+00
         25   -1    0    0    0    0  0.00000000000E+00  0.00000000000E+00  0.99999998245E-14  0.12500000000E+03  0.12500000000E+03 0.  0.
        -13    1    3    3    0    0 -0.23273608702E+02  0.33854656815E+02 -0.23087471007E+02  0.47125801124E+02  0.10566000000E+00 0.  1.
         23    2    1    0    0    0  0.95791246984E+01  0.27021240739E+02  0.10371572459E+02  0.94512681385E+02  0.89460440118E+02 0.  0.
         13    1    3    3    0    0  0.32852733400E+02 -0.68334160756E+01  0.33459043466E+02  0.47386880261E+02  0.10566000000E+00 0. -1.
         22    1    1    0    0    0 -0.95791246984E+01 -0.27021240739E+02 -0.10371572459E+02  0.30487318615E+02  0.00000000000E+00 0.  1.
</event>
<event>
 5    1  0.1319298E-009  0.9118800E+02  0.7818608E-02  0.1130116E+00
         25   -1    0    0    0    0  0.00000000000E+00  0.00000000000E+00  0.99999998245E-14  0.12500000000E+03  0.12500000000E+03 0.  0.
        -13    1    3    3    0    0 -0.31868025294E+02  0.78602063720E+01  0.50109341420E+02  0.59902513653E+02  0.10566000000E+00 0. -1.
         23    2    1    0    0    0 -0.56909403112E+01  0.11971968677E+02  0.26398036112E+02  0.95460684737E+02  0.90775388649E+02 0.  0.
         13    1    3    3    0    0  0.26177084982E+02  0.41117623049E+01 -0.23711305308E+02  0.35558171085E+02  0.10566000000E+00 0.  1.
         22    1    1    0    0    0  0.56909403112E+01 -0.11971968677E+02 -0.26398036112E+02  0.29539315263E+02  0.00000000000E+00 0. -1.
</event>
<event>
 5    1  0.1319298E-009  0.9118800E+02  0.7818608E-02  0.1130116E+00
         25   -1    0    0    0    0  0.00000000000E+00  0.00000000000E+00  0.99999998245E-14  0.12500000000E+03  0.12500000000E+03 0.  0.
        -13    1    3    3    0    0 -0.32867024547E+02  0.76830210546E+01 -0.23720795712E+02  0.41254786733E+02  0.10566000000E+00 0.  1.
         23    2    1    0    0    0  0.19569416930E+02 -0.22243558448E+01 -0.23127695123E+02  0.94622374688E+02  0.89613579729E+02 0.  0.
         13    1    3    3    0    0  0.52436441477E+02 -0.99073768994E+01  0.59310058890E+00  0.53367587955E+02  0.10566000000E+00 0. -1.
         22    1    1    0    0    0 -0.19569416930E+02  0.22243558448E+01  0.23127695123E+02  0.30377625312E+02  0.00000000000E+00 0.  1.
</event>
<event>
 5    1  0.1319298E-009  0.9118800E+02  0.7818608E-02  0.1130116E+00
         25   -1    0    0    0    0  0.00000000000E+00  0.00000000000E+00  0.99999998245E-14  0.12500000000E+03  0.12500000000E+03 0.  0.
        -13    1    3    3    0    0 -0.27655309480E+02  0.21169850064E+02  0.46359568216E+02  0.57984475710E+02  0.10566000000E+00 0.  1.
         23    2    1    0    0    0  0.47247233331E+01  0.10715335703E+02  0.33628102279E+01  0.11281599727E+03  0.11215613812E+03 0.  0.
         13    1    3    3    0    0  0.32380032813E+02 -0.10454514361E+02 -0.42996757988E+02  0.54831521564E+02  0.10566000000E+00 0. -1.
         22    1    1    0    0    0 -0.47247233331E+01 -0.10715335703E+02 -0.33628102279E+01  0.12184002727E+02  0.00000000000E+00 0.  1.
</event>
<event>
 5    1  0.1319298E-009  0.9118800E+02  0.7818608E-02  0.1130116E+00
         25   -1    0    0    0    0  0.00000000000E+00  0.00000000000E+00  0.99999998245E-14  0.12500000000E+03  0.12500000000E+03 0.  0.
        -13    1    3    3    0    0  0.28106263486E+02  0.10984604372E+02  0.49967127439E+02  0.58372498395E+02  0.10566000000E+00 0.  1.
         23    2    1    0    0    0  0.93637370813E+01 -0.10372408996E+02  0.25730370550E+02  0.95719999844E+02  0.91131772511E+02 0.  0.
         13    1    3    3    0    0 -0.18742526404E+02 -0.21357013367E+02 -0.24236756888E+02  0.37347501449E+02  0.10566000000E+00 0. -1.
         22    1    1    0    0    0 -0.93637370813E+01  0.10372408996E+02 -0.25730370550E+02  0.29280000156E+02  0.00000000000E+00 0.  1.
</event>
<event>
 5    1  0.1319298E-009  0.9118800E+02  0.7818608E-02  0.1130116E+00
         25   -1    0    0    0    0  0.00000000000E+00  0.00000000000E+00  0.99999998245E-14  0.12500000000E+03  0.12500000000E+03 0.  0.
        -13    1    3    3    0    0  0.23324640012E+02 -0.17256978803E+02  0.22219920575E+02  0.36545563116E+02  0.10566000000E+00 0. -1.
         23    2    1    0    0    0  0.47436931901E+00  0.28448464465E+02 -0.73895823077E+01  0.95603638263E+02  0.90972026282E+02 0.  0.
         13    1    3    3    0    0 -0.22850270693E+02  0.45705443268E+02 -0.29609502882E+02  0.59058075147E+02  0.10566000000E+00 0.  1.
         22    1    1    0    0    0 -0.47436931901E+00 -0.28448464465E+02  0.73895823077E+01  0.29396361737E+02  0.00000000000E+00 0.  1.
</event>
<event>
 5    1  0.1319298E-009  0.9118800E+02  0.7818608E-02  0.1130116E+00
         25   -1    0    0    0    0  0.00000000000E+00  0.00000000000E+00  0.99999998245E-14  0.12500000000E+03  0.12500000000E+03 0.  0.
        -13    1    3    3    0    0  0.36097535943E+02  0.19964228003E+02 -0.60781067716E+01  0.41696007566E+02  0.10566000000E+00 0.  1.
         23    2    1    0    0    0 -0.74950150768E+01 -0.38204510109E+01 -0.27841859283E+02  0.95914948423E+02  0.91398780657E+02 0.  0.
         13    1    3    3    0    0 -0.43592551020E+02 -0.23784679014E+02 -0.21763752511E+02  0.54218940857E+02  0.10566000000E+00 0. -1.
         22    1    1    0    0    0  0.74950150768E+01  0.38204510109E+01  0.27841859283E+02  0.29085051577E+02  0.00000000000E+00 0. -1.
</event>
<event>
 5    1  0.1319298E-009  0.9118800E+02  0.7818608E-02  0.1130116E+00
         25   -1    0    0    0    0  0.00000000000E+00  0.00000000000E+00  0.99999998245E-14  0.12500000000E+03  0.12500000000E+03 0.  0.
        -13    1    3    3    0    0  0.72900848294E+01  0.69747922815E+01 -0.58093350938E+02  0.58963053274E+02  0.10566000000E+00 0.  1.
         23    2    1    0    0    0 -0.10335759707E+02  0.88825117649E+01 -0.26991355874E+02  0.94763263472E+02  0.89809887362E+02 0.  0.
         13    1    3    3    0    0 -0.17625844536E+02  0.19077194834E+01  0.31101995064E+02  0.35800210198E+02  0.10566000000E+00 0. -1.
         22    1    1    0    0    0  0.10335759707E+02 -0.88825117649E+01  0.26991355874E+02  0.30236736528E+02  0.00000000000E+00 0.  1.
</event>
<event>
 5    1  0.1319298E-009  0.9118800E+02  0.7818608E-02  0.1130116E+00
         25   -1    0    0    0    0  0.00000000000E+00  0.00000000000E+00  0.99999998245E-14  0.12500000000E+03  0.12500000000E+03 0.  0.
        -13    1    3    3    0    0  0.20105824966E+02 -0.26869213391E+02  0.12423298245E+02  0.35784749952E+02  0.10566000000E+00 0.  1.
         23    2    1    0    0    0 -0.26910835501E+02  0.96693790854E+01  0.11930106364E+01  0.96379845674E+02  0.92032393310E+02 0.  0.
         13    1    3    3    0    0 -0.47016660467E+02  0.36538592477E+02 -0.11230287609E+02  0.60595095721E+02  0.10566000000E+00 0. -1.
         22    1    1    0    0    0  0.26910835501E+02 -0.96693790854E+01 -0.11930106364E+01  0.28620154326E+02  0.00000000000E+00 0. -1.
</event>
<event>
 5    1  0.1319298E-009  0.9118800E+02  0.7818608E-02  0.1130116E+00
         25   -1    0    0    0    0  0.00000000000E+00  0.00000000000E+00  0.99999998245E-14  0.12500000000E+03  0.12500000000E+03 0.  0.
        -13    1    3    3    0    0  0.57889965254E+02  0.17675752380E+02 -0.31195727436E+00  0.60529239056E+02  0.10566000000E+00 0. -1.
         23    2    1    0    0    0  0.20674529071E+02  0.17430456870E+02  0.24469380298E+01  0.97847753597E+02  0.94004991353E+02 0.  0.
         13    1    3    3    0    0 -0.37215436184E+02 -0.24529551050E+00  0.27588953042E+01  0.37318514541E+02  0.10566000000E+00 0.  1.
         22    1    1    0    0    0 -0.20674529071E+02 -0.17430456870E+02 -0.24469380298E+01  0.27152246403E+02  0.00000000000E+00 0. -1.
</event>
<event>
 5    1  0.1319298E-009  0.9118800E+02  0.7818608E-02  0.1130116E+00
         25   -1    0    0    0    0  0.00000000000E+00  0.00000000000E+00  0.99999998245E-14  0.12500000000E+03  0.12500000000E+03 0.  0.
        -13    1    3    3    0    0  0.46670338151E+01  0.51882745557E+02  0.26311800065E+02  0.58360281680E+02  0.10566000000E+00 0. -1.
         23    2    1    0    0    0  0.13898786163E+02  0.16964543053E+02  0.20569743920E+02  0.94931971419E+02  0.90044393799E+02 0.  0.
         13    1    3    3    0    0  0.92317523482E+01 -0.34918202504E+02 -0.57420561442E+01  0.36571689738E+02  0.10566000000E+00 0.  1.
         22    1    1    0    0    0 -0.13898786163E+02 -0.16964543053E+02 -0.20569743920E+02  0.30068028581E+02  0.00000000000E+00 0. -1.
</event>
<event>
 5    1  0.1319298E-009  0.9118800E+02  0.7818608E-02  0.1130116E+00
         25   -1    0    0    0    0  0.00000000000E+00  0.00000000000E+00  0.99999998245E-14  0.12500000000E+03  0.12500000000E+03 0.  0.
        -13    1    3    3    0    0  0.89456908342E+01  0.23311663692E+02  0.23947000201E+02  0.34596662140E+02  0.10566000000E+00 0.  1.
         23    2    1    0    0    0 -0.23123974462E+02 -0.26165049298E+01 -0.19601394277E+02  0.94573384174E+02  0.89545217871E+02 0.  0.
         13    1    3    3    0    0 -0.32069665297E+02 -0.25928168622E+02 -0.43548394478E+02  0.59976722034E+02  0.10566000000E+00 0. -1.
         22    1    1    0    0    0  0.23123974462E+02  0.26165049298E+01  0.19601394277E+02  0.30426615826E+02  0.00000000000E+00 0. -1.
</event>
<event>
 5    1  0.1319298E-009  0.9118800E+02  0.7818608E-02  0.1130116E+00
         25   -1    0    0    0    0  0.00000000000E+00  0.00000000000E+00  0.99999998245E-14  0.12500000000E+03  0.12500000000E+03 0.  0.
        -13    1    3    3    0    0  0.64073772538E+01  0.41805424851E+02 -0.33258951706E+02  0.53804433487E+02  0.10566000000E+00 0. -1.
         23    2    1    0    0    0 -0.65554460563E+01  0.25399055090E+01 -0.28753843865E+02  0.95399180248E+02  0.90690655869E+02 0.  0.
         13    1    3    3    0    0 -0.12962823310E+02 -0.39265519342E+02  0.45051078413E+01  0.41594746760E+02  0.10566000000E+00 0.  1.
         22    1    1    0    0    0  0.65554460563E+01 -0.25399055090E+01  0.28753843865E+02  0.29600819752E+02  0.00000000000E+00 0. -1.
</event>
<event>
 5    1  0.1319298E-009  0.9118800E+02  0.7818608E-02  0.1130116E+00
         25   -1    0    0    0    0  0.00000000000E+00  0.00000000000E+00  0.99999998245E-14  0.12500000000E+03  0.12500000000E+03 0.  0.
        -13    1    3    3    0    0 -0.62980559785E+01  0.56507225139E+01  0.48778244888E+02  0.49506812788E+02  0.10566000000E+00 0. -1.
         23    2    1    0    0    0 -0.10354042934E+02 -0.21815187952E+02  0.66633583965E+01  0.99949870747E+02  0.96759845425E+02 0.  0.
         13    1    3    3    0    0 -0.40559869559E+01 -0.27465910466E+02 -0.42114886492E+02  0.50443057958E+02  0.10566000000E+00 0.  1.
         22    1    1    0    0    0  0.10354042934E+02  0.21815187952E+02 -0.66633583965E+01  0.25050129253E+02  0.00000000000E+00 0. -1.
</event>
<event>
 5    1  0.1319298E-009  0.9118800E+02  0.7818608E-02  0.1130116E+00
         25   -1    0    0    0    0  0.00000000000E+00  0.00000000000E+00  0.99999998245E-14  0.12500000000E+03  0.12500000000E+03 0.  0.
        -13    1    3    3    0    0  0.24918396813E+02 -0.34354943766E+02  0.31734244726E+02  0.52993038347E+02  0.10566000000E+00 0. -1.
         23    2    1    0    0    0  0.59410757848E+01 -0.28632661414E+02 -0.55656311828E+01  0.95232535687E+02  0.90460676107E+02 0.  0.
         13    1    3    3    0    0 -0.18977321028E+02  0.57222823515E+01 -0.37299875909E+02  0.42239497340E+02  0.10566000000E+00 0.  1.
         22    1    1    0    0    0 -0.59410757848E+01  0.28632661414E+02  0.55656311828E+01  0.29767464313E+02  0.00000000000E+00 0.  1.
</event>
<event>
 5    1  0.1319298E-009  0.9118800E+02  0.7818608E-02  0.1130116E+00
         25   -1    0    0    0    0  0.00000000000E+00  0.00000000000E+00  0.99999998245E-14  0.12500000000E+03  0.12500000000E+03 0.  0.
        -13    1    3    3    0    0  0.39759541998E+02 -0.16622820697E+01 -0.30564429183E+02  0.50177483565E+02  0.10566000000E+00 0.  1.
         23    2    1    0    0    0  0.16466266062E+01  0.21190707423E+02 -0.19910936096E+02  0.95876077935E+02  0.91345604621E+02 0.  0.
         13    1    3    3    0    0 -0.38112915392E+02  0.22852989492E+02  0.10653493087E+02  0.45698594370E+02  0.10566000000E+00 0. -1.
         22    1    1    0    0    0 -0.16466266062E+01 -0.21190707423E+02  0.19910936096E+02  0.29123922065E+02  0.00000000000E+00 0. -1.
</event>
<event>
 5    1  0.1319298E-009  0.9118800E+02  0.7818608E-02  0.1130116E+00
         25   -1    0    0    0    0  0.00000000000E+00  0.00000000000E+00  0.99999998245E-14  0.12500000000E+03  0.12500000000E+03 0.  0.
        -13    1    3    3    0    0 -0.21502665577E+02  0.38688374647E+02 -0.23842416664E+02  0.50275510502E+02  0.10566000000E+00 0.  1.
         23    2    1    0    0    0 -0.31778398607E+02  0.39203929309E+01 -0.13263428578E+01  0.92953232860E+02  0.87254273333E+02 0.  0.
         13    1    3    3    0    0 -0.10275733030E+02 -0.34767981717E+02  0.22516073807E+02  0.42677722358E+02  0.10566000000E+00 0. -1.
         22    1    1    0    0    0  0.31778398607E+02 -0.39203929309E+01  0.13263428578E+01  0.32046767140E+02  0.00000000000E+00 0.  1.
</event>
<event>
 5    1  0.1319298E-009  0.9118800E+02  0.7818608E-02  0.1130116E+00
         25   -1    0    0    0    0  0.00000000000E+00  0.00000000000E+00  0.99999998245E-14  0.12500000000E+03  0.12500000000E+03 0.  0.
        -13    1    3    3    0    0  0.23115248696E+02  0.13570455048E+02 -0.30116903055E+02  0.40317626246E+02  0.10566000000E+00 0. -1.
         23    2    1    0    0    0 -0.65237162883E+00 -0.28565055217E+02 -0.18039286690E+01  0.96370607290E+02  0.92019844721E+02 0.  0.
         13    1    3    3    0    0 -0.23767620325E+02 -0.42135510266E+02  0.28312974386E+02  0.56052981043E+02  0.10566000000E+00 0.  1.
         22    1    1    0    0    0  0.65237162883E+00  0.28565055217E+02  0.18039286690E+01  0.28629392710E+02  0.00000000000E+00 0. -1.
</event>
<event>
 5    1  0.1319298E-009  0.9118800E+02  0.7818608E-02  0.1130116E+00
         25   -1    0    0    0    0  0.00000000000E+00  0.00000000000E+00  0.99999998245E-14  0.12500000000E+03  0.12500000000E+03 0.  0.
        -13    1    3    3    0    0  0.10560749271E+02  0.22617897546E+02 -0.30612666820E+02  0.39499939854E+02  0.10566000000E+00 0.  1.
         23    2    1    0    0    0 -0.48797809559E+01  0.16427661522E+02  0.23388353293E+02  0.96005252286E+02  0.91522199883E+02 0.  0.
         13    1    3    3    0    0 -0.15440530227E+02 -0.61902360240E+01  0.54001020114E+02  0.56505312432E+02  0.10566000000E+00 0. -1.
         22    1    1    0    0    0  0.48797809559E+01 -0.16427661522E+02 -0.23388353293E+02  0.28994747714E+02  0.00000000000E+00 0. -1.
</event>
<event>
 5    1  0.1319298E-009  0.9118800E+02  0.7818608E-02  0.1130116E+00
         25   -1    0    0    0    0  0.00000000000E+00  0.00000000000E+00  0.99999998245E-14  0.12500000000E+03  0.12500000000E+03 0.  0.
        -13    1    3    3    0    0 -0.11253060548E+02 -0.40286967989E+02  0.11504177604E+02  0.43382351571E+02  0.10566000000E+00 0.  1.
         23    2    1    0    0    0 -0.33042052324E+02  0.20712473082E+01  0.62909375347E+01  0.91300694633E+02  0.84853837027E+02 0.  0.
         13    1    3    3    0    0 -0.21788991776E+02  0.42358215297E+02 -0.52132400695E+01  0.47918343062E+02  0.10566000000E+00 0. -1.
         22    1    1    0    0    0  0.33042052324E+02 -0.20712473082E+01 -0.62909375347E+01  0.33699305367E+02  0.00000000000E+00 0. -1.
</event>
<event>
 5    1  0.1319298E-009  0.9118800E+02  0.7818608E-02  0.1130116E+00
         25   -1    0    0    0    0  0.00000000000E+00  0.00000000000E+00  0.99999998245E-14  0.12500000000E+03  0.12500000000E+03 0.  0.
        -13    1    3    3    0    0  0.44691194011E+01 -0.15315985514E+01 -0.38073174264E+02  0.38365304442E+02  0.10566000000E+00 0.  1.
         23    2    1    0    0    0 -0.25005156387E+02  0.16167308836E+02  0.63655757844E+01  0.94550693341E+02  0.89513537162E+02 0.  0.
         13    1    3    3    0    0 -0.29474275788E+02  0.17698907387E+02  0.44438750048E+02  0.56185388900E+02  0.10566000000E+00 0. -1.
         22    1    1    0    0    0  0.25005156387E+02 -0.16167308836E+02 -0.63655757844E+01  0.30449306659E+02  0.00000000000E+00 0. -1.
</event>
<event>
 5    1  0.1319298E-009  0.9118800E+02  0.7818608E-02  0.1130116E+00
         25   -1    0    0    0    0  0.00000000000E+00  0.00000000000E+00  0.99999998245E-14  0.12500000000E+03  0.12500000000E+03 0.  0.
        -13    1    3    3    0    0  0.51200947280E+02  0.18673277578E+02  0.12511850194E+02  0.55917670348E+02  0.10566000000E+00 0. -1.
         23    2    1    0    0    0  0.13239323848E+02  0.25924024805E+02  0.78870213840E+01  0.94841421381E+02  0.89918603999E+02 0.  0.
         13    1    3    3    0    0 -0.37961623432E+02  0.72507472263E+01 -0.46248288097E+01  0.38923751033E+02  0.10566000000E+00 0.  1.
         22    1    1    0    0    0 -0.13239323848E+02 -0.25924024805E+02 -0.78870213840E+01  0.30158578619E+02  0.00000000000E+00 0.  1.
</event>
<event>
 5    1  0.1319298E-009  0.9118800E+02  0.7818608E-02  0.1130116E+00
         25   -1    0    0    0    0  0.00000000000E+00  0.00000000000E+00  0.99999998245E-14  0.12500000000E+03  0.12500000000E+03 0.  0.
        -13    1    3    3    0    0  0.33788390868E+02  0.82541985722E+00  0.10658014497E+01  0.33815436891E+02  0.10566000000E+00 0.  1.
         23    2    1    0    0    0 -0.16540727568E+02 -0.20533734553E+02 -0.19474677587E+02  0.92220540116E+02  0.86198231009E+02 0.  0.
         13    1    3    3    0    0 -0.50329118436E+02 -0.21359154410E+02 -0.20540479037E+02  0.58405103225E+02  0.10566000000E+00 0. -1.
         22    1    1    0    0    0  0.16540727568E+02  0.20533734553E+02  0.19474677587E+02  0.32779459884E+02  0.00000000000E+00 0. -1.
</event>
<event>
 5    1  0.1319298E-009  0.9118800E+02  0.7818608E-02  0.1130116E+00
         25   -1    0    0    0    0  0.00000000000E+00  0.00000000000E+00  0.99999998245E-14  0.12500000000E+03  0.12500000000E+03 0.  0.
        -13    1    3    3    0    0 -0.33034245398E+02 -0.45378635080E+02  0.55912758704E+01  0.56407051161E+02  0.10566000000E+00 0.  1.
         23    2    1    0    0    0 -0.26801769757E+02 -0.50707744271E+01 -0.90296428758E+00  0.97707822368E+02  0.93818737958E+02 0.  0.
         13    1    3    3    0    0  0.62324756409E+01  0.40307860653E+02 -0.64942401580E+01  0.41300771207E+02  0.10566000000E+00 0. -1.
         22    1    1    0    0    0  0.26801769757E+02  0.50707744271E+01  0.90296428758E+00  0.27292177632E+02  0.00000000000E+00 0.  1.
</event>
<event>
 5    1  0.1319298E-009  0.9118800E+02  0.7818608E-02  0.1130116E+00
         25   -1    0    0    0    0  0.00000000000E+00  0.00000000000E+00  0.99999998245E-14  0.12500000000E+03  0.12500000000E+03 0.  0.
        -13    1    3    3    0    0  0.79483512576E+01 -0.34018289828E+02 -0.98737159946E+01  0.36303192176E+02  0.10566000000E+00 0.  1.
         23    2    1    0    0    0  0.50366907247E+01  0.24188235943E+02 -0.16989362188E+02  0.95015379958E+02  0.90160107529E+02 0.  0.
         13    1    3    3    0    0 -0.29116605329E+01  0.58206525771E+02 -0.71156461937E+01  0.58712187783E+02  0.10566000000E+00 0. -1.
         22    1    1    0    0    0 -0.50366907247E+01 -0.24188235943E+02  0.16989362188E+02  0.29984620042E+02  0.00000000000E+00 0. -1.
</event>
<event>
 5    1  0.1319298E-009  0.9118800E+02  0.7818608E-02  0.1130116E+00
         25   -1    0    0    0    0  0.00000000000E+00  0.00000000000E+00  0.99999998245E-14  0.12500000000E+03  0.12500000000E+03 0.  0.
        -13    1    3    3    0    0 -0.19710884068E+01 -0.42135603742E+01  0.37229081722E+02  0.37518728262E+02  0.10566000000E+00 0.  1.
         23    2    1    0    0    0  0.14562412701E+01 -0.24192752230E+02 -0.16988758823E+02  0.95402232763E+02  0.90694863089E+02 0.  0.
         13    1    3    3    0    0  0.34273296769E+01 -0.19979191855E+02 -0.54217840545E+02  0.57883504501E+02  0.10566000000E+00 0. -1.
         22    1    1    0    0    0 -0.14562412701E+01  0.24192752230E+02  0.16988758823E+02  0.29597767237E+02  0.00000000000E+00 0. -1.
</event>
<event>
 5    1  0.1319298E-009  0.9118800E+02  0.7818608E-02  0.1130116E+00
         25   -1    0    0    0    0  0.00000000000E+00  0.00000000000E+00  0.99999998245E-14  0.12500000000E+03  0.12500000000E+03 0.  0.
        -13    1    3    3    0    0 -0.24187494461E+02 -0.47098690204E+02  0.13338099729E+02  0.54600710395E+02  0.10566000000E+00 0. -1.
         23    2    1    0    0    0 -0.21381747227E+02 -0.22579869604E+02 -0.13533617407E+02  0.91085572009E+02  0.84536341311E+02 0.  0.
         13    1    3    3    0    0  0.28057472338E+01  0.24518820600E+02 -0.26871717136E+02  0.36484861614E+02  0.10566000000E+00 0.  1.
         22    1    1    0    0    0  0.21381747227E+02  0.22579869604E+02  0.13533617407E+02  0.33914427991E+02  0.00000000000E+00 0. -1.
</event>
<event>
 5    1  0.1319298E-009  0.9118800E+02  0.7818608E-02  0.1130116E+00
         25   -1    0    0    0    0  0.00000000000E+00  0.00000000000E+00  0.99999998245E-14  0.12500000000E+03  0.12500000000E+03 0.  0.
        -13    1    3    3    0    0  0.15676412677E+02 -0.50055891768E+02  0.11825645387E+02  0.53769873238E+02  0.10566000000E+00 0.  1.
         23    2    1    0    0    0 -0.15365590836E+02 -0.21473620138E+02  0.12069788856E+02  0.95967302113E+02  0.91470353275E+02 0.  0.
         13    1    3    3    0    0 -0.31042003513E+02  0.28582271630E+02  0.24414346865E+00  0.42197428876E+02  0.10566000000E+00 0. -1.
         22    1    1    0    0    0  0.15365590836E+02  0.21473620138E+02 -0.12069788856E+02  0.29032697887E+02  0.00000000000E+00 0.  1.
</event>
<event>
 5    1  0.1319298E-009  0.9118800E+02  0.7818608E-02  0.1130116E+00
         25   -1    0    0    0    0  0.00000000000E+00  0.00000000000E+00  0.99999998245E-14  0.12500000000E+03  0.12500000000E+03 0.  0.
        -13    1    3    3    0    0 -0.83782286670E+01  0.94874828631E+00  0.27273085481E+02  0.28546929688E+02  0.10566000000E+00 0.  1.
         23    2    1    0    0    0  0.36137032167E+02  0.61512267294E+01 -0.10181756111E+02  0.86955409824E+02  0.78191127732E+02 0.  0.
         13    1    3    3    0    0  0.44515260834E+02  0.52024784431E+01 -0.37454841592E+02  0.58408480136E+02  0.10566000000E+00 0. -1.
         22    1    1    0    0    0 -0.36137032167E+02 -0.61512267294E+01  0.10181756111E+02  0.38044590176E+02  0.00000000000E+00 0. -1.
</event>
<event>
 5    1  0.1319298E-009  0.9118800E+02  0.7818608E-02  0.1130116E+00
         25   -1    0    0    0    0  0.00000000000E+00  0.00000000000E+00  0.99999998245E-14  0.12500000000E+03  0.12500000000E+03 0.  0.
        -13    1    3    3    0    0  0.45801229664E+02 -0.24194451076E+02  0.17846009803E+02  0.54786999658E+02  0.10566000000E+00 0. -1.
         23    2    1    0    0    0  0.13365692053E+02 -0.99837220138E+00  0.26237998780E+02  0.95536954484E+02  0.90880353328E+02 0.  0.
         13    1    3    3    0    0 -0.32435537611E+02  0.23196078874E+02  0.83919889767E+01  0.40749954826E+02  0.10566000000E+00 0.  1.
         22    1    1    0    0    0 -0.13365692053E+02  0.99837220138E+00 -0.26237998780E+02  0.29463045516E+02  0.00000000000E+00 0. -1.
</event>
<event>
 5    1  0.1319298E-009  0.9118800E+02  0.7818608E-02  0.1130116E+00
         25   -1    0    0    0    0  0.00000000000E+00  0.00000000000E+00  0.99999998245E-14  0.12500000000E+03  0.12500000000E+03 0.  0.
        -13    1    3    3    0    0  0.91822737666E+01  0.25486693500E+02  0.31878045097E+02  0.41834275664E+02  0.10566000000E+00 0.  1.
         23    2    1    0    0    0  0.28602745070E+02 -0.46555753341E+01 -0.74740805498E+01  0.95072532895E+02  0.90239310856E+02 0.  0.
         13    1    3    3    0    0  0.19420471304E+02 -0.30142268834E+02 -0.39352125647E+02  0.53238257232E+02  0.10566000000E+00 0. -1.
         22    1    1    0    0    0 -0.28602745070E+02  0.46555753341E+01  0.74740805498E+01  0.29927467105E+02  0.00000000000E+00 0. -1.
</event>
<event>
 5    1  0.1319298E-009  0.9118800E+02  0.7818608E-02  0.1130116E+00
         25   -1    0    0    0    0  0.00000000000E+00  0.00000000000E+00  0.99999998245E-14  0.12500000000E+03  0.12500000000E+03 0.  0.
        -13    1    3    3    0    0  0.58287037646E+01  0.32950982748E+02  0.39351822455E+02  0.51655765857E+02  0.10566000000E+00 0. -1.
         23    2    1    0    0    0  0.15953236503E+02 -0.70398938435E+01  0.23245253624E+02  0.95941306356E+02  0.91434821534E+02 0.  0.
         13    1    3    3    0    0  0.10124532739E+02 -0.39990876592E+02 -0.16106568831E+02  0.44285540499E+02  0.10566000000E+00 0.  1.
         22    1    1    0    0    0 -0.15953236503E+02  0.70398938435E+01 -0.23245253624E+02  0.29058693644E+02  0.00000000000E+00 0. -1.
</event>
<event>
 5    1  0.1319298E-009  0.9118800E+02  0.7818608E-02  0.1130116E+00
         25   -1    0    0    0    0  0.00000000000E+00  0.00000000000E+00  0.99999998245E-14  0.12500000000E+03  0.12500000000E+03 0.  0.
        -13    1    3    3    0    0  0.27701965704E+02  0.16873115968E+02  0.20996384546E+02  0.38638844113E+02  0.10566000000E+00 0. -1.
         23    2    1    0    0    0  0.55535853488E+01  0.28901071125E+01 -0.29134601674E+02  0.95200334833E+02  0.90416169507E+02 0.  0.
         13    1    3    3    0    0 -0.22148380355E+02 -0.13983008856E+02 -0.50130986220E+02  0.56561490720E+02  0.10566000000E+00 0.  1.
         22    1    1    0    0    0 -0.55535853488E+01 -0.28901071125E+01  0.29134601674E+02  0.29799665167E+02  0.00000000000E+00 0.  1.
</event>
<event>
 5    1  0.1319298E-009  0.9118800E+02  0.7818608E-02  0.1130116E+00
         25   -1    0    0    0    0  0.00000000000E+00  0.00000000000E+00  0.99999998245E-14  0.12500000000E+03  0.12500000000E+03 0.  0.
        -13    1    3    3    0    0 -0.17677196775E+02 -0.30580752199E+02 -0.26635003615E+02  0.44239126037E+02  0.10566000000E+00 0.  1.
         23    2    1    0    0    0 -0.85061587917E+01  0.17764350399E+02 -0.24597474715E+02  0.93488690207E+02  0.88018024017E+02 0.  0.
         13    1    3    3    0    0  0.91710379831E+01  0.48345102599E+02  0.20375289008E+01  0.49249564171E+02  0.10566000000E+00 0. -1.
         22    1    1    0    0    0  0.85061587917E+01 -0.17764350399E+02  0.24597474715E+02  0.31511309793E+02  0.00000000000E+00 0.  1.
</event>
<event>
 5    1  0.1319298E-009  0.9118800E+02  0.7818608E-02  0.1130116E+00
         25   -1    0    0    0    0  0.00000000000E+00  0.00000000000E+00  0.99999998245E-14  0.12500000000E+03  0.12500000000E+03 0.  0.
        -13    1    3    3    0    0  0.22841937948E+02  0.12097809210E+02 -0.26088746118E+02  0.36725263171E+02  0.10566000000E+00 0. -1.
         23    2    1    0    0    0  0.45371508932E+02  0.15902340267E+02  0.64569746169E+01  0.76490714601E+02  0.59141175590E+02 0.  0.
         13    1    3    3    0    0  0.22529570984E+02  0.38045310577E+01  0.32545720735E+02  0.39765451430E+02  0.10566000000E+00 0.  1.
         22    1    1    0    0    0 -0.45371508932E+02 -0.15902340267E+02 -0.64569746169E+01  0.48509285399E+02  0.00000000000E+00 0.  1.
</event>
<event>
 5    1  0.1319298E-009  0.9118800E+02  0.7818608E-02  0.1130116E+00
         25   -1    0    0    0    0  0.00000000000E+00  0.00000000000E+00  0.99999998245E-14  0.12500000000E+03  0.12500000000E+03 0.  0.
        -13    1    3    3    0    0  0.12504421635E+02  0.43721237616E+01 -0.50017396704E+02  0.51741928488E+02  0.10566000000E+00 0. -1.
         23    2    1    0    0    0 -0.19893326291E+02  0.67576168406E+01 -0.20854782860E+02  0.95397098378E+02  0.90687786359E+02 0.  0.
         13    1    3    3    0    0 -0.32397747926E+02  0.23854930790E+01  0.29162613844E+02  0.43655169890E+02  0.10566000000E+00 0.  1.
         22    1    1    0    0    0  0.19893326291E+02 -0.67576168406E+01  0.20854782860E+02  0.29602901622E+02  0.00000000000E+00 0.  1.
</event>
<event>
 5    1  0.1319298E-009  0.9118800E+02  0.7818608E-02  0.1130116E+00
         25   -1    0    0    0    0  0.00000000000E+00  0.00000000000E+00  0.99999998245E-14  0.12500000000E+03  0.12500000000E+03 0.  0.
        -13    1    3    3    0    0  0.10770922832E+02 -0.80551860904E+01 -0.38254051688E+02  0.40549752603E+02  0.10566000000E+00 0.  1.
         23    2    1    0    0    0  0.14200393139E+02  0.27900781412E+02  0.71731362385E+00  0.93685158350E+02  0.88296600090E+02 0.  0.
         13    1    3    3    0    0  0.34294703075E+01  0.35955967503E+02  0.38971365311E+02  0.53135405747E+02  0.10566000000E+00 0. -1.
         22    1    1    0    0    0 -0.14200393139E+02 -0.27900781412E+02 -0.71731362385E+00  0.31314841650E+02  0.00000000000E+00 0. -1.
</event>
<event>
 5    1  0.1319298E-009  0.9118800E+02  0.7818608E-02  0.1130116E+00
         25   -1    0    0    0    0  0.00000000000E+00  0.00000000000E+00  0.99999998245E-14  0.12500000000E+03  0.12500000000E+03 0.  0.
        -13    1    3    3    0    0  0.33541227302E+02 -0.47198967010E+02 -0.22370645282E+01  0.57946285795E+02  0.10566000000E+00 0.  1.
         23    2    1    0    0    0  0.15384977157E+02 -0.19562564597E+02  0.15709015214E+02  0.95569325276E+02  0.90924866340E+02 0.  0.
         13    1    3    3    0    0 -0.18156250145E+02  0.27636402413E+02  0.17946079742E+02  0.37623039481E+02  0.10566000000E+00 0. -1.
         22    1    1    0    0    0 -0.15384977157E+02  0.19562564597E+02 -0.15709015214E+02  0.29430674724E+02  0.00000000000E+00 0.  1.
</event>
<event>
 5    1  0.1319298E-009  0.9118800E+02  0.7818608E-02  0.1130116E+00
         25   -1    0    0    0    0  0.00000000000E+00  0.00000000000E+00  0.99999998245E-14  0.12500000000E+03  0.12500000000E+03 0.  0.
        -13    1    3    3    0    0 -0.34244020027E+02  0.27432201307E+01  0.31753577266E+02  0.46781182088E+02  0.10566000000E+00 0.  1.
         23    2    1    0    0    0 -0.20419059324E+01 -0.27115750604E+02  0.16075934103E+02  0.93410935944E+02  0.87907530883E+02 0.  0.
         13    1    3    3    0    0  0.32202114094E+02 -0.29858970735E+02 -0.15677643164E+02  0.46629753856E+02  0.10566000000E+00 0. -1.
         22    1    1    0    0    0  0.20419059324E+01  0.27115750604E+02 -0.16075934103E+02  0.31589064056E+02  0.00000000000E+00 0.  1.
</event>
<event>
 5    1  0.1319298E-009  0.9118800E+02  0.7818608E-02  0.1130116E+00
         25   -1    0    0    0    0  0.00000000000E+00  0.00000000000E+00  0.99999998245E-14  0.12500000000E+03  0.12500000000E+03 0.  0.
        -13    1    3    3    0    0  0.24350383337E+02 -0.27766458377E+02 -0.36848673157E+01  0.37114778601E+02  0.10566000000E+00 0.  1.
         23    2    1    0    0    0 -0.63017249037E+01  0.16477997946E+02 -0.24486975438E+02  0.94819739578E+02  0.89888458071E+02 0.  0.
         13    1    3    3    0    0 -0.30652108241E+02  0.44244456323E+02 -0.20802108122E+02  0.57704960976E+02  0.10566000000E+00 0. -1.
         22    1    1    0    0    0  0.63017249037E+01 -0.16477997946E+02  0.24486975438E+02  0.30180260422E+02  0.00000000000E+00 0. -1.
</event>
<event>
 5    1  0.1319298E-009  0.9118800E+02  0.7818608E-02  0.1130116E+00
         25   -1    0    0    0    0  0.00000000000E+00  0.00000000000E+00  0.99999998245E-14  0.12500000000E+03  0.12500000000E+03 0.  0.
        -13    1    3    3    0    0 -0.20610842081E+02 -0.36193345922E+02 -0.29097645115E+02  0.50807964096E+02  0.10566000000E+00 0. -1.
         23    2    1    0    0    0 -0.24044469318E+02 -0.11134063859E+02  0.94114855079E+01  0.96880968327E+02  0.92710528430E+02 0.  0.
         13    1    3    3    0    0 -0.34336272362E+01  0.25059282063E+02  0.38509130623E+02  0.46073004231E+02  0.10566000000E+00 0.  1.
         22    1    1    0    0    0  0.24044469318E+02  0.11134063859E+02 -0.94114855079E+01  0.28119031673E+02  0.00000000000E+00 0.  1.
</event>
<event>
 5    1  0.1319298E-009  0.9118800E+02  0.7818608E-02  0.1130116E+00
         25   -1    0    0    0    0  0.00000000000E+00  0.00000000000E+00  0.99999998245E-14  0.12500000000E+03  0.12500000000E+03 0.  0.
        -13    1    3    3    0    0 -0.15190749597E+02  0.64548392387E+01  0.40619068951E+02  0.43844540702E+02  0.10566000000E+00 0. -1.
         23    2    1    0    0    0 -0.46659311962E+01  0.25452880670E+02 -0.86720956714E+01  0.97708512469E+02  0.93819657414E+02 0.  0.
         13    1    3    3    0    0  0.10524818400E+02  0.18998041431E+02 -0.49291164623E+02  0.53863971767E+02  0.10566000000E+00 0.  1.
         22    1    1    0    0    0  0.46659311962E+01 -0.25452880670E+02  0.86720956714E+01  0.27291487531E+02  0.00000000000E+00 0.  1.
</event>
<event>
 5    1  0.1319298E-009  0.9118800E+02  0.7818608E-02  0.1130116E+00
         25   -1    0    0    0    0  0.00000000000E+00  0.00000000000E+00  0.99999998245E-14  0.12500000000E+03  0.12500000000E+03 0.  0.
        -13    1    3    3    0    0  0.11172306672E+02  0.45742933919E+02  0.87644572656E+01  0.47896381023E+02  0.10566000000E+00 0. -1.
         23    2    1    0    0    0 -0.23987962692E+02  0.15364743769E+02  0.11114407636E+02  0.94421776339E+02  0.89333331320E+02 0.  0.
         13    1    3    3    0    0 -0.35160269363E+02 -0.30378190151E+02  0.23499503699E+01  0.46525395316E+02  0.10566000000E+00 0.  1.
         22    1    1    0    0    0  0.23987962692E+02 -0.15364743769E+02 -0.11114407636E+02  0.30578223661E+02  0.00000000000E+00 0. -1.
</event>
<event>
 5    1  0.1319298E-009  0.9118800E+02  0.7818608E-02  0.1130116E+00
         25   -1    0    0    0    0  0.00000000000E+00  0.00000000000E+00  0.99999998245E-14  0.12500000000E+03  0.12500000000E+03 0.  0.
        -13    1    3    3    0    0  0.27094311897E+02  0.27906521773E+02 -0.12440686777E+02  0.40836962989E+02  0.10566000000E+00 0.  1.
         23    2    1    0    0    0 -0.22098275379E+02  0.12967386281E+02  0.10722067615E+02  0.97225018171E+02  0.93173250146E+02 0.  0.
         13    1    3    3    0    0 -0.49192587276E+02 -0.14939135492E+02  0.23162754392E+02  0.56388055182E+02  0.10566000000E+00 0. -1.
         22    1    1    0    0    0  0.22098275379E+02 -0.12967386281E+02 -0.10722067615E+02  0.27774981829E+02  0.00000000000E+00 0. -1.
</event>
<event>
 5    1  0.1319298E-009  0.9118800E+02  0.7818608E-02  0.1130116E+00
         25   -1    0    0    0    0  0.00000000000E+00  0.00000000000E+00  0.99999998245E-14  0.12500000000E+03  0.12500000000E+03 0.  0.
        -13    1    3    3    0    0 -0.40493611202E+02 -0.32444969977E+02  0.47875486057E+01  0.52108928320E+02  0.10566000000E+00 0.  1.
         23    2    1    0    0    0 -0.87880150317E+01 -0.10643197916E+02  0.25645015535E+02  0.95876578294E+02  0.91346289325E+02 0.  0.
         13    1    3    3    0    0  0.31705596171E+02  0.21801772061E+02  0.20857466929E+02  0.43767649974E+02  0.10566000000E+00 0. -1.
         22    1    1    0    0    0  0.87880150317E+01  0.10643197916E+02 -0.25645015535E+02  0.29123421706E+02  0.00000000000E+00 0.  1.
</event>
<event>
 5    1  0.1319298E-009  0.9118800E+02  0.7818608E-02  0.1130116E+00
         25   -1    0    0    0    0  0.00000000000E+00  0.00000000000E+00  0.99999998245E-14  0.12500000000E+03  0.12500000000E+03 0.  0.
        -13    1    3    3    0    0  0.49038466516E+02  0.35755319444E+02  0.11534131571E+02  0.61775896771E+02  0.10566000000E+00 0. -1.
         23    2    1    0    0    0  0.19868594768E+02  0.16104791068E+02  0.11524841912E+02  0.96947418399E+02  0.92800078662E+02 0.  0.
         13    1    3    3    0    0 -0.29169871748E+02 -0.19650528377E+02 -0.92896586704E-02  0.35171521628E+02  0.10566000000E+00 0.  1.
         22    1    1    0    0    0 -0.19868594768E+02 -0.16104791068E+02 -0.11524841912E+02  0.28052581601E+02  0.00000000000E+00 0. -1.
</event>
<event>
 5    1  0.1319298E-009  0.9118800E+02  0.7818608E-02  0.1130116E+00
         25   -1    0    0    0    0  0.00000000000E+00  0.00000000000E+00  0.99999998245E-14  0.12500000000E+03  0.12500000000E+03 0.  0.
        -13    1    3    3    0    0  0.42970501591E+02 -0.11933932101E+02 -0.42394982538E+02  0.61532336627E+02  0.10566000000E+00 0. -1.
         23    2    1    0    0    0  0.23097566826E+02 -0.14280425659E+02 -0.26039008029E+02  0.87377425800E+02  0.78862896536E+02 0.  0.
         13    1    3    3    0    0 -0.19872934765E+02 -0.23464935579E+01  0.16355974509E+02  0.25845089173E+02  0.10566000000E+00 0.  1.
         22    1    1    0    0    0 -0.23097566826E+02  0.14280425659E+02  0.26039008029E+02  0.37622574200E+02  0.00000000000E+00 0. -1.
</event>
<event>
 5    1  0.1319298E-009  0.9118800E+02  0.7818608E-02  0.1130116E+00
         25   -1    0    0    0    0  0.00000000000E+00  0.00000000000E+00  0.99999998245E-14  0.12500000000E+03  0.12500000000E+03 0.  0.
        -13    1    3    3    0    0  0.21489134290E+02  0.20768760377E+02  0.37671210060E+02  0.48085918225E+02  0.10566000000E+00 0.  1.
         23    2    1    0    0    0 -0.19815831121E+02  0.15983027312E+02  0.13457589198E+02  0.96203628144E+02  0.91792739560E+02 0.  0.
         13    1    3    3    0    0 -0.41304965411E+02 -0.47857330654E+01 -0.24213620862E+02  0.48117709919E+02  0.10566000000E+00 0. -1.
         22    1    1    0    0    0  0.19815831121E+02 -0.15983027312E+02 -0.13457589198E+02  0.28796371856E+02  0.00000000000E+00 0.  1.
</event>
<event>
 5    1  0.1319298E-009  0.9118800E+02  0.7818608E-02  0.1130116E+00
         25   -1    0    0    0    0  0.00000000000E+00  0.00000000000E+00  0.99999998245E-14  0.12500000000E+03  0.12500000000E+03 0.  0.
        -13    1    3    3    0    0 -0.21573349793E+02  0.23631012740E+02 -0.80489125680E+01  0.32994398646E+02  0.10566000000E+00 0.  1.
         23    2    1    0    0    0  0.22105949613E+02 -0.18559256085E+02  0.64386839741E+01  0.95426774845E+02  0.90728681856E+02 0.  0.
         13    1    3    3    0    0  0.43679299407E+02 -0.42190268826E+02  0.14487596542E+02  0.62432376199E+02  0.10566000000E+00 0. -1.
         22    1    1    0    0    0 -0.22105949613E+02  0.18559256085E+02 -0.64386839741E+01  0.29573225155E+02  0.00000000000E+00 0. -1.
</event>
<event>
 5    1  0.1319298E-009  0.9118800E+02  0.7818608E-02  0.1130116E+00
         25   -1    0    0    0    0  0.00000000000E+00  0.00000000000E+00  0.99999998245E-14  0.12500000000E+03  0.12500000000E+03 0.  0.
        -13    1    3    3    0    0 -0.53541815389E+02  0.31298176265E+01  0.74569266403E+01  0.54149225963E+02  0.10566000000E+00 0. -1.
         23    2    1    0    0    0 -0.18339163050E+02  0.21768012659E+02 -0.54477026715E+01  0.96019856093E+02  0.91542143427E+02 0.  0.
         13    1    3    3    0    0  0.35202652339E+02  0.18638195032E+02 -0.12904629312E+02  0.41870630129E+02  0.10566000000E+00 0.  1.
         22    1    1    0    0    0  0.18339163050E+02 -0.21768012659E+02  0.54477026715E+01  0.28980143907E+02  0.00000000000E+00 0. -1.
</event>
<event>
 5    1  0.1319298E-009  0.9118800E+02  0.7818608E-02  0.1130116E+00
         25   -1    0    0    0    0  0.00000000000E+00  0.00000000000E+00  0.99999998245E-14  0.12500000000E+03  0.12500000000E+03 0.  0.
        -13    1    3    3    0    0 -0.73546404324E+01 -0.38428339110E+02  0.30921761799E+02  0.49869775410E+02  0.10566000000E+00 0.  1.
         23    2    1    0    0    0  0.43741032748E+01 -0.27282818132E+02 -0.11347071077E+02  0.95129597146E+02  0.90318321986E+02 0.  0.
         13    1    3    3    0    0  0.11728743707E+02  0.11145520979E+02 -0.42268832876E+02  0.45259821736E+02  0.10566000000E+00 0. -1.
         22    1    1    0    0    0 -0.43741032748E+01  0.27282818132E+02  0.11347071077E+02  0.29870402854E+02  0.00000000000E+00 0.  1.
</event>
<event>
 5    1  0.1319298E-009  0.9118800E+02  0.7818608E-02  0.1130116E+00
         25   -1    0    0    0    0  0.00000000000E+00  0.00000000000E+00  0.99999998245E-14  0.12500000000E+03  0.12500000000E+03 0.  0.
        -13    1    3    3    0    0  0.39322127541E+02 -0.35953827853E+02  0.32069604159E+02  0.62188247496E+02  0.10566000000E+00 0.  1.
         23    2    1    0    0    0  0.15247792598E+02 -0.19668119887E+02  0.13369894836E+02  0.96749615810E+02  0.92533258628E+02 0.  0.
         13    1    3    3    0    0 -0.24074334943E+02  0.16285707966E+02 -0.18699709324E+02  0.34561368314E+02  0.10566000000E+00 0. -1.
         22    1    1    0    0    0 -0.15247792598E+02  0.19668119887E+02 -0.13369894836E+02  0.28250384190E+02  0.00000000000E+00 0.  1.
</event>
<event>
 5    1  0.1319298E-009  0.9118800E+02  0.7818608E-02  0.1130116E+00
         25   -1    0    0    0    0  0.00000000000E+00  0.00000000000E+00  0.99999998245E-14  0.12500000000E+03  0.12500000000E+03 0.  0.
        -13    1    3    3    0    0  0.29925416427E+02  0.24702429425E+02 -0.48433648601E+02  0.62061018753E+02  0.10566000000E+00 0. -1.
         23    2    1    0    0    0  0.14155349927E+02  0.17079219159E+02 -0.22107152152E+02  0.93682276026E+02  0.88292519539E+02 0.  0.
         13    1    3    3    0    0 -0.15770066500E+02 -0.76232102667E+01  0.26326496450E+02  0.31621257273E+02  0.10566000000E+00 0.  1.
         22    1    1    0    0    0 -0.14155349927E+02 -0.17079219159E+02  0.22107152152E+02  0.31317723974E+02  0.00000000000E+00 0. -1.
</event>
<event>
 5    1  0.1319298E-009  0.9118800E+02  0.7818608E-02  0.1130116E+00
         25   -1    0    0    0    0  0.00000000000E+00  0.00000000000E+00  0.99999998245E-14  0.12500000000E+03  0.12500000000E+03 0.  0.
        -13    1    3    3    0    0 -0.21969273549E+02 -0.23075674593E+02  0.26312059900E+02  0.41321560939E+02  0.10566000000E+00 0.  1.
         23    2    1    0    0    0 -0.13309422116E+02  0.40881503928E-02 -0.24117526346E+02  0.97453751420E+02  0.93479611975E+02 0.  0.
         13    1    3    3    0    0  0.86598514336E+01  0.23079762744E+02 -0.50429586246E+02  0.56132190481E+02  0.10566000000E+00 0. -1.
         22    1    1    0    0    0  0.13309422116E+02 -0.40881503928E-02  0.24117526346E+02  0.27546248580E+02  0.00000000000E+00 0. -1.
</event>
<event>
 5    1  0.1319298E-009  0.9118800E+02  0.7818608E-02  0.1130116E+00
         25   -1    0    0    0    0  0.00000000000E+00  0.00000000000E+00  0.99999998245E-14  0.12500000000E+03  0.12500000000E+03 0.  0.
        -13    1    3    3    0    0  0.55695266297E+02 -0.22108165380E+02 -0.93042410906E+01  0.60640858591E+02  0.10566000000E+00 0.  1.
         23    2    1    0    0    0  0.17663663074E+02 -0.17277405807E+02  0.76892382221E+00  0.10027946221E+03  0.97184698144E+02 0.  0.
         13    1    3    3    0    0 -0.38031603222E+02  0.48307595733E+01  0.10073164913E+02  0.39638603622E+02  0.10566000000E+00 0. -1.
         22    1    1    0    0    0 -0.17663663074E+02  0.17277405807E+02 -0.76892382221E+00  0.24720537787E+02  0.00000000000E+00 0.  1.
</event>
<event>
 5    1  0.1319298E-009  0.9118800E+02  0.7818608E-02  0.1130116E+00
         25   -1    0    0    0    0  0.00000000000E+00  0.00000000000E+00  0.99999998245E-14  0.12500000000E+03  0.12500000000E+03 0.  0.
        -13    1    3    3    0    0 -0.21079112177E+02  0.48252193551E+02  0.23184140604E+02  0.57533630967E+02  0.10566000000E+00 0.  1.
         23    2    1    0    0    0 -0.17324383818E+02  0.27125486361E+02 -0.44363504974E+01  0.92509886262E+02  0.86616808792E+02 0.  0.
         13    1    3    3    0    0  0.37547283590E+01 -0.21126707190E+02 -0.27620491101E+02  0.34976255295E+02  0.10566000000E+00 0. -1.
         22    1    1    0    0    0  0.17324383818E+02 -0.27125486361E+02  0.44363504974E+01  0.32490113738E+02  0.00000000000E+00 0.  1.
</event>
<event>
 5    1  0.1319298E-009  0.9118800E+02  0.7818608E-02  0.1130116E+00
         25   -1    0    0    0    0  0.00000000000E+00  0.00000000000E+00  0.99999998245E-14  0.12500000000E+03  0.12500000000E+03 0.  0.
        -13    1    3    3    0    0 -0.33848849392E+02  0.76269123991E+01 -0.23128313606E+02  0.41699453860E+02  0.10566000000E+00 0. -1.
         23    2    1    0    0    0 -0.19483730469E+01  0.32429411771E+02 -0.27622252109E+02  0.82356692003E+02  0.70456887533E+02 0.  0.
         13    1    3    3    0    0  0.31900476345E+02  0.24802499372E+02 -0.44939385029E+01  0.40657238143E+02  0.10566000000E+00 0.  1.
         22    1    1    0    0    0  0.19483730469E+01 -0.32429411771E+02  0.27622252109E+02  0.42643307997E+02  0.00000000000E+00 0.  1.
</event>
<event>
 5    1  0.1319298E-009  0.9118800E+02  0.7818608E-02  0.1130116E+00
         25   -1    0    0    0    0  0.00000000000E+00  0.00000000000E+00  0.99999998245E-14  0.12500000000E+03  0.12500000000E+03 0.  0.
        -13    1    3    3    0    0 -0.52309643883E+01 -0.51745699991E+02  0.33001209843E+01  0.52114128780E+02  0.10566000000E+00 0.  1.
         23    2    1    0    0    0  0.25457806661E+01 -0.25120252282E+02 -0.23371158689E+02  0.90594780449E+02  0.83807488401E+02 0.  0.
         13    1    3    3    0    0  0.77767450544E+01  0.26625447709E+02 -0.26671279674E+02  0.38480651668E+02  0.10566000000E+00 0. -1.
         22    1    1    0    0    0 -0.25457806661E+01  0.25120252282E+02  0.23371158689E+02  0.34405219551E+02  0.00000000000E+00 0.  1.
</event>
<event>
 5    1  0.1319298E-009  0.9118800E+02  0.7818608E-02  0.1130116E+00
         25   -1    0    0    0    0  0.00000000000E+00  0.00000000000E+00  0.99999998245E-14  0.12500000000E+03  0.12500000000E+03 0.  0.
        -13    1    3    3    0    0  0.10110074527E+02  0.10404381779E+02  0.41223367748E+02  0.43701738864E+02  0.10566000000E+00 0.  1.
         23    2    1    0    0    0 -0.12886686623E+02  0.25099699449E+02 -0.39813518864E+01  0.96505916976E+02  0.92203466551E+02 0.  0.
         13    1    3    3    0    0 -0.22996761150E+02  0.14695317670E+02 -0.45204719635E+02  0.52804178112E+02  0.10566000000E+00 0. -1.
         22    1    1    0    0    0  0.12886686623E+02 -0.25099699449E+02  0.39813518864E+01  0.28494083024E+02  0.00000000000E+00 0. -1.
</event>
<event>
 5    1  0.1319298E-009  0.9118800E+02  0.7818608E-02  0.1130116E+00
         25   -1    0    0    0    0  0.00000000000E+00  0.00000000000E+00  0.99999998245E-14  0.12500000000E+03  0.12500000000E+03 0.  0.
        -13    1    3    3    0    0 -0.48347171401E+02 -0.34150261598E+02  0.13081591714E+02  0.60620364198E+02  0.10566000000E+00 0.  1.
         23    2    1    0    0    0 -0.16562630485E+02 -0.23352311336E+02  0.81916837750E+00  0.96358732393E+02  0.92003712416E+02 0.  0.
         13    1    3    3    0    0  0.31784540916E+02  0.10797950262E+02 -0.12262423337E+02  0.35738368195E+02  0.10566000000E+00 0. -1.
         22    1    1    0    0    0  0.16562630485E+02  0.23352311336E+02 -0.81916837750E+00  0.28641267607E+02  0.00000000000E+00 0.  1.
</event>
<event>
 5    1  0.1319298E-009  0.9118800E+02  0.7818608E-02  0.1130116E+00
         25   -1    0    0    0    0  0.00000000000E+00  0.00000000000E+00  0.99999998245E-14  0.12500000000E+03  0.12500000000E+03 0.  0.
        -13    1    3    3    0    0 -0.22969819847E+02  0.23797577680E+01  0.28555279997E+02  0.36724529277E+02  0.10566000000E+00 0. -1.
         23    2    1    0    0    0  0.15905099020E+02  0.20181136180E+02 -0.12873426323E+02  0.96260209853E+02  0.91869758155E+02 0.  0.
         13    1    3    3    0    0  0.38874918867E+02  0.17801378412E+02 -0.41428706320E+02  0.59535680577E+02  0.10566000000E+00 0.  1.
         22    1    1    0    0    0 -0.15905099020E+02 -0.20181136180E+02  0.12873426323E+02  0.28739790147E+02  0.00000000000E+00 0.  1.
</event>
<event>
 5    1  0.1319298E-009  0.9118800E+02  0.7818608E-02  0.1130116E+00
         25   -1    0    0    0    0  0.00000000000E+00  0.00000000000E+00  0.99999998245E-14  0.12500000000E+03  0.12500000000E+03 0.  0.
        -13    1    3    3    0    0 -0.42405831193E+02 -0.15388053389E+02  0.70473336221E+01  0.45658764563E+02  0.10566000000E+00 0. -1.
         23    2    1    0    0    0 -0.14152265728E+02  0.25532348836E+02  0.60186116130E+00  0.95801546288E+02  0.91243556331E+02 0.  0.
         13    1    3    3    0    0  0.28253565465E+02  0.40920402226E+02 -0.64454724608E+01  0.50142781724E+02  0.10566000000E+00 0.  1.
         22    1    1    0    0    0  0.14152265728E+02 -0.25532348836E+02 -0.60186116130E+00  0.29198453712E+02  0.00000000000E+00 0. -1.
</event>
<event>
 5    1  0.1319298E-009  0.9118800E+02  0.7818608E-02  0.1130116E+00
         25   -1    0    0    0    0  0.00000000000E+00  0.00000000000E+00  0.99999998245E-14  0.12500000000E+03  0.12500000000E+03 0.  0.
        -13    1    3    3    0    0  0.20735221177E+02  0.13330487906E+02  0.26680285995E+02  0.36324924362E+02  0.10566000000E+00 0. -1.
         23    2    1    0    0    0 -0.54394806278E+01 -0.28575131871E+02 -0.56459136658E+01  0.95368893843E+02  0.90648902149E+02 0.  0.
         13    1    3    3    0    0 -0.26174701805E+02 -0.41905619778E+02 -0.32326199660E+02  0.59043969481E+02  0.10566000000E+00 0.  1.
         22    1    1    0    0    0  0.54394806278E+01  0.28575131871E+02  0.56459136658E+01  0.29631106157E+02  0.00000000000E+00 0.  1.
</event>
<event>
 5    1  0.1319298E-009  0.9118800E+02  0.7818608E-02  0.1130116E+00
         25   -1    0    0    0    0  0.00000000000E+00  0.00000000000E+00  0.99999998245E-14  0.12500000000E+03  0.12500000000E+03 0.  0.
        -13    1    3    3    0    0 -0.25279122028E+02  0.10939429470E+02 -0.32213802509E+02  0.42384494379E+02  0.10566000000E+00 0.  1.
         23    2    1    0    0    0  0.22456523834E+02 -0.70316253306E+01 -0.18114027955E+02  0.95303919009E+02  0.90559260996E+02 0.  0.
         13    1    3    3    0    0  0.47735645863E+02 -0.17971054801E+02  0.14099774554E+02  0.52919424629E+02  0.10566000000E+00 0. -1.
         22    1    1    0    0    0 -0.22456523834E+02  0.70316253306E+01  0.18114027955E+02  0.29696080991E+02  0.00000000000E+00 0. -1.
</event>
<event>
 5    1  0.1319298E-009  0.9118800E+02  0.7818608E-02  0.1130116E+00
         25   -1    0    0    0    0  0.00000000000E+00  0.00000000000E+00  0.99999998245E-14  0.12500000000E+03  0.12500000000E+03 0.  0.
        -13    1    3    3    0    0  0.34831860994E+02  0.74083367954E+01  0.47012396129E+02  0.58977271455E+02  0.10566000000E+00 0.  1.
         23    2    1    0    0    0  0.40162399036E+01 -0.39180704765E+01  0.26991209819E+02  0.97431777955E+02  0.93450224659E+02 0.  0.
         13    1    3    3    0    0 -0.30815621091E+02 -0.11326407272E+02 -0.20021186310E+02  0.38454506501E+02  0.10566000000E+00 0. -1.
         22    1    1    0    0    0 -0.40162399036E+01  0.39180704765E+01 -0.26991209819E+02  0.27568222045E+02  0.00000000000E+00 0.  1.
</event>
<event>
 5    1  0.1319298E-009  0.9118800E+02  0.7818608E-02  0.1130116E+00
         25   -1    0    0    0    0  0.00000000000E+00  0.00000000000E+00  0.99999998245E-14  0.12500000000E+03  0.12500000000E+03 0.  0.
        -13    1    3    3    0    0  0.28237379029E+02 -0.13762578022E+02 -0.14702984843E+02  0.34683527150E+02  0.10566000000E+00 0. -1.
         23    2    1    0    0    0 -0.26878934879E+02  0.50944336457E+01  0.68536876335E+01  0.96797102479E+02  0.92597384519E+02 0.  0.
         13    1    3    3    0    0 -0.55116313908E+02  0.18857011667E+02  0.21556672477E+02  0.62113575329E+02  0.10566000000E+00 0.  1.
         22    1    1    0    0    0  0.26878934879E+02 -0.50944336457E+01 -0.68536876335E+01  0.28202897521E+02  0.00000000000E+00 0.  1.
</event>
<event>
 5    1  0.1319298E-009  0.9118800E+02  0.7818608E-02  0.1130116E+00
         25   -1    0    0    0    0  0.00000000000E+00  0.00000000000E+00  0.99999998245E-14  0.12500000000E+03  0.12500000000E+03 0.  0.
        -13    1    3    3    0    0 -0.43154915680E+02 -0.23444802151E+02 -0.22480189057E+02  0.54012735158E+02  0.10566000000E+00 0.  1.
         23    2    1    0    0    0 -0.29437707949E+02  0.93109337865E+01 -0.45606464042E+01  0.93789879320E+02  0.88444727542E+02 0.  0.
         13    1    3    3    0    0  0.13717207731E+02  0.32755735937E+02  0.17919542652E+02  0.39777144161E+02  0.10566000000E+00 0. -1.
         22    1    1    0    0    0  0.29437707949E+02 -0.93109337865E+01  0.45606464042E+01  0.31210120680E+02  0.00000000000E+00 0.  1.
</event>
<event>
 5    1  0.1319298E-009  0.9118800E+02  0.7818608E-02  0.1130116E+00
         25   -1    0    0    0    0  0.00000000000E+00  0.00000000000E+00  0.99999998245E-14  0.12500000000E+03  0.12500000000E+03 0.  0.
        -13    1    3    3    0    0  0.19937926385E+02 -0.22388829613E+02 -0.42184703181E+02  0.51752690234E+02  0.10566000000E+00 0.  1.
         23    2    1    0    0    0  0.24096404429E+02 -0.18137299367E+02  0.48656825464E+00  0.94836527332E+02  0.89911800299E+02 0.  0.
         13    1    3    3    0    0  0.41584780436E+01  0.42515302454E+01  0.42671271436E+02  0.43083837098E+02  0.10566000000E+00 0. -1.
         22    1    1    0    0    0 -0.24096404429E+02  0.18137299367E+02 -0.48656825464E+00  0.30163472668E+02  0.00000000000E+00 0.  1.
</event>
<event>
 5    1  0.1319298E-009  0.9118800E+02  0.7818608E-02  0.1130116E+00
         25   -1    0    0    0    0  0.00000000000E+00  0.00000000000E+00  0.99999998245E-14  0.12500000000E+03  0.12500000000E+03 0.  0.
        -13    1    3    3    0    0  0.37489804472E+02  0.65090145765E+01 -0.22575174958E+02  0.44243670717E+02  0.10566000000E+00 0.  1.
         23    2    1    0    0    0  0.12013338422E+02  0.18413433640E+02  0.20007274238E+02  0.95273482193E+02  0.90517238957E+02 0.  0.
         13    1    3    3    0    0 -0.25476466050E+02  0.11904419064E+02  0.42582449197E+02  0.51029811476E+02  0.10566000000E+00 0. -1.
         22    1    1    0    0    0 -0.12013338422E+02 -0.18413433640E+02 -0.20007274238E+02  0.29726517807E+02  0.00000000000E+00 0. -1.
</event>
<event>
 5    1  0.1319298E-009  0.9118800E+02  0.7818608E-02  0.1130116E+00
         25   -1    0    0    0    0  0.00000000000E+00  0.00000000000E+00  0.99999998245E-14  0.12500000000E+03  0.12500000000E+03 0.  0.
        -13    1    3    3    0    0  0.49958981987E+01 -0.11094265408E+02 -0.31652357486E+02  0.33910538513E+02  0.10566000000E+00 0.  1.
         23    2    1    0    0    0  0.10215766350E+01  0.86014996152E+00  0.29056515822E+02  0.95912810577E+02  0.91395856823E+02 0.  0.
         13    1    3    3    0    0 -0.39743215637E+01  0.11954415370E+02  0.60708873309E+02  0.62002272064E+02  0.10566000000E+00 0. -1.
         22    1    1    0    0    0 -0.10215766350E+01 -0.86014996152E+00 -0.29056515822E+02  0.29087189423E+02  0.00000000000E+00 0. -1.
</event>
<event>
 5    1  0.1319298E-009  0.9118800E+02  0.7818608E-02  0.1130116E+00
         25   -1    0    0    0    0  0.00000000000E+00  0.00000000000E+00  0.99999998245E-14  0.12500000000E+03  0.12500000000E+03 0.  0.
        -13    1    3    3    0    0 -0.30551317337E+02 -0.18860110987E+02 -0.16635287803E+02  0.39570579245E+02  0.10566000000E+00 0.  1.
         23    2    1    0    0    0 -0.11974273638E+02  0.27515636999E+02 -0.18823249067E+02  0.89576727790E+02  0.82275038423E+02 0.  0.
         13    1    3    3    0    0  0.18577043699E+02  0.46375747986E+02 -0.21879612636E+01  0.50006148545E+02  0.10566000000E+00 0. -1.
         22    1    1    0    0    0  0.11974273638E+02 -0.27515636999E+02  0.18823249067E+02  0.35423272210E+02  0.00000000000E+00 0.  1.
</event>
<event>
 5    1  0.1319298E-009  0.9118800E+02  0.7818608E-02  0.1130116E+00
         25   -1    0    0    0    0  0.00000000000E+00  0.00000000000E+00  0.99999998245E-14  0.12500000000E+03  0.12500000000E+03 0.  0.
        -13    1    3    3    0    0 -0.18208605347E+02 -0.18027885586E+02  0.24060321350E+02  0.35149227515E+02  0.10566000000E+00 0.  1.
         23    2    1    0    0    0  0.22690133669E+02  0.18861459691E+02 -0.58253890532E+00  0.95488372136E+02  0.90813506892E+02 0.  0.
         13    1    3    3    0    0  0.40898739016E+02  0.36889345277E+02 -0.24642860255E+02  0.60339144622E+02  0.10566000000E+00 0. -1.
         22    1    1    0    0    0 -0.22690133669E+02 -0.18861459691E+02  0.58253890532E+00  0.29511627864E+02  0.00000000000E+00 0. -1.
</event>
<event>
 5    1  0.1319298E-009  0.9118800E+02  0.7818608E-02  0.1130116E+00
         25   -1    0    0    0    0  0.00000000000E+00  0.00000000000E+00  0.99999998245E-14  0.12500000000E+03  0.12500000000E+03 0.  0.
        -13    1    3    3    0    0  0.30962465486E+02 -0.13363356931E+01  0.53724447327E+02  0.62022475496E+02  0.10566000000E+00 0.  1.
         23    2    1    0    0    0  0.12073531450E+02  0.39017920648E+01  0.27021012172E+02  0.95148212084E+02  0.90344081273E+02 0.  0.
         13    1    3    3    0    0 -0.18888934035E+02  0.52381277579E+01 -0.26703435155E+02  0.33125736588E+02  0.10566000000E+00 0. -1.
         22    1    1    0    0    0 -0.12073531450E+02 -0.39017920648E+01 -0.27021012172E+02  0.29851787916E+02  0.00000000000E+00 0.  1.
</event>
<event>
 5    1  0.1319298E-009  0.9118800E+02  0.7818608E-02  0.1130116E+00
         25   -1    0    0    0    0  0.00000000000E+00  0.00000000000E+00  0.99999998245E-14  0.12500000000E+03  0.12500000000E+03 0.  0.
        -13    1    3    3    0    0 -0.46850563454E+02  0.16767732137E+01 -0.28482954122E+02  0.54855051763E+02  0.10566000000E+00 0.  1.
         23    2    1    0    0    0 -0.49727471749E+01  0.74005176515E+01 -0.26357003754E+02  0.97175774533E+02  0.93107162094E+02 0.  0.
         13    1    3    3    0    0  0.41877816279E+02  0.57237444378E+01  0.21259503686E+01  0.42320722769E+02  0.10566000000E+00 0. -1.
         22    1    1    0    0    0  0.49727471749E+01 -0.74005176515E+01  0.26357003754E+02  0.27824225467E+02  0.00000000000E+00 0.  1.
</event>
<event>
 5    1  0.1319298E-009  0.9118800E+02  0.7818608E-02  0.1130116E+00
         25   -1    0    0    0    0  0.00000000000E+00  0.00000000000E+00  0.99999998245E-14  0.12500000000E+03  0.12500000000E+03 0.  0.
        -13    1    3    3    0    0  0.14436545589E+02 -0.46234155184E+02 -0.15654831107E+02  0.50902807930E+02  0.10566000000E+00 0.  1.
         23    2    1    0    0    0  0.22098143741E+02 -0.18474978811E+01 -0.18620861882E+02  0.96043520545E+02  0.91574451329E+02 0.  0.
         13    1    3    3    0    0  0.76615981517E+01  0.44386657303E+02 -0.29660307754E+01  0.45140712615E+02  0.10566000000E+00 0. -1.
         22    1    1    0    0    0 -0.22098143741E+02  0.18474978811E+01  0.18620861882E+02  0.28956479455E+02  0.00000000000E+00 0.  1.
</event>
<event>
 5    1  0.1319298E-009  0.9118800E+02  0.7818608E-02  0.1130116E+00
         25   -1    0    0    0    0  0.00000000000E+00  0.00000000000E+00  0.99999998245E-14  0.12500000000E+03  0.12500000000E+03 0.  0.
        -13    1    3    3    0    0 -0.19887370887E+00  0.51769669583E+02 -0.33004789498E+02  0.61395973266E+02  0.10566000000E+00 0.  1.
         23    2    1    0    0    0  0.81222160505E+01  0.22282381575E+02 -0.13662640361E+02  0.97629529345E+02  0.93714365688E+02 0.  0.
         13    1    3    3    0    0  0.83210897593E+01 -0.29487288008E+02  0.19342149137E+02  0.36233556079E+02  0.10566000000E+00 0. -1.
         22    1    1    0    0    0 -0.81222160505E+01 -0.22282381575E+02  0.13662640361E+02  0.27370470655E+02  0.00000000000E+00 0.  1.
</event>
<event>
 5    1  0.1319298E-009  0.9118800E+02  0.7818608E-02  0.1130116E+00
         25   -1    0    0    0    0  0.00000000000E+00  0.00000000000E+00  0.99999998245E-14  0.12500000000E+03  0.12500000000E+03 0.  0.
        -13    1    3    3    0    0 -0.38496122235E+02  0.73586666071E+01 -0.28188039229E+02  0.48277097271E+02  0.10566000000E+00 0.  1.
         23    2    1    0    0    0  0.61615311826E+01  0.20468729156E+02 -0.20371984690E+02  0.95471181873E+02  0.90789842318E+02 0.  0.
         13    1    3    3    0    0  0.44657653417E+02  0.13110062549E+02  0.78160545391E+01  0.47194084601E+02  0.10566000000E+00 0. -1.
         22    1    1    0    0    0 -0.61615311826E+01 -0.20468729156E+02  0.20371984690E+02  0.29528818127E+02  0.00000000000E+00 0.  1.
</event>
<event>
 5    1  0.1319298E-009  0.9118800E+02  0.7818608E-02  0.1130116E+00
         25   -1    0    0    0    0  0.00000000000E+00  0.00000000000E+00  0.99999998245E-14  0.12500000000E+03  0.12500000000E+03 0.  0.
        -13    1    3    3    0    0  0.38225687468E+02  0.23168795599E+02 -0.50634333694E+01  0.44984950744E+02  0.10566000000E+00 0.  1.
         23    2    1    0    0    0 -0.10787129660E+02  0.27222795653E+02  0.52916521024E+01  0.95243583021E+02  0.90475940201E+02 0.  0.
         13    1    3    3    0    0 -0.49012817128E+02  0.40540000536E+01  0.10355085472E+02  0.50258632277E+02  0.10566000000E+00 0. -1.
         22    1    1    0    0    0  0.10787129660E+02 -0.27222795653E+02 -0.52916521024E+01  0.29756416979E+02  0.00000000000E+00 0.  1.
</event>
<event>
 5    1  0.1319298E-009  0.9118800E+02  0.7818608E-02  0.1130116E+00
         25   -1    0    0    0    0  0.00000000000E+00  0.00000000000E+00  0.99999998245E-14  0.12500000000E+03  0.12500000000E+03 0.  0.
        -13    1    3    3    0    0  0.47618664097E+02  0.12550027361E+02 -0.24301801530E+02  0.54914743728E+02  0.10566000000E+00 0.  1.
         23    2    1    0    0    0  0.28461129859E+02 -0.27910091570E+01  0.78319990909E+01  0.95349268900E+02  0.90621836359E+02 0.  0.
         13    1    3    3    0    0 -0.19157534238E+02 -0.15341036518E+02  0.32133800621E+02  0.40434525172E+02  0.10566000000E+00 0. -1.
         22    1    1    0    0    0 -0.28461129859E+02  0.27910091570E+01 -0.78319990909E+01  0.29650731100E+02  0.00000000000E+00 0.  1.
</event>
<event>
 5    1  0.1319298E-009  0.9118800E+02  0.7818608E-02  0.1130116E+00
         25   -1    0    0    0    0  0.00000000000E+00  0.00000000000E+00  0.99999998245E-14  0.12500000000E+03  0.12500000000E+03 0.  0.
        -13    1    3    3    0    0 -0.46282348336E+02 -0.18401535599E+02 -0.22844627907E+01  0.49858822831E+02  0.10566000000E+00 0.  1.
         23    2    1    0    0    0 -0.21408735690E+02  0.19006524946E+02  0.65252121905E+01  0.95637432869E+02  0.91018449873E+02 0.  0.
         13    1    3    3    0    0  0.24873612645E+02  0.37408060544E+02  0.88096749812E+01  0.45778610038E+02  0.10566000000E+00 0. -1.
         22    1    1    0    0    0  0.21408735690E+02 -0.19006524946E+02 -0.65252121905E+01  0.29362567131E+02  0.00000000000E+00 0.  1.
</event>
<event>
 5    1  0.1319298E-009  0.9118800E+02  0.7818608E-02  0.1130116E+00
         25   -1    0    0    0    0  0.00000000000E+00  0.00000000000E+00  0.99999998245E-14  0.12500000000E+03  0.12500000000E+03 0.  0.
        -13    1    3    3    0    0 -0.23298080826E+01 -0.34002089334E+02  0.16899196243E+02  0.38041609882E+02  0.10566000000E+00 0. -1.
         23    2    1    0    0    0  0.65455588231E+01  0.23414544806E+02  0.15519475740E+02  0.96156640695E+02  0.91728731451E+02 0.  0.
         13    1    3    3    0    0  0.88753669057E+01  0.57416634139E+02 -0.13797205023E+01  0.58115030812E+02  0.10566000000E+00 0.  1.
         22    1    1    0    0    0 -0.65455588231E+01 -0.23414544806E+02 -0.15519475740E+02  0.28843359305E+02  0.00000000000E+00 0.  1.
</event>
<event>
 5    1  0.1319298E-009  0.9118800E+02  0.7818608E-02  0.1130116E+00
         25   -1    0    0    0    0  0.00000000000E+00  0.00000000000E+00  0.99999998245E-14  0.12500000000E+03  0.12500000000E+03 0.  0.
        -13    1    3    3    0    0  0.67054423525E+01 -0.27759138484E+02  0.28562335497E+02  0.40389985140E+02  0.10566000000E+00 0.  1.
         23    2    1    0    0    0  0.16421216554E+02  0.22777748444E+02  0.80589349925E+01  0.95786499516E+02  0.91222940531E+02 0.  0.
         13    1    3    3    0    0  0.97157742019E+01  0.50536886928E+02 -0.20503400505E+02  0.55396514376E+02  0.10566000000E+00 0. -1.
         22    1    1    0    0    0 -0.16421216554E+02 -0.22777748444E+02 -0.80589349925E+01  0.29213500484E+02  0.00000000000E+00 0. -1.
</event>
<event>
 5    1  0.1319298E-009  0.9118800E+02  0.7818608E-02  0.1130116E+00
         25   -1    0    0    0    0  0.00000000000E+00  0.00000000000E+00  0.99999998245E-14  0.12500000000E+03  0.12500000000E+03 0.  0.
        -13    1    3    3    0    0  0.30485932238E+02 -0.41932090224E+02  0.21461330457E+02  0.56109643770E+02  0.10566000000E+00 0. -1.
         23    2    1    0    0    0 -0.44419829672E+01 -0.27157250606E+02  0.98560609782E+01  0.95770059679E+02  0.91200410743E+02 0.  0.
         13    1    3    3    0    0 -0.34927915205E+02  0.14774839617E+02 -0.11605269479E+02  0.39660415909E+02  0.10566000000E+00 0.  1.
         22    1    1    0    0    0  0.44419829672E+01  0.27157250606E+02 -0.98560609782E+01  0.29229940321E+02  0.00000000000E+00 0. -1.
</event>
<event>
 5    1  0.1319298E-009  0.9118800E+02  0.7818608E-02  0.1130116E+00
         25   -1    0    0    0    0  0.00000000000E+00  0.00000000000E+00  0.99999998245E-14  0.12500000000E+03  0.12500000000E+03 0.  0.
        -13    1    3    3    0    0  0.13174159813E+02 -0.43627021861E+02  0.44659116330E+01  0.45791167860E+02  0.10566000000E+00 0.  1.
         23    2    1    0    0    0  0.41763725286E+00 -0.66547857597E+01 -0.27748738469E+02  0.96461375629E+02  0.92143062176E+02 0.  0.
         13    1    3    3    0    0 -0.12756522560E+02  0.36972236101E+02 -0.32214650102E+02  0.50670207769E+02  0.10566000000E+00 0. -1.
         22    1    1    0    0    0 -0.41763725286E+00  0.66547857597E+01  0.27748738469E+02  0.28538624371E+02  0.00000000000E+00 0. -1.
</event>
<event>
 5    1  0.1319298E-009  0.9118800E+02  0.7818608E-02  0.1130116E+00
         25   -1    0    0    0    0  0.00000000000E+00  0.00000000000E+00  0.99999998245E-14  0.12500000000E+03  0.12500000000E+03 0.  0.
        -13    1    3    3    0    0  0.27776490198E+02 -0.95831500056E+01 -0.29977779443E+02  0.41976762573E+02  0.10566000000E+00 0. -1.
         23    2    1    0    0    0 -0.22422537904E+02 -0.14499349787E+02 -0.13772086087E+02  0.94955504572E+02  0.90077056696E+02 0.  0.
         13    1    3    3    0    0 -0.50199028102E+02 -0.49161997812E+01  0.16205693356E+02  0.52978741999E+02  0.10566000000E+00 0.  1.
         22    1    1    0    0    0  0.22422537904E+02  0.14499349787E+02  0.13772086087E+02  0.30044495428E+02  0.00000000000E+00 0.  1.
</event>
<event>
 5    1  0.1319298E-009  0.9118800E+02  0.7818608E-02  0.1130116E+00
         25   -1    0    0    0    0  0.00000000000E+00  0.00000000000E+00  0.99999998245E-14  0.12500000000E+03  0.12500000000E+03 0.  0.
        -13    1    3    3    0    0 -0.16509438745E+02  0.42769980783E+02 -0.41714332067E+01  0.46035256520E+02  0.10566000000E+00 0. -1.
         23    2    1    0    0    0 -0.28746725079E+02  0.80462654420E+01  0.19072459110E+02  0.89575781069E+02  0.82273600063E+02 0.  0.
         13    1    3    3    0    0 -0.12237286334E+02 -0.34723715341E+02  0.23243892317E+02  0.43540524549E+02  0.10566000000E+00 0.  1.
         22    1    1    0    0    0  0.28746725079E+02 -0.80462654420E+01 -0.19072459110E+02  0.35424218931E+02  0.00000000000E+00 0.  1.
</event>
<event>
 5    1  0.1319298E-009  0.9118800E+02  0.7818608E-02  0.1130116E+00
         25   -1    0    0    0    0  0.00000000000E+00  0.00000000000E+00  0.99999998245E-14  0.12500000000E+03  0.12500000000E+03 0.  0.
        -13    1    3    3    0    0 -0.11219839603E+01 -0.28628604851E+02 -0.21426179695E+02  0.35776363763E+02  0.10566000000E+00 0. -1.
         23    2    1    0    0    0  0.18330009541E+02 -0.12926079947E+01  0.25565375101E+02  0.93515901010E+02  0.88056659330E+02 0.  0.
         13    1    3    3    0    0  0.19451993501E+02  0.27335996856E+02  0.46991554796E+02  0.57739537247E+02  0.10566000000E+00 0.  1.
         22    1    1    0    0    0 -0.18330009541E+02  0.12926079947E+01 -0.25565375101E+02  0.31484098990E+02  0.00000000000E+00 0.  1.
</event>
<event>
 5    1  0.1319298E-009  0.9118800E+02  0.7818608E-02  0.1130116E+00
         25   -1    0    0    0    0  0.00000000000E+00  0.00000000000E+00  0.99999998245E-14  0.12500000000E+03  0.12500000000E+03 0.  0.
        -13    1    3    3    0    0  0.36866914645E+02 -0.36980528850E+02 -0.18779768967E+02  0.55492520181E+02  0.10566000000E+00 0. -1.
         23    2    1    0    0    0 -0.45019020817E+00 -0.28582327379E+02 -0.97780324146E+01  0.94788048267E+02  0.89844376934E+02 0.  0.
         13    1    3    3    0    0 -0.37317104853E+02  0.83982014712E+01  0.90017365528E+01  0.39295528086E+02  0.10566000000E+00 0.  1.
         22    1    1    0    0    0  0.45019020817E+00  0.28582327379E+02  0.97780324146E+01  0.30211951733E+02  0.00000000000E+00 0. -1.
</event>
<event>
 5    1  0.1319298E-009  0.9118800E+02  0.7818608E-02  0.1130116E+00
         25   -1    0    0    0    0  0.00000000000E+00  0.00000000000E+00  0.99999998245E-14  0.12500000000E+03  0.12500000000E+03 0.  0.
        -13    1    3    3    0    0 -0.19614511604E+02 -0.43347506281E+02  0.20861753062E+02  0.51951508843E+02  0.10566000000E+00 0.  1.
         23    2    1    0    0    0 -0.24989296437E+02 -0.11694303124E+02 -0.91814443930E+01  0.95922163369E+02  0.91408647525E+02 0.  0.
         13    1    3    3    0    0 -0.53747848329E+01  0.31653203157E+02 -0.30043197455E+02  0.43970654526E+02  0.10566000000E+00 0. -1.
         22    1    1    0    0    0  0.24989296437E+02  0.11694303124E+02  0.91814443930E+01  0.29077836631E+02  0.00000000000E+00 0.  1.
</event>
<event>
 5    1  0.1319298E-009  0.9118800E+02  0.7818608E-02  0.1130116E+00
         25   -1    0    0    0    0  0.00000000000E+00  0.00000000000E+00  0.99999998245E-14  0.12500000000E+03  0.12500000000E+03 0.  0.
        -13    1    3    3    0    0  0.31638633961E+02 -0.53868600460E+01  0.15392531941E+02  0.35594418434E+02  0.10566000000E+00 0. -1.
         23    2    1    0    0    0 -0.14313645942E+02 -0.19136423395E+02 -0.18878812632E+02  0.94545234743E+02  0.89505914250E+02 0.  0.
         13    1    3    3    0    0 -0.45952279903E+02 -0.13749563349E+02 -0.34271344573E+02  0.58950816308E+02  0.10566000000E+00 0.  1.
         22    1    1    0    0    0  0.14313645942E+02  0.19136423395E+02  0.18878812632E+02  0.30454765257E+02  0.00000000000E+00 0.  1.
</event>
<event>
 5    1  0.1319298E-009  0.9118800E+02  0.7818608E-02  0.1130116E+00
         25   -1    0    0    0    0  0.00000000000E+00  0.00000000000E+00  0.99999998245E-14  0.12500000000E+03  0.12500000000E+03 0.  0.
        -13    1    3    3    0    0  0.20603330463E+01 -0.45494657204E+02 -0.27302232797E+02  0.53098322818E+02  0.10566000000E+00 0. -1.
         23    2    1    0    0    0  0.15318540004E+02 -0.17200506681E+02  0.83452812475E+01  0.10050186095E+03  0.97470330033E+02 0.  0.
         13    1    3    3    0    0  0.13258206958E+02  0.28294150523E+02  0.35647514045E+02  0.47403538129E+02  0.10566000000E+00 0.  1.
         22    1    1    0    0    0 -0.15318540004E+02  0.17200506681E+02 -0.83452812475E+01  0.24498139053E+02  0.00000000000E+00 0. -1.
</event>
<event>
 5    1  0.1319298E-009  0.9118800E+02  0.7818608E-02  0.1130116E+00
         25   -1    0    0    0    0  0.00000000000E+00  0.00000000000E+00  0.99999998245E-14  0.12500000000E+03  0.12500000000E+03 0.  0.
        -13    1    3    3    0    0  0.20870479352E+02 -0.41567131003E+01 -0.25122788036E+02  0.32924471369E+02  0.10566000000E+00 0. -1.
         23    2    1    0    0    0 -0.26122978460E+02  0.15140936385E+02  0.82405550343E+01  0.93702001573E+02  0.88320441537E+02 0.  0.
         13    1    3    3    0    0 -0.46993457812E+02  0.19297649485E+02  0.33363343071E+02  0.60777530204E+02  0.10566000000E+00 0.  1.
         22    1    1    0    0    0  0.26122978460E+02 -0.15140936385E+02 -0.82405550343E+01  0.31297998427E+02  0.00000000000E+00 0.  1.
</event>
<event>
 5    1  0.1319298E-009  0.9118800E+02  0.7818608E-02  0.1130116E+00
         25   -1    0    0    0    0  0.00000000000E+00  0.00000000000E+00  0.99999998245E-14  0.12500000000E+03  0.12500000000E+03 0.  0.
        -13    1    3    3    0    0  0.99651424317E+01 -0.25400251173E+02  0.37308739771E+02  0.46221532327E+02  0.10566000000E+00 0. -1.
         23    2    1    0    0    0 -0.22751072811E+02 -0.25100824457E+02  0.78999242336E+01  0.90213917936E+02  0.83237488453E+02 0.  0.
         13    1    3    3    0    0 -0.32716215243E+02  0.29942671629E+00 -0.29408815537E+02  0.43992385608E+02  0.10566000000E+00 0.  1.
         22    1    1    0    0    0  0.22751072811E+02  0.25100824457E+02 -0.78999242336E+01  0.34786082064E+02  0.00000000000E+00 0. -1.
</event>
<event>
 5    1  0.1319298E-009  0.9118800E+02  0.7818608E-02  0.1130116E+00
         25   -1    0    0    0    0  0.00000000000E+00  0.00000000000E+00  0.99999998245E-14  0.12500000000E+03  0.12500000000E+03 0.  0.
        -13    1    3    3    0    0 -0.15405191075E+01  0.52566365273E+02  0.15914002080E+02  0.54944176974E+02  0.10566000000E+00 0. -1.
         23    2    1    0    0    0 -0.21484781265E+02  0.18058235016E+02  0.98264494682E+01  0.95263578106E+02  0.90503560850E+02 0.  0.
         13    1    3    3    0    0 -0.19944262157E+02 -0.34508130257E+02 -0.60875526115E+01  0.40319401133E+02  0.10566000000E+00 0.  1.
         22    1    1    0    0    0  0.21484781265E+02 -0.18058235016E+02 -0.98264494682E+01  0.29736421894E+02  0.00000000000E+00 0. -1.
</event>
<event>
 5    1  0.1319298E-009  0.9118800E+02  0.7818608E-02  0.1130116E+00
         25   -1    0    0    0    0  0.00000000000E+00  0.00000000000E+00  0.99999998245E-14  0.12500000000E+03  0.12500000000E+03 0.  0.
        -13    1    3    3    0    0  0.26219216771E+02  0.17337974770E+02  0.15948181190E+02  0.35247813329E+02  0.10566000000E+00 0.  1.
         23    2    1    0    0    0 -0.19902559071E+02  0.56495268908E+01 -0.21023803006E+02  0.95503740839E+02  0.90834658637E+02 0.  0.
         13    1    3    3    0    0 -0.46121775842E+02 -0.11688447879E+02 -0.36971984196E+02  0.60255927509E+02  0.10566000000E+00 0. -1.
         22    1    1    0    0    0  0.19902559071E+02 -0.56495268908E+01  0.21023803006E+02  0.29496259161E+02  0.00000000000E+00 0. -1.
</event>
<event>
 5    1  0.1319298E-009  0.9118800E+02  0.7818608E-02  0.1130116E+00
         25   -1    0    0    0    0  0.00000000000E+00  0.00000000000E+00  0.99999998245E-14  0.12500000000E+03  0.12500000000E+03 0.  0.
        -13    1    3    3    0    0  0.26516216251E+02  0.17026328425E+02 -0.87166091033E+01  0.32695504618E+02  0.10566000000E+00 0. -1.
         23    2    1    0    0    0 -0.20867662818E+02 -0.16842145431E+02  0.13431368103E+02  0.95008020017E+02  0.90149902963E+02 0.  0.
         13    1    3    3    0    0 -0.47383879069E+02 -0.33868473856E+02  0.22147977207E+02  0.62312515399E+02  0.10566000000E+00 0.  1.
         22    1    1    0    0    0  0.20867662818E+02  0.16842145431E+02 -0.13431368103E+02  0.29991979983E+02  0.00000000000E+00 0.  1.
</event>
<event>
 5    1  0.1319298E-009  0.9118800E+02  0.7818608E-02  0.1130116E+00
         25   -1    0    0    0    0  0.00000000000E+00  0.00000000000E+00  0.99999998245E-14  0.12500000000E+03  0.12500000000E+03 0.  0.
        -13    1    3    3    0    0  0.46880827935E+02 -0.13484133968E+02  0.30470535852E+02  0.57516072675E+02  0.10566000000E+00 0.  1.
         23    2    1    0    0    0  0.27559791629E+02  0.11595985360E+01 -0.11870240277E+01  0.97390295014E+02  0.93394720158E+02 0.  0.
         13    1    3    3    0    0 -0.19321036307E+02  0.14643732504E+02 -0.31657559880E+02  0.39874222339E+02  0.10566000000E+00 0. -1.
         22    1    1    0    0    0 -0.27559791629E+02 -0.11595985360E+01  0.11870240277E+01  0.27609704986E+02  0.00000000000E+00 0.  1.
</event>
<event>
 5    1  0.1319298E-009  0.9118800E+02  0.7818608E-02  0.1130116E+00
         25   -1    0    0    0    0  0.00000000000E+00  0.00000000000E+00  0.99999998245E-14  0.12500000000E+03  0.12500000000E+03 0.  0.
        -13    1    3    3    0    0 -0.52562245150E+00 -0.43542571651E+02 -0.23556867053E+02  0.49509281698E+02  0.10566000000E+00 0.  1.
         23    2    1    0    0    0  0.26697751775E+02 -0.99730513231E+01 -0.91995556504E+01  0.95052320179E+02  0.90211307743E+02 0.  0.
         13    1    3    3    0    0  0.27223374226E+02  0.33569520328E+02  0.14357311402E+02  0.45543038480E+02  0.10566000000E+00 0. -1.
         22    1    1    0    0    0 -0.26697751775E+02  0.99730513231E+01  0.91995556504E+01  0.29947679821E+02  0.00000000000E+00 0.  1.
</event>
<event>
 5    1  0.1319298E-009  0.9118800E+02  0.7818608E-02  0.1130116E+00
         25   -1    0    0    0    0  0.00000000000E+00  0.00000000000E+00  0.99999998245E-14  0.12500000000E+03  0.12500000000E+03 0.  0.
        -13    1    3    3    0    0 -0.23054371819E+02  0.16665153693E+02  0.51368245527E+01  0.28907257533E+02  0.10566000000E+00 0. -1.
         23    2    1    0    0    0  0.29337424149E+02  0.86040025731E+01  0.24991633307E+02  0.85512089808E+02  0.75848681280E+02 0.  0.
         13    1    3    3    0    0  0.52391795968E+02 -0.80611511200E+01  0.19854808754E+02  0.56604832275E+02  0.10566000000E+00 0.  1.
         22    1    1    0    0    0 -0.29337424149E+02 -0.86040025731E+01 -0.24991633307E+02  0.39487910192E+02  0.00000000000E+00 0.  1.
</event>
<event>
 5    1  0.1319298E-009  0.9118800E+02  0.7818608E-02  0.1130116E+00
         25   -1    0    0    0    0  0.00000000000E+00  0.00000000000E+00  0.99999998245E-14  0.12500000000E+03  0.12500000000E+03 0.  0.
        -13    1    3    3    0    0  0.51872865511E+02 -0.15431133931E+02  0.22411439863E+02  0.58576427609E+02  0.10566000000E+00 0.  1.
         23    2    1    0    0    0  0.23017601377E+02  0.66306264525E+01  0.17727171131E+02  0.95200205091E+02  0.90415990139E+02 0.  0.
         13    1    3    3    0    0 -0.28855264134E+02  0.22061760384E+02 -0.46842687320E+01  0.36623777482E+02  0.10566000000E+00 0. -1.
         22    1    1    0    0    0 -0.23017601377E+02 -0.66306264525E+01 -0.17727171131E+02  0.29799794909E+02  0.00000000000E+00 0.  1.
</event>
<event>
 5    1  0.1319298E-009  0.9118800E+02  0.7818608E-02  0.1130116E+00
         25   -1    0    0    0    0  0.00000000000E+00  0.00000000000E+00  0.99999998245E-14  0.12500000000E+03  0.12500000000E+03 0.  0.
        -13    1    3    3    0    0 -0.42881288929E+02 -0.25960133728E+02 -0.33666024917E+02  0.60383324529E+02  0.10566000000E+00 0.  1.
         23    2    1    0    0    0 -0.25135272199E+02 -0.12971386313E+02 -0.53877959546E+01  0.96206474397E+02  0.91796615402E+02 0.  0.
         13    1    3    3    0    0  0.17746016730E+02  0.12988747415E+02  0.28278228962E+02  0.35823149868E+02  0.10566000000E+00 0. -1.
         22    1    1    0    0    0  0.25135272199E+02  0.12971386313E+02  0.53877959546E+01  0.28793525603E+02  0.00000000000E+00 0.  1.
</event>
<event>
 5    1  0.1319298E-009  0.9118800E+02  0.7818608E-02  0.1130116E+00
         25   -1    0    0    0    0  0.00000000000E+00  0.00000000000E+00  0.99999998245E-14  0.12500000000E+03  0.12500000000E+03 0.  0.
        -13    1    3    3    0    0  0.28929519824E+02 -0.48160213850E+02  0.11950307242E+02  0.57438178266E+02  0.10566000000E+00 0. -1.
         23    2    1    0    0    0  0.10960929615E+02 -0.24903399541E+02 -0.11914370135E+02  0.95296910894E+02  0.90549587097E+02 0.  0.
         13    1    3    3    0    0 -0.17968590209E+02  0.23256814308E+02 -0.23864677377E+02  0.37858732628E+02  0.10566000000E+00 0.  1.
         22    1    1    0    0    0 -0.10960929615E+02  0.24903399541E+02  0.11914370135E+02  0.29703089106E+02  0.00000000000E+00 0. -1.
</event>
<event>
 5    1  0.1319298E-009  0.9118800E+02  0.7818608E-02  0.1130116E+00
         25   -1    0    0    0    0  0.00000000000E+00  0.00000000000E+00  0.99999998245E-14  0.12500000000E+03  0.12500000000E+03 0.  0.
        -13    1    3    3    0    0 -0.59415873791E+01  0.35278175447E+02 -0.48797693132E+02  0.60506843765E+02  0.10566000000E+00 0.  1.
         23    2    1    0    0    0  0.72155637382E+01  0.10872977833E+02 -0.23892352124E+02  0.97776287964E+02  0.93909914231E+02 0.  0.
         13    1    3    3    0    0  0.13157151117E+02 -0.24405197614E+02  0.24905341008E+02  0.37269444198E+02  0.10566000000E+00 0. -1.
         22    1    1    0    0    0 -0.72155637382E+01 -0.10872977833E+02  0.23892352124E+02  0.27223712036E+02  0.00000000000E+00 0.  1.
</event>
<event>
 5    1  0.1319298E-009  0.9118800E+02  0.7818608E-02  0.1130116E+00
         25   -1    0    0    0    0  0.00000000000E+00  0.00000000000E+00  0.99999998245E-14  0.12500000000E+03  0.12500000000E+03 0.  0.
        -13    1    3    3    0    0 -0.52384281020E+02 -0.21817343556E+02 -0.30792501985E+01  0.56829590212E+02  0.10566000000E+00 0.  1.
         23    2    1    0    0    0 -0.17688420359E+02 -0.10574406597E+02 -0.19317743620E+02  0.96753345185E+02  0.92538296376E+02 0.  0.
         13    1    3    3    0    0  0.34695860661E+02  0.11242936959E+02 -0.16238493422E+02  0.39923754973E+02  0.10566000000E+00 0. -1.
         22    1    1    0    0    0  0.17688420359E+02  0.10574406597E+02  0.19317743620E+02  0.28246654815E+02  0.00000000000E+00 0.  1.
</event>
<event>
 5    1  0.1319298E-009  0.9118800E+02  0.7818608E-02  0.1130116E+00
         25   -1    0    0    0    0  0.00000000000E+00  0.00000000000E+00  0.99999998245E-14  0.12500000000E+03  0.12500000000E+03 0.  0.
        -13    1    3    3    0    0  0.32490004876E+02  0.48463589401E+00 -0.21939544630E+02  0.39207015590E+02  0.10566000000E+00 0. -1.
         23    2    1    0    0    0  0.71346651985E+00 -0.27094524548E+02  0.13956081263E+02  0.94514027830E+02  0.89462321440E+02 0.  0.
         13    1    3    3    0    0 -0.31776538357E+02 -0.27579160442E+02  0.35895625893E+02  0.55307012240E+02  0.10566000000E+00 0.  1.
         22    1    1    0    0    0 -0.71346651985E+00  0.27094524548E+02 -0.13956081263E+02  0.30485972170E+02  0.00000000000E+00 0.  1.
</event>
<event>
 5    1  0.1319298E-009  0.9118800E+02  0.7818608E-02  0.1130116E+00
         25   -1    0    0    0    0  0.00000000000E+00  0.00000000000E+00  0.99999998245E-14  0.12500000000E+03  0.12500000000E+03 0.  0.
        -13    1    3    3    0    0  0.21492305550E+02 -0.51830866316E+02 -0.25483700986E+02  0.61626196385E+02  0.10566000000E+00 0.  1.
         23    2    1    0    0    0  0.14587867352E+02 -0.25584519844E+02 -0.62424293565E+01  0.94894494627E+02  0.89992353323E+02 0.  0.
         13    1    3    3    0    0 -0.69044381989E+01  0.26246346472E+02  0.19241271629E+02  0.33268298242E+02  0.10566000000E+00 0. -1.
         22    1    1    0    0    0 -0.14587867352E+02  0.25584519844E+02  0.62424293565E+01  0.30105505373E+02  0.00000000000E+00 0.  1.
</event>
<event>
 5    1  0.1319298E-009  0.9118800E+02  0.7818608E-02  0.1130116E+00
         25   -1    0    0    0    0  0.00000000000E+00  0.00000000000E+00  0.99999998245E-14  0.12500000000E+03  0.12500000000E+03 0.  0.
        -13    1    3    3    0    0  0.28668535382E+02  0.16608097702E+02 -0.28739319238E+02  0.43859702057E+02  0.10566000000E+00 0.  1.
         23    2    1    0    0    0 -0.17802729853E+02  0.22596010976E+02 -0.14202063222E+02  0.92918611283E+02  0.87204660545E+02 0.  0.
         13    1    3    3    0    0 -0.46471265236E+02  0.59879132738E+01  0.14537256016E+02  0.49058909226E+02  0.10566000000E+00 0. -1.
         22    1    1    0    0    0  0.17802729853E+02 -0.22596010976E+02  0.14202063222E+02  0.32081388717E+02  0.00000000000E+00 0.  1.
</event>
<event>
 5    1  0.1319298E-009  0.9118800E+02  0.7818608E-02  0.1130116E+00
         25   -1    0    0    0    0  0.00000000000E+00  0.00000000000E+00  0.99999998245E-14  0.12500000000E+03  0.12500000000E+03 0.  0.
        -13    1    3    3    0    0 -0.24664874935E+02 -0.26471578546E+02 -0.84962524625E+01  0.37165817578E+02  0.10566000000E+00 0. -1.
         23    2    1    0    0    0  0.16500785918E+02  0.14062773218E+01  0.23471997480E+02  0.96273910507E+02  0.91888397672E+02 0.  0.
         13    1    3    3    0    0  0.41165660854E+02  0.27877855868E+02  0.31968249943E+02  0.59108092929E+02  0.10566000000E+00 0.  1.
         22    1    1    0    0    0 -0.16500785918E+02 -0.14062773218E+01 -0.23471997480E+02  0.28726089493E+02  0.00000000000E+00 0.  1.
</event>
<event>
 5    1  0.1319298E-009  0.9118800E+02  0.7818608E-02  0.1130116E+00
         25   -1    0    0    0    0  0.00000000000E+00  0.00000000000E+00  0.99999998245E-14  0.12500000000E+03  0.12500000000E+03 0.  0.
        -13    1    3    3    0    0  0.39113351147E+01  0.56530114183E+02 -0.25784321539E+02  0.62255881274E+02  0.10566000000E+00 0. -1.
         23    2    1    0    0    0  0.16642972293E+01  0.25260067068E+02 -0.15803845116E+02  0.95157037781E+02  0.90356291675E+02 0.  0.
         13    1    3    3    0    0 -0.22470378854E+01 -0.31270047115E+02  0.99804764225E+01  0.32901156507E+02  0.10566000000E+00 0.  1.
         22    1    1    0    0    0 -0.16642972293E+01 -0.25260067068E+02  0.15803845116E+02  0.29842962219E+02  0.00000000000E+00 0. -1.
</event>
<event>
 5    1  0.1319298E-009  0.9118800E+02  0.7818608E-02  0.1130116E+00
         25   -1    0    0    0    0  0.00000000000E+00  0.00000000000E+00  0.99999998245E-14  0.12500000000E+03  0.12500000000E+03 0.  0.
        -13    1    3    3    0    0 -0.78737428090E+01 -0.39384069153E+02 -0.12892498740E+02  0.42182086443E+02  0.10566000000E+00 0. -1.
         23    2    1    0    0    0  0.11125808754E+02 -0.89455869890E+01  0.26148932796E+02  0.95207822614E+02  0.90426520743E+02 0.  0.
         13    1    3    3    0    0  0.18999551563E+02  0.30438482164E+02  0.39041431536E+02  0.53025736171E+02  0.10566000000E+00 0.  1.
         22    1    1    0    0    0 -0.11125808754E+02  0.89455869890E+01 -0.26148932796E+02  0.29792177386E+02  0.00000000000E+00 0.  1.
</event>
<event>
 5    1  0.1319298E-009  0.9118800E+02  0.7818608E-02  0.1130116E+00
         25   -1    0    0    0    0  0.00000000000E+00  0.00000000000E+00  0.99999998245E-14  0.12500000000E+03  0.12500000000E+03 0.  0.
        -13    1    3    3    0    0  0.99277417746E+01  0.39794844724E+02 -0.24699032067E+02  0.47877375371E+02  0.10566000000E+00 0.  1.
         23    2    1    0    0    0 -0.24855391545E+02  0.17460271996E+02 -0.32387174158E+01  0.94452645326E+02  0.89376514430E+02 0.  0.
         13    1    3    3    0    0 -0.34783133320E+02 -0.22334572728E+02  0.21460314651E+02  0.46575269956E+02  0.10566000000E+00 0. -1.
         22    1    1    0    0    0  0.24855391545E+02 -0.17460271996E+02  0.32387174158E+01  0.30547354674E+02  0.00000000000E+00 0. -1.
</event>
<event>
 5    1  0.1319298E-009  0.9118800E+02  0.7818608E-02  0.1130116E+00
         25   -1    0    0    0    0  0.00000000000E+00  0.00000000000E+00  0.99999998245E-14  0.12500000000E+03  0.12500000000E+03 0.  0.
        -13    1    3    3    0    0 -0.16546153959E+02 -0.24722038356E+01  0.30954667764E+02  0.35186497738E+02  0.10566000000E+00 0.  1.
         23    2    1    0    0    0 -0.83178195452E+00  0.15611271721E+02 -0.24694127401E+02  0.95773238393E+02  0.91204767409E+02 0.  0.
         13    1    3    3    0    0  0.15714372005E+02  0.18083475557E+02 -0.55648795165E+02  0.60586740654E+02  0.10566000000E+00 0. -1.
         22    1    1    0    0    0  0.83178195452E+00 -0.15611271721E+02  0.24694127401E+02  0.29226761607E+02  0.00000000000E+00 0. -1.
</event>
<event>
 5    1  0.1319298E-009  0.9118800E+02  0.7818608E-02  0.1130116E+00
         25   -1    0    0    0    0  0.00000000000E+00  0.00000000000E+00  0.99999998245E-14  0.12500000000E+03  0.12500000000E+03 0.  0.
        -13    1    3    3    0    0  0.39533466600E+02 -0.15036920135E+02 -0.27603749635E+02  0.50507248059E+02  0.10566000000E+00 0. -1.
         23    2    1    0    0    0  0.26084734735E+02  0.26122927790E+01  0.12205236707E+02  0.96082786047E+02  0.91628033438E+02 0.  0.
         13    1    3    3    0    0 -0.13448731865E+02  0.17649212914E+02  0.39808986342E+02  0.45575537988E+02  0.10566000000E+00 0.  1.
         22    1    1    0    0    0 -0.26084734735E+02 -0.26122927790E+01 -0.12205236707E+02  0.28917213953E+02  0.00000000000E+00 0. -1.
</event>
<event>
 5    1  0.1319298E-009  0.9118800E+02  0.7818608E-02  0.1130116E+00
         25   -1    0    0    0    0  0.00000000000E+00  0.00000000000E+00  0.99999998245E-14  0.12500000000E+03  0.12500000000E+03 0.  0.
        -13    1    3    3    0    0 -0.59003793739E+01  0.14315634689E+02 -0.26386232411E+02  0.30594056583E+02  0.10566000000E+00 0.  1.
         23    2    1    0    0    0  0.12949946468E+02 -0.78634335624E+01  0.28501315019E+02  0.92722149100E+02  0.86922593582E+02 0.  0.
         13    1    3    3    0    0  0.18850325842E+02 -0.22179068252E+02  0.54887547430E+02  0.62128092517E+02  0.10566000000E+00 0. -1.
         22    1    1    0    0    0 -0.12949946468E+02  0.78634335624E+01 -0.28501315019E+02  0.32277850900E+02  0.00000000000E+00 0. -1.
</event>
<event>
 5    1  0.1319298E-009  0.9118800E+02  0.7818608E-02  0.1130116E+00
         25   -1    0    0    0    0  0.00000000000E+00  0.00000000000E+00  0.99999998245E-14  0.12500000000E+03  0.12500000000E+03 0.  0.
        -13    1    3    3    0    0 -0.36531381752E+02  0.28036192567E+02 -0.35131860391E+02  0.57920883323E+02  0.10566000000E+00 0.  1.
         23    2    1    0    0    0 -0.58689597186E+01  0.25363888962E+02 -0.12526481917E+02  0.96109096576E+02  0.91663919532E+02 0.  0.
         13    1    3    3    0    0  0.30662422033E+02 -0.26723036047E+01  0.22605378474E+02  0.38188213253E+02  0.10566000000E+00 0. -1.
         22    1    1    0    0    0  0.58689597186E+01 -0.25363888962E+02  0.12526481917E+02  0.28890903424E+02  0.00000000000E+00 0.  1.
</event>
<event>
 5    1  0.1319298E-009  0.9118800E+02  0.7818608E-02  0.1130116E+00
         25   -1    0    0    0    0  0.00000000000E+00  0.00000000000E+00  0.99999998245E-14  0.12500000000E+03  0.12500000000E+03 0.  0.
        -13    1    3    3    0    0  0.32289892485E+02 -0.38530407541E+02 -0.37116380704E+02  0.62488929760E+02  0.10566000000E+00 0. -1.
         23    2    1    0    0    0  0.15226162358E+02 -0.17993993241E+02 -0.16383906560E+02  0.96293690466E+02  0.91915301318E+02 0.  0.
         13    1    3    3    0    0 -0.17063730127E+02  0.20536414300E+02  0.20732474145E+02  0.33804760705E+02  0.10566000000E+00 0.  1.
         22    1    1    0    0    0 -0.15226162358E+02  0.17993993241E+02  0.16383906560E+02  0.28706309534E+02  0.00000000000E+00 0. -1.
</event>
<event>
 5    1  0.1319298E-009  0.9118800E+02  0.7818608E-02  0.1130116E+00
         25   -1    0    0    0    0  0.00000000000E+00  0.00000000000E+00  0.99999998245E-14  0.12500000000E+03  0.12500000000E+03 0.  0.
        -13    1    3    3    0    0  0.12106932071E+02  0.39047964251E+02 -0.53506450906E+01  0.41230594020E+02  0.10566000000E+00 0.  1.
         23    2    1    0    0    0 -0.11984858060E+02 -0.45674554065E+01 -0.26654041173E+02  0.95420676437E+02  0.90720279481E+02 0.  0.
         13    1    3    3    0    0 -0.24091790131E+02 -0.43615419658E+02 -0.21303396083E+02  0.54190082416E+02  0.10566000000E+00 0. -1.
         22    1    1    0    0    0  0.11984858060E+02  0.45674554065E+01  0.26654041173E+02  0.29579323563E+02  0.00000000000E+00 0. -1.
</event>
<event>
 5    1  0.1319298E-009  0.9118800E+02  0.7818608E-02  0.1130116E+00
         25   -1    0    0    0    0  0.00000000000E+00  0.00000000000E+00  0.99999998245E-14  0.12500000000E+03  0.12500000000E+03 0.  0.
        -13    1    3    3    0    0 -0.42311484477E+01 -0.46706205200E+02 -0.21161819578E+01  0.46945304467E+02  0.10566000000E+00 0. -1.
         23    2    1    0    0    0 -0.13118162651E+01 -0.42559365301E+01 -0.27932173825E+02  0.96715018256E+02  0.92486510173E+02 0.  0.
         13    1    3    3    0    0  0.29193321827E+01  0.42450268670E+02 -0.25815991868E+02  0.49769713789E+02  0.10566000000E+00 0.  1.
         22    1    1    0    0    0  0.13118162651E+01  0.42559365301E+01  0.27932173825E+02  0.28284981744E+02  0.00000000000E+00 0.  1.
</event>
<event>
 5    1  0.1319298E-009  0.9118800E+02  0.7818608E-02  0.1130116E+00
         25   -1    0    0    0    0  0.00000000000E+00  0.00000000000E+00  0.99999998245E-14  0.12500000000E+03  0.12500000000E+03 0.  0.
        -13    1    3    3    0    0 -0.58823674030E+01  0.29994859273E+02  0.17037921608E+02  0.34994224749E+02  0.10566000000E+00 0. -1.
         23    2    1    0    0    0 -0.86023597974E+01 -0.21092514051E+02 -0.17115996057E+02  0.96506982187E+02  0.92204910643E+02 0.  0.
         13    1    3    3    0    0 -0.27199923944E+01 -0.51087373324E+02 -0.34153917664E+02  0.61512757438E+02  0.10566000000E+00 0.  1.
         22    1    1    0    0    0  0.86023597974E+01  0.21092514051E+02  0.17115996057E+02  0.28493017813E+02  0.00000000000E+00 0.  1.
</event>
<event>
 5    1  0.1319298E-009  0.9118800E+02  0.7818608E-02  0.1130116E+00
         25   -1    0    0    0    0  0.00000000000E+00  0.00000000000E+00  0.99999998245E-14  0.12500000000E+03  0.12500000000E+03 0.  0.
        -13    1    3    3    0    0 -0.29466809032E+02 -0.45578646556E+02 -0.14739317935E+02  0.56240239274E+02  0.10566000000E+00 0.  1.
         23    2    1    0    0    0 -0.97216623414E+01 -0.44178567066E+02 -0.18023862188E+02  0.76305892401E+02  0.58749239146E+02 0.  0.
         13    1    3    3    0    0  0.19745146690E+02  0.14000794900E+01 -0.32845442535E+01  0.20065653127E+02  0.10566000000E+00 0. -1.
         22    1    1    0    0    0  0.97216623414E+01  0.44178567066E+02  0.18023862188E+02  0.48694107599E+02  0.00000000000E+00 0.  1.
</event>
<event>
 5    1  0.1319298E-009  0.9118800E+02  0.7818608E-02  0.1130116E+00
         25   -1    0    0    0    0  0.00000000000E+00  0.00000000000E+00  0.99999998245E-14  0.12500000000E+03  0.12500000000E+03 0.  0.
        -13    1    3    3    0    0 -0.27828856163E+02  0.11407741948E+02 -0.53578886167E+02  0.61443388730E+02  0.10566000000E+00 0. -1.
         23    2    1    0    0    0 -0.88324916618E+01 -0.60886077487E-01 -0.29581865998E+02  0.94127627043E+02  0.88920789250E+02 0.  0.
         13    1    3    3    0    0  0.18996364501E+02 -0.11468628026E+02  0.23997020169E+02  0.32684238313E+02  0.10566000000E+00 0.  1.
         22    1    1    0    0    0  0.88324916618E+01  0.60886077487E-01  0.29581865998E+02  0.30872372957E+02  0.00000000000E+00 0. -1.
</event>
<event>
 5    1  0.1319298E-009  0.9118800E+02  0.7818608E-02  0.1130116E+00
         25   -1    0    0    0    0  0.00000000000E+00  0.00000000000E+00  0.99999998245E-14  0.12500000000E+03  0.12500000000E+03 0.  0.
        -13    1    3    3    0    0  0.32501769697E+02 -0.28300285089E+02 -0.12237116757E+02  0.44799881252E+02  0.10566000000E+00 0.  1.
         23    2    1    0    0    0  0.20949063346E+02  0.18681277684E+02  0.56251420650E+01  0.96373166186E+02  0.92023320666E+02 0.  0.
         13    1    3    3    0    0 -0.11552706351E+02  0.46981562773E+02  0.17862258822E+02  0.51573284934E+02  0.10566000000E+00 0. -1.
         22    1    1    0    0    0 -0.20949063346E+02 -0.18681277684E+02 -0.56251420650E+01  0.28626833814E+02  0.00000000000E+00 0. -1.
</event>
<event>
 5    1  0.1319298E-009  0.9118800E+02  0.7818608E-02  0.1130116E+00
         25   -1    0    0    0    0  0.00000000000E+00  0.00000000000E+00  0.99999998245E-14  0.12500000000E+03  0.12500000000E+03 0.  0.
        -13    1    3    3    0    0  0.15959357205E+02 -0.24187924550E+02  0.21459844762E+02  0.36059574009E+02  0.10566000000E+00 0. -1.
         23    2    1    0    0    0 -0.18808809490E+02  0.21533125420E+02  0.37670209005E+01  0.96161878507E+02  0.91735868812E+02 0.  0.
         13    1    3    3    0    0 -0.34768166695E+02  0.45721049971E+02 -0.17692823861E+02  0.60102304498E+02  0.10566000000E+00 0.  1.
         22    1    1    0    0    0  0.18808809490E+02 -0.21533125420E+02 -0.37670209005E+01  0.28838121493E+02  0.00000000000E+00 0.  1.
</event>
<event>
 5    1  0.1319298E-009  0.9118800E+02  0.7818608E-02  0.1130116E+00
         25   -1    0    0    0    0  0.00000000000E+00  0.00000000000E+00  0.99999998245E-14  0.12500000000E+03  0.12500000000E+03 0.  0.
        -13    1    3    3    0    0  0.42660639846E+00  0.14655721895E+02 -0.32814700632E+02  0.35941451263E+02  0.10566000000E+00 0. -1.
         23    2    1    0    0    0 -0.17089381256E+02  0.10358172391E+02  0.22961034105E+02  0.94560752733E+02  0.89527583365E+02 0.  0.
         13    1    3    3    0    0 -0.17515987655E+02 -0.42975495039E+01  0.55775734737E+02  0.58619301470E+02  0.10566000000E+00 0.  1.
         22    1    1    0    0    0  0.17089381256E+02 -0.10358172391E+02 -0.22961034105E+02  0.30439247267E+02  0.00000000000E+00 0.  1.
</event>
<event>
 5    1  0.1319298E-009  0.9118800E+02  0.7818608E-02  0.1130116E+00
         25   -1    0    0    0    0  0.00000000000E+00  0.00000000000E+00  0.99999998245E-14  0.12500000000E+03  0.12500000000E+03 0.  0.
        -13    1    3    3    0    0 -0.31070441884E+02 -0.40182503298E+02  0.29946496723E+02  0.58964478801E+02  0.10566000000E+00 0. -1.
         23    2    1    0    0    0 -0.14811284930E+02 -0.75145596427E+01  0.23813369968E+02  0.95966926495E+02  0.91469839968E+02 0.  0.
         13    1    3    3    0    0  0.16259156955E+02  0.32667943656E+02 -0.61331267549E+01  0.37002447695E+02  0.10566000000E+00 0.  1.
         22    1    1    0    0    0  0.14811284930E+02  0.75145596427E+01 -0.23813369968E+02  0.29033073505E+02  0.00000000000E+00 0. -1.
</event>
<event>
 5    1  0.1319298E-009  0.9118800E+02  0.7818608E-02  0.1130116E+00
         25   -1    0    0    0    0  0.00000000000E+00  0.00000000000E+00  0.99999998245E-14  0.12500000000E+03  0.12500000000E+03 0.  0.
        -13    1    3    3    0    0 -0.49893376146E+02 -0.13337565141E+02  0.23881401447E+02  0.56899667189E+02  0.10566000000E+00 0. -1.
         23    2    1    0    0    0 -0.20929005767E+02 -0.81376935387E+01 -0.88038320101E+01  0.10088044784E+03  0.97954642356E+02 0.  0.
         13    1    3    3    0    0  0.28964370379E+02  0.51998716027E+01 -0.32685233457E+02  0.43980780647E+02  0.10566000000E+00 0.  1.
         22    1    1    0    0    0  0.20929005767E+02  0.81376935387E+01  0.88038320101E+01  0.24119552164E+02  0.00000000000E+00 0. -1.
</event>
<event>
 5    1  0.1319298E-009  0.9118800E+02  0.7818608E-02  0.1130116E+00
         25   -1    0    0    0    0  0.00000000000E+00  0.00000000000E+00  0.99999998245E-14  0.12500000000E+03  0.12500000000E+03 0.  0.
        -13    1    3    3    0    0 -0.18862142195E+02 -0.52702952950E+02 -0.16752588411E+01  0.56001779561E+02  0.10566000000E+00 0. -1.
         23    2    1    0    0    0 -0.17351183099E+02 -0.19002887812E+02  0.16609307161E+02  0.94372522395E+02  0.89264385948E+02 0.  0.
         13    1    3    3    0    0  0.15109590956E+01  0.33700065138E+02  0.18284566002E+02  0.38370742834E+02  0.10566000000E+00 0.  1.
         22    1    1    0    0    0  0.17351183099E+02  0.19002887812E+02 -0.16609307161E+02  0.30627477605E+02  0.00000000000E+00 0. -1.
</event>
<event>
 5    1  0.1319298E-009  0.9118800E+02  0.7818608E-02  0.1130116E+00
         25   -1    0    0    0    0  0.00000000000E+00  0.00000000000E+00  0.99999998245E-14  0.12500000000E+03  0.12500000000E+03 0.  0.
        -13    1    3    3    0    0 -0.58945697835E+02  0.10153422907E+01  0.74727666861E+01  0.59426253619E+02  0.10566000000E+00 0.  1.
         23    2    1    0    0    0 -0.26884480457E+02 -0.13206515919E+02  0.14656319672E+01  0.95011078225E+02  0.90154143312E+02 0.  0.
         13    1    3    3    0    0  0.32061217378E+02 -0.14221858209E+02 -0.60071347190E+01  0.35584824606E+02  0.10566000000E+00 0. -1.
         22    1    1    0    0    0  0.26884480457E+02  0.13206515919E+02 -0.14656319672E+01  0.29988921775E+02  0.00000000000E+00 0.  1.
</event>
<event>
 5    1  0.1319298E-009  0.9118800E+02  0.7818608E-02  0.1130116E+00
         25   -1    0    0    0    0  0.00000000000E+00  0.00000000000E+00  0.99999998245E-14  0.12500000000E+03  0.12500000000E+03 0.  0.
        -13    1    3    3    0    0 -0.32974032882E+02 -0.41304047492E+02  0.59074580146E+01  0.53181015484E+02  0.10566000000E+00 0. -1.
         23    2    1    0    0    0 -0.78020098190E+01 -0.21850949840E+02 -0.20123719582E+02  0.94286819508E+02  0.89144292453E+02 0.  0.
         13    1    3    3    0    0  0.25172023063E+02  0.19453097652E+02 -0.26031177597E+02  0.41105804024E+02  0.10566000000E+00 0.  1.
         22    1    1    0    0    0  0.78020098190E+01  0.21850949840E+02  0.20123719582E+02  0.30713180492E+02  0.00000000000E+00 0. -1.
</event>
<event>
 5    1  0.1319298E-009  0.9118800E+02  0.7818608E-02  0.1130116E+00
         25   -1    0    0    0    0  0.00000000000E+00  0.00000000000E+00  0.99999998245E-14  0.12500000000E+03  0.12500000000E+03 0.  0.
        -13    1    3    3    0    0  0.22678835204E+02  0.99770431849E+01 -0.43213233521E+02  0.49812304427E+02  0.10566000000E+00 0.  1.
         23    2    1    0    0    0 -0.18648708683E+01  0.27711657151E+02 -0.83333206039E+01  0.96002449798E+02  0.91518372197E+02 0.  0.
         13    1    3    3    0    0 -0.24543706072E+02  0.17734613966E+02  0.34879912917E+02  0.46190145371E+02  0.10566000000E+00 0. -1.
         22    1    1    0    0    0  0.18648708683E+01 -0.27711657151E+02  0.83333206039E+01  0.28997550202E+02  0.00000000000E+00 0. -1.
</event>
<event>
 5    1  0.1319298E-009  0.9118800E+02  0.7818608E-02  0.1130116E+00
         25   -1    0    0    0    0  0.00000000000E+00  0.00000000000E+00  0.99999998245E-14  0.12500000000E+03  0.12500000000E+03 0.  0.
        -13    1    3    3    0    0 -0.51951909978E+01  0.11831267963E+02 -0.42723371946E+02  0.44634813605E+02  0.10566000000E+00 0. -1.
         23    2    1    0    0    0 -0.27947432305E+02  0.99463625416E+01  0.24343358600E+01  0.95235674184E+02  0.90465012828E+02 0.  0.
         13    1    3    3    0    0 -0.22752241307E+02 -0.18849054216E+01  0.45157707806E+02  0.50600860578E+02  0.10566000000E+00 0.  1.
         22    1    1    0    0    0  0.27947432305E+02 -0.99463625416E+01 -0.24343358600E+01  0.29764325816E+02  0.00000000000E+00 0.  1.
</event>
<event>
 5    1  0.1319298E-009  0.9118800E+02  0.7818608E-02  0.1130116E+00
         25   -1    0    0    0    0  0.00000000000E+00  0.00000000000E+00  0.99999998245E-14  0.12500000000E+03  0.12500000000E+03 0.  0.
        -13    1    3    3    0    0  0.86990394600E+01  0.43660631895E+02  0.33649066518E+02  0.55804972060E+02  0.10566000000E+00 0. -1.
         23    2    1    0    0    0  0.10778674801E+02  0.26829433144E+02 -0.27447529567E+01  0.95956377945E+02  0.91455423492E+02 0.  0.
         13    1    3    3    0    0  0.20796353409E+01 -0.16831198751E+02 -0.36393819475E+02  0.40151405885E+02  0.10566000000E+00 0.  1.
         22    1    1    0    0    0 -0.10778674801E+02 -0.26829433144E+02  0.27447529567E+01  0.29043622055E+02  0.00000000000E+00 0. -1.
</event>
<event>
 5    1  0.1319298E-009  0.9118800E+02  0.7818608E-02  0.1130116E+00
         25   -1    0    0    0    0  0.00000000000E+00  0.00000000000E+00  0.99999998245E-14  0.12500000000E+03  0.12500000000E+03 0.  0.
        -13    1    3    3    0    0  0.12160068251E+02 -0.17575559860E+02 -0.31981771641E+02  0.38465730795E+02  0.10566000000E+00 0.  1.
         23    2    1    0    0    0 -0.19609487992E+02  0.21281334264E+02 -0.44221183880E+01  0.95725739319E+02  0.91139644666E+02 0.  0.
         13    1    3    3    0    0 -0.31769556242E+02  0.38856894124E+02  0.27559653253E+02  0.57260008525E+02  0.10566000000E+00 0. -1.
         22    1    1    0    0    0  0.19609487992E+02 -0.21281334264E+02  0.44221183880E+01  0.29274260681E+02  0.00000000000E+00 0. -1.
</event>
<event>
 5    1  0.1319298E-009  0.9118800E+02  0.7818608E-02  0.1130116E+00
         25   -1    0    0    0    0  0.00000000000E+00  0.00000000000E+00  0.99999998245E-14  0.12500000000E+03  0.12500000000E+03 0.  0.
        -13    1    3    3    0    0 -0.78624323613E+01  0.13719300284E+02 -0.39217774093E+02  0.42285718768E+02  0.10566000000E+00 0.  1.
         23    2    1    0    0    0  0.48516829838E+01  0.26444876998E+02  0.11243450195E+02  0.95857496342E+02  0.91320173485E+02 0.  0.
         13    1    3    3    0    0  0.12714115345E+02  0.12725576713E+02  0.50461224288E+02  0.53571777573E+02  0.10566000000E+00 0. -1.
         22    1    1    0    0    0 -0.48516829838E+01 -0.26444876998E+02 -0.11243450195E+02  0.29142503658E+02  0.00000000000E+00 0. -1.
</event>
<event>
 5    1  0.1319298E-009  0.9118800E+02  0.7818608E-02  0.1130116E+00
         25   -1    0    0    0    0  0.00000000000E+00  0.00000000000E+00  0.99999998245E-14  0.12500000000E+03  0.12500000000E+03 0.  0.
        -13    1    3    3    0    0 -0.49636459624E+02  0.14274852814E+02 -0.32307200879E+02  0.60920570742E+02  0.10566000000E+00 0.  1.
         23    2    1    0    0    0 -0.28568163384E+02  0.43540062299E+01 -0.70915988325E+01  0.95244528178E+02  0.90477246004E+02 0.  0.
         13    1    3    3    0    0  0.21068296240E+02 -0.99208465845E+01  0.25215602047E+02  0.34323957435E+02  0.10566000000E+00 0. -1.
         22    1    1    0    0    0  0.28568163384E+02 -0.43540062299E+01  0.70915988325E+01  0.29755471822E+02  0.00000000000E+00 0.  1.
</event>
<event>
 5    1  0.1319298E-009  0.9118800E+02  0.7818608E-02  0.1130116E+00
         25   -1    0    0    0    0  0.00000000000E+00  0.00000000000E+00  0.99999998245E-14  0.12500000000E+03  0.12500000000E+03 0.  0.
        -13    1    3    3    0    0  0.13686170040E+02  0.19697064715E+02  0.33653182207E+02  0.41325941556E+02  0.10566000000E+00 0. -1.
         23    2    1    0    0    0 -0.63529695268E+01 -0.23576354238E+02 -0.14482709647E+01  0.10053978353E+03  0.97518951401E+02 0.  0.
         13    1    3    3    0    0 -0.20039139567E+02 -0.43273418953E+02 -0.35101453172E+02  0.59213841974E+02  0.10566000000E+00 0.  1.
         22    1    1    0    0    0  0.63529695268E+01  0.23576354238E+02  0.14482709647E+01  0.24460216470E+02  0.00000000000E+00 0.  1.
</event>
<event>
 5    1  0.1319298E-009  0.9118800E+02  0.7818608E-02  0.1130116E+00
         25   -1    0    0    0    0  0.00000000000E+00  0.00000000000E+00  0.99999998245E-14  0.12500000000E+03  0.12500000000E+03 0.  0.
        -13    1    3    3    0    0  0.30534587104E+02 -0.92701997571E+01 -0.65093075342E+01  0.32568080412E+02  0.10566000000E+00 0.  1.
         23    2    1    0    0    0 -0.25804709183E+02  0.57800271166E+01  0.14849859451E+02  0.94671629533E+02  0.89682257906E+02 0.  0.
         13    1    3    3    0    0 -0.56339296287E+02  0.15050226874E+02  0.21359166985E+02  0.62103549121E+02  0.10566000000E+00 0. -1.
         22    1    1    0    0    0  0.25804709183E+02 -0.57800271166E+01 -0.14849859451E+02  0.30328370467E+02  0.00000000000E+00 0. -1.
</event>
<event>
 5    1  0.1319298E-009  0.9118800E+02  0.7818608E-02  0.1130116E+00
         25   -1    0    0    0    0  0.00000000000E+00  0.00000000000E+00  0.99999998245E-14  0.12500000000E+03  0.12500000000E+03 0.  0.
        -13    1    3    3    0    0  0.39190446985E+02  0.93824003498E+01  0.99384991330E+01  0.41505487592E+02  0.10566000000E+00 0. -1.
         23    2    1    0    0    0 -0.22547190705E+01 -0.26807654457E+02  0.93134988875E+01  0.96531151110E+02  0.92237670057E+02 0.  0.
         13    1    3    3    0    0 -0.41445166056E+02 -0.36190054807E+02 -0.62500024550E+00  0.55025663518E+02  0.10566000000E+00 0.  1.
         22    1    1    0    0    0  0.22547190705E+01  0.26807654457E+02 -0.93134988875E+01  0.28468848890E+02  0.00000000000E+00 0.  1.
</event>
<event>
 5    1  0.1319298E-009  0.9118800E+02  0.7818608E-02  0.1130116E+00
         25   -1    0    0    0    0  0.00000000000E+00  0.00000000000E+00  0.99999998245E-14  0.12500000000E+03  0.12500000000E+03 0.  0.
        -13    1    3    3    0    0 -0.43226951782E+01 -0.35844833914E+02 -0.15673802289E+02  0.39360094692E+02  0.10566000000E+00 0.  1.
         23    2    1    0    0    0 -0.25721752321E+02  0.14107688684E+02 -0.10141602882E+01  0.95645887110E+02  0.91030059747E+02 0.  0.
         13    1    3    3    0    0 -0.21399057143E+02  0.49952522598E+02  0.14659642000E+02  0.56285792418E+02  0.10566000000E+00 0. -1.
         22    1    1    0    0    0  0.25721752321E+02 -0.14107688684E+02  0.10141602882E+01  0.29354112890E+02  0.00000000000E+00 0.  1.
</event>
<event>
 5    1  0.1319298E-009  0.9118800E+02  0.7818608E-02  0.1130116E+00
         25   -1    0    0    0    0  0.00000000000E+00  0.00000000000E+00  0.99999998245E-14  0.12500000000E+03  0.12500000000E+03 0.  0.
        -13    1    3    3    0    0 -0.38334171115E+02  0.16573458753E+02 -0.58627324061E+01  0.42173107609E+02  0.10566000000E+00 0. -1.
         23    2    1    0    0    0  0.55180529446E+01 -0.53719733340E+01 -0.27988969215E+02  0.95970886966E+02  0.91475252072E+02 0.  0.
         13    1    3    3    0    0  0.43852224059E+02 -0.21945432087E+02 -0.22126236809E+02  0.53797779357E+02  0.10566000000E+00 0.  1.
         22    1    1    0    0    0 -0.55180529446E+01  0.53719733340E+01  0.27988969215E+02  0.29029113034E+02  0.00000000000E+00 0.  1.
</event>
<event>
 5    1  0.1319298E-009  0.9118800E+02  0.7818608E-02  0.1130116E+00
         25   -1    0    0    0    0  0.00000000000E+00  0.00000000000E+00  0.99999998245E-14  0.12500000000E+03  0.12500000000E+03 0.  0.
        -13    1    3    3    0    0 -0.39751067098E+02 -0.35590713792E+02  0.46501525772E+01  0.53558205036E+02  0.10566000000E+00 0.  1.
         23    2    1    0    0    0 -0.24313034149E+02 -0.18469973927E+01 -0.15816953673E+02  0.95936086767E+02  0.91427685587E+02 0.  0.
         13    1    3    3    0    0  0.15438032949E+02  0.33743716399E+02 -0.20467106250E+02  0.42377881731E+02  0.10566000000E+00 0. -1.
         22    1    1    0    0    0  0.24313034149E+02  0.18469973927E+01  0.15816953673E+02  0.29063913233E+02  0.00000000000E+00 0.  1.
</event>
<event>
 5    1  0.1319298E-009  0.9118800E+02  0.7818608E-02  0.1130116E+00
         25   -1    0    0    0    0  0.00000000000E+00  0.00000000000E+00  0.99999998245E-14  0.12500000000E+03  0.12500000000E+03 0.  0.
        -13    1    3    3    0    0  0.75761592048E+01  0.88774982605E+01 -0.34110491685E+02  0.36051975960E+02  0.10566000000E+00 0. -1.
         23    2    1    0    0    0  0.24416974208E+02  0.17881273814E+02  0.16771222209E+02  0.90399386175E+02  0.83515546718E+02 0.  0.
         13    1    3    3    0    0  0.16840815003E+02  0.90037755540E+01  0.50881713893E+02  0.54347410214E+02  0.10566000000E+00 0.  1.
         22    1    1    0    0    0 -0.24416974208E+02 -0.17881273814E+02 -0.16771222209E+02  0.34600613825E+02  0.00000000000E+00 0.  1.
</event>
<event>
 5    1  0.1319298E-009  0.9118800E+02  0.7818608E-02  0.1130116E+00
         25   -1    0    0    0    0  0.00000000000E+00  0.00000000000E+00  0.99999998245E-14  0.12500000000E+03  0.12500000000E+03 0.  0.
        -13    1    3    3    0    0 -0.31258292649E+02  0.56808325700E+01 -0.14519385958E+02  0.34931024185E+02  0.10566000000E+00 0. -1.
         23    2    1    0    0    0  0.25879581194E+02  0.13001994157E+02  0.47026673165E+01  0.95658567610E+02  0.91047470599E+02 0.  0.
         13    1    3    3    0    0  0.57137873843E+02  0.73211615865E+01  0.19222053274E+02  0.60727543424E+02  0.10566000000E+00 0.  1.
         22    1    1    0    0    0 -0.25879581194E+02 -0.13001994157E+02 -0.47026673165E+01  0.29341432390E+02  0.00000000000E+00 0.  1.
</event>
<event>
 5    1  0.1319298E-009  0.9118800E+02  0.7818608E-02  0.1130116E+00
         25   -1    0    0    0    0  0.00000000000E+00  0.00000000000E+00  0.99999998245E-14  0.12500000000E+03  0.12500000000E+03 0.  0.
        -13    1    3    3    0    0  0.11112716423E+02  0.34582026771E+02 -0.23186782273E+02  0.43093469089E+02  0.10566000000E+00 0. -1.
         23    2    1    0    0    0  0.22955732975E+02 -0.25604936190E+01  0.14833749527E+02  0.97548917526E+02  0.93606780638E+02 0.  0.
         13    1    3    3    0    0  0.11843016552E+02 -0.37142520390E+02  0.38020531801E+02  0.54455448437E+02  0.10566000000E+00 0.  1.
         22    1    1    0    0    0 -0.22955732975E+02  0.25604936190E+01 -0.14833749527E+02  0.27451082474E+02  0.00000000000E+00 0.  1.
</event>
<event>
 5    1  0.1319298E-009  0.9118800E+02  0.7818608E-02  0.1130116E+00
         25   -1    0    0    0    0  0.00000000000E+00  0.00000000000E+00  0.99999998245E-14  0.12500000000E+03  0.12500000000E+03 0.  0.
        -13    1    3    3    0    0 -0.28134437494E+02  0.31122604649E+02  0.16320630135E+01  0.41986163041E+02  0.10566000000E+00 0.  1.
         23    2    1    0    0    0  0.79082778612E+01  0.57448930785E+01 -0.28160958248E+02  0.95190870113E+02  0.90403083621E+02 0.  0.
         13    1    3    3    0    0  0.36042715355E+02 -0.25377711570E+02 -0.29793021261E+02  0.53204707072E+02  0.10566000000E+00 0. -1.
         22    1    1    0    0    0 -0.79082778612E+01 -0.57448930785E+01  0.28160958248E+02  0.29809129887E+02  0.00000000000E+00 0. -1.
</event>
<event>
 5    1  0.1319298E-009  0.9118800E+02  0.7818608E-02  0.1130116E+00
         25   -1    0    0    0    0  0.00000000000E+00  0.00000000000E+00  0.99999998245E-14  0.12500000000E+03  0.12500000000E+03 0.  0.
        -13    1    3    3    0    0 -0.14012762920E+02  0.52560972177E+00  0.29445182052E+02  0.32613857489E+02  0.10566000000E+00 0. -1.
         23    2    1    0    0    0 -0.12562940970E+02  0.33610472683E+02 -0.13340457329E+02  0.86718683911E+02  0.77811766319E+02 0.  0.
         13    1    3    3    0    0  0.14498219507E+01  0.33084862961E+02 -0.42785639381E+02  0.54104826422E+02  0.10566000000E+00 0.  1.
         22    1    1    0    0    0  0.12562940970E+02 -0.33610472683E+02  0.13340457329E+02  0.38281316089E+02  0.00000000000E+00 0.  1.
</event>
<event>
 5    1  0.1319298E-009  0.9118800E+02  0.7818608E-02  0.1130116E+00
         25   -1    0    0    0    0  0.00000000000E+00  0.00000000000E+00  0.99999998245E-14  0.12500000000E+03  0.12500000000E+03 0.  0.
        -13    1    3    3    0    0  0.18561393388E+02  0.42068608830E+02  0.11508199421E+02  0.47399820583E+02  0.10566000000E+00 0.  1.
         23    2    1    0    0    0 -0.16555807207E+02  0.11303559648E+02  0.21984228053E+02  0.95248168190E+02  0.90482274769E+02 0.  0.
         13    1    3    3    0    0 -0.35117200595E+02 -0.30765049182E+02  0.10476028632E+02  0.47848347607E+02  0.10566000000E+00 0. -1.
         22    1    1    0    0    0  0.16555807207E+02 -0.11303559648E+02 -0.21984228053E+02  0.29751831810E+02  0.00000000000E+00 0.  1.
</event>
<event>
 5    1  0.1319298E-009  0.9118800E+02  0.7818608E-02  0.1130116E+00
         25   -1    0    0    0    0  0.00000000000E+00  0.00000000000E+00  0.99999998245E-14  0.12500000000E+03  0.12500000000E+03 0.  0.
        -13    1    3    3    0    0 -0.26831074758E+02 -0.24147396411E+02 -0.20220382888E+01  0.36153881244E+02  0.10566000000E+00 0.  1.
         23    2    1    0    0    0  0.19385000601E+02  0.15742918735E+02  0.94990187961E+01  0.98282045425E+02  0.94580713447E+02 0.  0.
         13    1    3    3    0    0  0.46216075359E+02  0.39890315146E+02  0.11521057085E+02  0.62128164181E+02  0.10566000000E+00 0. -1.
         22    1    1    0    0    0 -0.19385000601E+02 -0.15742918735E+02 -0.94990187961E+01  0.26717954575E+02  0.00000000000E+00 0. -1.
</event>
<event>
 5    1  0.1319298E-009  0.9118800E+02  0.7818608E-02  0.1130116E+00
         25   -1    0    0    0    0  0.00000000000E+00  0.00000000000E+00  0.99999998245E-14  0.12500000000E+03  0.12500000000E+03 0.  0.
        -13    1    3    3    0    0 -0.32027342913E+02 -0.18612342059E+02  0.35824058933E+02  0.51531973894E+02  0.10566000000E+00 0. -1.
         23    2    1    0    0    0  0.95779430997E+01 -0.17173455461E+02  0.22219770677E+02  0.95328755075E+02  0.90593536020E+02 0.  0.
         13    1    3    3    0    0  0.41605286012E+02  0.14388865979E+01 -0.13604288256E+02  0.43796781181E+02  0.10566000000E+00 0.  1.
         22    1    1    0    0    0 -0.95779430997E+01  0.17173455461E+02 -0.22219770677E+02  0.29671244925E+02  0.00000000000E+00 0.  1.
</event>
<event>
 5    1  0.1319298E-009  0.9118800E+02  0.7818608E-02  0.1130116E+00
         25   -1    0    0    0    0  0.00000000000E+00  0.00000000000E+00  0.99999998245E-14  0.12500000000E+03  0.12500000000E+03 0.  0.
        -13    1    3    3    0    0  0.34404436161E+02 -0.15118369793E+02  0.28904887561E+02  0.47410273377E+02  0.10566000000E+00 0.  1.
         23    2    1    0    0    0  0.17094189056E+02 -0.20973917903E+02 -0.14354056039E+02  0.94370676526E+02  0.89261801077E+02 0.  0.
         13    1    3    3    0    0 -0.17310247104E+02 -0.58555481103E+01 -0.43258943600E+02  0.46960403149E+02  0.10566000000E+00 0. -1.
         22    1    1    0    0    0 -0.17094189056E+02  0.20973917903E+02  0.14354056039E+02  0.30629323474E+02  0.00000000000E+00 0. -1.
</event>
<event>
 5    1  0.1319298E-009  0.9118800E+02  0.7818608E-02  0.1130116E+00
         25   -1    0    0    0    0  0.00000000000E+00  0.00000000000E+00  0.99999998245E-14  0.12500000000E+03  0.12500000000E+03 0.  0.
        -13    1    3    3    0    0 -0.40553927175E+02  0.21333548879E+02 -0.15640361603E+02  0.48418729766E+02  0.10566000000E+00 0. -1.
         23    2    1    0    0    0 -0.55756315419E+00  0.49556748225E+01 -0.30479619460E+02  0.94115104144E+02  0.88903183497E+02 0.  0.
         13    1    3    3    0    0  0.39996364020E+02 -0.16377874057E+02 -0.14839257857E+02  0.45696374378E+02  0.10566000000E+00 0.  1.
         22    1    1    0    0    0  0.55756315419E+00 -0.49556748225E+01  0.30479619460E+02  0.30884895856E+02  0.00000000000E+00 0. -1.
</event>
<event>
 5    1  0.1319298E-009  0.9118800E+02  0.7818608E-02  0.1130116E+00
         25   -1    0    0    0    0  0.00000000000E+00  0.00000000000E+00  0.99999998245E-14  0.12500000000E+03  0.12500000000E+03 0.  0.
        -13    1    3    3    0    0  0.23197559916E+02  0.29569059024E+02  0.61729289466E+01  0.38086378844E+02  0.10566000000E+00 0. -1.
         23    2    1    0    0    0 -0.16552803286E+02 -0.82216760463E+01  0.23034639057E+02  0.95467207208E+02  0.90784369811E+02 0.  0.
         13    1    3    3    0    0 -0.39750363202E+02 -0.37790735071E+02  0.16861710110E+02  0.57380828364E+02  0.10566000000E+00 0.  1.
         22    1    1    0    0    0  0.16552803286E+02  0.82216760463E+01 -0.23034639057E+02  0.29532792792E+02  0.00000000000E+00 0.  1.
</event>
<event>
 5    1  0.1319298E-009  0.9118800E+02  0.7818608E-02  0.1130116E+00
         25   -1    0    0    0    0  0.00000000000E+00  0.00000000000E+00  0.99999998245E-14  0.12500000000E+03  0.12500000000E+03 0.  0.
        -13    1    3    3    0    0 -0.50073485641E+02  0.19418262515E+02  0.20427059945E+02  0.57460410940E+02  0.10566000000E+00 0.  1.
         23    2    1    0    0    0 -0.28651654279E+02 -0.52422676209E+01  0.21828490609E+00  0.95871898260E+02  0.91339884853E+02 0.  0.
         13    1    3    3    0    0  0.21421831362E+02 -0.24660530136E+02 -0.20208775039E+02  0.38411487320E+02  0.10566000000E+00 0. -1.
         22    1    1    0    0    0  0.28651654279E+02  0.52422676209E+01 -0.21828490609E+00  0.29128101740E+02  0.00000000000E+00 0. -1.
</event>
<event>
 5    1  0.1319298E-009  0.9118800E+02  0.7818608E-02  0.1130116E+00
         25   -1    0    0    0    0  0.00000000000E+00  0.00000000000E+00  0.99999998245E-14  0.12500000000E+03  0.12500000000E+03 0.  0.
        -13    1    3    3    0    0  0.30315670294E+02 -0.34968983012E+02 -0.24642154347E+02  0.52432018588E+02  0.10566000000E+00 0. -1.
         23    2    1    0    0    0  0.29565595345E+02  0.26264747981E+01 -0.48548005156E+01  0.94923565936E+02  0.90032724518E+02 0.  0.
         13    1    3    3    0    0 -0.75007494940E+00  0.37595457810E+02  0.19787353831E+02  0.42491547349E+02  0.10566000000E+00 0.  1.
         22    1    1    0    0    0 -0.29565595345E+02 -0.26264747981E+01  0.48548005156E+01  0.30076434064E+02  0.00000000000E+00 0. -1.
</event>
<event>
 5    1  0.1319298E-009  0.9118800E+02  0.7818608E-02  0.1130116E+00
         25   -1    0    0    0    0  0.00000000000E+00  0.00000000000E+00  0.99999998245E-14  0.12500000000E+03  0.12500000000E+03 0.  0.
        -13    1    3    3    0    0  0.25951339540E+02 -0.48329889143E+02 -0.25217730751E+02  0.60375452932E+02  0.10566000000E+00 0.  1.
         23    2    1    0    0    0  0.17977644755E+02 -0.10459341638E+02 -0.90218721325E+01  0.10232870283E+03  0.99785648810E+02 0.  0.
         13    1    3    3    0    0 -0.79736947853E+01  0.37870547505E+02  0.16195858619E+02  0.41953249902E+02  0.10566000000E+00 0. -1.
         22    1    1    0    0    0 -0.17977644755E+02  0.10459341638E+02  0.90218721325E+01  0.22671297166E+02  0.00000000000E+00 0.  1.
</event>
<event>
 5    1  0.1319298E-009  0.9118800E+02  0.7818608E-02  0.1130116E+00
         25   -1    0    0    0    0  0.00000000000E+00  0.00000000000E+00  0.99999998245E-14  0.12500000000E+03  0.12500000000E+03 0.  0.
        -13    1    3    3    0    0  0.50548309834E+02  0.17815065123E+02  0.68860988362E+01  0.54036447826E+02  0.10566000000E+00 0. -1.
         23    2    1    0    0    0  0.20188447528E+02 -0.51404078410E+01  0.21736290328E+02  0.94892467328E+02  0.89989537348E+02 0.  0.
         13    1    3    3    0    0 -0.30359862306E+02 -0.22955472964E+02  0.14850191492E+02  0.40856019503E+02  0.10566000000E+00 0.  1.
         22    1    1    0    0    0 -0.20188447528E+02  0.51404078410E+01 -0.21736290328E+02  0.30107532672E+02  0.00000000000E+00 0.  1.
</event>
<event>
 5    1  0.1319298E-009  0.9118800E+02  0.7818608E-02  0.1130116E+00
         25   -1    0    0    0    0  0.00000000000E+00  0.00000000000E+00  0.99999998245E-14  0.12500000000E+03  0.12500000000E+03 0.  0.
        -13    1    3    3    0    0  0.31931684902E+02 -0.96976052818E+01  0.20506758282E+02  0.39169048344E+02  0.10566000000E+00 0.  1.
         23    2    1    0    0    0 -0.87108065452E+01 -0.81250734946E+01 -0.23229272784E+02  0.98894558344E+02  0.95386789369E+02 0.  0.
         13    1    3    3    0    0 -0.40642491447E+02  0.15725317873E+01 -0.43736031067E+02  0.59725510000E+02  0.10566000000E+00 0. -1.
         22    1    1    0    0    0  0.87108065452E+01  0.81250734946E+01  0.23229272784E+02  0.26105441656E+02  0.00000000000E+00 0. -1.
</event>
<event>
 5    1  0.1319298E-009  0.9118800E+02  0.7818608E-02  0.1130116E+00
         25   -1    0    0    0    0  0.00000000000E+00  0.00000000000E+00  0.99999998245E-14  0.12500000000E+03  0.12500000000E+03 0.  0.
        -13    1    3    3    0    0  0.26303343048E+02  0.52472311282E+02 -0.32520816209E+01  0.58786023047E+02  0.10566000000E+00 0.  1.
         23    2    1    0    0    0  0.30753395651E+01  0.26850071690E+02  0.10503296103E+02  0.96005116102E+02  0.91522013885E+02 0.  0.
         13    1    3    3    0    0 -0.23228003483E+02 -0.25622239591E+02  0.13755377724E+02  0.37219093056E+02  0.10566000000E+00 0. -1.
         22    1    1    0    0    0 -0.30753395651E+01 -0.26850071690E+02 -0.10503296103E+02  0.28994883898E+02  0.00000000000E+00 0.  1.
</event>
<event>
 5    1  0.1319298E-009  0.9118800E+02  0.7818608E-02  0.1130116E+00
         25   -1    0    0    0    0  0.00000000000E+00  0.00000000000E+00  0.99999998245E-14  0.12500000000E+03  0.12500000000E+03 0.  0.
        -13    1    3    3    0    0 -0.46222938774E+02  0.15435010074E+02  0.70969938348E+01  0.49246097210E+02  0.10566000000E+00 0. -1.
         23    2    1    0    0    0 -0.19373787808E+02 -0.17726314951E+02 -0.12163815904E+02  0.96059987679E+02  0.91596926367E+02 0.  0.
         13    1    3    3    0    0  0.26849150966E+02 -0.33161325026E+02 -0.19260809739E+02  0.46813890469E+02  0.10566000000E+00 0.  1.
         22    1    1    0    0    0  0.19373787808E+02  0.17726314951E+02  0.12163815904E+02  0.28940012321E+02  0.00000000000E+00 0.  1.
</event>
<event>
 5    1  0.1319298E-009  0.9118800E+02  0.7818608E-02  0.1130116E+00
         25   -1    0    0    0    0  0.00000000000E+00  0.00000000000E+00  0.99999998245E-14  0.12500000000E+03  0.12500000000E+03 0.  0.
        -13    1    3    3    0    0 -0.24727004054E+01 -0.21141547912E+02  0.32521062661E+02  0.38867852733E+02  0.10566000000E+00 0.  1.
         23    2    1    0    0    0 -0.16041433005E+02 -0.11023902403E+02 -0.21806045238E+02  0.95770603736E+02  0.91201156429E+02 0.  0.
         13    1    3    3    0    0 -0.13568732599E+02  0.10117645509E+02 -0.54327107899E+02  0.56902751003E+02  0.10566000000E+00 0. -1.
         22    1    1    0    0    0  0.16041433005E+02  0.11023902403E+02  0.21806045238E+02  0.29229396264E+02  0.00000000000E+00 0. -1.
</event>
<event>
 5    1  0.1319298E-009  0.9118800E+02  0.7818608E-02  0.1130116E+00
         25   -1    0    0    0    0  0.00000000000E+00  0.00000000000E+00  0.99999998245E-14  0.12500000000E+03  0.12500000000E+03 0.  0.
        -13    1    3    3    0    0 -0.19694016004E+02  0.44510368412E+02 -0.31230303964E+02  0.57830530105E+02  0.10566000000E+00 0.  1.
         23    2    1    0    0    0 -0.17777776108E+02  0.82570823939E+01 -0.22479922392E+02  0.95174245294E+02  0.90380093624E+02 0.  0.
         13    1    3    3    0    0  0.19162398959E+01 -0.36253286018E+02  0.87503815722E+01  0.37343715189E+02  0.10566000000E+00 0. -1.
         22    1    1    0    0    0  0.17777776108E+02 -0.82570823939E+01  0.22479922392E+02  0.29825754706E+02  0.00000000000E+00 0.  1.
</event>
<event>
 5    1  0.1319298E-009  0.9118800E+02  0.7818608E-02  0.1130116E+00
         25   -1    0    0    0    0  0.00000000000E+00  0.00000000000E+00  0.99999998245E-14  0.12500000000E+03  0.12500000000E+03 0.  0.
        -13    1    3    3    0    0  0.47558770600E+00  0.31069458718E+02  0.33202794574E+02  0.45474984115E+02  0.10566000000E+00 0. -1.
         23    2    1    0    0    0  0.20397878051E+02  0.18977663284E+02 -0.10680086863E+02  0.95162282458E+02  0.90363546935E+02 0.  0.
         13    1    3    3    0    0  0.19922290345E+02 -0.12091795434E+02 -0.43882881437E+02  0.49687298343E+02  0.10566000000E+00 0.  1.
         22    1    1    0    0    0 -0.20397878051E+02 -0.18977663284E+02  0.10680086863E+02  0.29837717542E+02  0.00000000000E+00 0.  1.
</event>
<event>
 5    1  0.1319298E-009  0.9118800E+02  0.7818608E-02  0.1130116E+00
         25   -1    0    0    0    0  0.00000000000E+00  0.00000000000E+00  0.99999998245E-14  0.12500000000E+03  0.12500000000E+03 0.  0.
        -13    1    3    3    0    0 -0.18881086210E+02  0.14854687594E+02 -0.25034083767E+02  0.34696882771E+02  0.10566000000E+00 0. -1.
         23    2    1    0    0    0  0.15083476382E+02  0.11044808102E+02  0.24068978624E+02  0.94523537315E+02  0.89475607451E+02 0.  0.
         13    1    3    3    0    0  0.33964562591E+02 -0.38098794915E+01  0.49103062391E+02  0.59826654544E+02  0.10566000000E+00 0.  1.
         22    1    1    0    0    0 -0.15083476382E+02 -0.11044808102E+02 -0.24068978624E+02  0.30476462685E+02  0.00000000000E+00 0.  1.
</event>
<event>
 5    1  0.1319298E-009  0.9118800E+02  0.7818608E-02  0.1130116E+00
         25   -1    0    0    0    0  0.00000000000E+00  0.00000000000E+00  0.99999998245E-14  0.12500000000E+03  0.12500000000E+03 0.  0.
        -13    1    3    3    0    0 -0.17461487265E+02 -0.28848381590E+02  0.96473038392E+01  0.35074410804E+02  0.10566000000E+00 0.  1.
         23    2    1    0    0    0 -0.12022965727E+01  0.24408881403E+02 -0.15380542153E+02  0.96124403290E+02  0.91684790574E+02 0.  0.
         13    1    3    3    0    0  0.16259190692E+02  0.53257262993E+02 -0.25027845992E+02  0.61049992486E+02  0.10566000000E+00 0. -1.
         22    1    1    0    0    0  0.12022965727E+01 -0.24408881403E+02  0.15380542153E+02  0.28875596710E+02  0.00000000000E+00 0. -1.
</event>
<event>
 5    1  0.1319298E-009  0.9118800E+02  0.7818608E-02  0.1130116E+00
         25   -1    0    0    0    0  0.00000000000E+00  0.00000000000E+00  0.99999998245E-14  0.12500000000E+03  0.12500000000E+03 0.  0.
        -13    1    3    3    0    0  0.42796482878E+02 -0.27206931047E+02 -0.17415343096E+02  0.53619598869E+02  0.10566000000E+00 0.  1.
         23    2    1    0    0    0  0.27576420915E+02  0.84432496875E+01  0.10803948291E+00  0.96159765460E+02  0.91732989513E+02 0.  0.
         13    1    3    3    0    0 -0.15220061963E+02  0.35650180734E+02  0.17523382579E+02  0.42540166591E+02  0.10566000000E+00 0. -1.
         22    1    1    0    0    0 -0.27576420915E+02 -0.84432496875E+01 -0.10803948291E+00  0.28840234540E+02  0.00000000000E+00 0.  1.
</event>
<event>
 5    1  0.1319298E-009  0.9118800E+02  0.7818608E-02  0.1130116E+00
         25   -1    0    0    0    0  0.00000000000E+00  0.00000000000E+00  0.99999998245E-14  0.12500000000E+03  0.12500000000E+03 0.  0.
        -13    1    3    3    0    0  0.55080528777E+02  0.10824292090E+02 -0.22473971926E+02  0.60465862499E+02  0.10566000000E+00 0. -1.
         23    2    1    0    0    0  0.20620922443E+02  0.91578719794E+01 -0.19647617396E+02  0.95081478463E+02  0.90251701457E+02 0.  0.
         13    1    3    3    0    0 -0.34459606333E+02 -0.16664201104E+01  0.28263545301E+01  0.34615615964E+02  0.10566000000E+00 0.  1.
         22    1    1    0    0    0 -0.20620922443E+02 -0.91578719794E+01  0.19647617396E+02  0.29918521537E+02  0.00000000000E+00 0. -1.
</event>
<event>
 5    1  0.1319298E-009  0.9118800E+02  0.7818608E-02  0.1130116E+00
         25   -1    0    0    0    0  0.00000000000E+00  0.00000000000E+00  0.99999998245E-14  0.12500000000E+03  0.12500000000E+03 0.  0.
        -13    1    3    3    0    0  0.29278338798E+02  0.25243546883E+02 -0.50965454574E+01  0.38992867575E+02  0.10566000000E+00 0.  1.
         23    2    1    0    0    0 -0.24277285389E+02  0.14866636617E+02  0.86448832027E+01  0.95248739930E+02  0.90483064617E+02 0.  0.
         13    1    3    3    0    0 -0.53555624188E+02 -0.10376910266E+02  0.13741428660E+02  0.56255872355E+02  0.10566000000E+00 0. -1.
         22    1    1    0    0    0  0.24277285389E+02 -0.14866636617E+02 -0.86448832027E+01  0.29751260070E+02  0.00000000000E+00 0. -1.
</event>
<event>
 5    1  0.1319298E-009  0.9118800E+02  0.7818608E-02  0.1130116E+00
         25   -1    0    0    0    0  0.00000000000E+00  0.00000000000E+00  0.99999998245E-14  0.12500000000E+03  0.12500000000E+03 0.  0.
        -13    1    3    3    0    0  0.28523670508E+02 -0.18291767217E+01 -0.23507424048E+02  0.37007510267E+02  0.10566000000E+00 0. -1.
         23    2    1    0    0    0 -0.19980244527E+02 -0.21019033918E+02  0.35734263143E+01  0.95780497372E+02  0.91214715606E+02 0.  0.
         13    1    3    3    0    0 -0.48503915035E+02 -0.19189857196E+02  0.27080850362E+02  0.58772987106E+02  0.10566000000E+00 0.  1.
         22    1    1    0    0    0  0.19980244527E+02  0.21019033918E+02 -0.35734263143E+01  0.29219502628E+02  0.00000000000E+00 0.  1.
</event>
<event>
 5    1  0.1319298E-009  0.9118800E+02  0.7818608E-02  0.1130116E+00
         25   -1    0    0    0    0  0.00000000000E+00  0.00000000000E+00  0.99999998245E-14  0.12500000000E+03  0.12500000000E+03 0.  0.
        -13    1    3    3    0    0 -0.12150414488E+02  0.31952663218E+01  0.32082571258E+02  0.34454968317E+02  0.10566000000E+00 0.  1.
         23    2    1    0    0    0  0.40153596994E+01  0.24668947846E+02 -0.19950458791E+02  0.93020304766E+02  0.87350307334E+02 0.  0.
         13    1    3    3    0    0  0.16165774188E+02  0.21473681524E+02 -0.52033030049E+02  0.58565336449E+02  0.10566000000E+00 0. -1.
         22    1    1    0    0    0 -0.40153596994E+01 -0.24668947846E+02  0.19950458791E+02  0.31979695234E+02  0.00000000000E+00 0. -1.
</event>
<event>
 5    1  0.1319298E-009  0.9118800E+02  0.7818608E-02  0.1130116E+00
         25   -1    0    0    0    0  0.00000000000E+00  0.00000000000E+00  0.99999998245E-14  0.12500000000E+03  0.12500000000E+03 0.  0.
        -13    1    3    3    0    0  0.21497848293E+02  0.21377998197E+02  0.17324993273E+02  0.34919089967E+02  0.10566000000E+00 0. -1.
         23    2    1    0    0    0 -0.23692078221E+02 -0.11091113247E+02 -0.10103501413E+02  0.96957031108E+02  0.92813025901E+02 0.  0.
         13    1    3    3    0    0 -0.45189926514E+02 -0.32469111444E+02 -0.27428494687E+02  0.62037941141E+02  0.10566000000E+00 0.  1.
         22    1    1    0    0    0  0.23692078221E+02  0.11091113247E+02  0.10103501413E+02  0.28042968892E+02  0.00000000000E+00 0.  1.
</event>
<event>
 5    1  0.1319298E-009  0.9118800E+02  0.7818608E-02  0.1130116E+00
         25   -1    0    0    0    0  0.00000000000E+00  0.00000000000E+00  0.99999998245E-14  0.12500000000E+03  0.12500000000E+03 0.  0.
        -13    1    3    3    0    0 -0.25598714010E+02  0.54839662198E+02  0.48650751707E+00  0.60522149355E+02  0.10566000000E+00 0. -1.
         23    2    1    0    0    0 -0.81464783914E+01  0.26382871499E+02 -0.10186184087E+02  0.95569074684E+02  0.90924521835E+02 0.  0.
         13    1    3    3    0    0  0.17452235618E+02 -0.28456790699E+02 -0.10672691604E+02  0.35046925329E+02  0.10566000000E+00 0.  1.
         22    1    1    0    0    0  0.81464783914E+01 -0.26382871499E+02  0.10186184087E+02  0.29430925316E+02  0.00000000000E+00 0. -1.
</event>
<event>
 5    1  0.1319298E-009  0.9118800E+02  0.7818608E-02  0.1130116E+00
         25   -1    0    0    0    0  0.00000000000E+00  0.00000000000E+00  0.99999998245E-14  0.12500000000E+03  0.12500000000E+03 0.  0.
        -13    1    3    3    0    0  0.12564681112E+02 -0.18674978177E+02 -0.42711073943E+02  0.48279115803E+02  0.10566000000E+00 0.  1.
         23    2    1    0    0    0  0.18082631134E+01  0.21724926985E+02 -0.12382891104E+02  0.99928536938E+02  0.96732281243E+02 0.  0.
         13    1    3    3    0    0 -0.10756417998E+02  0.40399905162E+02  0.30328182838E+02  0.51649421135E+02  0.10566000000E+00 0. -1.
         22    1    1    0    0    0 -0.18082631134E+01 -0.21724926985E+02  0.12382891104E+02  0.25071463062E+02  0.00000000000E+00 0. -1.
</event>
<event>
 5    1  0.1319298E-009  0.9118800E+02  0.7818608E-02  0.1130116E+00
         25   -1    0    0    0    0  0.00000000000E+00  0.00000000000E+00  0.99999998245E-14  0.12500000000E+03  0.12500000000E+03 0.  0.
        -13    1    3    3    0    0  0.42415720907E+02 -0.36689721821E+02  0.69694263921E+01  0.56513831365E+02  0.10566000000E+00 0.  1.
         23    2    1    0    0    0  0.15900752261E+02 -0.93020315636E+01  0.20937092800E+02  0.97112304351E+02  0.93021911869E+02 0.  0.
         13    1    3    3    0    0 -0.26514968645E+02  0.27387690257E+02  0.13967666408E+02  0.40598472986E+02  0.10566000000E+00 0. -1.
         22    1    1    0    0    0 -0.15900752261E+02  0.93020315636E+01 -0.20937092800E+02  0.27887695649E+02  0.00000000000E+00 0.  1.
</event>
<event>
 5    1  0.1319298E-009  0.9118800E+02  0.7818608E-02  0.1130116E+00
         25   -1    0    0    0    0  0.00000000000E+00  0.00000000000E+00  0.99999998245E-14  0.12500000000E+03  0.12500000000E+03 0.  0.
        -13    1    3    3    0    0  0.13448387703E+02  0.31630020081E+02  0.46341393566E+02  0.57696214987E+02  0.10566000000E+00 0.  1.
         23    2    1    0    0    0 -0.59355008427E+01  0.38765297824E+01  0.27833463407E+02  0.96277894600E+02  0.91893817257E+02 0.  0.
         13    1    3    3    0    0 -0.19383888545E+02 -0.27753490299E+02 -0.18507930160E+02  0.38581679613E+02  0.10566000000E+00 0. -1.
         22    1    1    0    0    0  0.59355008427E+01 -0.38765297824E+01 -0.27833463407E+02  0.28722105400E+02  0.00000000000E+00 0.  1.
</event>
<event>
 5    1  0.1319298E-009  0.9118800E+02  0.7818608E-02  0.1130116E+00
         25   -1    0    0    0    0  0.00000000000E+00  0.00000000000E+00  0.99999998245E-14  0.12500000000E+03  0.12500000000E+03 0.  0.
        -13    1    3    3    0    0 -0.84582858794E+01  0.21470705664E+02 -0.27811264513E+02  0.36138779719E+02  0.10566000000E+00 0.  1.
         23    2    1    0    0    0 -0.15159199095E+02 -0.17414976017E+02  0.17356722932E+02  0.96115081135E+02  0.91672080176E+02 0.  0.
         13    1    3    3    0    0 -0.67009132156E+01 -0.38885681681E+02  0.45167987445E+02  0.59976301416E+02  0.10566000000E+00 0. -1.
         22    1    1    0    0    0  0.15159199095E+02  0.17414976017E+02 -0.17356722932E+02  0.28884918865E+02  0.00000000000E+00 0. -1.
</event>
<event>
 5    1  0.1319298E-009  0.9118800E+02  0.7818608E-02  0.1130116E+00
         25   -1    0    0    0    0  0.00000000000E+00  0.00000000000E+00  0.99999998245E-14  0.12500000000E+03  0.12500000000E+03 0.  0.
        -13    1    3    3    0    0  0.15941800097E+02  0.15152918179E+02  0.40848482623E+02  0.46393551452E+02  0.10566000000E+00 0.  1.
         23    2    1    0    0    0  0.28529886253E+02 -0.13210048762E+01 -0.43403045400E+01  0.96111633708E+02  0.91667379297E+02 0.  0.
         13    1    3    3    0    0  0.12588086156E+02 -0.16473923056E+02 -0.45188787163E+02  0.49718082256E+02  0.10566000000E+00 0. -1.
         22    1    1    0    0    0 -0.28529886253E+02  0.13210048762E+01  0.43403045400E+01  0.28888366292E+02  0.00000000000E+00 0. -1.
</event>
<event>
 5    1  0.1319298E-009  0.9118800E+02  0.7818608E-02  0.1130116E+00
         25   -1    0    0    0    0  0.00000000000E+00  0.00000000000E+00  0.99999998245E-14  0.12500000000E+03  0.12500000000E+03 0.  0.
        -13    1    3    3    0    0  0.31820683632E+02 -0.31234313106E+02 -0.26989831377E+02  0.52121016719E+02  0.10566000000E+00 0. -1.
         23    2    1    0    0    0  0.11475960886E+02 -0.27036827804E+02  0.95175494091E+01  0.94124905138E+02  0.88916962861E+02 0.  0.
         13    1    3    3    0    0 -0.20344722746E+02  0.41974853021E+01  0.36507380786E+02  0.42003888419E+02  0.10566000000E+00 0.  1.
         22    1    1    0    0    0 -0.11475960886E+02  0.27036827804E+02 -0.95175494091E+01  0.30875094862E+02  0.00000000000E+00 0. -1.
</event>
<event>
 5    1  0.1319298E-009  0.9118800E+02  0.7818608E-02  0.1130116E+00
         25   -1    0    0    0    0  0.00000000000E+00  0.00000000000E+00  0.99999998245E-14  0.12500000000E+03  0.12500000000E+03 0.  0.
        -13    1    3    3    0    0  0.35250673840E+02  0.58106342287E+01 -0.20313627923E+02  0.41097787285E+02  0.10566000000E+00 0. -1.
         23    2    1    0    0    0 -0.17461989643E+02  0.18976086052E+02 -0.13607871399E+02  0.95842032167E+02  0.91299003509E+02 0.  0.
         13    1    3    3    0    0 -0.52712663482E+02  0.13165451823E+02  0.67057565239E+01  0.54744244882E+02  0.10566000000E+00 0.  1.
         22    1    1    0    0    0  0.17461989643E+02 -0.18976086052E+02  0.13607871399E+02  0.29157967833E+02  0.00000000000E+00 0.  1.
</event>
<event>
 5    1  0.1319298E-009  0.9118800E+02  0.7818608E-02  0.1130116E+00
         25   -1    0    0    0    0  0.00000000000E+00  0.00000000000E+00  0.99999998245E-14  0.12500000000E+03  0.12500000000E+03 0.  0.
        -13    1    3    3    0    0  0.14923326656E+02 -0.44860841627E+02 -0.30744117490E+02  0.56395147967E+02  0.10566000000E+00 0.  1.
         23    2    1    0    0    0  0.37089595813E+01 -0.33730363355E+02  0.11712483498E+00  0.91066130320E+02  0.84507588890E+02 0.  0.
         13    1    3    3    0    0 -0.11214367075E+02  0.11130478272E+02  0.30861242325E+02  0.34670982353E+02  0.10566000000E+00 0. -1.
         22    1    1    0    0    0 -0.37089595813E+01  0.33730363355E+02 -0.11712483498E+00  0.33933869680E+02  0.00000000000E+00 0.  1.
</event>
<event>
 5    1  0.1319298E-009  0.9118800E+02  0.7818608E-02  0.1130116E+00
         25   -1    0    0    0    0  0.00000000000E+00  0.00000000000E+00  0.99999998245E-14  0.12500000000E+03  0.12500000000E+03 0.  0.
        -13    1    3    3    0    0  0.10963426917E+02  0.50691107026E+02 -0.16283986733E+02  0.54359584705E+02  0.10566000000E+00 0. -1.
         23    2    1    0    0    0 -0.38270695582E+01  0.13462108595E+02 -0.25903036135E+02  0.95557817503E+02  0.90909044521E+02 0.  0.
         13    1    3    3    0    0 -0.14790496476E+02 -0.37228998432E+02 -0.96190494019E+01  0.41198232798E+02  0.10566000000E+00 0.  1.
         22    1    1    0    0    0  0.38270695582E+01 -0.13462108595E+02  0.25903036135E+02  0.29442182497E+02  0.00000000000E+00 0. -1.
</event>
<event>
 5    1  0.1319298E-009  0.9118800E+02  0.7818608E-02  0.1130116E+00
         25   -1    0    0    0    0  0.00000000000E+00  0.00000000000E+00  0.99999998245E-14  0.12500000000E+03  0.12500000000E+03 0.  0.
        -13    1    3    3    0    0 -0.32498108549E+02 -0.15073431335E+02  0.50164324786E+01  0.36173348619E+02  0.10566000000E+00 0. -1.
         23    2    1    0    0    0  0.79847730791E+01  0.27700895010E+02  0.78048040142E+01  0.95133444269E+02  0.90323646225E+02 0.  0.
         13    1    3    3    0    0  0.40482881628E+02  0.42774326346E+02  0.27883715356E+01  0.58960095650E+02  0.10566000000E+00 0.  1.
         22    1    1    0    0    0 -0.79847730791E+01 -0.27700895010E+02 -0.78048040142E+01  0.29866555731E+02  0.00000000000E+00 0.  1.
</event>
<event>
 5    1  0.1319298E-009  0.9118800E+02  0.7818608E-02  0.1130116E+00
         25   -1    0    0    0    0  0.00000000000E+00  0.00000000000E+00  0.99999998245E-14  0.12500000000E+03  0.12500000000E+03 0.  0.
        -13    1    3    3    0    0 -0.27992303328E+02 -0.25276001563E+02 -0.20507310797E+01  0.37771178994E+02  0.10566000000E+00 0. -1.
         23    2    1    0    0    0 -0.49172845962E+01  0.18627088580E+02  0.24344109998E+02  0.93955132335E+02  0.88677974062E+02 0.  0.
         13    1    3    3    0    0  0.23075018731E+02  0.43903090142E+02  0.26394841077E+02  0.56183953341E+02  0.10566000000E+00 0.  1.
         22    1    1    0    0    0  0.49172845962E+01 -0.18627088580E+02 -0.24344109998E+02  0.31044867665E+02  0.00000000000E+00 0.  1.
</event>
<event>
 5    1  0.1319298E-009  0.9118800E+02  0.7818608E-02  0.1130116E+00
         25   -1    0    0    0    0  0.00000000000E+00  0.00000000000E+00  0.99999998245E-14  0.12500000000E+03  0.12500000000E+03 0.  0.
        -13    1    3    3    0    0 -0.41644526841E+02  0.92994605538E+01  0.15040937941E+02  0.45243646632E+02  0.10566000000E+00 0.  1.
         23    2    1    0    0    0  0.10109493293E+01  0.26562348227E+02 -0.87097803068E+01  0.97027859665E+02  0.92908368387E+02 0.  0.
         13    1    3    3    0    0  0.42655476170E+02  0.17262887674E+02 -0.23750718248E+02  0.51784213033E+02  0.10566000000E+00 0. -1.
         22    1    1    0    0    0 -0.10109493293E+01 -0.26562348227E+02  0.87097803068E+01  0.27972140335E+02  0.00000000000E+00 0. -1.
</event>
<event>
 5    1  0.1319298E-009  0.9118800E+02  0.7818608E-02  0.1130116E+00
         25   -1    0    0    0    0  0.00000000000E+00  0.00000000000E+00  0.99999998245E-14  0.12500000000E+03  0.12500000000E+03 0.  0.
        -13    1    3    3    0    0 -0.15688750592E+02  0.60042104384E+02  0.43008261092E+01  0.62206908485E+02  0.10566000000E+00 0. -1.
         23    2    1    0    0    0 -0.10467564440E+02  0.24146947142E+02  0.51708870581E+00  0.98676771811E+02  0.95100961891E+02 0.  0.
         13    1    3    3    0    0  0.52211861519E+01 -0.35895157242E+02 -0.37837374034E+01  0.36469863326E+02  0.10566000000E+00 0.  1.
         22    1    1    0    0    0  0.10467564440E+02 -0.24146947142E+02 -0.51708870581E+00  0.26323228189E+02  0.00000000000E+00 0. -1.
</event>
<event>
 5    1  0.1319298E-009  0.9118800E+02  0.7818608E-02  0.1130116E+00
         25   -1    0    0    0    0  0.00000000000E+00  0.00000000000E+00  0.99999998245E-14  0.12500000000E+03  0.12500000000E+03 0.  0.
        -13    1    3    3    0    0 -0.18485574615E+02 -0.28762420210E+02 -0.35094879836E+00  0.34192508160E+02  0.10566000000E+00 0. -1.
         23    2    1    0    0    0  0.23847158294E+01  0.28828672703E+02 -0.50770967919E+01  0.95630693722E+02  0.91009194208E+02 0.  0.
         13    1    3    3    0    0  0.20870290445E+02  0.57591092913E+02 -0.47261479935E+01  0.61438185562E+02  0.10566000000E+00 0.  1.
         22    1    1    0    0    0 -0.23847158294E+01 -0.28828672703E+02  0.50770967919E+01  0.29369306278E+02  0.00000000000E+00 0.  1.
</event>
<event>
 5    1  0.1319298E-009  0.9118800E+02  0.7818608E-02  0.1130116E+00
         25   -1    0    0    0    0  0.00000000000E+00  0.00000000000E+00  0.99999998245E-14  0.12500000000E+03  0.12500000000E+03 0.  0.
        -13    1    3    3    0    0 -0.80533722012E+00 -0.36335488905E+02 -0.28896358803E+02  0.46431961386E+02  0.10566000000E+00 0. -1.
         23    2    1    0    0    0 -0.30092835052E+02 -0.69871184704E+01 -0.69881606499E+01  0.93326147452E+02  0.87786883205E+02 0.  0.
         13    1    3    3    0    0 -0.29287497832E+02  0.29348370435E+02  0.21908198153E+02  0.46894186066E+02  0.10566000000E+00 0.  1.
         22    1    1    0    0    0  0.30092835052E+02  0.69871184704E+01  0.69881606499E+01  0.31673852548E+02  0.00000000000E+00 0. -1.
</event>
<event>
 5    1  0.1319298E-009  0.9118800E+02  0.7818608E-02  0.1130116E+00
         25   -1    0    0    0    0  0.00000000000E+00  0.00000000000E+00  0.99999998245E-14  0.12500000000E+03  0.12500000000E+03 0.  0.
        -13    1    3    3    0    0  0.31462949493E+02  0.98336955532E+01  0.46373412762E+01  0.33288659588E+02  0.10566000000E+00 0.  1.
         23    2    1    0    0    0 -0.23601401347E+02 -0.10586123425E+02 -0.14859197117E+02  0.95169011185E+02  0.90372854311E+02 0.  0.
         13    1    3    3    0    0 -0.55064350839E+02 -0.20419818979E+02 -0.19496538393E+02  0.61880351597E+02  0.10566000000E+00 0. -1.
         22    1    1    0    0    0  0.23601401347E+02  0.10586123425E+02  0.14859197117E+02  0.29830988815E+02  0.00000000000E+00 0. -1.
</event>
<event>
 5    1  0.1319298E-009  0.9118800E+02  0.7818608E-02  0.1130116E+00
         25   -1    0    0    0    0  0.00000000000E+00  0.00000000000E+00  0.99999998245E-14  0.12500000000E+03  0.12500000000E+03 0.  0.
        -13    1    3    3    0    0 -0.27209252099E+02  0.27419076001E+02 -0.12500443655E+02  0.40600755955E+02  0.10566000000E+00 0.  1.
         23    2    1    0    0    0  0.16870767082E+02  0.19236598216E+02  0.17010624706E+02  0.94274915041E+02  0.89127598196E+02 0.  0.
         13    1    3    3    0    0  0.44080019181E+02 -0.81824777845E+01  0.29511068361E+02  0.53674159085E+02  0.10566000000E+00 0. -1.
         22    1    1    0    0    0 -0.16870767082E+02 -0.19236598216E+02 -0.17010624706E+02  0.30725084959E+02  0.00000000000E+00 0. -1.
</event>
<event>
 5    1  0.1319298E-009  0.9118800E+02  0.7818608E-02  0.1130116E+00
         25   -1    0    0    0    0  0.00000000000E+00  0.00000000000E+00  0.99999998245E-14  0.12500000000E+03  0.12500000000E+03 0.  0.
        -13    1    3    3    0    0  0.47113924287E+02  0.12056296619E+02 -0.29088482898E+02  0.56667690541E+02  0.10566000000E+00 0.  1.
         23    2    1    0    0    0  0.28412294344E+02  0.66692290779E+01  0.44834719242E+01  0.95473086737E+02  0.90792464909E+02 0.  0.
         13    1    3    3    0    0 -0.18701629944E+02 -0.53870675408E+01  0.33571954823E+02  0.38805396195E+02  0.10566000000E+00 0. -1.
         22    1    1    0    0    0 -0.28412294344E+02 -0.66692290779E+01 -0.44834719242E+01  0.29526913263E+02  0.00000000000E+00 0.  1.
</event>
<event>
 5    1  0.1319298E-009  0.9118800E+02  0.7818608E-02  0.1130116E+00
         25   -1    0    0    0    0  0.00000000000E+00  0.00000000000E+00  0.99999998245E-14  0.12500000000E+03  0.12500000000E+03 0.  0.
        -13    1    3    3    0    0  0.39904485854E+02  0.23863830193E+02 -0.55007646968E+01  0.46820080724E+02  0.10566000000E+00 0. -1.
         23    2    1    0    0    0  0.20579202080E+01  0.16615666127E+02  0.24270108176E+02  0.95515198028E+02  0.90850423813E+02 0.  0.
         13    1    3    3    0    0 -0.37846565646E+02 -0.72481640659E+01  0.29770872873E+02  0.48695117304E+02  0.10566000000E+00 0.  1.
         22    1    1    0    0    0 -0.20579202080E+01 -0.16615666127E+02 -0.24270108176E+02  0.29484801972E+02  0.00000000000E+00 0.  1.
</event>
<event>
 5    1  0.1319298E-009  0.9118800E+02  0.7818608E-02  0.1130116E+00
         25   -1    0    0    0    0  0.00000000000E+00  0.00000000000E+00  0.99999998245E-14  0.12500000000E+03  0.12500000000E+03 0.  0.
        -13    1    3    3    0    0 -0.10026867631E+01 -0.47347456766E+02  0.37443186586E+02  0.60372099754E+02  0.10566000000E+00 0.  1.
         23    2    1    0    0    0  0.94835705192E+01 -0.25367741470E+02  0.12706926894E+02  0.95084679374E+02  0.90256134659E+02 0.  0.
         13    1    3    3    0    0  0.10486257282E+02  0.21979715296E+02 -0.24736259692E+02  0.34712579620E+02  0.10566000000E+00 0. -1.
         22    1    1    0    0    0 -0.94835705192E+01  0.25367741470E+02 -0.12706926894E+02  0.29915320626E+02  0.00000000000E+00 0.  1.
</event>
<event>
 5    1  0.1319298E-009  0.9118800E+02  0.7818608E-02  0.1130116E+00
         25   -1    0    0    0    0  0.00000000000E+00  0.00000000000E+00  0.99999998245E-14  0.12500000000E+03  0.12500000000E+03 0.  0.
        -13    1    3    3    0    0  0.88574823163E+01  0.30334906079E+02 -0.14243656211E+02  0.34663445098E+02  0.10566000000E+00 0. -1.
         23    2    1    0    0    0  0.18023959321E+01 -0.70767164812E+01  0.30630166373E+02  0.93511341100E+02  0.88050186116E+02 0.  0.
         13    1    3    3    0    0 -0.70550863842E+01 -0.37411622560E+02  0.44873822584E+02  0.58847896002E+02  0.10566000000E+00 0.  1.
         22    1    1    0    0    0 -0.18023959321E+01  0.70767164812E+01 -0.30630166373E+02  0.31488658900E+02  0.00000000000E+00 0.  1.
</event>
<event>
 5    1  0.1319298E-009  0.9118800E+02  0.7818608E-02  0.1130116E+00
         25   -1    0    0    0    0  0.00000000000E+00  0.00000000000E+00  0.99999998245E-14  0.12500000000E+03  0.12500000000E+03 0.  0.
        -13    1    3    3    0    0 -0.20861067093E+02 -0.76398056185E+01 -0.11421491165E+02  0.24980239683E+02  0.10566000000E+00 0. -1.
         23    2    1    0    0    0  0.50093501431E+01 -0.35533771555E+02  0.27788472978E+02  0.79613418941E+02  0.65409133423E+02 0.  0.
         13    1    3    3    0    0  0.25870417236E+02 -0.27893965937E+02  0.39209964144E+02  0.54633179258E+02  0.10566000000E+00 0.  1.
         22    1    1    0    0    0 -0.50093501431E+01  0.35533771555E+02 -0.27788472978E+02  0.45386581059E+02  0.00000000000E+00 0.  1.
</event>
<event>
 4    1  0.1319298E-009  0.9118800E+02  0.7818608E-02  0.1130116E+00
         25   -1    0    0    0    0  0.00000000000E+00  0.00000000000E+00  0.99999998245E-14  0.12500000000E+03  0.12500000000E+03 0.  0.
        -13    1    1    0    0    0  0.17461623262E+02 -0.51434569536E+02 -0.27809874748E+02  0.61023139282E+02  0.10566000000E+00 0.  1.
         13    1    1    0    0    0  0.27194215645E+01  0.42251821044E+01  0.69090113656E+01  0.85435952354E+01  0.10566000000E+00 0. -1.
         22    1    1    0    0    0 -0.20181044827E+02  0.47209387431E+02  0.20900863382E+02  0.55433265483E+02  0.00000000000E+00 0.  1.
</event>
<event>
 5    1  0.1319298E-009  0.9118800E+02  0.7818608E-02  0.1130116E+00
         25   -1    0    0    0    0  0.00000000000E+00  0.00000000000E+00  0.99999998245E-14  0.12500000000E+03  0.12500000000E+03 0.  0.
        -13    1    3    3    0    0  0.33617749956E+02 -0.30426518401E+02 -0.21082906418E+01  0.45391432975E+02  0.10566000000E+00 0. -1.
         23    2    1    0    0    0 -0.13830328286E+02 -0.18884787816E+02 -0.16571700455E+02  0.96320138645E+02  0.91951262424E+02 0.  0.
         13    1    3    3    0    0 -0.47448078242E+02  0.11541730585E+02 -0.14463409813E+02  0.50928705670E+02  0.10566000000E+00 0.  1.
         22    1    1    0    0    0  0.13830328286E+02  0.18884787816E+02  0.16571700455E+02  0.28679861355E+02  0.00000000000E+00 0. -1.
</event>
<event>
 5    1  0.1319298E-009  0.9118800E+02  0.7818608E-02  0.1130116E+00
         25   -1    0    0    0    0  0.00000000000E+00  0.00000000000E+00  0.99999998245E-14  0.12500000000E+03  0.12500000000E+03 0.  0.
        -13    1    3    3    0    0 -0.78005233967E+01 -0.13730087019E+02 -0.35698320279E+02  0.39035172468E+02  0.10566000000E+00 0.  1.
         23    2    1    0    0    0  0.26347496130E+02  0.14130824828E+02 -0.10710632769E+01  0.95083149578E+02  0.90254015946E+02 0.  0.
         13    1    3    3    0    0  0.34148019527E+02  0.27860911847E+02  0.34627257002E+02  0.56047977110E+02  0.10566000000E+00 0. -1.
         22    1    1    0    0    0 -0.26347496130E+02 -0.14130824828E+02  0.10710632769E+01  0.29916850422E+02  0.00000000000E+00 0. -1.
</event>
<event>
 5    1  0.1319298E-009  0.9118800E+02  0.7818608E-02  0.1130116E+00
         25   -1    0    0    0    0  0.00000000000E+00  0.00000000000E+00  0.99999998245E-14  0.12500000000E+03  0.12500000000E+03 0.  0.
        -13    1    3    3    0    0  0.29726859581E+02 -0.15721654673E+02 -0.63347791039E-05  0.33628377455E+02  0.10566000000E+00 0.  1.
         23    2    1    0    0    0 -0.29331860340E+02  0.28112108327E+01  0.52734764973E+00  0.95529013711E+02  0.90869430655E+02 0.  0.
         13    1    3    3    0    0 -0.59058719921E+02  0.18532865506E+02  0.52735398451E+00  0.61900636255E+02  0.10566000000E+00 0. -1.
         22    1    1    0    0    0  0.29331860340E+02 -0.28112108327E+01 -0.52734764973E+00  0.29470986289E+02  0.00000000000E+00 0. -1.
</event>
<event>
 5    1  0.1319298E-009  0.9118800E+02  0.7818608E-02  0.1130116E+00
         25   -1    0    0    0    0  0.00000000000E+00  0.00000000000E+00  0.99999998245E-14  0.12500000000E+03  0.12500000000E+03 0.  0.
        -13    1    3    3    0    0  0.28512225007E+02 -0.20992637067E+02  0.47594487387E+02  0.59320183577E+02  0.10566000000E+00 0.  1.
         23    2    1    0    0    0  0.14268696606E+02  0.37841216843E+01  0.25852860575E+02  0.95229449456E+02  0.90456411404E+02 0.  0.
         13    1    3    3    0    0 -0.14243528401E+02  0.24776758752E+02 -0.21741626812E+02  0.35909265880E+02  0.10566000000E+00 0. -1.
         22    1    1    0    0    0 -0.14268696606E+02 -0.37841216843E+01 -0.25852860575E+02  0.29770550544E+02  0.00000000000E+00 0.  1.
</event>
<event>
 5    1  0.1319298E-009  0.9118800E+02  0.7818608E-02  0.1130116E+00
         25   -1    0    0    0    0  0.00000000000E+00  0.00000000000E+00  0.99999998245E-14  0.12500000000E+03  0.12500000000E+03 0.  0.
        -13    1    3    3    0    0 -0.11548373352E+02 -0.16797407383E+02 -0.27857110595E+02  0.34518800625E+02  0.10566000000E+00 0. -1.
         23    2    1    0    0    0  0.21212017050E+02  0.93447069668E+01  0.17260538177E+02  0.96100183499E+02  0.91651764166E+02 0.  0.
         13    1    3    3    0    0  0.32760390402E+02  0.26142114350E+02  0.45117648771E+02  0.61581382874E+02  0.10566000000E+00 0.  1.
         22    1    1    0    0    0 -0.21212017050E+02 -0.93447069668E+01 -0.17260538177E+02  0.28899816501E+02  0.00000000000E+00 0.  1.
</event>
<event>
 5    1  0.1319298E-009  0.9118800E+02  0.7818608E-02  0.1130116E+00
         25   -1    0    0    0    0  0.00000000000E+00  0.00000000000E+00  0.99999998245E-14  0.12500000000E+03  0.12500000000E+03 0.  0.
        -13    1    3    3    0    0 -0.49651421717E+02 -0.18737539896E+02  0.97673121007E+01  0.53960824953E+02  0.10566000000E+00 0.  1.
         23    2    1    0    0    0 -0.23115324652E+02 -0.31069138454E+01 -0.18086407229E+02  0.95485778447E+02  0.90809936746E+02 0.  0.
         13    1    3    3    0    0  0.26536097065E+02  0.15630626051E+02 -0.27853719330E+02  0.41524953494E+02  0.10566000000E+00 0. -1.
         22    1    1    0    0    0  0.23115324652E+02  0.31069138454E+01  0.18086407229E+02  0.29514221553E+02  0.00000000000E+00 0. -1.
</event>
<event>
 5    1  0.1319298E-009  0.9118800E+02  0.7818608E-02  0.1130116E+00
         25   -1    0    0    0    0  0.00000000000E+00  0.00000000000E+00  0.99999998245E-14  0.12500000000E+03  0.12500000000E+03 0.  0.
        -13    1    3    3    0    0 -0.85307697765E+00  0.12698344073E+02 -0.37078939649E+02  0.39202482218E+02  0.10566000000E+00 0.  1.
         23    2    1    0    0    0 -0.23541877135E+02  0.83552963513E+01  0.14780359527E+02  0.95974321991E+02  0.91479945877E+02 0.  0.
         13    1    3    3    0    0 -0.22688800157E+02 -0.43430477218E+01  0.51859299176E+02  0.56771839773E+02  0.10566000000E+00 0. -1.
         22    1    1    0    0    0  0.23541877135E+02 -0.83552963513E+01 -0.14780359527E+02  0.29025678009E+02  0.00000000000E+00 0. -1.
</event>
<event>
 5    1  0.1319298E-009  0.9118800E+02  0.7818608E-02  0.1130116E+00
         25   -1    0    0    0    0  0.00000000000E+00  0.00000000000E+00  0.99999998245E-14  0.12500000000E+03  0.12500000000E+03 0.  0.
        -13    1    3    3    0    0 -0.58832137511E+01  0.21462965146E+02 -0.36279316781E+02  0.42561379994E+02  0.10566000000E+00 0.  1.
         23    2    1    0    0    0 -0.29481323050E+02 -0.57083339554E+01  0.17506434496E+01  0.94920135675E+02  0.90027961872E+02 0.  0.
         13    1    3    3    0    0 -0.23598109299E+02 -0.27171299101E+02  0.38029960230E+02  0.52358755681E+02  0.10566000000E+00 0. -1.
         22    1    1    0    0    0  0.29481323050E+02  0.57083339554E+01 -0.17506434496E+01  0.30079864325E+02  0.00000000000E+00 0. -1.
</event>
<event>
 5    1  0.1319298E-009  0.9118800E+02  0.7818608E-02  0.1130116E+00
         25   -1    0    0    0    0  0.00000000000E+00  0.00000000000E+00  0.99999998245E-14  0.12500000000E+03  0.12500000000E+03 0.  0.
        -13    1    3    3    0    0  0.49510003480E+02  0.28703748581E+02 -0.59349720867E+01  0.57535907787E+02  0.10566000000E+00 0. -1.
         23    2    1    0    0    0  0.12078837928E+02  0.23816454029E+02 -0.11919310681E+02  0.95756337860E+02  0.91181601571E+02 0.  0.
         13    1    3    3    0    0 -0.37431165551E+02 -0.48872945511E+01 -0.59843385946E+01  0.38220430074E+02  0.10566000000E+00 0.  1.
         22    1    1    0    0    0 -0.12078837928E+02 -0.23816454029E+02  0.11919310681E+02  0.29243662140E+02  0.00000000000E+00 0. -1.
</event>
<event>
 5    1  0.1319298E-009  0.9118800E+02  0.7818608E-02  0.1130116E+00
         25   -1    0    0    0    0  0.00000000000E+00  0.00000000000E+00  0.99999998245E-14  0.12500000000E+03  0.12500000000E+03 0.  0.
        -13    1    3    3    0    0 -0.23213375601E+02  0.21480505077E+02  0.10919889983E+02  0.33459349462E+02  0.10566000000E+00 0. -1.
         23    2    1    0    0    0  0.30803581033E+02 -0.31697046576E+01  0.85178268899E+01  0.92883633347E+02  0.87154508413E+02 0.  0.
         13    1    3    3    0    0  0.54016956635E+02 -0.24650209734E+02 -0.24020630928E+01  0.59424283884E+02  0.10566000000E+00 0.  1.
         22    1    1    0    0    0 -0.30803581033E+02  0.31697046576E+01 -0.85178268899E+01  0.32116366653E+02  0.00000000000E+00 0.  1.
</event>
<event>
 5    1  0.1319298E-009  0.9118800E+02  0.7818608E-02  0.1130116E+00
         25   -1    0    0    0    0  0.00000000000E+00  0.00000000000E+00  0.99999998245E-14  0.12500000000E+03  0.12500000000E+03 0.  0.
        -13    1    3    3    0    0  0.38459778941E+01 -0.33733153150E+02  0.46346419545E+02  0.57451883660E+02  0.10566000000E+00 0.  1.
         23    2    1    0    0    0  0.13721174686E+02 -0.25275721094E+01  0.24506104858E+02  0.96800559742E+02  0.92602051465E+02 0.  0.
         13    1    3    3    0    0  0.98751967916E+01  0.31205581041E+02 -0.21840314687E+02  0.39348676082E+02  0.10566000000E+00 0. -1.
         22    1    1    0    0    0 -0.13721174686E+02  0.25275721094E+01 -0.24506104858E+02  0.28199440258E+02  0.00000000000E+00 0.  1.
</event>
<event>
 5    1  0.1319298E-009  0.9118800E+02  0.7818608E-02  0.1130116E+00
         25   -1    0    0    0    0  0.00000000000E+00  0.00000000000E+00  0.99999998245E-14  0.12500000000E+03  0.12500000000E+03 0.  0.
        -13    1    3    3    0    0  0.45308695675E+01  0.43853877822E+02 -0.29839387705E+02  0.53236186957E+02  0.10566000000E+00 0.  1.
         23    2    1    0    0    0  0.23395122223E+02  0.10022780561E+02 -0.55711646545E+01  0.98945715331E+02  0.95453804706E+02 0.  0.
         13    1    3    3    0    0  0.18864252655E+02 -0.33831097261E+02  0.24268223051E+02  0.45709528374E+02  0.10566000000E+00 0. -1.
         22    1    1    0    0    0 -0.23395122223E+02 -0.10022780561E+02  0.55711646545E+01  0.26054284669E+02  0.00000000000E+00 0. -1.
</event>
<event>
 5    1  0.1319298E-009  0.9118800E+02  0.7818608E-02  0.1130116E+00
         25   -1    0    0    0    0  0.00000000000E+00  0.00000000000E+00  0.99999998245E-14  0.12500000000E+03  0.12500000000E+03 0.  0.
        -13    1    3    3    0    0  0.42466710964E+02  0.15295685516E+02  0.30704441798E+02  0.54590781691E+02  0.10566000000E+00 0.  1.
         23    2    1    0    0    0  0.14331425185E+02  0.25735484537E+02  0.30743028405E+01  0.95383176231E+02  0.90668594661E+02 0.  0.
         13    1    3    3    0    0 -0.28135285780E+02  0.10439799022E+02 -0.27630138957E+02  0.40792394540E+02  0.10566000000E+00 0. -1.
         22    1    1    0    0    0 -0.14331425185E+02 -0.25735484537E+02 -0.30743028405E+01  0.29616823769E+02  0.00000000000E+00 0.  1.
</event>
<event>
 5    1  0.1319298E-009  0.9118800E+02  0.7818608E-02  0.1130116E+00
         25   -1    0    0    0    0  0.00000000000E+00  0.00000000000E+00  0.99999998245E-14  0.12500000000E+03  0.12500000000E+03 0.  0.
        -13    1    3    3    0    0 -0.29463641578E+02  0.24851818770E+02  0.29797717340E+02  0.48719956835E+02  0.10566000000E+00 0.  1.
         23    2    1    0    0    0 -0.25324246043E+02 -0.12548180785E+02 -0.31260810078E-01  0.96737387667E+02  0.92516738576E+02 0.  0.
         13    1    3    3    0    0  0.41393955354E+01 -0.37399999556E+02 -0.29828978151E+02  0.48017430832E+02  0.10566000000E+00 0. -1.
         22    1    1    0    0    0  0.25324246043E+02  0.12548180785E+02  0.31260810078E-01  0.28262612333E+02  0.00000000000E+00 0. -1.
</event>
<event>
 5    1  0.1319298E-009  0.9118800E+02  0.7818608E-02  0.1130116E+00
         25   -1    0    0    0    0  0.00000000000E+00  0.00000000000E+00  0.99999998245E-14  0.12500000000E+03  0.12500000000E+03 0.  0.
        -13    1    3    3    0    0 -0.42565464286E+02 -0.14583898708E+00 -0.12223216023E+02  0.44286094802E+02  0.10566000000E+00 0.  1.
         23    2    1    0    0    0 -0.12194872099E+01 -0.90898840276E+01  0.23575694989E+02  0.99703230741E+02  0.96440695173E+02 0.  0.
         13    1    3    3    0    0  0.41345977076E+02 -0.89440450405E+01  0.35798911012E+02  0.55417135939E+02  0.10566000000E+00 0. -1.
         22    1    1    0    0    0  0.12194872099E+01  0.90898840276E+01 -0.23575694989E+02  0.25296769259E+02  0.00000000000E+00 0. -1.
</event>
<event>
 5    1  0.1319298E-009  0.9118800E+02  0.7818608E-02  0.1130116E+00
         25   -1    0    0    0    0  0.00000000000E+00  0.00000000000E+00  0.99999998245E-14  0.12500000000E+03  0.12500000000E+03 0.  0.
        -13    1    3    3    0    0 -0.41842581911E+02  0.41187182589E+02  0.13820744120E+02  0.60317574575E+02  0.10566000000E+00 0.  1.
         23    2    1    0    0    0 -0.16670760575E+02  0.16586378871E+02  0.17471817720E+02  0.95703470570E+02  0.91109097474E+02 0.  0.
         13    1    3    3    0    0  0.25171821335E+02 -0.24600803718E+02  0.36510735998E+01  0.35385895995E+02  0.10566000000E+00 0. -1.
         22    1    1    0    0    0  0.16670760575E+02 -0.16586378871E+02 -0.17471817720E+02  0.29296529430E+02  0.00000000000E+00 0.  1.
</event>
<event>
 5    1  0.1319298E-009  0.9118800E+02  0.7818608E-02  0.1130116E+00
         25   -1    0    0    0    0  0.00000000000E+00  0.00000000000E+00  0.99999998245E-14  0.12500000000E+03  0.12500000000E+03 0.  0.
        -13    1    3    3    0    0  0.14463526386E+02 -0.35419568941E+02  0.44398762860E+02  0.58608879592E+02  0.10566000000E+00 0.  1.
         23    2    1    0    0    0  0.61100123959E+01 -0.29005321511E+01  0.28409046404E+02  0.95796930712E+02  0.91237232959E+02 0.  0.
         13    1    3    3    0    0 -0.83535139902E+01  0.32519036790E+02 -0.15989716455E+02  0.37188051120E+02  0.10566000000E+00 0. -1.
         22    1    1    0    0    0 -0.61100123959E+01  0.29005321511E+01 -0.28409046404E+02  0.29203069288E+02  0.00000000000E+00 0.  1.
</event>
<event>
 5    1  0.1319298E-009  0.9118800E+02  0.7818608E-02  0.1130116E+00
         25   -1    0    0    0    0  0.00000000000E+00  0.00000000000E+00  0.99999998245E-14  0.12500000000E+03  0.12500000000E+03 0.  0.
        -13    1    3    3    0    0 -0.30071689428E+02 -0.30226443147E+02  0.30453300638E+02  0.52396174041E+02  0.10566000000E+00 0.  1.
         23    2    1    0    0    0 -0.61616330165E+00  0.69729949103E+01  0.23656146596E+02  0.10032986447E+03  0.97249504460E+02 0.  0.
         13    1    3    3    0    0  0.29455526126E+02  0.37199438058E+02 -0.67971540413E+01  0.47933690430E+02  0.10566000000E+00 0. -1.
         22    1    1    0    0    0  0.61616330165E+00 -0.69729949103E+01 -0.23656146596E+02  0.24670135529E+02  0.00000000000E+00 0.  1.
</event>
<event>
 5    1  0.1319298E-009  0.9118800E+02  0.7818608E-02  0.1130116E+00
         25   -1    0    0    0    0  0.00000000000E+00  0.00000000000E+00  0.99999998245E-14  0.12500000000E+03  0.12500000000E+03 0.  0.
        -13    1    3    3    0    0 -0.10588649121E+02  0.41430851494E+02  0.96405115055E+01  0.43835893648E+02  0.10566000000E+00 0. -1.
         23    2    1    0    0    0 -0.28889038149E+02 -0.57963587881E+01 -0.68735927253E+00  0.95527186033E+02  0.90866916467E+02 0.  0.
         13    1    3    3    0    0 -0.18300389028E+02 -0.47227210283E+02 -0.10327870778E+02  0.51691292385E+02  0.10566000000E+00 0.  1.
         22    1    1    0    0    0  0.28889038149E+02  0.57963587881E+01  0.68735927253E+00  0.29472813967E+02  0.00000000000E+00 0.  1.
</event>
<event>
 5    1  0.1319298E-009  0.9118800E+02  0.7818608E-02  0.1130116E+00
         25   -1    0    0    0    0  0.00000000000E+00  0.00000000000E+00  0.99999998245E-14  0.12500000000E+03  0.12500000000E+03 0.  0.
        -13    1    3    3    0    0 -0.28703997955E+02  0.33452687741E+02  0.15851357397E+02  0.46843126614E+02  0.10566000000E+00 0.  1.
         23    2    1    0    0    0 -0.11952701881E+02  0.60802799680E+01 -0.23695646973E+02  0.97772797202E+02  0.93905267693E+02 0.  0.
         13    1    3    3    0    0  0.16751296074E+02 -0.27372407772E+02 -0.39547004371E+02  0.50929670587E+02  0.10566000000E+00 0. -1.
         22    1    1    0    0    0  0.11952701881E+02 -0.60802799680E+01  0.23695646973E+02  0.27227202798E+02  0.00000000000E+00 0. -1.
</event>
<event>
 5    1  0.1319298E-009  0.9118800E+02  0.7818608E-02  0.1130116E+00
         25   -1    0    0    0    0  0.00000000000E+00  0.00000000000E+00  0.99999998245E-14  0.12500000000E+03  0.12500000000E+03 0.  0.
        -13    1    3    3    0    0 -0.11126454132E+02  0.47830491081E+02  0.23862689886E+02  0.54598470595E+02  0.10566000000E+00 0.  1.
         23    2    1    0    0    0  0.15196064937E+02  0.76208329480E+01  0.12265154745E+02  0.10403737838E+03  0.10190360442E+03 0.  0.
         13    1    3    3    0    0  0.26322519069E+02 -0.40209658133E+02 -0.11597535141E+02  0.49438907782E+02  0.10566000000E+00 0. -1.
         22    1    1    0    0    0 -0.15196064937E+02 -0.76208329480E+01 -0.12265154745E+02  0.20962621623E+02  0.00000000000E+00 0.  1.
</event>
<event>
 5    1  0.1319298E-009  0.9118800E+02  0.7818608E-02  0.1130116E+00
         25   -1    0    0    0    0  0.00000000000E+00  0.00000000000E+00  0.99999998245E-14  0.12500000000E+03  0.12500000000E+03 0.  0.
        -13    1    3    3    0    0  0.45971729470E+02 -0.40075164003E+02  0.95114808386E+01  0.61724372108E+02  0.10566000000E+00 0. -1.
         23    2    1    0    0    0  0.26718720775E+02 -0.14182846523E+02  0.34595252608E+01  0.94553136609E+02  0.89516948966E+02 0.  0.
         13    1    3    3    0    0 -0.19253008696E+02  0.25892317479E+02 -0.60519555778E+01  0.32828764501E+02  0.10566000000E+00 0.  1.
         22    1    1    0    0    0 -0.26718720775E+02  0.14182846523E+02 -0.34595252608E+01  0.30446863391E+02  0.00000000000E+00 0. -1.
</event>
<event>
 5    1  0.1319298E-009  0.9118800E+02  0.7818608E-02  0.1130116E+00
         25   -1    0    0    0    0  0.00000000000E+00  0.00000000000E+00  0.99999998245E-14  0.12500000000E+03  0.12500000000E+03 0.  0.
        -13    1    3    3    0    0 -0.30092015179E+02  0.28352294959E+02 -0.22647599208E+02  0.47141350436E+02  0.10566000000E+00 0.  1.
         23    2    1    0    0    0  0.15168483081E+02  0.21758259039E+02 -0.17624133436E+02  0.93154830904E+02  0.87542605205E+02 0.  0.
         13    1    3    3    0    0  0.45260498260E+02 -0.65940359194E+01  0.50234657727E+01  0.46013480468E+02  0.10566000000E+00 0. -1.
         22    1    1    0    0    0 -0.15168483081E+02 -0.21758259039E+02  0.17624133436E+02  0.31845169096E+02  0.00000000000E+00 0. -1.
</event>
<event>
 5    1  0.1319298E-009  0.9118800E+02  0.7818608E-02  0.1130116E+00
         25   -1    0    0    0    0  0.00000000000E+00  0.00000000000E+00  0.99999998245E-14  0.12500000000E+03  0.12500000000E+03 0.  0.
        -13    1    3    3    0    0  0.21134664941E+02  0.24006970754E+02 -0.51921058569E+01  0.32403361464E+02  0.10566000000E+00 0. -1.
         23    2    1    0    0    0 -0.18315351711E+02 -0.20217248290E+02  0.13524535564E+02  0.94551645382E+02  0.89514866618E+02 0.  0.
         13    1    3    3    0    0 -0.39450016652E+02 -0.44224219043E+02  0.18716641420E+02  0.62148283918E+02  0.10566000000E+00 0.  1.
         22    1    1    0    0    0  0.18315351711E+02  0.20217248290E+02 -0.13524535564E+02  0.30448354618E+02  0.00000000000E+00 0.  1.
</event>
<event>
 5    1  0.1319298E-009  0.9118800E+02  0.7818608E-02  0.1130116E+00
         25   -1    0    0    0    0  0.00000000000E+00  0.00000000000E+00  0.99999998245E-14  0.12500000000E+03  0.12500000000E+03 0.  0.
        -13    1    3    3    0    0  0.19741345268E+02  0.19091200297E+02  0.19291345843E+02  0.33561314489E+02  0.10566000000E+00 0.  1.
         23    2    1    0    0    0 -0.24584845382E+02 -0.99097989412E+01 -0.12873032432E+02  0.95532497535E+02  0.90874222879E+02 0.  0.
         13    1    3    3    0    0 -0.44326190650E+02 -0.29000999238E+02 -0.32164378275E+02  0.61971183046E+02  0.10566000000E+00 0. -1.
         22    1    1    0    0    0  0.24584845382E+02  0.99097989412E+01  0.12873032432E+02  0.29467502465E+02  0.00000000000E+00 0. -1.
</event>
<event>
 5    1  0.1319298E-009  0.9118800E+02  0.7818608E-02  0.1130116E+00
         25   -1    0    0    0    0  0.00000000000E+00  0.00000000000E+00  0.99999998245E-14  0.12500000000E+03  0.12500000000E+03 0.  0.
        -13    1    3    3    0    0  0.84177062770E+01  0.20067487821E+02 -0.22610257051E+02  0.31381471195E+02  0.10566000000E+00 0. -1.
         23    2    1    0    0    0 -0.21361239533E+02 -0.16460937556E+02  0.17149161476E+02  0.93041296038E+02  0.87380341093E+02 0.  0.
         13    1    3    3    0    0 -0.29778945810E+02 -0.36528425376E+02  0.39759418527E+02  0.61659824843E+02  0.10566000000E+00 0.  1.
         22    1    1    0    0    0  0.21361239533E+02  0.16460937556E+02 -0.17149161476E+02  0.31958703962E+02  0.00000000000E+00 0.  1.
</event>
<event>
 5    1  0.1319298E-009  0.9118800E+02  0.7818608E-02  0.1130116E+00
         25   -1    0    0    0    0  0.00000000000E+00  0.00000000000E+00  0.99999998245E-14  0.12500000000E+03  0.12500000000E+03 0.  0.
        -13    1    3    3    0    0  0.24408660136E+02  0.20407784226E+02 -0.78215120359E+01  0.32763509599E+02  0.10566000000E+00 0.  1.
         23    2    1    0    0    0 -0.13698915031E+02 -0.26004489261E+02  0.73501938268E+01  0.94702820526E+02  0.89725721683E+02 0.  0.
         13    1    3    3    0    0 -0.38107575168E+02 -0.46412273487E+02  0.15171705863E+02  0.61939310928E+02  0.10566000000E+00 0. -1.
         22    1    1    0    0    0  0.13698915031E+02  0.26004489261E+02 -0.73501938268E+01  0.30297179474E+02  0.00000000000E+00 0. -1.
</event>
<event>
 5    1  0.1319298E-009  0.9118800E+02  0.7818608E-02  0.1130116E+00
         25   -1    0    0    0    0  0.00000000000E+00  0.00000000000E+00  0.99999998245E-14  0.12500000000E+03  0.12500000000E+03 0.  0.
        -13    1    3    3    0    0  0.11241699239E+02  0.27424215579E+00  0.37281427139E+02  0.38940557059E+02  0.10566000000E+00 0. -1.
         23    2    1    0    0    0  0.33543597668E+02 -0.86403892898E+01 -0.73188673267E+01  0.89596679668E+02  0.82305345616E+02 0.  0.
         13    1    3    3    0    0  0.22301898429E+02 -0.89146314456E+01 -0.44600294465E+02  0.50656122609E+02  0.10566000000E+00 0.  1.
         22    1    1    0    0    0 -0.33543597668E+02  0.86403892898E+01  0.73188673267E+01  0.35403320332E+02  0.00000000000E+00 0.  1.
</event>
<event>
 5    1  0.1319298E-009  0.9118800E+02  0.7818608E-02  0.1130116E+00
         25   -1    0    0    0    0  0.00000000000E+00  0.00000000000E+00  0.99999998245E-14  0.12500000000E+03  0.12500000000E+03 0.  0.
        -13    1    3    3    0    0 -0.48084028269E+02  0.16116768478E+02 -0.30213397362E+01  0.50803185516E+02  0.10566000000E+00 0.  1.
         23    2    1    0    0    0 -0.49445962061E+01  0.28744709367E+02 -0.20002309130E+01  0.95764605835E+02  0.91192935356E+02 0.  0.
         13    1    3    3    0    0  0.43139432063E+02  0.12627940889E+02  0.10211088232E+01  0.44961420319E+02  0.10566000000E+00 0. -1.
         22    1    1    0    0    0  0.49445962061E+01 -0.28744709367E+02  0.20002309130E+01  0.29235394165E+02  0.00000000000E+00 0.  1.
</event>
<event>
 5    1  0.1319298E-009  0.9118800E+02  0.7818608E-02  0.1130116E+00
         25   -1    0    0    0    0  0.00000000000E+00  0.00000000000E+00  0.99999998245E-14  0.12500000000E+03  0.12500000000E+03 0.  0.
        -13    1    3    3    0    0  0.39447604715E+02 -0.16677499600E+02  0.15201659445E+02  0.45446167325E+02  0.10566000000E+00 0. -1.
         23    2    1    0    0    0  0.10617958171E+02  0.23411170002E+02 -0.50249501663E+01  0.98806984886E+02  0.95271959261E+02 0.  0.
         13    1    3    3    0    0 -0.28829646543E+02  0.40088669603E+02 -0.20226609611E+02  0.53360817560E+02  0.10566000000E+00 0.  1.
         22    1    1    0    0    0 -0.10617958171E+02 -0.23411170002E+02  0.50249501663E+01  0.26193015114E+02  0.00000000000E+00 0.  1.
</event>
<event>
 5    1  0.1319298E-009  0.9118800E+02  0.7818608E-02  0.1130116E+00
         25   -1    0    0    0    0  0.00000000000E+00  0.00000000000E+00  0.99999998245E-14  0.12500000000E+03  0.12500000000E+03 0.  0.
        -13    1    3    3    0    0  0.24485471519E+02  0.36105974494E+02 -0.38595526088E+02  0.58247794016E+02  0.10566000000E+00 0. -1.
         23    2    1    0    0    0  0.22878739981E+02  0.10812428717E+02 -0.70154267342E+01  0.98740495623E+02  0.95184683146E+02 0.  0.
         13    1    3    3    0    0 -0.16067315374E+01 -0.25293545777E+02  0.31580099354E+02  0.40492701607E+02  0.10566000000E+00 0.  1.
         22    1    1    0    0    0 -0.22878739981E+02 -0.10812428717E+02  0.70154267342E+01  0.26259504377E+02  0.00000000000E+00 0. -1.
</event>
<event>
 5    1  0.1319298E-009  0.9118800E+02  0.7818608E-02  0.1130116E+00
         25   -1    0    0    0    0  0.00000000000E+00  0.00000000000E+00  0.99999998245E-14  0.12500000000E+03  0.12500000000E+03 0.  0.
        -13    1    3    3    0    0 -0.76853680097E+01 -0.27956256311E+02  0.54784925043E+02  0.61984000551E+02  0.10566000000E+00 0.  1.
         23    2    1    0    0    0 -0.51493206275E+01 -0.17936974344E+02  0.23147854498E+02  0.95266622805E+02  0.90507765973E+02 0.  0.
         13    1    3    3    0    0  0.25360473822E+01  0.10019281967E+02 -0.31637070544E+02  0.33282622254E+02  0.10566000000E+00 0. -1.
         22    1    1    0    0    0  0.51493206275E+01  0.17936974344E+02 -0.23147854498E+02  0.29733377195E+02  0.00000000000E+00 0.  1.
</event>
<event>
 5    1  0.1319298E-009  0.9118800E+02  0.7818608E-02  0.1130116E+00
         25   -1    0    0    0    0  0.00000000000E+00  0.00000000000E+00  0.99999998245E-14  0.12500000000E+03  0.12500000000E+03 0.  0.
        -13    1    3    3    0    0 -0.30225980036E+02  0.61090442756E+01  0.26675109675E+01  0.30952496990E+02  0.10566000000E+00 0.  1.
         23    2    1    0    0    0  0.19691198657E+01  0.41491618981E+02  0.15796801533E+02  0.80559356245E+02  0.67192552127E+02 0.  0.
         13    1    3    3    0    0  0.32195099902E+02  0.35382574705E+02  0.13129290565E+02  0.49606859256E+02  0.10566000000E+00 0. -1.
         22    1    1    0    0    0 -0.19691198657E+01 -0.41491618981E+02 -0.15796801533E+02  0.44440643755E+02  0.00000000000E+00 0. -1.
</event>
<event>
 5    1  0.1319298E-009  0.9118800E+02  0.7818608E-02  0.1130116E+00
         25   -1    0    0    0    0  0.00000000000E+00  0.00000000000E+00  0.99999998245E-14  0.12500000000E+03  0.12500000000E+03 0.  0.
        -13    1    3    3    0    0  0.49241755488E+02  0.10350218395E+02  0.17267846233E+02  0.53198375745E+02  0.10566000000E+00 0.  1.
         23    2    1    0    0    0  0.22544505282E+02  0.13126159820E+02 -0.14791831038E+02  0.95010851038E+02  0.90153828312E+02 0.  0.
         13    1    3    3    0    0 -0.26697250206E+02  0.27759414249E+01 -0.32059677271E+02  0.41812475293E+02  0.10566000000E+00 0. -1.
         22    1    1    0    0    0 -0.22544505282E+02 -0.13126159820E+02  0.14791831038E+02  0.29989148962E+02  0.00000000000E+00 0.  1.
</event>
<event>
 5    1  0.1319298E-009  0.9118800E+02  0.7818608E-02  0.1130116E+00
         25   -1    0    0    0    0  0.00000000000E+00  0.00000000000E+00  0.99999998245E-14  0.12500000000E+03  0.12500000000E+03 0.  0.
        -13    1    3    3    0    0  0.32176117404E+02 -0.28836576158E+02  0.85443967732E+01  0.44043938697E+02  0.10566000000E+00 0. -1.
         23    2    1    0    0    0 -0.17116351921E+02 -0.20361603377E+02  0.14979656647E+02  0.94472070027E+02  0.89403677255E+02 0.  0.
         13    1    3    3    0    0 -0.49292469325E+02  0.84749727808E+01  0.64352598742E+01  0.50428131330E+02  0.10566000000E+00 0.  1.
         22    1    1    0    0    0  0.17116351921E+02  0.20361603377E+02 -0.14979656647E+02  0.30527929973E+02  0.00000000000E+00 0.  1.
</event>
<event>
 5    1  0.1319298E-009  0.9118800E+02  0.7818608E-02  0.1130116E+00
         25   -1    0    0    0    0  0.00000000000E+00  0.00000000000E+00  0.99999998245E-14  0.12500000000E+03  0.12500000000E+03 0.  0.
        -13    1    3    3    0    0  0.94132652183E+01  0.58786605848E+01 -0.24617640934E+02  0.27003844569E+02  0.10566000000E+00 0.  1.
         23    2    1    0    0    0 -0.71841115585E+01 -0.28665411892E+02  0.22585155412E+02  0.87805826494E+02  0.79539025789E+02 0.  0.
         13    1    3    3    0    0 -0.16597376777E+02 -0.34544072477E+02  0.47202796345E+02  0.60801981925E+02  0.10566000000E+00 0. -1.
         22    1    1    0    0    0  0.71841115585E+01  0.28665411892E+02 -0.22585155412E+02  0.37194173506E+02  0.00000000000E+00 0. -1.
</event>
<event>
 5    1  0.1319298E-009  0.9118800E+02  0.7818608E-02  0.1130116E+00
         25   -1    0    0    0    0  0.00000000000E+00  0.00000000000E+00  0.99999998245E-14  0.12500000000E+03  0.12500000000E+03 0.  0.
        -13    1    3    3    0    0  0.33631330972E+02 -0.36033962961E+02  0.29042179617E+02  0.57209896614E+02  0.10566000000E+00 0.  1.
         23    2    1    0    0    0  0.15979696374E+02  0.72651560896E+00  0.20710423819E+02  0.98831313065E+02  0.95303873301E+02 0.  0.
         13    1    3    3    0    0 -0.17651634598E+02  0.36760478570E+02 -0.83317557981E+01  0.41621416451E+02  0.10566000000E+00 0. -1.
         22    1    1    0    0    0 -0.15979696374E+02 -0.72651560896E+00 -0.20710423819E+02  0.26168686935E+02  0.00000000000E+00 0.  1.
</event>
<event>
 5    1  0.1319298E-009  0.9118800E+02  0.7818608E-02  0.1130116E+00
         25   -1    0    0    0    0  0.00000000000E+00  0.00000000000E+00  0.99999998245E-14  0.12500000000E+03  0.12500000000E+03 0.  0.
        -13    1    3    3    0    0  0.43336837864E+02  0.75175784820E+01  0.42749238310E+02  0.61335993042E+02  0.10566000000E+00 0.  1.
         23    2    1    0    0    0  0.13980846789E+02  0.61950717292E+01  0.25082056689E+02  0.95623945833E+02  0.90999925595E+02 0.  0.
         13    1    3    3    0    0 -0.29355991075E+02 -0.13225067528E+01 -0.17667181621E+02  0.34287952791E+02  0.10566000000E+00 0. -1.
         22    1    1    0    0    0 -0.13980846789E+02 -0.61950717292E+01 -0.25082056689E+02  0.29376054167E+02  0.00000000000E+00 0.  1.
</event>
<event>
 5    1  0.1319298E-009  0.9118800E+02  0.7818608E-02  0.1130116E+00
         25   -1    0    0    0    0  0.00000000000E+00  0.00000000000E+00  0.99999998245E-14  0.12500000000E+03  0.12500000000E+03 0.  0.
        -13    1    3    3    0    0  0.91397374777E+01  0.20073674461E+02  0.53720230801E+02  0.58072037754E+02  0.10566000000E+00 0. -1.
         23    2    1    0    0    0  0.91938334410E+00  0.23486296320E+02  0.16650049022E+02  0.96195911523E+02  0.91782230746E+02 0.  0.
         13    1    3    3    0    0 -0.82203541336E+01  0.34126218591E+01 -0.37070181779E+02  0.38123873769E+02  0.10566000000E+00 0.  1.
         22    1    1    0    0    0 -0.91938334410E+00 -0.23486296320E+02 -0.16650049022E+02  0.28804088477E+02  0.00000000000E+00 0. -1.
</event>
<event>
 5    1  0.1319298E-009  0.9118800E+02  0.7818608E-02  0.1130116E+00
         25   -1    0    0    0    0  0.00000000000E+00  0.00000000000E+00  0.99999998245E-14  0.12500000000E+03  0.12500000000E+03 0.  0.
        -13    1    3    3    0    0  0.28634930655E+02  0.34977256383E+01 -0.20683949985E+02  0.35496905348E+02  0.10566000000E+00 0.  1.
         23    2    1    0    0    0  0.21978671930E+02  0.16837204951E+02  0.27525525545E+02  0.85958892858E+02  0.76581480885E+02 0.  0.
         13    1    3    3    0    0 -0.66562587250E+01  0.13339479313E+02  0.48209475530E+02  0.50461987510E+02  0.10566000000E+00 0. -1.
         22    1    1    0    0    0 -0.21978671930E+02 -0.16837204951E+02 -0.27525525545E+02  0.39041107142E+02  0.00000000000E+00 0. -1.
</event>
<event>
 5    1  0.1319298E-009  0.9118800E+02  0.7818608E-02  0.1130116E+00
         25   -1    0    0    0    0  0.00000000000E+00  0.00000000000E+00  0.99999998245E-14  0.12500000000E+03  0.12500000000E+03 0.  0.
        -13    1    3    3    0    0 -0.20235394214E+02  0.34193461793E+02 -0.22907851854E+00  0.39733205878E+02  0.10566000000E+00 0.  1.
         23    2    1    0    0    0 -0.50578611165E+01 -0.18626228101E+02 -0.19106034985E+02  0.97841964261E+02  0.93997292862E+02 0.  0.
         13    1    3    3    0    0  0.15177533097E+02 -0.52819689894E+02 -0.18876956466E+02  0.58108758383E+02  0.10566000000E+00 0. -1.
         22    1    1    0    0    0  0.50578611165E+01  0.18626228101E+02  0.19106034985E+02  0.27158035739E+02  0.00000000000E+00 0. -1.
</event>
<event>
 5    1  0.1319298E-009  0.9118800E+02  0.7818608E-02  0.1130116E+00
         25   -1    0    0    0    0  0.00000000000E+00  0.00000000000E+00  0.99999998245E-14  0.12500000000E+03  0.12500000000E+03 0.  0.
        -13    1    3    3    0    0  0.44546917474E+02  0.19121633434E+02 -0.28428833603E+02  0.56198527256E+02  0.10566000000E+00 0. -1.
         23    2    1    0    0    0  0.79552564499E+01  0.24216202677E+02 -0.87980903846E+01  0.98034893442E+02  0.94253505826E+02 0.  0.
         13    1    3    3    0    0 -0.36591661024E+02  0.50945692433E+01  0.19630743219E+02  0.41836366186E+02  0.10566000000E+00 0.  1.
         22    1    1    0    0    0 -0.79552564499E+01 -0.24216202677E+02  0.87980903846E+01  0.26965106558E+02  0.00000000000E+00 0. -1.
</event>
<event>
 5    1  0.1319298E-009  0.9118800E+02  0.7818608E-02  0.1130116E+00
         25   -1    0    0    0    0  0.00000000000E+00  0.00000000000E+00  0.99999998245E-14  0.12500000000E+03  0.12500000000E+03 0.  0.
        -13    1    3    3    0    0 -0.13915627258E+02 -0.29346382828E+02  0.13624124932E+01  0.32507263787E+02  0.10566000000E+00 0. -1.
         23    2    1    0    0    0  0.15390077706E+02  0.20687928572E+02  0.18836310652E+02  0.93068017923E+02  0.87418559132E+02 0.  0.
         13    1    3    3    0    0  0.29305704964E+02  0.50034311400E+02  0.17473898159E+02  0.60560754136E+02  0.10566000000E+00 0.  1.
         22    1    1    0    0    0 -0.15390077706E+02 -0.20687928572E+02 -0.18836310652E+02  0.31931982077E+02  0.00000000000E+00 0.  1.
</event>
<event>
 5    1  0.1319298E-009  0.9118800E+02  0.7818608E-02  0.1130116E+00
         25   -1    0    0    0    0  0.00000000000E+00  0.00000000000E+00  0.99999998245E-14  0.12500000000E+03  0.12500000000E+03 0.  0.
        -13    1    3    3    0    0 -0.28753716088E+02  0.39656217049E+01  0.20051153144E+02  0.35278353857E+02  0.10566000000E+00 0. -1.
         23    2    1    0    0    0  0.28130221432E+02 -0.77466061427E+01  0.38741070947E+01  0.95566550146E+02  0.90921051119E+02 0.  0.
         13    1    3    3    0    0  0.56883937520E+02 -0.11712227848E+02 -0.16177046050E+02  0.60288196289E+02  0.10566000000E+00 0.  1.
         22    1    1    0    0    0 -0.28130221432E+02  0.77466061427E+01 -0.38741070947E+01  0.29433449854E+02  0.00000000000E+00 0.  1.
</event>
<event>
 5    1  0.1319298E-009  0.9118800E+02  0.7818608E-02  0.1130116E+00
         25   -1    0    0    0    0  0.00000000000E+00  0.00000000000E+00  0.99999998245E-14  0.12500000000E+03  0.12500000000E+03 0.  0.
        -13    1    3    3    0    0 -0.42676042636E+02 -0.18432819734E+02  0.34887332092E+02  0.58121859597E+02  0.10566000000E+00 0. -1.
         23    2    1    0    0    0 -0.60947598106E+01 -0.11889899029E+02  0.25122845726E+02  0.96545243395E+02  0.92256765870E+02 0.  0.
         13    1    3    3    0    0  0.36581282826E+02  0.65429207050E+01 -0.97644863660E+01  0.38423383799E+02  0.10566000000E+00 0.  1.
         22    1    1    0    0    0  0.60947598106E+01  0.11889899029E+02 -0.25122845726E+02  0.28454756605E+02  0.00000000000E+00 0. -1.
</event>
<event>
 5    1  0.1319298E-009  0.9118800E+02  0.7818608E-02  0.1130116E+00
         25   -1    0    0    0    0  0.00000000000E+00  0.00000000000E+00  0.99999998245E-14  0.12500000000E+03  0.12500000000E+03 0.  0.
        -13    1    3    3    0    0 -0.68970928657E+01 -0.39863679670E+02 -0.97347681763E+01  0.41610812565E+02  0.10566000000E+00 0. -1.
         23    2    1    0    0    0 -0.21508148076E+02 -0.25935512449E+02  0.25856901955E+02  0.82528472851E+02  0.70760993583E+02 0.  0.
         13    1    3    3    0    0 -0.14611055211E+02  0.13928167222E+02  0.35591670131E+02  0.40917660286E+02  0.10566000000E+00 0.  1.
         22    1    1    0    0    0  0.21508148076E+02  0.25935512449E+02 -0.25856901955E+02  0.42471527149E+02  0.00000000000E+00 0. -1.
</event>
<event>
 5    1  0.1319298E-009  0.9118800E+02  0.7818608E-02  0.1130116E+00
         25   -1    0    0    0    0  0.00000000000E+00  0.00000000000E+00  0.99999998245E-14  0.12500000000E+03  0.12500000000E+03 0.  0.
        -13    1    3    3    0    0  0.16545732621E+02  0.45738413824E+02 -0.74990371946E+01  0.49213925773E+02  0.10566000000E+00 0.  1.
         23    2    1    0    0    0 -0.21523790798E+02  0.19983103160E+02 -0.46350918417E+01  0.95266482572E+02  0.90507572297E+02 0.  0.
         13    1    3    3    0    0 -0.38069523419E+02 -0.25755310664E+02  0.28639453530E+01  0.46052556800E+02  0.10566000000E+00 0. -1.
         22    1    1    0    0    0  0.21523790798E+02 -0.19983103160E+02  0.46350918417E+01  0.29733517428E+02  0.00000000000E+00 0.  1.
</event>
<event>
 5    1  0.1319298E-009  0.9118800E+02  0.7818608E-02  0.1130116E+00
         25   -1    0    0    0    0  0.00000000000E+00  0.00000000000E+00  0.99999998245E-14  0.12500000000E+03  0.12500000000E+03 0.  0.
        -13    1    3    3    0    0  0.50870410655E+01  0.82816233122E-01  0.60529917462E+02  0.60743451641E+02  0.10566000000E+00 0. -1.
         23    2    1    0    0    0  0.11761900121E+02 -0.39109492278E+01  0.25238794607E+02  0.96881775100E+02  0.92711616182E+02 0.  0.
         13    1    3    3    0    0  0.66748590559E+01 -0.39937654609E+01 -0.35291122855E+02  0.36138323459E+02  0.10566000000E+00 0.  1.
         22    1    1    0    0    0 -0.11761900121E+02  0.39109492278E+01 -0.25238794607E+02  0.28118224900E+02  0.00000000000E+00 0. -1.
</event>
<event>
 5    1  0.1319298E-009  0.9118800E+02  0.7818608E-02  0.1130116E+00
         25   -1    0    0    0    0  0.00000000000E+00  0.00000000000E+00  0.99999998245E-14  0.12500000000E+03  0.12500000000E+03 0.  0.
        -13    1    3    3    0    0 -0.31637297090E+02 -0.41235410609E+02  0.51755031070E+01  0.52230974064E+02  0.10566000000E+00 0.  1.
         23    2    1    0    0    0 -0.12563072810E+02 -0.12197219069E+02  0.26677627649E+02  0.93089206083E+02  0.87448850883E+02 0.  0.
         13    1    3    3    0    0  0.19074224280E+02  0.29038191540E+02  0.21502124542E+02  0.40858232018E+02  0.10566000000E+00 0. -1.
         22    1    1    0    0    0  0.12563072810E+02  0.12197219069E+02 -0.26677627649E+02  0.31910793917E+02  0.00000000000E+00 0. -1.
</event>
<event>
 5    1  0.1319298E-009  0.9118800E+02  0.7818608E-02  0.1130116E+00
         25   -1    0    0    0    0  0.00000000000E+00  0.00000000000E+00  0.99999998245E-14  0.12500000000E+03  0.12500000000E+03 0.  0.
        -13    1    3    3    0    0  0.39942465057E+01  0.22024735607E+02  0.29065346871E+02  0.36685808380E+02  0.10566000000E+00 0.  1.
         23    2    1    0    0    0 -0.14661401056E+02  0.82112066422E+01 -0.24629724730E+02  0.95183830968E+02  0.90393350099E+02 0.  0.
         13    1    3    3    0    0 -0.18655647562E+02 -0.13813528965E+02 -0.53695071602E+02  0.58498022588E+02  0.10566000000E+00 0. -1.
         22    1    1    0    0    0  0.14661401056E+02 -0.82112066422E+01  0.24629724730E+02  0.29816169032E+02  0.00000000000E+00 0. -1.
</event>
<event>
 5    1  0.1319298E-009  0.9118800E+02  0.7818608E-02  0.1130116E+00
         25   -1    0    0    0    0  0.00000000000E+00  0.00000000000E+00  0.99999998245E-14  0.12500000000E+03  0.12500000000E+03 0.  0.
        -13    1    3    3    0    0  0.27627570102E+02 -0.12498460044E+02 -0.29895482331E+02  0.42582216489E+02  0.10566000000E+00 0. -1.
         23    2    1    0    0    0 -0.22362865112E+02 -0.14535941751E+02 -0.12416515481E+02  0.95579578601E+02  0.90938961123E+02 0.  0.
         13    1    3    3    0    0 -0.49990435215E+02 -0.20374817064E+01  0.17478966850E+02  0.52997362112E+02  0.10566000000E+00 0.  1.
         22    1    1    0    0    0  0.22362865112E+02  0.14535941751E+02  0.12416515481E+02  0.29420421399E+02  0.00000000000E+00 0. -1.
</event>
<event>
 5    1  0.1319298E-009  0.9118800E+02  0.7818608E-02  0.1130116E+00
         25   -1    0    0    0    0  0.00000000000E+00  0.00000000000E+00  0.99999998245E-14  0.12500000000E+03  0.12500000000E+03 0.  0.
        -13    1    3    3    0    0  0.31282212631E+01 -0.76427356306E+01  0.32908719694E+02  0.33929222981E+02  0.10566000000E+00 0. -1.
         23    2    1    0    0    0 -0.38811435655E+02  0.50477850651E+01  0.25283046786E+02  0.78405578377E+02  0.63058659946E+02 0.  0.
         13    1    3    3    0    0 -0.41939656918E+02  0.12690520696E+02 -0.76256729078E+01  0.44476355395E+02  0.10566000000E+00 0.  1.
         22    1    1    0    0    0  0.38811435655E+02 -0.50477850651E+01 -0.25283046786E+02  0.46594421623E+02  0.00000000000E+00 0. -1.
</event>
<event>
 5    1  0.1319298E-009  0.9118800E+02  0.7818608E-02  0.1130116E+00
         25   -1    0    0    0    0  0.00000000000E+00  0.00000000000E+00  0.99999998245E-14  0.12500000000E+03  0.12500000000E+03 0.  0.
        -13    1    3    3    0    0  0.34991990891E+01  0.39098100302E+02  0.46642614666E+01  0.39530650646E+02  0.10566000000E+00 0.  1.
         23    2    1    0    0    0 -0.18215904252E+02 -0.10850074044E+02  0.19727110701E+02  0.96039644839E+02  0.91569160800E+02 0.  0.
         13    1    3    3    0    0 -0.21715103341E+02 -0.49948174346E+02  0.15062849234E+02  0.56508994192E+02  0.10566000000E+00 0. -1.
         22    1    1    0    0    0  0.18215904252E+02  0.10850074044E+02 -0.19727110701E+02  0.28960355161E+02  0.00000000000E+00 0. -1.
</event>
<event>
 5    1  0.1319298E-009  0.9118800E+02  0.7818608E-02  0.1130116E+00
         25   -1    0    0    0    0  0.00000000000E+00  0.00000000000E+00  0.99999998245E-14  0.12500000000E+03  0.12500000000E+03 0.  0.
        -13    1    3    3    0    0  0.20705546283E+02 -0.55072005764E+02 -0.60011241804E+01  0.59141103484E+02  0.10566000000E+00 0. -1.
         23    2    1    0    0    0  0.13301682475E+02 -0.23740835483E+02  0.11117180666E+02  0.95603508168E+02  0.90971847524E+02 0.  0.
         13    1    3    3    0    0 -0.74038638083E+01  0.31331170282E+02  0.17118304846E+02  0.36462404684E+02  0.10566000000E+00 0.  1.
         22    1    1    0    0    0 -0.13301682475E+02  0.23740835483E+02 -0.11117180666E+02  0.29396491832E+02  0.00000000000E+00 0. -1.
</event>
<event>
 5    1  0.1319298E-009  0.9118800E+02  0.7818608E-02  0.1130116E+00
         25   -1    0    0    0    0  0.00000000000E+00  0.00000000000E+00  0.99999998245E-14  0.12500000000E+03  0.12500000000E+03 0.  0.
        -13    1    3    3    0    0  0.38819437932E+02 -0.29407011432E+02 -0.20995678080E+01  0.48745670902E+02  0.10566000000E+00 0.  1.
         23    2    1    0    0    0 -0.89545056744E+01 -0.24906884450E+02  0.70809842860E+01  0.97601525529E+02  0.93677005621E+02 0.  0.
         13    1    3    3    0    0 -0.47773943606E+02  0.45001269813E+01  0.91805520941E+01  0.48855854627E+02  0.10566000000E+00 0. -1.
         22    1    1    0    0    0  0.89545056744E+01  0.24906884450E+02 -0.70809842860E+01  0.27398474471E+02  0.00000000000E+00 0. -1.
</event>
<event>
 5    1  0.1319298E-009  0.9118800E+02  0.7818608E-02  0.1130116E+00
         25   -1    0    0    0    0  0.00000000000E+00  0.00000000000E+00  0.99999998245E-14  0.12500000000E+03  0.12500000000E+03 0.  0.
        -13    1    3    3    0    0 -0.29217940948E+02  0.64090161673E+01  0.19444000935E+02  0.35676937899E+02  0.10566000000E+00 0.  1.
         23    2    1    0    0    0  0.25400181026E+02 -0.86945668267E+01 -0.55055951653E+01  0.97594229319E+02  0.93667269256E+02 0.  0.
         13    1    3    3    0    0  0.54618121974E+02 -0.15103582994E+02 -0.24949596100E+02  0.61917291420E+02  0.10566000000E+00 0. -1.
         22    1    1    0    0    0 -0.25400181026E+02  0.86945668267E+01  0.55055951653E+01  0.27405770681E+02  0.00000000000E+00 0. -1.
</event>
<event>
 5    1  0.1319298E-009  0.9118800E+02  0.7818608E-02  0.1130116E+00
         25   -1    0    0    0    0  0.00000000000E+00  0.00000000000E+00  0.99999998245E-14  0.12500000000E+03  0.12500000000E+03 0.  0.
        -13    1    3    3    0    0  0.37627248127E+02 -0.28109390457E+01  0.16958385843E+02  0.41367973052E+02  0.10566000000E+00 0. -1.
         23    2    1    0    0    0  0.99520189436E+01 -0.18573602003E+02 -0.23876561260E+02  0.93154881850E+02  0.87542677949E+02 0.  0.
         13    1    3    3    0    0 -0.27675229184E+02 -0.15762662957E+02 -0.40834947103E+02  0.51786908798E+02  0.10566000000E+00 0.  1.
         22    1    1    0    0    0 -0.99520189436E+01  0.18573602003E+02  0.23876561260E+02  0.31845118150E+02  0.00000000000E+00 0. -1.
</event>
<event>
 5    1  0.1319298E-009  0.9118800E+02  0.7818608E-02  0.1130116E+00
         25   -1    0    0    0    0  0.00000000000E+00  0.00000000000E+00  0.99999998245E-14  0.12500000000E+03  0.12500000000E+03 0.  0.
        -13    1    3    3    0    0 -0.30910040364E+02 -0.76898031435E+01 -0.52320588670E+02  0.61253725034E+02  0.10566000000E+00 0.  1.
         23    2    1    0    0    0 -0.15193340312E+02  0.51817302460E+01 -0.24735870934E+02  0.95511845954E+02  0.90845811618E+02 0.  0.
         13    1    3    3    0    0  0.15716700052E+02  0.12871533390E+02  0.27584717736E+02  0.34258120920E+02  0.10566000000E+00 0. -1.
         22    1    1    0    0    0  0.15193340312E+02 -0.51817302460E+01  0.24735870934E+02  0.29488154046E+02  0.00000000000E+00 0.  1.
</event>
<event>
 5    1  0.1319298E-009  0.9118800E+02  0.7818608E-02  0.1130116E+00
         25   -1    0    0    0    0  0.00000000000E+00  0.00000000000E+00  0.99999998245E-14  0.12500000000E+03  0.12500000000E+03 0.  0.
        -13    1    3    3    0    0 -0.51715767230E+02 -0.33092329806E+00 -0.27915171631E+02  0.58769873759E+02  0.10566000000E+00 0.  1.
         23    2    1    0    0    0 -0.37792088587E+02 -0.12819876425E+01 -0.33305572930E+01  0.87039783141E+02  0.78325894730E+02 0.  0.
         13    1    3    3    0    0  0.13923678643E+02 -0.95106434442E+00  0.24584614338E+02  0.28269909383E+02  0.10566000000E+00 0. -1.
         22    1    1    0    0    0  0.37792088587E+02  0.12819876425E+01  0.33305572930E+01  0.37960216859E+02  0.00000000000E+00 0.  1.
</event>
<event>
 5    1  0.1319298E-009  0.9118800E+02  0.7818608E-02  0.1130116E+00
         25   -1    0    0    0    0  0.00000000000E+00  0.00000000000E+00  0.99999998245E-14  0.12500000000E+03  0.12500000000E+03 0.  0.
        -13    1    3    3    0    0 -0.35059837050E+02 -0.79572646399E+00  0.96480328474E+00  0.35082294166E+02  0.10566000000E+00 0.  1.
         23    2    1    0    0    0  0.14867121308E+02 -0.27806664394E+02  0.84929712921E+01  0.92344641449E+02  0.86378008557E+02 0.  0.
         13    1    3    3    0    0  0.49926958358E+02 -0.27010937930E+02  0.75281680074E+01  0.57262347283E+02  0.10566000000E+00 0. -1.
         22    1    1    0    0    0 -0.14867121308E+02  0.27806664394E+02 -0.84929712921E+01  0.32655358551E+02  0.00000000000E+00 0. -1.
</event>
<event>
 5    1  0.1319298E-009  0.9118800E+02  0.7818608E-02  0.1130116E+00
         25   -1    0    0    0    0  0.00000000000E+00  0.00000000000E+00  0.99999998245E-14  0.12500000000E+03  0.12500000000E+03 0.  0.
        -13    1    3    3    0    0 -0.53599901746E+01  0.65367363537E+00 -0.43787567066E+02  0.44119371907E+02  0.10566000000E+00 0. -1.
         23    2    1    0    0    0  0.27965786952E+02  0.67833369028E+01 -0.47129972613E+01  0.95839903249E+02  0.91296088701E+02 0.  0.
         13    1    3    3    0    0  0.33325777126E+02  0.61296632674E+01  0.39074569804E+02  0.51720531342E+02  0.10566000000E+00 0.  1.
         22    1    1    0    0    0 -0.27965786952E+02 -0.67833369028E+01  0.47129972613E+01  0.29160096751E+02  0.00000000000E+00 0.  1.
</event>
<event>
 5    1  0.1319298E-009  0.9118800E+02  0.7818608E-02  0.1130116E+00
         25   -1    0    0    0    0  0.00000000000E+00  0.00000000000E+00  0.99999998245E-14  0.12500000000E+03  0.12500000000E+03 0.  0.
        -13    1    3    3    0    0  0.68729143053E+01  0.26878145396E+02 -0.28026129955E+02  0.39435349311E+02  0.10566000000E+00 0.  1.
         23    2    1    0    0    0  0.23606932570E+02 -0.14711054441E+02  0.69899407712E+01  0.96319664226E+02  0.91950617489E+02 0.  0.
         13    1    3    3    0    0  0.16734018264E+02 -0.41589199836E+02  0.35016070726E+02  0.56884314916E+02  0.10566000000E+00 0. -1.
         22    1    1    0    0    0 -0.23606932570E+02  0.14711054441E+02 -0.69899407712E+01  0.28680335774E+02  0.00000000000E+00 0. -1.
</event>
<event>
 5    1  0.1319298E-009  0.9118800E+02  0.7818608E-02  0.1130116E+00
         25   -1    0    0    0    0  0.00000000000E+00  0.00000000000E+00  0.99999998245E-14  0.12500000000E+03  0.12500000000E+03 0.  0.
        -13    1    3    3    0    0 -0.29603602745E+02 -0.25772494022E+02  0.12152522567E+02  0.41088802762E+02  0.10566000000E+00 0.  1.
         23    2    1    0    0    0  0.16587297104E+02  0.49155960463E+01  0.21581018393E+02  0.97340609830E+02  0.93328197548E+02 0.  0.
         13    1    3    3    0    0  0.46190899849E+02  0.30688090068E+02  0.94284958254E+01  0.56251807068E+02  0.10566000000E+00 0. -1.
         22    1    1    0    0    0 -0.16587297104E+02 -0.49155960463E+01 -0.21581018393E+02  0.27659390170E+02  0.00000000000E+00 0.  1.
</event>
<event>
 5    1  0.1319298E-009  0.9118800E+02  0.7818608E-02  0.1130116E+00
         25   -1    0    0    0    0  0.00000000000E+00  0.00000000000E+00  0.99999998245E-14  0.12500000000E+03  0.12500000000E+03 0.  0.
        -13    1    3    3    0    0 -0.39849770706E+02 -0.26564565589E+02 -0.22509697452E+02  0.52918597994E+02  0.10566000000E+00 0. -1.
         23    2    1    0    0    0 -0.27517658544E+02  0.69388812291E+01  0.25042444572E+01  0.96510688939E+02  0.92209935662E+02 0.  0.
         13    1    3    3    0    0  0.12332112163E+02  0.33503446818E+02  0.25013941909E+02  0.43592090945E+02  0.10566000000E+00 0.  1.
         22    1    1    0    0    0  0.27517658544E+02 -0.69388812291E+01 -0.25042444572E+01  0.28489311061E+02  0.00000000000E+00 0. -1.
</event>
<event>
 5    1  0.1319298E-009  0.9118800E+02  0.7818608E-02  0.1130116E+00
         25   -1    0    0    0    0  0.00000000000E+00  0.00000000000E+00  0.99999998245E-14  0.12500000000E+03  0.12500000000E+03 0.  0.
        -13    1    3    3    0    0 -0.52906797789E+01  0.30324427187E+02  0.19943604040E+02  0.36678613427E+02  0.10566000000E+00 0.  1.
         23    2    1    0    0    0 -0.21309060340E+01 -0.27735485094E+02  0.47111236255E+01  0.96786659543E+02  0.92583286212E+02 0.  0.
         13    1    3    3    0    0  0.31597737449E+01 -0.58059912282E+02 -0.15232480415E+02  0.60108046116E+02  0.10566000000E+00 0. -1.
         22    1    1    0    0    0  0.21309060340E+01  0.27735485094E+02 -0.47111236255E+01  0.28213340457E+02  0.00000000000E+00 0. -1.
</event>
<event>
 5    1  0.1319298E-009  0.9118800E+02  0.7818608E-02  0.1130116E+00
         25   -1    0    0    0    0  0.00000000000E+00  0.00000000000E+00  0.99999998245E-14  0.12500000000E+03  0.12500000000E+03 0.  0.
        -13    1    3    3    0    0 -0.11801145647E+00  0.49436460053E+01  0.32508052363E+02  0.32882186591E+02  0.10566000000E+00 0. -1.
         23    2    1    0    0    0  0.14714729625E+02 -0.97565965173E+00 -0.26858433603E+02  0.94359330372E+02  0.89245910791E+02 0.  0.
         13    1    3    3    0    0  0.14832741081E+02 -0.59193056570E+01 -0.59366485966E+02  0.61477143781E+02  0.10566000000E+00 0.  1.
         22    1    1    0    0    0 -0.14714729625E+02  0.97565965173E+00  0.26858433603E+02  0.30640669628E+02  0.00000000000E+00 0.  1.
</event>
<event>
 5    1  0.1319298E-009  0.9118800E+02  0.7818608E-02  0.1130116E+00
         25   -1    0    0    0    0  0.00000000000E+00  0.00000000000E+00  0.99999998245E-14  0.12500000000E+03  0.12500000000E+03 0.  0.
        -13    1    3    3    0    0  0.27043448787E+02  0.20711008096E+02 -0.43078681514E+02  0.54918830502E+02  0.10566000000E+00 0. -1.
         23    2    1    0    0    0  0.28103623597E+02  0.61406151965E+01 -0.48715960717E+01  0.95823755167E+02  0.91273976531E+02 0.  0.
         13    1    3    3    0    0  0.10601748098E+01 -0.14570392900E+02  0.38207085442E+02  0.40904924666E+02  0.10566000000E+00 0.  1.
         22    1    1    0    0    0 -0.28103623597E+02 -0.61406151965E+01  0.48715960717E+01  0.29176244833E+02  0.00000000000E+00 0. -1.
</event>
<event>
 5    1  0.1319298E-009  0.9118800E+02  0.7818608E-02  0.1130116E+00
         25   -1    0    0    0    0  0.00000000000E+00  0.00000000000E+00  0.99999998245E-14  0.12500000000E+03  0.12500000000E+03 0.  0.
        -13    1    3    3    0    0  0.37397809727E+02 -0.28339333107E+02 -0.38755600868E+02  0.60858210095E+02  0.10566000000E+00 0. -1.
         23    2    1    0    0    0  0.24670485476E+02 -0.88868424745E+01 -0.12422734677E+02  0.95983915501E+02  0.91493053700E+02 0.  0.
         13    1    3    3    0    0 -0.12727324251E+02  0.19452490632E+02  0.26332866192E+02  0.35125705406E+02  0.10566000000E+00 0.  1.
         22    1    1    0    0    0 -0.24670485476E+02  0.88868424745E+01  0.12422734677E+02  0.29016084499E+02  0.00000000000E+00 0. -1.
</event>
<event>
 5    1  0.1319298E-009  0.9118800E+02  0.7818608E-02  0.1130116E+00
         25   -1    0    0    0    0  0.00000000000E+00  0.00000000000E+00  0.99999998245E-14  0.12500000000E+03  0.12500000000E+03 0.  0.
        -13    1    3    3    0    0  0.49881668350E+01  0.16849681192E+02  0.28473163948E+02  0.33459315503E+02  0.10566000000E+00 0.  1.
         23    2    1    0    0    0 -0.23553638377E+02 -0.13630088840E+02 -0.15155962893E+02  0.93851060791E+02  0.88531153827E+02 0.  0.
         13    1    3    3    0    0 -0.28541805212E+02 -0.30479770032E+02 -0.43629126841E+02  0.60391745289E+02  0.10566000000E+00 0. -1.
         22    1    1    0    0    0  0.23553638377E+02  0.13630088840E+02  0.15155962893E+02  0.31148939209E+02  0.00000000000E+00 0. -1.
</event>
<event>
 5    1  0.1319298E-009  0.9118800E+02  0.7818608E-02  0.1130116E+00
         25   -1    0    0    0    0  0.00000000000E+00  0.00000000000E+00  0.99999998245E-14  0.12500000000E+03  0.12500000000E+03 0.  0.
        -13    1    3    3    0    0  0.53527965077E+01 -0.31117904578E+02  0.26294936179E+02  0.41090281679E+02  0.10566000000E+00 0.  1.
         23    2    1    0    0    0 -0.21916004328E+02 -0.26402363049E+01 -0.15097925084E+02  0.98256226234E+02  0.94546584065E+02 0.  0.
         13    1    3    3    0    0 -0.27268800835E+02  0.28477668273E+02 -0.41392861263E+02  0.57165944555E+02  0.10566000000E+00 0. -1.
         22    1    1    0    0    0  0.21916004328E+02  0.26402363049E+01  0.15097925084E+02  0.26743773766E+02  0.00000000000E+00 0. -1.
</event>
<event>
 5    1  0.1319298E-009  0.9118800E+02  0.7818608E-02  0.1130116E+00
         25   -1    0    0    0    0  0.00000000000E+00  0.00000000000E+00  0.99999998245E-14  0.12500000000E+03  0.12500000000E+03 0.  0.
        -13    1    3    3    0    0  0.26729742268E+02 -0.19038641030E+02 -0.46592307967E+02  0.56989501663E+02  0.10566000000E+00 0. -1.
         23    2    1    0    0    0  0.11577738609E+02  0.88003601772E+01 -0.27226477589E+02  0.94133003831E+02  0.88928347324E+02 0.  0.
         13    1    3    3    0    0 -0.15152003659E+02  0.27839001207E+02  0.19365830378E+02  0.37143502169E+02  0.10566000000E+00 0.  1.
         22    1    1    0    0    0 -0.11577738609E+02 -0.88003601772E+01  0.27226477589E+02  0.30866996169E+02  0.00000000000E+00 0. -1.
</event>
<event>
 5    1  0.1319298E-009  0.9118800E+02  0.7818608E-02  0.1130116E+00
         25   -1    0    0    0    0  0.00000000000E+00  0.00000000000E+00  0.99999998245E-14  0.12500000000E+03  0.12500000000E+03 0.  0.
        -13    1    3    3    0    0 -0.80416285889E+01  0.34935837476E+02 -0.27731366085E+02  0.45323507802E+02  0.10566000000E+00 0. -1.
         23    2    1    0    0    0  0.47643195694E+01 -0.50031443290E+01 -0.36229456508E+02  0.88117704613E+02  0.80027658676E+02 0.  0.
         13    1    3    3    0    0  0.12805948158E+02 -0.39938981805E+02 -0.84980904237E+01  0.42794196811E+02  0.10566000000E+00 0.  1.
         22    1    1    0    0    0 -0.47643195694E+01  0.50031443290E+01  0.36229456508E+02  0.36882295387E+02  0.00000000000E+00 0.  1.
</event>
<event>
 5    1  0.1319298E-009  0.9118800E+02  0.7818608E-02  0.1130116E+00
         25   -1    0    0    0    0  0.00000000000E+00  0.00000000000E+00  0.99999998245E-14  0.12500000000E+03  0.12500000000E+03 0.  0.
        -13    1    3    3    0    0  0.34061318471E+02 -0.12581471481E+02  0.19127991720E+02  0.41040931665E+02  0.10566000000E+00 0. -1.
         23    2    1    0    0    0 -0.77249102048E+01  0.22103183867E+02  0.18182415713E+02  0.95355013647E+02  0.90629760077E+02 0.  0.
         13    1    3    3    0    0 -0.41786228676E+02  0.34684655347E+02 -0.94557600700E+00  0.54314081982E+02  0.10566000000E+00 0.  1.
         22    1    1    0    0    0  0.77249102048E+01 -0.22103183867E+02 -0.18182415713E+02  0.29644986353E+02  0.00000000000E+00 0.  1.
</event>
<event>
 5    1  0.1319298E-009  0.9118800E+02  0.7818608E-02  0.1130116E+00
         25   -1    0    0    0    0  0.00000000000E+00  0.00000000000E+00  0.99999998245E-14  0.12500000000E+03  0.12500000000E+03 0.  0.
        -13    1    3    3    0    0  0.18820616730E+01 -0.27627324167E+02 -0.48941309167E+01  0.28120719732E+02  0.10566000000E+00 0.  1.
         23    2    1    0    0    0 -0.15309552845E+02  0.31549664928E+02 -0.83220121850E-01  0.89931913498E+02  0.82812911882E+02 0.  0.
         13    1    3    3    0    0 -0.17191614518E+02  0.59176989095E+02  0.48109107949E+01  0.61811193766E+02  0.10566000000E+00 0. -1.
         22    1    1    0    0    0  0.15309552845E+02 -0.31549664928E+02  0.83220121850E-01  0.35068086502E+02  0.00000000000E+00 0. -1.
</event>
<event>
 5    1  0.1319298E-009  0.9118800E+02  0.7818608E-02  0.1130116E+00
         25   -1    0    0    0    0  0.00000000000E+00  0.00000000000E+00  0.99999998245E-14  0.12500000000E+03  0.12500000000E+03 0.  0.
        -13    1    3    3    0    0  0.35389036360E+02 -0.15118019912E+02  0.14233951274E+02  0.41031146139E+02  0.10566000000E+00 0.  1.
         23    2    1    0    0    0  0.68066844661E+01  0.29018866932E+02  0.13869912941E+01  0.95161277904E+02  0.90362157323E+02 0.  0.
         13    1    3    3    0    0 -0.28582351894E+02  0.44136886845E+02 -0.12846959980E+02  0.54130131765E+02  0.10566000000E+00 0. -1.
         22    1    1    0    0    0 -0.68066844661E+01 -0.29018866932E+02 -0.13869912941E+01  0.29838722096E+02  0.00000000000E+00 0. -1.
</event>
<event>
 5    1  0.1319298E-009  0.9118800E+02  0.7818608E-02  0.1130116E+00
         25   -1    0    0    0    0  0.00000000000E+00  0.00000000000E+00  0.99999998245E-14  0.12500000000E+03  0.12500000000E+03 0.  0.
        -13    1    3    3    0    0 -0.17150760991E+02 -0.23543418385E+02 -0.92293220359E+00  0.29142822781E+02  0.10566000000E+00 0.  1.
         23    2    1    0    0    0  0.12817909636E+02 -0.14485218207E+02 -0.40803423775E+02  0.79844272283E+02  0.65848827406E+02 0.  0.
         13    1    3    3    0    0  0.29968670626E+02  0.90582001778E+01 -0.39880491571E+02  0.50701449501E+02  0.10566000000E+00 0. -1.
         22    1    1    0    0    0 -0.12817909636E+02  0.14485218207E+02  0.40803423775E+02  0.45155727717E+02  0.00000000000E+00 0. -1.
</event>
<event>
 5    1  0.1319298E-009  0.9118800E+02  0.7818608E-02  0.1130116E+00
         25   -1    0    0    0    0  0.00000000000E+00  0.00000000000E+00  0.99999998245E-14  0.12500000000E+03  0.12500000000E+03 0.  0.
        -13    1    3    3    0    0  0.77526262474E+01 -0.19129164180E+02  0.30429751055E+02  0.36769675675E+02  0.10566000000E+00 0.  1.
         23    2    1    0    0    0 -0.20498222022E+02 -0.14373656817E+01 -0.19413000328E+02  0.96731506798E+02  0.92508792552E+02 0.  0.
         13    1    3    3    0    0 -0.28250848270E+02  0.17691798498E+02 -0.49842751383E+02  0.59961831122E+02  0.10566000000E+00 0. -1.
         22    1    1    0    0    0  0.20498222022E+02  0.14373656817E+01  0.19413000328E+02  0.28268493202E+02  0.00000000000E+00 0. -1.
</event>
<event>
 5    1  0.1319298E-009  0.9118800E+02  0.7818608E-02  0.1130116E+00
         25   -1    0    0    0    0  0.00000000000E+00  0.00000000000E+00  0.99999998245E-14  0.12500000000E+03  0.12500000000E+03 0.  0.
        -13    1    3    3    0    0 -0.59727602189E+01 -0.43144215021E+02 -0.20999126048E+02  0.48353610137E+02  0.10566000000E+00 0. -1.
         23    2    1    0    0    0 -0.19907530882E+02  0.30980682856E+01 -0.19928474467E+02  0.96661829496E+02  0.92414595027E+02 0.  0.
         13    1    3    3    0    0 -0.13934770663E+02  0.46242283307E+02  0.10706515809E+01  0.48308219360E+02  0.10566000000E+00 0.  1.
         22    1    1    0    0    0  0.19907530882E+02 -0.30980682856E+01  0.19928474467E+02  0.28338170504E+02  0.00000000000E+00 0. -1.
</event>
<event>
 5    1  0.1319298E-009  0.9118800E+02  0.7818608E-02  0.1130116E+00
         25   -1    0    0    0    0  0.00000000000E+00  0.00000000000E+00  0.99999998245E-14  0.12500000000E+03  0.12500000000E+03 0.  0.
        -13    1    3    3    0    0  0.39814113561E+02  0.40326991431E+01  0.32548734010E+02  0.51583500760E+02  0.10566000000E+00 0. -1.
         23    2    1    0    0    0 -0.45904859013E+00  0.18836471996E+02  0.22500268099E+02  0.95652334549E+02  0.91038912764E+02 0.  0.
         13    1    3    3    0    0 -0.40273162151E+02  0.14803772853E+02 -0.10048465911E+02  0.44068833789E+02  0.10566000000E+00 0.  1.
         22    1    1    0    0    0  0.45904859013E+00 -0.18836471996E+02 -0.22500268099E+02  0.29347665451E+02  0.00000000000E+00 0.  1.
</event>
<event>
 5    1  0.1319298E-009  0.9118800E+02  0.7818608E-02  0.1130116E+00
         25   -1    0    0    0    0  0.00000000000E+00  0.00000000000E+00  0.99999998245E-14  0.12500000000E+03  0.12500000000E+03 0.  0.
        -13    1    3    3    0    0 -0.33520288928E+02  0.19376580461E+02  0.86610560711E+01  0.39674761455E+02  0.10566000000E+00 0.  1.
         23    2    1    0    0    0  0.12933860213E+02 -0.12869544020E+02  0.20611450815E+02  0.97472889582E+02  0.93505199831E+02 0.  0.
         13    1    3    3    0    0  0.46454149140E+02 -0.32246124481E+02  0.11950394744E+02  0.57798128127E+02  0.10566000000E+00 0. -1.
         22    1    1    0    0    0 -0.12933860213E+02  0.12869544020E+02 -0.20611450815E+02  0.27527110418E+02  0.00000000000E+00 0. -1.
</event>
<event>
 5    1  0.1319298E-009  0.9118800E+02  0.7818608E-02  0.1130116E+00
         25   -1    0    0    0    0  0.00000000000E+00  0.00000000000E+00  0.99999998245E-14  0.12500000000E+03  0.12500000000E+03 0.  0.
        -13    1    3    3    0    0 -0.59979775612E+01 -0.47960060692E-01  0.52743468403E+02  0.53083544137E+02  0.10566000000E+00 0.  1.
         23    2    1    0    0    0 -0.15776379076E+02  0.83875058579E+01  0.26198395151E+00  0.10713066798E+03  0.10562985844E+03 0.  0.
         13    1    3    3    0    0 -0.97784015145E+01  0.84354659186E+01 -0.52481484451E+02  0.54047123843E+02  0.10566000000E+00 0. -1.
         22    1    1    0    0    0  0.15776379076E+02 -0.83875058579E+01 -0.26198395151E+00  0.17869332020E+02  0.00000000000E+00 0. -1.
</event>
<event>
 5    1  0.1319298E-009  0.9118800E+02  0.7818608E-02  0.1130116E+00
         25   -1    0    0    0    0  0.00000000000E+00  0.00000000000E+00  0.99999998245E-14  0.12500000000E+03  0.12500000000E+03 0.  0.
        -13    1    3    3    0    0  0.10545725008E+01 -0.27930279410E+02 -0.16632975060E+02  0.32525061945E+02  0.10566000000E+00 0. -1.
         23    2    1    0    0    0 -0.35485226624E+02  0.10746899482E+02 -0.12915883150E+01  0.87900601657E+02  0.79687831030E+02 0.  0.
         13    1    3    3    0    0 -0.36539799125E+02  0.38677178893E+02  0.15341386745E+02  0.55375539713E+02  0.10566000000E+00 0.  1.
         22    1    1    0    0    0  0.35485226624E+02 -0.10746899482E+02  0.12915883150E+01  0.37099398343E+02  0.00000000000E+00 0.  1.
</event>
<event>
 5    1  0.1319298E-009  0.9118800E+02  0.7818608E-02  0.1130116E+00
         25   -1    0    0    0    0  0.00000000000E+00  0.00000000000E+00  0.99999998245E-14  0.12500000000E+03  0.12500000000E+03 0.  0.
        -13    1    3    3    0    0 -0.19476593382E+02  0.33196702867E+02  0.73626404382E+01  0.39186456962E+02  0.10566000000E+00 0.  1.
         23    2    1    0    0    0  0.45569251633E+01  0.20350011903E+01 -0.30677220952E+02  0.93919480665E+02  0.88627705410E+02 0.  0.
         13    1    3    3    0    0  0.24033518545E+02 -0.31161701676E+02 -0.38039861390E+02  0.54733023703E+02  0.10566000000E+00 0. -1.
         22    1    1    0    0    0 -0.45569251633E+01 -0.20350011903E+01  0.30677220952E+02  0.31080519335E+02  0.00000000000E+00 0. -1.
</event>
<event>
 5    1  0.1319298E-009  0.9118800E+02  0.7818608E-02  0.1130116E+00
         25   -1    0    0    0    0  0.00000000000E+00  0.00000000000E+00  0.99999998245E-14  0.12500000000E+03  0.12500000000E+03 0.  0.
        -13    1    3    3    0    0  0.14316715835E+02  0.24326526302E+02  0.38418319920E+02  0.47673123494E+02  0.10566000000E+00 0. -1.
         23    2    1    0    0    0  0.29276230096E+02  0.36095678824E+01 -0.19369390927E+01  0.95438566307E+02  0.90744925901E+02 0.  0.
         13    1    3    3    0    0  0.14959514261E+02 -0.20716958419E+02 -0.40355259013E+02  0.47765442813E+02  0.10566000000E+00 0.  1.
         22    1    1    0    0    0 -0.29276230096E+02 -0.36095678824E+01  0.19369390927E+01  0.29561433693E+02  0.00000000000E+00 0.  1.
</event>
<event>
 5    1  0.1319298E-009  0.9118800E+02  0.7818608E-02  0.1130116E+00
         25   -1    0    0    0    0  0.00000000000E+00  0.00000000000E+00  0.99999998245E-14  0.12500000000E+03  0.12500000000E+03 0.  0.
        -13    1    3    3    0    0 -0.13965313346E+01 -0.87582861179E+01  0.39330052340E+02  0.40317763537E+02  0.10566000000E+00 0. -1.
         23    2    1    0    0    0 -0.29785822254E+02  0.47189420265E-01 -0.60887253535E+01  0.94598190669E+02  0.89579839625E+02 0.  0.
         13    1    3    3    0    0 -0.28389290919E+02  0.88054755382E+01 -0.45418777694E+02  0.54280427132E+02  0.10566000000E+00 0.  1.
         22    1    1    0    0    0  0.29785822254E+02 -0.47189420265E-01  0.60887253535E+01  0.30401809331E+02  0.00000000000E+00 0.  1.
</event>
<event>
 5    1  0.1319298E-009  0.9118800E+02  0.7818608E-02  0.1130116E+00
         25   -1    0    0    0    0  0.00000000000E+00  0.00000000000E+00  0.99999998245E-14  0.12500000000E+03  0.12500000000E+03 0.  0.
        -13    1    3    3    0    0 -0.23420691084E+02  0.24305246926E+02  0.23469410858E+01  0.33834791199E+02  0.10566000000E+00 0. -1.
         23    2    1    0    0    0 -0.22708184354E+02 -0.29423956088E+02 -0.22448911523E+01  0.87764662418E+02  0.79474307827E+02 0.  0.
         13    1    3    3    0    0  0.71250673017E+00 -0.53729203014E+02 -0.45918322381E+01  0.53929871219E+02  0.10566000000E+00 0.  1.
         22    1    1    0    0    0  0.22708184354E+02  0.29423956088E+02  0.22448911523E+01  0.37235337582E+02  0.00000000000E+00 0.  1.
</event>
<event>
 5    1  0.1319298E-009  0.9118800E+02  0.7818608E-02  0.1130116E+00
         25   -1    0    0    0    0  0.00000000000E+00  0.00000000000E+00  0.99999998245E-14  0.12500000000E+03  0.12500000000E+03 0.  0.
        -13    1    3    3    0    0 -0.42885306196E+01  0.44288388980E+02 -0.32874488673E+00  0.44496877762E+02  0.10566000000E+00 0. -1.
         23    2    1    0    0    0 -0.99441675928E+01  0.21438904605E+01 -0.27986065186E+02  0.95222448388E+02  0.90446736242E+02 0.  0.
         13    1    3    3    0    0 -0.56556369732E+01 -0.42144498520E+02 -0.27657320300E+02  0.50725570625E+02  0.10566000000E+00 0.  1.
         22    1    1    0    0    0  0.99441675928E+01 -0.21438904605E+01  0.27986065186E+02  0.29777551612E+02  0.00000000000E+00 0. -1.
</event>
<event>
 5    1  0.1319298E-009  0.9118800E+02  0.7818608E-02  0.1130116E+00
         25   -1    0    0    0    0  0.00000000000E+00  0.00000000000E+00  0.99999998245E-14  0.12500000000E+03  0.12500000000E+03 0.  0.
        -13    1    3    3    0    0 -0.20071535827E+02 -0.63004658053E+01 -0.29771658134E+02  0.36454426507E+02  0.10566000000E+00 0. -1.
         23    2    1    0    0    0  0.14430238633E+02  0.26219759447E+02  0.41959463270E+01  0.94778922289E+02  0.89831679112E+02 0.  0.
         13    1    3    3    0    0  0.34501774460E+02  0.32520225252E+02  0.33967604461E+02  0.58324495782E+02  0.10566000000E+00 0.  1.
         22    1    1    0    0    0 -0.14430238633E+02 -0.26219759447E+02 -0.41959463270E+01  0.30221077711E+02  0.00000000000E+00 0.  1.
</event>
<event>
 5    1  0.1319298E-009  0.9118800E+02  0.7818608E-02  0.1130116E+00
         25   -1    0    0    0    0  0.00000000000E+00  0.00000000000E+00  0.99999998245E-14  0.12500000000E+03  0.12500000000E+03 0.  0.
        -13    1    3    3    0    0  0.22898918837E+01  0.27797204454E+02  0.18484624628E+02  0.33460733584E+02  0.10566000000E+00 0.  1.
         23    2    1    0    0    0  0.52548543322E+01  0.22954890624E+00 -0.32810818155E+02  0.91770254669E+02  0.85542759292E+02 0.  0.
         13    1    3    3    0    0  0.29649624485E+01 -0.27567655548E+02 -0.51295442783E+02  0.58309521085E+02  0.10566000000E+00 0. -1.
         22    1    1    0    0    0 -0.52548543322E+01 -0.22954890624E+00  0.32810818155E+02  0.33229745331E+02  0.00000000000E+00 0.  1.
</event>
<event>
 5    1  0.1319298E-009  0.9118800E+02  0.7818608E-02  0.1130116E+00
         25   -1    0    0    0    0  0.00000000000E+00  0.00000000000E+00  0.99999998245E-14  0.12500000000E+03  0.12500000000E+03 0.  0.
        -13    1    3    3    0    0  0.32105433837E+00  0.30521738642E+01 -0.39020656301E+02  0.39141303291E+02  0.10566000000E+00 0.  1.
         23    2    1    0    0    0 -0.26165975004E+02  0.24724210167E+01  0.11596537784E+02  0.96272821194E+02  0.91886915817E+02 0.  0.
         13    1    3    3    0    0 -0.26487029342E+02 -0.57975284753E+00  0.50617194085E+02  0.57131517902E+02  0.10566000000E+00 0. -1.
         22    1    1    0    0    0  0.26165975004E+02 -0.24724210167E+01 -0.11596537784E+02  0.28727178806E+02  0.00000000000E+00 0. -1.
</event>
<event>
 5    1  0.1319298E-009  0.9118800E+02  0.7818608E-02  0.1130116E+00
         25   -1    0    0    0    0  0.00000000000E+00  0.00000000000E+00  0.99999998245E-14  0.12500000000E+03  0.12500000000E+03 0.  0.
        -13    1    3    3    0    0  0.29002267171E+01 -0.22045847639E+02 -0.24554129722E+02  0.33126230748E+02  0.10566000000E+00 0.  1.
         23    2    1    0    0    0 -0.75289295453E+01  0.18196911965E+02  0.21955046487E+02  0.95507010131E+02  0.90839157486E+02 0.  0.
         13    1    3    3    0    0 -0.10429156262E+02  0.40242759604E+02  0.46509176208E+02  0.62380779384E+02  0.10566000000E+00 0. -1.
         22    1    1    0    0    0  0.75289295453E+01 -0.18196911965E+02 -0.21955046487E+02  0.29492989869E+02  0.00000000000E+00 0. -1.
</event>
<event>
 5    1  0.1319298E-009  0.9118800E+02  0.7818608E-02  0.1130116E+00
         25   -1    0    0    0    0  0.00000000000E+00  0.00000000000E+00  0.99999998245E-14  0.12500000000E+03  0.12500000000E+03 0.  0.
        -13    1    3    3    0    0 -0.40428127305E+02 -0.42261893660E+02  0.14424428839E+02  0.60237666327E+02  0.10566000000E+00 0. -1.
         23    2    1    0    0    0 -0.19227228328E+02 -0.29460374625E+02 -0.16814417197E+01  0.89780300562E+02  0.82583746225E+02 0.  0.
         13    1    3    3    0    0  0.21200898977E+02  0.12801519036E+02 -0.16105870559E+02  0.29542634235E+02  0.10566000000E+00 0.  1.
         22    1    1    0    0    0  0.19227228328E+02  0.29460374625E+02  0.16814417197E+01  0.35219699438E+02  0.00000000000E+00 0. -1.
</event>
<event>
 5    1  0.1319298E-009  0.9118800E+02  0.7818608E-02  0.1130116E+00
         25   -1    0    0    0    0  0.00000000000E+00  0.00000000000E+00  0.99999998245E-14  0.12500000000E+03  0.12500000000E+03 0.  0.
        -13    1    3    3    0    0  0.29656046953E+02 -0.99125671773E+01 -0.41679644200E+02  0.52105124639E+02  0.10566000000E+00 0.  1.
         23    2    1    0    0    0  0.51967152687E+01  0.19827992597E+02 -0.20310861341E+02  0.96143696903E+02  0.91711091073E+02 0.  0.
         13    1    3    3    0    0 -0.24459331685E+02  0.29740559774E+02  0.21368782859E+02  0.44038572264E+02  0.10566000000E+00 0. -1.
         22    1    1    0    0    0 -0.51967152687E+01 -0.19827992597E+02  0.20310861341E+02  0.28856303097E+02  0.00000000000E+00 0.  1.
</event>
<event>
 5    1  0.1319298E-009  0.9118800E+02  0.7818608E-02  0.1130116E+00
         25   -1    0    0    0    0  0.00000000000E+00  0.00000000000E+00  0.99999998245E-14  0.12500000000E+03  0.12500000000E+03 0.  0.
        -13    1    3    3    0    0  0.19963029132E+02 -0.39460189549E+02  0.20938862886E+02  0.48929298323E+02  0.10566000000E+00 0.  1.
         23    2    1    0    0    0 -0.77756336396E+01 -0.25034763014E+02 -0.13558405497E+02  0.95486779280E+02  0.90811314383E+02 0.  0.
         13    1    3    3    0    0 -0.27738662771E+02  0.14425426536E+02 -0.34497268383E+02  0.46557480957E+02  0.10566000000E+00 0. -1.
         22    1    1    0    0    0  0.77756336396E+01  0.25034763014E+02  0.13558405497E+02  0.29513220720E+02  0.00000000000E+00 0.  1.
</event>
<event>
 5    1  0.1319298E-009  0.9118800E+02  0.7818608E-02  0.1130116E+00
         25   -1    0    0    0    0  0.00000000000E+00  0.00000000000E+00  0.99999998245E-14  0.12500000000E+03  0.12500000000E+03 0.  0.
        -13    1    3    3    0    0 -0.25731520067E+02  0.16808509029E+02 -0.20302423942E+02  0.36835264119E+02  0.10566000000E+00 0. -1.
         23    2    1    0    0    0  0.59334988801E+01  0.11583540702E+02  0.27594519873E+02  0.94490290871E+02  0.89429149150E+02 0.  0.
         13    1    3    3    0    0  0.31665018947E+02 -0.52249683274E+01  0.47896943815E+02  0.57655026752E+02  0.10566000000E+00 0.  1.
         22    1    1    0    0    0 -0.59334988801E+01 -0.11583540702E+02 -0.27594519873E+02  0.30509709129E+02  0.00000000000E+00 0.  1.
</event>
<event>
 5    1  0.1319298E-009  0.9118800E+02  0.7818608E-02  0.1130116E+00
         25   -1    0    0    0    0  0.00000000000E+00  0.00000000000E+00  0.99999998245E-14  0.12500000000E+03  0.12500000000E+03 0.  0.
        -13    1    3    3    0    0 -0.88050546839E+01 -0.38525519952E+02 -0.27617768229E+01  0.39615442075E+02  0.10566000000E+00 0.  1.
         23    2    1    0    0    0  0.24350809685E+02  0.59714857941E+01 -0.14073151044E+02  0.96248058236E+02  0.91853222910E+02 0.  0.
         13    1    3    3    0    0  0.33155864369E+02  0.44497005746E+02 -0.11311374221E+02  0.56632616161E+02  0.10566000000E+00 0. -1.
         22    1    1    0    0    0 -0.24350809685E+02 -0.59714857941E+01  0.14073151044E+02  0.28751941764E+02  0.00000000000E+00 0. -1.
</event>
<event>
 5    1  0.1319298E-009  0.9118800E+02  0.7818608E-02  0.1130116E+00
         25   -1    0    0    0    0  0.00000000000E+00  0.00000000000E+00  0.99999998245E-14  0.12500000000E+03  0.12500000000E+03 0.  0.
        -13    1    3    3    0    0  0.58595182389E+01  0.43054581308E+02  0.89018190209E+01  0.44354080664E+02  0.10566000000E+00 0.  1.
         23    2    1    0    0    0  0.24281790106E+02  0.16295921557E+01 -0.15800912496E+02  0.95983974479E+02  0.91493134277E+02 0.  0.
         13    1    3    3    0    0  0.18422271867E+02 -0.41424989152E+02 -0.24702731517E+02  0.51629893816E+02  0.10566000000E+00 0. -1.
         22    1    1    0    0    0 -0.24281790106E+02 -0.16295921557E+01  0.15800912496E+02  0.29016025521E+02  0.00000000000E+00 0. -1.
</event>
<event>
 5    1  0.1319298E-009  0.9118800E+02  0.7818608E-02  0.1130116E+00
         25   -1    0    0    0    0  0.00000000000E+00  0.00000000000E+00  0.99999998245E-14  0.12500000000E+03  0.12500000000E+03 0.  0.
        -13    1    3    3    0    0  0.30098168354E+02  0.11127446994E+02  0.45616032130E+02  0.55772335133E+02  0.10566000000E+00 0.  1.
         23    2    1    0    0    0  0.16184728218E+01  0.21087558605E+02  0.13138748690E+02  0.10010158038E+03  0.96955634679E+02 0.  0.
         13    1    3    3    0    0 -0.28479695532E+02  0.99601116113E+01 -0.32477283439E+02  0.44329245251E+02  0.10566000000E+00 0. -1.
         22    1    1    0    0    0 -0.16184728218E+01 -0.21087558605E+02 -0.13138748690E+02  0.24898419616E+02  0.00000000000E+00 0.  1.
</event>
<event>
 5    1  0.1319298E-009  0.9118800E+02  0.7818608E-02  0.1130116E+00
         25   -1    0    0    0    0  0.00000000000E+00  0.00000000000E+00  0.99999998245E-14  0.12500000000E+03  0.12500000000E+03 0.  0.
        -13    1    3    3    0    0  0.41297234901E+02 -0.59360105651E+01  0.22484119384E+02  0.47394563194E+02  0.10566000000E+00 0.  1.
         23    2    1    0    0    0  0.25423459805E+02  0.15111770619E+02 -0.13896113078E+02  0.92322486656E+02  0.86345941792E+02 0.  0.
         13    1    3    3    0    0 -0.15873775096E+02  0.21047781184E+02 -0.36380232462E+02  0.44927923462E+02  0.10566000000E+00 0. -1.
         22    1    1    0    0    0 -0.25423459805E+02 -0.15111770619E+02  0.13896113078E+02  0.32677513344E+02  0.00000000000E+00 0.  1.
</event>
<event>
 5    1  0.1319298E-009  0.9118800E+02  0.7818608E-02  0.1130116E+00
         25   -1    0    0    0    0  0.00000000000E+00  0.00000000000E+00  0.99999998245E-14  0.12500000000E+03  0.12500000000E+03 0.  0.
        -13    1    3    3    0    0  0.26904754206E+02 -0.76160462179E+01  0.32174578002E-01  0.27962155820E+02  0.10566000000E+00 0. -1.
         23    2    1    0    0    0 -0.20776367899E+02 -0.22130827673E+02  0.26773823648E+02  0.84524468758E+02  0.74203215493E+02 0.  0.
         13    1    3    3    0    0 -0.47681122105E+02 -0.14514781455E+02  0.26741649070E+02  0.56562312938E+02  0.10566000000E+00 0.  1.
         22    1    1    0    0    0  0.20776367899E+02  0.22130827673E+02 -0.26773823648E+02  0.40475531242E+02  0.00000000000E+00 0.  1.
</event>
<event>
 5    1  0.1319298E-009  0.9118800E+02  0.7818608E-02  0.1130116E+00
         25   -1    0    0    0    0  0.00000000000E+00  0.00000000000E+00  0.99999998245E-14  0.12500000000E+03  0.12500000000E+03 0.  0.
        -13    1    3    3    0    0 -0.12712057479E+01 -0.37146877154E+02 -0.20543200190E+02  0.42468113737E+02  0.10566000000E+00 0.  1.
         23    2    1    0    0    0 -0.94502418210E+01  0.14229398530E+02 -0.25043384740E+02  0.94685746385E+02  0.89701931953E+02 0.  0.
         13    1    3    3    0    0 -0.81790360732E+01  0.51376275684E+02 -0.45001845503E+01  0.52217632647E+02  0.10566000000E+00 0. -1.
         22    1    1    0    0    0  0.94502418210E+01 -0.14229398530E+02  0.25043384740E+02  0.30314253615E+02  0.00000000000E+00 0.  1.
</event>
<event>
 5    1  0.1319298E-009  0.9118800E+02  0.7818608E-02  0.1130116E+00
         25   -1    0    0    0    0  0.00000000000E+00  0.00000000000E+00  0.99999998245E-14  0.12500000000E+03  0.12500000000E+03 0.  0.
        -13    1    3    3    0    0 -0.25081025941E+02 -0.34177228608E+01  0.53263136105E+02  0.58972124971E+02  0.10566000000E+00 0.  1.
         23    2    1    0    0    0 -0.24411158884E+02 -0.40354349596E+01  0.17625434843E+02  0.94621629952E+02  0.89612540908E+02 0.  0.
         13    1    3    3    0    0  0.66986705705E+00 -0.61771209883E+00 -0.35637701262E+02  0.35649504981E+02  0.10566000000E+00 0. -1.
         22    1    1    0    0    0  0.24411158884E+02  0.40354349596E+01 -0.17625434843E+02  0.30378370048E+02  0.00000000000E+00 0.  1.
</event>
<event>
 5    1  0.1319298E-009  0.9118800E+02  0.7818608E-02  0.1130116E+00
         25   -1    0    0    0    0  0.00000000000E+00  0.00000000000E+00  0.99999998245E-14  0.12500000000E+03  0.12500000000E+03 0.  0.
        -13    1    3    3    0    0 -0.34918644368E+02  0.31026119658E+02 -0.17608261586E+02  0.49919874456E+02  0.10566000000E+00 0.  1.
         23    2    1    0    0    0  0.12133820944E+02  0.20356940816E+02 -0.11832682453E+02  0.98511379346E+02  0.94883322226E+02 0.  0.
         13    1    3    3    0    0  0.47052465313E+02 -0.10669178843E+02  0.57755791330E+01  0.48591504891E+02  0.10566000000E+00 0. -1.
         22    1    1    0    0    0 -0.12133820944E+02 -0.20356940816E+02  0.11832682453E+02  0.26488620654E+02  0.00000000000E+00 0. -1.
</event>
<event>
 5    1  0.1319298E-009  0.9118800E+02  0.7818608E-02  0.1130116E+00
         25   -1    0    0    0    0  0.00000000000E+00  0.00000000000E+00  0.99999998245E-14  0.12500000000E+03  0.12500000000E+03 0.  0.
        -13    1    3    3    0    0 -0.20726438000E+02 -0.21968047888E+02  0.19337541030E+02  0.35862682796E+02  0.10566000000E+00 0.  1.
         23    2    1    0    0    0  0.51191461907E+01  0.57302689741E+01 -0.27697057067E+02  0.96256851070E+02  0.91865188006E+02 0.  0.
         13    1    3    3    0    0  0.25845584191E+02  0.27698316862E+02 -0.47034598098E+02  0.60394168273E+02  0.10566000000E+00 0. -1.
         22    1    1    0    0    0 -0.51191461907E+01 -0.57302689741E+01  0.27697057067E+02  0.28743148930E+02  0.00000000000E+00 0. -1.
</event>
<event>
 5    1  0.1319298E-009  0.9118800E+02  0.7818608E-02  0.1130116E+00
         25   -1    0    0    0    0  0.00000000000E+00  0.00000000000E+00  0.99999998245E-14  0.12500000000E+03  0.12500000000E+03 0.  0.
        -13    1    3    3    0    0  0.23947903591E+02  0.30436627645E+02 -0.37696477315E+02  0.54045591446E+02  0.10566000000E+00 0.  1.
         23    2    1    0    0    0  0.53556859804E+01  0.27101541293E+02  0.12658770074E+01  0.97345355591E+02  0.93334553611E+02 0.  0.
         13    1    3    3    0    0 -0.18592217611E+02 -0.33350863518E+01  0.38962354322E+02  0.43299764145E+02  0.10566000000E+00 0. -1.
         22    1    1    0    0    0 -0.53556859804E+01 -0.27101541293E+02 -0.12658770074E+01  0.27654644409E+02  0.00000000000E+00 0.  1.
</event>
<event>
 5    1  0.1319298E-009  0.9118800E+02  0.7818608E-02  0.1130116E+00
         25   -1    0    0    0    0  0.00000000000E+00  0.00000000000E+00  0.99999998245E-14  0.12500000000E+03  0.12500000000E+03 0.  0.
        -13    1    3    3    0    0  0.23641513177E+02  0.42513422317E+02  0.26495401796E+02  0.55392505837E+02  0.10566000000E+00 0. -1.
         23    2    1    0    0    0  0.22056859844E+02  0.23909212191E+01  0.17988479541E+02  0.96437665245E+02  0.92110891382E+02 0.  0.
         13    1    3    3    0    0 -0.15846533336E+01 -0.40122501098E+02 -0.85069222552E+01  0.41045159408E+02  0.10566000000E+00 0.  1.
         22    1    1    0    0    0 -0.22056859844E+02 -0.23909212191E+01 -0.17988479541E+02  0.28562334755E+02  0.00000000000E+00 0. -1.
</event>
<event>
 5    1  0.1319298E-009  0.9118800E+02  0.7818608E-02  0.1130116E+00
         25   -1    0    0    0    0  0.00000000000E+00  0.00000000000E+00  0.99999998245E-14  0.12500000000E+03  0.12500000000E+03 0.  0.
        -13    1    3    3    0    0 -0.33172119164E+01 -0.47080635668E+02 -0.17533852713E+02  0.50349153963E+02  0.10566000000E+00 0.  1.
         23    2    1    0    0    0 -0.18162554545E+02 -0.17562431949E+02  0.14078540647E+02  0.96077297666E+02  0.91620545821E+02 0.  0.
         13    1    3    3    0    0 -0.14845342628E+02  0.29518203719E+02  0.31612393360E+02  0.45728143703E+02  0.10566000000E+00 0. -1.
         22    1    1    0    0    0  0.18162554545E+02  0.17562431949E+02 -0.14078540647E+02  0.28922702334E+02  0.00000000000E+00 0. -1.
</event>
<event>
 5    1  0.1319298E-009  0.9118800E+02  0.7818608E-02  0.1130116E+00
         25   -1    0    0    0    0  0.00000000000E+00  0.00000000000E+00  0.99999998245E-14  0.12500000000E+03  0.12500000000E+03 0.  0.
        -13    1    3    3    0    0  0.33257805589E+02 -0.49925694552E+01  0.34261342868E+01  0.33804688174E+02  0.10566000000E+00 0.  1.
         23    2    1    0    0    0 -0.26922150897E+02  0.98884380402E+01 -0.31579629173E+01  0.96145950968E+02  0.91714163257E+02 0.  0.
         13    1    3    3    0    0 -0.60179956486E+02  0.14881007495E+02 -0.65840972040E+01  0.62341262794E+02  0.10566000000E+00 0. -1.
         22    1    1    0    0    0  0.26922150897E+02 -0.98884380402E+01  0.31579629173E+01  0.28854049032E+02  0.00000000000E+00 0. -1.
</event>
<event>
 5    1  0.1319298E-009  0.9118800E+02  0.7818608E-02  0.1130116E+00
         25   -1    0    0    0    0  0.00000000000E+00  0.00000000000E+00  0.99999998245E-14  0.12500000000E+03  0.12500000000E+03 0.  0.
        -13    1    3    3    0    0 -0.78962627690E+01 -0.60283705021E+01  0.44884754809E+02  0.45971127841E+02  0.10566000000E+00 0.  1.
         23    2    1    0    0    0  0.13998365234E+02  0.23001565560E+02  0.10246447794E+02  0.96190002780E+02  0.91774183161E+02 0.  0.
         13    1    3    3    0    0  0.21894628003E+02  0.29029936062E+02 -0.34638307016E+02  0.50218874939E+02  0.10566000000E+00 0. -1.
         22    1    1    0    0    0 -0.13998365234E+02 -0.23001565560E+02 -0.10246447794E+02  0.28809997220E+02  0.00000000000E+00 0.  1.
</event>
<event>
 5    1  0.1319298E-009  0.9118800E+02  0.7818608E-02  0.1130116E+00
         25   -1    0    0    0    0  0.00000000000E+00  0.00000000000E+00  0.99999998245E-14  0.12500000000E+03  0.12500000000E+03 0.  0.
        -13    1    3    3    0    0 -0.29996446635E+02  0.13920572689E+02 -0.28818049579E+02  0.43864111757E+02  0.10566000000E+00 0. -1.
         23    2    1    0    0    0 -0.16851768846E+02 -0.23504309341E+02  0.45802866888E+01  0.95718372706E+02  0.91129540636E+02 0.  0.
         13    1    3    3    0    0  0.13144677789E+02 -0.37424882029E+02  0.33398336268E+02  0.51854260949E+02  0.10566000000E+00 0.  1.
         22    1    1    0    0    0  0.16851768846E+02  0.23504309341E+02 -0.45802866888E+01  0.29281627294E+02  0.00000000000E+00 0. -1.
</event>
<event>
 5    1  0.1319298E-009  0.9118800E+02  0.7818608E-02  0.1130116E+00
         25   -1    0    0    0    0  0.00000000000E+00  0.00000000000E+00  0.99999998245E-14  0.12500000000E+03  0.12500000000E+03 0.  0.
        -13    1    3    3    0    0 -0.28666543762E+02  0.95117636256E+01  0.53287656970E+02  0.61252183047E+02  0.10566000000E+00 0.  1.
         23    2    1    0    0    0 -0.11636685994E+02 -0.42183809107E+01  0.25819546692E+02  0.96366869018E+02  0.92014766503E+02 0.  0.
         13    1    3    3    0    0  0.17029857768E+02 -0.13730144536E+02 -0.27468110278E+02  0.35114685972E+02  0.10566000000E+00 0. -1.
         22    1    1    0    0    0  0.11636685994E+02  0.42183809107E+01 -0.25819546692E+02  0.28633130982E+02  0.00000000000E+00 0.  1.
</event>
<event>
 5    1  0.1319298E-009  0.9118800E+02  0.7818608E-02  0.1130116E+00
         25   -1    0    0    0    0  0.00000000000E+00  0.00000000000E+00  0.99999998245E-14  0.12500000000E+03  0.12500000000E+03 0.  0.
        -13    1    3    3    0    0  0.30702288828E+02 -0.21099955918E+02 -0.30969668734E+02  0.48445538748E+02  0.10566000000E+00 0. -1.
         23    2    1    0    0    0  0.11822631973E+02 -0.22829246638E+02  0.12899628901E+02  0.96236315351E+02  0.91837241018E+02 0.  0.
         13    1    3    3    0    0 -0.18879656855E+02 -0.17292907199E+01  0.43869297635E+02  0.47790776603E+02  0.10566000000E+00 0.  1.
         22    1    1    0    0    0 -0.11822631973E+02  0.22829246638E+02 -0.12899628901E+02  0.28763684649E+02  0.00000000000E+00 0. -1.
</event>
<event>
 5    1  0.1319298E-009  0.9118800E+02  0.7818608E-02  0.1130116E+00
         25   -1    0    0    0    0  0.00000000000E+00  0.00000000000E+00  0.99999998245E-14  0.12500000000E+03  0.12500000000E+03 0.  0.
        -13    1    3    3    0    0  0.15485723471E+02 -0.14629613483E+02  0.31275381408E+02  0.37841694840E+02  0.10566000000E+00 0.  1.
         23    2    1    0    0    0  0.14481811529E+02  0.18484972460E+02 -0.16728743625E+02  0.96168282478E+02  0.91744594498E+02 0.  0.
         13    1    3    3    0    0 -0.10039119417E+01  0.33114585943E+02 -0.48004125033E+02  0.58326587639E+02  0.10566000000E+00 0. -1.
         22    1    1    0    0    0 -0.14481811529E+02 -0.18484972460E+02  0.16728743625E+02  0.28831717522E+02  0.00000000000E+00 0. -1.
</event>
<event>
 5    1  0.1319298E-009  0.9118800E+02  0.7818608E-02  0.1130116E+00
         25   -1    0    0    0    0  0.00000000000E+00  0.00000000000E+00  0.99999998245E-14  0.12500000000E+03  0.12500000000E+03 0.  0.
        -13    1    3    3    0    0 -0.33450615036E+02 -0.27876125179E+02 -0.79774651944E+01  0.44268195313E+02  0.10566000000E+00 0. -1.
         23    2    1    0    0    0  0.88915106550E+01 -0.15096868578E+02 -0.27322465391E+02  0.92542465934E+02  0.86663812999E+02 0.  0.
         13    1    3    3    0    0  0.42342125691E+02  0.12779256602E+02 -0.19345000197E+02  0.48274270621E+02  0.10566000000E+00 0.  1.
         22    1    1    0    0    0 -0.88915106550E+01  0.15096868578E+02  0.27322465391E+02  0.32457534066E+02  0.00000000000E+00 0. -1.
</event>
<event>
 5    1  0.1319298E-009  0.9118800E+02  0.7818608E-02  0.1130116E+00
         25   -1    0    0    0    0  0.00000000000E+00  0.00000000000E+00  0.99999998245E-14  0.12500000000E+03  0.12500000000E+03 0.  0.
        -13    1    3    3    0    0 -0.52443802981E+02  0.26666953580E+02 -0.19769369529E+02  0.62067044556E+02  0.10566000000E+00 0. -1.
         23    2    1    0    0    0 -0.27985088477E+02  0.10563695359E+02 -0.57255451864E+01  0.94544479903E+02  0.89504860067E+02 0.  0.
         13    1    3    3    0    0  0.24458714504E+02 -0.16103258221E+02  0.14043824343E+02  0.32477435347E+02  0.10566000000E+00 0.  1.
         22    1    1    0    0    0  0.27985088477E+02 -0.10563695359E+02  0.57255451864E+01  0.30455520097E+02  0.00000000000E+00 0. -1.
</event>
<event>
 5    1  0.1319298E-009  0.9118800E+02  0.7818608E-02  0.1130116E+00
         25   -1    0    0    0    0  0.00000000000E+00  0.00000000000E+00  0.99999998245E-14  0.12500000000E+03  0.12500000000E+03 0.  0.
        -13    1    3    3    0    0  0.18815619542E+02 -0.22170649643E+02  0.18664243362E+02  0.34553297797E+02  0.10566000000E+00 0.  1.
         23    2    1    0    0    0 -0.25755081207E+02 -0.77764806772E+00 -0.15759133509E+02  0.94796039442E+02  0.89855494325E+02 0.  0.
         13    1    3    3    0    0 -0.44570700749E+02  0.21393001575E+02 -0.34423376871E+02  0.60242741645E+02  0.10566000000E+00 0. -1.
         22    1    1    0    0    0  0.25755081207E+02  0.77764806772E+00  0.15759133509E+02  0.30203960558E+02  0.00000000000E+00 0. -1.
</event>
<event>
 5    1  0.1319298E-009  0.9118800E+02  0.7818608E-02  0.1130116E+00
         25   -1    0    0    0    0  0.00000000000E+00  0.00000000000E+00  0.99999998245E-14  0.12500000000E+03  0.12500000000E+03 0.  0.
        -13    1    3    3    0    0  0.86314449154E+01  0.20443163111E+02  0.25669697564E+02  0.33931833083E+02  0.10566000000E+00 0.  1.
         23    2    1    0    0    0 -0.90325486455E+01  0.69194611442E+01 -0.29480452102E+02  0.93399953581E+02  0.87891913139E+02 0.  0.
         13    1    3    3    0    0 -0.17663993561E+02 -0.13523701967E+02 -0.55150149666E+02  0.59468120498E+02  0.10566000000E+00 0. -1.
         22    1    1    0    0    0  0.90325486455E+01 -0.69194611442E+01  0.29480452102E+02  0.31600046419E+02  0.00000000000E+00 0. -1.
</event>
<event>
 5    1  0.1319298E-009  0.9118800E+02  0.7818608E-02  0.1130116E+00
         25   -1    0    0    0    0  0.00000000000E+00  0.00000000000E+00  0.99999998245E-14  0.12500000000E+03  0.12500000000E+03 0.  0.
        -13    1    3    3    0    0  0.26494506831E+02  0.12938116203E+02  0.45427730950E+02  0.54157581615E+02  0.10566000000E+00 0. -1.
         23    2    1    0    0    0  0.92974426880E+01 -0.15842799634E+02  0.26789766179E+02  0.92517261312E+02  0.86627451353E+02 0.  0.
         13    1    3    3    0    0 -0.17197064143E+02 -0.28780915837E+02 -0.18637964771E+02  0.38359679697E+02  0.10566000000E+00 0.  1.
         22    1    1    0    0    0 -0.92974426880E+01  0.15842799634E+02 -0.26789766179E+02  0.32482738688E+02  0.00000000000E+00 0. -1.
</event>
<event>
 5    1  0.1319298E-009  0.9118800E+02  0.7818608E-02  0.1130116E+00
         25   -1    0    0    0    0  0.00000000000E+00  0.00000000000E+00  0.99999998245E-14  0.12500000000E+03  0.12500000000E+03 0.  0.
        -13    1    3    3    0    0 -0.35405646781E+02 -0.31073054634E+02 -0.36601343167E+02  0.59655377243E+02  0.10566000000E+00 0. -1.
         23    2    1    0    0    0 -0.25133938486E+02 -0.14037757245E+02 -0.69112855081E+01  0.95393592591E+02  0.90682954009E+02 0.  0.
         13    1    3    3    0    0  0.10271708296E+02  0.17035297389E+02  0.29690057659E+02  0.35738215348E+02  0.10566000000E+00 0.  1.
         22    1    1    0    0    0  0.25133938486E+02  0.14037757245E+02  0.69112855081E+01  0.29606407409E+02  0.00000000000E+00 0. -1.
</event>
<event>
 5    1  0.1319298E-009  0.9118800E+02  0.7818608E-02  0.1130116E+00
         25   -1    0    0    0    0  0.00000000000E+00  0.00000000000E+00  0.99999998245E-14  0.12500000000E+03  0.12500000000E+03 0.  0.
        -13    1    3    3    0    0 -0.10894856636E+02 -0.29626755341E+02 -0.13376630141E+02  0.34283931092E+02  0.10566000000E+00 0.  1.
         23    2    1    0    0    0  0.12518013453E+02  0.19898220853E+02  0.16115036409E+02  0.96498521926E+02  0.92193440556E+02 0.  0.
         13    1    3    3    0    0  0.23412870089E+02  0.49524976194E+02  0.29491666550E+02  0.62214590835E+02  0.10566000000E+00 0. -1.
         22    1    1    0    0    0 -0.12518013453E+02 -0.19898220853E+02 -0.16115036409E+02  0.28501478074E+02  0.00000000000E+00 0. -1.
</event>
<event>
 5    1  0.1319298E-009  0.9118800E+02  0.7818608E-02  0.1130116E+00
         25   -1    0    0    0    0  0.00000000000E+00  0.00000000000E+00  0.99999998245E-14  0.12500000000E+03  0.12500000000E+03 0.  0.
        -13    1    3    3    0    0 -0.54070348941E+02  0.59843314491E+01 -0.27539142022E+01  0.54470267715E+02  0.10566000000E+00 0.  1.
         23    2    1    0    0    0 -0.19976820938E+02  0.77968311268E+01 -0.22505395277E+02  0.93913720599E+02  0.88619581075E+02 0.  0.
         13    1    3    3    0    0  0.34093528003E+02  0.18124996777E+01 -0.19751481075E+02  0.39443452884E+02  0.10566000000E+00 0. -1.
         22    1    1    0    0    0  0.19976820938E+02 -0.77968311268E+01  0.22505395277E+02  0.31086279401E+02  0.00000000000E+00 0.  1.
</event>
<event>
 5    1  0.1319298E-009  0.9118800E+02  0.7818608E-02  0.1130116E+00
         25   -1    0    0    0    0  0.00000000000E+00  0.00000000000E+00  0.99999998245E-14  0.12500000000E+03  0.12500000000E+03 0.  0.
        -13    1    3    3    0    0  0.22105422037E+02  0.41553514615E+02  0.12859740256E+02  0.48792707895E+02  0.10566000000E+00 0.  1.
         23    2    1    0    0    0 -0.11765650857E+02  0.16456876411E+02  0.25168797274E+02  0.92708705856E+02  0.86903259225E+02 0.  0.
         13    1    3    3    0    0 -0.33871072894E+02 -0.25096638204E+02  0.12309057018E+02  0.43915997960E+02  0.10566000000E+00 0. -1.
         22    1    1    0    0    0  0.11765650857E+02 -0.16456876411E+02 -0.25168797274E+02  0.32291294144E+02  0.00000000000E+00 0.  1.
</event>
<event>
 5    1  0.1319298E-009  0.9118800E+02  0.7818608E-02  0.1130116E+00
         25   -1    0    0    0    0  0.00000000000E+00  0.00000000000E+00  0.99999998245E-14  0.12500000000E+03  0.12500000000E+03 0.  0.
        -13    1    3    3    0    0 -0.29492453823E+02  0.79865406804E+01  0.19500964357E+02  0.36247599085E+02  0.10566000000E+00 0.  1.
         23    2    1    0    0    0 -0.16694382176E+01 -0.33537389420E+02 -0.34416719219E+01  0.91245168957E+02  0.84772001506E+02 0.  0.
         13    1    3    3    0    0  0.27823015605E+02 -0.41523930101E+02 -0.22942636279E+02  0.54997569872E+02  0.10566000000E+00 0. -1.
         22    1    1    0    0    0  0.16694382176E+01  0.33537389420E+02  0.34416719219E+01  0.33754831043E+02  0.00000000000E+00 0. -1.
</event>
<event>
 5    1  0.1319298E-009  0.9118800E+02  0.7818608E-02  0.1130116E+00
         25   -1    0    0    0    0  0.00000000000E+00  0.00000000000E+00  0.99999998245E-14  0.12500000000E+03  0.12500000000E+03 0.  0.
        -13    1    3    3    0    0 -0.16708364139E+02  0.33642397928E+02 -0.13748119642E+02  0.40000029104E+02  0.10566000000E+00 0.  1.
         23    2    1    0    0    0 -0.53355539118E+01 -0.20161825942E+02 -0.20921312881E+02  0.95459033639E+02  0.90773115016E+02 0.  0.
         13    1    3    3    0    0  0.11372810228E+02 -0.53804223870E+02 -0.71731932397E+01  0.55459004535E+02  0.10566000000E+00 0. -1.
         22    1    1    0    0    0  0.53355539118E+01  0.20161825942E+02  0.20921312881E+02  0.29540966361E+02  0.00000000000E+00 0.  1.
</event>
<event>
 5    1  0.1319298E-009  0.9118800E+02  0.7818608E-02  0.1130116E+00
         25   -1    0    0    0    0  0.00000000000E+00  0.00000000000E+00  0.99999998245E-14  0.12500000000E+03  0.12500000000E+03 0.  0.
        -13    1    3    3    0    0 -0.15207622108E+02 -0.31664546718E+02  0.47901663330E+02  0.59401143111E+02  0.10566000000E+00 0.  1.
         23    2    1    0    0    0  0.62705914806E+01 -0.17829880746E+02  0.24581248374E+02  0.93992537406E+02  0.88730684385E+02 0.  0.
         13    1    3    3    0    0  0.21478213588E+02  0.13834665972E+02 -0.23320414956E+02  0.34591394295E+02  0.10566000000E+00 0. -1.
         22    1    1    0    0    0 -0.62705914806E+01  0.17829880746E+02 -0.24581248374E+02  0.31007462594E+02  0.00000000000E+00 0.  1.
</event>
<event>
 5    1  0.1319298E-009  0.9118800E+02  0.7818608E-02  0.1130116E+00
         25   -1    0    0    0    0  0.00000000000E+00  0.00000000000E+00  0.99999998245E-14  0.12500000000E+03  0.12500000000E+03 0.  0.
        -13    1    3    3    0    0 -0.30678962219E+02  0.37526387729E+02 -0.57425380094E+01  0.48810003132E+02  0.10566000000E+00 0.  1.
         23    2    1    0    0    0 -0.20737015781E+02 -0.12715732281E+02  0.19319151169E+01  0.10059823845E+03  0.97593850275E+02 0.  0.
         13    1    3    3    0    0  0.99419464389E+01 -0.50242120011E+02  0.76744531263E+01  0.51788235314E+02  0.10566000000E+00 0. -1.
         22    1    1    0    0    0  0.20737015781E+02  0.12715732281E+02 -0.19319151169E+01  0.24401761554E+02  0.00000000000E+00 0.  1.
</event>
<event>
 5    1  0.1319298E-009  0.9118800E+02  0.7818608E-02  0.1130116E+00
         25   -1    0    0    0    0  0.00000000000E+00  0.00000000000E+00  0.99999998245E-14  0.12500000000E+03  0.12500000000E+03 0.  0.
        -13    1    3    3    0    0  0.23749452927E+01 -0.35287168184E+02 -0.24621372009E+02  0.43093476620E+02  0.10566000000E+00 0.  1.
         23    2    1    0    0    0 -0.18274180401E+02 -0.10957256860E+02  0.18529737769E+02  0.96762465954E+02  0.92550615819E+02 0.  0.
         13    1    3    3    0    0 -0.20649125694E+02  0.24329911324E+02  0.43151109778E+02  0.53668989333E+02  0.10566000000E+00 0. -1.
         22    1    1    0    0    0  0.18274180401E+02  0.10957256860E+02 -0.18529737769E+02  0.28237534046E+02  0.00000000000E+00 0.  1.
</event>
<event>
 5    1  0.1319298E-009  0.9118800E+02  0.7818608E-02  0.1130116E+00
         25   -1    0    0    0    0  0.00000000000E+00  0.00000000000E+00  0.99999998245E-14  0.12500000000E+03  0.12500000000E+03 0.  0.
        -13    1    3    3    0    0  0.13771213795E+02  0.24166687433E+02  0.19752010852E+02  0.34114926464E+02  0.10566000000E+00 0. -1.
         23    2    1    0    0    0 -0.13421577286E+02 -0.40298105168E+01 -0.26679862199E+02  0.94863756761E+02  0.89949648082E+02 0.  0.
         13    1    3    3    0    0 -0.27192791081E+02 -0.28196497950E+02 -0.46431873051E+02  0.60748830297E+02  0.10566000000E+00 0.  1.
         22    1    1    0    0    0  0.13421577286E+02  0.40298105168E+01  0.26679862199E+02  0.30136243239E+02  0.00000000000E+00 0.  1.
</event>
<event>
 5    1  0.1319298E-009  0.9118800E+02  0.7818608E-02  0.1130116E+00
         25   -1    0    0    0    0  0.00000000000E+00  0.00000000000E+00  0.99999998245E-14  0.12500000000E+03  0.12500000000E+03 0.  0.
        -13    1    3    3    0    0  0.21840568672E+02  0.27246431184E+02  0.38492548970E+02  0.51971780251E+02  0.10566000000E+00 0.  1.
         23    2    1    0    0    0 -0.11962731457E+02  0.10563465061E+01  0.25742258853E+02  0.96594248774E+02  0.92323140077E+02 0.  0.
         13    1    3    3    0    0 -0.33803300129E+02 -0.26190084678E+02 -0.12750290118E+02  0.44622468524E+02  0.10566000000E+00 0. -1.
         22    1    1    0    0    0  0.11962731457E+02 -0.10563465061E+01 -0.25742258853E+02  0.28405751226E+02  0.00000000000E+00 0. -1.
</event>
<event>
 5    1  0.1319298E-009  0.9118800E+02  0.7818608E-02  0.1130116E+00
         25   -1    0    0    0    0  0.00000000000E+00  0.00000000000E+00  0.99999998245E-14  0.12500000000E+03  0.12500000000E+03 0.  0.
        -13    1    3    3    0    0  0.12200185587E+02  0.48121037423E+02  0.13987091141E+02  0.51576435062E+02  0.10566000000E+00 0. -1.
         23    2    1    0    0    0 -0.91009378317E+01  0.10415807242E+02  0.25149222986E+02  0.96298091933E+02  0.91921286888E+02 0.  0.
         13    1    3    3    0    0 -0.21301123419E+02 -0.37705230181E+02  0.11162131845E+02  0.44721656871E+02  0.10566000000E+00 0.  1.
         22    1    1    0    0    0  0.91009378317E+01 -0.10415807242E+02 -0.25149222986E+02  0.28701908067E+02  0.00000000000E+00 0. -1.
</event>
<event>
 5    1  0.1319298E-009  0.9118800E+02  0.7818608E-02  0.1130116E+00
         25   -1    0    0    0    0  0.00000000000E+00  0.00000000000E+00  0.99999998245E-14  0.12500000000E+03  0.12500000000E+03 0.  0.
        -13    1    3    3    0    0  0.39435838494E+02  0.13073585566E+02  0.41944471231E+02  0.59037732241E+02  0.10566000000E+00 0. -1.
         23    2    1    0    0    0  0.13106792683E+02 -0.58189812187E+01  0.26349154893E+02  0.95001224684E+02  0.90140480202E+02 0.  0.
         13    1    3    3    0    0 -0.26329045811E+02 -0.18892566785E+02 -0.15595316338E+02  0.35963492444E+02  0.10566000000E+00 0.  1.
         22    1    1    0    0    0 -0.13106792683E+02  0.58189812187E+01 -0.26349154893E+02  0.29998775316E+02  0.00000000000E+00 0. -1.
</event>
<event>
 5    1  0.1319298E-009  0.9118800E+02  0.7818608E-02  0.1130116E+00
         25   -1    0    0    0    0  0.00000000000E+00  0.00000000000E+00  0.99999998245E-14  0.12500000000E+03  0.12500000000E+03 0.  0.
        -13    1    3    3    0    0 -0.30560026039E+02 -0.14965176403E+02 -0.39806542051E+02  0.52368345881E+02  0.10566000000E+00 0.  1.
         23    2    1    0    0    0 -0.26646705637E+02 -0.11665327750E+02  0.32522725756E+01  0.95730492493E+02  0.91146163513E+02 0.  0.
         13    1    3    3    0    0  0.39133204016E+01  0.32998486533E+01  0.43058814626E+02  0.43362146611E+02  0.10566000000E+00 0. -1.
         22    1    1    0    0    0  0.26646705637E+02  0.11665327750E+02 -0.32522725756E+01  0.29269507507E+02  0.00000000000E+00 0. -1.
</event>
<event>
 4    1  0.1319298E-009  0.9118800E+02  0.7818608E-02  0.1130116E+00
         25   -1    0    0    0    0  0.00000000000E+00  0.00000000000E+00  0.99999998245E-14  0.12500000000E+03  0.12500000000E+03 0.  0.
        -13    1    1    0    0    0 -0.21736275602E+02 -0.15692141598E+02 -0.16256567979E+01  0.26858200033E+02  0.10566000000E+00 0.  1.
         13    1    1    0    0    0 -0.28064224898E+02  0.11930451565E+02 -0.26868050032E+02  0.40642830490E+02  0.10566000000E+00 0. -1.
         22    1    1    0    0    0  0.49800500500E+02  0.37616900328E+01  0.28493706830E+02  0.57498969477E+02  0.00000000000E+00 0. -1.
</event>
<event>
 5    1  0.1319298E-009  0.9118800E+02  0.7818608E-02  0.1130116E+00
         25   -1    0    0    0    0  0.00000000000E+00  0.00000000000E+00  0.99999998245E-14  0.12500000000E+03  0.12500000000E+03 0.  0.
        -13    1    3    3    0    0 -0.27049955031E+02 -0.73200012749E+01  0.21380824063E+02  0.35248167151E+02  0.10566000000E+00 0.  1.
         23    2    1    0    0    0  0.33498164479E+01  0.74852829393E+01 -0.28407144761E+02  0.95432845852E+02  0.90737045704E+02 0.  0.
         13    1    3    3    0    0  0.30399771479E+02  0.14805284214E+02 -0.49787968824E+02  0.60184678701E+02  0.10566000000E+00 0. -1.
         22    1    1    0    0    0 -0.33498164479E+01 -0.74852829393E+01  0.28407144761E+02  0.29567154148E+02  0.00000000000E+00 0. -1.
</event>
<event>
 5    1  0.1319298E-009  0.9118800E+02  0.7818608E-02  0.1130116E+00
         25   -1    0    0    0    0  0.00000000000E+00  0.00000000000E+00  0.99999998245E-14  0.12500000000E+03  0.12500000000E+03 0.  0.
        -13    1    3    3    0    0  0.35790068393E+02  0.31567828245E+02 -0.20597433077E+02  0.51978093357E+02  0.10566000000E+00 0.  1.
         23    2    1    0    0    0 -0.63375463860E+01  0.26258026096E+02 -0.12633910377E+02  0.95179468146E+02  0.90387316790E+02 0.  0.
         13    1    3    3    0    0 -0.42127614779E+02 -0.53098021490E+01  0.79635227002E+01  0.43201374789E+02  0.10566000000E+00 0. -1.
         22    1    1    0    0    0  0.63375463860E+01 -0.26258026096E+02  0.12633910377E+02  0.29820531854E+02  0.00000000000E+00 0.  1.
</event>
<event>
 5    1  0.1319298E-009  0.9118800E+02  0.7818608E-02  0.1130116E+00
         25   -1    0    0    0    0  0.00000000000E+00  0.00000000000E+00  0.99999998245E-14  0.12500000000E+03  0.12500000000E+03 0.  0.
        -13    1    3    3    0    0 -0.28153585331E+02 -0.10562249283E+02 -0.24779131037E+01  0.30171786396E+02  0.10566000000E+00 0.  1.
         23    2    1    0    0    0 -0.25511930612E+02  0.26998306921E+02 -0.30361124447E+02  0.77025370686E+02  0.60260622893E+02 0.  0.
         13    1    3    3    0    0  0.26416547193E+01  0.37560556204E+02 -0.27883211343E+02  0.46853584290E+02  0.10566000000E+00 0. -1.
         22    1    1    0    0    0  0.25511930612E+02 -0.26998306921E+02  0.30361124447E+02  0.47974629314E+02  0.00000000000E+00 0. -1.
</event>
<event>
 5    1  0.1319298E-009  0.9118800E+02  0.7818608E-02  0.1130116E+00
         25   -1    0    0    0    0  0.00000000000E+00  0.00000000000E+00  0.99999998245E-14  0.12500000000E+03  0.12500000000E+03 0.  0.
        -13    1    3    3    0    0 -0.21892526920E+02 -0.35351005200E+02 -0.32592697012E+02  0.52832484005E+02  0.10566000000E+00 0. -1.
         23    2    1    0    0    0 -0.15436088804E+02  0.55584125825E+01 -0.25240611435E+02  0.94895893077E+02  0.89994295759E+02 0.  0.
         13    1    3    3    0    0  0.64564381155E+01  0.40909417782E+02  0.73520855763E+01  0.42063409072E+02  0.10566000000E+00 0.  1.
         22    1    1    0    0    0  0.15436088804E+02 -0.55584125825E+01  0.25240611435E+02  0.30104106923E+02  0.00000000000E+00 0. -1.
</event>
<event>
 5    1  0.1319298E-009  0.9118800E+02  0.7818608E-02  0.1130116E+00
         25   -1    0    0    0    0  0.00000000000E+00  0.00000000000E+00  0.99999998245E-14  0.12500000000E+03  0.12500000000E+03 0.  0.
        -13    1    3    3    0    0 -0.23374423015E+02 -0.21293562000E+02 -0.47650705586E+01  0.31976499111E+02  0.10566000000E+00 0.  1.
         23    2    1    0    0    0  0.21413025057E+02  0.20212134620E+02  0.82701078933E+01  0.94414992030E+02  0.89323837845E+02 0.  0.
         13    1    3    3    0    0  0.44787448071E+02  0.41505696620E+02  0.13035178452E+02  0.62438492919E+02  0.10566000000E+00 0. -1.
         22    1    1    0    0    0 -0.21413025057E+02 -0.20212134620E+02 -0.82701078933E+01  0.30585007970E+02  0.00000000000E+00 0. -1.
</event>
<event>
 5    1  0.1319298E-009  0.9118800E+02  0.7818608E-02  0.1130116E+00
         25   -1    0    0    0    0  0.00000000000E+00  0.00000000000E+00  0.99999998245E-14  0.12500000000E+03  0.12500000000E+03 0.  0.
        -13    1    3    3    0    0  0.73357998930E+01 -0.41984325340E+02  0.24563934970E+02  0.49192434373E+02  0.10566000000E+00 0. -1.
         23    2    1    0    0    0  0.17186826730E+02 -0.19138565471E+02 -0.14474053703E+02  0.95484412052E+02  0.90808055882E+02 0.  0.
         13    1    3    3    0    0  0.98510268369E+01  0.22845759869E+02 -0.39037988673E+02  0.46291977679E+02  0.10566000000E+00 0.  1.
         22    1    1    0    0    0 -0.17186826730E+02  0.19138565471E+02  0.14474053703E+02  0.29515587948E+02  0.00000000000E+00 0. -1.
</event>
<event>
 5    1  0.1319298E-009  0.9118800E+02  0.7818608E-02  0.1130116E+00
         25   -1    0    0    0    0  0.00000000000E+00  0.00000000000E+00  0.99999998245E-14  0.12500000000E+03  0.12500000000E+03 0.  0.
        -13    1    3    3    0    0 -0.20136087315E+02 -0.30804343392E+02  0.10491872108E+02  0.38268265293E+02  0.10566000000E+00 0.  1.
         23    2    1    0    0    0 -0.16459945479E+02  0.25019902990E+02  0.84347958452E+00  0.95039412412E+02  0.90193420509E+02 0.  0.
         13    1    3    3    0    0  0.36761418356E+01  0.55824246382E+02 -0.96483925236E+01  0.56771147119E+02  0.10566000000E+00 0. -1.
         22    1    1    0    0    0  0.16459945479E+02 -0.25019902990E+02 -0.84347958452E+00  0.29960587588E+02  0.00000000000E+00 0. -1.
</event>
<event>
 5    1  0.1319298E-009  0.9118800E+02  0.7818608E-02  0.1130116E+00
         25   -1    0    0    0    0  0.00000000000E+00  0.00000000000E+00  0.99999998245E-14  0.12500000000E+03  0.12500000000E+03 0.  0.
        -13    1    3    3    0    0 -0.15895669627E+02  0.51571813761E+02 -0.26203082810E+02  0.59991141015E+02  0.10566000000E+00 0.  1.
         23    2    1    0    0    0 -0.17337133349E+02  0.16844827369E+02 -0.15187702338E+02  0.96451957963E+02  0.92130285415E+02 0.  0.
         13    1    3    3    0    0 -0.14414637215E+01 -0.34726986392E+02  0.11015380472E+02  0.36460816948E+02  0.10566000000E+00 0. -1.
         22    1    1    0    0    0  0.17337133349E+02 -0.16844827369E+02  0.15187702338E+02  0.28548042037E+02  0.00000000000E+00 0.  1.
</event>
<event>
 5    1  0.1319298E-009  0.9118800E+02  0.7818608E-02  0.1130116E+00
         25   -1    0    0    0    0  0.00000000000E+00  0.00000000000E+00  0.99999998245E-14  0.12500000000E+03  0.12500000000E+03 0.  0.
        -13    1    3    3    0    0  0.21995778123E+02 -0.87962608786E+01 -0.29359203647E+02  0.37724825560E+02  0.10566000000E+00 0.  1.
         23    2    1    0    0    0  0.13172553780E+02  0.18349591757E+02  0.20056852747E+02  0.94792367970E+02  0.89850386713E+02 0.  0.
         13    1    3    3    0    0 -0.88232243425E+01  0.27145852636E+02  0.49416056394E+02  0.57067542410E+02  0.10566000000E+00 0. -1.
         22    1    1    0    0    0 -0.13172553780E+02 -0.18349591757E+02 -0.20056852747E+02  0.30207632030E+02  0.00000000000E+00 0. -1.
</event>
<event>
 5    1  0.1319298E-009  0.9118800E+02  0.7818608E-02  0.1130116E+00
         25   -1    0    0    0    0  0.00000000000E+00  0.00000000000E+00  0.99999998245E-14  0.12500000000E+03  0.12500000000E+03 0.  0.
        -13    1    3    3    0    0 -0.32482472771E+02 -0.28366612093E+02 -0.32135390404E+02  0.53781690187E+02  0.10566000000E+00 0.  1.
         23    2    1    0    0    0 -0.26069735874E+02 -0.14945560767E+02  0.56804502101E+01  0.94417841316E+02  0.89327825055E+02 0.  0.
         13    1    3    3    0    0  0.64127368965E+01  0.13421051326E+02  0.37815840614E+02  0.40636151129E+02  0.10566000000E+00 0. -1.
         22    1    1    0    0    0  0.26069735874E+02  0.14945560767E+02 -0.56804502101E+01  0.30582158684E+02  0.00000000000E+00 0.  1.
</event>
<event>
 5    1  0.1319298E-009  0.9118800E+02  0.7818608E-02  0.1130116E+00
         25   -1    0    0    0    0  0.00000000000E+00  0.00000000000E+00  0.99999998245E-14  0.12500000000E+03  0.12500000000E+03 0.  0.
        -13    1    3    3    0    0  0.30547623067E+02 -0.26423753353E+02  0.94590213958E+01  0.41483204627E+02  0.10566000000E+00 0. -1.
         23    2    1    0    0    0 -0.21324391951E+02 -0.40651427866E+01  0.15550856052E+02  0.98296363508E+02  0.94599634656E+02 0.  0.
         13    1    3    3    0    0 -0.51872015018E+02  0.22358610566E+02  0.60918346563E+01  0.56813158881E+02  0.10566000000E+00 0.  1.
         22    1    1    0    0    0  0.21324391951E+02  0.40651427866E+01 -0.15550856052E+02  0.26703636492E+02  0.00000000000E+00 0.  1.
</event>
<event>
 5    1  0.1319298E-009  0.9118800E+02  0.7818608E-02  0.1130116E+00
         25   -1    0    0    0    0  0.00000000000E+00  0.00000000000E+00  0.99999998245E-14  0.12500000000E+03  0.12500000000E+03 0.  0.
        -13    1    3    3    0    0  0.29049346734E+02  0.22195541656E+02 -0.42423032166E+02  0.56002066366E+02  0.10566000000E+00 0. -1.
         23    2    1    0    0    0 -0.45867485845E+00  0.24193262230E+02 -0.13883040941E+02  0.97102631921E+02  0.93008913445E+02 0.  0.
         13    1    3    3    0    0 -0.29508021592E+02  0.19977205738E+01  0.28539991224E+02  0.41100565555E+02  0.10566000000E+00 0.  1.
         22    1    1    0    0    0  0.45867485845E+00 -0.24193262230E+02  0.13883040941E+02  0.27897368079E+02  0.00000000000E+00 0. -1.
</event>
<event>
 5    1  0.1319298E-009  0.9118800E+02  0.7818608E-02  0.1130116E+00
         25   -1    0    0    0    0  0.00000000000E+00  0.00000000000E+00  0.99999998245E-14  0.12500000000E+03  0.12500000000E+03 0.  0.
        -13    1    3    3    0    0 -0.77068721860E+01 -0.20379327741E+02  0.47244150063E+02  0.52026279487E+02  0.10566000000E+00 0. -1.
         23    2    1    0    0    0  0.16415102170E+02  0.72959428935E+01  0.95036573475E+01  0.10467745427E+03  0.10268575153E+03 0.  0.
         13    1    3    3    0    0  0.24121974356E+02  0.27675270635E+02 -0.37740492715E+02  0.52651174783E+02  0.10566000000E+00 0.  1.
         22    1    1    0    0    0 -0.16415102170E+02 -0.72959428935E+01 -0.95036573475E+01  0.20322545730E+02  0.00000000000E+00 0.  1.
</event>
<event>
 5    1  0.1319298E-009  0.9118800E+02  0.7818608E-02  0.1130116E+00
         25   -1    0    0    0    0  0.00000000000E+00  0.00000000000E+00  0.99999998245E-14  0.12500000000E+03  0.12500000000E+03 0.  0.
        -13    1    3    3    0    0  0.25714393704E+01  0.33360636575E+02  0.66267942900E+01  0.34109675163E+02  0.10566000000E+00 0. -1.
         23    2    1    0    0    0 -0.10572354694E+02 -0.26805142335E+02  0.52562447419E+01  0.95709755068E+02  0.91117719281E+02 0.  0.
         13    1    3    3    0    0 -0.13143794064E+02 -0.60165778910E+02 -0.13705495481E+01  0.61600079905E+02  0.10566000000E+00 0.  1.
         22    1    1    0    0    0  0.10572354694E+02  0.26805142335E+02 -0.52562447419E+01  0.29290244932E+02  0.00000000000E+00 0.  1.
</event>
<event>
 5    1  0.1319298E-009  0.9118800E+02  0.7818608E-02  0.1130116E+00
         25   -1    0    0    0    0  0.00000000000E+00  0.00000000000E+00  0.99999998245E-14  0.12500000000E+03  0.12500000000E+03 0.  0.
        -13    1    3    3    0    0  0.13121155127E+02 -0.41627330965E+02  0.53220945586E+01  0.43969708319E+02  0.10566000000E+00 0.  1.
         23    2    1    0    0    0  0.20288268099E+02 -0.20560241862E+01  0.28171155688E+02  0.90222779428E+02  0.83250794933E+02 0.  0.
         13    1    3    3    0    0  0.71671129720E+01  0.39571306778E+02  0.22849061130E+02  0.46253071109E+02  0.10566000000E+00 0. -1.
         22    1    1    0    0    0 -0.20288268099E+02  0.20560241862E+01 -0.28171155688E+02  0.34777220572E+02  0.00000000000E+00 0.  1.
</event>
<event>
 5    1  0.1319298E-009  0.9118800E+02  0.7818608E-02  0.1130116E+00
         25   -1    0    0    0    0  0.00000000000E+00  0.00000000000E+00  0.99999998245E-14  0.12500000000E+03  0.12500000000E+03 0.  0.
        -13    1    3    3    0    0 -0.18215629729E+02  0.30273994528E+02 -0.30664760598E+02  0.46783144590E+02  0.10566000000E+00 0. -1.
         23    2    1    0    0    0 -0.41805019317E+01 -0.16019848492E+02 -0.24330265485E+02  0.95570865445E+02  0.90926983680E+02 0.  0.
         13    1    3    3    0    0  0.14035127797E+02 -0.46293843020E+02  0.63344951131E+01  0.48787720855E+02  0.10566000000E+00 0.  1.
         22    1    1    0    0    0  0.41805019317E+01  0.16019848492E+02  0.24330265485E+02  0.29429134555E+02  0.00000000000E+00 0.  1.
</event>
<event>
 5    1  0.1319298E-009  0.9118800E+02  0.7818608E-02  0.1130116E+00
         25   -1    0    0    0    0  0.00000000000E+00  0.00000000000E+00  0.99999998245E-14  0.12500000000E+03  0.12500000000E+03 0.  0.
        -13    1    3    3    0    0  0.23695644955E+02  0.12732983438E+02 -0.54167817005E+02  0.60479550430E+02  0.10566000000E+00 0.  1.
         23    2    1    0    0    0  0.17113628145E+02 -0.32903343734E+01 -0.22928284002E+02  0.96200542091E+02  0.91788536990E+02 0.  0.
         13    1    3    3    0    0 -0.65820168097E+01 -0.16023317811E+02  0.31239533003E+02  0.35720991661E+02  0.10566000000E+00 0. -1.
         22    1    1    0    0    0 -0.17113628145E+02  0.32903343734E+01  0.22928284002E+02  0.28799457909E+02  0.00000000000E+00 0.  1.
</event>
<event>
 5    1  0.1319298E-009  0.9118800E+02  0.7818608E-02  0.1130116E+00
         25   -1    0    0    0    0  0.00000000000E+00  0.00000000000E+00  0.99999998245E-14  0.12500000000E+03  0.12500000000E+03 0.  0.
        -13    1    3    3    0    0  0.17296107140E+02 -0.85053666662E+00 -0.32461574555E+02  0.36791897497E+02  0.10566000000E+00 0.  1.
         23    2    1    0    0    0  0.12311412181E+02  0.25206704310E+01  0.26295234054E+02  0.95856150164E+02  0.91318330805E+02 0.  0.
         13    1    3    3    0    0 -0.49846949594E+01  0.33712070976E+01  0.58756808609E+02  0.59064252667E+02  0.10566000000E+00 0. -1.
         22    1    1    0    0    0 -0.12311412181E+02 -0.25206704310E+01 -0.26295234054E+02  0.29143849836E+02  0.00000000000E+00 0. -1.
</event>
<event>
 5    1  0.1319298E-009  0.9118800E+02  0.7818608E-02  0.1130116E+00
         25   -1    0    0    0    0  0.00000000000E+00  0.00000000000E+00  0.99999998245E-14  0.12500000000E+03  0.12500000000E+03 0.  0.
        -13    1    3    3    0    0 -0.53654278171E+02 -0.19951781590E+01 -0.19669949869E+02  0.57181119207E+02  0.10566000000E+00 0.  1.
         23    2    1    0    0    0 -0.23900407320E+02 -0.17105628095E+02 -0.62911158668E+00  0.95602248998E+02  0.90970117344E+02 0.  0.
         13    1    3    3    0    0  0.29753870851E+02 -0.15110449936E+02  0.19040838283E+02  0.38421129791E+02  0.10566000000E+00 0. -1.
         22    1    1    0    0    0  0.23900407320E+02  0.17105628095E+02  0.62911158668E+00  0.29397751002E+02  0.00000000000E+00 0.  1.
</event>
<event>
 5    1  0.1319298E-009  0.9118800E+02  0.7818608E-02  0.1130116E+00
         25   -1    0    0    0    0  0.00000000000E+00  0.00000000000E+00  0.99999998245E-14  0.12500000000E+03  0.12500000000E+03 0.  0.
        -13    1    3    3    0    0  0.69221840358E+01  0.30289623411E+02  0.18260576606E+02  0.36039391507E+02  0.10566000000E+00 0.  1.
         23    2    1    0    0    0 -0.59727074857E+01 -0.27164439867E+02  0.97103054764E+01  0.95540365575E+02  0.90885044940E+02 0.  0.
         13    1    3    3    0    0 -0.12894891522E+02 -0.57454063279E+02 -0.85502711292E+01  0.59500974068E+02  0.10566000000E+00 0. -1.
         22    1    1    0    0    0  0.59727074857E+01  0.27164439867E+02 -0.97103054764E+01  0.29459634425E+02  0.00000000000E+00 0. -1.
</event>
<event>
 5    1  0.1319298E-009  0.9118800E+02  0.7818608E-02  0.1130116E+00
         25   -1    0    0    0    0  0.00000000000E+00  0.00000000000E+00  0.99999998245E-14  0.12500000000E+03  0.12500000000E+03 0.  0.
        -13    1    3    3    0    0  0.15210184480E+02  0.43156083872E+02 -0.26411907016E+01  0.45834313996E+02  0.10566000000E+00 0.  1.
         23    2    1    0    0    0 -0.22798267045E+02  0.19848805605E+02 -0.13762980062E+02  0.91786212435E+02  0.85566074520E+02 0.  0.
         13    1    3    3    0    0 -0.38008451526E+02 -0.23307278267E+02 -0.11121789360E+02  0.45951898440E+02  0.10566000000E+00 0. -1.
         22    1    1    0    0    0  0.22798267045E+02 -0.19848805605E+02  0.13762980062E+02  0.33213787565E+02  0.00000000000E+00 0.  1.
</event>
<event>
 5    1  0.1319298E-009  0.9118800E+02  0.7818608E-02  0.1130116E+00
         25   -1    0    0    0    0  0.00000000000E+00  0.00000000000E+00  0.99999998245E-14  0.12500000000E+03  0.12500000000E+03 0.  0.
        -13    1    3    3    0    0 -0.39084871680E+02  0.11670318764E+01  0.13879842659E+02  0.41492774719E+02  0.10566000000E+00 0. -1.
         23    2    1    0    0    0  0.41917822277E+00 -0.27424478804E+02 -0.10019361509E+02  0.95799565875E+02  0.91240843205E+02 0.  0.
         13    1    3    3    0    0  0.39504049903E+02 -0.28591510680E+02 -0.23899204168E+02  0.54306791155E+02  0.10566000000E+00 0.  1.
         22    1    1    0    0    0 -0.41917822277E+00  0.27424478804E+02  0.10019361509E+02  0.29200434125E+02  0.00000000000E+00 0.  1.
</event>
<event>
 5    1  0.1319298E-009  0.9118800E+02  0.7818608E-02  0.1130116E+00
         25   -1    0    0    0    0  0.00000000000E+00  0.00000000000E+00  0.99999998245E-14  0.12500000000E+03  0.12500000000E+03 0.  0.
        -13    1    3    3    0    0 -0.26066452802E+02 -0.17940604944E+02  0.48682551963E+02  0.58063131996E+02  0.10566000000E+00 0.  1.
         23    2    1    0    0    0 -0.15469503522E+02 -0.24562478150E+02  0.18899028289E+02  0.90361955275E+02  0.83459504066E+02 0.  0.
         13    1    3    3    0    0  0.10596949280E+02 -0.66218732053E+01 -0.29783523674E+02  0.32298823280E+02  0.10566000000E+00 0. -1.
         22    1    1    0    0    0  0.15469503522E+02  0.24562478150E+02 -0.18899028289E+02  0.34638044725E+02  0.00000000000E+00 0.  1.
</event>
<event>
 5    1  0.1319298E-009  0.9118800E+02  0.7818608E-02  0.1130116E+00
         25   -1    0    0    0    0  0.00000000000E+00  0.00000000000E+00  0.99999998245E-14  0.12500000000E+03  0.12500000000E+03 0.  0.
        -13    1    3    3    0    0 -0.47649162438E+01  0.52021168697E+01  0.46443771310E+02  0.46976605926E+02  0.10566000000E+00 0. -1.
         23    2    1    0    0    0  0.13447021075E+02  0.25637015051E+02  0.66156888044E+01  0.95304103737E+02  0.90559515978E+02 0.  0.
         13    1    3    3    0    0  0.18211937319E+02  0.20434898181E+02 -0.39828082506E+02  0.48327497811E+02  0.10566000000E+00 0.  1.
         22    1    1    0    0    0 -0.13447021075E+02 -0.25637015051E+02 -0.66156888044E+01  0.29695896263E+02  0.00000000000E+00 0. -1.
</event>
<event>
 5    1  0.1319298E-009  0.9118800E+02  0.7818608E-02  0.1130116E+00
         25   -1    0    0    0    0  0.00000000000E+00  0.00000000000E+00  0.99999998245E-14  0.12500000000E+03  0.12500000000E+03 0.  0.
        -13    1    3    3    0    0 -0.16036679369E+02  0.33658469732E+02  0.26479506138E+02  0.45730111297E+02  0.10566000000E+00 0. -1.
         23    2    1    0    0    0  0.24374010467E+02  0.94512758408E+01  0.20945849749E+01  0.98773938773E+02  0.95228591784E+02 0.  0.
         13    1    3    3    0    0  0.40410689837E+02 -0.24207193891E+02 -0.24384921163E+02  0.53043827476E+02  0.10566000000E+00 0.  1.
         22    1    1    0    0    0 -0.24374010467E+02 -0.94512758408E+01 -0.20945849749E+01  0.26226061227E+02  0.00000000000E+00 0.  1.
</event>
<event>
 5    1  0.1319298E-009  0.9118800E+02  0.7818608E-02  0.1130116E+00
         25   -1    0    0    0    0  0.00000000000E+00  0.00000000000E+00  0.99999998245E-14  0.12500000000E+03  0.12500000000E+03 0.  0.
        -13    1    3    3    0    0  0.75788374051E+01 -0.19977915783E+02 -0.23398816126E+02  0.31687089730E+02  0.10566000000E+00 0. -1.
         23    2    1    0    0    0 -0.12058363236E+02  0.25915438100E+02  0.13131827104E+02  0.93544333755E+02  0.88097011520E+02 0.  0.
         13    1    3    3    0    0 -0.19637200641E+02  0.45893353883E+02  0.36530643229E+02  0.61857244025E+02  0.10566000000E+00 0.  1.
         22    1    1    0    0    0  0.12058363236E+02 -0.25915438100E+02 -0.13131827104E+02  0.31455666245E+02  0.00000000000E+00 0.  1.
</event>
<event>
 5    1  0.1319298E-009  0.9118800E+02  0.7818608E-02  0.1130116E+00
         25   -1    0    0    0    0  0.00000000000E+00  0.00000000000E+00  0.99999998245E-14  0.12500000000E+03  0.12500000000E+03 0.  0.
        -13    1    3    3    0    0 -0.13206400130E+02 -0.20308942913E+02 -0.48515771830E+02  0.54227792200E+02  0.10566000000E+00 0.  1.
         23    2    1    0    0    0 -0.18116820326E+02 -0.26201945248E+02 -0.12947470109E+02  0.90613984009E+02  0.83836125878E+02 0.  0.
         13    1    3    3    0    0 -0.49104201960E+01 -0.58930023353E+01  0.35568301721E+02  0.36386191809E+02  0.10566000000E+00 0. -1.
         22    1    1    0    0    0  0.18116820326E+02  0.26201945248E+02  0.12947470109E+02  0.34386015991E+02  0.00000000000E+00 0.  1.
</event>
<event>
 5    1  0.1319298E-009  0.9118800E+02  0.7818608E-02  0.1130116E+00
         25   -1    0    0    0    0  0.00000000000E+00  0.00000000000E+00  0.99999998245E-14  0.12500000000E+03  0.12500000000E+03 0.  0.
        -13    1    3    3    0    0  0.14328987370E+02  0.31643912303E+02  0.94190908543E+01  0.35991492070E+02  0.10566000000E+00 0.  1.
         23    2    1    0    0    0 -0.16459835612E+02 -0.17689779924E+02  0.18127602751E+02  0.94792972943E+02  0.89851228349E+02 0.  0.
         13    1    3    3    0    0 -0.30788822982E+02 -0.49333692226E+02  0.87085118967E+01  0.58801480873E+02  0.10566000000E+00 0. -1.
         22    1    1    0    0    0  0.16459835612E+02  0.17689779924E+02 -0.18127602751E+02  0.30207027057E+02  0.00000000000E+00 0. -1.
</event>
<event>
 5    1  0.1319298E-009  0.9118800E+02  0.7818608E-02  0.1130116E+00
         25   -1    0    0    0    0  0.00000000000E+00  0.00000000000E+00  0.99999998245E-14  0.12500000000E+03  0.12500000000E+03 0.  0.
        -13    1    3    3    0    0 -0.25218363418E+01 -0.10910593552E+02  0.32660038485E+02  0.34526656196E+02  0.10566000000E+00 0.  1.
         23    2    1    0    0    0  0.29930639920E+02  0.11130726110E+02 -0.90722453652E+01  0.91802983482E+02  0.85590571154E+02 0.  0.
         13    1    3    3    0    0  0.32452476262E+02  0.22041319662E+02 -0.41732283850E+02  0.57276327286E+02  0.10566000000E+00 0. -1.
         22    1    1    0    0    0 -0.29930639920E+02 -0.11130726110E+02  0.90722453652E+01  0.33197016518E+02  0.00000000000E+00 0. -1.
</event>
<event>
 5    1  0.1319298E-009  0.9118800E+02  0.7818608E-02  0.1130116E+00
         25   -1    0    0    0    0  0.00000000000E+00  0.00000000000E+00  0.99999998245E-14  0.12500000000E+03  0.12500000000E+03 0.  0.
        -13    1    3    3    0    0  0.84857500125E+01  0.29770485382E+02  0.12401891144E+02  0.33348280633E+02  0.10566000000E+00 0. -1.
         23    2    1    0    0    0  0.92994864323E+01 -0.27905405212E+02 -0.79757824583E+01  0.94523694552E+02  0.89475827116E+02 0.  0.
         13    1    3    3    0    0  0.81373641985E+00 -0.57675890594E+02 -0.20377673602E+02  0.61175413920E+02  0.10566000000E+00 0.  1.
         22    1    1    0    0    0 -0.92994864323E+01  0.27905405212E+02  0.79757824583E+01  0.30476305448E+02  0.00000000000E+00 0.  1.
</event>
<event>
 5    1  0.1319298E-009  0.9118800E+02  0.7818608E-02  0.1130116E+00
         25   -1    0    0    0    0  0.00000000000E+00  0.00000000000E+00  0.99999998245E-14  0.12500000000E+03  0.12500000000E+03 0.  0.
        -13    1    3    3    0    0 -0.28443427162E+02 -0.79180760574E+01 -0.20047299031E+02  0.35687950903E+02  0.10566000000E+00 0.  1.
         23    2    1    0    0    0  0.23107534422E+02 -0.87124684674E+01  0.13163046333E+02  0.97015521398E+02  0.92891766855E+02 0.  0.
         13    1    3    3    0    0  0.51550961584E+02 -0.79439240999E+00  0.33210345364E+02  0.61327570495E+02  0.10566000000E+00 0. -1.
         22    1    1    0    0    0 -0.23107534422E+02  0.87124684674E+01 -0.13163046333E+02  0.27984478602E+02  0.00000000000E+00 0. -1.
</event>
<event>
 5    1  0.1319298E-009  0.9118800E+02  0.7818608E-02  0.1130116E+00
         25   -1    0    0    0    0  0.00000000000E+00  0.00000000000E+00  0.99999998245E-14  0.12500000000E+03  0.12500000000E+03 0.  0.
        -13    1    3    3    0    0 -0.51147742023E+02  0.73249585326E+01 -0.30839871814E+02  0.60173543930E+02  0.10566000000E+00 0.  1.
         23    2    1    0    0    0 -0.24462046088E+02  0.14827385896E+02 -0.10610118685E+02  0.94490695029E+02  0.89429714063E+02 0.  0.
         13    1    3    3    0    0  0.26685695935E+02  0.75024273631E+01  0.20229753129E+02  0.34317151100E+02  0.10566000000E+00 0. -1.
         22    1    1    0    0    0  0.24462046088E+02 -0.14827385896E+02  0.10610118685E+02  0.30509304971E+02  0.00000000000E+00 0.  1.
</event>
<event>
 5    1  0.1319298E-009  0.9118800E+02  0.7818608E-02  0.1130116E+00
         25   -1    0    0    0    0  0.00000000000E+00  0.00000000000E+00  0.99999998245E-14  0.12500000000E+03  0.12500000000E+03 0.  0.
        -13    1    3    3    0    0 -0.58470179306E+02 -0.13598733284E+02 -0.14200642269E+02  0.61687574274E+02  0.10566000000E+00 0.  1.
         23    2    1    0    0    0 -0.27268497538E+02 -0.10394566599E+02 -0.77183251922E+00  0.95807300601E+02  0.91251439168E+02 0.  0.
         13    1    3    3    0    0  0.31201681768E+02  0.32041666858E+01  0.13428809750E+02  0.34119726327E+02  0.10566000000E+00 0. -1.
         22    1    1    0    0    0  0.27268497538E+02  0.10394566599E+02  0.77183251922E+00  0.29192699399E+02  0.00000000000E+00 0.  1.
</event>
<event>
 5    1  0.1319298E-009  0.9118800E+02  0.7818608E-02  0.1130116E+00
         25   -1    0    0    0    0  0.00000000000E+00  0.00000000000E+00  0.99999998245E-14  0.12500000000E+03  0.12500000000E+03 0.  0.
        -13    1    3    3    0    0 -0.30057833175E+02 -0.73743616152E+01  0.28493349702E+02  0.42068238443E+02  0.10566000000E+00 0.  1.
         23    2    1    0    0    0 -0.15090648291E+02 -0.77805434415E+01 -0.23406118711E+02  0.96084417433E+02  0.91630258966E+02 0.  0.
         13    1    3    3    0    0  0.14967184885E+02 -0.40618182627E+00 -0.51899468413E+02  0.54016178990E+02  0.10566000000E+00 0. -1.
         22    1    1    0    0    0  0.15090648291E+02  0.77805434415E+01  0.23406118711E+02  0.28915582567E+02  0.00000000000E+00 0. -1.
</event>
<event>
 5    1  0.1319298E-009  0.9118800E+02  0.7818608E-02  0.1130116E+00
         25   -1    0    0    0    0  0.00000000000E+00  0.00000000000E+00  0.99999998245E-14  0.12500000000E+03  0.12500000000E+03 0.  0.
        -13    1    3    3    0    0 -0.42034359769E+01  0.73546803697E+01 -0.42209987224E+02  0.43051763992E+02  0.10566000000E+00 0.  1.
         23    2    1    0    0    0  0.13872124074E+02 -0.48078521182E+01  0.14842697300E+02  0.10412281313E+03  0.10200834909E+03 0.  0.
         13    1    3    3    0    0  0.18075560051E+02 -0.12162532488E+02  0.57052684524E+02  0.61071049141E+02  0.10566000000E+00 0. -1.
         22    1    1    0    0    0 -0.13872124074E+02  0.48078521182E+01 -0.14842697300E+02  0.20877186867E+02  0.00000000000E+00 0. -1.
</event>
<event>
 5    1  0.1319298E-009  0.9118800E+02  0.7818608E-02  0.1130116E+00
         25   -1    0    0    0    0  0.00000000000E+00  0.00000000000E+00  0.99999998245E-14  0.12500000000E+03  0.12500000000E+03 0.  0.
        -13    1    3    3    0    0  0.79794748314E+01 -0.33213349272E+02  0.21422823276E+02  0.40320554431E+02  0.10566000000E+00 0. -1.
         23    2    1    0    0    0  0.26247074108E+02  0.10870613480E+02 -0.68368947765E+01  0.95779762717E+02  0.91213708834E+02 0.  0.
         13    1    3    3    0    0  0.18267599277E+02  0.44083962752E+02 -0.28259718052E+02  0.55459208286E+02  0.10566000000E+00 0.  1.
         22    1    1    0    0    0 -0.26247074108E+02 -0.10870613480E+02  0.68368947765E+01  0.29220237283E+02  0.00000000000E+00 0.  1.
</event>
<event>
 5    1  0.1319298E-009  0.9118800E+02  0.7818608E-02  0.1130116E+00
         25   -1    0    0    0    0  0.00000000000E+00  0.00000000000E+00  0.99999998245E-14  0.12500000000E+03  0.12500000000E+03 0.  0.
        -13    1    3    3    0    0 -0.19649913812E+02  0.18682084784E+02  0.33460101061E+02  0.43066563965E+02  0.10566000000E+00 0.  1.
         23    2    1    0    0    0  0.11497829906E+02  0.27024689191E+02 -0.70038466046E+01  0.94807487920E+02  0.89871419150E+02 0.  0.
         13    1    3    3    0    0  0.31147743718E+02  0.83426044070E+01 -0.40463947666E+02  0.51740923955E+02  0.10566000000E+00 0. -1.
         22    1    1    0    0    0 -0.11497829906E+02 -0.27024689191E+02  0.70038466046E+01  0.30192512080E+02  0.00000000000E+00 0. -1.
</event>
<event>
 5    1  0.1319298E-009  0.9118800E+02  0.7818608E-02  0.1130116E+00
         25   -1    0    0    0    0  0.00000000000E+00  0.00000000000E+00  0.99999998245E-14  0.12500000000E+03  0.12500000000E+03 0.  0.
        -13    1    3    3    0    0  0.21258670754E+02 -0.24179794701E+02  0.46895518818E+02  0.56884043486E+02  0.10566000000E+00 0. -1.
         23    2    1    0    0    0  0.21038264012E+02  0.38007132972E+01  0.18925571003E+02  0.96447745938E+02  0.92124570472E+02 0.  0.
         13    1    3    3    0    0 -0.22040674277E+00  0.27980507998E+02 -0.27969947815E+02  0.39563702453E+02  0.10566000000E+00 0.  1.
         22    1    1    0    0    0 -0.21038264012E+02 -0.38007132972E+01 -0.18925571003E+02  0.28552254062E+02  0.00000000000E+00 0. -1.
</event>
<event>
 5    1  0.1319298E-009  0.9118800E+02  0.7818608E-02  0.1130116E+00
         25   -1    0    0    0    0  0.00000000000E+00  0.00000000000E+00  0.99999998245E-14  0.12500000000E+03  0.12500000000E+03 0.  0.
        -13    1    3    3    0    0 -0.16528057148E+01 -0.41091848483E+02 -0.32388840506E+02  0.52348065216E+02  0.10566000000E+00 0. -1.
         23    2    1    0    0    0 -0.24137926632E+02 -0.90088580609E+01 -0.14734265641E+02  0.95320080701E+02  0.90581566420E+02 0.  0.
         13    1    3    3    0    0 -0.22485120917E+02  0.32082990422E+02  0.17654574866E+02  0.42972015485E+02  0.10566000000E+00 0.  1.
         22    1    1    0    0    0  0.24137926632E+02  0.90088580609E+01  0.14734265641E+02  0.29679919299E+02  0.00000000000E+00 0. -1.
</event>
<event>
 5    1  0.1319298E-009  0.9118800E+02  0.7818608E-02  0.1130116E+00
         25   -1    0    0    0    0  0.00000000000E+00  0.00000000000E+00  0.99999998245E-14  0.12500000000E+03  0.12500000000E+03 0.  0.
        -13    1    3    3    0    0  0.45856162183E+02  0.34954560459E+02  0.15711737659E+01  0.57680921092E+02  0.10566000000E+00 0.  1.
         23    2    1    0    0    0  0.15919771113E+02  0.19073559679E+02  0.16979716713E+02  0.94907632683E+02  0.90010600324E+02 0.  0.
         13    1    3    3    0    0 -0.29936391069E+02 -0.15881000781E+02  0.15408542947E+02  0.37226711590E+02  0.10566000000E+00 0. -1.
         22    1    1    0    0    0 -0.15919771113E+02 -0.19073559679E+02 -0.16979716713E+02  0.30092367317E+02  0.00000000000E+00 0.  1.
</event>
<event>
 5    1  0.1319298E-009  0.9118800E+02  0.7818608E-02  0.1130116E+00
         25   -1    0    0    0    0  0.00000000000E+00  0.00000000000E+00  0.99999998245E-14  0.12500000000E+03  0.12500000000E+03 0.  0.
        -13    1    3    3    0    0 -0.41961539710E+02 -0.89197450810E+01  0.34487745978E+02  0.55043150835E+02  0.10566000000E+00 0.  1.
         23    2    1    0    0    0 -0.21421228261E+02  0.16625813990E+02  0.94737897151E+01  0.96276500864E+02  0.91891921386E+02 0.  0.
         13    1    3    3    0    0  0.20540311449E+02  0.25545559071E+02 -0.25013956263E+02  0.41233350029E+02  0.10566000000E+00 0. -1.
         22    1    1    0    0    0  0.21421228261E+02 -0.16625813990E+02 -0.94737897151E+01  0.28723499136E+02  0.00000000000E+00 0.  1.
</event>
<event>
 5    1  0.1319298E-009  0.9118800E+02  0.7818608E-02  0.1130116E+00
         25   -1    0    0    0    0  0.00000000000E+00  0.00000000000E+00  0.99999998245E-14  0.12500000000E+03  0.12500000000E+03 0.  0.
        -13    1    3    3    0    0  0.59152851796E+01 -0.23559288027E+02 -0.26636993610E+02  0.36049566484E+02  0.10566000000E+00 0.  1.
         23    2    1    0    0    0 -0.12873841356E+02  0.23823401506E+02  0.68878658246E+01  0.97058401152E+02  0.92949450175E+02 0.  0.
         13    1    3    3    0    0 -0.18789126535E+02  0.47382689533E+02  0.33524859435E+02  0.61008834667E+02  0.10566000000E+00 0. -1.
         22    1    1    0    0    0  0.12873841356E+02 -0.23823401506E+02 -0.68878658246E+01  0.27941598848E+02  0.00000000000E+00 0. -1.
</event>
<event>
 5    1  0.1319298E-009  0.9118800E+02  0.7818608E-02  0.1130116E+00
         25   -1    0    0    0    0  0.00000000000E+00  0.00000000000E+00  0.99999998245E-14  0.12500000000E+03  0.12500000000E+03 0.  0.
        -13    1    3    3    0    0  0.20053938144E+02 -0.11283516915E+02  0.27666461214E+02  0.35985030626E+02  0.10566000000E+00 0.  1.
         23    2    1    0    0    0 -0.18767187060E+02 -0.18139338761E+02 -0.15659816445E+02  0.94561984757E+02  0.89529303522E+02 0.  0.
         13    1    3    3    0    0 -0.38821125205E+02 -0.68558218464E+01 -0.43326277659E+02  0.58576954130E+02  0.10566000000E+00 0. -1.
         22    1    1    0    0    0  0.18767187060E+02  0.18139338761E+02  0.15659816445E+02  0.30438015243E+02  0.00000000000E+00 0. -1.
</event>
<event>
 5    1  0.1319298E-009  0.9118800E+02  0.7818608E-02  0.1130116E+00
         25   -1    0    0    0    0  0.00000000000E+00  0.00000000000E+00  0.99999998245E-14  0.12500000000E+03  0.12500000000E+03 0.  0.
        -13    1    3    3    0    0  0.20110114041E+02  0.29364451969E+02  0.71166449977E+01  0.36295254872E+02  0.10566000000E+00 0.  1.
         23    2    1    0    0    0  0.69690222872E+01 -0.16123688730E+02 -0.25675941473E+02  0.93890603020E+02  0.88586967185E+02 0.  0.
         13    1    3    3    0    0 -0.13141091754E+02 -0.45488140700E+02 -0.32792586471E+02  0.57595348148E+02  0.10566000000E+00 0. -1.
         22    1    1    0    0    0 -0.69690222872E+01  0.16123688730E+02  0.25675941473E+02  0.31109396980E+02  0.00000000000E+00 0. -1.
</event>
<event>
 5    1  0.1319298E-009  0.9118800E+02  0.7818608E-02  0.1130116E+00
         25   -1    0    0    0    0  0.00000000000E+00  0.00000000000E+00  0.99999998245E-14  0.12500000000E+03  0.12500000000E+03 0.  0.
        -13    1    3    3    0    0  0.32534455421E+02 -0.26868899512E+02  0.17507227048E+02  0.45683068127E+02  0.10566000000E+00 0.  1.
         23    2    1    0    0    0 -0.58833712189E+01 -0.26194545236E+02 -0.13399699807E+02  0.94994663609E+02  0.90131381341E+02 0.  0.
         13    1    3    3    0    0 -0.38417826640E+02  0.67435427607E+00 -0.30906926855E+02  0.49311595483E+02  0.10566000000E+00 0. -1.
         22    1    1    0    0    0  0.58833712189E+01  0.26194545236E+02  0.13399699807E+02  0.30005336391E+02  0.00000000000E+00 0.  1.
</event>
<event>
 5    1  0.1319298E-009  0.9118800E+02  0.7818608E-02  0.1130116E+00
         25   -1    0    0    0    0  0.00000000000E+00  0.00000000000E+00  0.99999998245E-14  0.12500000000E+03  0.12500000000E+03 0.  0.
        -13    1    3    3    0    0 -0.39698936177E+02 -0.10731114511E+02  0.71042391095E+01  0.41733005278E+02  0.10566000000E+00 0. -1.
         23    2    1    0    0    0  0.13879950943E+02 -0.21638584786E+02  0.11999696782E+02  0.96629696642E+02  0.92371121897E+02 0.  0.
         13    1    3    3    0    0  0.53578887120E+02 -0.10907470275E+02  0.48954576727E+01  0.54896691364E+02  0.10566000000E+00 0.  1.
         22    1    1    0    0    0 -0.13879950943E+02  0.21638584786E+02 -0.11999696782E+02  0.28370303358E+02  0.00000000000E+00 0.  1.
</event>
<event>
 5    1  0.1319298E-009  0.9118800E+02  0.7818608E-02  0.1130116E+00
         25   -1    0    0    0    0  0.00000000000E+00  0.00000000000E+00  0.99999998245E-14  0.12500000000E+03  0.12500000000E+03 0.  0.
        -13    1    3    3    0    0  0.17657276989E+02  0.60153969644E+01 -0.34087762632E+02  0.38858089976E+02  0.10566000000E+00 0.  1.
         23    2    1    0    0    0  0.14351181869E+02 -0.26604348627E+02  0.94211940510E+01  0.93337614047E+02  0.87803209006E+02 0.  0.
         13    1    3    3    0    0 -0.33060951193E+01 -0.32619745591E+02  0.43508956683E+02  0.54479524071E+02  0.10566000000E+00 0. -1.
         22    1    1    0    0    0 -0.14351181869E+02  0.26604348627E+02 -0.94211940510E+01  0.31662385953E+02  0.00000000000E+00 0. -1.
</event>
<event>
 5    1  0.1319298E-009  0.9118800E+02  0.7818608E-02  0.1130116E+00
         25   -1    0    0    0    0  0.00000000000E+00  0.00000000000E+00  0.99999998245E-14  0.12500000000E+03  0.12500000000E+03 0.  0.
        -13    1    3    3    0    0  0.25980331205E+02 -0.33104275879E+02 -0.13428622510E+01  0.42103267499E+02  0.10566000000E+00 0.  1.
         23    2    1    0    0    0  0.18565155595E+02  0.20401066500E+02  0.64304117271E+01  0.96676534259E+02  0.92434482552E+02 0.  0.
         13    1    3    3    0    0 -0.74151756094E+01  0.53505342380E+02  0.77732739781E+01  0.54573266760E+02  0.10566000000E+00 0. -1.
         22    1    1    0    0    0 -0.18565155595E+02 -0.20401066500E+02 -0.64304117271E+01  0.28323465741E+02  0.00000000000E+00 0. -1.
</event>
<event>
 5    1  0.1319298E-009  0.9118800E+02  0.7818608E-02  0.1130116E+00
         25   -1    0    0    0    0  0.00000000000E+00  0.00000000000E+00  0.99999998245E-14  0.12500000000E+03  0.12500000000E+03 0.  0.
        -13    1    3    3    0    0 -0.47583874220E+02 -0.19548639003E+02  0.61260513528E+01  0.51806505787E+02  0.10566000000E+00 0. -1.
         23    2    1    0    0    0 -0.59672297369E+01 -0.14001565158E+02  0.23301109741E+02  0.97168482385E+02  0.93097371586E+02 0.  0.
         13    1    3    3    0    0  0.41616644483E+02  0.55470738448E+01  0.17175058388E+02  0.45361976598E+02  0.10566000000E+00 0.  1.
         22    1    1    0    0    0  0.59672297369E+01  0.14001565158E+02 -0.23301109741E+02  0.27831517615E+02  0.00000000000E+00 0.  1.
</event>
<event>
 5    1  0.1319298E-009  0.9118800E+02  0.7818608E-02  0.1130116E+00
         25   -1    0    0    0    0  0.00000000000E+00  0.00000000000E+00  0.99999998245E-14  0.12500000000E+03  0.12500000000E+03 0.  0.
        -13    1    3    3    0    0  0.36328024419E+01 -0.41349164774E+02  0.25233221115E+02  0.48576509682E+02  0.10566000000E+00 0.  1.
         23    2    1    0    0    0  0.27605813537E+02 -0.10733554895E+02 -0.79781662020E+00  0.95370172915E+02  0.90650665904E+02 0.  0.
         13    1    3    3    0    0  0.23973011095E+02  0.30615609878E+02 -0.26031037735E+02  0.46793663233E+02  0.10566000000E+00 0. -1.
         22    1    1    0    0    0 -0.27605813537E+02  0.10733554895E+02  0.79781662020E+00  0.29629827085E+02  0.00000000000E+00 0.  1.
</event>
<event>
 5    1  0.1319298E-009  0.9118800E+02  0.7818608E-02  0.1130116E+00
         25   -1    0    0    0    0  0.00000000000E+00  0.00000000000E+00  0.99999998245E-14  0.12500000000E+03  0.12500000000E+03 0.  0.
        -13    1    3    3    0    0  0.58405437395E+00 -0.32888798565E+02  0.49723216864E+02  0.59618987327E+02  0.10566000000E+00 0. -1.
         23    2    1    0    0    0 -0.12569027561E+02 -0.17201321100E+02  0.19527716307E+02  0.96100214437E+02  0.91651806361E+02 0.  0.
         13    1    3    3    0    0 -0.13153081934E+02  0.15687477465E+02 -0.30195500557E+02  0.36481227110E+02  0.10566000000E+00 0.  1.
         22    1    1    0    0    0  0.12569027561E+02  0.17201321100E+02 -0.19527716307E+02  0.28899785563E+02  0.00000000000E+00 0. -1.
</event>
<event>
 5    1  0.1319298E-009  0.9118800E+02  0.7818608E-02  0.1130116E+00
         25   -1    0    0    0    0  0.00000000000E+00  0.00000000000E+00  0.99999998245E-14  0.12500000000E+03  0.12500000000E+03 0.  0.
        -13    1    3    3    0    0  0.24919003859E+01  0.20098833940E+02 -0.37698829639E+02  0.42794691417E+02  0.10566000000E+00 0. -1.
         23    2    1    0    0    0 -0.71078900194E+01 -0.25441834997E+02 -0.11661859014E+02  0.96124265824E+02  0.91684603157E+02 0.  0.
         13    1    3    3    0    0 -0.95997904053E+01 -0.45540668937E+02  0.26036970626E+02  0.53329574407E+02  0.10566000000E+00 0.  1.
         22    1    1    0    0    0  0.71078900194E+01  0.25441834997E+02  0.11661859014E+02  0.28875734176E+02  0.00000000000E+00 0. -1.
</event>
<event>
 5    1  0.1319298E-009  0.9118800E+02  0.7818608E-02  0.1130116E+00
         25   -1    0    0    0    0  0.00000000000E+00  0.00000000000E+00  0.99999998245E-14  0.12500000000E+03  0.12500000000E+03 0.  0.
        -13    1    3    3    0    0  0.32327730378E+02  0.21105889588E+02 -0.46762703229E+02  0.60640764375E+02  0.10566000000E+00 0.  1.
         23    2    1    0    0    0  0.13188416316E+02  0.19424262942E+02 -0.17212313902E+02  0.95888145617E+02  0.91362116899E+02 0.  0.
         13    1    3    3    0    0 -0.19139314062E+02 -0.16816266459E+01  0.29550389327E+02  0.35247381241E+02  0.10566000000E+00 0. -1.
         22    1    1    0    0    0 -0.13188416316E+02 -0.19424262942E+02  0.17212313902E+02  0.29111854383E+02  0.00000000000E+00 0.  1.
</event>
<event>
 5    1  0.1319298E-009  0.9118800E+02  0.7818608E-02  0.1130116E+00
         25   -1    0    0    0    0  0.00000000000E+00  0.00000000000E+00  0.99999998245E-14  0.12500000000E+03  0.12500000000E+03 0.  0.
        -13    1    3    3    0    0  0.24960269130E+02  0.14341693652E+02  0.99977610470E+01  0.30474015190E+02  0.10566000000E+00 0.  1.
         23    2    1    0    0    0 -0.20571975723E+02 -0.11891735470E+02 -0.22513158871E+02  0.92266807672E+02  0.86265299618E+02 0.  0.
         13    1    3    3    0    0 -0.45532244852E+02 -0.26233429122E+02 -0.32510919918E+02  0.61792792482E+02  0.10566000000E+00 0. -1.
         22    1    1    0    0    0  0.20571975723E+02  0.11891735470E+02  0.22513158871E+02  0.32733192328E+02  0.00000000000E+00 0. -1.
</event>
<event>
 5    1  0.1319298E-009  0.9118800E+02  0.7818608E-02  0.1130116E+00
         25   -1    0    0    0    0  0.00000000000E+00  0.00000000000E+00  0.99999998245E-14  0.12500000000E+03  0.12500000000E+03 0.  0.
        -13    1    3    3    0    0 -0.13752073538E+01 -0.37120289236E+02  0.69128182096E+01  0.37783664299E+02  0.10566000000E+00 0. -1.
         23    2    1    0    0    0  0.16442216062E+02  0.74024913405E+01 -0.24105463818E+02  0.94896566093E+02  0.89995230559E+02 0.  0.
         13    1    3    3    0    0  0.17817423416E+02  0.44522780576E+02 -0.31018282028E+02  0.57112901795E+02  0.10566000000E+00 0.  1.
         22    1    1    0    0    0 -0.16442216062E+02 -0.74024913405E+01  0.24105463818E+02  0.30103433907E+02  0.00000000000E+00 0.  1.
</event>
<event>
 5    1  0.1319298E-009  0.9118800E+02  0.7818608E-02  0.1130116E+00
         25   -1    0    0    0    0  0.00000000000E+00  0.00000000000E+00  0.99999998245E-14  0.12500000000E+03  0.12500000000E+03 0.  0.
        -13    1    3    3    0    0 -0.16022577294E+02 -0.24936700142E+02  0.17721204093E+02  0.34534247286E+02  0.10566000000E+00 0.  1.
         23    2    1    0    0    0  0.19456653157E+02  0.18380616781E+02 -0.92456075268E+01  0.96682343249E+02  0.92442337769E+02 0.  0.
         13    1    3    3    0    0  0.35479230451E+02  0.43317316923E+02 -0.26966811620E+02  0.62148095963E+02  0.10566000000E+00 0. -1.
         22    1    1    0    0    0 -0.19456653157E+02 -0.18380616781E+02  0.92456075268E+01  0.28317656751E+02  0.00000000000E+00 0. -1.
</event>
<event>
 5    1  0.1319298E-009  0.9118800E+02  0.7818608E-02  0.1130116E+00
         25   -1    0    0    0    0  0.00000000000E+00  0.00000000000E+00  0.99999998245E-14  0.12500000000E+03  0.12500000000E+03 0.  0.
        -13    1    3    3    0    0  0.30942388386E+02 -0.16173738326E+02 -0.45797025698E+02  0.57588192690E+02  0.10566000000E+00 0. -1.
         23    2    1    0    0    0  0.22257516616E+02 -0.86005710243E+00 -0.47872108887E+01  0.10221724046E+03  0.99645923726E+02 0.  0.
         13    1    3    3    0    0 -0.86848717700E+01  0.15313681223E+02  0.41009814809E+02  0.44629047771E+02  0.10566000000E+00 0.  1.
         22    1    1    0    0    0 -0.22257516616E+02  0.86005710243E+00  0.47872108887E+01  0.22782759539E+02  0.00000000000E+00 0. -1.
</event>
<event>
 5    1  0.1319298E-009  0.9118800E+02  0.7818608E-02  0.1130116E+00
         25   -1    0    0    0    0  0.00000000000E+00  0.00000000000E+00  0.99999998245E-14  0.12500000000E+03  0.12500000000E+03 0.  0.
        -13    1    3    3    0    0  0.13748678930E+02  0.47485336343E+02  0.16630319030E+02  0.52158048420E+02  0.10566000000E+00 0.  1.
         23    2    1    0    0    0  0.15227058866E+02  0.19623119850E+02 -0.16278368360E+02  0.95302939020E+02  0.90557908297E+02 0.  0.
         13    1    3    3    0    0  0.14783799366E+01 -0.27862216493E+02 -0.32908687390E+02  0.43144890600E+02  0.10566000000E+00 0. -1.
         22    1    1    0    0    0 -0.15227058866E+02 -0.19623119850E+02  0.16278368360E+02  0.29697060980E+02  0.00000000000E+00 0.  1.
</event>
<event>
 5    1  0.1319298E-009  0.9118800E+02  0.7818608E-02  0.1130116E+00
         25   -1    0    0    0    0  0.00000000000E+00  0.00000000000E+00  0.99999998245E-14  0.12500000000E+03  0.12500000000E+03 0.  0.
        -13    1    3    3    0    0 -0.36671378779E+02  0.21997919038E+02 -0.15373150264E+02  0.45442748340E+02  0.10566000000E+00 0.  1.
         23    2    1    0    0    0  0.10917684508E+02  0.88765211233E+01  0.15812673217E+02  0.10383330218E+03  0.10165296624E+03 0.  0.
         13    1    3    3    0    0  0.47589063287E+02 -0.13121397915E+02  0.31185823481E+02  0.58390553842E+02  0.10566000000E+00 0. -1.
         22    1    1    0    0    0 -0.10917684508E+02 -0.88765211233E+01 -0.15812673217E+02  0.21166697818E+02  0.00000000000E+00 0. -1.
</event>
<event>
 5    1  0.1319298E-009  0.9118800E+02  0.7818608E-02  0.1130116E+00
         25   -1    0    0    0    0  0.00000000000E+00  0.00000000000E+00  0.99999998245E-14  0.12500000000E+03  0.12500000000E+03 0.  0.
        -13    1    3    3    0    0 -0.88242593889E+01  0.21019234269E+02  0.47810406262E+02  0.52967177327E+02  0.10566000000E+00 0.  1.
         23    2    1    0    0    0  0.66982962416E+01 -0.12380684987E+02  0.25057471326E+02  0.96259342344E+02  0.91868577794E+02 0.  0.
         13    1    3    3    0    0  0.15522555630E+02 -0.33399919256E+02 -0.22752934936E+02  0.43292165017E+02  0.10566000000E+00 0. -1.
         22    1    1    0    0    0 -0.66982962416E+01  0.12380684987E+02 -0.25057471326E+02  0.28740657656E+02  0.00000000000E+00 0.  1.
</event>
<event>
 5    1  0.1319298E-009  0.9118800E+02  0.7818608E-02  0.1130116E+00
         25   -1    0    0    0    0  0.00000000000E+00  0.00000000000E+00  0.99999998245E-14  0.12500000000E+03  0.12500000000E+03 0.  0.
        -13    1    3    3    0    0 -0.35823934391E+02  0.21476772260E+02 -0.39104472469E+02  0.57216928903E+02  0.10566000000E+00 0. -1.
         23    2    1    0    0    0  0.24396818559E+01  0.15271955151E+02 -0.17691637574E+02  0.10150151703E+03  0.98744008721E+02 0.  0.
         13    1    3    3    0    0  0.38263616247E+02 -0.62048171091E+01  0.21412834894E+02  0.44284588131E+02  0.10566000000E+00 0.  1.
         22    1    1    0    0    0 -0.24396818559E+01 -0.15271955151E+02  0.17691637574E+02  0.23498482967E+02  0.00000000000E+00 0. -1.
</event>
<event>
 5    1  0.1319298E-009  0.9118800E+02  0.7818608E-02  0.1130116E+00
         25   -1    0    0    0    0  0.00000000000E+00  0.00000000000E+00  0.99999998245E-14  0.12500000000E+03  0.12500000000E+03 0.  0.
        -13    1    3    3    0    0 -0.52715788704E+01 -0.49431393146E+02  0.30612430016E+02  0.58381368669E+02  0.10566000000E+00 0.  1.
         23    2    1    0    0    0 -0.15687860928E+02 -0.23963668934E+02  0.50945170597E+01  0.95908411639E+02  0.91389840299E+02 0.  0.
         13    1    3    3    0    0 -0.10416282057E+02  0.25467724212E+02 -0.25517912956E+02  0.37527042970E+02  0.10566000000E+00 0. -1.
         22    1    1    0    0    0  0.15687860928E+02  0.23963668934E+02 -0.50945170597E+01  0.29091588361E+02  0.00000000000E+00 0.  1.
</event>
<event>
 5    1  0.1319298E-009  0.9118800E+02  0.7818608E-02  0.1130116E+00
         25   -1    0    0    0    0  0.00000000000E+00  0.00000000000E+00  0.99999998245E-14  0.12500000000E+03  0.12500000000E+03 0.  0.
        -13    1    3    3    0    0 -0.19632327078E+02 -0.39583284288E+02 -0.37606299438E+02  0.58021630302E+02  0.10566000000E+00 0.  1.
         23    2    1    0    0    0 -0.12459380394E+02 -0.26876316733E+02 -0.34356071111E+01  0.95177593036E+02  0.90384723593E+02 0.  0.
         13    1    3    3    0    0  0.71729466835E+01  0.12706967555E+02  0.34170692326E+02  0.37155962734E+02  0.10566000000E+00 0. -1.
         22    1    1    0    0    0  0.12459380394E+02  0.26876316733E+02  0.34356071111E+01  0.29822406964E+02  0.00000000000E+00 0.  1.
</event>
<event>
 5    1  0.1319298E-009  0.9118800E+02  0.7818608E-02  0.1130116E+00
         25   -1    0    0    0    0  0.00000000000E+00  0.00000000000E+00  0.99999998245E-14  0.12500000000E+03  0.12500000000E+03 0.  0.
        -13    1    3    3    0    0  0.40280537501E+02  0.92249661805E+01  0.10751543341E+00  0.41323654557E+02  0.10566000000E+00 0. -1.
         23    2    1    0    0    0 -0.27632817694E+01 -0.10804434707E+02 -0.26854888006E+02  0.95921544998E+02  0.91407801907E+02 0.  0.
         13    1    3    3    0    0 -0.43043819270E+02 -0.20029400887E+02 -0.26962403440E+02  0.54597890440E+02  0.10566000000E+00 0.  1.
         22    1    1    0    0    0  0.27632817694E+01  0.10804434707E+02  0.26854888006E+02  0.29078455002E+02  0.00000000000E+00 0.  1.
</event>
<event>
 5    1  0.1319298E-009  0.9118800E+02  0.7818608E-02  0.1130116E+00
         25   -1    0    0    0    0  0.00000000000E+00  0.00000000000E+00  0.99999998245E-14  0.12500000000E+03  0.12500000000E+03 0.  0.
        -13    1    3    3    0    0 -0.13961067850E+02  0.49731909341E+02 -0.19601244661E+02  0.55248476708E+02  0.10566000000E+00 0. -1.
         23    2    1    0    0    0  0.10849828498E+02  0.27816773463E+02  0.24773454094E+01  0.95039544319E+02  0.90193603320E+02 0.  0.
         13    1    3    3    0    0  0.24810896348E+02 -0.21915135878E+02  0.22078590070E+02  0.39791067612E+02  0.10566000000E+00 0.  1.
         22    1    1    0    0    0 -0.10849828498E+02 -0.27816773463E+02 -0.24773454094E+01  0.29960455681E+02  0.00000000000E+00 0. -1.
</event>
<event>
 5    1  0.1319298E-009  0.9118800E+02  0.7818608E-02  0.1130116E+00
         25   -1    0    0    0    0  0.00000000000E+00  0.00000000000E+00  0.99999998245E-14  0.12500000000E+03  0.12500000000E+03 0.  0.
        -13    1    3    3    0    0 -0.28537157270E+02  0.26572063095E+02 -0.21237524879E+02  0.44401435892E+02  0.10566000000E+00 0.  1.
         23    2    1    0    0    0 -0.21234894974E+02 -0.95518966297E+01  0.15964730479E+02  0.96768242827E+02  0.92558417807E+02 0.  0.
         13    1    3    3    0    0  0.73022622966E+01 -0.36123959725E+02  0.37202255359E+02  0.52366806936E+02  0.10566000000E+00 0. -1.
         22    1    1    0    0    0  0.21234894974E+02  0.95518966297E+01 -0.15964730479E+02  0.28231757173E+02  0.00000000000E+00 0.  1.
</event>
<event>
 5    1  0.1319298E-009  0.9118800E+02  0.7818608E-02  0.1130116E+00
         25   -1    0    0    0    0  0.00000000000E+00  0.00000000000E+00  0.99999998245E-14  0.12500000000E+03  0.12500000000E+03 0.  0.
        -13    1    3    3    0    0  0.88984386364E+01 -0.35917551953E+01 -0.58874855521E+02  0.59651845673E+02  0.10566000000E+00 0. -1.
         23    2    1    0    0    0 -0.21152062962E+01  0.10126344984E+02 -0.27440296649E+02  0.95674467770E+02  0.91069297474E+02 0.  0.
         13    1    3    3    0    0 -0.11013644933E+02  0.13718100179E+02  0.31434558872E+02  0.36022622097E+02  0.10566000000E+00 0.  1.
         22    1    1    0    0    0  0.21152062962E+01 -0.10126344984E+02  0.27440296649E+02  0.29325532230E+02  0.00000000000E+00 0. -1.
</event>
<event>
 5    1  0.1319298E-009  0.9118800E+02  0.7818608E-02  0.1130116E+00
         25   -1    0    0    0    0  0.00000000000E+00  0.00000000000E+00  0.99999998245E-14  0.12500000000E+03  0.12500000000E+03 0.  0.
        -13    1    3    3    0    0 -0.40567865423E+02 -0.76695737477E+00  0.27569260823E+01  0.40668805417E+02  0.10566000000E+00 0.  1.
         23    2    1    0    0    0  0.62323730228E+01 -0.25430347442E+02 -0.12863068768E+02  0.95828034303E+02  0.91279836633E+02 0.  0.
         13    1    3    3    0    0  0.46800238446E+02 -0.24663390067E+02 -0.15619994850E+02  0.55159228886E+02  0.10566000000E+00 0. -1.
         22    1    1    0    0    0 -0.62323730228E+01  0.25430347442E+02  0.12863068768E+02  0.29171965697E+02  0.00000000000E+00 0. -1.
</event>
<event>
 5    1  0.1319298E-009  0.9118800E+02  0.7818608E-02  0.1130116E+00
         25   -1    0    0    0    0  0.00000000000E+00  0.00000000000E+00  0.99999998245E-14  0.12500000000E+03  0.12500000000E+03 0.  0.
        -13    1    3    3    0    0  0.29202193245E+02 -0.16089766315E+02  0.69091614703E+01  0.34049909642E+02  0.10566000000E+00 0.  1.
         23    2    1    0    0    0 -0.11535306142E+02  0.23909565083E+02 -0.14168921594E+02  0.94908656904E+02  0.90012022674E+02 0.  0.
         13    1    3    3    0    0 -0.40737499387E+02  0.39999331398E+02 -0.21078083064E+02  0.60858747261E+02  0.10566000000E+00 0. -1.
         22    1    1    0    0    0  0.11535306142E+02 -0.23909565083E+02  0.14168921594E+02  0.30091343096E+02  0.00000000000E+00 0. -1.
</event>
<event>
 5    1  0.1319298E-009  0.9118800E+02  0.7818608E-02  0.1130116E+00
         25   -1    0    0    0    0  0.00000000000E+00  0.00000000000E+00  0.99999998245E-14  0.12500000000E+03  0.12500000000E+03 0.  0.
        -13    1    3    3    0    0  0.31386021225E+02  0.10974347365E+01 -0.84551806925E+01  0.32523651946E+02  0.10566000000E+00 0. -1.
         23    2    1    0    0    0 -0.29550891686E+02 -0.26484914623E+00  0.52182597795E+01  0.94990741768E+02  0.90125942114E+02 0.  0.
         13    1    3    3    0    0 -0.60936912911E+02 -0.13622838827E+01  0.13673440472E+02  0.62467089822E+02  0.10566000000E+00 0.  1.
         22    1    1    0    0    0  0.29550891686E+02  0.26484914623E+00 -0.52182597795E+01  0.30009258232E+02  0.00000000000E+00 0.  1.
</event>
<event>
 5    1  0.1319298E-009  0.9118800E+02  0.7818608E-02  0.1130116E+00
         25   -1    0    0    0    0  0.00000000000E+00  0.00000000000E+00  0.99999998245E-14  0.12500000000E+03  0.12500000000E+03 0.  0.
        -13    1    3    3    0    0  0.17385878305E+02  0.40993644463E+02  0.32137426733E+01  0.44644002473E+02  0.10566000000E+00 0.  1.
         23    2    1    0    0    0 -0.23311421029E+02  0.10764239228E+02 -0.10651029800E+02  0.97201877179E+02  0.93142199324E+02 0.  0.
         13    1    3    3    0    0 -0.40697299334E+02 -0.30229405234E+02 -0.13864772473E+02  0.52557874707E+02  0.10566000000E+00 0. -1.
         22    1    1    0    0    0  0.23311421029E+02 -0.10764239228E+02  0.10651029800E+02  0.27798122821E+02  0.00000000000E+00 0. -1.
</event>
<event>
 5    1  0.1319298E-009  0.9118800E+02  0.7818608E-02  0.1130116E+00
         25   -1    0    0    0    0  0.00000000000E+00  0.00000000000E+00  0.99999998245E-14  0.12500000000E+03  0.12500000000E+03 0.  0.
        -13    1    3    3    0    0 -0.28646603649E+02  0.31345312657E+01  0.23198420494E+02  0.36995014047E+02  0.10566000000E+00 0.  1.
         23    2    1    0    0    0  0.14803133573E+02  0.21785988708E+02 -0.12112738232E+02  0.96008958365E+02  0.91527261465E+02 0.  0.
         13    1    3    3    0    0  0.43449737222E+02  0.18651457443E+02 -0.35311158726E+02  0.59013944318E+02  0.10566000000E+00 0. -1.
         22    1    1    0    0    0 -0.14803133573E+02 -0.21785988708E+02  0.12112738232E+02  0.28991041635E+02  0.00000000000E+00 0. -1.
</event>
<event>
 5    1  0.1319298E-009  0.9118800E+02  0.7818608E-02  0.1130116E+00
         25   -1    0    0    0    0  0.00000000000E+00  0.00000000000E+00  0.99999998245E-14  0.12500000000E+03  0.12500000000E+03 0.  0.
        -13    1    3    3    0    0  0.13298539345E+02  0.26589123205E+02 -0.22915694254E+02  0.37536286826E+02  0.10566000000E+00 0. -1.
         23    2    1    0    0    0 -0.26693829423E+02  0.20418044468E+01  0.11635091074E+02  0.95809165154E+02  0.91253993275E+02 0.  0.
         13    1    3    3    0    0 -0.39992368768E+02 -0.24547318758E+02  0.34550785328E+02  0.58272878329E+02  0.10566000000E+00 0.  1.
         22    1    1    0    0    0  0.26693829423E+02 -0.20418044468E+01 -0.11635091074E+02  0.29190834846E+02  0.00000000000E+00 0. -1.
</event>
<event>
 5    1  0.1319298E-009  0.9118800E+02  0.7818608E-02  0.1130116E+00
         25   -1    0    0    0    0  0.00000000000E+00  0.00000000000E+00  0.99999998245E-14  0.12500000000E+03  0.12500000000E+03 0.  0.
        -13    1    3    3    0    0 -0.16064792529E+02 -0.45375112052E+02 -0.25221785226E+02  0.54342690095E+02  0.10566000000E+00 0. -1.
         23    2    1    0    0    0 -0.31729666632E+01 -0.27157711830E+02  0.98704338113E+01  0.95930523003E+02  0.91420078488E+02 0.  0.
         13    1    3    3    0    0  0.12891825866E+02  0.18217400222E+02  0.35092219037E+02  0.41587832908E+02  0.10566000000E+00 0.  1.
         22    1    1    0    0    0  0.31729666632E+01  0.27157711830E+02 -0.98704338113E+01  0.29069476997E+02  0.00000000000E+00 0. -1.
</event>
<event>
 5    1  0.1319298E-009  0.9118800E+02  0.7818608E-02  0.1130116E+00
         25   -1    0    0    0    0  0.00000000000E+00  0.00000000000E+00  0.99999998245E-14  0.12500000000E+03  0.12500000000E+03 0.  0.
        -13    1    3    3    0    0  0.18770262987E+02  0.18150210315E+01  0.28259676565E+02  0.33974071842E+02  0.10566000000E+00 0.  1.
         23    2    1    0    0    0 -0.22568187550E+02 -0.15306163987E+02 -0.12957611654E+02  0.94808917789E+02  0.89873407898E+02 0.  0.
         13    1    3    3    0    0 -0.41338450537E+02 -0.17121185018E+02 -0.41217288219E+02  0.60834845947E+02  0.10566000000E+00 0. -1.
         22    1    1    0    0    0  0.22568187550E+02  0.15306163987E+02  0.12957611654E+02  0.30191082211E+02  0.00000000000E+00 0. -1.
</event>
<event>
 5    1  0.1319298E-009  0.9118800E+02  0.7818608E-02  0.1130116E+00
         25   -1    0    0    0    0  0.00000000000E+00  0.00000000000E+00  0.99999998245E-14  0.12500000000E+03  0.12500000000E+03 0.  0.
        -13    1    3    3    0    0  0.23673164901E+02  0.49020705400E+02 -0.25882848008E+02  0.60277535445E+02  0.10566000000E+00 0. -1.
         23    2    1    0    0    0  0.12499452520E+02  0.15867307112E+02 -0.21438665929E+02  0.95544539639E+02  0.90890785615E+02 0.  0.
         13    1    3    3    0    0 -0.11173712381E+02 -0.33153398288E+02  0.44441820796E+01  0.35267004194E+02  0.10566000000E+00 0.  1.
         22    1    1    0    0    0 -0.12499452520E+02 -0.15867307112E+02  0.21438665929E+02  0.29455460361E+02  0.00000000000E+00 0. -1.
</event>
<event>
 5    1  0.1319298E-009  0.9118800E+02  0.7818608E-02  0.1130116E+00
         25   -1    0    0    0    0  0.00000000000E+00  0.00000000000E+00  0.99999998245E-14  0.12500000000E+03  0.12500000000E+03 0.  0.
        -13    1    3    3    0    0 -0.35790956573E+02 -0.62025692550E+01 -0.39188492527E+02  0.53434198304E+02  0.10566000000E+00 0. -1.
         23    2    1    0    0    0  0.52456437965E+01  0.73612005345E+01 -0.24179252468E+02  0.99186431822E+02  0.95768512339E+02 0.  0.
         13    1    3    3    0    0  0.41036600369E+02  0.13563769789E+02  0.15009240059E+02  0.45752233519E+02  0.10566000000E+00 0.  1.
         22    1    1    0    0    0 -0.52456437965E+01 -0.73612005345E+01  0.24179252468E+02  0.25813568178E+02  0.00000000000E+00 0. -1.
</event>
<event>
 5    1  0.1319298E-009  0.9118800E+02  0.7818608E-02  0.1130116E+00
         25   -1    0    0    0    0  0.00000000000E+00  0.00000000000E+00  0.99999998245E-14  0.12500000000E+03  0.12500000000E+03 0.  0.
        -13    1    3    3    0    0  0.29042726306E+02 -0.40158340445E+01 -0.27421993077E+02  0.40144535652E+02  0.10566000000E+00 0.  1.
         23    2    1    0    0    0 -0.17922459157E+02  0.18129598626E+02  0.12818486830E+01  0.99474717933E+02  0.96144055891E+02 0.  0.
         13    1    3    3    0    0 -0.46965185463E+02  0.22145432670E+02  0.28703841760E+02  0.59330182281E+02  0.10566000000E+00 0. -1.
         22    1    1    0    0    0  0.17922459157E+02 -0.18129598626E+02 -0.12818486830E+01  0.25525282067E+02  0.00000000000E+00 0. -1.
</event>
<event>
 5    1  0.1319298E-009  0.9118800E+02  0.7818608E-02  0.1130116E+00
         25   -1    0    0    0    0  0.00000000000E+00  0.00000000000E+00  0.99999998245E-14  0.12500000000E+03  0.12500000000E+03 0.  0.
        -13    1    3    3    0    0  0.29537946003E+02 -0.28026021590E+02  0.26908343923E+02  0.48805924609E+02  0.10566000000E+00 0. -1.
         23    2    1    0    0    0 -0.28568458573E+01  0.60565663625E+00  0.32472164548E+02  0.92396781468E+02  0.86453428891E+02 0.  0.
         13    1    3    3    0    0 -0.32394791860E+02  0.28631678226E+02  0.55638206245E+01  0.43590856859E+02  0.10566000000E+00 0.  1.
         22    1    1    0    0    0  0.28568458573E+01 -0.60565663625E+00 -0.32472164548E+02  0.32603218532E+02  0.00000000000E+00 0. -1.
</event>
<event>
 5    1  0.1319298E-009  0.9118800E+02  0.7818608E-02  0.1130116E+00
         25   -1    0    0    0    0  0.00000000000E+00  0.00000000000E+00  0.99999998245E-14  0.12500000000E+03  0.12500000000E+03 0.  0.
        -13    1    3    3    0    0 -0.67668739372E+01 -0.18523450484E+02  0.27842859930E+02  0.34119566437E+02  0.10566000000E+00 0.  1.
         23    2    1    0    0    0 -0.81559476101E+01  0.16452883449E+02 -0.22826257014E+02  0.95704012826E+02  0.91109841436E+02 0.  0.
         13    1    3    3    0    0 -0.13890736729E+01  0.34976333933E+02 -0.50669116945E+02  0.61584446389E+02  0.10566000000E+00 0. -1.
         22    1    1    0    0    0  0.81559476101E+01 -0.16452883449E+02  0.22826257014E+02  0.29295987174E+02  0.00000000000E+00 0. -1.
</event>
<event>
 5    1  0.1319298E-009  0.9118800E+02  0.7818608E-02  0.1130116E+00
         25   -1    0    0    0    0  0.00000000000E+00  0.00000000000E+00  0.99999998245E-14  0.12500000000E+03  0.12500000000E+03 0.  0.
        -13    1    3    3    0    0 -0.41371795542E+02  0.12924627584E+02  0.32341782629E+01  0.43464267366E+02  0.10566000000E+00 0. -1.
         23    2    1    0    0    0 -0.31134748823E+01 -0.13392698538E+02  0.26306827736E+02  0.95316548625E+02  0.90576692125E+02 0.  0.
         13    1    3    3    0    0  0.38258320660E+02 -0.26317326123E+02  0.23072649474E+02  0.51852281259E+02  0.10566000000E+00 0.  1.
         22    1    1    0    0    0  0.31134748823E+01  0.13392698538E+02 -0.26306827736E+02  0.29683451375E+02  0.00000000000E+00 0.  1.
</event>
<event>
 5    1  0.1319298E-009  0.9118800E+02  0.7818608E-02  0.1130116E+00
         25   -1    0    0    0    0  0.00000000000E+00  0.00000000000E+00  0.99999998245E-14  0.12500000000E+03  0.12500000000E+03 0.  0.
        -13    1    3    3    0    0  0.63942058279E+00  0.38274562944E+02  0.36340053833E+02  0.52782210108E+02  0.10566000000E+00 0. -1.
         23    2    1    0    0    0  0.21580169845E+02  0.23403414980E+02  0.58771708085E+01  0.92627717102E+02  0.86786688355E+02 0.  0.
         13    1    3    3    0    0  0.20940749263E+02 -0.14871147964E+02 -0.30462883025E+02  0.39845506995E+02  0.10566000000E+00 0.  1.
         22    1    1    0    0    0 -0.21580169845E+02 -0.23403414980E+02 -0.58771708085E+01  0.32372282898E+02  0.00000000000E+00 0. -1.
</event>
<event>
 5    1  0.1319298E-009  0.9118800E+02  0.7818608E-02  0.1130116E+00
         25   -1    0    0    0    0  0.00000000000E+00  0.00000000000E+00  0.99999998245E-14  0.12500000000E+03  0.12500000000E+03 0.  0.
        -13    1    3    3    0    0 -0.49394252398E+01  0.28015515213E+02  0.21674107734E+02  0.35763740359E+02  0.10566000000E+00 0.  1.
         23    2    1    0    0    0  0.26682941745E+02 -0.14648673143E+02 -0.31745333058E+01  0.94395414286E+02  0.89296436499E+02 0.  0.
         13    1    3    3    0    0  0.31622366985E+02 -0.42664188356E+02 -0.24848641040E+02  0.58631673926E+02  0.10566000000E+00 0. -1.
         22    1    1    0    0    0 -0.26682941745E+02  0.14648673143E+02  0.31745333058E+01  0.30604585714E+02  0.00000000000E+00 0. -1.
</event>
<event>
 5    1  0.1319298E-009  0.9118800E+02  0.7818608E-02  0.1130116E+00
         25   -1    0    0    0    0  0.00000000000E+00  0.00000000000E+00  0.99999998245E-14  0.12500000000E+03  0.12500000000E+03 0.  0.
        -13    1    3    3    0    0  0.19154137619E+02  0.35146148181E-01 -0.52951968434E+02  0.56309895651E+02  0.10566000000E+00 0.  1.
         23    2    1    0    0    0  0.24119496739E+02 -0.57393203485E+01 -0.12953431212E+02  0.97027132768E+02  0.92907390406E+02 0.  0.
         13    1    3    3    0    0  0.49653591195E+01 -0.57744664967E+01  0.39998537222E+02  0.40717237117E+02  0.10566000000E+00 0. -1.
         22    1    1    0    0    0 -0.24119496739E+02  0.57393203485E+01  0.12953431212E+02  0.27972867232E+02  0.00000000000E+00 0.  1.
</event>
<event>
 5    1  0.1319298E-009  0.9118800E+02  0.7818608E-02  0.1130116E+00
         25   -1    0    0    0    0  0.00000000000E+00  0.00000000000E+00  0.99999998245E-14  0.12500000000E+03  0.12500000000E+03 0.  0.
        -13    1    3    3    0    0 -0.44582036946E+02  0.16648424408E+02 -0.27503698767E+02  0.54965376952E+02  0.10566000000E+00 0.  1.
         23    2    1    0    0    0 -0.45996208431E+01  0.53609306200E+01 -0.27599617868E+02  0.96510791596E+02  0.92210074824E+02 0.  0.
         13    1    3    3    0    0  0.39982416103E+02 -0.11287493788E+02 -0.95919101609E-01  0.41545414644E+02  0.10566000000E+00 0. -1.
         22    1    1    0    0    0  0.45996208431E+01 -0.53609306200E+01  0.27599617868E+02  0.28489208404E+02  0.00000000000E+00 0.  1.
</event>
<event>
 5    1  0.1319298E-009  0.9118800E+02  0.7818608E-02  0.1130116E+00
         25   -1    0    0    0    0  0.00000000000E+00  0.00000000000E+00  0.99999998245E-14  0.12500000000E+03  0.12500000000E+03 0.  0.
        -13    1    3    3    0    0  0.34655137649E+02 -0.27103019436E+02 -0.36137004905E+02  0.56933702809E+02  0.10566000000E+00 0. -1.
         23    2    1    0    0    0  0.24411156731E+02  0.38798467985E+01 -0.19210532032E+02  0.93695011179E+02  0.88310547472E+02 0.  0.
         13    1    3    3    0    0 -0.10243980918E+02  0.30982866234E+02  0.16926472873E+02  0.36761308370E+02  0.10566000000E+00 0.  1.
         22    1    1    0    0    0 -0.24411156731E+02 -0.38798467985E+01  0.19210532032E+02  0.31304988821E+02  0.00000000000E+00 0. -1.
</event>
<event>
 5    1  0.1319298E-009  0.9118800E+02  0.7818608E-02  0.1130116E+00
         25   -1    0    0    0    0  0.00000000000E+00  0.00000000000E+00  0.99999998245E-14  0.12500000000E+03  0.12500000000E+03 0.  0.
        -13    1    3    3    0    0  0.35055361937E+02 -0.42691093433E+02  0.90084210198E+01  0.55969372628E+02  0.10566000000E+00 0. -1.
         23    2    1    0    0    0  0.27186586824E+02 -0.81406024447E+01  0.16478455427E+02  0.92183549788E+02  0.86144572939E+02 0.  0.
         13    1    3    3    0    0 -0.78687751133E+01  0.34550490988E+02  0.74700344070E+01  0.36214177160E+02  0.10566000000E+00 0.  1.
         22    1    1    0    0    0 -0.27186586824E+02  0.81406024447E+01 -0.16478455427E+02  0.32816450212E+02  0.00000000000E+00 0. -1.
</event>
<event>
 5    1  0.1319298E-009  0.9118800E+02  0.7818608E-02  0.1130116E+00
         25   -1    0    0    0    0  0.00000000000E+00  0.00000000000E+00  0.99999998245E-14  0.12500000000E+03  0.12500000000E+03 0.  0.
        -13    1    3    3    0    0 -0.11959294680E+01 -0.21163862320E+02 -0.27998320207E+02  0.35117750697E+02  0.10566000000E+00 0.  1.
         23    2    1    0    0    0 -0.21806004690E+02  0.15351993755E+02  0.14352845839E+02  0.94714859478E+02  0.89742491995E+02 0.  0.
         13    1    3    3    0    0 -0.20610075222E+02  0.36515856075E+02  0.42351166046E+02  0.59597108780E+02  0.10566000000E+00 0. -1.
         22    1    1    0    0    0  0.21806004690E+02 -0.15351993755E+02 -0.14352845839E+02  0.30285140522E+02  0.00000000000E+00 0. -1.
</event>
<event>
 5    1  0.1319298E-009  0.9118800E+02  0.7818608E-02  0.1130116E+00
         25   -1    0    0    0    0  0.00000000000E+00  0.00000000000E+00  0.99999998245E-14  0.12500000000E+03  0.12500000000E+03 0.  0.
        -13    1    3    3    0    0 -0.20747716252E+02  0.49718196819E+02 -0.21841066585E+02  0.58132694572E+02  0.10566000000E+00 0. -1.
         23    2    1    0    0    0 -0.20904018498E+02  0.18285492005E+02  0.13485859155E+01  0.97194319084E+02  0.93132055550E+02 0.  0.
         13    1    3    3    0    0 -0.15630224630E+00 -0.31432704814E+02  0.23189652501E+02  0.39061624511E+02  0.10566000000E+00 0.  1.
         22    1    1    0    0    0  0.20904018498E+02 -0.18285492005E+02 -0.13485859155E+01  0.27805680916E+02  0.00000000000E+00 0. -1.
</event>
<event>
 5    1  0.1319298E-009  0.9118800E+02  0.7818608E-02  0.1130116E+00
         25   -1    0    0    0    0  0.00000000000E+00  0.00000000000E+00  0.99999998245E-14  0.12500000000E+03  0.12500000000E+03 0.  0.
        -13    1    3    3    0    0  0.22133115117E+02 -0.26689257590E+02  0.42583035131E+02  0.54913725975E+02  0.10566000000E+00 0.  1.
         23    2    1    0    0    0 -0.84162913912E+01 -0.23384251159E+02  0.17110997584E+02  0.94826445331E+02  0.89897782691E+02 0.  0.
         13    1    3    3    0    0 -0.30549406509E+02  0.33050064310E+01 -0.25472037547E+02  0.39912719356E+02  0.10566000000E+00 0. -1.
         22    1    1    0    0    0  0.84162913912E+01  0.23384251159E+02 -0.17110997584E+02  0.30173554669E+02  0.00000000000E+00 0.  1.
</event>
<event>
 5    1  0.1319298E-009  0.9118800E+02  0.7818608E-02  0.1130116E+00
         25   -1    0    0    0    0  0.00000000000E+00  0.00000000000E+00  0.99999998245E-14  0.12500000000E+03  0.12500000000E+03 0.  0.
        -13    1    3    3    0    0  0.26768493194E+02 -0.54722650941E+01 -0.79280889561E+01  0.28449317596E+02  0.10566000000E+00 0. -1.
         23    2    1    0    0    0 -0.26151836601E+02  0.14259703688E+02  0.17569615619E+02  0.90417502984E+02  0.83542658241E+02 0.  0.
         13    1    3    3    0    0 -0.52920329795E+02  0.19731968782E+02  0.25497704575E+02  0.61968185388E+02  0.10566000000E+00 0.  1.
         22    1    1    0    0    0  0.26151836601E+02 -0.14259703688E+02 -0.17569615619E+02  0.34582497016E+02  0.00000000000E+00 0.  1.
</event>
<event>
 5    1  0.1319298E-009  0.9118800E+02  0.7818608E-02  0.1130116E+00
         25   -1    0    0    0    0  0.00000000000E+00  0.00000000000E+00  0.99999998245E-14  0.12500000000E+03  0.12500000000E+03 0.  0.
        -13    1    3    3    0    0  0.45822792231E+02 -0.40287591181E+02 -0.10779353347E+02  0.61959857276E+02  0.10566000000E+00 0.  1.
         23    2    1    0    0    0  0.18046034463E+02 -0.19704424950E+02 -0.97821525264E+01  0.96546279145E+02  0.92258169212E+02 0.  0.
         13    1    3    3    0    0 -0.27776757769E+02  0.20583166231E+02  0.99720082017E+00  0.34586421869E+02  0.10566000000E+00 0. -1.
         22    1    1    0    0    0 -0.18046034463E+02  0.19704424950E+02  0.97821525264E+01  0.28453720855E+02  0.00000000000E+00 0.  1.
</event>
<event>
 5    1  0.1319298E-009  0.9118800E+02  0.7818608E-02  0.1130116E+00
         25   -1    0    0    0    0  0.00000000000E+00  0.00000000000E+00  0.99999998245E-14  0.12500000000E+03  0.12500000000E+03 0.  0.
        -13    1    3    3    0    0 -0.32179574577E+02 -0.30589464154E+01  0.46900771808E+02  0.56961177422E+02  0.10566000000E+00 0. -1.
         23    2    1    0    0    0 -0.16896162344E+02 -0.18557689520E+02  0.14437977443E+02  0.96046186177E+02  0.91578089870E+02 0.  0.
         13    1    3    3    0    0  0.15283412233E+02 -0.15498743104E+02 -0.32462794365E+02  0.39085008754E+02  0.10566000000E+00 0.  1.
         22    1    1    0    0    0  0.16896162344E+02  0.18557689520E+02 -0.14437977443E+02  0.28953813823E+02  0.00000000000E+00 0. -1.
</event>
<event>
 5    1  0.1319298E-009  0.9118800E+02  0.7818608E-02  0.1130116E+00
         25   -1    0    0    0    0  0.00000000000E+00  0.00000000000E+00  0.99999998245E-14  0.12500000000E+03  0.12500000000E+03 0.  0.
        -13    1    3    3    0    0 -0.29001679058E+02  0.14585856326E+02 -0.46500570292E+02  0.56711187560E+02  0.10566000000E+00 0.  1.
         23    2    1    0    0    0  0.58288142351E+01  0.19305034368E+01 -0.24355999388E+02  0.99881946232E+02  0.96672056759E+02 0.  0.
         13    1    3    3    0    0  0.34830493293E+02 -0.12655352889E+02  0.22144570904E+02  0.43170758672E+02  0.10566000000E+00 0. -1.
         22    1    1    0    0    0 -0.58288142351E+01 -0.19305034368E+01  0.24355999388E+02  0.25118053768E+02  0.00000000000E+00 0.  1.
</event>
<event>
 5    1  0.1319298E-009  0.9118800E+02  0.7818608E-02  0.1130116E+00
         25   -1    0    0    0    0  0.00000000000E+00  0.00000000000E+00  0.99999998245E-14  0.12500000000E+03  0.12500000000E+03 0.  0.
        -13    1    3    3    0    0 -0.15034671192E+01 -0.57869727833E+02  0.14046868769E+02  0.59569216036E+02  0.10566000000E+00 0.  1.
         23    2    1    0    0    0 -0.77554624229E+01 -0.27879327519E+02 -0.49863134659E+01  0.95635609622E+02  0.91015945886E+02 0.  0.
         13    1    3    3    0    0 -0.62519953036E+01  0.29990400315E+02 -0.19033182235E+02  0.36066393586E+02  0.10566000000E+00 0. -1.
         22    1    1    0    0    0  0.77554624229E+01  0.27879327519E+02  0.49863134659E+01  0.29364390378E+02  0.00000000000E+00 0.  1.
</event>
<event>
 5    1  0.1319298E-009  0.9118800E+02  0.7818608E-02  0.1130116E+00
         25   -1    0    0    0    0  0.00000000000E+00  0.00000000000E+00  0.99999998245E-14  0.12500000000E+03  0.12500000000E+03 0.  0.
        -13    1    3    3    0    0  0.23444484148E+02 -0.13925045255E+02  0.54143859729E+02  0.60622763321E+02  0.10566000000E+00 0.  1.
         23    2    1    0    0    0  0.80588852142E+01  0.38301094592E+01  0.27213991172E+02  0.96360574642E+02  0.92006215336E+02 0.  0.
         13    1    3    3    0    0 -0.15385598934E+02  0.17755154714E+02 -0.26929868557E+02  0.35737811321E+02  0.10566000000E+00 0. -1.
         22    1    1    0    0    0 -0.80588852142E+01 -0.38301094592E+01 -0.27213991172E+02  0.28639425358E+02  0.00000000000E+00 0.  1.
</event>
<event>
 5    1  0.1319298E-009  0.9118800E+02  0.7818608E-02  0.1130116E+00
         25   -1    0    0    0    0  0.00000000000E+00  0.00000000000E+00  0.99999998245E-14  0.12500000000E+03  0.12500000000E+03 0.  0.
        -13    1    3    3    0    0  0.50536260152E+02  0.13879110254E+02 -0.32724148874E+02  0.61785308732E+02  0.10566000000E+00 0. -1.
         23    2    1    0    0    0  0.21296997118E+02  0.27506435522E+01 -0.20306805684E+02  0.95445059918E+02  0.90753870328E+02 0.  0.
         13    1    3    3    0    0 -0.29239263034E+02 -0.11128466702E+02  0.12417343190E+02  0.33659751185E+02  0.10566000000E+00 0.  1.
         22    1    1    0    0    0 -0.21296997118E+02 -0.27506435522E+01  0.20306805684E+02  0.29554940082E+02  0.00000000000E+00 0. -1.
</event>
<event>
 5    1  0.1319298E-009  0.9118800E+02  0.7818608E-02  0.1130116E+00
         25   -1    0    0    0    0  0.00000000000E+00  0.00000000000E+00  0.99999998245E-14  0.12500000000E+03  0.12500000000E+03 0.  0.
        -13    1    3    3    0    0 -0.79450223587E+01 -0.28317174031E+02 -0.24470931046E+02  0.38259944533E+02  0.10566000000E+00 0. -1.
         23    2    1    0    0    0 -0.22927160877E+02  0.19745259301E+02  0.10936686433E+01  0.94722515265E+02  0.89753154910E+02 0.  0.
         13    1    3    3    0    0 -0.14982138519E+02  0.48062433332E+02  0.25564599689E+02  0.56462570732E+02  0.10566000000E+00 0.  1.
         22    1    1    0    0    0  0.22927160877E+02 -0.19745259301E+02 -0.10936686433E+01  0.30277484735E+02  0.00000000000E+00 0. -1.
</event>
<event>
 5    1  0.1319298E-009  0.9118800E+02  0.7818608E-02  0.1130116E+00
         25   -1    0    0    0    0  0.00000000000E+00  0.00000000000E+00  0.99999998245E-14  0.12500000000E+03  0.12500000000E+03 0.  0.
        -13    1    3    3    0    0 -0.36709566319E+01 -0.42562718376E+02 -0.11438432373E+02  0.44225669213E+02  0.10566000000E+00 0. -1.
         23    2    1    0    0    0  0.26857573566E+02 -0.72851805234E+01  0.98149314846E+01  0.95491763977E+02  0.90818175462E+02 0.  0.
         13    1    3    3    0    0  0.30528530198E+02  0.35277537853E+02  0.21253363858E+02  0.51266094764E+02  0.10566000000E+00 0.  1.
         22    1    1    0    0    0 -0.26857573566E+02  0.72851805234E+01 -0.98149314846E+01  0.29508236023E+02  0.00000000000E+00 0. -1.
</event>
<event>
 5    1  0.1319298E-009  0.9118800E+02  0.7818608E-02  0.1130116E+00
         25   -1    0    0    0    0  0.00000000000E+00  0.00000000000E+00  0.99999998245E-14  0.12500000000E+03  0.12500000000E+03 0.  0.
        -13    1    3    3    0    0  0.34062607550E+02 -0.81079602618E+01  0.21981114799E+02  0.41342240198E+02  0.10566000000E+00 0. -1.
         23    2    1    0    0    0  0.24339401347E+01 -0.23468927507E+02 -0.18540362463E+02  0.94992339925E+02  0.90128158648E+02 0.  0.
         13    1    3    3    0    0 -0.31628667416E+02 -0.15360967245E+02 -0.40521477262E+02  0.53650099727E+02  0.10566000000E+00 0.  1.
         22    1    1    0    0    0 -0.24339401347E+01  0.23468927507E+02  0.18540362463E+02  0.30007660075E+02  0.00000000000E+00 0. -1.
</event>
<event>
 5    1  0.1319298E-009  0.9118800E+02  0.7818608E-02  0.1130116E+00
         25   -1    0    0    0    0  0.00000000000E+00  0.00000000000E+00  0.99999998245E-14  0.12500000000E+03  0.12500000000E+03 0.  0.
        -13    1    3    3    0    0 -0.44390039873E+02  0.33381543709E+02  0.15520210606E+02  0.57668806140E+02  0.10566000000E+00 0.  1.
         23    2    1    0    0    0 -0.29067194455E+02  0.14149497027E+01  0.12838661697E+01  0.95870080871E+02  0.91337397695E+02 0.  0.
         13    1    3    3    0    0  0.15322845418E+02 -0.31966594007E+02 -0.14236344437E+02  0.38201274731E+02  0.10566000000E+00 0. -1.
         22    1    1    0    0    0  0.29067194455E+02 -0.14149497027E+01 -0.12838661697E+01  0.29129919129E+02  0.00000000000E+00 0.  1.
</event>
<event>
 5    1  0.1319298E-009  0.9118800E+02  0.7818608E-02  0.1130116E+00
         25   -1    0    0    0    0  0.00000000000E+00  0.00000000000E+00  0.99999998245E-14  0.12500000000E+03  0.12500000000E+03 0.  0.
        -13    1    3    3    0    0  0.83085384467E+01  0.20604924322E+01  0.61145705845E+02  0.61742092186E+02  0.10566000000E+00 0. -1.
         23    2    1    0    0    0 -0.19351095932E+01 -0.22023578629E+01  0.30942343855E+02  0.93919078641E+02  0.88627138395E+02 0.  0.
         13    1    3    3    0    0 -0.10243648040E+02 -0.42628502951E+01 -0.30203361990E+02  0.32176986455E+02  0.10566000000E+00 0.  1.
         22    1    1    0    0    0  0.19351095932E+01  0.22023578629E+01 -0.30942343855E+02  0.31080921359E+02  0.00000000000E+00 0. -1.
</event>
<event>
 5    1  0.1319298E-009  0.9118800E+02  0.7818608E-02  0.1130116E+00
         25   -1    0    0    0    0  0.00000000000E+00  0.00000000000E+00  0.99999998245E-14  0.12500000000E+03  0.12500000000E+03 0.  0.
        -13    1    3    3    0    0  0.32843919006E+02 -0.97463001502E+01  0.69108747083E+01  0.34949745859E+02  0.10566000000E+00 0.  1.
         23    2    1    0    0    0 -0.24699452819E+02 -0.62233922426E+01 -0.13580523353E+02  0.96134376932E+02  0.91698387298E+02 0.  0.
         13    1    3    3    0    0 -0.57543371825E+02  0.35229079075E+01 -0.20491398061E+02  0.61184631074E+02  0.10566000000E+00 0. -1.
         22    1    1    0    0    0  0.24699452819E+02  0.62233922426E+01  0.13580523353E+02  0.28865623068E+02  0.00000000000E+00 0. -1.
</event>
<event>
 5    1  0.1319298E-009  0.9118800E+02  0.7818608E-02  0.1130116E+00
         25   -1    0    0    0    0  0.00000000000E+00  0.00000000000E+00  0.99999998245E-14  0.12500000000E+03  0.12500000000E+03 0.  0.
        -13    1    3    3    0    0 -0.16996482055E+02  0.17187222054E+01 -0.33936793137E+02  0.37994098236E+02  0.10566000000E+00 0. -1.
         23    2    1    0    0    0 -0.14299404494E+02 -0.16130797173E+02  0.20442710384E+02  0.95291752085E+02  0.90542465293E+02 0.  0.
         13    1    3    3    0    0  0.26970775609E+01 -0.17849519379E+02  0.54379503521E+02  0.57297653849E+02  0.10566000000E+00 0.  1.
         22    1    1    0    0    0  0.14299404494E+02  0.16130797173E+02 -0.20442710384E+02  0.29708247915E+02  0.00000000000E+00 0.  1.
</event>
<event>
 5    1  0.1319298E-009  0.9118800E+02  0.7818608E-02  0.1130116E+00
         25   -1    0    0    0    0  0.00000000000E+00  0.00000000000E+00  0.99999998245E-14  0.12500000000E+03  0.12500000000E+03 0.  0.
        -13    1    3    3    0    0 -0.27773499898E+02  0.24657454251E+02 -0.10864694695E+02  0.38696383572E+02  0.10566000000E+00 0. -1.
         23    2    1    0    0    0  0.26725155588E+02  0.10064419478E+02  0.13053021492E+01  0.96412759939E+02  0.92077087186E+02 0.  0.
         13    1    3    3    0    0  0.54498655486E+02 -0.14593034773E+02  0.12169996844E+02  0.57716376366E+02  0.10566000000E+00 0.  1.
         22    1    1    0    0    0 -0.26725155588E+02 -0.10064419478E+02 -0.13053021492E+01  0.28587240061E+02  0.00000000000E+00 0.  1.
</event>
<event>
 5    1  0.1319298E-009  0.9118800E+02  0.7818608E-02  0.1130116E+00
         25   -1    0    0    0    0  0.00000000000E+00  0.00000000000E+00  0.99999998245E-14  0.12500000000E+03  0.12500000000E+03 0.  0.
        -13    1    3    3    0    0  0.29087114812E+02  0.71345247790E+01 -0.25027920267E+02  0.39030368290E+02  0.10566000000E+00 0. -1.
         23    2    1    0    0    0  0.95809971088E+00  0.99401931299E+01  0.25879836642E+02  0.97260293096E+02  0.93220562507E+02 0.  0.
         13    1    3    3    0    0 -0.28129015101E+02  0.28056683508E+01  0.50907756908E+02  0.58229924806E+02  0.10566000000E+00 0.  1.
         22    1    1    0    0    0 -0.95809971088E+00 -0.99401931299E+01 -0.25879836642E+02  0.27739706904E+02  0.00000000000E+00 0.  1.
</event>
<event>
 5    1  0.1319298E-009  0.9118800E+02  0.7818608E-02  0.1130116E+00
         25   -1    0    0    0    0  0.00000000000E+00  0.00000000000E+00  0.99999998245E-14  0.12500000000E+03  0.12500000000E+03 0.  0.
        -13    1    3    3    0    0 -0.23052169910E+02  0.17460539958E+02  0.34097299671E+02  0.44709171342E+02  0.10566000000E+00 0.  1.
         23    2    1    0    0    0  0.15526540339E+02  0.25328587824E+02  0.25126154961E+01  0.95185170591E+02  0.90395202570E+02 0.  0.
         13    1    3    3    0    0  0.38578710249E+02  0.78680478659E+01 -0.31584684175E+02  0.50475999249E+02  0.10566000000E+00 0. -1.
         22    1    1    0    0    0 -0.15526540339E+02 -0.25328587824E+02 -0.25126154961E+01  0.29814829409E+02  0.00000000000E+00 0. -1.
</event>
<event>
 5    1  0.1319298E-009  0.9118800E+02  0.7818608E-02  0.1130116E+00
         25   -1    0    0    0    0  0.00000000000E+00  0.00000000000E+00  0.99999998245E-14  0.12500000000E+03  0.12500000000E+03 0.  0.
        -13    1    3    3    0    0 -0.22799842744E+02 -0.24080735298E+02  0.15436556481E+02  0.36578861131E+02  0.10566000000E+00 0.  1.
         23    2    1    0    0    0  0.18221762224E+02  0.19195364559E+02  0.10888293966E+02  0.96380957657E+02  0.92033903613E+02 0.  0.
         13    1    3    3    0    0  0.41021604968E+02  0.43276099857E+02 -0.45482625149E+01  0.59802096526E+02  0.10566000000E+00 0. -1.
         22    1    1    0    0    0 -0.18221762224E+02 -0.19195364559E+02 -0.10888293966E+02  0.28619042343E+02  0.00000000000E+00 0. -1.
</event>
<event>
 5    1  0.1319298E-009  0.9118800E+02  0.7818608E-02  0.1130116E+00
         25   -1    0    0    0    0  0.00000000000E+00  0.00000000000E+00  0.99999998245E-14  0.12500000000E+03  0.12500000000E+03 0.  0.
        -13    1    3    3    0    0  0.48894586996E+01 -0.42109808352E+02 -0.25926669991E+02  0.49692516003E+02  0.10566000000E+00 0.  1.
         23    2    1    0    0    0 -0.16487352586E+00  0.46252330720E+01 -0.27877769808E+02  0.96740665017E+02  0.92521166520E+02 0.  0.
         13    1    3    3    0    0 -0.50543322255E+01  0.46735041424E+02 -0.19510998166E+01  0.47048149014E+02  0.10566000000E+00 0. -1.
         22    1    1    0    0    0  0.16487352586E+00 -0.46252330720E+01  0.27877769808E+02  0.28259334983E+02  0.00000000000E+00 0. -1.
</event>
<event>
 5    1  0.1319298E-009  0.9118800E+02  0.7818608E-02  0.1130116E+00
         25   -1    0    0    0    0  0.00000000000E+00  0.00000000000E+00  0.99999998245E-14  0.12500000000E+03  0.12500000000E+03 0.  0.
        -13    1    3    3    0    0 -0.47316476489E+02 -0.11736714137E+02  0.20262649175E+02  0.52793801925E+02  0.10566000000E+00 0. -1.
         23    2    1    0    0    0 -0.25448111902E+02 -0.61351842887E+01 -0.15123937741E+02  0.94767891598E+02  0.89816328691E+02 0.  0.
         13    1    3    3    0    0  0.21868364587E+02  0.56015298484E+01 -0.35386586915E+02  0.41974089673E+02  0.10566000000E+00 0.  1.
         22    1    1    0    0    0  0.25448111902E+02  0.61351842887E+01  0.15123937741E+02  0.30232108402E+02  0.00000000000E+00 0. -1.
</event>
<event>
 5    1  0.1319298E-009  0.9118800E+02  0.7818608E-02  0.1130116E+00
         25   -1    0    0    0    0  0.00000000000E+00  0.00000000000E+00  0.99999998245E-14  0.12500000000E+03  0.12500000000E+03 0.  0.
        -13    1    3    3    0    0  0.22965103056E+01 -0.17394855347E+02 -0.53276063906E+02  0.56091042970E+02  0.10566000000E+00 0.  1.
         23    2    1    0    0    0  0.47478185983E+00  0.11219851665E+02 -0.29819000224E+02  0.93136490093E+02  0.87516412880E+02 0.  0.
         13    1    3    3    0    0 -0.18217284458E+01  0.28614707012E+02  0.23457063682E+02  0.37045447123E+02  0.10566000000E+00 0. -1.
         22    1    1    0    0    0 -0.47478185983E+00 -0.11219851665E+02  0.29819000224E+02  0.31863509907E+02  0.00000000000E+00 0.  1.
</event>
<event>
 5    1  0.1319298E-009  0.9118800E+02  0.7818608E-02  0.1130116E+00
         25   -1    0    0    0    0  0.00000000000E+00  0.00000000000E+00  0.99999998245E-14  0.12500000000E+03  0.12500000000E+03 0.  0.
        -13    1    3    3    0    0 -0.41951579457E+02  0.44155596559E+02 -0.41068232968E+01  0.61045301933E+02  0.10566000000E+00 0.  1.
         23    2    1    0    0    0 -0.14267695018E+02  0.25526854957E+02  0.42632473978E+01  0.95447289066E+02  0.90756940598E+02 0.  0.
         13    1    3    3    0    0  0.27683884439E+02 -0.18628741601E+02  0.83700706945E+01  0.34401987134E+02  0.10566000000E+00 0. -1.
         22    1    1    0    0    0  0.14267695018E+02 -0.25526854957E+02 -0.42632473978E+01  0.29552710934E+02  0.00000000000E+00 0.  1.
</event>
<event>
 5    1  0.1319298E-009  0.9118800E+02  0.7818608E-02  0.1130116E+00
         25   -1    0    0    0    0  0.00000000000E+00  0.00000000000E+00  0.99999998245E-14  0.12500000000E+03  0.12500000000E+03 0.  0.
        -13    1    3    3    0    0  0.26939956834E+02 -0.18288152382E+02 -0.50305188735E+02  0.59923626138E+02  0.10566000000E+00 0.  1.
         23    2    1    0    0    0  0.22937726217E+02 -0.38336423596E+01 -0.17828233168E+02  0.95696723807E+02  0.91099840569E+02 0.  0.
         13    1    3    3    0    0 -0.40022306167E+01  0.14454510023E+02  0.32476955567E+02  0.35773097669E+02  0.10566000000E+00 0. -1.
         22    1    1    0    0    0 -0.22937726217E+02  0.38336423596E+01  0.17828233168E+02  0.29303276193E+02  0.00000000000E+00 0.  1.
</event>
<event>
 5    1  0.1319298E-009  0.9118800E+02  0.7818608E-02  0.1130116E+00
         25   -1    0    0    0    0  0.00000000000E+00  0.00000000000E+00  0.99999998245E-14  0.12500000000E+03  0.12500000000E+03 0.  0.
        -13    1    3    3    0    0  0.41042291943E+02 -0.38275375661E+02 -0.14242568406E+01  0.56138345019E+02  0.10566000000E+00 0.  1.
         23    2    1    0    0    0  0.26390149569E+02 -0.54117416791E+00 -0.85793036579E+01  0.97245048820E+02  0.93200119126E+02 0.  0.
         13    1    3    3    0    0 -0.14652142374E+02  0.37734201493E+02 -0.71550468173E+01  0.41106703802E+02  0.10566000000E+00 0. -1.
         22    1    1    0    0    0 -0.26390149569E+02  0.54117416791E+00  0.85793036579E+01  0.27754951180E+02  0.00000000000E+00 0.  1.
</event>
<event>
 5    1  0.1319298E-009  0.9118800E+02  0.7818608E-02  0.1130116E+00
         25   -1    0    0    0    0  0.00000000000E+00  0.00000000000E+00  0.99999998245E-14  0.12500000000E+03  0.12500000000E+03 0.  0.
        -13    1    3    3    0    0  0.33902791037E+02  0.22474223807E+02 -0.42165424145E+02  0.58586893869E+02  0.10566000000E+00 0. -1.
         23    2    1    0    0    0  0.14394321258E+02  0.23840212591E+02 -0.11690659851E+02  0.94796957957E+02  0.89856772084E+02 0.  0.
         13    1    3    3    0    0 -0.19508469779E+02  0.13659887846E+01  0.30474764294E+02  0.36210064089E+02  0.10566000000E+00 0.  1.
         22    1    1    0    0    0 -0.14394321258E+02 -0.23840212591E+02  0.11690659851E+02  0.30203042043E+02  0.00000000000E+00 0. -1.
</event>
<event>
 5    1  0.1319298E-009  0.9118800E+02  0.7818608E-02  0.1130116E+00
         25   -1    0    0    0    0  0.00000000000E+00  0.00000000000E+00  0.99999998245E-14  0.12500000000E+03  0.12500000000E+03 0.  0.
        -13    1    3    3    0    0 -0.28061261378E+02 -0.16331447834E+02 -0.26345177563E+01  0.32574567170E+02  0.10566000000E+00 0. -1.
         23    2    1    0    0    0  0.25834655847E+02  0.75134009624E+01  0.15134725817E+02  0.94130264622E+02  0.88924496937E+02 0.  0.
         13    1    3    3    0    0  0.53895917225E+02  0.23844848796E+02  0.17769243573E+02  0.61555697452E+02  0.10566000000E+00 0.  1.
         22    1    1    0    0    0 -0.25834655847E+02 -0.75134009624E+01 -0.15134725817E+02  0.30869735378E+02  0.00000000000E+00 0.  1.
</event>
<event>
 5    1  0.1319298E-009  0.9118800E+02  0.7818608E-02  0.1130116E+00
         25   -1    0    0    0    0  0.00000000000E+00  0.00000000000E+00  0.99999998245E-14  0.12500000000E+03  0.12500000000E+03 0.  0.
        -13    1    3    3    0    0 -0.36856615301E+02 -0.12819100654E+02  0.46650594781E+02  0.60819639841E+02  0.10566000000E+00 0.  1.
         23    2    1    0    0    0 -0.18621098705E+02  0.42085199093E+01  0.21534938658E+02  0.96221352711E+02  0.91816873056E+02 0.  0.
         13    1    3    3    0    0  0.18235516596E+02  0.17027620563E+02 -0.25115656123E+02  0.35401712869E+02  0.10566000000E+00 0. -1.
         22    1    1    0    0    0  0.18621098705E+02 -0.42085199093E+01 -0.21534938658E+02  0.28778647289E+02  0.00000000000E+00 0.  1.
</event>
<event>
 5    1  0.1319298E-009  0.9118800E+02  0.7818608E-02  0.1130116E+00
         25   -1    0    0    0    0  0.00000000000E+00  0.00000000000E+00  0.99999998245E-14  0.12500000000E+03  0.12500000000E+03 0.  0.
        -13    1    3    3    0    0 -0.14095562512E+02 -0.49775612871E+02 -0.22998576282E+02  0.56614858422E+02  0.10566000000E+00 0.  1.
         23    2    1    0    0    0  0.91683052637E+01 -0.15417800547E+02 -0.19877764028E+02  0.98225162972E+02  0.94505506417E+02 0.  0.
         13    1    3    3    0    0  0.23263867775E+02  0.34357812324E+02  0.31208122535E+01  0.41610304550E+02  0.10566000000E+00 0. -1.
         22    1    1    0    0    0 -0.91683052637E+01  0.15417800547E+02  0.19877764028E+02  0.26774837028E+02  0.00000000000E+00 0.  1.
</event>
<event>
 5    1  0.1319298E-009  0.9118800E+02  0.7818608E-02  0.1130116E+00
         25   -1    0    0    0    0  0.00000000000E+00  0.00000000000E+00  0.99999998245E-14  0.12500000000E+03  0.12500000000E+03 0.  0.
        -13    1    3    3    0    0  0.13488242355E+01 -0.30923597323E+02 -0.14287541938E+02  0.34091541720E+02  0.10566000000E+00 0. -1.
         23    2    1    0    0    0  0.11725626901E+02  0.22540527068E+02  0.14553925974E+02  0.95718906305E+02  0.91130272557E+02 0.  0.
         13    1    3    3    0    0  0.10376802665E+02  0.53464124390E+02  0.28841467912E+02  0.61627364585E+02  0.10566000000E+00 0.  1.
         22    1    1    0    0    0 -0.11725626901E+02 -0.22540527068E+02 -0.14553925974E+02  0.29281093695E+02  0.00000000000E+00 0.  1.
</event>
<event>
 5    1  0.1319298E-009  0.9118800E+02  0.7818608E-02  0.1130116E+00
         25   -1    0    0    0    0  0.00000000000E+00  0.00000000000E+00  0.99999998245E-14  0.12500000000E+03  0.12500000000E+03 0.  0.
        -13    1    3    3    0    0  0.85251114096E+01 -0.38782909143E+02  0.12682545497E+02  0.41685125530E+02  0.10566000000E+00 0.  1.
         23    2    1    0    0    0 -0.99705489360E+01  0.68461022298E+01  0.29020280903E+02  0.93560253412E+02  0.88119596873E+02 0.  0.
         13    1    3    3    0    0 -0.18495660346E+02  0.45629011373E+02  0.16337735406E+02  0.51875127882E+02  0.10566000000E+00 0. -1.
         22    1    1    0    0    0  0.99705489360E+01 -0.68461022298E+01 -0.29020280903E+02  0.31439746588E+02  0.00000000000E+00 0. -1.
</event>
<event>
 5    1  0.1319298E-009  0.9118800E+02  0.7818608E-02  0.1130116E+00
         25   -1    0    0    0    0  0.00000000000E+00  0.00000000000E+00  0.99999998245E-14  0.12500000000E+03  0.12500000000E+03 0.  0.
        -13    1    3    3    0    0  0.24205467409E+02 -0.75135876898E+01  0.36486497972E+02  0.44425604676E+02  0.10566000000E+00 0.  1.
         23    2    1    0    0    0 -0.22698363069E+02  0.22629957109E+01  0.18598667141E+02  0.95567921327E+02  0.90922936224E+02 0.  0.
         13    1    3    3    0    0 -0.46903830478E+02  0.97765834007E+01 -0.17887830831E+02  0.51142316651E+02  0.10566000000E+00 0. -1.
         22    1    1    0    0    0  0.22698363069E+02 -0.22629957109E+01 -0.18598667141E+02  0.29432078673E+02  0.00000000000E+00 0. -1.
</event>
<event>
 5    1  0.1319298E-009  0.9118800E+02  0.7818608E-02  0.1130116E+00
         25   -1    0    0    0    0  0.00000000000E+00  0.00000000000E+00  0.99999998245E-14  0.12500000000E+03  0.12500000000E+03 0.  0.
        -13    1    3    3    0    0  0.23284072442E+02 -0.13884512982E+02 -0.38675028077E+02  0.47230251863E+02  0.10566000000E+00 0. -1.
         23    2    1    0    0    0 -0.20226250858E+02 -0.12736946633E+02 -0.12386219700E+02  0.98078828560E+02  0.94311755046E+02 0.  0.
         13    1    3    3    0    0 -0.43510323299E+02  0.11475663497E+01  0.26288808378E+02  0.50848576697E+02  0.10566000000E+00 0.  1.
         22    1    1    0    0    0  0.20226250858E+02  0.12736946633E+02  0.12386219700E+02  0.26921171440E+02  0.00000000000E+00 0.  1.
</event>
<event>
 5    1  0.1319298E-009  0.9118800E+02  0.7818608E-02  0.1130116E+00
         25   -1    0    0    0    0  0.00000000000E+00  0.00000000000E+00  0.99999998245E-14  0.12500000000E+03  0.12500000000E+03 0.  0.
        -13    1    3    3    0    0 -0.53123412237E+01 -0.12041634493E+02 -0.51350283180E+02  0.53010231816E+02  0.10566000000E+00 0.  1.
         23    2    1    0    0    0  0.29135801430E+01 -0.26306760330E+02 -0.11475032096E+02  0.96151933342E+02  0.91722316453E+02 0.  0.
         13    1    3    3    0    0  0.82259213667E+01 -0.14265125837E+02  0.39875251084E+02  0.43141701525E+02  0.10566000000E+00 0. -1.
         22    1    1    0    0    0 -0.29135801430E+01  0.26306760330E+02  0.11475032096E+02  0.28848066658E+02  0.00000000000E+00 0.  1.
</event>
<event>
 5    1  0.1319298E-009  0.9118800E+02  0.7818608E-02  0.1130116E+00
         25   -1    0    0    0    0  0.00000000000E+00  0.00000000000E+00  0.99999998245E-14  0.12500000000E+03  0.12500000000E+03 0.  0.
        -13    1    3    3    0    0 -0.29555218764E+02 -0.67268627236E+01 -0.18292961586E+01  0.30366414454E+02  0.10566000000E+00 0. -1.
         23    2    1    0    0    0  0.14900814053E+02  0.99540816844E+01  0.31763259249E+02  0.88530524548E+02  0.80669889903E+02 0.  0.
         13    1    3    3    0    0  0.44456032818E+02  0.16680944408E+02  0.33592555407E+02  0.58164110094E+02  0.10566000000E+00 0.  1.
         22    1    1    0    0    0 -0.14900814053E+02 -0.99540816844E+01 -0.31763259249E+02  0.36469475452E+02  0.00000000000E+00 0.  1.
</event>
<event>
 5    1  0.1319298E-009  0.9118800E+02  0.7818608E-02  0.1130116E+00
         25   -1    0    0    0    0  0.00000000000E+00  0.00000000000E+00  0.99999998245E-14  0.12500000000E+03  0.12500000000E+03 0.  0.
        -13    1    3    3    0    0 -0.28023454874E+02 -0.54013399611E+02  0.23912623837E+01  0.60897378108E+02  0.10566000000E+00 0. -1.
         23    2    1    0    0    0 -0.52697524089E+01 -0.28806683311E+02 -0.39753430400E+01  0.95446681301E+02  0.90756103515E+02 0.  0.
         13    1    3    3    0    0  0.22753702465E+02  0.25206716300E+02 -0.63666054236E+01  0.34549303193E+02  0.10566000000E+00 0.  1.
         22    1    1    0    0    0  0.52697524089E+01  0.28806683311E+02  0.39753430400E+01  0.29553318699E+02  0.00000000000E+00 0. -1.
</event>
<event>
 5    1  0.1319298E-009  0.9118800E+02  0.7818608E-02  0.1130116E+00
         25   -1    0    0    0    0  0.00000000000E+00  0.00000000000E+00  0.99999998245E-14  0.12500000000E+03  0.12500000000E+03 0.  0.
        -13    1    3    3    0    0 -0.77109155407E+01  0.58987939968E+02 -0.16189350963E+02  0.61653398355E+02  0.10566000000E+00 0.  1.
         23    2    1    0    0    0 -0.27998468160E+00  0.25976232863E+02 -0.13821951876E+02  0.95574000971E+02  0.90931294078E+02 0.  0.
         13    1    3    3    0    0  0.74309308591E+01 -0.33011707104E+02  0.23673990869E+01  0.33920602616E+02  0.10566000000E+00 0. -1.
         22    1    1    0    0    0  0.27998468160E+00 -0.25976232863E+02  0.13821951876E+02  0.29425999029E+02  0.00000000000E+00 0.  1.
</event>
<event>
 5    1  0.1319298E-009  0.9118800E+02  0.7818608E-02  0.1130116E+00
         25   -1    0    0    0    0  0.00000000000E+00  0.00000000000E+00  0.99999998245E-14  0.12500000000E+03  0.12500000000E+03 0.  0.
        -13    1    3    3    0    0  0.14249460167E+02 -0.31969037182E+01  0.56960292140E+02  0.58802664507E+02  0.10566000000E+00 0.  1.
         23    2    1    0    0    0 -0.86020252553E+01 -0.31685897434E+01  0.27020088862E+02  0.96467211816E+02  0.92150979127E+02 0.  0.
         13    1    3    3    0    0 -0.22851485422E+02  0.28313974805E-01 -0.29940203278E+02  0.37664547309E+02  0.10566000000E+00 0. -1.
         22    1    1    0    0    0  0.86020252553E+01  0.31685897434E+01 -0.27020088862E+02  0.28532788184E+02  0.00000000000E+00 0.  1.
</event>
<event>
 5    1  0.1319298E-009  0.9118800E+02  0.7818608E-02  0.1130116E+00
         25   -1    0    0    0    0  0.00000000000E+00  0.00000000000E+00  0.99999998245E-14  0.12500000000E+03  0.12500000000E+03 0.  0.
        -13    1    3    3    0    0 -0.20565894911E+02 -0.59961364697E+01  0.45961914080E+02  0.50709154953E+02  0.10566000000E+00 0.  1.
         23    2    1    0    0    0  0.12236393668E+02  0.13749971800E+02  0.23678980057E+02  0.95008582044E+02  0.90150682254E+02 0.  0.
         13    1    3    3    0    0  0.32802288579E+02  0.19746108270E+02 -0.22282934024E+02  0.44299427091E+02  0.10566000000E+00 0. -1.
         22    1    1    0    0    0 -0.12236393668E+02 -0.13749971800E+02 -0.23678980057E+02  0.29991417956E+02  0.00000000000E+00 0.  1.
</event>
<event>
 5    1  0.1319298E-009  0.9118800E+02  0.7818608E-02  0.1130116E+00
         25   -1    0    0    0    0  0.00000000000E+00  0.00000000000E+00  0.99999998245E-14  0.12500000000E+03  0.12500000000E+03 0.  0.
        -13    1    3    3    0    0 -0.31588429680E+02 -0.24373849884E+02 -0.38480831472E+01  0.40084066109E+02  0.10566000000E+00 0. -1.
         23    2    1    0    0    0  0.24272694779E+02 -0.13653332595E+02 -0.31920268516E+01  0.96968477776E+02  0.92828440921E+02 0.  0.
         13    1    3    3    0    0  0.55861124459E+02  0.10720517289E+02  0.65605629563E+00  0.56884411667E+02  0.10566000000E+00 0.  1.
         22    1    1    0    0    0 -0.24272694779E+02  0.13653332595E+02  0.31920268516E+01  0.28031522224E+02  0.00000000000E+00 0.  1.
</event>
<event>
 5    1  0.1319298E-009  0.9118800E+02  0.7818608E-02  0.1130116E+00
         25   -1    0    0    0    0  0.00000000000E+00  0.00000000000E+00  0.99999998245E-14  0.12500000000E+03  0.12500000000E+03 0.  0.
        -13    1    3    3    0    0  0.25672608080E+02  0.14745267596E+02  0.36638675628E+02  0.47105301591E+02  0.10566000000E+00 0.  1.
         23    2    1    0    0    0 -0.19026383449E+02  0.10396383240E+02  0.21414964042E+02  0.94525605231E+02  0.89478496343E+02 0.  0.
         13    1    3    3    0    0 -0.44698991529E+02 -0.43488843565E+01 -0.15223711586E+02  0.47420303640E+02  0.10566000000E+00 0. -1.
         22    1    1    0    0    0  0.19026383449E+02 -0.10396383240E+02 -0.21414964042E+02  0.30474394769E+02  0.00000000000E+00 0.  1.
</event>
<event>
 5    1  0.1319298E-009  0.9118800E+02  0.7818608E-02  0.1130116E+00
         25   -1    0    0    0    0  0.00000000000E+00  0.00000000000E+00  0.99999998245E-14  0.12500000000E+03  0.12500000000E+03 0.  0.
        -13    1    3    3    0    0 -0.98645951218E+01  0.40740781277E+02 -0.32305080060E+02  0.52922120684E+02  0.10566000000E+00 0.  1.
         23    2    1    0    0    0  0.54057376045E+00  0.36359601783E+02  0.15430868814E+01  0.88603654319E+02  0.80783126826E+02 0.  0.
         13    1    3    3    0    0  0.10405168882E+02 -0.43811794940E+01  0.33848166941E+02  0.35681533635E+02  0.10566000000E+00 0. -1.
         22    1    1    0    0    0 -0.54057376045E+00 -0.36359601783E+02 -0.15430868814E+01  0.36396345681E+02  0.00000000000E+00 0.  1.
</event>
<event>
 5    1  0.1319298E-009  0.9118800E+02  0.7818608E-02  0.1130116E+00
         25   -1    0    0    0    0  0.00000000000E+00  0.00000000000E+00  0.99999998245E-14  0.12500000000E+03  0.12500000000E+03 0.  0.
        -13    1    3    3    0    0 -0.12974323287E+02 -0.13309475819E+02  0.33476803076E+02  0.38290765460E+02  0.10566000000E+00 0. -1.
         23    2    1    0    0    0  0.25364130207E+02  0.91120058485E+01 -0.56291871664E+01  0.97467192299E+02  0.93497583256E+02 0.  0.
         13    1    3    3    0    0  0.38338453494E+02  0.22421481667E+02 -0.39105990242E+02  0.59176426838E+02  0.10566000000E+00 0.  1.
         22    1    1    0    0    0 -0.25364130207E+02 -0.91120058485E+01  0.56291871664E+01  0.27532807701E+02  0.00000000000E+00 0.  1.
</event>
<event>
 5    1  0.1319298E-009  0.9118800E+02  0.7818608E-02  0.1130116E+00
         25   -1    0    0    0    0  0.00000000000E+00  0.00000000000E+00  0.99999998245E-14  0.12500000000E+03  0.12500000000E+03 0.  0.
        -13    1    3    3    0    0  0.20667294751E+02  0.46278804458E+02 -0.71910955828E+01  0.51191677391E+02  0.10566000000E+00 0. -1.
         23    2    1    0    0    0  0.16343973501E+02  0.12334945069E+02  0.21105271990E+02  0.95594067853E+02  0.90958875121E+02 0.  0.
         13    1    3    3    0    0 -0.43233212502E+01 -0.33943859390E+02  0.28296367573E+02  0.44402390462E+02  0.10566000000E+00 0.  1.
         22    1    1    0    0    0 -0.16343973501E+02 -0.12334945069E+02 -0.21105271990E+02  0.29405932147E+02  0.00000000000E+00 0. -1.
</event>
<event>
 5    1  0.1319298E-009  0.9118800E+02  0.7818608E-02  0.1130116E+00
         25   -1    0    0    0    0  0.00000000000E+00  0.00000000000E+00  0.99999998245E-14  0.12500000000E+03  0.12500000000E+03 0.  0.
        -13    1    3    3    0    0  0.59640434355E+00  0.22906596607E+02 -0.39784504569E+02  0.45911717829E+02  0.10566000000E+00 0.  1.
         23    2    1    0    0    0 -0.87339547540E+01  0.26777389897E+02  0.87656755431E+01  0.95501734914E+02  0.90831898189E+02 0.  0.
         13    1    3    3    0    0 -0.93303590976E+01  0.38707932901E+01  0.48550180112E+02  0.49590017085E+02  0.10566000000E+00 0. -1.
         22    1    1    0    0    0  0.87339547540E+01 -0.26777389897E+02 -0.87656755431E+01  0.29498265086E+02  0.00000000000E+00 0. -1.
</event>
<event>
 5    1  0.1319298E-009  0.9118800E+02  0.7818608E-02  0.1130116E+00
         25   -1    0    0    0    0  0.00000000000E+00  0.00000000000E+00  0.99999998245E-14  0.12500000000E+03  0.12500000000E+03 0.  0.
        -13    1    3    3    0    0  0.37696128320E+02 -0.24262860482E+01  0.34873176342E+02  0.51410451725E+02  0.10566000000E+00 0. -1.
         23    2    1    0    0    0  0.25864529524E+01  0.20450075177E+02  0.21054217336E+02  0.95535184011E+02  0.90877918125E+02 0.  0.
         13    1    3    3    0    0 -0.35109675368E+02  0.22876361225E+02 -0.13818959005E+02  0.44124732287E+02  0.10566000000E+00 0.  1.
         22    1    1    0    0    0 -0.25864529524E+01 -0.20450075177E+02 -0.21054217336E+02  0.29464815989E+02  0.00000000000E+00 0. -1.
</event>
<event>
 5    1  0.1319298E-009  0.9118800E+02  0.7818608E-02  0.1130116E+00
         25   -1    0    0    0    0  0.00000000000E+00  0.00000000000E+00  0.99999998245E-14  0.12500000000E+03  0.12500000000E+03 0.  0.
        -13    1    3    3    0    0  0.14286504535E+02  0.23231249189E+00  0.43425900100E+02  0.45716278769E+02  0.10566000000E+00 0. -1.
         23    2    1    0    0    0 -0.19221428051E+01 -0.29020178972E+02  0.71610382525E+01  0.95047606283E+02  0.90204775764E+02 0.  0.
         13    1    3    3    0    0 -0.16208647340E+02 -0.29252491464E+02 -0.36264861848E+02  0.49331327514E+02  0.10566000000E+00 0.  1.
         22    1    1    0    0    0  0.19221428051E+01  0.29020178972E+02 -0.71610382525E+01  0.29952393717E+02  0.00000000000E+00 0.  1.
</event>
<event>
 5    1  0.1319298E-009  0.9118800E+02  0.7818608E-02  0.1130116E+00
         25   -1    0    0    0    0  0.00000000000E+00  0.00000000000E+00  0.99999998245E-14  0.12500000000E+03  0.12500000000E+03 0.  0.
        -13    1    3    3    0    0  0.24312800786E+02  0.49091678168E+02 -0.90335852135E+00  0.54789892937E+02  0.10566000000E+00 0. -1.
         23    2    1    0    0    0  0.29563340982E+02  0.15399945586E+02 -0.10213253170E+02  0.90136552173E+02  0.83121224986E+02 0.  0.
         13    1    3    3    0    0  0.52505401966E+01 -0.33691732582E+02 -0.93098946483E+01  0.35346659236E+02  0.10566000000E+00 0.  1.
         22    1    1    0    0    0 -0.29563340982E+02 -0.15399945586E+02  0.10213253170E+02  0.34863447827E+02  0.00000000000E+00 0. -1.
</event>
<event>
 5    1  0.1319298E-009  0.9118800E+02  0.7818608E-02  0.1130116E+00
         25   -1    0    0    0    0  0.00000000000E+00  0.00000000000E+00  0.99999998245E-14  0.12500000000E+03  0.12500000000E+03 0.  0.
        -13    1    3    3    0    0 -0.35878010523E+02 -0.15821752635E+02  0.15851426463E+02  0.42294661371E+02  0.10566000000E+00 0.  1.
         23    2    1    0    0    0  0.15903148429E+02 -0.23524584086E+02  0.15596095802E+01  0.96561494969E+02  0.92278782730E+02 0.  0.
         13    1    3    3    0    0  0.51781158953E+02 -0.77028314509E+01 -0.14291816883E+02  0.54266833597E+02  0.10566000000E+00 0. -1.
         22    1    1    0    0    0 -0.15903148429E+02  0.23524584086E+02 -0.15596095802E+01  0.28438505031E+02  0.00000000000E+00 0. -1.
</event>
<event>
 5    1  0.1319298E-009  0.9118800E+02  0.7818608E-02  0.1130116E+00
         25   -1    0    0    0    0  0.00000000000E+00  0.00000000000E+00  0.99999998245E-14  0.12500000000E+03  0.12500000000E+03 0.  0.
        -13    1    3    3    0    0  0.17370526332E+02 -0.37814170706E+02 -0.26311682623E+02  0.49233753642E+02  0.10566000000E+00 0.  1.
         23    2    1    0    0    0  0.11774976642E+02  0.87866727183E+01 -0.24776984513E+02  0.96194537776E+02  0.91780359795E+02 0.  0.
         13    1    3    3    0    0 -0.55955496899E+01  0.46600843424E+02  0.15346981104E+01  0.46960784134E+02  0.10566000000E+00 0. -1.
         22    1    1    0    0    0 -0.11774976642E+02 -0.87866727183E+01  0.24776984513E+02  0.28805462224E+02  0.00000000000E+00 0.  1.
</event>
<event>
 5    1  0.1319298E-009  0.9118800E+02  0.7818608E-02  0.1130116E+00
         25   -1    0    0    0    0  0.00000000000E+00  0.00000000000E+00  0.99999998245E-14  0.12500000000E+03  0.12500000000E+03 0.  0.
        -13    1    3    3    0    0  0.50211543368E+02 -0.60987907610E+01 -0.11711471981E+02  0.51918821984E+02  0.10566000000E+00 0.  1.
         23    2    1    0    0    0  0.19105491363E+02 -0.15131906300E+02  0.17065914018E+02  0.95247020153E+02  0.90480688759E+02 0.  0.
         13    1    3    3    0    0 -0.31106052005E+02 -0.90331155389E+01  0.28777385998E+02  0.43328198170E+02  0.10566000000E+00 0. -1.
         22    1    1    0    0    0 -0.19105491363E+02  0.15131906300E+02 -0.17065914018E+02  0.29752979847E+02  0.00000000000E+00 0.  1.
</event>
<event>
 5    1  0.1319298E-009  0.9118800E+02  0.7818608E-02  0.1130116E+00
         25   -1    0    0    0    0  0.00000000000E+00  0.00000000000E+00  0.99999998245E-14  0.12500000000E+03  0.12500000000E+03 0.  0.
        -13    1    3    3    0    0 -0.29124585373E+02 -0.84336568405E+01  0.48207922323E+01  0.30702104857E+02  0.10566000000E+00 0.  1.
         23    2    1    0    0    0  0.31937662149E+02 -0.82025290857E+01  0.41247695673E+01  0.91768847885E+02  0.85540703593E+02 0.  0.
         13    1    3    3    0    0  0.61062247522E+02  0.23112775482E+00 -0.69602266499E+00  0.61066743028E+02  0.10566000000E+00 0. -1.
         22    1    1    0    0    0 -0.31937662149E+02  0.82025290857E+01 -0.41247695673E+01  0.33231152115E+02  0.00000000000E+00 0. -1.
</event>
<event>
 5    1  0.1319298E-009  0.9118800E+02  0.7818608E-02  0.1130116E+00
         25   -1    0    0    0    0  0.00000000000E+00  0.00000000000E+00  0.99999998245E-14  0.12500000000E+03  0.12500000000E+03 0.  0.
        -13    1    3    3    0    0  0.29807255468E+02 -0.99694981745E+01 -0.49635187349E+02  0.58749692421E+02  0.10566000000E+00 0. -1.
         23    2    1    0    0    0  0.69374337574E+00 -0.70821664075E+01 -0.30435708348E+02  0.93743469426E+02  0.88379111539E+02 0.  0.
         13    1    3    3    0    0 -0.29113512092E+02  0.28873317670E+01  0.19199479001E+02  0.34993777005E+02  0.10566000000E+00 0.  1.
         22    1    1    0    0    0 -0.69374337574E+00  0.70821664075E+01  0.30435708348E+02  0.31256530574E+02  0.00000000000E+00 0. -1.
</event>
<event>
 5    1  0.1319298E-009  0.9118800E+02  0.7818608E-02  0.1130116E+00
         25   -1    0    0    0    0  0.00000000000E+00  0.00000000000E+00  0.99999998245E-14  0.12500000000E+03  0.12500000000E+03 0.  0.
        -13    1    3    3    0    0  0.28292160001E+02  0.41977564918E+02 -0.24167693383E+02  0.56095016191E+02  0.10566000000E+00 0. -1.
         23    2    1    0    0    0  0.17022762294E+02  0.37611785223E+01 -0.23238341057E+02  0.95949330558E+02  0.91445790714E+02 0.  0.
         13    1    3    3    0    0 -0.11269397707E+02 -0.38216386396E+02  0.92935232624E+00  0.39854314366E+02  0.10566000000E+00 0.  1.
         22    1    1    0    0    0 -0.17022762294E+02 -0.37611785223E+01  0.23238341057E+02  0.29050669442E+02  0.00000000000E+00 0. -1.
</event>
<event>
 5    1  0.1319298E-009  0.9118800E+02  0.7818608E-02  0.1130116E+00
         25   -1    0    0    0    0  0.00000000000E+00  0.00000000000E+00  0.99999998245E-14  0.12500000000E+03  0.12500000000E+03 0.  0.
        -13    1    3    3    0    0  0.27220368177E+02 -0.16936907158E+02 -0.47162500621E+02  0.57027360948E+02  0.10566000000E+00 0.  1.
         23    2    1    0    0    0  0.17063951280E+02 -0.21305123741E+02 -0.97897838894E+01  0.96001265554E+02  0.91516754687E+02 0.  0.
         13    1    3    3    0    0 -0.10156416897E+02 -0.43682165827E+01  0.37372716732E+02  0.38973904606E+02  0.10566000000E+00 0. -1.
         22    1    1    0    0    0 -0.17063951280E+02  0.21305123741E+02  0.97897838894E+01  0.28998734446E+02  0.00000000000E+00 0.  1.
</event>
<event>
 5    1  0.1319298E-009  0.9118800E+02  0.7818608E-02  0.1130116E+00
         25   -1    0    0    0    0  0.00000000000E+00  0.00000000000E+00  0.99999998245E-14  0.12500000000E+03  0.12500000000E+03 0.  0.
        -13    1    3    3    0    0  0.12499794492E+02  0.28217751880E+02  0.20003310978E+02  0.36778118462E+02  0.10566000000E+00 0. -1.
         23    2    1    0    0    0 -0.13267513833E+02 -0.23117044593E+02  0.14952253032E+02  0.94438675671E+02  0.89356974645E+02 0.  0.
         13    1    3    3    0    0 -0.25767308325E+02 -0.51334796473E+02 -0.50510579456E+01  0.57660557209E+02  0.10566000000E+00 0.  1.
         22    1    1    0    0    0  0.13267513833E+02  0.23117044593E+02 -0.14952253032E+02  0.30561324329E+02  0.00000000000E+00 0.  1.
</event>
<event>
 5    1  0.1319298E-009  0.9118800E+02  0.7818608E-02  0.1130116E+00
         25   -1    0    0    0    0  0.00000000000E+00  0.00000000000E+00  0.99999998245E-14  0.12500000000E+03  0.12500000000E+03 0.  0.
        -13    1    3    3    0    0  0.29405030555E+02 -0.76559987821E+01  0.40009399549E+01  0.30647819235E+02  0.10566000000E+00 0.  1.
         23    2    1    0    0    0 -0.32092904927E+02  0.63597718356E+00  0.35607130708E+01  0.92703905945E+02  0.86896354850E+02 0.  0.
         13    1    3    3    0    0 -0.61497935482E+02  0.82919759657E+01 -0.44022688408E+00  0.62056086710E+02  0.10566000000E+00 0. -1.
         22    1    1    0    0    0  0.32092904927E+02 -0.63597718356E+00 -0.35607130708E+01  0.32296094055E+02  0.00000000000E+00 0. -1.
</event>
<event>
 5    1  0.1319298E-009  0.9118800E+02  0.7818608E-02  0.1130116E+00
         25   -1    0    0    0    0  0.00000000000E+00  0.00000000000E+00  0.99999998245E-14  0.12500000000E+03  0.12500000000E+03 0.  0.
        -13    1    3    3    0    0 -0.23076924862E+02  0.58458139656E+01  0.26677640241E+02  0.35755078728E+02  0.10566000000E+00 0.  1.
         23    2    1    0    0    0  0.92636567828E+01  0.19734854795E+02 -0.20808017980E+02  0.94862756546E+02  0.89948258107E+02 0.  0.
         13    1    3    3    0    0  0.32340581645E+02  0.13889040830E+02 -0.47485658220E+02  0.59107677817E+02  0.10566000000E+00 0. -1.
         22    1    1    0    0    0 -0.92636567828E+01 -0.19734854795E+02  0.20808017980E+02  0.30137243454E+02  0.00000000000E+00 0. -1.
</event>
<event>
 5    1  0.1319298E-009  0.9118800E+02  0.7818608E-02  0.1130116E+00
         25   -1    0    0    0    0  0.00000000000E+00  0.00000000000E+00  0.99999998245E-14  0.12500000000E+03  0.12500000000E+03 0.  0.
        -13    1    3    3    0    0  0.31994246303E+02 -0.27694674665E+02  0.43563528652E+02  0.60732355413E+02  0.10566000000E+00 0.  1.
         23    2    1    0    0    0  0.10024270897E+02 -0.22123434684E+02  0.18937772439E+02  0.94201110504E+02  0.89024028363E+02 0.  0.
         13    1    3    3    0    0 -0.21969975406E+02  0.55712399809E+01 -0.24625756213E+02  0.33468755091E+02  0.10566000000E+00 0. -1.
         22    1    1    0    0    0 -0.10024270897E+02  0.22123434684E+02 -0.18937772439E+02  0.30798889496E+02  0.00000000000E+00 0.  1.
</event>
<event>
 5    1  0.1319298E-009  0.9118800E+02  0.7818608E-02  0.1130116E+00
         25   -1    0    0    0    0  0.00000000000E+00  0.00000000000E+00  0.99999998245E-14  0.12500000000E+03  0.12500000000E+03 0.  0.
        -13    1    3    3    0    0 -0.49120386669E+02  0.62784015173E+01 -0.19040930620E+02  0.53054678541E+02  0.10566000000E+00 0. -1.
         23    2    1    0    0    0 -0.20169360004E+02  0.15511303125E+02  0.12326118953E+02  0.96727454730E+02  0.92503317143E+02 0.  0.
         13    1    3    3    0    0  0.28951026665E+02  0.92329016076E+01  0.31367049574E+02  0.43672776189E+02  0.10566000000E+00 0.  1.
         22    1    1    0    0    0  0.20169360004E+02 -0.15511303125E+02 -0.12326118953E+02  0.28272545270E+02  0.00000000000E+00 0. -1.
</event>
<event>
 5    1  0.1319298E-009  0.9118800E+02  0.7818608E-02  0.1130116E+00
         25   -1    0    0    0    0  0.00000000000E+00  0.00000000000E+00  0.99999998245E-14  0.12500000000E+03  0.12500000000E+03 0.  0.
        -13    1    3    3    0    0 -0.34046051063E+02  0.86181055603E+01 -0.80454127027E+01  0.36029781653E+02  0.10566000000E+00 0. -1.
         23    2    1    0    0    0  0.18738702592E+02  0.65786010766E+01  0.20820580301E+02  0.96226513401E+02  0.91823898579E+02 0.  0.
         13    1    3    3    0    0  0.52784753655E+02 -0.20395044837E+01  0.28865993004E+02  0.60196731748E+02  0.10566000000E+00 0.  1.
         22    1    1    0    0    0 -0.18738702592E+02 -0.65786010766E+01 -0.20820580301E+02  0.28773486599E+02  0.00000000000E+00 0.  1.
</event>
<event>
 5    1  0.1319298E-009  0.9118800E+02  0.7818608E-02  0.1130116E+00
         25   -1    0    0    0    0  0.00000000000E+00  0.00000000000E+00  0.99999998245E-14  0.12500000000E+03  0.12500000000E+03 0.  0.
        -13    1    3    3    0    0 -0.11253021429E+02 -0.48009924227E+02 -0.37753689718E+02  0.62104231473E+02  0.10566000000E+00 0. -1.
         23    2    1    0    0    0 -0.20007418736E+01 -0.24845307841E+02 -0.14745771606E+02  0.96039163167E+02  0.91568503274E+02 0.  0.
         13    1    3    3    0    0  0.92522795558E+01  0.23164616385E+02  0.23007918111E+02  0.33934931694E+02  0.10566000000E+00 0.  1.
         22    1    1    0    0    0  0.20007418736E+01  0.24845307841E+02  0.14745771606E+02  0.28960836833E+02  0.00000000000E+00 0. -1.
</event>
<event>
 5    1  0.1319298E-009  0.9118800E+02  0.7818608E-02  0.1130116E+00
         25   -1    0    0    0    0  0.00000000000E+00  0.00000000000E+00  0.99999998245E-14  0.12500000000E+03  0.12500000000E+03 0.  0.
        -13    1    3    3    0    0 -0.25642183902E+02 -0.31601124954E+02  0.10247293707E+02  0.41966306556E+02  0.10566000000E+00 0.  1.
         23    2    1    0    0    0 -0.99775981907E+01 -0.34583936419E+00 -0.28883276677E+02  0.94439964952E+02  0.89358778181E+02 0.  0.
         13    1    3    3    0    0  0.15664585711E+02  0.31255285590E+02 -0.39130570384E+02  0.52473658396E+02  0.10566000000E+00 0. -1.
         22    1    1    0    0    0  0.99775981907E+01  0.34583936419E+00  0.28883276677E+02  0.30560035048E+02  0.00000000000E+00 0. -1.
</event>
<event>
 5    1  0.1319298E-009  0.9118800E+02  0.7818608E-02  0.1130116E+00
         25   -1    0    0    0    0  0.00000000000E+00  0.00000000000E+00  0.99999998245E-14  0.12500000000E+03  0.12500000000E+03 0.  0.
        -13    1    3    3    0    0  0.13083996841E+02 -0.51269029857E+02  0.32827379827E+02  0.62268390265E+02  0.10566000000E+00 0.  1.
         23    2    1    0    0    0  0.96944027049E+01 -0.26756921394E+02  0.14513167856E+02  0.93054009211E+02  0.87398525747E+02 0.  0.
         13    1    3    3    0    0 -0.33895941364E+01  0.24512108463E+02 -0.18314211971E+02  0.30785618946E+02  0.10566000000E+00 0. -1.
         22    1    1    0    0    0 -0.96944027049E+01  0.26756921394E+02 -0.14513167856E+02  0.31945990789E+02  0.00000000000E+00 0.  1.
</event>
<event>
 5    1  0.1319298E-009  0.9118800E+02  0.7818608E-02  0.1130116E+00
         25   -1    0    0    0    0  0.00000000000E+00  0.00000000000E+00  0.99999998245E-14  0.12500000000E+03  0.12500000000E+03 0.  0.
        -13    1    3    3    0    0  0.32411450194E+02 -0.51683865350E+02  0.12258920462E+02  0.62225528010E+02  0.10566000000E+00 0. -1.
         23    2    1    0    0    0  0.77503014741E+01 -0.19760492798E+02  0.43015120346E+01  0.10334250120E+03  0.10104763876E+03 0.  0.
         13    1    3    3    0    0 -0.24661148720E+02  0.31923372552E+02 -0.79574084278E+01  0.41116973189E+02  0.10566000000E+00 0.  1.
         22    1    1    0    0    0 -0.77503014741E+01  0.19760492798E+02 -0.43015120346E+01  0.21657498802E+02  0.00000000000E+00 0. -1.
</event>
<event>
 5    1  0.1319298E-009  0.9118800E+02  0.7818608E-02  0.1130116E+00
         25   -1    0    0    0    0  0.00000000000E+00  0.00000000000E+00  0.99999998245E-14  0.12500000000E+03  0.12500000000E+03 0.  0.
        -13    1    3    3    0    0 -0.23180905413E+01 -0.46247853825E+02  0.26301661075E+02  0.53254352559E+02  0.10566000000E+00 0. -1.
         23    2    1    0    0    0 -0.21014903953E+02 -0.13133024086E+02 -0.12071782633E+01  0.10018952259E+03  0.97068947910E+02 0.  0.
         13    1    3    3    0    0 -0.18696813411E+02  0.33114829739E+02 -0.27508839338E+02  0.46935170034E+02  0.10566000000E+00 0.  1.
         22    1    1    0    0    0  0.21014903953E+02  0.13133024086E+02  0.12071782633E+01  0.24810477407E+02  0.00000000000E+00 0. -1.
</event>
<event>
 5    1  0.1319298E-009  0.9118800E+02  0.7818608E-02  0.1130116E+00
         25   -1    0    0    0    0  0.00000000000E+00  0.00000000000E+00  0.99999998245E-14  0.12500000000E+03  0.12500000000E+03 0.  0.
        -13    1    3    3    0    0 -0.13674412681E+02  0.42103315060E+02 -0.61115557166E+01  0.44688264439E+02  0.10566000000E+00 0.  1.
         23    2    1    0    0    0 -0.23160259203E+02 -0.12699095638E+01  0.18390466269E+02  0.95398994506E+02  0.90690399859E+02 0.  0.
         13    1    3    3    0    0 -0.94858465214E+01 -0.43373224624E+02  0.24502021986E+02  0.50710730067E+02  0.10566000000E+00 0. -1.
         22    1    1    0    0    0  0.23160259203E+02  0.12699095638E+01 -0.18390466269E+02  0.29601005494E+02  0.00000000000E+00 0.  1.
</event>
<event>
 5    1  0.1319298E-009  0.9118800E+02  0.7818608E-02  0.1130116E+00
         25   -1    0    0    0    0  0.00000000000E+00  0.00000000000E+00  0.99999998245E-14  0.12500000000E+03  0.12500000000E+03 0.  0.
        -13    1    3    3    0    0  0.28153193651E+02 -0.45315077498E+02  0.17767975033E+02  0.56229624418E+02  0.10566000000E+00 0. -1.
         23    2    1    0    0    0 -0.84784618693E+00 -0.29782883576E+02 -0.28721825541E+01  0.95066934172E+02  0.90231555140E+02 0.  0.
         13    1    3    3    0    0 -0.29001039838E+02  0.15532193922E+02 -0.20640157587E+02  0.38837309754E+02  0.10566000000E+00 0.  1.
         22    1    1    0    0    0  0.84784618693E+00  0.29782883576E+02  0.28721825541E+01  0.29933065828E+02  0.00000000000E+00 0. -1.
</event>
<event>
 5    1  0.1319298E-009  0.9118800E+02  0.7818608E-02  0.1130116E+00
         25   -1    0    0    0    0  0.00000000000E+00  0.00000000000E+00  0.99999998245E-14  0.12500000000E+03  0.12500000000E+03 0.  0.
        -13    1    3    3    0    0  0.19771702929E+02 -0.10895079297E+02 -0.34749943400E+02  0.41439024119E+02  0.10566000000E+00 0.  1.
         23    2    1    0    0    0 -0.26861276196E+02 -0.51783240645E+01 -0.46085264438E+01  0.97258664146E+02  0.93218378212E+02 0.  0.
         13    1    3    3    0    0 -0.46632979125E+02  0.57167552328E+01  0.30141416956E+02  0.55819640026E+02  0.10566000000E+00 0. -1.
         22    1    1    0    0    0  0.26861276196E+02  0.51783240645E+01  0.46085264438E+01  0.27741335854E+02  0.00000000000E+00 0. -1.
</event>
<event>
 5    1  0.1319298E-009  0.9118800E+02  0.7818608E-02  0.1130116E+00
         25   -1    0    0    0    0  0.00000000000E+00  0.00000000000E+00  0.99999998245E-14  0.12500000000E+03  0.12500000000E+03 0.  0.
        -13    1    3    3    0    0  0.16242715845E+02 -0.99657772888E+01  0.26639227379E+02  0.32753658336E+02  0.10566000000E+00 0.  1.
         23    2    1    0    0    0 -0.17586187406E+02  0.28197954170E+02 -0.28175285960E+01  0.91648282289E+02  0.85364340168E+02 0.  0.
         13    1    3    3    0    0 -0.33828903251E+02  0.38163731459E+02 -0.29456755975E+02  0.58894623954E+02  0.10566000000E+00 0. -1.
         22    1    1    0    0    0  0.17586187406E+02 -0.28197954170E+02  0.28175285960E+01  0.33351717711E+02  0.00000000000E+00 0. -1.
</event>
<event>
 5    1  0.1319298E-009  0.9118800E+02  0.7818608E-02  0.1130116E+00
         25   -1    0    0    0    0  0.00000000000E+00  0.00000000000E+00  0.99999998245E-14  0.12500000000E+03  0.12500000000E+03 0.  0.
        -13    1    3    3    0    0 -0.10248111544E+02  0.28524815621E+02 -0.22784629012E+02  0.37918852563E+02  0.10566000000E+00 0.  1.
         23    2    1    0    0    0 -0.20018496120E+02 -0.87332474072E+01  0.19928090125E+02  0.95434165440E+02  0.90738863560E+02 0.  0.
         13    1    3    3    0    0 -0.97703845759E+01 -0.37258063028E+02  0.42712719137E+02  0.57515312878E+02  0.10566000000E+00 0. -1.
         22    1    1    0    0    0  0.20018496120E+02  0.87332474072E+01 -0.19928090125E+02  0.29565834560E+02  0.00000000000E+00 0. -1.
</event>
<event>
 5    1  0.1319298E-009  0.9118800E+02  0.7818608E-02  0.1130116E+00
         25   -1    0    0    0    0  0.00000000000E+00  0.00000000000E+00  0.99999998245E-14  0.12500000000E+03  0.12500000000E+03 0.  0.
        -13    1    3    3    0    0 -0.16626951738E+02 -0.20092989208E+02 -0.47891557997E+02  0.54532524523E+02  0.10566000000E+00 0. -1.
         23    2    1    0    0    0 -0.73432600081E+01 -0.29353941168E+02 -0.12525540319E+02  0.92251465836E+02  0.86243066150E+02 0.  0.
         13    1    3    3    0    0  0.92836917295E+01 -0.92609519597E+01  0.35366017678E+02  0.37718941313E+02  0.10566000000E+00 0.  1.
         22    1    1    0    0    0  0.73432600081E+01  0.29353941168E+02  0.12525540319E+02  0.32748534164E+02  0.00000000000E+00 0. -1.
</event>
<event>
 5    1  0.1319298E-009  0.9118800E+02  0.7818608E-02  0.1130116E+00
         25   -1    0    0    0    0  0.00000000000E+00  0.00000000000E+00  0.99999998245E-14  0.12500000000E+03  0.12500000000E+03 0.  0.
        -13    1    3    3    0    0  0.28518052102E+02  0.40475285789E+00 -0.18469872351E+02  0.33979265284E+02  0.10566000000E+00 0. -1.
         23    2    1    0    0    0 -0.19158442037E+02 -0.12592399426E+02  0.18374350813E+02  0.95619203680E+02  0.90993411410E+02 0.  0.
         13    1    3    3    0    0 -0.47676494139E+02 -0.12997152284E+02  0.36844223164E+02  0.61639938396E+02  0.10566000000E+00 0.  1.
         22    1    1    0    0    0  0.19158442037E+02  0.12592399426E+02 -0.18374350813E+02  0.29380796320E+02  0.00000000000E+00 0.  1.
</event>
<event>
 5    1  0.1319298E-009  0.9118800E+02  0.7818608E-02  0.1130116E+00
         25   -1    0    0    0    0  0.00000000000E+00  0.00000000000E+00  0.99999998245E-14  0.12500000000E+03  0.12500000000E+03 0.  0.
        -13    1    3    3    0    0 -0.30780699028E+02  0.36922109764E+02  0.33997267943E+02  0.58877151882E+02  0.10566000000E+00 0.  1.
         23    2    1    0    0    0 -0.75832375079E+01  0.90545513477E+01  0.26617619578E+02  0.95879765399E+02  0.91350650516E+02 0.  0.
         13    1    3    3    0    0  0.23197461520E+02 -0.27867558416E+02 -0.73796483647E+01  0.37002613517E+02  0.10566000000E+00 0. -1.
         22    1    1    0    0    0  0.75832375079E+01 -0.90545513477E+01 -0.26617619578E+02  0.29120234601E+02  0.00000000000E+00 0.  1.
</event>
<event>
 5    1  0.1319298E-009  0.9118800E+02  0.7818608E-02  0.1130116E+00
         25   -1    0    0    0    0  0.00000000000E+00  0.00000000000E+00  0.99999998245E-14  0.12500000000E+03  0.12500000000E+03 0.  0.
        -13    1    3    3    0    0 -0.23493136963E+02  0.11508236456E+02  0.25253043379E+02  0.36360615432E+02  0.10566000000E+00 0.  1.
         23    2    1    0    0    0  0.23102003482E+02 -0.16731510848E+02 -0.14684974709E+00  0.96475140929E+02  0.92161734100E+02 0.  0.
         13    1    3    3    0    0  0.46595140445E+02 -0.28239747304E+02 -0.25399893126E+02  0.60114525497E+02  0.10566000000E+00 0. -1.
         22    1    1    0    0    0 -0.23102003482E+02  0.16731510848E+02  0.14684974709E+00  0.28524859071E+02  0.00000000000E+00 0. -1.
</event>
<event>
 5    1  0.1319298E-009  0.9118800E+02  0.7818608E-02  0.1130116E+00
         25   -1    0    0    0    0  0.00000000000E+00  0.00000000000E+00  0.99999998245E-14  0.12500000000E+03  0.12500000000E+03 0.  0.
        -13    1    3    3    0    0 -0.21555909308E+02  0.37091094021E+02 -0.35109537338E+02  0.55435523429E+02  0.10566000000E+00 0.  1.
         23    2    1    0    0    0 -0.15174682956E+02  0.23537839643E+02  0.34310477158E+01  0.96785234605E+02  0.92581362332E+02 0.  0.
         13    1    3    3    0    0  0.63812263512E+01 -0.13553254378E+02  0.38540585054E+02  0.41349711176E+02  0.10566000000E+00 0. -1.
         22    1    1    0    0    0  0.15174682956E+02 -0.23537839643E+02 -0.34310477158E+01  0.28214765395E+02  0.00000000000E+00 0.  1.
</event>
<event>
 5    1  0.1319298E-009  0.9118800E+02  0.7818608E-02  0.1130116E+00
         25   -1    0    0    0    0  0.00000000000E+00  0.00000000000E+00  0.99999998245E-14  0.12500000000E+03  0.12500000000E+03 0.  0.
        -13    1    3    3    0    0  0.45253669990E+02  0.25285689927E+02  0.59681566891E+01  0.52181326363E+02  0.10566000000E+00 0.  1.
         23    2    1    0    0    0  0.21902296761E+02 -0.13040895791E+02  0.10789923264E+02  0.97319718020E+02  0.93300211710E+02 0.  0.
         13    1    3    3    0    0 -0.23351373229E+02 -0.38326585718E+02  0.48217665752E+01  0.45138391657E+02  0.10566000000E+00 0. -1.
         22    1    1    0    0    0 -0.21902296761E+02  0.13040895791E+02 -0.10789923264E+02  0.27680281980E+02  0.00000000000E+00 0. -1.
</event>
<event>
 5    1  0.1319298E-009  0.9118800E+02  0.7818608E-02  0.1130116E+00
         25   -1    0    0    0    0  0.00000000000E+00  0.00000000000E+00  0.99999998245E-14  0.12500000000E+03  0.12500000000E+03 0.  0.
        -13    1    3    3    0    0 -0.21239739584E+02 -0.11564430034E+02  0.31558288640E+02  0.39759267165E+02  0.10566000000E+00 0. -1.
         23    2    1    0    0    0  0.27489070673E+02  0.45383408669E+01  0.11384561081E+02  0.94902595207E+02  0.90003604381E+02 0.  0.
         13    1    3    3    0    0  0.48728810257E+02  0.16102770901E+02 -0.20173727559E+02  0.55143328041E+02  0.10566000000E+00 0.  1.
         22    1    1    0    0    0 -0.27489070673E+02 -0.45383408669E+01 -0.11384561081E+02  0.30097404793E+02  0.00000000000E+00 0.  1.
</event>
<event>
 5    1  0.1319298E-009  0.9118800E+02  0.7818608E-02  0.1130116E+00
         25   -1    0    0    0    0  0.00000000000E+00  0.00000000000E+00  0.99999998245E-14  0.12500000000E+03  0.12500000000E+03 0.  0.
        -13    1    3    3    0    0  0.75071220194E+01 -0.36417950675E+02  0.20880591638E+02  0.42645448568E+02  0.10566000000E+00 0. -1.
         23    2    1    0    0    0 -0.79245005245E+01  0.14879606769E+02  0.23267537629E+02  0.96267114425E+02  0.91879152185E+02 0.  0.
         13    1    3    3    0    0 -0.15431622544E+02  0.51297557444E+02  0.23869459904E+01  0.53621665857E+02  0.10566000000E+00 0.  1.
         22    1    1    0    0    0  0.79245005245E+01 -0.14879606769E+02 -0.23267537629E+02  0.28732885575E+02  0.00000000000E+00 0. -1.
</event>
<event>
 5    1  0.1319298E-009  0.9118800E+02  0.7818608E-02  0.1130116E+00
         25   -1    0    0    0    0  0.00000000000E+00  0.00000000000E+00  0.99999998245E-14  0.12500000000E+03  0.12500000000E+03 0.  0.
        -13    1    3    3    0    0 -0.86290962197E+01  0.49348202234E+02  0.63087295835E+01  0.50492747977E+02  0.10566000000E+00 0.  1.
         23    2    1    0    0    0  0.20038728419E+02  0.17479818795E+02 -0.10327967586E+02  0.96473492744E+02  0.92159498621E+02 0.  0.
         13    1    3    3    0    0  0.28667824639E+02 -0.31868383439E+02 -0.16636697169E+02  0.45980744767E+02  0.10566000000E+00 0. -1.
         22    1    1    0    0    0 -0.20038728419E+02 -0.17479818795E+02  0.10327967586E+02  0.28526507256E+02  0.00000000000E+00 0. -1.
</event>
<event>
 5    1  0.1319298E-009  0.9118800E+02  0.7818608E-02  0.1130116E+00
         25   -1    0    0    0    0  0.00000000000E+00  0.00000000000E+00  0.99999998245E-14  0.12500000000E+03  0.12500000000E+03 0.  0.
        -13    1    3    3    0    0 -0.76602479481E+01  0.28257682396E+02  0.28324467645E+02  0.40736502604E+02  0.10566000000E+00 0.  1.
         23    2    1    0    0    0 -0.10577670210E-01  0.12616917452E+02 -0.25089521789E+02  0.96916716334E+02  0.92758714326E+02 0.  0.
         13    1    3    3    0    0  0.76496702779E+01 -0.15640764944E+02 -0.53413989434E+02  0.56180213729E+02  0.10566000000E+00 0. -1.
         22    1    1    0    0    0  0.10577670210E-01 -0.12616917452E+02  0.25089521789E+02  0.28083283666E+02  0.00000000000E+00 0. -1.
</event>
<event>
 5    1  0.1319298E-009  0.9118800E+02  0.7818608E-02  0.1130116E+00
         25   -1    0    0    0    0  0.00000000000E+00  0.00000000000E+00  0.99999998245E-14  0.12500000000E+03  0.12500000000E+03 0.  0.
        -13    1    3    3    0    0 -0.42022880719E+02  0.41900842600E+01 -0.36570799785E+02  0.55865140034E+02  0.10566000000E+00 0. -1.
         23    2    1    0    0    0 -0.34995150026E+01 -0.14321010811E+01 -0.29284103695E+02  0.95472788009E+02  0.90792053629E+02 0.  0.
         13    1    3    3    0    0  0.38523365717E+02 -0.56221853411E+01  0.72866960904E+01  0.39607647975E+02  0.10566000000E+00 0.  1.
         22    1    1    0    0    0  0.34995150026E+01  0.14321010811E+01  0.29284103695E+02  0.29527211991E+02  0.00000000000E+00 0. -1.
</event>
<event>
 5    1  0.1319298E-009  0.9118800E+02  0.7818608E-02  0.1130116E+00
         25   -1    0    0    0    0  0.00000000000E+00  0.00000000000E+00  0.99999998245E-14  0.12500000000E+03  0.12500000000E+03 0.  0.
        -13    1    3    3    0    0  0.16222345225E+02  0.25462759413E+02  0.35412317739E+02  0.46535577929E+02  0.10566000000E+00 0.  1.
         23    2    1    0    0    0 -0.18399006750E+02  0.23947479694E+02  0.19044449122E+01  0.94740585870E+02  0.89778318471E+02 0.  0.
         13    1    3    3    0    0 -0.34621351975E+02 -0.15152797195E+01 -0.33507872826E+02  0.48205007941E+02  0.10566000000E+00 0. -1.
         22    1    1    0    0    0  0.18399006750E+02 -0.23947479694E+02 -0.19044449122E+01  0.30259414130E+02  0.00000000000E+00 0. -1.
</event>
<event>
 5    1  0.1319298E-009  0.9118800E+02  0.7818608E-02  0.1130116E+00
         25   -1    0    0    0    0  0.00000000000E+00  0.00000000000E+00  0.99999998245E-14  0.12500000000E+03  0.12500000000E+03 0.  0.
        -13    1    3    3    0    0 -0.17207251390E+02 -0.56571961420E+02  0.39686051853E+01  0.59264131736E+02  0.10566000000E+00 0. -1.
         23    2    1    0    0    0  0.60271706242E+01 -0.28533672445E+02  0.64686270542E+00  0.95829540966E+02  0.91281899856E+02 0.  0.
         13    1    3    3    0    0  0.23234422014E+02  0.28038288975E+02 -0.33217424799E+01  0.36565409230E+02  0.10566000000E+00 0.  1.
         22    1    1    0    0    0 -0.60271706242E+01  0.28533672445E+02 -0.64686270542E+00  0.29170459034E+02  0.00000000000E+00 0. -1.
</event>
<event>
 5    1  0.1319298E-009  0.9118800E+02  0.7818608E-02  0.1130116E+00
         25   -1    0    0    0    0  0.00000000000E+00  0.00000000000E+00  0.99999998245E-14  0.12500000000E+03  0.12500000000E+03 0.  0.
        -13    1    3    3    0    0  0.41250121503E+01 -0.33342621230E+02  0.85112679952E+01  0.34658317366E+02  0.10566000000E+00 0.  1.
         23    2    1    0    0    0 -0.29371714177E+01  0.27606589252E+02  0.83270725033E+01  0.96015678677E+02  0.91536439025E+02 0.  0.
         13    1    3    3    0    0 -0.70621835680E+01  0.60949210482E+02 -0.18419549189E+00  0.61357361311E+02  0.10566000000E+00 0. -1.
         22    1    1    0    0    0  0.29371714177E+01 -0.27606589252E+02 -0.83270725033E+01  0.28984321323E+02  0.00000000000E+00 0. -1.
</event>
<event>
 5    1  0.1319298E-009  0.9118800E+02  0.7818608E-02  0.1130116E+00
         25   -1    0    0    0    0  0.00000000000E+00  0.00000000000E+00  0.99999998245E-14  0.12500000000E+03  0.12500000000E+03 0.  0.
        -13    1    3    3    0    0 -0.50939914874E+02  0.24847526428E+02  0.26058576023E+02  0.62380566247E+02  0.10566000000E+00 0. -1.
         23    2    1    0    0    0 -0.21781385518E+02  0.12437168734E+02  0.13907807347E+02  0.96320058815E+02  0.91951153901E+02 0.  0.
         13    1    3    3    0    0  0.29158529356E+02 -0.12410357693E+02 -0.12150768676E+02  0.33939492568E+02  0.10566000000E+00 0.  1.
         22    1    1    0    0    0  0.21781385518E+02 -0.12437168734E+02 -0.13907807347E+02  0.28679941185E+02  0.00000000000E+00 0. -1.
</event>
<event>
 5    1  0.1319298E-009  0.9118800E+02  0.7818608E-02  0.1130116E+00
         25   -1    0    0    0    0  0.00000000000E+00  0.00000000000E+00  0.99999998245E-14  0.12500000000E+03  0.12500000000E+03 0.  0.
        -13    1    3    3    0    0 -0.13666131926E+02  0.27643508305E+02  0.29790011712E+02  0.42876364994E+02  0.10566000000E+00 0. -1.
         23    2    1    0    0    0  0.21214430071E+02  0.23478406389E+02 -0.57401964339E+01  0.92840437427E+02  0.87092533301E+02 0.  0.
         13    1    3    3    0    0  0.34880561997E+02 -0.41651019162E+01 -0.35530208146E+02  0.49964072433E+02  0.10566000000E+00 0.  1.
         22    1    1    0    0    0 -0.21214430071E+02 -0.23478406389E+02  0.57401964339E+01  0.32159562573E+02  0.00000000000E+00 0.  1.
</event>
<event>
 5    1  0.1319298E-009  0.9118800E+02  0.7818608E-02  0.1130116E+00
         25   -1    0    0    0    0  0.00000000000E+00  0.00000000000E+00  0.99999998245E-14  0.12500000000E+03  0.12500000000E+03 0.  0.
        -13    1    3    3    0    0 -0.44692999865E+02 -0.13768179757E+02  0.22727318530E+02  0.51995857358E+02  0.10566000000E+00 0.  1.
         23    2    1    0    0    0 -0.32826411522E+01 -0.76670183276E+01  0.29451779047E+02  0.94390096504E+02  0.89288992189E+02 0.  0.
         13    1    3    3    0    0  0.41410358713E+02  0.61011614297E+01  0.67244605176E+01  0.42394239146E+02  0.10566000000E+00 0. -1.
         22    1    1    0    0    0  0.32826411522E+01  0.76670183276E+01 -0.29451779047E+02  0.30609903496E+02  0.00000000000E+00 0.  1.
</event>
<event>
 5    1  0.1319298E-009  0.9118800E+02  0.7818608E-02  0.1130116E+00
         25   -1    0    0    0    0  0.00000000000E+00  0.00000000000E+00  0.99999998245E-14  0.12500000000E+03  0.12500000000E+03 0.  0.
        -13    1    3    3    0    0  0.35314111829E+02  0.23421844364E+02 -0.10124826939E+01  0.42387563895E+02  0.10566000000E+00 0. -1.
         23    2    1    0    0    0  0.34188205538E-01  0.88877508088E+01 -0.32154692122E+02  0.91639581706E+02  0.85351598851E+02 0.  0.
         13    1    3    3    0    0 -0.35279923623E+02 -0.14534093555E+02 -0.31142209428E+02  0.49252017811E+02  0.10566000000E+00 0.  1.
         22    1    1    0    0    0 -0.34188205538E-01 -0.88877508088E+01  0.32154692122E+02  0.33360418294E+02  0.00000000000E+00 0.  1.
</event>
<event>
 5    1  0.1319298E-009  0.9118800E+02  0.7818608E-02  0.1130116E+00
         25   -1    0    0    0    0  0.00000000000E+00  0.00000000000E+00  0.99999998245E-14  0.12500000000E+03  0.12500000000E+03 0.  0.
        -13    1    3    3    0    0  0.40619705153E+02 -0.30085823053E+02 -0.30515986143E+02  0.59045353499E+02  0.10566000000E+00 0.  1.
         23    2    1    0    0    0  0.18849956439E+02 -0.93361349886E+00 -0.21226826891E+02  0.96596291232E+02  0.92325905401E+02 0.  0.
         13    1    3    3    0    0 -0.21769748714E+02  0.29152209555E+02  0.92891592528E+01  0.37550937733E+02  0.10566000000E+00 0. -1.
         22    1    1    0    0    0 -0.18849956439E+02  0.93361349886E+00  0.21226826891E+02  0.28403708768E+02  0.00000000000E+00 0.  1.
</event>
<event>
 5    1  0.1319298E-009  0.9118800E+02  0.7818608E-02  0.1130116E+00
         25   -1    0    0    0    0  0.00000000000E+00  0.00000000000E+00  0.99999998245E-14  0.12500000000E+03  0.12500000000E+03 0.  0.
        -13    1    3    3    0    0  0.24709925506E+01  0.14186888928E+02  0.54149292259E+02  0.56031514685E+02  0.10566000000E+00 0. -1.
         23    2    1    0    0    0  0.16268253514E+02  0.16971312972E+02  0.16356180970E+02  0.96360757826E+02  0.92006464210E+02 0.  0.
         13    1    3    3    0    0  0.13797260963E+02  0.27844240442E+01 -0.37793111289E+02  0.40329243141E+02  0.10566000000E+00 0.  1.
         22    1    1    0    0    0 -0.16268253514E+02 -0.16971312972E+02 -0.16356180970E+02  0.28639242174E+02  0.00000000000E+00 0. -1.
</event>
<event>
 5    1  0.1319298E-009  0.9118800E+02  0.7818608E-02  0.1130116E+00
         25   -1    0    0    0    0  0.00000000000E+00  0.00000000000E+00  0.99999998245E-14  0.12500000000E+03  0.12500000000E+03 0.  0.
        -13    1    3    3    0    0 -0.16881269190E+02 -0.20884357225E+02 -0.30521130192E+02  0.40653218549E+02  0.10566000000E+00 0. -1.
         23    2    1    0    0    0  0.15025722416E+02 -0.10616264105E+02  0.17759889827E+02  0.99428705853E+02  0.96084215474E+02 0.  0.
         13    1    3    3    0    0  0.31906991606E+02  0.10268093120E+02  0.48281020019E+02  0.58775487304E+02  0.10566000000E+00 0.  1.
         22    1    1    0    0    0 -0.15025722416E+02  0.10616264105E+02 -0.17759889827E+02  0.25571294147E+02  0.00000000000E+00 0.  1.
</event>
<event>
 5    1  0.1319298E-009  0.9118800E+02  0.7818608E-02  0.1130116E+00
         25   -1    0    0    0    0  0.00000000000E+00  0.00000000000E+00  0.99999998245E-14  0.12500000000E+03  0.12500000000E+03 0.  0.
        -13    1    3    3    0    0  0.24158376539E+02  0.27065004287E+02 -0.29263332741E+02  0.46610035628E+02  0.10566000000E+00 0.  1.
         23    2    1    0    0    0 -0.21276363510E+02  0.10106732541E+02 -0.14652505366E+02  0.97259675554E+02  0.93219734437E+02 0.  0.
         13    1    3    3    0    0 -0.45434740049E+02 -0.16958271747E+02  0.14610827375E+02  0.50649639926E+02  0.10566000000E+00 0. -1.
         22    1    1    0    0    0  0.21276363510E+02 -0.10106732541E+02  0.14652505366E+02  0.27740324446E+02  0.00000000000E+00 0. -1.
</event>
<event>
 5    1  0.1319298E-009  0.9118800E+02  0.7818608E-02  0.1130116E+00
         25   -1    0    0    0    0  0.00000000000E+00  0.00000000000E+00  0.99999998245E-14  0.12500000000E+03  0.12500000000E+03 0.  0.
        -13    1    3    3    0    0 -0.25489439437E+02  0.14902893341E+02  0.33465398214E+02  0.44629046532E+02  0.10566000000E+00 0. -1.
         23    2    1    0    0    0 -0.15744059637E+01  0.29679412158E+02 -0.75323679044E+01  0.94339229846E+02  0.89217753063E+02 0.  0.
         13    1    3    3    0    0  0.23915033474E+02  0.14776518817E+02 -0.40997766118E+02  0.49710183314E+02  0.10566000000E+00 0.  1.
         22    1    1    0    0    0  0.15744059637E+01 -0.29679412158E+02  0.75323679044E+01  0.30660770154E+02  0.00000000000E+00 0.  1.
</event>
<event>
 5    1  0.1319298E-009  0.9118800E+02  0.7818608E-02  0.1130116E+00
         25   -1    0    0    0    0  0.00000000000E+00  0.00000000000E+00  0.99999998245E-14  0.12500000000E+03  0.12500000000E+03 0.  0.
        -13    1    3    3    0    0 -0.15783021928E+02  0.23446597026E+02  0.17262903265E+02  0.33118962641E+02  0.10566000000E+00 0.  1.
         23    2    1    0    0    0  0.10431888257E+02 -0.24241913656E+02 -0.13208170829E+02  0.95488130405E+02  0.90813174162E+02 0.  0.
         13    1    3    3    0    0  0.26214910185E+02 -0.47688510682E+02 -0.30471074094E+02  0.62369167764E+02  0.10566000000E+00 0. -1.
         22    1    1    0    0    0 -0.10431888257E+02  0.24241913656E+02  0.13208170829E+02  0.29511869595E+02  0.00000000000E+00 0. -1.
</event>
<event>
 5    1  0.1319298E-009  0.9118800E+02  0.7818608E-02  0.1130116E+00
         25   -1    0    0    0    0  0.00000000000E+00  0.00000000000E+00  0.99999998245E-14  0.12500000000E+03  0.12500000000E+03 0.  0.
        -13    1    3    3    0    0 -0.23828911998E+02 -0.42986368749E+02 -0.30474692663E+01  0.49243712068E+02  0.10566000000E+00 0.  1.
         23    2    1    0    0    0  0.93601285676E+01 -0.67200718934E+01 -0.20560672128E+02  0.10143068496E+03  0.98654301681E+02 0.  0.
         13    1    3    3    0    0  0.33189040565E+02  0.36266296856E+02 -0.17513202862E+02  0.52186972893E+02  0.10566000000E+00 0. -1.
         22    1    1    0    0    0 -0.93601285676E+01  0.67200718934E+01  0.20560672128E+02  0.23569315039E+02  0.00000000000E+00 0. -1.
</event>
<event>
 5    1  0.1319298E-009  0.9118800E+02  0.7818608E-02  0.1130116E+00
         25   -1    0    0    0    0  0.00000000000E+00  0.00000000000E+00  0.99999998245E-14  0.12500000000E+03  0.12500000000E+03 0.  0.
        -13    1    3    3    0    0  0.22932590491E-01 -0.31888467649E+02 -0.25777777619E+02  0.41004632396E+02  0.10566000000E+00 0.  1.
         23    2    1    0    0    0  0.21765090780E+02  0.16199990809E+02 -0.99244686466E+01  0.96109621726E+02  0.91664635665E+02 0.  0.
         13    1    3    3    0    0  0.21742158190E+02  0.48088458458E+02  0.15853308972E+02  0.55104989330E+02  0.10566000000E+00 0. -1.
         22    1    1    0    0    0 -0.21765090780E+02 -0.16199990809E+02  0.99244686466E+01  0.28890378274E+02  0.00000000000E+00 0. -1.
</event>
<event>
 5    1  0.1319298E-009  0.9118800E+02  0.7818608E-02  0.1130116E+00
         25   -1    0    0    0    0  0.00000000000E+00  0.00000000000E+00  0.99999998245E-14  0.12500000000E+03  0.12500000000E+03 0.  0.
        -13    1    3    3    0    0 -0.21847475042E+02  0.20243285634E+02 -0.22845088486E+02  0.37536808747E+02  0.10566000000E+00 0.  1.
         23    2    1    0    0    0 -0.12298771553E+02 -0.15946746530E+02  0.21483497865E+02  0.95553452034E+02  0.90903041800E+02 0.  0.
         13    1    3    3    0    0  0.95487034892E+01 -0.36190032164E+02  0.44328586351E+02  0.58016643287E+02  0.10566000000E+00 0. -1.
         22    1    1    0    0    0  0.12298771553E+02  0.15946746530E+02 -0.21483497865E+02  0.29446547966E+02  0.00000000000E+00 0. -1.
</event>
<event>
 5    1  0.1319298E-009  0.9118800E+02  0.7818608E-02  0.1130116E+00
         25   -1    0    0    0    0  0.00000000000E+00  0.00000000000E+00  0.99999998245E-14  0.12500000000E+03  0.12500000000E+03 0.  0.
        -13    1    3    3    0    0 -0.82202166085E+01 -0.30925411642E+02  0.22136127791E+02  0.38909797788E+02  0.10566000000E+00 0.  1.
         23    2    1    0    0    0  0.23457312519E+02  0.59502382910E+01 -0.11680361171E+02  0.98128422387E+02  0.94377463394E+02 0.  0.
         13    1    3    3    0    0  0.31677529128E+02  0.36875649933E+02 -0.33816488962E+02  0.59218624599E+02  0.10566000000E+00 0. -1.
         22    1    1    0    0    0 -0.23457312519E+02 -0.59502382910E+01  0.11680361171E+02  0.26871577613E+02  0.00000000000E+00 0. -1.
</event>
<event>
 5    1  0.1319298E-009  0.9118800E+02  0.7818608E-02  0.1130116E+00
         25   -1    0    0    0    0  0.00000000000E+00  0.00000000000E+00  0.99999998245E-14  0.12500000000E+03  0.12500000000E+03 0.  0.
        -13    1    3    3    0    0 -0.35017067491E+01  0.14990385438E+02  0.41613509364E+02  0.44369684824E+02  0.10566000000E+00 0. -1.
         23    2    1    0    0    0  0.23410091701E+02 -0.14739903115E+02  0.94825155199E+01  0.95755936708E+02  0.91181051633E+02 0.  0.
         13    1    3    3    0    0  0.26911798450E+02 -0.29730288553E+02 -0.32130993844E+02  0.51386251884E+02  0.10566000000E+00 0.  1.
         22    1    1    0    0    0 -0.23410091701E+02  0.14739903115E+02 -0.94825155199E+01  0.29244063292E+02  0.00000000000E+00 0.  1.
</event>
<event>
 5    1  0.1319298E-009  0.9118800E+02  0.7818608E-02  0.1130116E+00
         25   -1    0    0    0    0  0.00000000000E+00  0.00000000000E+00  0.99999998245E-14  0.12500000000E+03  0.12500000000E+03 0.  0.
        -13    1    3    3    0    0  0.38735578845E+02  0.23841787763E+02  0.98056129586E+01  0.46529959399E+02  0.10566000000E+00 0.  1.
         23    2    1    0    0    0  0.19044725514E+02 -0.17197952705E+02 -0.11609698347E+02  0.96835194961E+02  0.92648792439E+02 0.  0.
         13    1    3    3    0    0 -0.19690853331E+02 -0.41039740468E+02 -0.21415311306E+02  0.50305235562E+02  0.10566000000E+00 0. -1.
         22    1    1    0    0    0 -0.19044725514E+02  0.17197952705E+02  0.11609698347E+02  0.28164805039E+02  0.00000000000E+00 0.  1.
</event>
<event>
 4    1  0.1319298E-009  0.9118800E+02  0.7818608E-02  0.1130116E+00
         25   -1    0    0    0    0  0.00000000000E+00  0.00000000000E+00  0.99999998245E-14  0.12500000000E+03  0.12500000000E+03 0.  0.
        -13    1    1    0    0    0 -0.47962932071E+02  0.20424023495E+02 -0.29558613881E+02  0.59927509603E+02  0.10566000000E+00 0.  1.
         13    1    1    0    0    0  0.11104594635E+01 -0.98849846289E+01  0.49440913924E+01  0.11108611302E+02  0.10566000000E+00 0. -1.
         22    1    1    0    0    0  0.46852472608E+02 -0.10539038866E+02  0.24614522488E+02  0.53963879095E+02  0.00000000000E+00 0.  1.
</event>
<event>
 5    1  0.1319298E-009  0.9118800E+02  0.7818608E-02  0.1130116E+00
         25   -1    0    0    0    0  0.00000000000E+00  0.00000000000E+00  0.99999998245E-14  0.12500000000E+03  0.12500000000E+03 0.  0.
        -13    1    3    3    0    0  0.34550881629E+02  0.41804373623E+02  0.19210610024E+02  0.57536317026E+02  0.10566000000E+00 0.  1.
         23    2    1    0    0    0  0.15857933108E+02  0.24901300539E+02 -0.77862759670E+01  0.94468460497E+02  0.89398630438E+02 0.  0.
         13    1    3    3    0    0 -0.18692948521E+02 -0.16903073084E+02 -0.26996885991E+02  0.36932143471E+02  0.10566000000E+00 0. -1.
         22    1    1    0    0    0 -0.15857933108E+02 -0.24901300539E+02  0.77862759670E+01  0.30531539503E+02  0.00000000000E+00 0.  1.
</event>
<event>
 5    1  0.1319298E-009  0.9118800E+02  0.7818608E-02  0.1130116E+00
         25   -1    0    0    0    0  0.00000000000E+00  0.00000000000E+00  0.99999998245E-14  0.12500000000E+03  0.12500000000E+03 0.  0.
        -13    1    3    3    0    0 -0.43253599747E+02 -0.15790658598E+02 -0.41893888514E+02  0.62252131280E+02  0.10566000000E+00 0.  1.
         23    2    1    0    0    0 -0.18720257304E+02 -0.10777675259E+02 -0.21148792137E+02  0.94769589378E+02  0.89818691510E+02 0.  0.
         13    1    3    3    0    0  0.24533342443E+02  0.50129833386E+01  0.20745096378E+02  0.32517458098E+02  0.10566000000E+00 0. -1.
         22    1    1    0    0    0  0.18720257304E+02  0.10777675259E+02  0.21148792137E+02  0.30230410622E+02  0.00000000000E+00 0.  1.
</event>
<event>
 5    1  0.1319298E-009  0.9118800E+02  0.7818608E-02  0.1130116E+00
         25   -1    0    0    0    0  0.00000000000E+00  0.00000000000E+00  0.99999998245E-14  0.12500000000E+03  0.12500000000E+03 0.  0.
        -13    1    3    3    0    0  0.20221812634E+02  0.19466125375E+02  0.28174764343E+02  0.39770343890E+02  0.10566000000E+00 0. -1.
         23    2    1    0    0    0  0.52943653827E+01  0.12869098791E+02 -0.25542858823E+02  0.95912517377E+02  0.91395455818E+02 0.  0.
         13    1    3    3    0    0 -0.14927447251E+02 -0.65970265843E+01 -0.53717623166E+02  0.56142173487E+02  0.10566000000E+00 0.  1.
         22    1    1    0    0    0 -0.52943653827E+01 -0.12869098791E+02  0.25542858823E+02  0.29087482623E+02  0.00000000000E+00 0.  1.
</event>
<event>
 5    1  0.1319298E-009  0.9118800E+02  0.7818608E-02  0.1130116E+00
         25   -1    0    0    0    0  0.00000000000E+00  0.00000000000E+00  0.99999998245E-14  0.12500000000E+03  0.12500000000E+03 0.  0.
        -13    1    3    3    0    0 -0.30196765064E+02 -0.12526562585E+02  0.14727065102E+02  0.35856059475E+02  0.10566000000E+00 0.  1.
         23    2    1    0    0    0  0.28218003240E+02 -0.19931424983E+01  0.80573939617E+01  0.95586569032E+02  0.90948569301E+02 0.  0.
         13    1    3    3    0    0  0.58414768304E+02  0.10533420087E+02 -0.66696711405E+01  0.59730509557E+02  0.10566000000E+00 0. -1.
         22    1    1    0    0    0 -0.28218003240E+02  0.19931424983E+01 -0.80573939617E+01  0.29413430968E+02  0.00000000000E+00 0. -1.
</event>
<event>
 5    1  0.1319298E-009  0.9118800E+02  0.7818608E-02  0.1130116E+00
         25   -1    0    0    0    0  0.00000000000E+00  0.00000000000E+00  0.99999998245E-14  0.12500000000E+03  0.12500000000E+03 0.  0.
        -13    1    3    3    0    0 -0.40070422091E+02  0.34159903349E+02  0.22553963263E+02  0.57282022889E+02  0.10566000000E+00 0.  1.
         23    2    1    0    0    0 -0.10859425034E+02  0.75605699242E+01  0.24840177268E+02  0.96855307137E+02  0.92675923433E+02 0.  0.
         13    1    3    3    0    0  0.29210997057E+02 -0.26599333424E+02  0.22862140055E+01  0.39573284248E+02  0.10566000000E+00 0. -1.
         22    1    1    0    0    0  0.10859425034E+02 -0.75605699242E+01 -0.24840177268E+02  0.28144692863E+02  0.00000000000E+00 0.  1.
</event>
<event>
 5    1  0.1319298E-009  0.9118800E+02  0.7818608E-02  0.1130116E+00
         25   -1    0    0    0    0  0.00000000000E+00  0.00000000000E+00  0.99999998245E-14  0.12500000000E+03  0.12500000000E+03 0.  0.
        -13    1    3    3    0    0  0.26338608282E+02 -0.12796066999E+02 -0.37820829060E+02  0.47831871087E+02  0.10566000000E+00 0.  1.
         23    2    1    0    0    0 -0.18878005978E+01 -0.31142529573E+02 -0.80347662162E+01  0.92782327715E+02  0.87009091070E+02 0.  0.
         13    1    3    3    0    0 -0.28226408880E+02 -0.18346462574E+02  0.29786062844E+02  0.44950456628E+02  0.10566000000E+00 0. -1.
         22    1    1    0    0    0  0.18878005978E+01  0.31142529573E+02  0.80347662162E+01  0.32217672285E+02  0.00000000000E+00 0.  1.
</event>
<event>
 5    1  0.1319298E-009  0.9118800E+02  0.7818608E-02  0.1130116E+00
         25   -1    0    0    0    0  0.00000000000E+00  0.00000000000E+00  0.99999998245E-14  0.12500000000E+03  0.12500000000E+03 0.  0.
        -13    1    3    3    0    0 -0.44907701410E+02  0.39775586753E+02 -0.15632791222E+02  0.61993501860E+02  0.10566000000E+00 0. -1.
         23    2    1    0    0    0 -0.21335416877E+02  0.17501978926E+02 -0.12895622296E+02  0.94539921963E+02  0.89498494349E+02 0.  0.
         13    1    3    3    0    0  0.23572284533E+02 -0.22273607827E+02  0.27371689261E+01  0.32546420103E+02  0.10566000000E+00 0.  1.
         22    1    1    0    0    0  0.21335416877E+02 -0.17501978926E+02  0.12895622296E+02  0.30460078037E+02  0.00000000000E+00 0. -1.
</event>
<event>
 5    1  0.1319298E-009  0.9118800E+02  0.7818608E-02  0.1130116E+00
         25   -1    0    0    0    0  0.00000000000E+00  0.00000000000E+00  0.99999998245E-14  0.12500000000E+03  0.12500000000E+03 0.  0.
        -13    1    3    3    0    0  0.48171452983E-01  0.57938756616E+02  0.17982202486E+02  0.60665250424E+02  0.10566000000E+00 0. -1.
         23    2    1    0    0    0  0.77951496670E+01  0.38616456668E+02  0.47815385134E+01  0.85315516956E+02  0.75524030870E+02 0.  0.
         13    1    3    3    0    0  0.77469782140E+01 -0.19322299948E+02 -0.13200663973E+02  0.24650266532E+02  0.10566000000E+00 0.  1.
         22    1    1    0    0    0 -0.77951496670E+01 -0.38616456668E+02 -0.47815385134E+01  0.39684483044E+02  0.00000000000E+00 0. -1.
</event>
<event>
 5    1  0.1319298E-009  0.9118800E+02  0.7818608E-02  0.1130116E+00
         25   -1    0    0    0    0  0.00000000000E+00  0.00000000000E+00  0.99999998245E-14  0.12500000000E+03  0.12500000000E+03 0.  0.
        -13    1    3    3    0    0 -0.36757267764E+02 -0.26568081946E+01  0.48102243528E+02  0.60596966589E+02  0.10566000000E+00 0. -1.
         23    2    1    0    0    0 -0.74618992818E+01 -0.47138343442E+01  0.26541477037E+02  0.97029476615E+02  0.92910543824E+02 0.  0.
         13    1    3    3    0    0  0.29295368482E+02 -0.20570261496E+01 -0.21560766491E+02  0.36432510026E+02  0.10566000000E+00 0.  1.
         22    1    1    0    0    0  0.74618992818E+01  0.47138343442E+01 -0.26541477037E+02  0.27970523385E+02  0.00000000000E+00 0. -1.
</event>
<event>
 5    1  0.1319298E-009  0.9118800E+02  0.7818608E-02  0.1130116E+00
         25   -1    0    0    0    0  0.00000000000E+00  0.00000000000E+00  0.99999998245E-14  0.12500000000E+03  0.12500000000E+03 0.  0.
        -13    1    3    3    0    0 -0.44652043729E+02 -0.38335869318E+02  0.15751128485E+02  0.60922517168E+02  0.10566000000E+00 0. -1.
         23    2    1    0    0    0 -0.25735836932E+02 -0.11390511288E+02  0.14445788680E+01  0.96819086990E+02  0.92627057318E+02 0.  0.
         13    1    3    3    0    0  0.18916206797E+02  0.26945358030E+02 -0.14306549618E+02  0.35896569821E+02  0.10566000000E+00 0.  1.
         22    1    1    0    0    0  0.25735836932E+02  0.11390511288E+02 -0.14445788680E+01  0.28180913010E+02  0.00000000000E+00 0. -1.
</event>
<event>
 5    1  0.1319298E-009  0.9118800E+02  0.7818608E-02  0.1130116E+00
         25   -1    0    0    0    0  0.00000000000E+00  0.00000000000E+00  0.99999998245E-14  0.12500000000E+03  0.12500000000E+03 0.  0.
        -13    1    3    3    0    0 -0.12073408570E+02  0.31249133068E+02  0.32588691905E+01  0.33658682452E+02  0.10566000000E+00 0.  1.
         23    2    1    0    0    0  0.45699742099E+01 -0.26148208266E+02 -0.12785577376E+02  0.95536727122E+02  0.90880040606E+02 0.  0.
         13    1    3    3    0    0  0.16643382780E+02 -0.57397341334E+02 -0.16044446567E+02  0.61878044670E+02  0.10566000000E+00 0. -1.
         22    1    1    0    0    0 -0.45699742099E+01  0.26148208266E+02  0.12785577376E+02  0.29463272878E+02  0.00000000000E+00 0. -1.
</event>
<event>
 5    1  0.1319298E-009  0.9118800E+02  0.7818608E-02  0.1130116E+00
         25   -1    0    0    0    0  0.00000000000E+00  0.00000000000E+00  0.99999998245E-14  0.12500000000E+03  0.12500000000E+03 0.  0.
        -13    1    3    3    0    0 -0.71064584145E+01 -0.55260069678E+02 -0.20401237583E+01  0.55752581294E+02  0.10566000000E+00 0. -1.
         23    2    1    0    0    0 -0.16795366491E+02 -0.20182936111E+02  0.13679189390E+02  0.95393320551E+02  0.90682579021E+02 0.  0.
         13    1    3    3    0    0 -0.96889080766E+01  0.35077133567E+02  0.15719313148E+02  0.39640739257E+02  0.10566000000E+00 0.  1.
         22    1    1    0    0    0  0.16795366491E+02  0.20182936111E+02 -0.13679189390E+02  0.29606679449E+02  0.00000000000E+00 0. -1.
</event>
<event>
 5    1  0.1319298E-009  0.9118800E+02  0.7818608E-02  0.1130116E+00
         25   -1    0    0    0    0  0.00000000000E+00  0.00000000000E+00  0.99999998245E-14  0.12500000000E+03  0.12500000000E+03 0.  0.
        -13    1    3    3    0    0  0.32320756604E+01  0.21695737344E+02 -0.54668145902E+02  0.58904742359E+02  0.10566000000E+00 0. -1.
         23    2    1    0    0    0 -0.93050448513E+00 -0.49691984624E+01 -0.26907056405E+02  0.97622117388E+02  0.93704478799E+02 0.  0.
         13    1    3    3    0    0 -0.41625801455E+01 -0.26664935807E+02  0.27761089497E+02  0.38717375029E+02  0.10566000000E+00 0.  1.
         22    1    1    0    0    0  0.93050448513E+00  0.49691984624E+01  0.26907056405E+02  0.27377882612E+02  0.00000000000E+00 0. -1.
</event>
<event>
 5    1  0.1319298E-009  0.9118800E+02  0.7818608E-02  0.1130116E+00
         25   -1    0    0    0    0  0.00000000000E+00  0.00000000000E+00  0.99999998245E-14  0.12500000000E+03  0.12500000000E+03 0.  0.
        -13    1    3    3    0    0 -0.21528738159E+02 -0.22740772611E+02 -0.12907824306E+01  0.31341770674E+02  0.10566000000E+00 0. -1.
         23    2    1    0    0    0  0.20702714823E+02 -0.17067044119E+02 -0.31535206525E+02  0.83595221936E+02  0.72620971378E+02 0.  0.
         13    1    3    3    0    0  0.42231452981E+02  0.56737284917E+01 -0.30244424094E+02  0.52253451262E+02  0.10566000000E+00 0.  1.
         22    1    1    0    0    0 -0.20702714823E+02  0.17067044119E+02  0.31535206525E+02  0.41404778064E+02  0.00000000000E+00 0.  1.
</event>
<event>
 5    1  0.1319298E-009  0.9118800E+02  0.7818608E-02  0.1130116E+00
         25   -1    0    0    0    0  0.00000000000E+00  0.00000000000E+00  0.99999998245E-14  0.12500000000E+03  0.12500000000E+03 0.  0.
        -13    1    3    3    0    0  0.14556707503E+02 -0.27566566613E+02  0.43036164862E+02  0.53140718646E+02  0.10566000000E+00 0. -1.
         23    2    1    0    0    0 -0.54566939864E+01  0.71104458250E+01  0.27481092428E+02  0.96094215283E+02  0.91643624005E+02 0.  0.
         13    1    3    3    0    0 -0.20013401490E+02  0.34677012438E+02 -0.15555072434E+02  0.42953496637E+02  0.10566000000E+00 0.  1.
         22    1    1    0    0    0  0.54566939864E+01 -0.71104458250E+01 -0.27481092428E+02  0.28905784717E+02  0.00000000000E+00 0. -1.
</event>
<event>
 5    1  0.1319298E-009  0.9118800E+02  0.7818608E-02  0.1130116E+00
         25   -1    0    0    0    0  0.00000000000E+00  0.00000000000E+00  0.99999998245E-14  0.12500000000E+03  0.12500000000E+03 0.  0.
        -13    1    3    3    0    0 -0.37302805901E+02  0.15952757179E+01  0.39804531383E+02  0.54575233535E+02  0.10566000000E+00 0.  1.
         23    2    1    0    0    0 -0.77108639524E+01  0.21190766064E+02  0.16964454903E+02  0.96781234623E+02  0.92575961543E+02 0.  0.
         13    1    3    3    0    0  0.29591941948E+02  0.19595490346E+02 -0.22840076480E+02  0.42206001088E+02  0.10566000000E+00 0. -1.
         22    1    1    0    0    0  0.77108639524E+01 -0.21190766064E+02 -0.16964454903E+02  0.28218765377E+02  0.00000000000E+00 0.  1.
</event>
<event>
 5    1  0.1319298E-009  0.9118800E+02  0.7818608E-02  0.1130116E+00
         25   -1    0    0    0    0  0.00000000000E+00  0.00000000000E+00  0.99999998245E-14  0.12500000000E+03  0.12500000000E+03 0.  0.
        -13    1    3    3    0    0  0.33694040611E+02  0.12058662115E+02  0.10046655569E+02  0.37170501165E+02  0.10566000000E+00 0.  1.
         23    2    1    0    0    0 -0.10599141872E+02  0.10260307756E+02 -0.26531596001E+02  0.94643101113E+02  0.89642485900E+02 0.  0.
         13    1    3    3    0    0 -0.44293182483E+02 -0.17983543595E+01 -0.36578251570E+02  0.57472599948E+02  0.10566000000E+00 0. -1.
         22    1    1    0    0    0  0.10599141872E+02 -0.10260307756E+02  0.26531596001E+02  0.30356898887E+02  0.00000000000E+00 0.  1.
</event>
<event>
 5    1  0.1319298E-009  0.9118800E+02  0.7818608E-02  0.1130116E+00
         25   -1    0    0    0    0  0.00000000000E+00  0.00000000000E+00  0.99999998245E-14  0.12500000000E+03  0.12500000000E+03 0.  0.
        -13    1    3    3    0    0  0.42982842667E+02 -0.14176040547E+02 -0.36158529858E+02  0.57930435307E+02  0.10566000000E+00 0.  1.
         23    2    1    0    0    0  0.12565835492E+02 -0.42130288744E+01 -0.32196987544E+02  0.90181960985E+02  0.83189483989E+02 0.  0.
         13    1    3    3    0    0 -0.30417007175E+02  0.99630116723E+01  0.39615423137E+01  0.32251525678E+02  0.10566000000E+00 0. -1.
         22    1    1    0    0    0 -0.12565835492E+02  0.42130288744E+01  0.32196987544E+02  0.34818039015E+02  0.00000000000E+00 0.  1.
</event>
<event>
 5    1  0.1319298E-009  0.9118800E+02  0.7818608E-02  0.1130116E+00
         25   -1    0    0    0    0  0.00000000000E+00  0.00000000000E+00  0.99999998245E-14  0.12500000000E+03  0.12500000000E+03 0.  0.
        -13    1    3    3    0    0 -0.71378192858E+01  0.29685685779E+02 -0.46453489385E+02  0.55588903969E+02  0.10566000000E+00 0. -1.
         23    2    1    0    0    0 -0.69703201223E+01 -0.45137472613E+01 -0.30615646267E+02  0.93278129417E+02  0.87718483539E+02 0.  0.
         13    1    3    3    0    0  0.16749916346E+00 -0.34199433040E+02  0.15837843119E+02  0.37689225449E+02  0.10566000000E+00 0.  1.
         22    1    1    0    0    0  0.69703201223E+01  0.45137472613E+01  0.30615646267E+02  0.31721870583E+02  0.00000000000E+00 0. -1.
</event>
<event>
 5    1  0.1319298E-009  0.9118800E+02  0.7818608E-02  0.1130116E+00
         25   -1    0    0    0    0  0.00000000000E+00  0.00000000000E+00  0.99999998245E-14  0.12500000000E+03  0.12500000000E+03 0.  0.
        -13    1    3    3    0    0  0.32930650335E+02 -0.52578470500E+01  0.27618983212E+02  0.43300024074E+02  0.10566000000E+00 0.  1.
         23    2    1    0    0    0  0.73467262694E+01 -0.10140051132E+02 -0.22197356612E+02  0.99514363567E+02  0.96195586655E+02 0.  0.
         13    1    3    3    0    0 -0.25583924066E+02 -0.48822040818E+01 -0.49816339823E+02  0.56214339494E+02  0.10566000000E+00 0. -1.
         22    1    1    0    0    0 -0.73467262694E+01  0.10140051132E+02  0.22197356612E+02  0.25485636433E+02  0.00000000000E+00 0. -1.
</event>
<event>
 5    1  0.1319298E-009  0.9118800E+02  0.7818608E-02  0.1130116E+00
         25   -1    0    0    0    0  0.00000000000E+00  0.00000000000E+00  0.99999998245E-14  0.12500000000E+03  0.12500000000E+03 0.  0.
        -13    1    3    3    0    0  0.69822197490E-01  0.34250512008E+02 -0.31590925585E+01  0.34396125912E+02  0.10566000000E+00 0.  1.
         23    2    1    0    0    0 -0.14691219085E+02 -0.23650246361E+02  0.96998401210E+01  0.95516903665E+02  0.90852770548E+02 0.  0.
         13    1    3    3    0    0 -0.14761041282E+02 -0.57900758369E+02  0.12858932680E+02  0.61120777753E+02  0.10566000000E+00 0. -1.
         22    1    1    0    0    0  0.14691219085E+02  0.23650246361E+02 -0.96998401210E+01  0.29483096335E+02  0.00000000000E+00 0. -1.
</event>
<event>
 5    1  0.1319298E-009  0.9118800E+02  0.7818608E-02  0.1130116E+00
         25   -1    0    0    0    0  0.00000000000E+00  0.00000000000E+00  0.99999998245E-14  0.12500000000E+03  0.12500000000E+03 0.  0.
        -13    1    3    3    0    0 -0.35541618907E+02 -0.16200329245E+02 -0.45688567317E+02  0.60109181410E+02  0.10566000000E+00 0.  1.
         23    2    1    0    0    0 -0.24831992556E+02  0.11012863530E+01 -0.18772781135E+02  0.93851035371E+02  0.88531117934E+02 0.  0.
         13    1    3    3    0    0  0.10709626351E+02  0.17301615598E+02  0.26915786183E+02  0.33741853961E+02  0.10566000000E+00 0. -1.
         22    1    1    0    0    0  0.24831992556E+02 -0.11012863530E+01  0.18772781135E+02  0.31148964629E+02  0.00000000000E+00 0.  1.
</event>
<event>
 5    1  0.1319298E-009  0.9118800E+02  0.7818608E-02  0.1130116E+00
         25   -1    0    0    0    0  0.00000000000E+00  0.00000000000E+00  0.99999998245E-14  0.12500000000E+03  0.12500000000E+03 0.  0.
        -13    1    3    3    0    0  0.21917492916E+02  0.27081316390E+01 -0.26340243867E+02  0.34373392089E+02  0.10566000000E+00 0.  1.
         23    2    1    0    0    0 -0.16191348905E+02 -0.19499216410E+02  0.15600891594E+02  0.95238161373E+02  0.90468449435E+02 0.  0.
         13    1    3    3    0    0 -0.38108841821E+02 -0.22207348049E+02  0.41941135460E+02  0.60864769284E+02  0.10566000000E+00 0. -1.
         22    1    1    0    0    0  0.16191348905E+02  0.19499216410E+02 -0.15600891594E+02  0.29761838627E+02  0.00000000000E+00 0. -1.
</event>
<event>
 5    1  0.1319298E-009  0.9118800E+02  0.7818608E-02  0.1130116E+00
         25   -1    0    0    0    0  0.00000000000E+00  0.00000000000E+00  0.99999998245E-14  0.12500000000E+03  0.12500000000E+03 0.  0.
        -13    1    3    3    0    0 -0.10774157012E+02 -0.39650799733E+02  0.14772783585E+01  0.41115227035E+02  0.10566000000E+00 0.  1.
         23    2    1    0    0    0 -0.17872251582E+02  0.12571502092E+02  0.18363997962E+02  0.96457111873E+02  0.92137277843E+02 0.  0.
         13    1    3    3    0    0 -0.70980945701E+01  0.52222301825E+02  0.16886719604E+02  0.55341884838E+02  0.10566000000E+00 0. -1.
         22    1    1    0    0    0  0.17872251582E+02 -0.12571502092E+02 -0.18363997962E+02  0.28542888127E+02  0.00000000000E+00 0. -1.
</event>
<event>
 5    1  0.1319298E-009  0.9118800E+02  0.7818608E-02  0.1130116E+00
         25   -1    0    0    0    0  0.00000000000E+00  0.00000000000E+00  0.99999998245E-14  0.12500000000E+03  0.12500000000E+03 0.  0.
        -13    1    3    3    0    0  0.39322082124E+01 -0.90609575318E+01 -0.48420266126E+02  0.49417573277E+02  0.10566000000E+00 0.  1.
         23    2    1    0    0    0  0.25793699593E+02 -0.17659040285E+02 -0.14846286935E+02  0.90394091860E+02  0.83507622197E+02 0.  0.
         13    1    3    3    0    0  0.21861491380E+02 -0.85980827531E+01  0.33573979191E+02  0.40976518583E+02  0.10566000000E+00 0. -1.
         22    1    1    0    0    0 -0.25793699593E+02  0.17659040285E+02  0.14846286935E+02  0.34605908140E+02  0.00000000000E+00 0.  1.
</event>
<event>
 5    1  0.1319298E-009  0.9118800E+02  0.7818608E-02  0.1130116E+00
         25   -1    0    0    0    0  0.00000000000E+00  0.00000000000E+00  0.99999998245E-14  0.12500000000E+03  0.12500000000E+03 0.  0.
        -13    1    3    3    0    0 -0.46230582089E+02 -0.51233747926E+00  0.10649654564E+02  0.47444235861E+02  0.10566000000E+00 0.  1.
         23    2    1    0    0    0 -0.13514271499E+02 -0.10089617911E+02 -0.23748126559E+02  0.95872531198E+02  0.91340751035E+02 0.  0.
         13    1    3    3    0    0  0.32716310590E+02 -0.95772804313E+01 -0.34397781123E+02  0.48428295338E+02  0.10566000000E+00 0. -1.
         22    1    1    0    0    0  0.13514271499E+02  0.10089617911E+02  0.23748126559E+02  0.29127468802E+02  0.00000000000E+00 0. -1.
</event>
<event>
 5    1  0.1319298E-009  0.9118800E+02  0.7818608E-02  0.1130116E+00
         25   -1    0    0    0    0  0.00000000000E+00  0.00000000000E+00  0.99999998245E-14  0.12500000000E+03  0.12500000000E+03 0.  0.
        -13    1    3    3    0    0 -0.79873459316E+01 -0.16730414023E+01  0.39558997883E+02  0.40392106161E+02  0.10566000000E+00 0. -1.
         23    2    1    0    0    0 -0.26481539937E+02  0.15976075725E+02 -0.68011317747E+01  0.93333576987E+02  0.87797461505E+02 0.  0.
         13    1    3    3    0    0 -0.18494194006E+02  0.17649117127E+02 -0.46360129658E+02  0.52941470826E+02  0.10566000000E+00 0.  1.
         22    1    1    0    0    0  0.26481539937E+02 -0.15976075725E+02  0.68011317747E+01  0.31666423013E+02  0.00000000000E+00 0.  1.
</event>
<event>
 5    1  0.1319298E-009  0.9118800E+02  0.7818608E-02  0.1130116E+00
         25   -1    0    0    0    0  0.00000000000E+00  0.00000000000E+00  0.99999998245E-14  0.12500000000E+03  0.12500000000E+03 0.  0.
        -13    1    3    3    0    0 -0.10295725218E+02 -0.19457013067E+02 -0.24979646928E+02  0.33295213469E+02  0.10566000000E+00 0.  1.
         23    2    1    0    0    0  0.15459110564E+01  0.24279722594E+02  0.17203699608E+02  0.95202985880E+02  0.90419834495E+02 0.  0.
         13    1    3    3    0    0  0.11841636274E+02  0.43736735661E+02  0.42183346536E+02  0.61907772412E+02  0.10566000000E+00 0. -1.
         22    1    1    0    0    0 -0.15459110564E+01 -0.24279722594E+02 -0.17203699608E+02  0.29797014120E+02  0.00000000000E+00 0. -1.
</event>
<event>
 5    1  0.1319298E-009  0.9118800E+02  0.7818608E-02  0.1130116E+00
         25   -1    0    0    0    0  0.00000000000E+00  0.00000000000E+00  0.99999998245E-14  0.12500000000E+03  0.12500000000E+03 0.  0.
        -13    1    3    3    0    0  0.10106883788E+02  0.45829080752E+02 -0.52776945764E+00  0.46933393731E+02  0.10566000000E+00 0.  1.
         23    2    1    0    0    0 -0.33171470880E+01  0.12893489084E+02  0.28955068570E+02  0.93130868832E+02  0.87508383643E+02 0.  0.
         13    1    3    3    0    0 -0.13424030876E+02 -0.32935591668E+02  0.29482838027E+02  0.46197475101E+02  0.10566000000E+00 0. -1.
         22    1    1    0    0    0  0.33171470880E+01 -0.12893489084E+02 -0.28955068570E+02  0.31869131168E+02  0.00000000000E+00 0.  1.
</event>
<event>
 5    1  0.1319298E-009  0.9118800E+02  0.7818608E-02  0.1130116E+00
         25   -1    0    0    0    0  0.00000000000E+00  0.00000000000E+00  0.99999998245E-14  0.12500000000E+03  0.12500000000E+03 0.  0.
        -13    1    3    3    0    0  0.87593421911E+01 -0.85673693697E+01  0.32391748540E+02  0.34631812414E+02  0.10566000000E+00 0.  1.
         23    2    1    0    0    0 -0.71324808217E+01  0.23145082899E+02 -0.16977484005E+02  0.95422946255E+02  0.90723406924E+02 0.  0.
         13    1    3    3    0    0 -0.15891823013E+02  0.31712452269E+02 -0.49369232546E+02  0.60791133841E+02  0.10566000000E+00 0. -1.
         22    1    1    0    0    0  0.71324808217E+01 -0.23145082899E+02  0.16977484005E+02  0.29577053745E+02  0.00000000000E+00 0. -1.
</event>
<event>
 5    1  0.1319298E-009  0.9118800E+02  0.7818608E-02  0.1130116E+00
         25   -1    0    0    0    0  0.00000000000E+00  0.00000000000E+00  0.99999998245E-14  0.12500000000E+03  0.12500000000E+03 0.  0.
        -13    1    3    3    0    0  0.32800753822E+02  0.27448339146E+02  0.39785384973E+02  0.58413943495E+02  0.10566000000E+00 0.  1.
         23    2    1    0    0    0  0.16348318992E+01  0.13301284673E+02  0.26827691023E+02  0.95011304548E+02  0.90154457112E+02 0.  0.
         13    1    3    3    0    0 -0.31165921923E+02 -0.14147054473E+02 -0.12957693950E+02  0.36597361054E+02  0.10566000000E+00 0. -1.
         22    1    1    0    0    0 -0.16348318992E+01 -0.13301284673E+02 -0.26827691023E+02  0.29988695452E+02  0.00000000000E+00 0. -1.
</event>
<event>
 5    1  0.1319298E-009  0.9118800E+02  0.7818608E-02  0.1130116E+00
         25   -1    0    0    0    0  0.00000000000E+00  0.00000000000E+00  0.99999998245E-14  0.12500000000E+03  0.12500000000E+03 0.  0.
        -13    1    3    3    0    0  0.48160676875E+01  0.14555542833E+02  0.33237845787E+02  0.36603604901E+02  0.10566000000E+00 0. -1.
         23    2    1    0    0    0 -0.23718875088E+02  0.89314716796E+01 -0.16879600240E+02  0.94548774638E+02  0.89510857774E+02 0.  0.
         13    1    3    3    0    0 -0.28534942775E+02 -0.56240711539E+01 -0.50117446027E+02  0.57945169737E+02  0.10566000000E+00 0.  1.
         22    1    1    0    0    0  0.23718875088E+02 -0.89314716796E+01  0.16879600240E+02  0.30451225362E+02  0.00000000000E+00 0.  1.
</event>
<event>
 5    1  0.1319298E-009  0.9118800E+02  0.7818608E-02  0.1130116E+00
         25   -1    0    0    0    0  0.00000000000E+00  0.00000000000E+00  0.99999998245E-14  0.12500000000E+03  0.12500000000E+03 0.  0.
        -13    1    3    3    0    0 -0.32295857577E+01  0.12159010170E+02 -0.49841451967E+02  0.51404797935E+02  0.10566000000E+00 0. -1.
         23    2    1    0    0    0  0.86914675696E+01 -0.18914103945E+02 -0.20753046651E+02  0.95606567369E+02  0.90976050927E+02 0.  0.
         13    1    3    3    0    0  0.11921053327E+02 -0.31073114114E+02  0.29088405317E+02  0.44201769434E+02  0.10566000000E+00 0.  1.
         22    1    1    0    0    0 -0.86914675696E+01  0.18914103945E+02  0.20753046651E+02  0.29393432631E+02  0.00000000000E+00 0. -1.
</event>
<event>
 5    1  0.1319298E-009  0.9118800E+02  0.7818608E-02  0.1130116E+00
         25   -1    0    0    0    0  0.00000000000E+00  0.00000000000E+00  0.99999998245E-14  0.12500000000E+03  0.12500000000E+03 0.  0.
        -13    1    3    3    0    0 -0.22531390184E+02  0.14662855838E+02  0.20702665001E+02  0.33930434526E+02  0.10566000000E+00 0. -1.
         23    2    1    0    0    0  0.84246211229E+01 -0.31323754494E+02  0.17498897964E+01  0.92515943126E+02  0.86625549242E+02 0.  0.
         13    1    3    3    0    0  0.30956011307E+02 -0.45986610333E+02 -0.18952775205E+02  0.58585508600E+02  0.10566000000E+00 0.  1.
         22    1    1    0    0    0 -0.84246211229E+01  0.31323754494E+02 -0.17498897964E+01  0.32484056874E+02  0.00000000000E+00 0. -1.
</event>
<event>
 5    1  0.1319298E-009  0.9118800E+02  0.7818608E-02  0.1130116E+00
         25   -1    0    0    0    0  0.00000000000E+00  0.00000000000E+00  0.99999998245E-14  0.12500000000E+03  0.12500000000E+03 0.  0.
        -13    1    3    3    0    0 -0.15712075757E+02 -0.21970253239E+02 -0.35983028583E+02  0.44992786778E+02  0.10566000000E+00 0.  1.
         23    2    1    0    0    0 -0.14213417619E+02  0.22682729609E+02 -0.14211045657E+02  0.94693543896E+02  0.89712797158E+02 0.  0.
         13    1    3    3    0    0  0.14986581382E+01  0.44652982849E+02  0.21771982927E+02  0.49700757118E+02  0.10566000000E+00 0. -1.
         22    1    1    0    0    0  0.14213417619E+02 -0.22682729609E+02  0.14211045657E+02  0.30306456104E+02  0.00000000000E+00 0.  1.
</event>
<event>
 5    1  0.1319298E-009  0.9118800E+02  0.7818608E-02  0.1130116E+00
         25   -1    0    0    0    0  0.00000000000E+00  0.00000000000E+00  0.99999998245E-14  0.12500000000E+03  0.12500000000E+03 0.  0.
        -13    1    3    3    0    0  0.26204625584E+02  0.78221617699E+01  0.24321049312E+02  0.36597721520E+02  0.10566000000E+00 0. -1.
         23    2    1    0    0    0  0.23892460679E+01 -0.12531400178E+02 -0.26094474685E+02  0.95954069196E+02  0.91452267872E+02 0.  0.
         13    1    3    3    0    0 -0.23815379516E+02 -0.20353561948E+02 -0.50415523997E+02  0.59356347676E+02  0.10566000000E+00 0.  1.
         22    1    1    0    0    0 -0.23892460679E+01  0.12531400178E+02  0.26094474685E+02  0.29045930804E+02  0.00000000000E+00 0.  1.
</event>
<event>
 5    1  0.1319298E-009  0.9118800E+02  0.7818608E-02  0.1130116E+00
         25   -1    0    0    0    0  0.00000000000E+00  0.00000000000E+00  0.99999998245E-14  0.12500000000E+03  0.12500000000E+03 0.  0.
        -13    1    3    3    0    0  0.70477903800E+01  0.50056742898E+02 -0.54114212772E+01  0.50839389287E+02  0.10566000000E+00 0. -1.
         23    2    1    0    0    0  0.14314073987E+02  0.98764111215E+01 -0.23719554315E+02  0.95588208697E+02  0.90950822834E+02 0.  0.
         13    1    3    3    0    0  0.72662836070E+01 -0.40180331777E+02 -0.18308133038E+02  0.44748819409E+02  0.10566000000E+00 0.  1.
         22    1    1    0    0    0 -0.14314073987E+02 -0.98764111215E+01  0.23719554315E+02  0.29411791303E+02  0.00000000000E+00 0. -1.
</event>
<event>
 5    1  0.1319298E-009  0.9118800E+02  0.7818608E-02  0.1130116E+00
         25   -1    0    0    0    0  0.00000000000E+00  0.00000000000E+00  0.99999998245E-14  0.12500000000E+03  0.12500000000E+03 0.  0.
        -13    1    3    3    0    0 -0.21930145575E+02 -0.50743137706E+02  0.86595593296E+01  0.55953520363E+02  0.10566000000E+00 0.  1.
         23    2    1    0    0    0 -0.22905132418E+02 -0.11304057119E+02  0.14173799879E+02  0.95788300264E+02  0.91225408007E+02 0.  0.
         13    1    3    3    0    0 -0.97498684228E+00  0.39439080587E+02  0.55142405497E+01  0.39834779901E+02  0.10566000000E+00 0. -1.
         22    1    1    0    0    0  0.22905132418E+02  0.11304057119E+02 -0.14173799879E+02  0.29211699736E+02  0.00000000000E+00 0.  1.
</event>
<event>
 5    1  0.1319298E-009  0.9118800E+02  0.7818608E-02  0.1130116E+00
         25   -1    0    0    0    0  0.00000000000E+00  0.00000000000E+00  0.99999998245E-14  0.12500000000E+03  0.12500000000E+03 0.  0.
        -13    1    3    3    0    0  0.85505684091E+01  0.18973285164E+01  0.34155833613E+02  0.35261086334E+02  0.10566000000E+00 0.  1.
         23    2    1    0    0    0 -0.48544695250E+01 -0.15105866530E+02 -0.23384676700E+02  0.96740555873E+02  0.92521019062E+02 0.  0.
         13    1    3    3    0    0 -0.13405037934E+02 -0.17003195046E+02 -0.57540510313E+02  0.61479469540E+02  0.10566000000E+00 0. -1.
         22    1    1    0    0    0  0.48544695250E+01  0.15105866530E+02  0.23384676700E+02  0.28259444127E+02  0.00000000000E+00 0. -1.
</event>
<event>
 5    1  0.1319298E-009  0.9118800E+02  0.7818608E-02  0.1130116E+00
         25   -1    0    0    0    0  0.00000000000E+00  0.00000000000E+00  0.99999998245E-14  0.12500000000E+03  0.12500000000E+03 0.  0.
        -13    1    3    3    0    0  0.17064792301E+02  0.18546794544E+02  0.29985399776E+02  0.39170474696E+02  0.10566000000E+00 0.  1.
         23    2    1    0    0    0  0.18595877188E+02  0.16802903419E+02 -0.22266968113E+02  0.91474456296E+02  0.85109424120E+02 0.  0.
         13    1    3    3    0    0  0.15310848864E+01 -0.17438911255E+01 -0.52252367889E+02  0.52303981600E+02  0.10566000000E+00 0. -1.
         22    1    1    0    0    0 -0.18595877188E+02 -0.16802903419E+02  0.22266968113E+02  0.33525543704E+02  0.00000000000E+00 0. -1.
</event>
<event>
 5    1  0.1319298E-009  0.9118800E+02  0.7818608E-02  0.1130116E+00
         25   -1    0    0    0    0  0.00000000000E+00  0.00000000000E+00  0.99999998245E-14  0.12500000000E+03  0.12500000000E+03 0.  0.
        -13    1    3    3    0    0 -0.26365083023E+02 -0.22846293654E+02  0.18529147389E+01  0.34935872590E+02  0.10566000000E+00 0. -1.
         23    2    1    0    0    0  0.16447884702E+02  0.20570318785E+02  0.10742931133E+02  0.96555642117E+02  0.92270854170E+02 0.  0.
         13    1    3    3    0    0  0.42812967725E+02  0.43416612439E+02  0.88900163943E+01  0.61619769527E+02  0.10566000000E+00 0.  1.
         22    1    1    0    0    0 -0.16447884702E+02 -0.20570318785E+02 -0.10742931133E+02  0.28444357883E+02  0.00000000000E+00 0.  1.
</event>
<event>
 5    1  0.1319298E-009  0.9118800E+02  0.7818608E-02  0.1130116E+00
         25   -1    0    0    0    0  0.00000000000E+00  0.00000000000E+00  0.99999998245E-14  0.12500000000E+03  0.12500000000E+03 0.  0.
        -13    1    3    3    0    0 -0.45572624117E+02  0.68221621972E+00  0.17275728640E+02  0.48742091174E+02  0.10566000000E+00 0.  1.
         23    2    1    0    0    0 -0.33402660112E+01 -0.21357052391E+02  0.18724266956E+02  0.96401411977E+02  0.92061680379E+02 0.  0.
         13    1    3    3    0    0  0.42232358106E+02 -0.22039268611E+02  0.14485383165E+01  0.47659320803E+02  0.10566000000E+00 0. -1.
         22    1    1    0    0    0  0.33402660112E+01  0.21357052391E+02 -0.18724266956E+02  0.28598588023E+02  0.00000000000E+00 0.  1.
</event>
<event>
 5    1  0.1319298E-009  0.9118800E+02  0.7818608E-02  0.1130116E+00
         25   -1    0    0    0    0  0.00000000000E+00  0.00000000000E+00  0.99999998245E-14  0.12500000000E+03  0.12500000000E+03 0.  0.
        -13    1    3    3    0    0 -0.32131160478E+02 -0.19612578355E+02  0.83928574387E+01  0.38568327983E+02  0.10566000000E+00 0. -1.
         23    2    1    0    0    0  0.25278384215E+02 -0.12404810584E+02  0.23180886580E+01  0.96746689235E+02  0.92529305135E+02 0.  0.
         13    1    3    3    0    0  0.57409544693E+02  0.72077677715E+01 -0.60747687807E+01  0.58178361252E+02  0.10566000000E+00 0.  1.
         22    1    1    0    0    0 -0.25278384215E+02  0.12404810584E+02 -0.23180886580E+01  0.28253310765E+02  0.00000000000E+00 0.  1.
</event>
<event>
 5    1  0.1319298E-009  0.9118800E+02  0.7818608E-02  0.1130116E+00
         25   -1    0    0    0    0  0.00000000000E+00  0.00000000000E+00  0.99999998245E-14  0.12500000000E+03  0.12500000000E+03 0.  0.
        -13    1    3    3    0    0 -0.18781924093E+02  0.15440441176E+02 -0.41739567884E+02  0.48304974770E+02  0.10566000000E+00 0. -1.
         23    2    1    0    0    0 -0.40730685625E-01  0.28896554317E+02  0.12158534263E+00  0.96103161187E+02  0.91655825220E+02 0.  0.
         13    1    3    3    0    0  0.18741193408E+02  0.13456113142E+02  0.41861153227E+02  0.47798186417E+02  0.10566000000E+00 0.  1.
         22    1    1    0    0    0  0.40730685625E-01 -0.28896554317E+02 -0.12158534263E+00  0.28896838813E+02  0.00000000000E+00 0. -1.
</event>
<event>
 5    1  0.1319298E-009  0.9118800E+02  0.7818608E-02  0.1130116E+00
         25   -1    0    0    0    0  0.00000000000E+00  0.00000000000E+00  0.99999998245E-14  0.12500000000E+03  0.12500000000E+03 0.  0.
        -13    1    3    3    0    0  0.15552839854E+02  0.24972026029E+02 -0.14861735145E+02  0.32960207024E+02  0.10566000000E+00 0. -1.
         23    2    1    0    0    0 -0.26548737351E+02 -0.15145776078E+02  0.41736129026E+01  0.94151190743E+02  0.88953907647E+02 0.  0.
         13    1    3    3    0    0 -0.42101577205E+02 -0.40117802108E+02  0.19035348048E+02  0.61190983718E+02  0.10566000000E+00 0.  1.
         22    1    1    0    0    0  0.26548737351E+02  0.15145776078E+02 -0.41736129026E+01  0.30848809257E+02  0.00000000000E+00 0.  1.
</event>
<event>
 5    1  0.1319298E-009  0.9118800E+02  0.7818608E-02  0.1130116E+00
         25   -1    0    0    0    0  0.00000000000E+00  0.00000000000E+00  0.99999998245E-14  0.12500000000E+03  0.12500000000E+03 0.  0.
        -13    1    3    3    0    0 -0.25349608399E+02  0.41670813940E+01  0.31786787683E+02  0.40870261176E+02  0.10566000000E+00 0.  1.
         23    2    1    0    0    0  0.51734650669E+01 -0.27759757543E+02 -0.23074002358E+01  0.96668163217E+02  0.92423161623E+02 0.  0.
         13    1    3    3    0    0  0.30523073466E+02 -0.31926838937E+02 -0.34094187919E+02  0.55797902041E+02  0.10566000000E+00 0. -1.
         22    1    1    0    0    0 -0.51734650669E+01  0.27759757543E+02  0.23074002358E+01  0.28331836783E+02  0.00000000000E+00 0. -1.
</event>
<event>
 5    1  0.1319298E-009  0.9118800E+02  0.7818608E-02  0.1130116E+00
         25   -1    0    0    0    0  0.00000000000E+00  0.00000000000E+00  0.99999998245E-14  0.12500000000E+03  0.12500000000E+03 0.  0.
        -13    1    3    3    0    0  0.22722581946E+02  0.21147910089E+02 -0.17011794068E+02  0.35397205156E+02  0.10566000000E+00 0. -1.
         23    2    1    0    0    0 -0.63048262515E+01 -0.28594752620E+02  0.88010824495E+00  0.95705200086E+02  0.91111470307E+02 0.  0.
         13    1    3    3    0    0 -0.29027408197E+02 -0.49742662709E+02  0.17891902313E+02  0.60307994930E+02  0.10566000000E+00 0.  1.
         22    1    1    0    0    0  0.63048262515E+01  0.28594752620E+02 -0.88010824495E+00  0.29294799914E+02  0.00000000000E+00 0.  1.
</event>
<event>
 5    1  0.1319298E-009  0.9118800E+02  0.7818608E-02  0.1130116E+00
         25   -1    0    0    0    0  0.00000000000E+00  0.00000000000E+00  0.99999998245E-14  0.12500000000E+03  0.12500000000E+03 0.  0.
        -13    1    3    3    0    0  0.35524688243E+02 -0.73267788984E+01  0.55523523713E+01  0.36695026157E+02  0.10566000000E+00 0.  1.
         23    2    1    0    0    0  0.85554438971E+01  0.32726536074E+01 -0.36278837624E+02  0.87582625142E+02  0.79187475560E+02 0.  0.
         13    1    3    3    0    0 -0.26969244345E+02  0.10599432506E+02 -0.41831189995E+02  0.50887598985E+02  0.10566000000E+00 0. -1.
         22    1    1    0    0    0 -0.85554438971E+01 -0.32726536074E+01  0.36278837624E+02  0.37417374858E+02  0.00000000000E+00 0. -1.
</event>
<event>
 4    1  0.1319298E-009  0.9118800E+02  0.7818608E-02  0.1130116E+00
         25   -1    0    0    0    0  0.00000000000E+00  0.00000000000E+00  0.99999998245E-14  0.12500000000E+03  0.12500000000E+03 0.  0.
        -13    1    1    0    0    0  0.16028422552E+01  0.12804026773E+01 -0.72444845170E+01  0.75300899240E+01  0.10566000000E+00 0.  1.
         13    1    1    0    0    0  0.25267443513E+02  0.31533045372E+02  0.45147565986E+02  0.60589524925E+02  0.10566000000E+00 0. -1.
         22    1    1    0    0    0 -0.26870285768E+02 -0.32813448049E+02 -0.37903081469E+02  0.56880385151E+02  0.00000000000E+00 0. -1.
</event>
<event>
 5    1  0.1319298E-009  0.9118800E+02  0.7818608E-02  0.1130116E+00
         25   -1    0    0    0    0  0.00000000000E+00  0.00000000000E+00  0.99999998245E-14  0.12500000000E+03  0.12500000000E+03 0.  0.
        -13    1    3    3    0    0  0.34551766051E+02 -0.23893258355E+02  0.40514360305E+02  0.58362118596E+02  0.10566000000E+00 0. -1.
         23    2    1    0    0    0  0.24479183951E+02  0.23677006931E+01  0.16113736608E+02  0.95597806869E+02  0.90964013309E+02 0.  0.
         13    1    3    3    0    0 -0.10072582100E+02  0.26260959048E+02 -0.24400623697E+02  0.37235688273E+02  0.10566000000E+00 0.  1.
         22    1    1    0    0    0 -0.24479183951E+02 -0.23677006931E+01 -0.16113736608E+02  0.29402193131E+02  0.00000000000E+00 0. -1.
</event>
<event>
 5    1  0.1319298E-009  0.9118800E+02  0.7818608E-02  0.1130116E+00
         25   -1    0    0    0    0  0.00000000000E+00  0.00000000000E+00  0.99999998245E-14  0.12500000000E+03  0.12500000000E+03 0.  0.
        -13    1    3    3    0    0  0.35691068493E+02  0.58215850508E+01  0.17177140413E+01  0.36203659045E+02  0.10566000000E+00 0. -1.
         23    2    1    0    0    0 -0.22450092554E+02  0.12364272732E+02 -0.12603351925E+02  0.96439076072E+02  0.92112805939E+02 0.  0.
         13    1    3    3    0    0 -0.58141161047E+02  0.65426876814E+01 -0.14321065966E+02  0.60235417027E+02  0.10566000000E+00 0.  1.
         22    1    1    0    0    0  0.22450092554E+02 -0.12364272732E+02  0.12603351925E+02  0.28560923928E+02  0.00000000000E+00 0.  1.
</event>
<event>
 5    1  0.1319298E-009  0.9118800E+02  0.7818608E-02  0.1130116E+00
         25   -1    0    0    0    0  0.00000000000E+00  0.00000000000E+00  0.99999998245E-14  0.12500000000E+03  0.12500000000E+03 0.  0.
        -13    1    3    3    0    0 -0.44156877968E+02 -0.95086498618E+01 -0.41585884431E+02  0.61397404196E+02  0.10566000000E+00 0. -1.
         23    2    1    0    0    0 -0.26822740929E+02 -0.44907859936E+01 -0.13868117774E+02  0.94472122898E+02  0.89403751177E+02 0.  0.
         13    1    3    3    0    0  0.17334137039E+02  0.50178638682E+01  0.27717766657E+02  0.33074718702E+02  0.10566000000E+00 0.  1.
         22    1    1    0    0    0  0.26822740929E+02  0.44907859936E+01  0.13868117774E+02  0.30527877102E+02  0.00000000000E+00 0. -1.
</event>
<event>
 5    1  0.1319298E-009  0.9118800E+02  0.7818608E-02  0.1130116E+00
         25   -1    0    0    0    0  0.00000000000E+00  0.00000000000E+00  0.99999998245E-14  0.12500000000E+03  0.12500000000E+03 0.  0.
        -13    1    3    3    0    0  0.45782423251E+02  0.41342905214E+02  0.95757086511E+01  0.62425727473E+02  0.10566000000E+00 0.  1.
         23    2    1    0    0    0  0.24355339558E+02  0.24013387721E+02  0.68488995228E+01  0.90118303087E+02  0.83093776974E+02 0.  0.
         13    1    3    3    0    0 -0.21427083693E+02 -0.17329517493E+02 -0.27268091283E+01  0.27692575615E+02  0.10566000000E+00 0. -1.
         22    1    1    0    0    0 -0.24355339558E+02 -0.24013387721E+02 -0.68488995228E+01  0.34881696913E+02  0.00000000000E+00 0.  1.
</event>
<event>
 5    1  0.1319298E-009  0.9118800E+02  0.7818608E-02  0.1130116E+00
         25   -1    0    0    0    0  0.00000000000E+00  0.00000000000E+00  0.99999998245E-14  0.12500000000E+03  0.12500000000E+03 0.  0.
        -13    1    3    3    0    0  0.64538201223E+01  0.46277309866E+02 -0.24296560778E+02  0.52664743731E+02  0.10566000000E+00 0. -1.
         23    2    1    0    0    0  0.17951707248E+02  0.44981838774E+01 -0.22269112247E+02  0.96044675592E+02  0.91576027966E+02 0.  0.
         13    1    3    3    0    0  0.11497887126E+02 -0.41779125988E+02  0.20274485312E+01  0.43379931861E+02  0.10566000000E+00 0.  1.
         22    1    1    0    0    0 -0.17951707248E+02 -0.44981838774E+01  0.22269112247E+02  0.28955324408E+02  0.00000000000E+00 0. -1.
</event>
<event>
 5    1  0.1319298E-009  0.9118800E+02  0.7818608E-02  0.1130116E+00
         25   -1    0    0    0    0  0.00000000000E+00  0.00000000000E+00  0.99999998245E-14  0.12500000000E+03  0.12500000000E+03 0.  0.
        -13    1    3    3    0    0 -0.21296345652E+02 -0.28157974577E+02 -0.21797386092E+02  0.41491481956E+02  0.10566000000E+00 0.  1.
         23    2    1    0    0    0  0.96639476024E+01 -0.16221214753E+02  0.21722536125E+02  0.96218265045E+02  0.91812669394E+02 0.  0.
         13    1    3    3    0    0  0.30960293255E+02  0.11936759824E+02  0.43519922217E+02  0.54726783089E+02  0.10566000000E+00 0. -1.
         22    1    1    0    0    0 -0.96639476024E+01  0.16221214753E+02 -0.21722536125E+02  0.28781734955E+02  0.00000000000E+00 0. -1.
</event>
<event>
 5    1  0.1319298E-009  0.9118800E+02  0.7818608E-02  0.1130116E+00
         25   -1    0    0    0    0  0.00000000000E+00  0.00000000000E+00  0.99999998245E-14  0.12500000000E+03  0.12500000000E+03 0.  0.
        -13    1    3    3    0    0  0.34277351941E+01  0.32213423045E+02  0.15270914055E+02  0.35814326365E+02  0.10566000000E+00 0. -1.
         23    2    1    0    0    0  0.12405914860E+02 -0.25473658093E+02  0.11824658703E+02  0.94297613553E+02  0.89159426805E+02 0.  0.
         13    1    3    3    0    0  0.89781796655E+01 -0.57687081138E+02 -0.34462553522E+01  0.58483287188E+02  0.10566000000E+00 0.  1.
         22    1    1    0    0    0 -0.12405914860E+02  0.25473658093E+02 -0.11824658703E+02  0.30702386447E+02  0.00000000000E+00 0. -1.
</event>
<event>
 5    1  0.1319298E-009  0.9118800E+02  0.7818608E-02  0.1130116E+00
         25   -1    0    0    0    0  0.00000000000E+00  0.00000000000E+00  0.99999998245E-14  0.12500000000E+03  0.12500000000E+03 0.  0.
        -13    1    3    3    0    0  0.15447084371E+02 -0.19491416146E+02  0.53501723470E+02  0.58999773705E+02  0.10566000000E+00 0. -1.
         23    2    1    0    0    0  0.18132961942E+02 -0.16488450171E+02  0.18346709553E+02  0.94385051866E+02  0.89281929675E+02 0.  0.
         13    1    3    3    0    0  0.26858775716E+01  0.30029659755E+01 -0.35155013917E+02  0.35385278161E+02  0.10566000000E+00 0.  1.
         22    1    1    0    0    0 -0.18132961942E+02  0.16488450171E+02 -0.18346709553E+02  0.30614948134E+02  0.00000000000E+00 0. -1.
</event>
<event>
 5    1  0.1319298E-009  0.9118800E+02  0.7818608E-02  0.1130116E+00
         25   -1    0    0    0    0  0.00000000000E+00  0.00000000000E+00  0.99999998245E-14  0.12500000000E+03  0.12500000000E+03 0.  0.
        -13    1    3    3    0    0  0.10028891191E+02 -0.43494547857E+02  0.12638419834E+02  0.46390679794E+02  0.10566000000E+00 0. -1.
         23    2    1    0    0    0 -0.26575018706E+02 -0.11464754867E+02  0.42835388341E+01  0.95742164668E+02  0.91162169604E+02 0.  0.
         13    1    3    3    0    0 -0.36603909897E+02  0.32029792990E+02 -0.83548809998E+01  0.49351484874E+02  0.10566000000E+00 0.  1.
         22    1    1    0    0    0  0.26575018706E+02  0.11464754867E+02 -0.42835388341E+01  0.29257835332E+02  0.00000000000E+00 0.  1.
</event>
<event>
 5    1  0.1319298E-009  0.9118800E+02  0.7818608E-02  0.1130116E+00
         25   -1    0    0    0    0  0.00000000000E+00  0.00000000000E+00  0.99999998245E-14  0.12500000000E+03  0.12500000000E+03 0.  0.
        -13    1    3    3    0    0  0.69786214281E+01  0.20138367639E+02 -0.32558819732E+02  0.38914559160E+02  0.10566000000E+00 0. -1.
         23    2    1    0    0    0 -0.39008213128E+01  0.18929045245E+02  0.22665408242E+02  0.95213326947E+02  0.90434129269E+02 0.  0.
         13    1    3    3    0    0 -0.10879442741E+02 -0.12093223937E+01  0.55224227974E+02  0.56298767787E+02  0.10566000000E+00 0.  1.
         22    1    1    0    0    0  0.39008213128E+01 -0.18929045245E+02 -0.22665408242E+02  0.29786673053E+02  0.00000000000E+00 0.  1.
</event>
