<event>
 5    1  0.6690694E-004  0.9118800E+02  0.7818608E-02  0.1130116E+00
         25   -1    0    0    0    0  0.00000000000E+00  0.00000000000E+00  0.99999998245E-14  0.12500000000E+03  0.12500000000E+03 0.  0.
        -11    1    3    3    0    0  0.20816839852E+02  0.19571164997E+02  0.17659687904E+02  0.33589222943E+02  0.51100000000E-03 0. -1.
         23    2    1    0    0    0 -0.23916355976E+02 -0.86192994071E+01 -0.14752124519E+02  0.95607661146E+02  0.90977553751E+02 0.  0.
         11    1    3    3    0    0 -0.44733195828E+02 -0.28190464404E+02 -0.32411812424E+02  0.62018438203E+02  0.51100000000E-03 0.  1.
         22    1    1    0    0    0  0.23916355976E+02  0.86192994071E+01  0.14752124519E+02  0.29392338854E+02  0.00000000000E+00 0.  1.
</event>
<event>
 5    1  0.6690694E-004  0.9118800E+02  0.7818608E-02  0.1130116E+00
         25   -1    0    0    0    0  0.00000000000E+00  0.00000000000E+00  0.99999998245E-14  0.12500000000E+03  0.12500000000E+03 0.  0.
        -11    1    3    3    0    0 -0.70164096693E+01 -0.49592573873E+02 -0.25569293892E+02  0.56235595296E+02  0.51100000000E-03 0. -1.
         23    2    1    0    0    0  0.14845714498E+02 -0.25230815905E+02 -0.39579862286E+01  0.95459266001E+02  0.90773434992E+02 0.  0.
         11    1    3    3    0    0  0.21862124167E+02  0.24361757968E+02  0.21611307663E+02  0.39223670705E+02  0.51100000000E-03 0.  1.
         22    1    1    0    0    0 -0.14845714498E+02  0.25230815905E+02  0.39579862286E+01  0.29540733999E+02  0.00000000000E+00 0. -1.
</event>
<event>
 5    1  0.6690694E-004  0.9118800E+02  0.7818608E-02  0.1130116E+00
         25   -1    0    0    0    0  0.00000000000E+00  0.00000000000E+00  0.99999998245E-14  0.12500000000E+03  0.12500000000E+03 0.  0.
        -11    1    3    3    0    0  0.34886050468E+02 -0.32763427713E+02 -0.97206200149E+00  0.47868816755E+02  0.51100000000E-03 0.  1.
         23    2    1    0    0    0  0.20504799530E+02  0.95637438930E+01 -0.18387604006E+02  0.95844966436E+02  0.91303020810E+02 0.  0.
         11    1    3    3    0    0 -0.14381250938E+02  0.42327171606E+02 -0.17415542005E+02  0.47976149681E+02  0.51100000000E-03 0. -1.
         22    1    1    0    0    0 -0.20504799530E+02 -0.95637438930E+01  0.18387604006E+02  0.29155033564E+02  0.00000000000E+00 0.  1.
</event>
<event>
 5    1  0.6690694E-004  0.9118800E+02  0.7818608E-02  0.1130116E+00
         25   -1    0    0    0    0  0.00000000000E+00  0.00000000000E+00  0.99999998245E-14  0.12500000000E+03  0.12500000000E+03 0.  0.
        -11    1    3    3    0    0 -0.19652541648E+02 -0.72669510098E+01 -0.37155987547E+02  0.42656750709E+02  0.51100000000E-03 0.  1.
         23    2    1    0    0    0 -0.25479202953E+02 -0.60705029262E+01  0.14775298623E+02  0.94927583431E+02  0.90038302171E+02 0.  0.
         11    1    3    3    0    0 -0.58266613054E+01  0.11964480836E+01  0.51931286170E+02  0.52270832722E+02  0.51100000000E-03 0. -1.
         22    1    1    0    0    0  0.25479202953E+02  0.60705029262E+01 -0.14775298623E+02  0.30072416569E+02  0.00000000000E+00 0. -1.
</event>
<event>
 5    1  0.6690694E-004  0.9118800E+02  0.7818608E-02  0.1130116E+00
         25   -1    0    0    0    0  0.00000000000E+00  0.00000000000E+00  0.99999998245E-14  0.12500000000E+03  0.12500000000E+03 0.  0.
        -11    1    3    3    0    0  0.48477198209E+02  0.30301366413E+02 -0.75050374126E+00  0.57173200092E+02  0.51100000000E-03 0. -1.
         23    2    1    0    0    0  0.28983964074E+02 -0.11216573402E+01 -0.81211472335E+01  0.94878889114E+02  0.89970674547E+02 0.  0.
         11    1    3    3    0    0 -0.19493234135E+02 -0.31423023754E+02 -0.73706434922E+01  0.37705689022E+02  0.51100000000E-03 0.  1.
         22    1    1    0    0    0 -0.28983964074E+02  0.11216573402E+01  0.81211472335E+01  0.30121110886E+02  0.00000000000E+00 0. -1.
</event>
<event>
 5    1  0.6690694E-004  0.9118800E+02  0.7818608E-02  0.1130116E+00
         25   -1    0    0    0    0  0.00000000000E+00  0.00000000000E+00  0.99999998245E-14  0.12500000000E+03  0.12500000000E+03 0.  0.
        -11    1    3    3    0    0 -0.95063971834E+01 -0.37685891750E+02  0.21998821426E+02  0.44660342238E+02  0.51100000000E-03 0.  1.
         23    2    1    0    0    0 -0.52127247642E+01 -0.19333631438E+02  0.45796186768E+02  0.75017477790E+02  0.55940767312E+02 0.  0.
         11    1    3    3    0    0  0.42936724192E+01  0.18352260312E+02  0.23797365342E+02  0.30357135552E+02  0.51100000000E-03 0. -1.
         22    1    1    0    0    0  0.52127247642E+01  0.19333631438E+02 -0.45796186768E+02  0.49982522210E+02  0.00000000000E+00 0.  1.
</event>
<event>
 5    1  0.6690694E-004  0.9118800E+02  0.7818608E-02  0.1130116E+00
         25   -1    0    0    0    0  0.00000000000E+00  0.00000000000E+00  0.99999998245E-14  0.12500000000E+03  0.12500000000E+03 0.  0.
        -11    1    3    3    0    0  0.16651369006E+02 -0.17594391824E+02 -0.38326010052E+02  0.45339979711E+02  0.51100000000E-03 0. -1.
         23    2    1    0    0    0 -0.24878621078E+02 -0.12152355254E+02 -0.11911298100E+02  0.94858590819E+02  0.89942468861E+02 0.  0.
         11    1    3    3    0    0 -0.41529990084E+02  0.54420365695E+01  0.26414711951E+02  0.49518611109E+02  0.51100000000E-03 0.  1.
         22    1    1    0    0    0  0.24878621078E+02  0.12152355254E+02  0.11911298100E+02  0.30141409181E+02  0.00000000000E+00 0. -1.
</event>
<event>
 5    1  0.6690694E-004  0.9118800E+02  0.7818608E-02  0.1130116E+00
         25   -1    0    0    0    0  0.00000000000E+00  0.00000000000E+00  0.99999998245E-14  0.12500000000E+03  0.12500000000E+03 0.  0.
        -11    1    3    3    0    0  0.13460710401E+02  0.37883440528E+02  0.38087321500E+02  0.55380410346E+02  0.51100000000E-03 0. -1.
         23    2    1    0    0    0 -0.75197989652E+01  0.26064872043E+02  0.33241536804E+01  0.97669157920E+02  0.93767208981E+02 0.  0.
         11    1    3    3    0    0 -0.20980509367E+02 -0.11818568485E+02 -0.34763167820E+02  0.42288747575E+02  0.51100000000E-03 0.  1.
         22    1    1    0    0    0  0.75197989652E+01 -0.26064872043E+02 -0.33241536804E+01  0.27330842080E+02  0.00000000000E+00 0. -1.
</event>
<event>
 5    1  0.6690694E-004  0.9118800E+02  0.7818608E-02  0.1130116E+00
         25   -1    0    0    0    0  0.00000000000E+00  0.00000000000E+00  0.99999998245E-14  0.12500000000E+03  0.12500000000E+03 0.  0.
        -11    1    3    3    0    0  0.16110739539E+02 -0.31748780185E+01  0.40636362786E+02  0.43828640860E+02  0.51100000000E-03 0. -1.
         23    2    1    0    0    0  0.17892855340E+02  0.21671743133E+02 -0.55956497450E+01  0.96344633684E+02  0.91984555339E+02 0.  0.
         11    1    3    3    0    0  0.17821158015E+01  0.24846621151E+02 -0.46232012531E+02  0.52515992824E+02  0.51100000000E-03 0.  1.
         22    1    1    0    0    0 -0.17892855340E+02 -0.21671743133E+02  0.55956497450E+01  0.28655366316E+02  0.00000000000E+00 0.  1.
</event>
<event>
 5    1  0.6690694E-004  0.9118800E+02  0.7818608E-02  0.1130116E+00
         25   -1    0    0    0    0  0.00000000000E+00  0.00000000000E+00  0.99999998245E-14  0.12500000000E+03  0.12500000000E+03 0.  0.
        -11    1    3    3    0    0 -0.26205927965E+02  0.72575661896E+01  0.52914693377E+02  0.59492753365E+02  0.51100000000E-03 0.  1.
         23    2    1    0    0    0 -0.20055606225E+02 -0.70013389754E+01  0.20291491288E+02  0.95623296523E+02  0.90999033680E+02 0.  0.
         11    1    3    3    0    0  0.61503217400E+01 -0.14258905165E+02 -0.32623202089E+02  0.36130543157E+02  0.51100000000E-03 0. -1.
         22    1    1    0    0    0  0.20055606225E+02  0.70013389754E+01 -0.20291491288E+02  0.29376703477E+02  0.00000000000E+00 0.  1.
</event>
<event>
 5    1  0.6690694E-004  0.9118800E+02  0.7818608E-02  0.1130116E+00
         25   -1    0    0    0    0  0.00000000000E+00  0.00000000000E+00  0.99999998245E-14  0.12500000000E+03  0.12500000000E+03 0.  0.
        -11    1    3    3    0    0 -0.40748070222E+02  0.18562923359E+02  0.65667358975E+00  0.44781900037E+02  0.51100000000E-03 0.  1.
         23    2    1    0    0    0 -0.13440083500E+02 -0.25231353194E+02  0.10250969889E+01  0.96393919312E+02  0.92051506386E+02 0.  0.
         11    1    3    3    0    0  0.27307986722E+02 -0.43794276553E+02  0.36842339912E+00  0.51612019275E+02  0.51100000000E-03 0. -1.
         22    1    1    0    0    0  0.13440083500E+02  0.25231353194E+02 -0.10250969889E+01  0.28606080688E+02  0.00000000000E+00 0. -1.
</event>
<event>
 5    1  0.6690694E-004  0.9118800E+02  0.7818608E-02  0.1130116E+00
         25   -1    0    0    0    0  0.00000000000E+00  0.00000000000E+00  0.99999998245E-14  0.12500000000E+03  0.12500000000E+03 0.  0.
        -11    1    3    3    0    0  0.22979660584E+02  0.32237796279E+02  0.31777865430E+02  0.50765864919E+02  0.51100000000E-03 0.  1.
         23    2    1    0    0    0 -0.87429612427E+01  0.39475290806E+01  0.30214239390E+02  0.93299485508E+02  0.87748910973E+02 0.  0.
         11    1    3    3    0    0 -0.31722621826E+02 -0.28290267198E+02 -0.15636260393E+01  0.42533620588E+02  0.51100000000E-03 0. -1.
         22    1    1    0    0    0  0.87429612427E+01 -0.39475290806E+01 -0.30214239390E+02  0.31700514492E+02  0.00000000000E+00 0.  1.
</event>
<event>
 5    1  0.6690694E-004  0.9118800E+02  0.7818608E-02  0.1130116E+00
         25   -1    0    0    0    0  0.00000000000E+00  0.00000000000E+00  0.99999998245E-14  0.12500000000E+03  0.12500000000E+03 0.  0.
        -11    1    3    3    0    0  0.17437972434E+02  0.22739193782E+02  0.44596278991E+02  0.53009262555E+02  0.51100000000E-03 0. -1.
         23    2    1    0    0    0  0.19229512283E+02 -0.11096202270E+02  0.22059929719E+02  0.93702390719E+02  0.88320992294E+02 0.  0.
         11    1    3    3    0    0  0.17915398494E+01 -0.33835396052E+02 -0.22536349272E+02  0.40693128164E+02  0.51100000000E-03 0.  1.
         22    1    1    0    0    0 -0.19229512283E+02  0.11096202270E+02 -0.22059929719E+02  0.31297609281E+02  0.00000000000E+00 0. -1.
</event>
<event>
 5    1  0.6690694E-004  0.9118800E+02  0.7818608E-02  0.1130116E+00
         25   -1    0    0    0    0  0.00000000000E+00  0.00000000000E+00  0.99999998245E-14  0.12500000000E+03  0.12500000000E+03 0.  0.
        -11    1    3    3    0    0  0.43838531814E+02  0.41641717663E+02 -0.52655646544E+01  0.60692468172E+02  0.51100000000E-03 0.  1.
         23    2    1    0    0    0  0.16219715795E+02  0.27470455519E+02  0.33900086591E+01  0.92918895506E+02  0.87205067952E+02 0.  0.
         11    1    3    3    0    0 -0.27618816019E+02 -0.14171262144E+02  0.86555733134E+01  0.32226427334E+02  0.51100000000E-03 0. -1.
         22    1    1    0    0    0 -0.16219715795E+02 -0.27470455519E+02 -0.33900086591E+01  0.32081104494E+02  0.00000000000E+00 0.  1.
</event>
<event>
 5    1  0.6690694E-004  0.9118800E+02  0.7818608E-02  0.1130116E+00
         25   -1    0    0    0    0  0.00000000000E+00  0.00000000000E+00  0.99999998245E-14  0.12500000000E+03  0.12500000000E+03 0.  0.
        -11    1    3    3    0    0 -0.51435527097E+02 -0.28084549217E+01 -0.22474076923E+02  0.56201290026E+02  0.51100000000E-03 0. -1.
         23    2    1    0    0    0 -0.21522929385E+02 -0.19995921643E+02 -0.39538567841E+01  0.95357018450E+02  0.90632525136E+02 0.  0.
         11    1    3    3    0    0  0.29912597712E+02 -0.17187466722E+02  0.18520220139E+02  0.39155728424E+02  0.51100000000E-03 0.  1.
         22    1    1    0    0    0  0.21522929385E+02  0.19995921643E+02  0.39538567841E+01  0.29642981550E+02  0.00000000000E+00 0. -1.
</event>
<event>
 5    1  0.6690694E-004  0.9118800E+02  0.7818608E-02  0.1130116E+00
         25   -1    0    0    0    0  0.00000000000E+00  0.00000000000E+00  0.99999998245E-14  0.12500000000E+03  0.12500000000E+03 0.  0.
        -11    1    3    3    0    0  0.55896835554E+01 -0.25082940663E+02  0.24491876026E+02  0.35500006565E+02  0.51100000000E-03 0.  1.
         23    2    1    0    0    0 -0.23608201985E+02  0.12672411316E+02 -0.12059909920E+02  0.95616694590E+02  0.90989964543E+02 0.  0.
         11    1    3    3    0    0 -0.29197885541E+02  0.37755351978E+02 -0.36551785946E+02  0.60116688026E+02  0.51100000000E-03 0. -1.
         22    1    1    0    0    0  0.23608201985E+02 -0.12672411316E+02  0.12059909920E+02  0.29383305410E+02  0.00000000000E+00 0. -1.
</event>
<event>
 5    1  0.6690694E-004  0.9118800E+02  0.7818608E-02  0.1130116E+00
         25   -1    0    0    0    0  0.00000000000E+00  0.00000000000E+00  0.99999998245E-14  0.12500000000E+03  0.12500000000E+03 0.  0.
        -11    1    3    3    0    0  0.24554783852E+02 -0.32280346626E+02 -0.59096946656E+01  0.40986371877E+02  0.51100000000E-03 0. -1.
         23    2    1    0    0    0 -0.19930565799E+02 -0.10187919544E+02  0.18156211944E+02  0.96178667799E+02  0.91758743178E+02 0.  0.
         11    1    3    3    0    0 -0.44485349651E+02  0.22092427082E+02  0.24065906609E+02  0.55192295922E+02  0.51100000000E-03 0.  1.
         22    1    1    0    0    0  0.19930565799E+02  0.10187919544E+02 -0.18156211944E+02  0.28821332201E+02  0.00000000000E+00 0.  1.
</event>
<event>
 5    1  0.6690694E-004  0.9118800E+02  0.7818608E-02  0.1130116E+00
         25   -1    0    0    0    0  0.00000000000E+00  0.00000000000E+00  0.99999998245E-14  0.12500000000E+03  0.12500000000E+03 0.  0.
        -11    1    3    3    0    0 -0.23783174602E+02 -0.16742860762E+02  0.47448609000E+02  0.55653690596E+02  0.51100000000E-03 0.  1.
         23    2    1    0    0    0 -0.11255444093E+02 -0.25720404404E+02  0.11697840551E+02  0.94585140178E+02  0.89561627075E+02 0.  0.
         11    1    3    3    0    0  0.12527730510E+02 -0.89775436419E+01 -0.35750768449E+02  0.38931449581E+02  0.51100000000E-03 0. -1.
         22    1    1    0    0    0  0.11255444093E+02  0.25720404404E+02 -0.11697840551E+02  0.30414859822E+02  0.00000000000E+00 0.  1.
</event>
<event>
 5    1  0.6690694E-004  0.9118800E+02  0.7818608E-02  0.1130116E+00
         25   -1    0    0    0    0  0.00000000000E+00  0.00000000000E+00  0.99999998245E-14  0.12500000000E+03  0.12500000000E+03 0.  0.
        -11    1    3    3    0    0 -0.34884888826E+02 -0.27307931698E+02 -0.28761526923E+02  0.52819542153E+02  0.51100000000E-03 0.  1.
         23    2    1    0    0    0 -0.28974514658E+02 -0.37938036389E+01  0.59679468567E+01  0.95174979709E+02  0.90381109349E+02 0.  0.
         11    1    3    3    0    0  0.59103741684E+01  0.23514128059E+02  0.34729473780E+02  0.42355437555E+02  0.51100000000E-03 0. -1.
         22    1    1    0    0    0  0.28974514658E+02  0.37938036389E+01 -0.59679468567E+01  0.29825020291E+02  0.00000000000E+00 0.  1.
</event>
<event>
 5    1  0.6690694E-004  0.9118800E+02  0.7818608E-02  0.1130116E+00
         25   -1    0    0    0    0  0.00000000000E+00  0.00000000000E+00  0.99999998245E-14  0.12500000000E+03  0.12500000000E+03 0.  0.
        -11    1    3    3    0    0  0.21462852213E+02 -0.15476452898E+02  0.51607415497E+02  0.57995689098E+02  0.51100000000E-03 0.  1.
         23    2    1    0    0    0  0.23614455203E+02 -0.33733806636E+01  0.14504011022E+02  0.97082469175E+02  0.92981811628E+02 0.  0.
         11    1    3    3    0    0  0.21516029898E+01  0.12103072234E+02 -0.37103404474E+02  0.39086780077E+02  0.51100000000E-03 0. -1.
         22    1    1    0    0    0 -0.23614455203E+02  0.33733806636E+01 -0.14504011022E+02  0.27917530825E+02  0.00000000000E+00 0.  1.
</event>
<event>
 5    1  0.6690694E-004  0.9118800E+02  0.7818608E-02  0.1130116E+00
         25   -1    0    0    0    0  0.00000000000E+00  0.00000000000E+00  0.99999998245E-14  0.12500000000E+03  0.12500000000E+03 0.  0.
        -11    1    3    3    0    0  0.11616025628E+01  0.13377177159E+02 -0.51566764539E+02  0.53286296498E+02  0.51100000000E-03 0. -1.
         23    2    1    0    0    0 -0.14119080277E+02  0.22757469206E+02 -0.14305268602E+02  0.94637333083E+02  0.89634442436E+02 0.  0.
         11    1    3    3    0    0 -0.15280682840E+02  0.93802920473E+01  0.37261495937E+02  0.41351036585E+02  0.51100000000E-03 0.  1.
         22    1    1    0    0    0  0.14119080277E+02 -0.22757469206E+02  0.14305268602E+02  0.30362666917E+02  0.00000000000E+00 0.  1.
</event>
<event>
 5    1  0.6690694E-004  0.9118800E+02  0.7818608E-02  0.1130116E+00
         25   -1    0    0    0    0  0.00000000000E+00  0.00000000000E+00  0.99999998245E-14  0.12500000000E+03  0.12500000000E+03 0.  0.
        -11    1    3    3    0    0  0.19105243579E+02 -0.52566049988E+01 -0.32888249442E+02  0.38396343315E+02  0.51100000000E-03 0.  1.
         23    2    1    0    0    0 -0.22249463261E+01 -0.18119728969E+02  0.20645213669E+02  0.97440975861E+02  0.93462527064E+02 0.  0.
         11    1    3    3    0    0 -0.21330189905E+02 -0.12863123970E+02  0.53533463111E+02  0.59044632547E+02  0.51100000000E-03 0. -1.
         22    1    1    0    0    0  0.22249463261E+01  0.18119728969E+02 -0.20645213669E+02  0.27559024139E+02  0.00000000000E+00 0. -1.
</event>
<event>
 5    1  0.6690694E-004  0.9118800E+02  0.7818608E-02  0.1130116E+00
         25   -1    0    0    0    0  0.00000000000E+00  0.00000000000E+00  0.99999998245E-14  0.12500000000E+03  0.12500000000E+03 0.  0.
        -11    1    3    3    0    0 -0.88316903837E+01  0.52113469125E+02 -0.16982363866E+02  0.55517682787E+02  0.51100000000E-03 0.  1.
         23    2    1    0    0    0 -0.20461817486E+02  0.21234435238E+02  0.48946054892E+01  0.95107787342E+02  0.90288132307E+02 0.  0.
         11    1    3    3    0    0 -0.11630127103E+02 -0.30879033887E+02  0.21876969355E+02  0.39590104555E+02  0.51100000000E-03 0. -1.
         22    1    1    0    0    0  0.20461817486E+02 -0.21234435238E+02 -0.48946054892E+01  0.29892212658E+02  0.00000000000E+00 0.  1.
</event>
<event>
 5    1  0.6690694E-004  0.9118800E+02  0.7818608E-02  0.1130116E+00
         25   -1    0    0    0    0  0.00000000000E+00  0.00000000000E+00  0.99999998245E-14  0.12500000000E+03  0.12500000000E+03 0.  0.
        -11    1    3    3    0    0 -0.18486724269E+02  0.25735262176E+02  0.15584655222E+02  0.35312096682E+02  0.51100000000E-03 0.  1.
         23    2    1    0    0    0  0.94314489976E+00 -0.28168271012E+02 -0.53453279371E+01  0.96313530282E+02  0.91942278472E+02 0.  0.
         11    1    3    3    0    0  0.19429869168E+02 -0.53903533188E+02 -0.20929983159E+02  0.61001433600E+02  0.51100000000E-03 0. -1.
         22    1    1    0    0    0 -0.94314489976E+00  0.28168271012E+02  0.53453279371E+01  0.28686469718E+02  0.00000000000E+00 0. -1.
</event>
<event>
 5    1  0.6690694E-004  0.9118800E+02  0.7818608E-02  0.1130116E+00
         25   -1    0    0    0    0  0.00000000000E+00  0.00000000000E+00  0.99999998245E-14  0.12500000000E+03  0.12500000000E+03 0.  0.
        -11    1    3    3    0    0 -0.22232369454E+01  0.84597025016E+01 -0.40189632088E+02  0.41130473819E+02  0.51100000000E-03 0.  1.
         23    2    1    0    0    0  0.26612440265E+02  0.38744333809E+01  0.75287926969E+01  0.97073025041E+02  0.92969114550E+02 0.  0.
         11    1    3    3    0    0  0.28835677211E+02 -0.45852691207E+01  0.47718424785E+02  0.55942551223E+02  0.51100000000E-03 0. -1.
         22    1    1    0    0    0 -0.26612440265E+02 -0.38744333809E+01 -0.75287926969E+01  0.27926974959E+02  0.00000000000E+00 0. -1.
</event>
<event>
 5    1  0.6690694E-004  0.9118800E+02  0.7818608E-02  0.1130116E+00
         25   -1    0    0    0    0  0.00000000000E+00  0.00000000000E+00  0.99999998245E-14  0.12500000000E+03  0.12500000000E+03 0.  0.
        -11    1    3    3    0    0  0.28502649763E+02 -0.37401321504E+02 -0.22404888166E+01  0.47077379750E+02  0.51100000000E-03 0.  1.
         23    2    1    0    0    0  0.59863128569E+01 -0.88071791915E+01  0.28410130298E+02  0.94659633317E+02  0.89665535906E+02 0.  0.
         11    1    3    3    0    0 -0.22516336906E+02  0.28594142312E+02  0.30650619114E+02  0.47582253567E+02  0.51100000000E-03 0. -1.
         22    1    1    0    0    0 -0.59863128569E+01  0.88071791915E+01 -0.28410130298E+02  0.30340366683E+02  0.00000000000E+00 0. -1.
</event>
<event>
 5    1  0.6690694E-004  0.9118800E+02  0.7818608E-02  0.1130116E+00
         25   -1    0    0    0    0  0.00000000000E+00  0.00000000000E+00  0.99999998245E-14  0.12500000000E+03  0.12500000000E+03 0.  0.
        -11    1    3    3    0    0  0.41794133411E+02  0.52704834694E+01  0.69058940755E+01  0.42687456668E+02  0.51100000000E-03 0. -1.
         23    2    1    0    0    0 -0.50749454235E+01  0.16240160540E+02  0.25546155930E+02  0.94306287806E+02  0.89171587132E+02 0.  0.
         11    1    3    3    0    0 -0.46869078834E+02  0.10969677070E+02  0.18640261855E+02  0.51618831138E+02  0.51100000000E-03 0.  1.
         22    1    1    0    0    0  0.50749454235E+01 -0.16240160540E+02 -0.25546155930E+02  0.30693712194E+02  0.00000000000E+00 0.  1.
</event>
<event>
 5    1  0.6690694E-004  0.9118800E+02  0.7818608E-02  0.1130116E+00
         25   -1    0    0    0    0  0.00000000000E+00  0.00000000000E+00  0.99999998245E-14  0.12500000000E+03  0.12500000000E+03 0.  0.
        -11    1    3    3    0    0 -0.25085866649E+02 -0.46321590483E+02 -0.27211384440E+02  0.59291229485E+02  0.51100000000E-03 0.  1.
         23    2    1    0    0    0  0.21020315227E+01 -0.25170189214E+02 -0.13443875179E+02  0.96387157754E+02  0.92042324169E+02 0.  0.
         11    1    3    3    0    0  0.27187898172E+02  0.21151401269E+02  0.13767509261E+02  0.37095928269E+02  0.51100000000E-03 0. -1.
         22    1    1    0    0    0 -0.21020315227E+01  0.25170189214E+02  0.13443875179E+02  0.28612842246E+02  0.00000000000E+00 0.  1.
</event>
<event>
 5    1  0.6690694E-004  0.9118800E+02  0.7818608E-02  0.1130116E+00
         25   -1    0    0    0    0  0.00000000000E+00  0.00000000000E+00  0.99999998245E-14  0.12500000000E+03  0.12500000000E+03 0.  0.
        -11    1    3    3    0    0 -0.39274414666E+02  0.11001955430E+02 -0.30077567485E+02  0.50677240816E+02  0.51100000000E-03 0.  1.
         23    2    1    0    0    0  0.59391828270E+01  0.11246595713E+02 -0.25976399040E+02  0.96077117798E+02  0.91620300423E+02 0.  0.
         11    1    3    3    0    0  0.45213597493E+02  0.24464028283E+00  0.41011684458E+01  0.45399876982E+02  0.51100000000E-03 0. -1.
         22    1    1    0    0    0 -0.59391828270E+01 -0.11246595713E+02  0.25976399040E+02  0.28922882202E+02  0.00000000000E+00 0.  1.
</event>
<event>
 5    1  0.6690694E-004  0.9118800E+02  0.7818608E-02  0.1130116E+00
         25   -1    0    0    0    0  0.00000000000E+00  0.00000000000E+00  0.99999998245E-14  0.12500000000E+03  0.12500000000E+03 0.  0.
        -11    1    3    3    0    0 -0.39739999016E+02  0.16336255060E+02 -0.15345728477E+02  0.45624906947E+02  0.51100000000E-03 0. -1.
         23    2    1    0    0    0 -0.13788984265E+02  0.46252163158E+01  0.25635913683E+02  0.95525794610E+02  0.90865002352E+02 0.  0.
         11    1    3    3    0    0  0.25951014751E+02 -0.11711038744E+02  0.40981642160E+02  0.49900887662E+02  0.51100000000E-03 0.  1.
         22    1    1    0    0    0  0.13788984265E+02 -0.46252163158E+01 -0.25635913683E+02  0.29474205390E+02  0.00000000000E+00 0.  1.
</event>
<event>
 5    1  0.6690694E-004  0.9118800E+02  0.7818608E-02  0.1130116E+00
         25   -1    0    0    0    0  0.00000000000E+00  0.00000000000E+00  0.99999998245E-14  0.12500000000E+03  0.12500000000E+03 0.  0.
        -11    1    3    3    0    0 -0.30617055687E+02 -0.19186819126E+02 -0.31226530334E+01  0.36266914528E+02  0.51100000000E-03 0.  1.
         23    2    1    0    0    0  0.23564131960E+02  0.10532572693E+02 -0.72167110302E+01  0.98199173134E+02  0.94471124073E+02 0.  0.
         11    1    3    3    0    0  0.54181187648E+02  0.29719391819E+02 -0.40940579968E+01  0.61932258607E+02  0.51100000000E-03 0. -1.
         22    1    1    0    0    0 -0.23564131960E+02 -0.10532572693E+02  0.72167110302E+01  0.26800826866E+02  0.00000000000E+00 0. -1.
</event>
<event>
 5    1  0.6690694E-004  0.9118800E+02  0.7818608E-02  0.1130116E+00
         25   -1    0    0    0    0  0.00000000000E+00  0.00000000000E+00  0.99999998245E-14  0.12500000000E+03  0.12500000000E+03 0.  0.
        -11    1    3    3    0    0 -0.27928721178E+02 -0.35914252201E+02 -0.25871814293E+02  0.52337345681E+02  0.51100000000E-03 0.  1.
         23    2    1    0    0    0 -0.27545451628E+02  0.41050206217E+01 -0.11680160025E+02  0.94800178181E+02  0.89861251634E+02 0.  0.
         11    1    3    3    0    0  0.38326955006E+00  0.40019272823E+02  0.14191654269E+02  0.42462832501E+02  0.51100000000E-03 0. -1.
         22    1    1    0    0    0  0.27545451628E+02 -0.41050206217E+01  0.11680160025E+02  0.30199821819E+02  0.00000000000E+00 0.  1.
</event>
<event>
 5    1  0.6690694E-004  0.9118800E+02  0.7818608E-02  0.1130116E+00
         25   -1    0    0    0    0  0.00000000000E+00  0.00000000000E+00  0.99999998245E-14  0.12500000000E+03  0.12500000000E+03 0.  0.
        -11    1    3    3    0    0  0.36537727477E+02 -0.31243745790E+02 -0.24793135628E+02  0.54091374125E+02  0.51100000000E-03 0.  1.
         23    2    1    0    0    0  0.39008287571E+01 -0.28677118361E+02  0.14104422280E+01  0.96024442546E+02  0.91548405974E+02 0.  0.
         11    1    3    3    0    0 -0.32636898720E+02  0.25666274288E+01  0.26203577856E+02  0.41933068420E+02  0.51100000000E-03 0. -1.
         22    1    1    0    0    0 -0.39008287571E+01  0.28677118361E+02 -0.14104422280E+01  0.28975557454E+02  0.00000000000E+00 0.  1.
</event>
<event>
 5    1  0.6690694E-004  0.9118800E+02  0.7818608E-02  0.1130116E+00
         25   -1    0    0    0    0  0.00000000000E+00  0.00000000000E+00  0.99999998245E-14  0.12500000000E+03  0.12500000000E+03 0.  0.
        -11    1    3    3    0    0  0.40611438537E+02 -0.26081923803E+02  0.13914363325E+02  0.50231117809E+02  0.51100000000E-03 0.  1.
         23    2    1    0    0    0  0.28580835559E+01 -0.21485667461E+02 -0.15535581651E+02  0.98332475835E+02  0.94647339946E+02 0.  0.
         11    1    3    3    0    0 -0.37753354981E+02  0.45962563424E+01 -0.29449944976E+02  0.48101358027E+02  0.51100000000E-03 0. -1.
         22    1    1    0    0    0 -0.28580835559E+01  0.21485667461E+02  0.15535581651E+02  0.26667524165E+02  0.00000000000E+00 0. -1.
</event>
<event>
 5    1  0.6690694E-004  0.9118800E+02  0.7818608E-02  0.1130116E+00
         25   -1    0    0    0    0  0.00000000000E+00  0.00000000000E+00  0.99999998245E-14  0.12500000000E+03  0.12500000000E+03 0.  0.
        -11    1    3    3    0    0 -0.91131342195E+01 -0.13393819267E+02 -0.38627063850E+02  0.41886676543E+02  0.51100000000E-03 0. -1.
         23    2    1    0    0    0 -0.22682453317E+02 -0.10381193180E+02  0.14052386773E+02  0.96369030154E+02  0.92017702310E+02 0.  0.
         11    1    3    3    0    0 -0.13569319097E+02  0.30126260868E+01  0.52679450624E+02  0.54482353611E+02  0.51100000000E-03 0.  1.
         22    1    1    0    0    0  0.22682453317E+02  0.10381193180E+02 -0.14052386773E+02  0.28630969846E+02  0.00000000000E+00 0.  1.
</event>
<event>
 5    1  0.6690694E-004  0.9118800E+02  0.7818608E-02  0.1130116E+00
         25   -1    0    0    0    0  0.00000000000E+00  0.00000000000E+00  0.99999998245E-14  0.12500000000E+03  0.12500000000E+03 0.  0.
        -11    1    3    3    0    0  0.41629266743E+02 -0.13547616945E+02  0.17390076000E+02  0.47105716405E+02  0.51100000000E-03 0. -1.
         23    2    1    0    0    0 -0.82594661052E+00  0.54000280541E+01  0.29378423256E+02  0.95117994649E+02  0.90302262774E+02 0.  0.
         11    1    3    3    0    0 -0.42455213354E+02  0.18947644999E+02  0.11988347256E+02  0.48012278244E+02  0.51100000000E-03 0.  1.
         22    1    1    0    0    0  0.82594661052E+00 -0.54000280541E+01 -0.29378423256E+02  0.29882005351E+02  0.00000000000E+00 0.  1.
</event>
<event>
 5    1  0.6690694E-004  0.9118800E+02  0.7818608E-02  0.1130116E+00
         25   -1    0    0    0    0  0.00000000000E+00  0.00000000000E+00  0.99999998245E-14  0.12500000000E+03  0.12500000000E+03 0.  0.
        -11    1    3    3    0    0 -0.56328198831E+02 -0.27170512078E+01  0.50985995180E+01  0.56623705885E+02  0.51100000000E-03 0. -1.
         23    2    1    0    0    0 -0.26888067192E+02 -0.15251661485E+02  0.15696637220E+02  0.90330622224E+02  0.83412562339E+02 0.  0.
         11    1    3    3    0    0  0.29440131639E+02 -0.12534610277E+02  0.10598037702E+02  0.33706916339E+02  0.51100000000E-03 0.  1.
         22    1    1    0    0    0  0.26888067192E+02  0.15251661485E+02 -0.15696637220E+02  0.34669377776E+02  0.00000000000E+00 0. -1.
</event>
<event>
 5    1  0.6690694E-004  0.9118800E+02  0.7818608E-02  0.1130116E+00
         25   -1    0    0    0    0  0.00000000000E+00  0.00000000000E+00  0.99999998245E-14  0.12500000000E+03  0.12500000000E+03 0.  0.
        -11    1    3    3    0    0 -0.24458149438E+02  0.69746136381E+01 -0.22290956393E+02  0.33819122498E+02  0.51100000000E-03 0. -1.
         23    2    1    0    0    0  0.20445490323E+02  0.23142047589E+02  0.11231073329E+02  0.92141067435E+02  0.86082906891E+02 0.  0.
         11    1    3    3    0    0  0.44903639761E+02  0.16167433951E+02  0.33522029722E+02  0.58321944938E+02  0.51100000000E-03 0.  1.
         22    1    1    0    0    0 -0.20445490323E+02 -0.23142047589E+02 -0.11231073329E+02  0.32858932565E+02  0.00000000000E+00 0.  1.
</event>
<event>
 5    1  0.6690694E-004  0.9118800E+02  0.7818608E-02  0.1130116E+00
         25   -1    0    0    0    0  0.00000000000E+00  0.00000000000E+00  0.99999998245E-14  0.12500000000E+03  0.12500000000E+03 0.  0.
        -11    1    3    3    0    0 -0.26482346496E+02 -0.15000681150E+01  0.25582889638E+02  0.36851718044E+02  0.51100000000E-03 0. -1.
         23    2    1    0    0    0  0.27262357864E+02  0.10452947121E+02  0.68451573621E+01  0.95010727932E+02  0.90153657624E+02 0.  0.
         11    1    3    3    0    0  0.53744704361E+02  0.11953015236E+02 -0.18737732276E+02  0.58159009888E+02  0.51100000000E-03 0.  1.
         22    1    1    0    0    0 -0.27262357864E+02 -0.10452947121E+02 -0.68451573621E+01  0.29989272068E+02  0.00000000000E+00 0.  1.
</event>
<event>
 5    1  0.6690694E-004  0.9118800E+02  0.7818608E-02  0.1130116E+00
         25   -1    0    0    0    0  0.00000000000E+00  0.00000000000E+00  0.99999998245E-14  0.12500000000E+03  0.12500000000E+03 0.  0.
        -11    1    3    3    0    0 -0.54181794245E+02  0.42910182130E+01 -0.27900850663E+02  0.61094493474E+02  0.51100000000E-03 0. -1.
         23    2    1    0    0    0 -0.20806531365E+02  0.70701120326E+01 -0.19494738066E+02  0.95624107777E+02  0.91000148046E+02 0.  0.
         11    1    3    3    0    0  0.33375262879E+02  0.27790938196E+01  0.84061125965E+01  0.34529614304E+02  0.51100000000E-03 0.  1.
         22    1    1    0    0    0  0.20806531365E+02 -0.70701120326E+01  0.19494738066E+02  0.29375892223E+02  0.00000000000E+00 0. -1.
</event>
<event>
 5    1  0.6690694E-004  0.9118800E+02  0.7818608E-02  0.1130116E+00
         25   -1    0    0    0    0  0.00000000000E+00  0.00000000000E+00  0.99999998245E-14  0.12500000000E+03  0.12500000000E+03 0.  0.
        -11    1    3    3    0    0  0.32069677373E+02 -0.29265679113E+02 -0.27493174242E+02  0.51388897740E+02  0.51100000000E-03 0.  1.
         23    2    1    0    0    0  0.24882147651E+02  0.10944127835E+02 -0.14115507624E+02  0.94370883766E+02  0.89262091290E+02 0.  0.
         11    1    3    3    0    0 -0.71875297222E+01  0.40209806948E+02  0.13377666618E+02  0.42981986026E+02  0.51100000000E-03 0. -1.
         22    1    1    0    0    0 -0.24882147651E+02 -0.10944127835E+02  0.14115507624E+02  0.30629116234E+02  0.00000000000E+00 0. -1.
</event>
<event>
 5    1  0.6690694E-004  0.9118800E+02  0.7818608E-02  0.1130116E+00
         25   -1    0    0    0    0  0.00000000000E+00  0.00000000000E+00  0.99999998245E-14  0.12500000000E+03  0.12500000000E+03 0.  0.
        -11    1    3    3    0    0  0.15398736471E+02 -0.55302881672E+02  0.71617496188E+01  0.57851710986E+02  0.51100000000E-03 0.  1.
         23    2    1    0    0    0 -0.48340645139E+01 -0.23993308793E+02  0.15471331550E+02  0.96044704344E+02  0.91576067212E+02 0.  0.
         11    1    3    3    0    0 -0.20232800985E+02  0.31309572878E+02  0.83095819317E+01  0.38192993358E+02  0.51100000000E-03 0. -1.
         22    1    1    0    0    0  0.48340645139E+01  0.23993308793E+02 -0.15471331550E+02  0.28955295656E+02  0.00000000000E+00 0.  1.
</event>
<event>
 5    1  0.6690694E-004  0.9118800E+02  0.7818608E-02  0.1130116E+00
         25   -1    0    0    0    0  0.00000000000E+00  0.00000000000E+00  0.99999998245E-14  0.12500000000E+03  0.12500000000E+03 0.  0.
        -11    1    3    3    0    0 -0.17732460488E+02  0.34532078287E+02 -0.44484863058E+02  0.59040728547E+02  0.51100000000E-03 0.  1.
         23    2    1    0    0    0  0.17021626864E+01  0.19253264183E+02 -0.33992562766E+02  0.85896549220E+02  0.76479652882E+02 0.  0.
         11    1    3    3    0    0  0.19434623174E+02 -0.15278814104E+02  0.10492300292E+02  0.26855820673E+02  0.51100000000E-03 0. -1.
         22    1    1    0    0    0 -0.17021626864E+01 -0.19253264183E+02  0.33992562766E+02  0.39103450780E+02  0.00000000000E+00 0.  1.
</event>
<event>
 5    1  0.6690694E-004  0.9118800E+02  0.7818608E-02  0.1130116E+00
         25   -1    0    0    0    0  0.00000000000E+00  0.00000000000E+00  0.99999998245E-14  0.12500000000E+03  0.12500000000E+03 0.  0.
        -11    1    3    3    0    0 -0.75478832920E+01 -0.58672576046E+02 -0.17552422050E+02  0.61705180027E+02  0.51100000000E-03 0.  1.
         23    2    1    0    0    0 -0.10427286870E+02 -0.25998849797E+02 -0.81419545658E+01  0.95828782569E+02  0.91280861314E+02 0.  0.
         11    1    3    3    0    0 -0.28794035779E+01  0.32673726248E+02  0.94104674841E+01  0.34123602542E+02  0.51100000000E-03 0. -1.
         22    1    1    0    0    0  0.10427286870E+02  0.25998849797E+02  0.81419545658E+01  0.29171217431E+02  0.00000000000E+00 0.  1.
</event>
<event>
 5    1  0.6690694E-004  0.9118800E+02  0.7818608E-02  0.1130116E+00
         25   -1    0    0    0    0  0.00000000000E+00  0.00000000000E+00  0.99999998245E-14  0.12500000000E+03  0.12500000000E+03 0.  0.
        -11    1    3    3    0    0  0.24577234310E+02  0.13587892791E+02 -0.23521754253E+02  0.36632556561E+02  0.51100000000E-03 0.  1.
         23    2    1    0    0    0 -0.24454942532E+02 -0.13797109549E+02 -0.17476847166E+01  0.96867121583E+02  0.92691857225E+02 0.  0.
         11    1    3    3    0    0 -0.49032176841E+02 -0.27385002340E+02  0.21774069536E+02  0.60234565022E+02  0.51100000000E-03 0. -1.
         22    1    1    0    0    0  0.24454942532E+02  0.13797109549E+02  0.17476847166E+01  0.28132878417E+02  0.00000000000E+00 0. -1.
</event>
<event>
 5    1  0.6690694E-004  0.9118800E+02  0.7818608E-02  0.1130116E+00
         25   -1    0    0    0    0  0.00000000000E+00  0.00000000000E+00  0.99999998245E-14  0.12500000000E+03  0.12500000000E+03 0.  0.
        -11    1    3    3    0    0 -0.54614836938E+02  0.11568358783E+02 -0.19810067378E+02  0.59237202065E+02  0.51100000000E-03 0. -1.
         23    2    1    0    0    0 -0.28691363064E+02 -0.68339830911E+01 -0.25899961402E+01  0.95392471914E+02  0.90681409222E+02 0.  0.
         11    1    3    3    0    0  0.25923473875E+02 -0.18402341874E+02  0.17220071238E+02  0.36155269849E+02  0.51100000000E-03 0.  1.
         22    1    1    0    0    0  0.28691363064E+02  0.68339830911E+01  0.25899961402E+01  0.29607528086E+02  0.00000000000E+00 0. -1.
</event>
<event>
 5    1  0.6690694E-004  0.9118800E+02  0.7818608E-02  0.1130116E+00
         25   -1    0    0    0    0  0.00000000000E+00  0.00000000000E+00  0.99999998245E-14  0.12500000000E+03  0.12500000000E+03 0.  0.
        -11    1    3    3    0    0  0.56188791682E+02  0.22639564433E+02 -0.74424361265E+01  0.61033761511E+02  0.51100000000E-03 0. -1.
         23    2    1    0    0    0  0.28992439291E+02  0.14502084089E+01 -0.24803296615E+01  0.95865541438E+02  0.91331185033E+02 0.  0.
         11    1    3    3    0    0 -0.27196352391E+02 -0.21189356024E+02  0.49621064651E+01  0.34831779928E+02  0.51100000000E-03 0.  1.
         22    1    1    0    0    0 -0.28992439291E+02 -0.14502084089E+01  0.24803296615E+01  0.29134458562E+02  0.00000000000E+00 0. -1.
</event>
<event>
 5    1  0.6690694E-004  0.9118800E+02  0.7818608E-02  0.1130116E+00
         25   -1    0    0    0    0  0.00000000000E+00  0.00000000000E+00  0.99999998245E-14  0.12500000000E+03  0.12500000000E+03 0.  0.
        -11    1    3    3    0    0 -0.33870708060E+02  0.25484605584E+01 -0.22019073561E+01  0.34037742463E+02  0.51100000000E-03 0. -1.
         23    2    1    0    0    0  0.26174014513E+02 -0.12149264457E+02  0.25119433176E+01  0.96034615110E+02  0.91562294518E+02 0.  0.
         11    1    3    3    0    0  0.60044722574E+02 -0.14697725015E+02  0.47138506737E+01  0.61996872647E+02  0.51100000000E-03 0.  1.
         22    1    1    0    0    0 -0.26174014513E+02  0.12149264457E+02 -0.25119433176E+01  0.28965384890E+02  0.00000000000E+00 0.  1.
</event>
<event>
 5    1  0.6690694E-004  0.9118800E+02  0.7818608E-02  0.1130116E+00
         25   -1    0    0    0    0  0.00000000000E+00  0.00000000000E+00  0.99999998245E-14  0.12500000000E+03  0.12500000000E+03 0.  0.
        -11    1    3    3    0    0 -0.25208962929E+00  0.82890212084E+01 -0.33408115663E+02  0.34421993176E+02  0.51100000000E-03 0. -1.
         23    2    1    0    0    0  0.62185964123E+01 -0.15298621976E+02  0.23450469999E+02  0.96318240659E+02  0.91948682235E+02 0.  0.
         11    1    3    3    0    0  0.64706860416E+01 -0.23587643184E+02  0.56858585662E+02  0.61896247484E+02  0.51100000000E-03 0.  1.
         22    1    1    0    0    0 -0.62185964123E+01  0.15298621976E+02 -0.23450469999E+02  0.28681759341E+02  0.00000000000E+00 0.  1.
</event>
<event>
 5    1  0.6690694E-004  0.9118800E+02  0.7818608E-02  0.1130116E+00
         25   -1    0    0    0    0  0.00000000000E+00  0.00000000000E+00  0.99999998245E-14  0.12500000000E+03  0.12500000000E+03 0.  0.
        -11    1    3    3    0    0  0.20910797790E+01  0.39683640682E+02  0.42487014500E+02  0.58174825773E+02  0.51100000000E-03 0. -1.
         23    2    1    0    0    0  0.16483177832E+02  0.20156369088E+02  0.14554659364E+02  0.95170275304E+02  0.90374602770E+02 0.  0.
         11    1    3    3    0    0  0.14392098053E+02 -0.19527271594E+02 -0.27932355135E+02  0.36995449530E+02  0.51100000000E-03 0.  1.
         22    1    1    0    0    0 -0.16483177832E+02 -0.20156369088E+02 -0.14554659364E+02  0.29829724696E+02  0.00000000000E+00 0. -1.
</event>
<event>
 5    1  0.6690694E-004  0.9118800E+02  0.7818608E-02  0.1130116E+00
         25   -1    0    0    0    0  0.00000000000E+00  0.00000000000E+00  0.99999998245E-14  0.12500000000E+03  0.12500000000E+03 0.  0.
        -11    1    3    3    0    0 -0.19505658182E+02 -0.27242392457E+02  0.23144407070E+02  0.40722011576E+02  0.51100000000E-03 0.  1.
         23    2    1    0    0    0  0.26436373532E+02 -0.13820024277E+01 -0.54924296223E+00  0.98521830802E+02  0.94897090053E+02 0.  0.
         11    1    3    3    0    0  0.45942031714E+02  0.25860390030E+02 -0.23693650032E+02  0.57799819226E+02  0.51100000000E-03 0. -1.
         22    1    1    0    0    0 -0.26436373532E+02  0.13820024277E+01  0.54924296223E+00  0.26478169198E+02  0.00000000000E+00 0. -1.
</event>
<event>
 5    1  0.6690694E-004  0.9118800E+02  0.7818608E-02  0.1130116E+00
         25   -1    0    0    0    0  0.00000000000E+00  0.00000000000E+00  0.99999998245E-14  0.12500000000E+03  0.12500000000E+03 0.  0.
        -11    1    3    3    0    0  0.14680670315E+02 -0.46596435587E+02  0.28369608327E+02  0.56494110907E+02  0.51100000000E-03 0.  1.
         23    2    1    0    0    0 -0.83889223756E+01 -0.27659108523E+02  0.25052408153E+01  0.95988337958E+02  0.91499095566E+02 0.  0.
         11    1    3    3    0    0 -0.23069592691E+02  0.18937327064E+02 -0.25864367512E+02  0.39494227050E+02  0.51100000000E-03 0. -1.
         22    1    1    0    0    0  0.83889223756E+01  0.27659108523E+02 -0.25052408153E+01  0.29011662042E+02  0.00000000000E+00 0.  1.
</event>
<event>
 5    1  0.6690694E-004  0.9118800E+02  0.7818608E-02  0.1130116E+00
         25   -1    0    0    0    0  0.00000000000E+00  0.00000000000E+00  0.99999998245E-14  0.12500000000E+03  0.12500000000E+03 0.  0.
        -11    1    3    3    0    0 -0.71092571175E+01  0.38557619215E+02 -0.19502420309E+00  0.39208029420E+02  0.51100000000E-03 0. -1.
         23    2    1    0    0    0 -0.24985031542E+02 -0.14186399654E+02 -0.73139413877E+01  0.95352074694E+02  0.90625706472E+02 0.  0.
         11    1    3    3    0    0 -0.17875774425E+02 -0.52744018868E+02 -0.71189171846E+01  0.56144045275E+02  0.51100000000E-03 0.  1.
         22    1    1    0    0    0  0.24985031542E+02  0.14186399654E+02  0.73139413877E+01  0.29647925306E+02  0.00000000000E+00 0.  1.
</event>
<event>
 5    1  0.6690694E-004  0.9118800E+02  0.7818608E-02  0.1130116E+00
         25   -1    0    0    0    0  0.00000000000E+00  0.00000000000E+00  0.99999998245E-14  0.12500000000E+03  0.12500000000E+03 0.  0.
        -11    1    3    3    0    0  0.19130556196E+02  0.48220485190E+02  0.12735277378E+02  0.53417044681E+02  0.51100000000E-03 0.  1.
         23    2    1    0    0    0  0.83429307470E+01  0.14477195377E+02 -0.18088253375E+02  0.10037524438E+03  0.97307816201E+02 0.  0.
         11    1    3    3    0    0 -0.10787625449E+02 -0.33743289813E+02 -0.30823530752E+02  0.46958199694E+02  0.51100000000E-03 0. -1.
         22    1    1    0    0    0 -0.83429307470E+01 -0.14477195377E+02  0.18088253375E+02  0.24624755625E+02  0.00000000000E+00 0.  1.
</event>
<event>
 5    1  0.6690694E-004  0.9118800E+02  0.7818608E-02  0.1130116E+00
         25   -1    0    0    0    0  0.00000000000E+00  0.00000000000E+00  0.99999998245E-14  0.12500000000E+03  0.12500000000E+03 0.  0.
        -11    1    3    3    0    0 -0.53328583661E+02 -0.19514934203E+02 -0.22764443709E+02  0.61179983572E+02  0.51100000000E-03 0.  1.
         23    2    1    0    0    0 -0.19635468754E+02 -0.14176601902E+02 -0.16044956179E+02  0.95948867604E+02  0.91445157888E+02 0.  0.
         11    1    3    3    0    0  0.33693114907E+02  0.53383323008E+01  0.67194875306E+01  0.34768884032E+02  0.51100000000E-03 0. -1.
         22    1    1    0    0    0  0.19635468754E+02  0.14176601902E+02  0.16044956179E+02  0.29051132396E+02  0.00000000000E+00 0.  1.
</event>
<event>
 5    1  0.6690694E-004  0.9118800E+02  0.7818608E-02  0.1130116E+00
         25   -1    0    0    0    0  0.00000000000E+00  0.00000000000E+00  0.99999998245E-14  0.12500000000E+03  0.12500000000E+03 0.  0.
        -11    1    3    3    0    0 -0.12757714066E+02  0.73534345302E+01  0.23924207656E+02  0.28092703320E+02  0.51100000000E-03 0. -1.
         23    2    1    0    0    0  0.44256600613E+01 -0.18865585585E+02 -0.29305448675E+02  0.89867307128E+02  0.82715335833E+02 0.  0.
         11    1    3    3    0    0  0.17183374127E+02 -0.26219020115E+02 -0.53229656331E+02  0.61774603808E+02  0.51100000000E-03 0.  1.
         22    1    1    0    0    0 -0.44256600613E+01  0.18865585585E+02  0.29305448675E+02  0.35132692872E+02  0.00000000000E+00 0.  1.
</event>
<event>
 5    1  0.6690694E-004  0.9118800E+02  0.7818608E-02  0.1130116E+00
         25   -1    0    0    0    0  0.00000000000E+00  0.00000000000E+00  0.99999998245E-14  0.12500000000E+03  0.12500000000E+03 0.  0.
        -11    1    3    3    0    0 -0.40956995970E+02 -0.31632873478E+02 -0.33115845165E+02  0.61439184602E+02  0.51100000000E-03 0.  1.
         23    2    1    0    0    0 -0.13911700965E+02 -0.20829041224E+02 -0.13581147954E+02  0.96507334947E+02  0.92205388871E+02 0.  0.
         11    1    3    3    0    0  0.27045295005E+02  0.10803832254E+02  0.19534697210E+02  0.35068150345E+02  0.51100000000E-03 0. -1.
         22    1    1    0    0    0  0.13911700965E+02  0.20829041224E+02  0.13581147954E+02  0.28492665053E+02  0.00000000000E+00 0.  1.
</event>
<event>
 5    1  0.6690694E-004  0.9118800E+02  0.7818608E-02  0.1130116E+00
         25   -1    0    0    0    0  0.00000000000E+00  0.00000000000E+00  0.99999998245E-14  0.12500000000E+03  0.12500000000E+03 0.  0.
        -11    1    3    3    0    0 -0.10655625077E+02  0.33779006888E+02  0.35719615915E+02  0.50303624258E+02  0.51100000000E-03 0.  1.
         23    2    1    0    0    0 -0.44990061613E+01 -0.11160134203E+02  0.25505849207E+02  0.96798262542E+02  0.92598950510E+02 0.  0.
         11    1    3    3    0    0  0.61566189162E+01 -0.44939141091E+02 -0.10213766709E+02  0.46494638284E+02  0.51100000000E-03 0. -1.
         22    1    1    0    0    0  0.44990061613E+01  0.11160134203E+02 -0.25505849207E+02  0.28201737458E+02  0.00000000000E+00 0. -1.
</event>
<event>
 5    1  0.6690694E-004  0.9118800E+02  0.7818608E-02  0.1130116E+00
         25   -1    0    0    0    0  0.00000000000E+00  0.00000000000E+00  0.99999998245E-14  0.12500000000E+03  0.12500000000E+03 0.  0.
        -11    1    3    3    0    0 -0.59575005160E+02 -0.11111318510E+02  0.93876078701E+01  0.61325115741E+02  0.51100000000E-03 0. -1.
         23    2    1    0    0    0 -0.22374415250E+02 -0.44926058877E+01 -0.47891075049E+01  0.10168190582E+03  0.98972099377E+02 0.  0.
         11    1    3    3    0    0  0.37200589910E+02  0.66187126223E+01 -0.14176715375E+02  0.40356790079E+02  0.51100000000E-03 0.  1.
         22    1    1    0    0    0  0.22374415250E+02  0.44926058877E+01  0.47891075049E+01  0.23318094179E+02  0.00000000000E+00 0. -1.
</event>
<event>
 5    1  0.6690694E-004  0.9118800E+02  0.7818608E-02  0.1130116E+00
         25   -1    0    0    0    0  0.00000000000E+00  0.00000000000E+00  0.99999998245E-14  0.12500000000E+03  0.12500000000E+03 0.  0.
        -11    1    3    3    0    0  0.28064858965E+02  0.36372324836E+02  0.38884169363E+02  0.60187714278E+02  0.51100000000E-03 0. -1.
         23    2    1    0    0    0  0.17643755042E+02  0.73054393000E+01  0.23599226251E+02  0.94642216567E+02  0.89641252455E+02 0.  0.
         11    1    3    3    0    0 -0.10421103923E+02 -0.29066885536E+02 -0.15284943112E+02  0.34454502289E+02  0.51100000000E-03 0.  1.
         22    1    1    0    0    0 -0.17643755042E+02 -0.73054393000E+01 -0.23599226251E+02  0.30357783433E+02  0.00000000000E+00 0. -1.
</event>
<event>
 5    1  0.6690694E-004  0.9118800E+02  0.7818608E-02  0.1130116E+00
         25   -1    0    0    0    0  0.00000000000E+00  0.00000000000E+00  0.99999998245E-14  0.12500000000E+03  0.12500000000E+03 0.  0.
        -11    1    3    3    0    0 -0.14039711245E+02  0.53063427379E+01  0.46185129648E+02  0.48562711683E+02  0.51100000000E-03 0. -1.
         23    2    1    0    0    0  0.90673388894E+01 -0.22676272866E+02  0.15613525089E+02  0.96013586780E+02  0.91533582335E+02 0.  0.
         11    1    3    3    0    0  0.23107050134E+02 -0.27982615604E+02 -0.30571604559E+02  0.47450875098E+02  0.51100000000E-03 0.  1.
         22    1    1    0    0    0 -0.90673388894E+01  0.22676272866E+02 -0.15613525089E+02  0.28986413220E+02  0.00000000000E+00 0.  1.
</event>
<event>
 5    1  0.6690694E-004  0.9118800E+02  0.7818608E-02  0.1130116E+00
         25   -1    0    0    0    0  0.00000000000E+00  0.00000000000E+00  0.99999998245E-14  0.12500000000E+03  0.12500000000E+03 0.  0.
        -11    1    3    3    0    0  0.11387363926E+02 -0.11324740116E+02 -0.52900072845E+02  0.55284170457E+02  0.51100000000E-03 0.  1.
         23    2    1    0    0    0 -0.10177242056E+02  0.96122120473E+01 -0.25273961600E+02  0.96108063214E+02  0.91662510349E+02 0.  0.
         11    1    3    3    0    0 -0.21564605982E+02  0.20936952164E+02  0.27626111245E+02  0.40823892757E+02  0.51100000000E-03 0. -1.
         22    1    1    0    0    0  0.10177242056E+02 -0.96122120473E+01  0.25273961600E+02  0.28891936786E+02  0.00000000000E+00 0. -1.
</event>
<event>
 5    1  0.6690694E-004  0.9118800E+02  0.7818608E-02  0.1130116E+00
         25   -1    0    0    0    0  0.00000000000E+00  0.00000000000E+00  0.99999998245E-14  0.12500000000E+03  0.12500000000E+03 0.  0.
        -11    1    3    3    0    0 -0.19270667454E+02 -0.45850623562E+02 -0.17888527084E+02  0.52854874010E+02  0.51100000000E-03 0.  1.
         23    2    1    0    0    0 -0.26718238075E+02 -0.42975245829E+01 -0.11684522661E+02  0.95523551211E+02  0.90861916130E+02 0.  0.
         11    1    3    3    0    0 -0.74475706210E+01  0.41553098979E+02  0.62040044232E+01  0.42668677201E+02  0.51100000000E-03 0. -1.
         22    1    1    0    0    0  0.26718238075E+02  0.42975245829E+01  0.11684522661E+02  0.29476448789E+02  0.00000000000E+00 0.  1.
</event>
<event>
 5    1  0.6690694E-004  0.9118800E+02  0.7818608E-02  0.1130116E+00
         25   -1    0    0    0    0  0.00000000000E+00  0.00000000000E+00  0.99999998245E-14  0.12500000000E+03  0.12500000000E+03 0.  0.
        -11    1    3    3    0    0  0.16673401650E+02 -0.33501095119E+02  0.52199742367E+01  0.37783247982E+02  0.51100000000E-03 0. -1.
         23    2    1    0    0    0  0.23192954140E+00  0.13510064432E+02 -0.25387974831E+02  0.96240220824E+02  0.91842556617E+02 0.  0.
         11    1    3    3    0    0 -0.16441472108E+02  0.47011159551E+02 -0.30607949067E+02  0.58456972842E+02  0.51100000000E-03 0.  1.
         22    1    1    0    0    0 -0.23192954140E+00 -0.13510064432E+02  0.25387974831E+02  0.28759779176E+02  0.00000000000E+00 0.  1.
</event>
<event>
 5    1  0.6690694E-004  0.9118800E+02  0.7818608E-02  0.1130116E+00
         25   -1    0    0    0    0  0.00000000000E+00  0.00000000000E+00  0.99999998245E-14  0.12500000000E+03  0.12500000000E+03 0.  0.
        -11    1    3    3    0    0 -0.22969617628E+02  0.18657804560E+02  0.47418796113E+02  0.55895073397E+02  0.51100000000E-03 0. -1.
         23    2    1    0    0    0  0.32854399122E+01  0.22960214008E+02  0.17415339073E+02  0.95995524867E+02  0.91508913319E+02 0.  0.
         11    1    3    3    0    0  0.26255057540E+02  0.43024094479E+01 -0.30003457040E+02  0.40100451470E+02  0.51100000000E-03 0.  1.
         22    1    1    0    0    0 -0.32854399122E+01 -0.22960214008E+02 -0.17415339073E+02  0.29004475133E+02  0.00000000000E+00 0. -1.
</event>
<event>
 5    1  0.6690694E-004  0.9118800E+02  0.7818608E-02  0.1130116E+00
         25   -1    0    0    0    0  0.00000000000E+00  0.00000000000E+00  0.99999998245E-14  0.12500000000E+03  0.12500000000E+03 0.  0.
        -11    1    3    3    0    0  0.59379503581E+01 -0.52500807415E+02  0.32012180864E+02  0.61776805984E+02  0.51100000000E-03 0.  1.
         23    2    1    0    0    0 -0.74786147937E+00 -0.21902512783E+02  0.20028337181E+02  0.95311388492E+02  0.90569570624E+02 0.  0.
         11    1    3    3    0    0 -0.66858118375E+01  0.30598294632E+02 -0.11983843682E+02  0.33534582508E+02  0.51100000000E-03 0. -1.
         22    1    1    0    0    0  0.74786147937E+00  0.21902512783E+02 -0.20028337181E+02  0.29688611508E+02  0.00000000000E+00 0.  1.
</event>
<event>
 5    1  0.6690694E-004  0.9118800E+02  0.7818608E-02  0.1130116E+00
         25   -1    0    0    0    0  0.00000000000E+00  0.00000000000E+00  0.99999998245E-14  0.12500000000E+03  0.12500000000E+03 0.  0.
        -11    1    3    3    0    0  0.66133206473E+01  0.30898650574E+02  0.11333881430E+02  0.33569621473E+02  0.51100000000E-03 0.  1.
         23    2    1    0    0    0 -0.89801725027E+01 -0.28189673345E+02  0.47711859880E+01  0.95032260726E+02  0.90183508367E+02 0.  0.
         11    1    3    3    0    0 -0.15593493150E+02 -0.59088323919E+02 -0.65626954420E+01  0.61462639253E+02  0.51100000000E-03 0. -1.
         22    1    1    0    0    0  0.89801725027E+01  0.28189673345E+02 -0.47711859880E+01  0.29967739274E+02  0.00000000000E+00 0. -1.
</event>
<event>
 5    1  0.6690694E-004  0.9118800E+02  0.7818608E-02  0.1130116E+00
         25   -1    0    0    0    0  0.00000000000E+00  0.00000000000E+00  0.99999998245E-14  0.12500000000E+03  0.12500000000E+03 0.  0.
        -11    1    3    3    0    0 -0.11959845531E+02  0.26216574905E+02 -0.24255053000E+02  0.37665027561E+02  0.51100000000E-03 0.  1.
         23    2    1    0    0    0  0.82811364590E+01 -0.26204974098E+02 -0.10980702323E+02  0.95405174235E+02  0.90698917076E+02 0.  0.
         11    1    3    3    0    0  0.20240981990E+02 -0.52421549003E+02  0.13274350677E+02  0.57740146674E+02  0.51100000000E-03 0. -1.
         22    1    1    0    0    0 -0.82811364590E+01  0.26204974098E+02  0.10980702323E+02  0.29594825765E+02  0.00000000000E+00 0. -1.
</event>
<event>
 5    1  0.6690694E-004  0.9118800E+02  0.7818608E-02  0.1130116E+00
         25   -1    0    0    0    0  0.00000000000E+00  0.00000000000E+00  0.99999998245E-14  0.12500000000E+03  0.12500000000E+03 0.  0.
        -11    1    3    3    0    0 -0.18119828325E+02 -0.46940361386E+02 -0.23956409581E+02  0.55728226832E+02  0.51100000000E-03 0. -1.
         23    2    1    0    0    0  0.99755843272E+01 -0.19430606893E+02 -0.20236153412E+02  0.95224797703E+02  0.90449983006E+02 0.  0.
         11    1    3    3    0    0  0.28095412652E+02  0.27509754492E+02  0.37202561693E+01  0.39496570871E+02  0.51100000000E-03 0.  1.
         22    1    1    0    0    0 -0.99755843272E+01  0.19430606893E+02  0.20236153412E+02  0.29775202297E+02  0.00000000000E+00 0. -1.
</event>
<event>
 5    1  0.6690694E-004  0.9118800E+02  0.7818608E-02  0.1130116E+00
         25   -1    0    0    0    0  0.00000000000E+00  0.00000000000E+00  0.99999998245E-14  0.12500000000E+03  0.12500000000E+03 0.  0.
        -11    1    3    3    0    0  0.87273245302E+01 -0.36199330301E+01  0.40278675533E+02  0.41371993082E+02  0.51100000000E-03 0.  1.
         23    2    1    0    0    0 -0.70559475120E+01 -0.27937792366E+02 -0.56029141466E+01  0.95645285140E+02  0.91029233134E+02 0.  0.
         11    1    3    3    0    0 -0.15783272042E+02 -0.24317859336E+02 -0.45881589680E+02  0.54273292058E+02  0.51100000000E-03 0. -1.
         22    1    1    0    0    0  0.70559475120E+01  0.27937792366E+02  0.56029141466E+01  0.29354714860E+02  0.00000000000E+00 0.  1.
</event>
<event>
 4    1  0.6690694E-004  0.9118800E+02  0.7818608E-02  0.1130116E+00
         25   -1    0    0    0    0  0.00000000000E+00  0.00000000000E+00  0.99999998245E-14  0.12500000000E+03  0.12500000000E+03 0.  0.
        -11    1    1    0    0    0 -0.66713727214E+01  0.58582816144E+01  0.10820820803E+02  0.13997029705E+02  0.51100000000E-03 0. -1.
         11    1    1    0    0    0  0.55359128844E+02  0.10481586531E+02 -0.17997797878E+02  0.59147422017E+02  0.51100000000E-03 0.  1.
         22    1    1    0    0    0 -0.48687756122E+02 -0.16339868145E+02  0.71769770751E+01  0.51855548278E+02  0.00000000000E+00 0.  1.
</event>
<event>
 5    1  0.6690694E-004  0.9118800E+02  0.7818608E-02  0.1130116E+00
         25   -1    0    0    0    0  0.00000000000E+00  0.00000000000E+00  0.99999998245E-14  0.12500000000E+03  0.12500000000E+03 0.  0.
        -11    1    3    3    0    0  0.11782195944E+02  0.26505971877E+02 -0.21804765245E+02  0.36288213983E+02  0.51100000000E-03 0. -1.
         23    2    1    0    0    0 -0.30028455654E+02 -0.18791439531E+01  0.65115204289E+01  0.94216250566E+02  0.89045284218E+02 0.  0.
         11    1    3    3    0    0 -0.41810651597E+02 -0.28385115830E+02  0.28316285674E+02  0.57928036583E+02  0.51100000000E-03 0.  1.
         22    1    1    0    0    0  0.30028455654E+02  0.18791439531E+01 -0.65115204289E+01  0.30783749434E+02  0.00000000000E+00 0.  1.
</event>
<event>
 5    1  0.6690694E-004  0.9118800E+02  0.7818608E-02  0.1130116E+00
         25   -1    0    0    0    0  0.00000000000E+00  0.00000000000E+00  0.99999998245E-14  0.12500000000E+03  0.12500000000E+03 0.  0.
        -11    1    3    3    0    0 -0.39219972440E+02  0.45801842232E+02  0.14996461932E+01  0.60318023251E+02  0.51100000000E-03 0. -1.
         23    2    1    0    0    0 -0.16575554791E+02  0.20866571939E+02  0.12243790603E+02  0.95672994536E+02  0.91067275320E+02 0.  0.
         11    1    3    3    0    0  0.22644417649E+02 -0.24935270292E+02  0.10744144410E+02  0.35354971285E+02  0.51100000000E-03 0.  1.
         22    1    1    0    0    0  0.16575554791E+02 -0.20866571939E+02 -0.12243790603E+02  0.29327005464E+02  0.00000000000E+00 0. -1.
</event>
<event>
 5    1  0.6690694E-004  0.9118800E+02  0.7818608E-02  0.1130116E+00
         25   -1    0    0    0    0  0.00000000000E+00  0.00000000000E+00  0.99999998245E-14  0.12500000000E+03  0.12500000000E+03 0.  0.
        -11    1    3    3    0    0  0.21121703277E+02 -0.16507399499E+02 -0.20470849778E+02  0.33729457133E+02  0.51100000000E-03 0. -1.
         23    2    1    0    0    0 -0.21781645955E+02  0.21999670002E+02 -0.33893400862E+01  0.93856570405E+02  0.88538932687E+02 0.  0.
         11    1    3    3    0    0 -0.42903349233E+02  0.38507069501E+02  0.17081509692E+02  0.60127113273E+02  0.51100000000E-03 0.  1.
         22    1    1    0    0    0  0.21781645955E+02 -0.21999670002E+02  0.33893400862E+01  0.31143429595E+02  0.00000000000E+00 0.  1.
</event>
<event>
 5    1  0.6690694E-004  0.9118800E+02  0.7818608E-02  0.1130116E+00
         25   -1    0    0    0    0  0.00000000000E+00  0.00000000000E+00  0.99999998245E-14  0.12500000000E+03  0.12500000000E+03 0.  0.
        -11    1    3    3    0    0  0.42687414106E+02  0.69552397261E+01 -0.41488389106E+02  0.59932271053E+02  0.51100000000E-03 0.  1.
         23    2    1    0    0    0  0.11917659707E+02 -0.22401061052E+01 -0.27469212841E+02  0.94973239563E+02  0.90101664195E+02 0.  0.
         11    1    3    3    0    0 -0.30769754399E+02 -0.91953458313E+01  0.14019176265E+02  0.35040968510E+02  0.51100000000E-03 0. -1.
         22    1    1    0    0    0 -0.11917659707E+02  0.22401061052E+01  0.27469212841E+02  0.30026760437E+02  0.00000000000E+00 0.  1.
</event>
<event>
 5    1  0.6690694E-004  0.9118800E+02  0.7818608E-02  0.1130116E+00
         25   -1    0    0    0    0  0.00000000000E+00  0.00000000000E+00  0.99999998245E-14  0.12500000000E+03  0.12500000000E+03 0.  0.
        -11    1    3    3    0    0 -0.18985301142E+02 -0.42554421259E+02 -0.38903385960E+02  0.60702502976E+02  0.51100000000E-03 0. -1.
         23    2    1    0    0    0 -0.14168361866E+02 -0.11845306497E+02 -0.22635539302E+02  0.95786622868E+02  0.91223109556E+02 0.  0.
         11    1    3    3    0    0  0.48169392760E+01  0.30709114762E+02  0.16267846659E+02  0.35084119892E+02  0.51100000000E-03 0.  1.
         22    1    1    0    0    0  0.14168361866E+02  0.11845306497E+02  0.22635539302E+02  0.29213377132E+02  0.00000000000E+00 0. -1.
</event>
<event>
 5    1  0.6690694E-004  0.9118800E+02  0.7818608E-02  0.1130116E+00
         25   -1    0    0    0    0  0.00000000000E+00  0.00000000000E+00  0.99999998245E-14  0.12500000000E+03  0.12500000000E+03 0.  0.
        -11    1    3    3    0    0  0.41185598265E+02 -0.60338914641E+00  0.39259184491E+02  0.56902558379E+02  0.51100000000E-03 0.  1.
         23    2    1    0    0    0  0.17129810680E+02  0.17963819774E+02  0.13469330247E+02  0.96759035213E+02  0.92545982102E+02 0.  0.
         11    1    3    3    0    0 -0.24055787585E+02  0.18567208920E+02 -0.25789854244E+02  0.39856476834E+02  0.51100000000E-03 0. -1.
         22    1    1    0    0    0 -0.17129810680E+02 -0.17963819774E+02 -0.13469330247E+02  0.28240964787E+02  0.00000000000E+00 0.  1.
</event>
<event>
 5    1  0.6690694E-004  0.9118800E+02  0.7818608E-02  0.1130116E+00
         25   -1    0    0    0    0  0.00000000000E+00  0.00000000000E+00  0.99999998245E-14  0.12500000000E+03  0.12500000000E+03 0.  0.
        -11    1    3    3    0    0 -0.46950708753E+00  0.28362095943E+01 -0.30710204821E+02  0.30844467935E+02  0.51100000000E-03 0. -1.
         23    2    1    0    0    0 -0.13928100407E+02 -0.22743236452E+01  0.29257869199E+02  0.92516351205E+02  0.86626138094E+02 0.  0.
         11    1    3    3    0    0 -0.13458593320E+02 -0.51105332395E+01  0.59968074020E+02  0.61671883270E+02  0.51100000000E-03 0.  1.
         22    1    1    0    0    0  0.13928100407E+02  0.22743236452E+01 -0.29257869199E+02  0.32483648795E+02  0.00000000000E+00 0.  1.
</event>
<event>
 5    1  0.6690694E-004  0.9118800E+02  0.7818608E-02  0.1130116E+00
         25   -1    0    0    0    0  0.00000000000E+00  0.00000000000E+00  0.99999998245E-14  0.12500000000E+03  0.12500000000E+03 0.  0.
        -11    1    3    3    0    0 -0.12695568214E+02  0.16108285159E+02 -0.33099920112E+02  0.38939170699E+02  0.51100000000E-03 0. -1.
         23    2    1    0    0    0  0.27596515623E+02  0.14448890683E+02  0.38235911030E+01  0.93615960021E+02  0.88198582785E+02 0.  0.
         11    1    3    3    0    0  0.40292083837E+02 -0.16593944755E+01  0.36923511215E+02  0.54676789322E+02  0.51100000000E-03 0.  1.
         22    1    1    0    0    0 -0.27596515623E+02 -0.14448890683E+02 -0.38235911030E+01  0.31384039979E+02  0.00000000000E+00 0.  1.
</event>
<event>
 5    1  0.6690694E-004  0.9118800E+02  0.7818608E-02  0.1130116E+00
         25   -1    0    0    0    0  0.00000000000E+00  0.00000000000E+00  0.99999998245E-14  0.12500000000E+03  0.12500000000E+03 0.  0.
        -11    1    3    3    0    0 -0.11768009683E+02 -0.33069161208E+02  0.15689649943E+02  0.38447634394E+02  0.51100000000E-03 0.  1.
         23    2    1    0    0    0  0.20174435383E+02 -0.48088430568E+01 -0.21567539998E+02  0.95078576302E+02  0.90247681829E+02 0.  0.
         11    1    3    3    0    0  0.31942445066E+02  0.28260318152E+02 -0.37257189940E+02  0.56630941908E+02  0.51100000000E-03 0. -1.
         22    1    1    0    0    0 -0.20174435383E+02  0.48088430568E+01  0.21567539998E+02  0.29921423698E+02  0.00000000000E+00 0. -1.
</event>
<event>
 5    1  0.6690694E-004  0.9118800E+02  0.7818608E-02  0.1130116E+00
         25   -1    0    0    0    0  0.00000000000E+00  0.00000000000E+00  0.99999998245E-14  0.12500000000E+03  0.12500000000E+03 0.  0.
        -11    1    3    3    0    0  0.20659049701E+02 -0.35813230764E+02 -0.38090859537E+02  0.56216522596E+02  0.51100000000E-03 0. -1.
         23    2    1    0    0    0  0.27236911877E+02 -0.86741151832E+01 -0.13664290124E+02  0.93317158155E+02  0.87774082386E+02 0.  0.
         11    1    3    3    0    0  0.65778621756E+01  0.27139115581E+02  0.24426569413E+02  0.37100635559E+02  0.51100000000E-03 0.  1.
         22    1    1    0    0    0 -0.27236911877E+02  0.86741151832E+01  0.13664290124E+02  0.31682841845E+02  0.00000000000E+00 0. -1.
</event>
<event>
 5    1  0.6690694E-004  0.9118800E+02  0.7818608E-02  0.1130116E+00
         25   -1    0    0    0    0  0.00000000000E+00  0.00000000000E+00  0.99999998245E-14  0.12500000000E+03  0.12500000000E+03 0.  0.
        -11    1    3    3    0    0 -0.70689469624E+01 -0.42909763599E+02  0.23956225853E+02  0.49649960530E+02  0.51100000000E-03 0. -1.
         23    2    1    0    0    0 -0.28402442501E+02 -0.68989574678E+01  0.61720769648E+01  0.95127121193E+02  0.90314895218E+02 0.  0.
         11    1    3    3    0    0 -0.21333495538E+02  0.36010806131E+02 -0.17784148888E+02  0.45477160663E+02  0.51100000000E-03 0.  1.
         22    1    1    0    0    0  0.28402442501E+02  0.68989574678E+01 -0.61720769648E+01  0.29872878807E+02  0.00000000000E+00 0.  1.
</event>
<event>
 5    1  0.6690694E-004  0.9118800E+02  0.7818608E-02  0.1130116E+00
         25   -1    0    0    0    0  0.00000000000E+00  0.00000000000E+00  0.99999998245E-14  0.12500000000E+03  0.12500000000E+03 0.  0.
        -11    1    3    3    0    0  0.97338581248E+01 -0.16262752646E+02  0.29595837688E+02  0.35144540491E+02  0.51100000000E-03 0.  1.
         23    2    1    0    0    0 -0.22636001715E+02  0.12019230100E+02 -0.13517112001E+02  0.96024790205E+02  0.91548880666E+02 0.  0.
         11    1    3    3    0    0 -0.32369859840E+02  0.28281982746E+02 -0.43112949689E+02  0.60880249714E+02  0.51100000000E-03 0. -1.
         22    1    1    0    0    0  0.22636001715E+02 -0.12019230100E+02  0.13517112001E+02  0.28975209795E+02  0.00000000000E+00 0. -1.
</event>
<event>
 5    1  0.6690694E-004  0.9118800E+02  0.7818608E-02  0.1130116E+00
         25   -1    0    0    0    0  0.00000000000E+00  0.00000000000E+00  0.99999998245E-14  0.12500000000E+03  0.12500000000E+03 0.  0.
        -11    1    3    3    0    0  0.58087003234E+02  0.27669917327E+01 -0.31314296485E+01  0.58237119089E+02  0.51100000000E-03 0. -1.
         23    2    1    0    0    0  0.24989827417E+02  0.17061947223E+02  0.21061141143E+01  0.94667884445E+02  0.89677037815E+02 0.  0.
         11    1    3    3    0    0 -0.33097175817E+02  0.14294955490E+02  0.52375437627E+01  0.36430765356E+02  0.51100000000E-03 0.  1.
         22    1    1    0    0    0 -0.24989827417E+02 -0.17061947223E+02 -0.21061141143E+01  0.30332115555E+02  0.00000000000E+00 0. -1.
</event>
<event>
 5    1  0.6690694E-004  0.9118800E+02  0.7818608E-02  0.1130116E+00
         25   -1    0    0    0    0  0.00000000000E+00  0.00000000000E+00  0.99999998245E-14  0.12500000000E+03  0.12500000000E+03 0.  0.
        -11    1    3    3    0    0 -0.20914649338E+02 -0.47131839597E+02  0.60876255951E+00  0.51567465061E+02  0.51100000000E-03 0. -1.
         23    2    1    0    0    0  0.16623537954E+02 -0.23842599712E+02  0.28150271330E+01  0.95798357017E+02  0.91239187054E+02 0.  0.
         11    1    3    3    0    0  0.37538187292E+02  0.23289239885E+02  0.22062645735E+01  0.44230891956E+02  0.51100000000E-03 0.  1.
         22    1    1    0    0    0 -0.16623537954E+02  0.23842599712E+02 -0.28150271330E+01  0.29201642983E+02  0.00000000000E+00 0. -1.
</event>
<event>
 5    1  0.6690694E-004  0.9118800E+02  0.7818608E-02  0.1130116E+00
         25   -1    0    0    0    0  0.00000000000E+00  0.00000000000E+00  0.99999998245E-14  0.12500000000E+03  0.12500000000E+03 0.  0.
        -11    1    3    3    0    0 -0.23656460119E+01  0.26389776092E+02 -0.15403061807E+02  0.30647526434E+02  0.51100000000E-03 0.  1.
         23    2    1    0    0    0 -0.31970141794E+00 -0.18993928221E+02  0.26461714375E+02  0.92425564534E+02  0.86495035312E+02 0.  0.
         11    1    3    3    0    0  0.20459445939E+01 -0.45383704313E+02  0.41864776182E+02  0.61778038100E+02  0.51100000000E-03 0. -1.
         22    1    1    0    0    0  0.31970141794E+00  0.18993928221E+02 -0.26461714375E+02  0.32574435466E+02  0.00000000000E+00 0. -1.
</event>
<event>
 5    1  0.6690694E-004  0.9118800E+02  0.7818608E-02  0.1130116E+00
         25   -1    0    0    0    0  0.00000000000E+00  0.00000000000E+00  0.99999998245E-14  0.12500000000E+03  0.12500000000E+03 0.  0.
        -11    1    3    3    0    0  0.16404403779E+02 -0.25217616641E+02  0.25218338243E+02  0.39255537652E+02  0.51100000000E-03 0.  1.
         23    2    1    0    0    0 -0.40916939009E+01 -0.11495312101E+02 -0.26097158428E+02  0.96191219441E+02  0.91775840287E+02 0.  0.
         11    1    3    3    0    0 -0.20496097680E+02  0.13722304540E+02 -0.51315496670E+02  0.56935681789E+02  0.51100000000E-03 0. -1.
         22    1    1    0    0    0  0.40916939009E+01  0.11495312101E+02  0.26097158428E+02  0.28808780559E+02  0.00000000000E+00 0. -1.
</event>
<event>
 5    1  0.6690694E-004  0.9118800E+02  0.7818608E-02  0.1130116E+00
         25   -1    0    0    0    0  0.00000000000E+00  0.00000000000E+00  0.99999998245E-14  0.12500000000E+03  0.12500000000E+03 0.  0.
        -11    1    3    3    0    0 -0.15816494326E+02 -0.52084598262E+02 -0.27452355491E+02  0.60963913024E+02  0.51100000000E-03 0. -1.
         23    2    1    0    0    0 -0.18669538395E+02 -0.29772272235E+02 -0.19422084435E+02  0.84848322305E+02  0.74746776360E+02 0.  0.
         11    1    3    3    0    0 -0.28530440685E+01  0.22312326027E+02  0.80302710566E+01  0.23884409281E+02  0.51100000000E-03 0.  1.
         22    1    1    0    0    0  0.18669538395E+02  0.29772272235E+02  0.19422084435E+02  0.40151677695E+02  0.00000000000E+00 0. -1.
</event>
<event>
 5    1  0.6690694E-004  0.9118800E+02  0.7818608E-02  0.1130116E+00
         25   -1    0    0    0    0  0.00000000000E+00  0.00000000000E+00  0.99999998245E-14  0.12500000000E+03  0.12500000000E+03 0.  0.
        -11    1    3    3    0    0 -0.15035457033E+02  0.57552467958E+02 -0.14628412525E+02  0.61256362849E+02  0.51100000000E-03 0. -1.
         23    2    1    0    0    0 -0.48457981139E+01  0.24467827122E+02 -0.15033116492E+02  0.95876969339E+02  0.91346824437E+02 0.  0.
         11    1    3    3    0    0  0.10189658919E+02 -0.33084640836E+02 -0.40470396723E+00  0.34620606489E+02  0.51100000000E-03 0.  1.
         22    1    1    0    0    0  0.48457981139E+01 -0.24467827122E+02  0.15033116492E+02  0.29123030661E+02  0.00000000000E+00 0. -1.
</event>
<event>
 5    1  0.6690694E-004  0.9118800E+02  0.7818608E-02  0.1130116E+00
         25   -1    0    0    0    0  0.00000000000E+00  0.00000000000E+00  0.99999998245E-14  0.12500000000E+03  0.12500000000E+03 0.  0.
        -11    1    3    3    0    0  0.41807006131E+02 -0.23399487214E+02 -0.37024978019E+02  0.60549242449E+02  0.51100000000E-03 0.  1.
         23    2    1    0    0    0  0.19604747620E+02 -0.18420183270E+02 -0.90316733765E+01  0.96623594222E+02  0.92362863508E+02 0.  0.
         11    1    3    3    0    0 -0.22202258511E+02  0.49793039447E+01  0.27993304643E+02  0.36074351773E+02  0.51100000000E-03 0. -1.
         22    1    1    0    0    0 -0.19604747620E+02  0.18420183270E+02  0.90316733765E+01  0.28376405778E+02  0.00000000000E+00 0.  1.
</event>
<event>
 5    1  0.6690694E-004  0.9118800E+02  0.7818608E-02  0.1130116E+00
         25   -1    0    0    0    0  0.00000000000E+00  0.00000000000E+00  0.99999998245E-14  0.12500000000E+03  0.12500000000E+03 0.  0.
        -11    1    3    3    0    0  0.53856233756E+01  0.36582945833E+02  0.25073364458E+02  0.44676509157E+02  0.51100000000E-03 0.  1.
         23    2    1    0    0    0 -0.13521848180E+02  0.19455277221E+02 -0.18344981548E+02  0.95035245071E+02  0.90187644762E+02 0.  0.
         11    1    3    3    0    0 -0.18907471555E+02 -0.17127668612E+02 -0.43418346006E+02  0.50358735914E+02  0.51100000000E-03 0. -1.
         22    1    1    0    0    0  0.13521848180E+02 -0.19455277221E+02  0.18344981548E+02  0.29964754929E+02  0.00000000000E+00 0. -1.
</event>
<event>
 5    1  0.6690694E-004  0.9118800E+02  0.7818608E-02  0.1130116E+00
         25   -1    0    0    0    0  0.00000000000E+00  0.00000000000E+00  0.99999998245E-14  0.12500000000E+03  0.12500000000E+03 0.  0.
        -11    1    3    3    0    0  0.47232050541E+02  0.28911332257E+02  0.13546454711E+02  0.57010860076E+02  0.51100000000E-03 0.  1.
         23    2    1    0    0    0  0.28438960191E+02 -0.17181183745E+01 -0.25676971021E+01  0.96393716496E+02  0.92051230975E+02 0.  0.
         11    1    3    3    0    0 -0.18793090350E+02 -0.30629450631E+02 -0.16114151813E+02  0.39382856420E+02  0.51100000000E-03 0. -1.
         22    1    1    0    0    0 -0.28438960191E+02  0.17181183745E+01  0.25676971021E+01  0.28606283504E+02  0.00000000000E+00 0.  1.
</event>
<event>
 5    1  0.6690694E-004  0.9118800E+02  0.7818608E-02  0.1130116E+00
         25   -1    0    0    0    0  0.00000000000E+00  0.00000000000E+00  0.99999998245E-14  0.12500000000E+03  0.12500000000E+03 0.  0.
        -11    1    3    3    0    0  0.12603666442E+02 -0.39119392065E+02  0.22031430630E+02  0.46632211819E+02  0.51100000000E-03 0.  1.
         23    2    1    0    0    0  0.26460579174E+02  0.66852297876E+01  0.64954512240E+01  0.96945669957E+02  0.92797723514E+02 0.  0.
         11    1    3    3    0    0  0.13856912732E+02  0.45804621852E+02 -0.15535979406E+02  0.50313458138E+02  0.51100000000E-03 0. -1.
         22    1    1    0    0    0 -0.26460579174E+02 -0.66852297876E+01 -0.64954512240E+01  0.28054330043E+02  0.00000000000E+00 0.  1.
</event>
<event>
 5    1  0.6690694E-004  0.9118800E+02  0.7818608E-02  0.1130116E+00
         25   -1    0    0    0    0  0.00000000000E+00  0.00000000000E+00  0.99999998245E-14  0.12500000000E+03  0.12500000000E+03 0.  0.
        -11    1    3    3    0    0 -0.23938991286E+02 -0.82011371236E+01 -0.32752116369E+02  0.41388827971E+02  0.51100000000E-03 0.  1.
         23    2    1    0    0    0 -0.12481627993E+02  0.54394996614E+01  0.22089699595E+02  0.99051319453E+02  0.95591996858E+02 0.  0.
         11    1    3    3    0    0  0.11457363292E+02  0.13640636785E+02  0.54841815964E+02  0.57662491482E+02  0.51100000000E-03 0. -1.
         22    1    1    0    0    0  0.12481627993E+02 -0.54394996614E+01 -0.22089699595E+02  0.25948680547E+02  0.00000000000E+00 0. -1.
</event>
<event>
 5    1  0.6690694E-004  0.9118800E+02  0.7818608E-02  0.1130116E+00
         25   -1    0    0    0    0  0.00000000000E+00  0.00000000000E+00  0.99999998245E-14  0.12500000000E+03  0.12500000000E+03 0.  0.
        -11    1    3    3    0    0  0.21056643135E+02 -0.20137713718E+02  0.16968188335E+02  0.33716897092E+02  0.51100000000E-03 0.  1.
         23    2    1    0    0    0 -0.11216852403E+02  0.23444557632E+02 -0.13280876537E+02  0.95813586346E+02  0.91260049235E+02 0.  0.
         11    1    3    3    0    0 -0.32273495538E+02  0.43582271351E+02 -0.30249064872E+02  0.62096689253E+02  0.51100000000E-03 0. -1.
         22    1    1    0    0    0  0.11216852403E+02 -0.23444557632E+02  0.13280876537E+02  0.29186413654E+02  0.00000000000E+00 0. -1.
</event>
<event>
 5    1  0.6690694E-004  0.9118800E+02  0.7818608E-02  0.1130116E+00
         25   -1    0    0    0    0  0.00000000000E+00  0.00000000000E+00  0.99999998245E-14  0.12500000000E+03  0.12500000000E+03 0.  0.
        -11    1    3    3    0    0  0.18515600914E+02 -0.26946979478E+02  0.15830692172E+02  0.36325996134E+02  0.51100000000E-03 0.  1.
         23    2    1    0    0    0 -0.82286350372E+01  0.26082058506E+02  0.94725676008E+01  0.96056714985E+02  0.91592460095E+02 0.  0.
         11    1    3    3    0    0 -0.26744235951E+02  0.53029037985E+02 -0.63581245713E+01  0.59730718851E+02  0.51100000000E-03 0. -1.
         22    1    1    0    0    0  0.82286350372E+01 -0.26082058506E+02 -0.94725676008E+01  0.28943285015E+02  0.00000000000E+00 0. -1.
</event>
<event>
 5    1  0.6690694E-004  0.9118800E+02  0.7818608E-02  0.1130116E+00
         25   -1    0    0    0    0  0.00000000000E+00  0.00000000000E+00  0.99999998245E-14  0.12500000000E+03  0.12500000000E+03 0.  0.
        -11    1    3    3    0    0  0.23800543687E+02  0.31923032471E+02  0.64520761622E+01  0.40338259370E+02  0.51100000000E-03 0. -1.
         23    2    1    0    0    0  0.13636106235E+02 -0.23440611152E+02  0.82454920299E+01  0.96655798066E+02  0.92406436554E+02 0.  0.
         11    1    3    3    0    0 -0.10164437453E+02 -0.55363643624E+02  0.17934158677E+01  0.56317538696E+02  0.51100000000E-03 0.  1.
         22    1    1    0    0    0 -0.13636106235E+02  0.23440611152E+02 -0.82454920299E+01  0.28344201934E+02  0.00000000000E+00 0.  1.
</event>
<event>
 5    1  0.6690694E-004  0.9118800E+02  0.7818608E-02  0.1130116E+00
         25   -1    0    0    0    0  0.00000000000E+00  0.00000000000E+00  0.99999998245E-14  0.12500000000E+03  0.12500000000E+03 0.  0.
        -11    1    3    3    0    0 -0.22516458162E+02  0.43188229395E+02  0.84378298683E+01  0.49430871119E+02  0.51100000000E-03 0.  1.
         23    2    1    0    0    0 -0.22097491404E+02 -0.52259278370E+01  0.14246132769E+02  0.98193997930E+02  0.94464276224E+02 0.  0.
         11    1    3    3    0    0  0.41896675817E+00 -0.48414157232E+02  0.58083029010E+01  0.48763126812E+02  0.51100000000E-03 0. -1.
         22    1    1    0    0    0  0.22097491404E+02  0.52259278370E+01 -0.14246132769E+02  0.26806002070E+02  0.00000000000E+00 0.  1.
</event>
<event>
 5    1  0.6690694E-004  0.9118800E+02  0.7818608E-02  0.1130116E+00
         25   -1    0    0    0    0  0.00000000000E+00  0.00000000000E+00  0.99999998245E-14  0.12500000000E+03  0.12500000000E+03 0.  0.
        -11    1    3    3    0    0  0.14084305800E+02 -0.48312187574E+02  0.35122056835E+02  0.61367695204E+02  0.51100000000E-03 0.  1.
         23    2    1    0    0    0  0.44541673044E+00 -0.29147997195E+02  0.15591752899E+02  0.91940857618E+02  0.85791691932E+02 0.  0.
         11    1    3    3    0    0 -0.13638889070E+02  0.19164190379E+02 -0.19530303935E+02  0.30573162414E+02  0.51100000000E-03 0. -1.
         22    1    1    0    0    0 -0.44541673044E+00  0.29147997195E+02 -0.15591752899E+02  0.33059142382E+02  0.00000000000E+00 0.  1.
</event>
<event>
 5    1  0.6690694E-004  0.9118800E+02  0.7818608E-02  0.1130116E+00
         25   -1    0    0    0    0  0.00000000000E+00  0.00000000000E+00  0.99999998245E-14  0.12500000000E+03  0.12500000000E+03 0.  0.
        -11    1    3    3    0    0 -0.54398323217E+01 -0.21200752449E+02 -0.30085244441E+02  0.37204645051E+02  0.51100000000E-03 0. -1.
         23    2    1    0    0    0 -0.53982838466E+01  0.29334366756E+02 -0.17960999347E+01  0.95119027518E+02  0.90303692502E+02 0.  0.
         11    1    3    3    0    0  0.41548475050E-01  0.50535119205E+02  0.28289144506E+02  0.57914382467E+02  0.51100000000E-03 0.  1.
         22    1    1    0    0    0  0.53982838466E+01 -0.29334366756E+02  0.17960999347E+01  0.29880972482E+02  0.00000000000E+00 0.  1.
</event>
<event>
 5    1  0.6690694E-004  0.9118800E+02  0.7818608E-02  0.1130116E+00
         25   -1    0    0    0    0  0.00000000000E+00  0.00000000000E+00  0.99999998245E-14  0.12500000000E+03  0.12500000000E+03 0.  0.
        -11    1    3    3    0    0 -0.23578772068E+02  0.15599870154E+02  0.37296239850E+01  0.28517092004E+02  0.51100000000E-03 0. -1.
         23    2    1    0    0    0  0.28305360459E+02 -0.10612377562E+02 -0.17103989987E+02  0.90267271030E+02  0.83317571721E+02 0.  0.
         11    1    3    3    0    0  0.51884132527E+02 -0.26212247716E+02 -0.20833613972E+02  0.61750179026E+02  0.51100000000E-03 0.  1.
         22    1    1    0    0    0 -0.28305360459E+02  0.10612377562E+02  0.17103989987E+02  0.34732728970E+02  0.00000000000E+00 0.  1.
</event>
<event>
 5    1  0.6690694E-004  0.9118800E+02  0.7818608E-02  0.1130116E+00
         25   -1    0    0    0    0  0.00000000000E+00  0.00000000000E+00  0.99999998245E-14  0.12500000000E+03  0.12500000000E+03 0.  0.
        -11    1    3    3    0    0 -0.42930914599E+02 -0.50848822728E+00  0.38415247420E+02  0.57611224802E+02  0.51100000000E-03 0. -1.
         23    2    1    0    0    0 -0.10865350911E+02  0.14459888883E+02  0.21708637742E+02  0.96743864569E+02  0.92525489148E+02 0.  0.
         11    1    3    3    0    0  0.32065563688E+02  0.14968377110E+02 -0.16706609678E+02  0.39132639767E+02  0.51100000000E-03 0.  1.
         22    1    1    0    0    0  0.10865350911E+02 -0.14459888883E+02 -0.21708637742E+02  0.28256135431E+02  0.00000000000E+00 0. -1.
</event>
<event>
 5    1  0.6690694E-004  0.9118800E+02  0.7818608E-02  0.1130116E+00
         25   -1    0    0    0    0  0.00000000000E+00  0.00000000000E+00  0.99999998245E-14  0.12500000000E+03  0.12500000000E+03 0.  0.
        -11    1    3    3    0    0  0.28787118464E+02  0.40164129495E+02  0.33164766472E+02  0.59512664392E+02  0.51100000000E-03 0.  1.
         23    2    1    0    0    0  0.27634928940E+01  0.23087349311E+02  0.23095381646E+02  0.92227156904E+02  0.86207825782E+02 0.  0.
         11    1    3    3    0    0 -0.26023625570E+02 -0.17076780184E+02 -0.10069384826E+02  0.32714492512E+02  0.51100000000E-03 0. -1.
         22    1    1    0    0    0 -0.27634928940E+01 -0.23087349311E+02 -0.23095381646E+02  0.32772843096E+02  0.00000000000E+00 0.  1.
</event>
<event>
 5    1  0.6690694E-004  0.9118800E+02  0.7818608E-02  0.1130116E+00
         25   -1    0    0    0    0  0.00000000000E+00  0.00000000000E+00  0.99999998245E-14  0.12500000000E+03  0.12500000000E+03 0.  0.
        -11    1    3    3    0    0  0.11432142202E+01  0.37952376496E+02 -0.41232326741E+02  0.56051713526E+02  0.51100000000E-03 0. -1.
         23    2    1    0    0    0 -0.18927762063E+02  0.17841711950E+02 -0.13762642852E+02  0.95572169630E+02  0.90928776564E+02 0.  0.
         11    1    3    3    0    0 -0.20070976283E+02 -0.20110664546E+02  0.27469683889E+02  0.39520456104E+02  0.51100000000E-03 0.  1.
         22    1    1    0    0    0  0.18927762063E+02 -0.17841711950E+02  0.13762642852E+02  0.29427830370E+02  0.00000000000E+00 0. -1.
</event>
<event>
 5    1  0.6690694E-004  0.9118800E+02  0.7818608E-02  0.1130116E+00
         25   -1    0    0    0    0  0.00000000000E+00  0.00000000000E+00  0.99999998245E-14  0.12500000000E+03  0.12500000000E+03 0.  0.
        -11    1    3    3    0    0  0.20394834063E+02  0.21519279835E+02  0.27055316492E+02  0.40137498823E+02  0.51100000000E-03 0.  1.
         23    2    1    0    0    0  0.35151650562E+01 -0.27882595351E+02  0.72257507735E+01  0.95982643416E+02  0.91491315730E+02 0.  0.
         11    1    3    3    0    0 -0.16879669006E+02 -0.49401875187E+02 -0.19829565718E+02  0.55845144592E+02  0.51100000000E-03 0. -1.
         22    1    1    0    0    0 -0.35151650562E+01  0.27882595351E+02 -0.72257507735E+01  0.29017356584E+02  0.00000000000E+00 0. -1.
</event>
<event>
 5    1  0.6690694E-004  0.9118800E+02  0.7818608E-02  0.1130116E+00
         25   -1    0    0    0    0  0.00000000000E+00  0.00000000000E+00  0.99999998245E-14  0.12500000000E+03  0.12500000000E+03 0.  0.
        -11    1    3    3    0    0 -0.33908764945E+02  0.43270146915E+02 -0.52674436920E+01  0.55225500608E+02  0.51100000000E-03 0. -1.
         23    2    1    0    0    0  0.16772790512E+01  0.29508818605E+02  0.56445250277E+01  0.94909398423E+02  0.90013052418E+02 0.  0.
         11    1    3    3    0    0  0.35586043996E+02 -0.13761328310E+02  0.10911968720E+02  0.39683897814E+02  0.51100000000E-03 0.  1.
         22    1    1    0    0    0 -0.16772790512E+01 -0.29508818605E+02 -0.56445250277E+01  0.30090601577E+02  0.00000000000E+00 0. -1.
</event>
<event>
 5    1  0.6690694E-004  0.9118800E+02  0.7818608E-02  0.1130116E+00
         25   -1    0    0    0    0  0.00000000000E+00  0.00000000000E+00  0.99999998245E-14  0.12500000000E+03  0.12500000000E+03 0.  0.
        -11    1    3    3    0    0 -0.26908256195E+02 -0.57023675743E+01 -0.28104489306E+02  0.39324719539E+02  0.51100000000E-03 0.  1.
         23    2    1    0    0    0  0.44122027550E+01 -0.10315354174E+02  0.22982209250E+02  0.99425481296E+02  0.96080020421E+02 0.  0.
         11    1    3    3    0    0  0.31320458950E+02 -0.46129866002E+01  0.51086698556E+02  0.60100761758E+02  0.51100000000E-03 0. -1.
         22    1    1    0    0    0 -0.44122027550E+01  0.10315354174E+02 -0.22982209250E+02  0.25574518704E+02  0.00000000000E+00 0. -1.
</event>
<event>
 5    1  0.6690694E-004  0.9118800E+02  0.7818608E-02  0.1130116E+00
         25   -1    0    0    0    0  0.00000000000E+00  0.00000000000E+00  0.99999998245E-14  0.12500000000E+03  0.12500000000E+03 0.  0.
        -11    1    3    3    0    0 -0.29185215272E+02 -0.21822606883E+02  0.53562879134E+01  0.36833310768E+02  0.51100000000E-03 0. -1.
         23    2    1    0    0    0  0.24898794866E+02  0.52341694723E+01  0.10391061531E+02  0.97516902001E+02  0.93564018192E+02 0.  0.
         11    1    3    3    0    0  0.54084010138E+02  0.27056776355E+02  0.50347736180E+01  0.60683591234E+02  0.51100000000E-03 0.  1.
         22    1    1    0    0    0 -0.24898794866E+02 -0.52341694723E+01 -0.10391061531E+02  0.27483097999E+02  0.00000000000E+00 0.  1.
</event>
<event>
 5    1  0.6690694E-004  0.9118800E+02  0.7818608E-02  0.1130116E+00
         25   -1    0    0    0    0  0.00000000000E+00  0.00000000000E+00  0.99999998245E-14  0.12500000000E+03  0.12500000000E+03 0.  0.
        -11    1    3    3    0    0 -0.17722011689E+02  0.18898459664E+00  0.32208205791E+02  0.36762398372E+02  0.51100000000E-03 0.  1.
         23    2    1    0    0    0 -0.60329004735E+01  0.14679866949E+02 -0.24141853262E+02  0.96108418861E+02  0.91662995343E+02 0.  0.
         11    1    3    3    0    0  0.11689111216E+02  0.14490882352E+02 -0.56350059053E+02  0.59346020490E+02  0.51100000000E-03 0. -1.
         22    1    1    0    0    0  0.60329004735E+01 -0.14679866949E+02  0.24141853262E+02  0.28891581139E+02  0.00000000000E+00 0. -1.
</event>
<event>
 5    1  0.6690694E-004  0.9118800E+02  0.7818608E-02  0.1130116E+00
         25   -1    0    0    0    0  0.00000000000E+00  0.00000000000E+00  0.99999998245E-14  0.12500000000E+03  0.12500000000E+03 0.  0.
        -11    1    3    3    0    0  0.22999819091E+02 -0.21434987115E+02  0.37128086802E+02  0.48651260833E+02  0.51100000000E-03 0.  1.
         23    2    1    0    0    0  0.18151541345E+02 -0.15354689696E+02 -0.11984225875E+02  0.98375450827E+02  0.94704079673E+02 0.  0.
         11    1    3    3    0    0 -0.48482777458E+01  0.60802974190E+01 -0.49112312677E+02  0.49724189993E+02  0.51100000000E-03 0. -1.
         22    1    1    0    0    0 -0.18151541345E+02  0.15354689696E+02  0.11984225875E+02  0.26624549173E+02  0.00000000000E+00 0.  1.
</event>
<event>
 5    1  0.6690694E-004  0.9118800E+02  0.7818608E-02  0.1130116E+00
         25   -1    0    0    0    0  0.00000000000E+00  0.00000000000E+00  0.99999998245E-14  0.12500000000E+03  0.12500000000E+03 0.  0.
        -11    1    3    3    0    0  0.37901479894E+02 -0.48226826706E+02 -0.89115734155E+01  0.61981974261E+02  0.51100000000E-03 0. -1.
         23    2    1    0    0    0  0.13325986081E+02 -0.26040102961E+02 -0.50512511607E+01  0.95315256350E+02  0.90574908708E+02 0.  0.
         11    1    3    3    0    0 -0.24575493812E+02  0.22186723745E+02  0.38603222548E+01  0.33333282089E+02  0.51100000000E-03 0.  1.
         22    1    1    0    0    0 -0.13325986081E+02  0.26040102961E+02  0.50512511607E+01  0.29684743650E+02  0.00000000000E+00 0. -1.
</event>
<event>
 5    1  0.6690694E-004  0.9118800E+02  0.7818608E-02  0.1130116E+00
         25   -1    0    0    0    0  0.00000000000E+00  0.00000000000E+00  0.99999998245E-14  0.12500000000E+03  0.12500000000E+03 0.  0.
        -11    1    3    3    0    0  0.25218274490E+02 -0.33941005882E+02 -0.29767942309E+02  0.51711542600E+02  0.51100000000E-03 0. -1.
         23    2    1    0    0    0  0.18090338991E+02  0.90715642872E+01 -0.20317665119E+02  0.96323159879E+02  0.91955369445E+02 0.  0.
         11    1    3    3    0    0 -0.71279354988E+01  0.43012570169E+02  0.94502771898E+01  0.44611617279E+02  0.51100000000E-03 0.  1.
         22    1    1    0    0    0 -0.18090338991E+02 -0.90715642872E+01  0.20317665119E+02  0.28676840121E+02  0.00000000000E+00 0. -1.
</event>
<event>
 5    1  0.6690694E-004  0.9118800E+02  0.7818608E-02  0.1130116E+00
         25   -1    0    0    0    0  0.00000000000E+00  0.00000000000E+00  0.99999998245E-14  0.12500000000E+03  0.12500000000E+03 0.  0.
        -11    1    3    3    0    0  0.30923017641E+02 -0.26797937524E+01  0.32512577878E+02  0.44949772359E+02  0.51100000000E-03 0. -1.
         23    2    1    0    0    0  0.27171387997E+02 -0.86542357890E+01 -0.14859568756E+02  0.92844333215E+02  0.87098124571E+02 0.  0.
         11    1    3    3    0    0 -0.37516296444E+01 -0.59744420366E+01 -0.47372146634E+02  0.47894560856E+02  0.51100000000E-03 0.  1.
         22    1    1    0    0    0 -0.27171387997E+02  0.86542357890E+01  0.14859568756E+02  0.32155666785E+02  0.00000000000E+00 0. -1.
</event>
<event>
 5    1  0.6690694E-004  0.9118800E+02  0.7818608E-02  0.1130116E+00
         25   -1    0    0    0    0  0.00000000000E+00  0.00000000000E+00  0.99999998245E-14  0.12500000000E+03  0.12500000000E+03 0.  0.
        -11    1    3    3    0    0  0.19612987134E+02  0.25302068346E+02 -0.29501319601E+02  0.43533800493E+02  0.51100000000E-03 0.  1.
         23    2    1    0    0    0 -0.11988164486E+02  0.23594994357E+02  0.12178235475E+02  0.95866698338E+02  0.91332768405E+02 0.  0.
         11    1    3    3    0    0 -0.31601151620E+02 -0.17070739898E+01  0.41679555076E+02  0.52332897845E+02  0.51100000000E-03 0. -1.
         22    1    1    0    0    0  0.11988164486E+02 -0.23594994357E+02 -0.12178235475E+02  0.29133301662E+02  0.00000000000E+00 0. -1.
</event>
<event>
 5    1  0.6690694E-004  0.9118800E+02  0.7818608E-02  0.1130116E+00
         25   -1    0    0    0    0  0.00000000000E+00  0.00000000000E+00  0.99999998245E-14  0.12500000000E+03  0.12500000000E+03 0.  0.
        -11    1    3    3    0    0  0.34731458170E+02  0.14363894303E+01 -0.27842663512E+02  0.44537077957E+02  0.51100000000E-03 0.  1.
         23    2    1    0    0    0 -0.14960641171E+02  0.58158039178E+01 -0.25985990700E+02  0.94456325170E+02  0.89381660829E+02 0.  0.
         11    1    3    3    0    0 -0.49692099341E+02  0.43794144874E+01  0.18566728122E+01  0.49919247213E+02  0.51100000000E-03 0. -1.
         22    1    1    0    0    0  0.14960641171E+02 -0.58158039178E+01  0.25985990700E+02  0.30543674830E+02  0.00000000000E+00 0.  1.
</event>
<event>
 5    1  0.6690694E-004  0.9118800E+02  0.7818608E-02  0.1130116E+00
         25   -1    0    0    0    0  0.00000000000E+00  0.00000000000E+00  0.99999998245E-14  0.12500000000E+03  0.12500000000E+03 0.  0.
        -11    1    3    3    0    0  0.40825267139E+02 -0.44421595432E+01  0.46778328726E+02  0.62246664625E+02  0.51100000000E-03 0. -1.
         23    2    1    0    0    0  0.27681246484E+02 -0.61766545388E+01  0.28861851999E+02  0.84535089657E+02  0.74221104912E+02 0.  0.
         11    1    3    3    0    0 -0.13144020654E+02 -0.17344949955E+01 -0.17916476726E+02  0.22288425032E+02  0.51100000000E-03 0.  1.
         22    1    1    0    0    0 -0.27681246484E+02  0.61766545388E+01 -0.28861851999E+02  0.40464910343E+02  0.00000000000E+00 0. -1.
</event>
<event>
 5    1  0.6690694E-004  0.9118800E+02  0.7818608E-02  0.1130116E+00
         25   -1    0    0    0    0  0.00000000000E+00  0.00000000000E+00  0.99999998245E-14  0.12500000000E+03  0.12500000000E+03 0.  0.
        -11    1    3    3    0    0  0.22556926015E+02  0.29148867795E+02  0.47206892053E+02  0.59891251970E+02  0.51100000000E-03 0.  1.
         23    2    1    0    0    0  0.13027697363E+02  0.47857195394E+01  0.31926091913E+02  0.90187655136E+02  0.83198039545E+02 0.  0.
         11    1    3    3    0    0 -0.95292286514E+01 -0.24363148256E+02 -0.15280800141E+02  0.30296403166E+02  0.51100000000E-03 0. -1.
         22    1    1    0    0    0 -0.13027697363E+02 -0.47857195394E+01 -0.31926091913E+02  0.34812344864E+02  0.00000000000E+00 0.  1.
</event>
<event>
 5    1  0.6690694E-004  0.9118800E+02  0.7818608E-02  0.1130116E+00
         25   -1    0    0    0    0  0.00000000000E+00  0.00000000000E+00  0.99999998245E-14  0.12500000000E+03  0.12500000000E+03 0.  0.
        -11    1    3    3    0    0  0.37805407407E+02  0.36353939388E+02 -0.19472990049E+02  0.55946895177E+02  0.51100000000E-03 0.  1.
         23    2    1    0    0    0  0.19372910875E+02  0.16616824714E+02  0.11470634462E+02  0.97017791468E+02  0.92894821530E+02 0.  0.
         11    1    3    3    0    0 -0.18432496532E+02 -0.19737114674E+02  0.30943624510E+02  0.41070896291E+02  0.51100000000E-03 0. -1.
         22    1    1    0    0    0 -0.19372910875E+02 -0.16616824714E+02 -0.11470634462E+02  0.27982208532E+02  0.00000000000E+00 0.  1.
</event>
<event>
 5    1  0.6690694E-004  0.9118800E+02  0.7818608E-02  0.1130116E+00
         25   -1    0    0    0    0  0.00000000000E+00  0.00000000000E+00  0.99999998245E-14  0.12500000000E+03  0.12500000000E+03 0.  0.
        -11    1    3    3    0    0  0.82897978949E+01  0.27322316755E+02  0.42201458659E+02  0.50952849334E+02  0.51100000000E-03 0.  1.
         23    2    1    0    0    0 -0.10222481160E+02 -0.96469797840E+01  0.26163873392E+02  0.95299636182E+02  0.90553349168E+02 0.  0.
         11    1    3    3    0    0 -0.18512279055E+02 -0.36969296539E+02 -0.16037585267E+02  0.44346786849E+02  0.51100000000E-03 0. -1.
         22    1    1    0    0    0  0.10222481160E+02  0.96469797840E+01 -0.26163873392E+02  0.29700363818E+02  0.00000000000E+00 0.  1.
</event>
<event>
 5    1  0.6690694E-004  0.9118800E+02  0.7818608E-02  0.1130116E+00
         25   -1    0    0    0    0  0.00000000000E+00  0.00000000000E+00  0.99999998245E-14  0.12500000000E+03  0.12500000000E+03 0.  0.
        -11    1    3    3    0    0 -0.18554205808E+01  0.35650027858E+02 -0.56352664567E+01  0.36140327892E+02  0.51100000000E-03 0. -1.
         23    2    1    0    0    0 -0.19156378568E+01 -0.18602200607E+02 -0.25030428274E+02  0.93755258436E+02  0.88395783888E+02 0.  0.
         11    1    3    3    0    0 -0.60217276077E-01 -0.54252228465E+02 -0.19395161817E+02  0.57614930545E+02  0.51100000000E-03 0.  1.
         22    1    1    0    0    0  0.19156378568E+01  0.18602200607E+02  0.25030428274E+02  0.31244741564E+02  0.00000000000E+00 0.  1.
</event>
<event>
 5    1  0.6690694E-004  0.9118800E+02  0.7818608E-02  0.1130116E+00
         25   -1    0    0    0    0  0.00000000000E+00  0.00000000000E+00  0.99999998245E-14  0.12500000000E+03  0.12500000000E+03 0.  0.
        -11    1    3    3    0    0  0.18646825068E+02 -0.26106515460E+02  0.12127132105E+02  0.34297544634E+02  0.51100000000E-03 0. -1.
         23    2    1    0    0    0 -0.28020585388E+01  0.27986746416E+02 -0.78107283206E+01  0.95808957128E+02  0.91253708320E+02 0.  0.
         11    1    3    3    0    0 -0.21448883607E+02  0.54093261876E+02 -0.19937860426E+02  0.61511412494E+02  0.51100000000E-03 0.  1.
         22    1    1    0    0    0  0.28020585388E+01 -0.27986746416E+02  0.78107283206E+01  0.29191042872E+02  0.00000000000E+00 0.  1.
</event>
<event>
 5    1  0.6690694E-004  0.9118800E+02  0.7818608E-02  0.1130116E+00
         25   -1    0    0    0    0  0.00000000000E+00  0.00000000000E+00  0.99999998245E-14  0.12500000000E+03  0.12500000000E+03 0.  0.
        -11    1    3    3    0    0 -0.12705361688E+02  0.47332380565E+02 -0.10212659864E+02  0.50060751965E+02  0.51100000000E-03 0. -1.
         23    2    1    0    0    0 -0.19678947283E+02  0.16576385904E+02  0.18973765088E+02  0.93030619376E+02  0.87365066497E+02 0.  0.
         11    1    3    3    0    0 -0.69735855949E+01 -0.30755994660E+02  0.29186424952E+02  0.42969867411E+02  0.51100000000E-03 0.  1.
         22    1    1    0    0    0  0.19678947283E+02 -0.16576385904E+02 -0.18973765088E+02  0.31969380624E+02  0.00000000000E+00 0.  1.
</event>
<event>
 5    1  0.6690694E-004  0.9118800E+02  0.7818608E-02  0.1130116E+00
         25   -1    0    0    0    0  0.00000000000E+00  0.00000000000E+00  0.99999998245E-14  0.12500000000E+03  0.12500000000E+03 0.  0.
        -11    1    3    3    0    0 -0.29655917320E+02  0.23656053328E+02  0.10269600144E+02  0.39300724911E+02  0.51100000000E-03 0. -1.
         23    2    1    0    0    0  0.19695447255E+02  0.38316814072E+01 -0.16665642010E+02  0.98916747737E+02  0.95415863117E+02 0.  0.
         11    1    3    3    0    0  0.49351364575E+02 -0.19824371921E+02 -0.26935242154E+02  0.59616022826E+02  0.51100000000E-03 0.  1.
         22    1    1    0    0    0 -0.19695447255E+02 -0.38316814072E+01  0.16665642010E+02  0.26083252263E+02  0.00000000000E+00 0.  1.
</event>
<event>
 5    1  0.6690694E-004  0.9118800E+02  0.7818608E-02  0.1130116E+00
         25   -1    0    0    0    0  0.00000000000E+00  0.00000000000E+00  0.99999998245E-14  0.12500000000E+03  0.12500000000E+03 0.  0.
        -11    1    3    3    0    0 -0.76485064488E+01  0.18620326030E+02 -0.41873446585E+02  0.46460754638E+02  0.51100000000E-03 0. -1.
         23    2    1    0    0    0  0.24468065493E+01 -0.22037399759E+02 -0.24893689472E+02  0.91663389105E+02  0.85386458389E+02 0.  0.
         11    1    3    3    0    0  0.10095312998E+02 -0.40657725789E+02  0.16979757113E+02  0.45202634467E+02  0.51100000000E-03 0.  1.
         22    1    1    0    0    0 -0.24468065493E+01  0.22037399759E+02  0.24893689472E+02  0.33336610895E+02  0.00000000000E+00 0.  1.
</event>
<event>
 5    1  0.6690694E-004  0.9118800E+02  0.7818608E-02  0.1130116E+00
         25   -1    0    0    0    0  0.00000000000E+00  0.00000000000E+00  0.99999998245E-14  0.12500000000E+03  0.12500000000E+03 0.  0.
        -11    1    3    3    0    0  0.39894728321E+01  0.37150571304E+02  0.40461539984E+02  0.55074649884E+02  0.51100000000E-03 0.  1.
         23    2    1    0    0    0 -0.19242623382E+02  0.11734261551E+02  0.17549896386E+02  0.96434805935E+02  0.92107011046E+02 0.  0.
         11    1    3    3    0    0 -0.23232096214E+02 -0.25416309753E+02 -0.22911643598E+02  0.41360156051E+02  0.51100000000E-03 0. -1.
         22    1    1    0    0    0  0.19242623382E+02 -0.11734261551E+02 -0.17549896386E+02  0.28565194065E+02  0.00000000000E+00 0.  1.
</event>
<event>
 5    1  0.6690694E-004  0.9118800E+02  0.7818608E-02  0.1130116E+00
         25   -1    0    0    0    0  0.00000000000E+00  0.00000000000E+00  0.99999998245E-14  0.12500000000E+03  0.12500000000E+03 0.  0.
        -11    1    3    3    0    0 -0.25147558328E+02  0.31410332016E+02  0.55849153439E+01  0.40622652878E+02  0.51100000000E-03 0.  1.
         23    2    1    0    0    0  0.13087154353E+02 -0.15581412757E+01  0.26604934082E+02  0.95309531314E+02  0.90567007395E+02 0.  0.
         11    1    3    3    0    0  0.38234712682E+02 -0.32968473291E+02  0.21020018738E+02  0.54686878436E+02  0.51100000000E-03 0. -1.
         22    1    1    0    0    0 -0.13087154353E+02  0.15581412757E+01 -0.26604934082E+02  0.29690468686E+02  0.00000000000E+00 0. -1.
</event>
<event>
 5    1  0.6690694E-004  0.9118800E+02  0.7818608E-02  0.1130116E+00
         25   -1    0    0    0    0  0.00000000000E+00  0.00000000000E+00  0.99999998245E-14  0.12500000000E+03  0.12500000000E+03 0.  0.
        -11    1    3    3    0    0 -0.34493004336E+02  0.13411689195E+02  0.17210279770E+02  0.40814635674E+02  0.51100000000E-03 0.  1.
         23    2    1    0    0    0 -0.14649341783E+01 -0.28500926427E+02  0.15848020073E+01  0.96417480224E+02  0.92083495026E+02 0.  0.
         11    1    3    3    0    0  0.33028070157E+02 -0.41912615622E+02 -0.15625477763E+02  0.55602844551E+02  0.51100000000E-03 0. -1.
         22    1    1    0    0    0  0.14649341783E+01  0.28500926427E+02 -0.15848020073E+01  0.28582519776E+02  0.00000000000E+00 0. -1.
</event>
<event>
 5    1  0.6690694E-004  0.9118800E+02  0.7818608E-02  0.1130116E+00
         25   -1    0    0    0    0  0.00000000000E+00  0.00000000000E+00  0.99999998245E-14  0.12500000000E+03  0.12500000000E+03 0.  0.
        -11    1    3    3    0    0 -0.15497003685E+01 -0.12310628031E+02 -0.27761552614E+02  0.30408172217E+02  0.51100000000E-03 0.  1.
         23    2    1    0    0    0 -0.21665421166E+02  0.20076226659E+02  0.18340056574E+02  0.90232155283E+02  0.83264871468E+02 0.  0.
         11    1    3    3    0    0 -0.20115720798E+02  0.32386854689E+02  0.46101609188E+02  0.59823983066E+02  0.51100000000E-03 0. -1.
         22    1    1    0    0    0  0.21665421166E+02 -0.20076226659E+02 -0.18340056574E+02  0.34767844717E+02  0.00000000000E+00 0. -1.
</event>
<event>
 5    1  0.6690694E-004  0.9118800E+02  0.7818608E-02  0.1130116E+00
         25   -1    0    0    0    0  0.00000000000E+00  0.00000000000E+00  0.99999998245E-14  0.12500000000E+03  0.12500000000E+03 0.  0.
        -11    1    3    3    0    0 -0.43388552494E+02  0.95715928205E+01  0.10833219778E+02  0.45733363397E+02  0.51100000000E-03 0. -1.
         23    2    1    0    0    0  0.18441509254E+01 -0.10801782338E+01  0.29215072632E+02  0.95706858370E+02  0.91113745355E+02 0.  0.
         11    1    3    3    0    0  0.45232703419E+02 -0.10651771054E+02  0.18381852854E+02  0.49973494973E+02  0.51100000000E-03 0.  1.
         22    1    1    0    0    0 -0.18441509254E+01  0.10801782338E+01 -0.29215072632E+02  0.29293141630E+02  0.00000000000E+00 0.  1.
</event>
<event>
 5    1  0.6690694E-004  0.9118800E+02  0.7818608E-02  0.1130116E+00
         25   -1    0    0    0    0  0.00000000000E+00  0.00000000000E+00  0.99999998245E-14  0.12500000000E+03  0.12500000000E+03 0.  0.
        -11    1    3    3    0    0 -0.52860067208E+02 -0.10550831039E+02 -0.23273211187E+02  0.58712427134E+02  0.51100000000E-03 0. -1.
         23    2    1    0    0    0 -0.14179310595E+02 -0.15857132708E+02 -0.15892096749E+02  0.98447029437E+02  0.94798509267E+02 0.  0.
         11    1    3    3    0    0  0.38680756613E+02 -0.53063016686E+01  0.73811144378E+01  0.39734602302E+02  0.51100000000E-03 0.  1.
         22    1    1    0    0    0  0.14179310595E+02  0.15857132708E+02  0.15892096749E+02  0.26552970563E+02  0.00000000000E+00 0. -1.
</event>
<event>
 5    1  0.6690694E-004  0.9118800E+02  0.7818608E-02  0.1130116E+00
         25   -1    0    0    0    0  0.00000000000E+00  0.00000000000E+00  0.99999998245E-14  0.12500000000E+03  0.12500000000E+03 0.  0.
        -11    1    3    3    0    0 -0.32232051100E+02  0.31103832257E+01 -0.37899387126E+00  0.32383996642E+02  0.51100000000E-03 0.  1.
         23    2    1    0    0    0  0.28020223084E+02  0.38790610710E-01  0.12890957063E+02  0.94156667165E+02  0.88961602904E+02 0.  0.
         11    1    3    3    0    0  0.60252274183E+02 -0.30715926150E+01  0.13269950934E+02  0.61772670523E+02  0.51100000000E-03 0. -1.
         22    1    1    0    0    0 -0.28020223084E+02 -0.38790610710E-01 -0.12890957063E+02  0.30843332835E+02  0.00000000000E+00 0. -1.
</event>
<event>
 5    1  0.6690694E-004  0.9118800E+02  0.7818608E-02  0.1130116E+00
         25   -1    0    0    0    0  0.00000000000E+00  0.00000000000E+00  0.99999998245E-14  0.12500000000E+03  0.12500000000E+03 0.  0.
        -11    1    3    3    0    0 -0.98088737764E+01 -0.21296817857E+02 -0.31118842441E+02  0.38963454810E+02  0.51100000000E-03 0.  1.
         23    2    1    0    0    0 -0.28809166650E+02  0.15284355257E+02  0.26909000857E+01  0.92276605586E+02  0.86279495805E+02 0.  0.
         11    1    3    3    0    0 -0.19000292874E+02  0.36581173114E+02  0.33809742526E+02  0.53313150776E+02  0.51100000000E-03 0. -1.
         22    1    1    0    0    0  0.28809166650E+02 -0.15284355257E+02 -0.26909000857E+01  0.32723394414E+02  0.00000000000E+00 0. -1.
</event>
<event>
 5    1  0.6690694E-004  0.9118800E+02  0.7818608E-02  0.1130116E+00
         25   -1    0    0    0    0  0.00000000000E+00  0.00000000000E+00  0.99999998245E-14  0.12500000000E+03  0.12500000000E+03 0.  0.
        -11    1    3    3    0    0  0.24364382698E+02  0.10640311359E+01  0.36156248663E+02  0.43612264606E+02  0.51100000000E-03 0. -1.
         23    2    1    0    0    0 -0.19854680414E+02  0.16055245623E+02  0.75351042536E+01  0.98377508711E+02  0.94706795837E+02 0.  0.
         11    1    3    3    0    0 -0.44219063112E+02  0.14991214487E+02 -0.28621144409E+02  0.54765244104E+02  0.51100000000E-03 0.  1.
         22    1    1    0    0    0  0.19854680414E+02 -0.16055245623E+02 -0.75351042536E+01  0.26622491289E+02  0.00000000000E+00 0.  1.
</event>
<event>
 5    1  0.6690694E-004  0.9118800E+02  0.7818608E-02  0.1130116E+00
         25   -1    0    0    0    0  0.00000000000E+00  0.00000000000E+00  0.99999998245E-14  0.12500000000E+03  0.12500000000E+03 0.  0.
        -11    1    3    3    0    0 -0.99827974117E+01 -0.16229904435E+02  0.28590332707E+01  0.19267592315E+02  0.51100000000E-03 0.  1.
         23    2    1    0    0    0 -0.85345166201E+01  0.36476213305E+02  0.28530769767E+02  0.77911180366E+02  0.62070887633E+02 0.  0.
         11    1    3    3    0    0  0.14482807916E+01  0.52706117740E+02  0.25671736497E+02  0.58643588051E+02  0.51100000000E-03 0. -1.
         22    1    1    0    0    0  0.85345166201E+01 -0.36476213305E+02 -0.28530769767E+02  0.47088819634E+02  0.00000000000E+00 0. -1.
</event>
<event>
 5    1  0.6690694E-004  0.9118800E+02  0.7818608E-02  0.1130116E+00
         25   -1    0    0    0    0  0.00000000000E+00  0.00000000000E+00  0.99999998245E-14  0.12500000000E+03  0.12500000000E+03 0.  0.
        -11    1    3    3    0    0 -0.18398434393E+02 -0.22564287688E+02 -0.35958075811E+02  0.46266971840E+02  0.51100000000E-03 0. -1.
         23    2    1    0    0    0  0.16527151641E+02 -0.23929948044E+02 -0.70661258126E+00  0.95908962615E+02  0.91390593902E+02 0.  0.
         11    1    3    3    0    0  0.34925586034E+02 -0.13656603563E+01  0.35251463229E+02  0.49641990775E+02  0.51100000000E-03 0.  1.
         22    1    1    0    0    0 -0.16527151641E+02  0.23929948044E+02  0.70661258126E+00  0.29091037385E+02  0.00000000000E+00 0.  1.
</event>
<event>
 5    1  0.6690694E-004  0.9118800E+02  0.7818608E-02  0.1130116E+00
         25   -1    0    0    0    0  0.00000000000E+00  0.00000000000E+00  0.99999998245E-14  0.12500000000E+03  0.12500000000E+03 0.  0.
        -11    1    3    3    0    0 -0.25629640508E+02  0.36083823261E+02  0.28181492804E+02  0.52470156381E+02  0.51100000000E-03 0.  1.
         23    2    1    0    0    0 -0.25311049559E+02 -0.36686179277E+01  0.36979493229E+01  0.99158505917E+02  0.95732055651E+02 0.  0.
         11    1    3    3    0    0  0.31859094957E+00 -0.39752441189E+02 -0.24483543481E+02  0.46688349535E+02  0.51100000000E-03 0. -1.
         22    1    1    0    0    0  0.25311049559E+02  0.36686179277E+01 -0.36979493229E+01  0.25841494083E+02  0.00000000000E+00 0. -1.
</event>
<event>
 5    1  0.6690694E-004  0.9118800E+02  0.7818608E-02  0.1130116E+00
         25   -1    0    0    0    0  0.00000000000E+00  0.00000000000E+00  0.99999998245E-14  0.12500000000E+03  0.12500000000E+03 0.  0.
        -11    1    3    3    0    0 -0.12188975559E+02  0.35297185895E+02 -0.47322399613E+02  0.60281605508E+02  0.51100000000E-03 0. -1.
         23    2    1    0    0    0 -0.21222194487E+01  0.74139832052E+01 -0.28680879118E+02  0.95300441260E+02  0.90554460493E+02 0.  0.
         11    1    3    3    0    0  0.10066756110E+02 -0.27883202690E+02  0.18641520495E+02  0.35018835752E+02  0.51100000000E-03 0.  1.
         22    1    1    0    0    0  0.21222194487E+01 -0.74139832052E+01  0.28680879118E+02  0.29699558740E+02  0.00000000000E+00 0. -1.
</event>
<event>
 5    1  0.6690694E-004  0.9118800E+02  0.7818608E-02  0.1130116E+00
         25   -1    0    0    0    0  0.00000000000E+00  0.00000000000E+00  0.99999998245E-14  0.12500000000E+03  0.12500000000E+03 0.  0.
        -11    1    3    3    0    0  0.12518489488E+01 -0.20673042754E+02 -0.45389890657E+02  0.49891722726E+02  0.51100000000E-03 0.  1.
         23    2    1    0    0    0  0.17725438543E+02 -0.23198142454E+02 -0.27465048936E+01  0.95676148377E+02  0.91071604215E+02 0.  0.
         11    1    3    3    0    0  0.16473589594E+02 -0.25250997006E+01  0.42643385763E+02  0.45784425651E+02  0.51100000000E-03 0. -1.
         22    1    1    0    0    0 -0.17725438543E+02  0.23198142454E+02  0.27465048936E+01  0.29323851623E+02  0.00000000000E+00 0. -1.
</event>
<event>
 5    1  0.6690694E-004  0.9118800E+02  0.7818608E-02  0.1130116E+00
         25   -1    0    0    0    0  0.00000000000E+00  0.00000000000E+00  0.99999998245E-14  0.12500000000E+03  0.12500000000E+03 0.  0.
        -11    1    3    3    0    0 -0.27323383407E+02 -0.27255172564E+02 -0.65373139729E+01  0.39142664530E+02  0.51100000000E-03 0.  1.
         23    2    1    0    0    0  0.25698946314E+02 -0.82684956495E+00 -0.68640119380E+01  0.98387330428E+02  0.94719758272E+02 0.  0.
         11    1    3    3    0    0  0.53022329721E+02  0.26428322999E+02 -0.32669796509E+00  0.59244665898E+02  0.51100000000E-03 0. -1.
         22    1    1    0    0    0 -0.25698946314E+02  0.82684956495E+00  0.68640119380E+01  0.26612669572E+02  0.00000000000E+00 0. -1.
</event>
<event>
 5    1  0.6690694E-004  0.9118800E+02  0.7818608E-02  0.1130116E+00
         25   -1    0    0    0    0  0.00000000000E+00  0.00000000000E+00  0.99999998245E-14  0.12500000000E+03  0.12500000000E+03 0.  0.
        -11    1    3    3    0    0  0.12422599439E+02 -0.42378796247E+02  0.23357204577E+02  0.49958406241E+02  0.51100000000E-03 0.  1.
         23    2    1    0    0    0 -0.15532919235E+02 -0.12005468849E+02  0.27242392702E+02  0.91420976453E+02  0.85030842129E+02 0.  0.
         11    1    3    3    0    0 -0.27955518675E+02  0.30373327398E+02  0.38851881242E+01  0.41462570212E+02  0.51100000000E-03 0. -1.
         22    1    1    0    0    0  0.15532919235E+02  0.12005468849E+02 -0.27242392702E+02  0.33579023547E+02  0.00000000000E+00 0.  1.
</event>
<event>
 5    1  0.6690694E-004  0.9118800E+02  0.7818608E-02  0.1130116E+00
         25   -1    0    0    0    0  0.00000000000E+00  0.00000000000E+00  0.99999998245E-14  0.12500000000E+03  0.12500000000E+03 0.  0.
        -11    1    3    3    0    0  0.23750992674E+02 -0.34617681810E+02 -0.14779814927E+01  0.42008070373E+02  0.51100000000E-03 0. -1.
         23    2    1    0    0    0 -0.18440490269E+02 -0.97561861898E+01  0.20559398203E+02  0.95709665335E+02  0.91117596180E+02 0.  0.
         11    1    3    3    0    0 -0.42191482942E+02  0.24861495620E+02  0.22037379696E+02  0.53701594962E+02  0.51100000000E-03 0.  1.
         22    1    1    0    0    0  0.18440490269E+02  0.97561861898E+01 -0.20559398203E+02  0.29290334665E+02  0.00000000000E+00 0.  1.
</event>
<event>
 5    1  0.6690694E-004  0.9118800E+02  0.7818608E-02  0.1130116E+00
         25   -1    0    0    0    0  0.00000000000E+00  0.00000000000E+00  0.99999998245E-14  0.12500000000E+03  0.12500000000E+03 0.  0.
        -11    1    3    3    0    0 -0.74377934652E+01  0.50827162947E+02  0.24617789249E+02  0.56962766898E+02  0.51100000000E-03 0. -1.
         23    2    1    0    0    0 -0.33297078239E+01  0.29125982578E+02 -0.63544711026E+01  0.95003514900E+02  0.90143656044E+02 0.  0.
         11    1    3    3    0    0  0.41080856412E+01 -0.21701180369E+02 -0.30972260351E+02  0.38040748002E+02  0.51100000000E-03 0.  1.
         22    1    1    0    0    0  0.33297078239E+01 -0.29125982578E+02  0.63544711026E+01  0.29996485100E+02  0.00000000000E+00 0. -1.
</event>
<event>
 5    1  0.6690694E-004  0.9118800E+02  0.7818608E-02  0.1130116E+00
         25   -1    0    0    0    0  0.00000000000E+00  0.00000000000E+00  0.99999998245E-14  0.12500000000E+03  0.12500000000E+03 0.  0.
        -11    1    3    3    0    0 -0.17364111460E+02  0.13487046612E+02  0.30216665354E+02  0.37369234117E+02  0.51100000000E-03 0.  1.
         23    2    1    0    0    0  0.18719949105E+02  0.97153232451E+01 -0.17696214417E+02  0.97468563333E+02  0.93499416219E+02 0.  0.
         11    1    3    3    0    0  0.36084060565E+02 -0.37717233673E+01 -0.47912879771E+02  0.60099329216E+02  0.51100000000E-03 0. -1.
         22    1    1    0    0    0 -0.18719949105E+02 -0.97153232451E+01  0.17696214417E+02  0.27531436667E+02  0.00000000000E+00 0. -1.
</event>
<event>
 5    1  0.6690694E-004  0.9118800E+02  0.7818608E-02  0.1130116E+00
         25   -1    0    0    0    0  0.00000000000E+00  0.00000000000E+00  0.99999998245E-14  0.12500000000E+03  0.12500000000E+03 0.  0.
        -11    1    3    3    0    0 -0.54456018385E+02  0.79048073213E+01  0.57258670913E+01  0.55323859874E+02  0.51100000000E-03 0.  1.
         23    2    1    0    0    0 -0.23466656609E+02 -0.13105958128E+02 -0.10518777201E+02  0.96136618621E+02  0.91701443038E+02 0.  0.
         11    1    3    3    0    0  0.30989361777E+02 -0.21010765449E+02 -0.16244644292E+02  0.40812758747E+02  0.51100000000E-03 0. -1.
         22    1    1    0    0    0  0.23466656609E+02  0.13105958128E+02  0.10518777201E+02  0.28863381379E+02  0.00000000000E+00 0.  1.
</event>
<event>
 5    1  0.6690694E-004  0.9118800E+02  0.7818608E-02  0.1130116E+00
         25   -1    0    0    0    0  0.00000000000E+00  0.00000000000E+00  0.99999998245E-14  0.12500000000E+03  0.12500000000E+03 0.  0.
        -11    1    3    3    0    0  0.66862123324E+01  0.13335746119E+02 -0.40010345848E+02  0.42700999228E+02  0.51100000000E-03 0. -1.
         23    2    1    0    0    0 -0.29956749413E+02 -0.58867004179E+01 -0.17672198800E+02  0.89724417969E+02  0.82499118130E+02 0.  0.
         11    1    3    3    0    0 -0.36642961745E+02 -0.19222446537E+02  0.22338147048E+02  0.47023418741E+02  0.51100000000E-03 0.  1.
         22    1    1    0    0    0  0.29956749413E+02  0.58867004179E+01  0.17672198800E+02  0.35275582031E+02  0.00000000000E+00 0.  1.
</event>
<event>
 5    1  0.6690694E-004  0.9118800E+02  0.7818608E-02  0.1130116E+00
         25   -1    0    0    0    0  0.00000000000E+00  0.00000000000E+00  0.99999998245E-14  0.12500000000E+03  0.12500000000E+03 0.  0.
        -11    1    3    3    0    0 -0.10947978096E+02  0.72865302364E+01  0.35657807120E+02  0.38005670052E+02  0.51100000000E-03 0.  1.
         23    2    1    0    0    0 -0.18971927784E+02 -0.15610066288E+02 -0.16414476590E+02  0.95452694622E+02  0.90764385392E+02 0.  0.
         11    1    3    3    0    0 -0.80239496885E+01 -0.22896596524E+02 -0.52072283709E+02  0.57447024570E+02  0.51100000000E-03 0. -1.
         22    1    1    0    0    0  0.18971927784E+02  0.15610066288E+02  0.16414476590E+02  0.29547305378E+02  0.00000000000E+00 0. -1.
</event>
<event>
 5    1  0.6690694E-004  0.9118800E+02  0.7818608E-02  0.1130116E+00
         25   -1    0    0    0    0  0.00000000000E+00  0.00000000000E+00  0.99999998245E-14  0.12500000000E+03  0.12500000000E+03 0.  0.
        -11    1    3    3    0    0 -0.15443608122E+02 -0.16965343805E+02  0.47405181861E+02  0.52664781304E+02  0.51100000000E-03 0. -1.
         23    2    1    0    0    0  0.14392635439E+02 -0.19445162301E+02  0.16353377728E+02  0.95799053869E+02  0.91240141754E+02 0.  0.
         11    1    3    3    0    0  0.29836243561E+02 -0.24798184959E+01 -0.31051804133E+02  0.43134272566E+02  0.51100000000E-03 0.  1.
         22    1    1    0    0    0 -0.14392635439E+02  0.19445162301E+02 -0.16353377728E+02  0.29200946131E+02  0.00000000000E+00 0.  1.
</event>
<event>
 5    1  0.6690694E-004  0.9118800E+02  0.7818608E-02  0.1130116E+00
         25   -1    0    0    0    0  0.00000000000E+00  0.00000000000E+00  0.99999998245E-14  0.12500000000E+03  0.12500000000E+03 0.  0.
        -11    1    3    3    0    0  0.34746494249E+02  0.96385863062E+01  0.16472521657E+01  0.36096186066E+02  0.51100000000E-03 0.  1.
         23    2    1    0    0    0 -0.25032491804E+01 -0.23285985266E+02  0.24757587900E+02  0.90920071525E+02  0.84291268120E+02 0.  0.
         11    1    3    3    0    0 -0.37249743430E+02 -0.32924571572E+02  0.23110335734E+02  0.54823885458E+02  0.51100000000E-03 0. -1.
         22    1    1    0    0    0  0.25032491804E+01  0.23285985266E+02 -0.24757587900E+02  0.34079928475E+02  0.00000000000E+00 0. -1.
</event>
<event>
 5    1  0.6690694E-004  0.9118800E+02  0.7818608E-02  0.1130116E+00
         25   -1    0    0    0    0  0.00000000000E+00  0.00000000000E+00  0.99999998245E-14  0.12500000000E+03  0.12500000000E+03 0.  0.
        -11    1    3    3    0    0  0.83180789690E+01  0.18078502882E+02  0.51347742182E+02  0.55069168612E+02  0.51100000000E-03 0. -1.
         23    2    1    0    0    0  0.83154881258E+01  0.24442030477E+02  0.93577514802E+01  0.97538614212E+02  0.93593020857E+02 0.  0.
         11    1    3    3    0    0 -0.25908431791E-02  0.63635275953E+01 -0.41989990702E+02  0.42469445600E+02  0.51100000000E-03 0.  1.
         22    1    1    0    0    0 -0.83154881258E+01 -0.24442030477E+02 -0.93577514802E+01  0.27461385788E+02  0.00000000000E+00 0. -1.
</event>
<event>
 5    1  0.6690694E-004  0.9118800E+02  0.7818608E-02  0.1130116E+00
         25   -1    0    0    0    0  0.00000000000E+00  0.00000000000E+00  0.99999998245E-14  0.12500000000E+03  0.12500000000E+03 0.  0.
        -11    1    3    3    0    0 -0.38904091207E+02  0.10810760591E+02  0.44429474811E+02  0.60036481321E+02  0.51100000000E-03 0. -1.
         23    2    1    0    0    0 -0.81235794679E+01 -0.10918893170E+01  0.25791210169E+02  0.97937640760E+02  0.94124439918E+02 0.  0.
         11    1    3    3    0    0  0.30780511739E+02 -0.11902649908E+02 -0.18638264641E+02  0.37901159439E+02  0.51100000000E-03 0.  1.
         22    1    1    0    0    0  0.81235794679E+01  0.10918893170E+01 -0.25791210169E+02  0.27062359240E+02  0.00000000000E+00 0. -1.
</event>
<event>
 5    1  0.6690694E-004  0.9118800E+02  0.7818608E-02  0.1130116E+00
         25   -1    0    0    0    0  0.00000000000E+00  0.00000000000E+00  0.99999998245E-14  0.12500000000E+03  0.12500000000E+03 0.  0.
        -11    1    3    3    0    0 -0.75089677457E+01  0.41700368532E+02  0.45606190804E+02  0.62251345144E+02  0.51100000000E-03 0.  1.
         23    2    1    0    0    0 -0.68107237431E+01  0.22183495369E+02  0.20680021289E+02  0.93916938613E+02  0.88624120042E+02 0.  0.
         11    1    3    3    0    0  0.69824400260E+00 -0.19516873163E+02 -0.24926169515E+02  0.31665593469E+02  0.51100000000E-03 0. -1.
         22    1    1    0    0    0  0.68107237431E+01 -0.22183495369E+02 -0.20680021289E+02  0.31083061387E+02  0.00000000000E+00 0.  1.
</event>
<event>
 5    1  0.6690694E-004  0.9118800E+02  0.7818608E-02  0.1130116E+00
         25   -1    0    0    0    0  0.00000000000E+00  0.00000000000E+00  0.99999998245E-14  0.12500000000E+03  0.12500000000E+03 0.  0.
        -11    1    3    3    0    0  0.35918311197E+02 -0.36455313174E+02 -0.27762595617E+02  0.58222647256E+02  0.51100000000E-03 0.  1.
         23    2    1    0    0    0  0.35628078107E+02 -0.21122848937E+02 -0.87188696243E+01  0.82673254503E+02  0.71016291270E+02 0.  0.
         11    1    3    3    0    0 -0.29023308958E+00  0.15332464236E+02  0.19043725993E+02  0.24450607247E+02  0.51100000000E-03 0. -1.
         22    1    1    0    0    0 -0.35628078107E+02  0.21122848937E+02  0.87188696243E+01  0.42326745497E+02  0.00000000000E+00 0.  1.
</event>
<event>
 5    1  0.6690694E-004  0.9118800E+02  0.7818608E-02  0.1130116E+00
         25   -1    0    0    0    0  0.00000000000E+00  0.00000000000E+00  0.99999998245E-14  0.12500000000E+03  0.12500000000E+03 0.  0.
        -11    1    3    3    0    0 -0.21020742382E+02 -0.52269068849E+02 -0.14009120732E+01  0.56355032814E+02  0.51100000000E-03 0.  1.
         23    2    1    0    0    0  0.52644900983E+01 -0.18299290732E+02  0.13322879480E+02  0.10176042137E+03  0.99071213490E+02 0.  0.
         11    1    3    3    0    0  0.26285232480E+02  0.33969778117E+02  0.14723791553E+02  0.45405388555E+02  0.51100000000E-03 0. -1.
         22    1    1    0    0    0 -0.52644900983E+01  0.18299290732E+02 -0.13322879480E+02  0.23239578631E+02  0.00000000000E+00 0.  1.
</event>
<event>
 5    1  0.6690694E-004  0.9118800E+02  0.7818608E-02  0.1130116E+00
         25   -1    0    0    0    0  0.00000000000E+00  0.00000000000E+00  0.99999998245E-14  0.12500000000E+03  0.12500000000E+03 0.  0.
        -11    1    3    3    0    0 -0.10858488923E+02  0.34459003603E+02 -0.87910162958E+01  0.37183486641E+02  0.51100000000E-03 0.  1.
         23    2    1    0    0    0  0.27464240625E+02 -0.94961529968E+01 -0.28059606174E+01  0.95805225642E+02  0.91248596759E+02 0.  0.
         11    1    3    3    0    0  0.38322729548E+02 -0.43955156600E+02  0.59850556783E+01  0.58621739001E+02  0.51100000000E-03 0. -1.
         22    1    1    0    0    0 -0.27464240625E+02  0.94961529968E+01  0.28059606174E+01  0.29194774358E+02  0.00000000000E+00 0. -1.
</event>
<event>
 5    1  0.6690694E-004  0.9118800E+02  0.7818608E-02  0.1130116E+00
         25   -1    0    0    0    0  0.00000000000E+00  0.00000000000E+00  0.99999998245E-14  0.12500000000E+03  0.12500000000E+03 0.  0.
        -11    1    3    3    0    0 -0.31302007070E+02 -0.45827937665E+02  0.14072383733E+02  0.57254235664E+02  0.51100000000E-03 0. -1.
         23    2    1    0    0    0 -0.24714320648E+02 -0.13443059766E+02 -0.64236986592E+01  0.96142117101E+02  0.91708937815E+02 0.  0.
         11    1    3    3    0    0  0.65876864223E+01  0.32384877899E+02 -0.20496082392E+02  0.38887881436E+02  0.51100000000E-03 0.  1.
         22    1    1    0    0    0  0.24714320648E+02  0.13443059766E+02  0.64236986592E+01  0.28857882899E+02  0.00000000000E+00 0. -1.
</event>
<event>
 5    1  0.6690694E-004  0.9118800E+02  0.7818608E-02  0.1130116E+00
         25   -1    0    0    0    0  0.00000000000E+00  0.00000000000E+00  0.99999998245E-14  0.12500000000E+03  0.12500000000E+03 0.  0.
        -11    1    3    3    0    0  0.36517939284E+02  0.19672482492E+02  0.28406167532E+02  0.50274017256E+02  0.51100000000E-03 0.  1.
         23    2    1    0    0    0 -0.12561054903E+01 -0.45414724890E+01  0.29470412933E+02  0.95155268274E+02  0.90353843684E+02 0.  0.
         11    1    3    3    0    0 -0.37774044774E+02 -0.24213954981E+02  0.10642454011E+01  0.44881251018E+02  0.51100000000E-03 0. -1.
         22    1    1    0    0    0  0.12561054903E+01  0.45414724890E+01 -0.29470412933E+02  0.29844731726E+02  0.00000000000E+00 0. -1.
</event>
<event>
 5    1  0.6690694E-004  0.9118800E+02  0.7818608E-02  0.1130116E+00
         25   -1    0    0    0    0  0.00000000000E+00  0.00000000000E+00  0.99999998245E-14  0.12500000000E+03  0.12500000000E+03 0.  0.
        -11    1    3    3    0    0  0.46640757068E+02  0.30005122862E+02  0.20000965633E+02  0.58955120595E+02  0.51100000000E-03 0. -1.
         23    2    1    0    0    0  0.28840589813E+02  0.14170933916E+01  0.55760826047E+01  0.95591149774E+02  0.90954864869E+02 0.  0.
         11    1    3    3    0    0 -0.17800167256E+02 -0.28588029470E+02 -0.14424883029E+02  0.36636029178E+02  0.51100000000E-03 0.  1.
         22    1    1    0    0    0 -0.28840589813E+02 -0.14170933916E+01 -0.55760826047E+01  0.29408850226E+02  0.00000000000E+00 0. -1.
</event>
<event>
 5    1  0.6690694E-004  0.9118800E+02  0.7818608E-02  0.1130116E+00
         25   -1    0    0    0    0  0.00000000000E+00  0.00000000000E+00  0.99999998245E-14  0.12500000000E+03  0.12500000000E+03 0.  0.
        -11    1    3    3    0    0  0.20899931552E+02 -0.31994870827E+02 -0.67442368484E+01  0.38806747211E+02  0.51100000000E-03 0.  1.
         23    2    1    0    0    0  0.11236488930E+02  0.22140464175E+02 -0.17216820863E+02  0.94786133018E+02  0.89841712220E+02 0.  0.
         11    1    3    3    0    0 -0.96634426219E+01  0.54135335003E+02 -0.10472584014E+02  0.55979385807E+02  0.51100000000E-03 0. -1.
         22    1    1    0    0    0 -0.11236488930E+02 -0.22140464175E+02  0.17216820863E+02  0.30213866982E+02  0.00000000000E+00 0. -1.
</event>
<event>
 5    1  0.6690694E-004  0.9118800E+02  0.7818608E-02  0.1130116E+00
         25   -1    0    0    0    0  0.00000000000E+00  0.00000000000E+00  0.99999998245E-14  0.12500000000E+03  0.12500000000E+03 0.  0.
        -11    1    3    3    0    0  0.21421818437E+02  0.27775153699E+02  0.22658610223E+01  0.35149503475E+02  0.51100000000E-03 0.  1.
         23    2    1    0    0    0 -0.11610195827E+02 -0.19808091254E+02  0.18730860403E+02  0.95368897124E+02  0.90648906672E+02 0.  0.
         11    1    3    3    0    0 -0.33032014263E+02 -0.47583244953E+02  0.16464999380E+02  0.60219393648E+02  0.51100000000E-03 0. -1.
         22    1    1    0    0    0  0.11610195827E+02  0.19808091254E+02 -0.18730860403E+02  0.29631102876E+02  0.00000000000E+00 0. -1.
</event>
<event>
 5    1  0.6690694E-004  0.9118800E+02  0.7818608E-02  0.1130116E+00
         25   -1    0    0    0    0  0.00000000000E+00  0.00000000000E+00  0.99999998245E-14  0.12500000000E+03  0.12500000000E+03 0.  0.
        -11    1    3    3    0    0  0.49966068552E+02  0.15908648918E+02  0.25712079250E+02  0.58402090173E+02  0.51100000000E-03 0. -1.
         23    2    1    0    0    0  0.26658370625E+02 -0.17157789003E+01 -0.13812636407E+01  0.98250784855E+02  0.94539389748E+02 0.  0.
         11    1    3    3    0    0 -0.23307697927E+02 -0.17624427819E+02 -0.27093342891E+02  0.39848694682E+02  0.51100000000E-03 0.  1.
         22    1    1    0    0    0 -0.26658370625E+02  0.17157789003E+01  0.13812636407E+01  0.26749215145E+02  0.00000000000E+00 0. -1.
</event>
<event>
 5    1  0.6690694E-004  0.9118800E+02  0.7818608E-02  0.1130116E+00
         25   -1    0    0    0    0  0.00000000000E+00  0.00000000000E+00  0.99999998245E-14  0.12500000000E+03  0.12500000000E+03 0.  0.
        -11    1    3    3    0    0 -0.10526796215E+02 -0.54785755964E+01 -0.56752179210E+02  0.57979634998E+02  0.51100000000E-03 0.  1.
         23    2    1    0    0    0  0.76262984752E+01  0.88710334505E+01 -0.26210706702E+02  0.96297094072E+02  0.91919929928E+02 0.  0.
         11    1    3    3    0    0  0.18153094690E+02  0.14349609047E+02  0.30541472509E+02  0.38317459074E+02  0.51100000000E-03 0. -1.
         22    1    1    0    0    0 -0.76262984752E+01 -0.88710334505E+01  0.26210706702E+02  0.28702905928E+02  0.00000000000E+00 0.  1.
</event>
<event>
 5    1  0.6690694E-004  0.9118800E+02  0.7818608E-02  0.1130116E+00
         25   -1    0    0    0    0  0.00000000000E+00  0.00000000000E+00  0.99999998245E-14  0.12500000000E+03  0.12500000000E+03 0.  0.
        -11    1    3    3    0    0  0.20890256905E+02  0.19828054246E+02 -0.19398621791E+02  0.34725510744E+02  0.51100000000E-03 0.  1.
         23    2    1    0    0    0 -0.27483857513E+02 -0.11972666766E+02 -0.31310273025E+01  0.94858491988E+02  0.89942331507E+02 0.  0.
         11    1    3    3    0    0 -0.48374114417E+02 -0.31800721013E+02  0.16267594489E+02  0.60132981244E+02  0.51100000000E-03 0. -1.
         22    1    1    0    0    0  0.27483857513E+02  0.11972666766E+02  0.31310273025E+01  0.30141508012E+02  0.00000000000E+00 0. -1.
</event>
<event>
 5    1  0.6690694E-004  0.9118800E+02  0.7818608E-02  0.1130116E+00
         25   -1    0    0    0    0  0.00000000000E+00  0.00000000000E+00  0.99999998245E-14  0.12500000000E+03  0.12500000000E+03 0.  0.
        -11    1    3    3    0    0 -0.18058652971E+02 -0.16946423933E+02  0.11248197711E+02  0.27199598954E+02  0.51100000000E-03 0.  1.
         23    2    1    0    0    0  0.28529610917E+02  0.87658192765E+01 -0.20153657479E+02  0.88986833013E+02  0.81373879429E+02 0.  0.
         11    1    3    3    0    0  0.46588263888E+02  0.25712243210E+02 -0.31401855190E+02  0.61787234059E+02  0.51100000000E-03 0. -1.
         22    1    1    0    0    0 -0.28529610917E+02 -0.87658192765E+01  0.20153657479E+02  0.36013166987E+02  0.00000000000E+00 0. -1.
</event>
<event>
 5    1  0.6690694E-004  0.9118800E+02  0.7818608E-02  0.1130116E+00
         25   -1    0    0    0    0  0.00000000000E+00  0.00000000000E+00  0.99999998245E-14  0.12500000000E+03  0.12500000000E+03 0.  0.
        -11    1    3    3    0    0  0.35392760323E+02 -0.94535621699E+01  0.40515320730E+02  0.54621502497E+02  0.51100000000E-03 0.  1.
         23    2    1    0    0    0 -0.23036510917E+01 -0.16142178822E+02  0.23206823094E+02  0.96637465142E+02  0.92381633918E+02 0.  0.
         11    1    3    3    0    0 -0.37696411415E+02 -0.66886166521E+01 -0.17308497636E+02  0.42015962644E+02  0.51100000000E-03 0. -1.
         22    1    1    0    0    0  0.23036510917E+01  0.16142178822E+02 -0.23206823094E+02  0.28362534858E+02  0.00000000000E+00 0.  1.
</event>
<event>
 5    1  0.6690694E-004  0.9118800E+02  0.7818608E-02  0.1130116E+00
         25   -1    0    0    0    0  0.00000000000E+00  0.00000000000E+00  0.99999998245E-14  0.12500000000E+03  0.12500000000E+03 0.  0.
        -11    1    3    3    0    0 -0.37553749375E+02  0.81642783753E+01  0.26383257097E+01  0.38521426457E+02  0.51100000000E-03 0.  1.
         23    2    1    0    0    0  0.14831125923E+02 -0.12368059536E+02  0.19796385039E+02  0.97344475173E+02  0.93333374488E+02 0.  0.
         11    1    3    3    0    0  0.52384875298E+02 -0.20532337912E+02  0.17158059329E+02  0.58823048716E+02  0.51100000000E-03 0. -1.
         22    1    1    0    0    0 -0.14831125923E+02  0.12368059536E+02 -0.19796385039E+02  0.27655524827E+02  0.00000000000E+00 0. -1.
</event>
<event>
 5    1  0.6690694E-004  0.9118800E+02  0.7818608E-02  0.1130116E+00
         25   -1    0    0    0    0  0.00000000000E+00  0.00000000000E+00  0.99999998245E-14  0.12500000000E+03  0.12500000000E+03 0.  0.
        -11    1    3    3    0    0 -0.20609762318E+02 -0.29795147624E+02  0.19922827973E+02  0.41345280256E+02  0.51100000000E-03 0. -1.
         23    2    1    0    0    0 -0.22260316524E+02  0.17617900898E+02 -0.68176943236E+01  0.95804228394E+02  0.91247230634E+02 0.  0.
         11    1    3    3    0    0 -0.16505542069E+01  0.47413048522E+02 -0.26740522297E+02  0.54458948138E+02  0.51100000000E-03 0.  1.
         22    1    1    0    0    0  0.22260316524E+02 -0.17617900898E+02  0.68176943236E+01  0.29195771606E+02  0.00000000000E+00 0.  1.
</event>
<event>
 5    1  0.6690694E-004  0.9118800E+02  0.7818608E-02  0.1130116E+00
         25   -1    0    0    0    0  0.00000000000E+00  0.00000000000E+00  0.99999998245E-14  0.12500000000E+03  0.12500000000E+03 0.  0.
        -11    1    3    3    0    0 -0.95783733234E+01  0.12222510657E+02 -0.37613809932E+02  0.40693165276E+02  0.51100000000E-03 0. -1.
         23    2    1    0    0    0  0.22534980686E+02  0.17188361457E+02  0.69233566131E+01  0.95824702386E+02  0.91275273741E+02 0.  0.
         11    1    3    3    0    0  0.32113354010E+02  0.49658507992E+01  0.44537166545E+02  0.55131537110E+02  0.51100000000E-03 0.  1.
         22    1    1    0    0    0 -0.22534980686E+02 -0.17188361457E+02 -0.69233566131E+01  0.29175297614E+02  0.00000000000E+00 0.  1.
</event>
<event>
 5    1  0.6690694E-004  0.9118800E+02  0.7818608E-02  0.1130116E+00
         25   -1    0    0    0    0  0.00000000000E+00  0.00000000000E+00  0.99999998245E-14  0.12500000000E+03  0.12500000000E+03 0.  0.
        -11    1    3    3    0    0 -0.16137138306E+02  0.41805067600E+02  0.10662969523E+02  0.46062672839E+02  0.51100000000E-03 0. -1.
         23    2    1    0    0    0  0.12839424531E+02  0.17790049807E+02 -0.20537027363E+02  0.94948274803E+02  0.90067023381E+02 0.  0.
         11    1    3    3    0    0  0.28976562837E+02 -0.24015017793E+02 -0.31199996886E+02  0.48885601964E+02  0.51100000000E-03 0.  1.
         22    1    1    0    0    0 -0.12839424531E+02 -0.17790049807E+02  0.20537027363E+02  0.30051725197E+02  0.00000000000E+00 0. -1.
</event>
<event>
 5    1  0.6690694E-004  0.9118800E+02  0.7818608E-02  0.1130116E+00
         25   -1    0    0    0    0  0.00000000000E+00  0.00000000000E+00  0.99999998245E-14  0.12500000000E+03  0.12500000000E+03 0.  0.
        -11    1    3    3    0    0  0.26268251025E+02 -0.12173070760E+02  0.33210817862E+02  0.44058632377E+02  0.51100000000E-03 0. -1.
         23    2    1    0    0    0  0.10786731370E+02 -0.32015131947E+02 -0.60359950127E+01  0.90681557683E+02  0.83936818029E+02 0.  0.
         11    1    3    3    0    0 -0.15481519654E+02 -0.19842061187E+02 -0.39246812875E+02  0.46622925306E+02  0.51100000000E-03 0.  1.
         22    1    1    0    0    0 -0.10786731370E+02  0.32015131947E+02  0.60359950127E+01  0.34318442317E+02  0.00000000000E+00 0.  1.
</event>
<event>
 5    1  0.6690694E-004  0.9118800E+02  0.7818608E-02  0.1130116E+00
         25   -1    0    0    0    0  0.00000000000E+00  0.00000000000E+00  0.99999998245E-14  0.12500000000E+03  0.12500000000E+03 0.  0.
        -11    1    3    3    0    0 -0.20248712359E+02  0.22239436219E+02  0.43421376227E+02  0.52820628444E+02  0.51100000000E-03 0. -1.
         23    2    1    0    0    0 -0.16171429418E+02 -0.13450206184E+02  0.21598529517E+02  0.94851705635E+02  0.89932899479E+02 0.  0.
         11    1    3    3    0    0  0.40772829416E+01 -0.35689642403E+02 -0.21822846709E+02  0.42031077191E+02  0.51100000000E-03 0.  1.
         22    1    1    0    0    0  0.16171429418E+02  0.13450206184E+02 -0.21598529517E+02  0.30148294365E+02  0.00000000000E+00 0. -1.
</event>
<event>
 5    1  0.6690694E-004  0.9118800E+02  0.7818608E-02  0.1130116E+00
         25   -1    0    0    0    0  0.00000000000E+00  0.00000000000E+00  0.99999998245E-14  0.12500000000E+03  0.12500000000E+03 0.  0.
        -11    1    3    3    0    0  0.32682166081E+02 -0.18044727511E+02  0.43243961958E+02  0.57129470651E+02  0.51100000000E-03 0. -1.
         23    2    1    0    0    0  0.10786966369E+02 -0.23690272633E+02  0.10478552088E+02  0.96939570303E+02  0.92789506820E+02 0.  0.
         11    1    3    3    0    0 -0.21895199713E+02 -0.56455451222E+01 -0.32765409870E+02  0.39810099653E+02  0.51100000000E-03 0.  1.
         22    1    1    0    0    0 -0.10786966369E+02  0.23690272633E+02 -0.10478552088E+02  0.28060429697E+02  0.00000000000E+00 0. -1.
</event>
<event>
 5    1  0.6690694E-004  0.9118800E+02  0.7818608E-02  0.1130116E+00
         25   -1    0    0    0    0  0.00000000000E+00  0.00000000000E+00  0.99999998245E-14  0.12500000000E+03  0.12500000000E+03 0.  0.
        -11    1    3    3    0    0  0.44779349531E+02 -0.28778485871E+02 -0.31192165008E+02  0.61695563468E+02  0.51100000000E-03 0.  1.
         23    2    1    0    0    0  0.18343776300E+02 -0.10378215128E+02 -0.20409797668E+02  0.95661265893E+02  0.91051175023E+02 0.  0.
         11    1    3    3    0    0 -0.26435573231E+02  0.18400270743E+02  0.10782367341E+02  0.33965702425E+02  0.51100000000E-03 0. -1.
         22    1    1    0    0    0 -0.18343776300E+02  0.10378215128E+02  0.20409797668E+02  0.29338734107E+02  0.00000000000E+00 0.  1.
</event>
<event>
 5    1  0.6690694E-004  0.9118800E+02  0.7818608E-02  0.1130116E+00
         25   -1    0    0    0    0  0.00000000000E+00  0.00000000000E+00  0.99999998245E-14  0.12500000000E+03  0.12500000000E+03 0.  0.
        -11    1    3    3    0    0 -0.68098170786E+01  0.30986668251E+02 -0.46005352260E+02  0.55884162826E+02  0.51100000000E-03 0.  1.
         23    2    1    0    0    0 -0.70351036125E+00  0.29800116623E+02 -0.83579602007E+01  0.94042006262E+02  0.88800346652E+02 0.  0.
         11    1    3    3    0    0  0.61063067173E+01 -0.11865516281E+01  0.37647392060E+02  0.38157843435E+02  0.51100000000E-03 0. -1.
         22    1    1    0    0    0  0.70351036125E+00 -0.29800116623E+02  0.83579602007E+01  0.30957993738E+02  0.00000000000E+00 0.  1.
</event>
<event>
 5    1  0.6690694E-004  0.9118800E+02  0.7818608E-02  0.1130116E+00
         25   -1    0    0    0    0  0.00000000000E+00  0.00000000000E+00  0.99999998245E-14  0.12500000000E+03  0.12500000000E+03 0.  0.
        -11    1    3    3    0    0 -0.47625407534E+02 -0.11179721302E+02  0.27572976753E+02  0.56155450835E+02  0.51100000000E-03 0.  1.
         23    2    1    0    0    0 -0.18577445919E+02  0.14469379379E+02  0.15752124849E+02  0.96669559238E+02  0.92425049686E+02 0.  0.
         11    1    3    3    0    0  0.29047961614E+02  0.25649100682E+02 -0.11820851904E+02  0.40514108403E+02  0.51100000000E-03 0. -1.
         22    1    1    0    0    0  0.18577445919E+02 -0.14469379379E+02 -0.15752124849E+02  0.28330440762E+02  0.00000000000E+00 0.  1.
</event>
<event>
 5    1  0.6690694E-004  0.9118800E+02  0.7818608E-02  0.1130116E+00
         25   -1    0    0    0    0  0.00000000000E+00  0.00000000000E+00  0.99999998245E-14  0.12500000000E+03  0.12500000000E+03 0.  0.
        -11    1    3    3    0    0  0.59838908760E+01 -0.33912448859E+02  0.13774160623E+02  0.37088928789E+02  0.51100000000E-03 0. -1.
         23    2    1    0    0    0 -0.26900685606E+02  0.91183421022E+01 -0.80480947182E+01  0.95477756227E+02  0.90798893478E+02 0.  0.
         11    1    3    3    0    0 -0.32884576482E+02  0.43030790961E+02 -0.21822255341E+02  0.58388827438E+02  0.51100000000E-03 0.  1.
         22    1    1    0    0    0  0.26900685606E+02 -0.91183421022E+01  0.80480947182E+01  0.29522243773E+02  0.00000000000E+00 0. -1.
</event>
<event>
 5    1  0.6690694E-004  0.9118800E+02  0.7818608E-02  0.1130116E+00
         25   -1    0    0    0    0  0.00000000000E+00  0.00000000000E+00  0.99999998245E-14  0.12500000000E+03  0.12500000000E+03 0.  0.
        -11    1    3    3    0    0  0.24292293701E+02 -0.16406496238E+02  0.22565608866E+02  0.36993179855E+02  0.51100000000E-03 0.  1.
         23    2    1    0    0    0 -0.25257855281E+02  0.11093540391E+02  0.13148326095E+02  0.94440151000E+02  0.89359038435E+02 0.  0.
         11    1    3    3    0    0 -0.49550148982E+02  0.27500036629E+02 -0.94172827710E+01  0.57446971145E+02  0.51100000000E-03 0. -1.
         22    1    1    0    0    0  0.25257855281E+02 -0.11093540391E+02 -0.13148326095E+02  0.30559849000E+02  0.00000000000E+00 0. -1.
</event>
<event>
 5    1  0.6690694E-004  0.9118800E+02  0.7818608E-02  0.1130116E+00
         25   -1    0    0    0    0  0.00000000000E+00  0.00000000000E+00  0.99999998245E-14  0.12500000000E+03  0.12500000000E+03 0.  0.
        -11    1    3    3    0    0  0.33997563726E+02  0.19075502048E+02 -0.30223212727E+02  0.49326987598E+02  0.51100000000E-03 0. -1.
         23    2    1    0    0    0  0.28578647211E+02 -0.98644828984E+01 -0.34554012823E+02  0.79086745907E+02  0.64394770569E+02 0.  0.
         11    1    3    3    0    0 -0.54189165153E+01 -0.28939984946E+02 -0.43308000964E+01  0.29759758309E+02  0.51100000000E-03 0.  1.
         22    1    1    0    0    0 -0.28578647211E+02  0.98644828984E+01  0.34554012823E+02  0.45913254093E+02  0.00000000000E+00 0.  1.
</event>
<event>
 5    1  0.6690694E-004  0.9118800E+02  0.7818608E-02  0.1130116E+00
         25   -1    0    0    0    0  0.00000000000E+00  0.00000000000E+00  0.99999998245E-14  0.12500000000E+03  0.12500000000E+03 0.  0.
        -11    1    3    3    0    0  0.24072021393E+02  0.25244673896E+02 -0.49897852429E+02  0.60881454084E+02  0.51100000000E-03 0.  1.
         23    2    1    0    0    0  0.96674765516E+01  0.23124232578E+02 -0.25844321447E+02  0.88998344674E+02  0.81391560794E+02 0.  0.
         11    1    3    3    0    0 -0.14404544842E+02 -0.21204413186E+01  0.24053530982E+02  0.28116890590E+02  0.51100000000E-03 0. -1.
         22    1    1    0    0    0 -0.96674765516E+01 -0.23124232578E+02  0.25844321447E+02  0.36001655326E+02  0.00000000000E+00 0.  1.
</event>
<event>
 5    1  0.6690694E-004  0.9118800E+02  0.7818608E-02  0.1130116E+00
         25   -1    0    0    0    0  0.00000000000E+00  0.00000000000E+00  0.99999998245E-14  0.12500000000E+03  0.12500000000E+03 0.  0.
        -11    1    3    3    0    0 -0.16639249970E+02  0.23674062539E+01  0.53558146608E+02  0.56133272844E+02  0.51100000000E-03 0.  1.
         23    2    1    0    0    0  0.11838265332E+02  0.58815198015E+01  0.25564147312E+02  0.96220451201E+02  0.91815645727E+02 0.  0.
         11    1    3    3    0    0  0.28477515302E+02  0.35141135476E+01 -0.27993999295E+02  0.40087178357E+02  0.51100000000E-03 0. -1.
         22    1    1    0    0    0 -0.11838265332E+02 -0.58815198015E+01 -0.25564147312E+02  0.28779548799E+02  0.00000000000E+00 0.  1.
</event>
<event>
 5    1  0.6690694E-004  0.9118800E+02  0.7818608E-02  0.1130116E+00
         25   -1    0    0    0    0  0.00000000000E+00  0.00000000000E+00  0.99999998245E-14  0.12500000000E+03  0.12500000000E+03 0.  0.
        -11    1    3    3    0    0  0.28415665033E+02 -0.18490428812E+02 -0.22445711638E+02  0.40659020501E+02  0.51100000000E-03 0.  1.
         23    2    1    0    0    0 -0.14454628025E+02 -0.21404166546E+02  0.12744397854E+02  0.96199057419E+02  0.91786515104E+02 0.  0.
         11    1    3    3    0    0 -0.42870293058E+02 -0.29137377338E+01  0.35190109493E+02  0.55540036918E+02  0.51100000000E-03 0. -1.
         22    1    1    0    0    0  0.14454628025E+02  0.21404166546E+02 -0.12744397854E+02  0.28800942581E+02  0.00000000000E+00 0. -1.
</event>
<event>
 5    1  0.6690694E-004  0.9118800E+02  0.7818608E-02  0.1130116E+00
         25   -1    0    0    0    0  0.00000000000E+00  0.00000000000E+00  0.99999998245E-14  0.12500000000E+03  0.12500000000E+03 0.  0.
        -11    1    3    3    0    0  0.16154937744E+01  0.34362246882E+02  0.26348471660E+02  0.43331464203E+02  0.51100000000E-03 0. -1.
         23    2    1    0    0    0 -0.17766569090E+01  0.10407196039E+02 -0.23773703014E+02  0.98987403163E+02  0.95508380736E+02 0.  0.
         11    1    3    3    0    0 -0.33921506834E+01 -0.23955050843E+02 -0.50122174675E+02  0.55655938960E+02  0.51100000000E-03 0.  1.
         22    1    1    0    0    0  0.17766569090E+01 -0.10407196039E+02  0.23773703014E+02  0.26012596837E+02  0.00000000000E+00 0.  1.
</event>
<event>
 5    1  0.6690694E-004  0.9118800E+02  0.7818608E-02  0.1130116E+00
         25   -1    0    0    0    0  0.00000000000E+00  0.00000000000E+00  0.99999998245E-14  0.12500000000E+03  0.12500000000E+03 0.  0.
        -11    1    3    3    0    0 -0.16549979160E+02  0.29232317667E+02 -0.16409948936E+02  0.37386048610E+02  0.51100000000E-03 0.  1.
         23    2    1    0    0    0  0.29828655685E+02 -0.21501866420E+01 -0.82570392330E+01  0.93974998800E+02  0.88705973305E+02 0.  0.
         11    1    3    3    0    0  0.46378634844E+02 -0.31382504309E+02  0.81529097025E+01  0.56588950190E+02  0.51100000000E-03 0. -1.
         22    1    1    0    0    0 -0.29828655685E+02  0.21501866420E+01  0.82570392330E+01  0.31025001200E+02  0.00000000000E+00 0. -1.
</event>
<event>
 5    1  0.6690694E-004  0.9118800E+02  0.7818608E-02  0.1130116E+00
         25   -1    0    0    0    0  0.00000000000E+00  0.00000000000E+00  0.99999998245E-14  0.12500000000E+03  0.12500000000E+03 0.  0.
        -11    1    3    3    0    0  0.15774313704E+02 -0.20269631789E+02  0.33299090801E+02  0.42053732226E+02  0.51100000000E-03 0. -1.
         23    2    1    0    0    0  0.26023178057E+02  0.42726764162E+01 -0.13114458642E+02  0.95547485924E+02  0.90894837482E+02 0.  0.
         11    1    3    3    0    0  0.10248864353E+02  0.24542308205E+02 -0.46413549442E+02  0.53493753698E+02  0.51100000000E-03 0.  1.
         22    1    1    0    0    0 -0.26023178057E+02 -0.42726764162E+01  0.13114458642E+02  0.29452514076E+02  0.00000000000E+00 0.  1.
</event>
<event>
 5    1  0.6690694E-004  0.9118800E+02  0.7818608E-02  0.1130116E+00
         25   -1    0    0    0    0  0.00000000000E+00  0.00000000000E+00  0.99999998245E-14  0.12500000000E+03  0.12500000000E+03 0.  0.
        -11    1    3    3    0    0  0.70656808940E+01 -0.20582535176E+02  0.24124297811E+02  0.32489172748E+02  0.51100000000E-03 0.  1.
         23    2    1    0    0    0 -0.20232879676E+02  0.26753252167E+02  0.16356793958E+02  0.87681765448E+02  0.79343817415E+02 0.  0.
         11    1    3    3    0    0 -0.27298560570E+02  0.47335787343E+02 -0.77675038522E+01  0.55192592699E+02  0.51100000000E-03 0. -1.
         22    1    1    0    0    0  0.20232879676E+02 -0.26753252167E+02 -0.16356793958E+02  0.37318234552E+02  0.00000000000E+00 0. -1.
</event>
<event>
 5    1  0.6690694E-004  0.9118800E+02  0.7818608E-02  0.1130116E+00
         25   -1    0    0    0    0  0.00000000000E+00  0.00000000000E+00  0.99999998245E-14  0.12500000000E+03  0.12500000000E+03 0.  0.
        -11    1    3    3    0    0 -0.21099323659E+02 -0.27288753820E+02  0.15512339021E+02  0.37821821824E+02  0.51100000000E-03 0.  1.
         23    2    1    0    0    0 -0.78590255998E+01  0.27853959185E+02  0.29323384156E+01  0.95910380989E+02  0.91392533870E+02 0.  0.
         11    1    3    3    0    0  0.13240298059E+02  0.55142713005E+02 -0.12580000605E+02  0.58088559164E+02  0.51100000000E-03 0. -1.
         22    1    1    0    0    0  0.78590255998E+01 -0.27853959185E+02 -0.29323384156E+01  0.29089619011E+02  0.00000000000E+00 0. -1.
</event>
<event>
 5    1  0.6690694E-004  0.9118800E+02  0.7818608E-02  0.1130116E+00
         25   -1    0    0    0    0  0.00000000000E+00  0.00000000000E+00  0.99999998245E-14  0.12500000000E+03  0.12500000000E+03 0.  0.
        -11    1    3    3    0    0  0.25098202906E+02 -0.55487236769E+02 -0.78741948469E+01  0.61406483193E+02  0.51100000000E-03 0. -1.
         23    2    1    0    0    0  0.13222757440E+02 -0.25853401269E+02  0.44401175948E+01  0.95623915922E+02  0.90999884508E+02 0.  0.
         11    1    3    3    0    0 -0.11875445466E+02  0.29633835499E+02  0.12314312442E+02  0.34217432729E+02  0.51100000000E-03 0.  1.
         22    1    1    0    0    0 -0.13222757440E+02  0.25853401269E+02 -0.44401175948E+01  0.29376084078E+02  0.00000000000E+00 0. -1.
</event>
<event>
 5    1  0.6690694E-004  0.9118800E+02  0.7818608E-02  0.1130116E+00
         25   -1    0    0    0    0  0.00000000000E+00  0.00000000000E+00  0.99999998245E-14  0.12500000000E+03  0.12500000000E+03 0.  0.
        -11    1    3    3    0    0 -0.37033258474E+02 -0.89189628693E+01  0.21874287722E+02  0.43926012743E+02  0.51100000000E-03 0. -1.
         23    2    1    0    0    0  0.37913609362E+01  0.22382660573E+02  0.18909006312E+02  0.95454976193E+02  0.90767527499E+02 0.  0.
         11    1    3    3    0    0  0.40824619410E+02  0.31301623442E+02 -0.29652814105E+01  0.51528963450E+02  0.51100000000E-03 0.  1.
         22    1    1    0    0    0 -0.37913609362E+01 -0.22382660573E+02 -0.18909006312E+02  0.29545023807E+02  0.00000000000E+00 0.  1.
</event>
<event>
 5    1  0.6690694E-004  0.9118800E+02  0.7818608E-02  0.1130116E+00
         25   -1    0    0    0    0  0.00000000000E+00  0.00000000000E+00  0.99999998245E-14  0.12500000000E+03  0.12500000000E+03 0.  0.
        -11    1    3    3    0    0 -0.17007668267E+00  0.37388271639E+02  0.39107159509E+01  0.37592625364E+02  0.51100000000E-03 0.  1.
         23    2    1    0    0    0 -0.22880952436E+02 -0.14901367191E+02 -0.93768391642E+01  0.96129360221E+02  0.91691548440E+02 0.  0.
         11    1    3    3    0    0 -0.22710875753E+02 -0.52289638831E+02 -0.13287555115E+02  0.58536734857E+02  0.51100000000E-03 0. -1.
         22    1    1    0    0    0  0.22880952436E+02  0.14901367191E+02  0.93768391642E+01  0.28870639779E+02  0.00000000000E+00 0. -1.
</event>
<event>
 5    1  0.6690694E-004  0.9118800E+02  0.7818608E-02  0.1130116E+00
         25   -1    0    0    0    0  0.00000000000E+00  0.00000000000E+00  0.99999998245E-14  0.12500000000E+03  0.12500000000E+03 0.  0.
        -11    1    3    3    0    0  0.29703767679E+01 -0.45348164140E+01  0.44637243767E+02  0.44965222443E+02  0.51100000000E-03 0. -1.
         23    2    1    0    0    0  0.22495699709E+02 -0.18345294634E+02 -0.41225787394E+00  0.95969390341E+02  0.91473206926E+02 0.  0.
         11    1    3    3    0    0  0.19525322941E+02 -0.13810478220E+02 -0.45049501641E+02  0.51004167898E+02  0.51100000000E-03 0.  1.
         22    1    1    0    0    0 -0.22495699709E+02  0.18345294634E+02  0.41225787394E+00  0.29030609659E+02  0.00000000000E+00 0. -1.
</event>
<event>
 5    1  0.6690694E-004  0.9118800E+02  0.7818608E-02  0.1130116E+00
         25   -1    0    0    0    0  0.00000000000E+00  0.00000000000E+00  0.99999998245E-14  0.12500000000E+03  0.12500000000E+03 0.  0.
        -11    1    3    3    0    0  0.39354734206E+02  0.35128326384E+02 -0.85732004706E+00  0.52759164293E+02  0.51100000000E-03 0.  1.
         23    2    1    0    0    0  0.28898673947E+02 -0.51490100371E+01 -0.70015291851E+01  0.94822739171E+02  0.89892629246E+02 0.  0.
         11    1    3    3    0    0 -0.10456060260E+02 -0.40277336421E+02 -0.61442091380E+01  0.42063574878E+02  0.51100000000E-03 0. -1.
         22    1    1    0    0    0 -0.28898673947E+02  0.51490100371E+01  0.70015291851E+01  0.30177260829E+02  0.00000000000E+00 0.  1.
</event>
<event>
 5    1  0.6690694E-004  0.9118800E+02  0.7818608E-02  0.1130116E+00
         25   -1    0    0    0    0  0.00000000000E+00  0.00000000000E+00  0.99999998245E-14  0.12500000000E+03  0.12500000000E+03 0.  0.
        -11    1    3    3    0    0  0.19745168843E+02  0.97859543598E+01  0.57712263204E+02  0.61776548299E+02  0.51100000000E-03 0.  1.
         23    2    1    0    0    0  0.11054082650E+02 -0.19261746186E+01  0.24164029997E+02  0.98357867248E+02  0.94680868247E+02 0.  0.
         11    1    3    3    0    0 -0.86910861934E+01 -0.11712128978E+02 -0.33548233207E+02  0.36581318949E+02  0.51100000000E-03 0. -1.
         22    1    1    0    0    0 -0.11054082650E+02  0.19261746186E+01 -0.24164029997E+02  0.26642132752E+02  0.00000000000E+00 0.  1.
</event>
<event>
 5    1  0.6690694E-004  0.9118800E+02  0.7818608E-02  0.1130116E+00
         25   -1    0    0    0    0  0.00000000000E+00  0.00000000000E+00  0.99999998245E-14  0.12500000000E+03  0.12500000000E+03 0.  0.
        -11    1    3    3    0    0 -0.14978498830E+02 -0.14644542947E+02  0.41571443790E+02  0.46551079518E+02  0.51100000000E-03 0. -1.
         23    2    1    0    0    0  0.11133860193E+02  0.20138751795E+02  0.15368252183E+02  0.97328438030E+02  0.93311893709E+02 0.  0.
         11    1    3    3    0    0  0.26112359023E+02  0.34783294742E+02 -0.26203191606E+02  0.50777358512E+02  0.51100000000E-03 0.  1.
         22    1    1    0    0    0 -0.11133860193E+02 -0.20138751795E+02 -0.15368252183E+02  0.27671561970E+02  0.00000000000E+00 0.  1.
</event>
<event>
 5    1  0.6690694E-004  0.9118800E+02  0.7818608E-02  0.1130116E+00
         25   -1    0    0    0    0  0.00000000000E+00  0.00000000000E+00  0.99999998245E-14  0.12500000000E+03  0.12500000000E+03 0.  0.
        -11    1    3    3    0    0  0.36601115590E+02  0.15806045157E+02  0.36362424622E+02  0.53960157993E+02  0.51100000000E-03 0. -1.
         23    2    1    0    0    0  0.29526149689E+02 -0.21514935115E+01 -0.30142190648E+00  0.95394032782E+02  0.90683560778E+02 0.  0.
         11    1    3    3    0    0 -0.70749659015E+01 -0.17957538669E+02 -0.36663846528E+02  0.41433874789E+02  0.51100000000E-03 0.  1.
         22    1    1    0    0    0 -0.29526149689E+02  0.21514935115E+01  0.30142190648E+00  0.29605967218E+02  0.00000000000E+00 0.  1.
</event>
<event>
 5    1  0.6690694E-004  0.9118800E+02  0.7818608E-02  0.1130116E+00
         25   -1    0    0    0    0  0.00000000000E+00  0.00000000000E+00  0.99999998245E-14  0.12500000000E+03  0.12500000000E+03 0.  0.
        -11    1    3    3    0    0 -0.65567503145E+01  0.57298894834E+02 -0.16217948076E+02  0.59909733466E+02  0.51100000000E-03 0. -1.
         23    2    1    0    0    0 -0.14077245790E+02  0.21756532290E+02 -0.11866188595E+02  0.96498737255E+02  0.92193732508E+02 0.  0.
         11    1    3    3    0    0 -0.75204954756E+01 -0.35542362544E+02  0.43517594807E+01  0.36589003789E+02  0.51100000000E-03 0.  1.
         22    1    1    0    0    0  0.14077245790E+02 -0.21756532290E+02  0.11866188595E+02  0.28501262745E+02  0.00000000000E+00 0. -1.
</event>
<event>
 5    1  0.6690694E-004  0.9118800E+02  0.7818608E-02  0.1130116E+00
         25   -1    0    0    0    0  0.00000000000E+00  0.00000000000E+00  0.99999998245E-14  0.12500000000E+03  0.12500000000E+03 0.  0.
        -11    1    3    3    0    0  0.15528182194E+02  0.21866823226E+02  0.34609752637E+02  0.43784898973E+02  0.51100000000E-03 0.  1.
         23    2    1    0    0    0  0.99898275203E+01  0.21081803403E+02 -0.17275630225E+02  0.95970937179E+02  0.91475320686E+02 0.  0.
         11    1    3    3    0    0 -0.55383546736E+01 -0.78501982299E+00 -0.51885382862E+02  0.52186038206E+02  0.51100000000E-03 0. -1.
         22    1    1    0    0    0 -0.99898275203E+01 -0.21081803403E+02  0.17275630225E+02  0.29029062821E+02  0.00000000000E+00 0. -1.
</event>
<event>
 5    1  0.6690694E-004  0.9118800E+02  0.7818608E-02  0.1130116E+00
         25   -1    0    0    0    0  0.00000000000E+00  0.00000000000E+00  0.99999998245E-14  0.12500000000E+03  0.12500000000E+03 0.  0.
        -11    1    3    3    0    0  0.54456546068E+02 -0.87920004391E+00  0.14068892892E+02  0.56251419092E+02  0.51100000000E-03 0. -1.
         23    2    1    0    0    0  0.21660750936E+02 -0.19107515271E+02  0.62213394264E+00  0.96109303893E+02  0.91664202245E+02 0.  0.
         11    1    3    3    0    0 -0.32795795132E+02 -0.18228315227E+02 -0.13446758949E+02  0.39857884801E+02  0.51100000000E-03 0.  1.
         22    1    1    0    0    0 -0.21660750936E+02  0.19107515271E+02 -0.62213394264E+00  0.28890696107E+02  0.00000000000E+00 0. -1.
</event>
<event>
 5    1  0.6690694E-004  0.9118800E+02  0.7818608E-02  0.1130116E+00
         25   -1    0    0    0    0  0.00000000000E+00  0.00000000000E+00  0.99999998245E-14  0.12500000000E+03  0.12500000000E+03 0.  0.
        -11    1    3    3    0    0 -0.92572540140E+01  0.30316643123E+02 -0.30977258750E+02  0.44321396210E+02  0.51100000000E-03 0. -1.
         23    2    1    0    0    0  0.27801712115E+01 -0.20826124331E+02 -0.14814399650E+02  0.99291572518E+02  0.95905647016E+02 0.  0.
         11    1    3    3    0    0  0.12037425225E+02 -0.51142767453E+02  0.16162859100E+02  0.54970176308E+02  0.51100000000E-03 0.  1.
         22    1    1    0    0    0 -0.27801712115E+01  0.20826124331E+02  0.14814399650E+02  0.25708427482E+02  0.00000000000E+00 0.  1.
</event>
<event>
 5    1  0.6690694E-004  0.9118800E+02  0.7818608E-02  0.1130116E+00
         25   -1    0    0    0    0  0.00000000000E+00  0.00000000000E+00  0.99999998245E-14  0.12500000000E+03  0.12500000000E+03 0.  0.
        -11    1    3    3    0    0 -0.49067712815E+02 -0.23846895456E+02 -0.26589878899E+02  0.60690497806E+02  0.51100000000E-03 0.  1.
         23    2    1    0    0    0 -0.17119170569E+02 -0.10243946289E+02 -0.21302021143E+02  0.95814720469E+02  0.91261602645E+02 0.  0.
         11    1    3    3    0    0  0.31948542247E+02  0.13602949167E+02  0.52878577568E+01  0.35124222663E+02  0.51100000000E-03 0. -1.
         22    1    1    0    0    0  0.17119170569E+02  0.10243946289E+02  0.21302021143E+02  0.29185279531E+02  0.00000000000E+00 0.  1.
</event>
<event>
 5    1  0.6690694E-004  0.9118800E+02  0.7818608E-02  0.1130116E+00
         25   -1    0    0    0    0  0.00000000000E+00  0.00000000000E+00  0.99999998245E-14  0.12500000000E+03  0.12500000000E+03 0.  0.
        -11    1    3    3    0    0 -0.26683304793E+02  0.41994203987E+02  0.61287373658E+01  0.50130562985E+02  0.51100000000E-03 0.  1.
         23    2    1    0    0    0 -0.26185436897E+02 -0.21766831162E+01  0.14347464658E+02  0.95062318109E+02  0.90225160168E+02 0.  0.
         11    1    3    3    0    0  0.49786789608E+00 -0.44170887104E+02  0.82187272925E+01  0.44931755124E+02  0.51100000000E-03 0. -1.
         22    1    1    0    0    0  0.26185436897E+02  0.21766831162E+01 -0.14347464658E+02  0.29937681891E+02  0.00000000000E+00 0.  1.
</event>
<event>
 5    1  0.6690694E-004  0.9118800E+02  0.7818608E-02  0.1130116E+00
         25   -1    0    0    0    0  0.00000000000E+00  0.00000000000E+00  0.99999998245E-14  0.12500000000E+03  0.12500000000E+03 0.  0.
        -11    1    3    3    0    0 -0.19167714746E+01  0.45146930220E+02 -0.40642376934E+02  0.60775999575E+02  0.51100000000E-03 0. -1.
         23    2    1    0    0    0  0.27281367483E+01  0.30007368973E+02 -0.13986941589E+02  0.91780736646E+02  0.85558074789E+02 0.  0.
         11    1    3    3    0    0  0.46449082229E+01 -0.15139561248E+02  0.26655435345E+02  0.31004737071E+02  0.51100000000E-03 0.  1.
         22    1    1    0    0    0 -0.27281367483E+01 -0.30007368973E+02  0.13986941589E+02  0.33219263354E+02  0.00000000000E+00 0. -1.
</event>
<event>
 5    1  0.6690694E-004  0.9118800E+02  0.7818608E-02  0.1130116E+00
         25   -1    0    0    0    0  0.00000000000E+00  0.00000000000E+00  0.99999998245E-14  0.12500000000E+03  0.12500000000E+03 0.  0.
        -11    1    3    3    0    0  0.23655831419E+02 -0.16902061270E+02  0.21063539616E+02  0.35901960067E+02  0.51100000000E-03 0. -1.
         23    2    1    0    0    0 -0.19244597642E+02  0.21553995719E+02  0.54274754262E+01  0.95599544912E+02  0.90966401644E+02 0.  0.
         11    1    3    3    0    0 -0.42900429061E+02  0.38456056989E+02 -0.15636064190E+02  0.59697584845E+02  0.51100000000E-03 0.  1.
         22    1    1    0    0    0  0.19244597642E+02 -0.21553995719E+02 -0.54274754262E+01  0.29400455088E+02  0.00000000000E+00 0.  1.
</event>
<event>
 5    1  0.6690694E-004  0.9118800E+02  0.7818608E-02  0.1130116E+00
         25   -1    0    0    0    0  0.00000000000E+00  0.00000000000E+00  0.99999998245E-14  0.12500000000E+03  0.12500000000E+03 0.  0.
        -11    1    3    3    0    0 -0.58594365520E+01  0.27109586351E+02 -0.18815260592E+02  0.33515320380E+02  0.51100000000E-03 0.  1.
         23    2    1    0    0    0  0.67626235305E+01 -0.28236503387E+02  0.58030450223E+01  0.95390735705E+02  0.90679015909E+02 0.  0.
         11    1    3    3    0    0  0.12622060082E+02 -0.55346089738E+02  0.24618305614E+02  0.61875415325E+02  0.51100000000E-03 0. -1.
         22    1    1    0    0    0 -0.67626235305E+01  0.28236503387E+02 -0.58030450223E+01  0.29609264295E+02  0.00000000000E+00 0. -1.
</event>
<event>
 5    1  0.6690694E-004  0.9118800E+02  0.7818608E-02  0.1130116E+00
         25   -1    0    0    0    0  0.00000000000E+00  0.00000000000E+00  0.99999998245E-14  0.12500000000E+03  0.12500000000E+03 0.  0.
        -11    1    3    3    0    0  0.43105657199E+02  0.20996257103E+02 -0.90563767650E+01  0.48795065890E+02  0.51100000000E-03 0. -1.
         23    2    1    0    0    0  0.20256506819E+02 -0.19928540717E+02 -0.71156324078E+01  0.95706570222E+02  0.91113350040E+02 0.  0.
         11    1    3    3    0    0 -0.22849150380E+02 -0.40924797820E+02  0.19407443571E+01  0.46911504331E+02  0.51100000000E-03 0.  1.
         22    1    1    0    0    0 -0.20256506819E+02  0.19928540717E+02  0.71156324078E+01  0.29293429778E+02  0.00000000000E+00 0.  1.
</event>
<event>
 5    1  0.6690694E-004  0.9118800E+02  0.7818608E-02  0.1130116E+00
         25   -1    0    0    0    0  0.00000000000E+00  0.00000000000E+00  0.99999998245E-14  0.12500000000E+03  0.12500000000E+03 0.  0.
        -11    1    3    3    0    0  0.10547370769E+02  0.12814229529E+02 -0.33588886314E+02  0.37465514712E+02  0.51100000000E-03 0.  1.
         23    2    1    0    0    0  0.38053384495E+02  0.67374581118E+01  0.58325478302E+01  0.85917113367E+02  0.76513255988E+02 0.  0.
         11    1    3    3    0    0  0.27506013727E+02 -0.60767714168E+01  0.39421434145E+02  0.48451598655E+02  0.51100000000E-03 0. -1.
         22    1    1    0    0    0 -0.38053384495E+02 -0.67374581118E+01 -0.58325478302E+01  0.39082886633E+02  0.00000000000E+00 0. -1.
</event>
<event>
 5    1  0.6690694E-004  0.9118800E+02  0.7818608E-02  0.1130116E+00
         25   -1    0    0    0    0  0.00000000000E+00  0.00000000000E+00  0.99999998245E-14  0.12500000000E+03  0.12500000000E+03 0.  0.
        -11    1    3    3    0    0  0.35635132290E+02 -0.60827774951E+01 -0.21333648644E+02  0.41976033639E+02  0.51100000000E-03 0. -1.
         23    2    1    0    0    0  0.73170842348E+01  0.24814183320E+02  0.12900187225E+02  0.96091554072E+02  0.91639994097E+02 0.  0.
         11    1    3    3    0    0 -0.28318048055E+02  0.30896960815E+02  0.34233835868E+02  0.54115520433E+02  0.51100000000E-03 0.  1.
         22    1    1    0    0    0 -0.73170842348E+01 -0.24814183320E+02 -0.12900187225E+02  0.28908445928E+02  0.00000000000E+00 0.  1.
</event>
<event>
 5    1  0.6690694E-004  0.9118800E+02  0.7818608E-02  0.1130116E+00
         25   -1    0    0    0    0  0.00000000000E+00  0.00000000000E+00  0.99999998245E-14  0.12500000000E+03  0.12500000000E+03 0.  0.
        -11    1    3    3    0    0 -0.49974772385E+01  0.37657433407E+02  0.13116657286E+01  0.38010229370E+02  0.51100000000E-03 0. -1.
         23    2    1    0    0    0  0.26778629607E+02 -0.96734011733E+01 -0.71519684676E+01  0.95643223153E+02  0.91026401600E+02 0.  0.
         11    1    3    3    0    0  0.31776106845E+02 -0.47330834580E+02 -0.84636341962E+01  0.57632993783E+02  0.51100000000E-03 0.  1.
         22    1    1    0    0    0 -0.26778629607E+02  0.96734011733E+01  0.71519684676E+01  0.29356776847E+02  0.00000000000E+00 0.  1.
</event>
<event>
 5    1  0.6690694E-004  0.9118800E+02  0.7818608E-02  0.1130116E+00
         25   -1    0    0    0    0  0.00000000000E+00  0.00000000000E+00  0.99999998245E-14  0.12500000000E+03  0.12500000000E+03 0.  0.
        -11    1    3    3    0    0 -0.42134703164E+02 -0.37621590116E+02  0.16033357783E+02  0.58717849208E+02  0.51100000000E-03 0. -1.
         23    2    1    0    0    0 -0.14038404316E+02 -0.21247640236E+02 -0.70247954779E+01  0.98582453505E+02  0.94976909701E+02 0.  0.
         11    1    3    3    0    0  0.28096298848E+02  0.16373949881E+02 -0.23058153261E+02  0.39864604297E+02  0.51100000000E-03 0.  1.
         22    1    1    0    0    0  0.14038404316E+02  0.21247640236E+02  0.70247954779E+01  0.26417546495E+02  0.00000000000E+00 0.  1.
</event>
<event>
 5    1  0.6690694E-004  0.9118800E+02  0.7818608E-02  0.1130116E+00
         25   -1    0    0    0    0  0.00000000000E+00  0.00000000000E+00  0.99999998245E-14  0.12500000000E+03  0.12500000000E+03 0.  0.
        -11    1    3    3    0    0  0.17518745581E+01  0.19206367124E+02  0.59257734816E+02  0.62317194564E+02  0.51100000000E-03 0. -1.
         23    2    1    0    0    0  0.19237436448E+01  0.59501738195E+01  0.28696622790E+02  0.95629921388E+02  0.91008133412E+02 0.  0.
         11    1    3    3    0    0  0.17186908670E+00 -0.13256193305E+02 -0.30561112026E+02  0.33312726824E+02  0.51100000000E-03 0.  1.
         22    1    1    0    0    0 -0.19237436448E+01 -0.59501738195E+01 -0.28696622790E+02  0.29370078612E+02  0.00000000000E+00 0. -1.
</event>
<event>
 5    1  0.6690694E-004  0.9118800E+02  0.7818608E-02  0.1130116E+00
         25   -1    0    0    0    0  0.00000000000E+00  0.00000000000E+00  0.99999998245E-14  0.12500000000E+03  0.12500000000E+03 0.  0.
        -11    1    3    3    0    0 -0.53590645617E+02 -0.24738034590E+02 -0.27054617208E+01  0.59086776663E+02  0.51100000000E-03 0. -1.
         23    2    1    0    0    0 -0.22650984425E+02 -0.14285551268E+02  0.12893072424E+02  0.95278368366E+02  0.90523986277E+02 0.  0.
         11    1    3    3    0    0  0.30939661192E+02  0.10452483321E+02  0.15598534145E+02  0.36191591703E+02  0.51100000000E-03 0.  1.
         22    1    1    0    0    0  0.22650984425E+02  0.14285551268E+02 -0.12893072424E+02  0.29721631634E+02  0.00000000000E+00 0. -1.
</event>
<event>
 5    1  0.6690694E-004  0.9118800E+02  0.7818608E-02  0.1130116E+00
         25   -1    0    0    0    0  0.00000000000E+00  0.00000000000E+00  0.99999998245E-14  0.12500000000E+03  0.12500000000E+03 0.  0.
        -11    1    3    3    0    0 -0.33596064043E+00 -0.25839040441E+02 -0.31938458162E+02  0.41083256815E+02  0.51100000000E-03 0. -1.
         23    2    1    0    0    0 -0.19550007029E+02  0.19943419937E+02 -0.10521985800E+02  0.95156157104E+02  0.90355073327E+02 0.  0.
         11    1    3    3    0    0 -0.19214046389E+02  0.45782460379E+02  0.21416472362E+02  0.54072900289E+02  0.51100000000E-03 0.  1.
         22    1    1    0    0    0  0.19550007029E+02 -0.19943419937E+02  0.10521985800E+02  0.29843842896E+02  0.00000000000E+00 0.  1.
</event>
<event>
 5    1  0.6690694E-004  0.9118800E+02  0.7818608E-02  0.1130116E+00
         25   -1    0    0    0    0  0.00000000000E+00  0.00000000000E+00  0.99999998245E-14  0.12500000000E+03  0.12500000000E+03 0.  0.
        -11    1    3    3    0    0  0.26468707863E+02  0.45908837862E+02  0.12288380241E+02  0.54398696482E+02  0.51100000000E-03 0.  1.
         23    2    1    0    0    0 -0.34511919660E+01  0.27275207141E+02 -0.95878676063E+01  0.95883426441E+02  0.91355659979E+02 0.  0.
         11    1    3    3    0    0 -0.29919899828E+02 -0.18633630721E+02 -0.21876247848E+02  0.41484729959E+02  0.51100000000E-03 0. -1.
         22    1    1    0    0    0  0.34511919660E+01 -0.27275207141E+02  0.95878676063E+01  0.29116573559E+02  0.00000000000E+00 0.  1.
</event>
<event>
 5    1  0.6690694E-004  0.9118800E+02  0.7818608E-02  0.1130116E+00
         25   -1    0    0    0    0  0.00000000000E+00  0.00000000000E+00  0.99999998245E-14  0.12500000000E+03  0.12500000000E+03 0.  0.
        -11    1    3    3    0    0  0.14725270028E+01  0.55551277129E+02  0.28443705348E+01  0.55643536645E+02  0.51100000000E-03 0.  1.
         23    2    1    0    0    0 -0.17789404064E+02  0.17685273911E+02 -0.63796455015E+01  0.99116961404E+02  0.95677794451E+02 0.  0.
         11    1    3    3    0    0 -0.19261931067E+02 -0.37866003218E+02 -0.92240160363E+01  0.43473424759E+02  0.51100000000E-03 0. -1.
         22    1    1    0    0    0  0.17789404064E+02 -0.17685273911E+02  0.63796455015E+01  0.25883038596E+02  0.00000000000E+00 0.  1.
</event>
<event>
 5    1  0.6690694E-004  0.9118800E+02  0.7818608E-02  0.1130116E+00
         25   -1    0    0    0    0  0.00000000000E+00  0.00000000000E+00  0.99999998245E-14  0.12500000000E+03  0.12500000000E+03 0.  0.
        -11    1    3    3    0    0 -0.13767600112E+02  0.77089889655E+01  0.28792605491E+02  0.32832749731E+02  0.51100000000E-03 0.  1.
         23    2    1    0    0    0  0.83916931290E+01 -0.21921719406E+02 -0.20065136561E+02  0.94119715019E+02  0.88909666262E+02 0.  0.
         11    1    3    3    0    0  0.22159293241E+02 -0.29630708371E+02 -0.48857742052E+02  0.61286965288E+02  0.51100000000E-03 0. -1.
         22    1    1    0    0    0 -0.83916931290E+01  0.21921719406E+02  0.20065136561E+02  0.30880284981E+02  0.00000000000E+00 0. -1.
</event>
<event>
 5    1  0.6690694E-004  0.9118800E+02  0.7818608E-02  0.1130116E+00
         25   -1    0    0    0    0  0.00000000000E+00  0.00000000000E+00  0.99999998245E-14  0.12500000000E+03  0.12500000000E+03 0.  0.
        -11    1    3    3    0    0  0.49213935250E+01 -0.13467642862E+02  0.39001168814E+02  0.41553443752E+02  0.51100000000E-03 0. -1.
         23    2    1    0    0    0  0.11167657765E+02  0.18524544189E+02 -0.10604209792E+02  0.10091007300E+03  0.97992439764E+02 0.  0.
         11    1    3    3    0    0  0.62462642401E+01  0.31992187052E+02 -0.49605378606E+02  0.59356629252E+02  0.51100000000E-03 0.  1.
         22    1    1    0    0    0 -0.11167657765E+02 -0.18524544189E+02  0.10604209792E+02  0.24089926996E+02  0.00000000000E+00 0.  1.
</event>
<event>
 5    1  0.6690694E-004  0.9118800E+02  0.7818608E-02  0.1130116E+00
         25   -1    0    0    0    0  0.00000000000E+00  0.00000000000E+00  0.99999998245E-14  0.12500000000E+03  0.12500000000E+03 0.  0.
        -11    1    3    3    0    0 -0.33050552377E+02  0.87822316320E+01 -0.18652556359E+02  0.38953619394E+02  0.51100000000E-03 0. -1.
         23    2    1    0    0    0 -0.52167543045E+01 -0.14381428682E+02  0.25012305941E+02  0.95680118266E+02  0.91077052908E+02 0.  0.
         11    1    3    3    0    0  0.27833798073E+02 -0.23163660314E+02  0.43664862301E+02  0.56726498872E+02  0.51100000000E-03 0.  1.
         22    1    1    0    0    0  0.52167543045E+01  0.14381428682E+02 -0.25012305941E+02  0.29319881734E+02  0.00000000000E+00 0.  1.
</event>
<event>
 5    1  0.6690694E-004  0.9118800E+02  0.7818608E-02  0.1130116E+00
         25   -1    0    0    0    0  0.00000000000E+00  0.00000000000E+00  0.99999998245E-14  0.12500000000E+03  0.12500000000E+03 0.  0.
        -11    1    3    3    0    0 -0.20003372038E+02  0.53633937011E+02  0.12140090544E+02  0.58515945612E+02  0.51100000000E-03 0.  1.
         23    2    1    0    0    0 -0.23060867813E+01  0.28246224004E+02 -0.81373894512E+01  0.95514676298E+02  0.90849705968E+02 0.  0.
         11    1    3    3    0    0  0.17697285257E+02 -0.25387713007E+02 -0.20277479995E+02  0.36998730686E+02  0.51100000000E-03 0. -1.
         22    1    1    0    0    0  0.23060867813E+01 -0.28246224004E+02  0.81373894512E+01  0.29485323702E+02  0.00000000000E+00 0.  1.
</event>
<event>
 5    1  0.6690694E-004  0.9118800E+02  0.7818608E-02  0.1130116E+00
         25   -1    0    0    0    0  0.00000000000E+00  0.00000000000E+00  0.99999998245E-14  0.12500000000E+03  0.12500000000E+03 0.  0.
        -11    1    3    3    0    0 -0.19825298621E+02 -0.45762013963E+02 -0.16137802460E+02  0.52417869623E+02  0.51100000000E-03 0.  1.
         23    2    1    0    0    0 -0.29292781807E+02 -0.11575764855E+02  0.40669470421E+01  0.93241450660E+02  0.87666200242E+02 0.  0.
         11    1    3    3    0    0 -0.94674831862E+01  0.34186249108E+02  0.20204749502E+02  0.40823581037E+02  0.51100000000E-03 0. -1.
         22    1    1    0    0    0  0.29292781807E+02  0.11575764855E+02 -0.40669470421E+01  0.31758549340E+02  0.00000000000E+00 0.  1.
</event>
<event>
 5    1  0.6690694E-004  0.9118800E+02  0.7818608E-02  0.1130116E+00
         25   -1    0    0    0    0  0.00000000000E+00  0.00000000000E+00  0.99999998245E-14  0.12500000000E+03  0.12500000000E+03 0.  0.
        -11    1    3    3    0    0  0.23424367203E+02  0.30914919030E+02  0.44652603284E+02  0.59146328523E+02  0.51100000000E-03 0. -1.
         23    2    1    0    0    0  0.39187100984E+01  0.24924674855E+02  0.13505724952E+02  0.96381818507E+02  0.92035072808E+02 0.  0.
         11    1    3    3    0    0 -0.19505657104E+02 -0.59902441749E+01 -0.31146878331E+02  0.37235489985E+02  0.51100000000E-03 0.  1.
         22    1    1    0    0    0 -0.39187100984E+01 -0.24924674855E+02 -0.13505724952E+02  0.28618181493E+02  0.00000000000E+00 0. -1.
</event>
<event>
 5    1  0.6690694E-004  0.9118800E+02  0.7818608E-02  0.1130116E+00
         25   -1    0    0    0    0  0.00000000000E+00  0.00000000000E+00  0.99999998245E-14  0.12500000000E+03  0.12500000000E+03 0.  0.
        -11    1    3    3    0    0 -0.39777393011E+02  0.43297050964E+01 -0.79511991735E+01  0.40794716687E+02  0.51100000000E-03 0.  1.
         23    2    1    0    0    0 -0.11589220344E+02  0.36195935029E+02 -0.15411262904E+02  0.83988260643E+02  0.73294373323E+02 0.  0.
         11    1    3    3    0    0  0.28188172667E+02  0.31866229932E+02 -0.74600637304E+01  0.43193543956E+02  0.51100000000E-03 0. -1.
         22    1    1    0    0    0  0.11589220344E+02 -0.36195935029E+02  0.15411262904E+02  0.41011739357E+02  0.00000000000E+00 0.  1.
</event>
<event>
 5    1  0.6690694E-004  0.9118800E+02  0.7818608E-02  0.1130116E+00
         25   -1    0    0    0    0  0.00000000000E+00  0.00000000000E+00  0.99999998245E-14  0.12500000000E+03  0.12500000000E+03 0.  0.
        -11    1    3    3    0    0  0.24670768711E+02 -0.20033978558E+02 -0.14484191866E+02  0.34925620108E+02  0.51100000000E-03 0. -1.
         23    2    1    0    0    0 -0.20782181689E+02  0.92615897168E+01  0.16171017052E+02  0.97086241523E+02  0.92986882842E+02 0.  0.
         11    1    3    3    0    0 -0.45452950400E+02  0.29295568274E+02  0.30655208918E+02  0.62160621415E+02  0.51100000000E-03 0.  1.
         22    1    1    0    0    0  0.20782181689E+02 -0.92615897168E+01 -0.16171017052E+02  0.27913758477E+02  0.00000000000E+00 0.  1.
</event>
<event>
 5    1  0.6690694E-004  0.9118800E+02  0.7818608E-02  0.1130116E+00
         25   -1    0    0    0    0  0.00000000000E+00  0.00000000000E+00  0.99999998245E-14  0.12500000000E+03  0.12500000000E+03 0.  0.
        -11    1    3    3    0    0 -0.14425283625E+02 -0.30632445365E+02 -0.61801649519E+01  0.34418453710E+02  0.51100000000E-03 0.  1.
         23    2    1    0    0    0  0.20465649807E+01  0.21134640722E+02  0.20976380741E+02  0.95152554286E+02  0.90350088940E+02 0.  0.
         11    1    3    3    0    0  0.16471848606E+02  0.51767086087E+02  0.27156545693E+02  0.60734100575E+02  0.51100000000E-03 0. -1.
         22    1    1    0    0    0 -0.20465649807E+01 -0.21134640722E+02 -0.20976380741E+02  0.29847445714E+02  0.00000000000E+00 0. -1.
</event>
<event>
 5    1  0.6690694E-004  0.9118800E+02  0.7818608E-02  0.1130116E+00
         25   -1    0    0    0    0  0.00000000000E+00  0.00000000000E+00  0.99999998245E-14  0.12500000000E+03  0.12500000000E+03 0.  0.
        -11    1    3    3    0    0 -0.31347941274E+02 -0.39052904476E+02 -0.16980574772E+02  0.52878754618E+02  0.51100000000E-03 0. -1.
         23    2    1    0    0    0 -0.28894581082E+02 -0.28847521173E+01  0.53743495890E+01  0.95468622717E+02  0.90786318790E+02 0.  0.
         11    1    3    3    0    0  0.24533601920E+01  0.36168152359E+02  0.22354924361E+02  0.42589868099E+02  0.51100000000E-03 0.  1.
         22    1    1    0    0    0  0.28894581082E+02  0.28847521173E+01 -0.53743495890E+01  0.29531377283E+02  0.00000000000E+00 0. -1.
</event>
<event>
 5    1  0.6690694E-004  0.9118800E+02  0.7818608E-02  0.1130116E+00
         25   -1    0    0    0    0  0.00000000000E+00  0.00000000000E+00  0.99999998245E-14  0.12500000000E+03  0.12500000000E+03 0.  0.
        -11    1    3    3    0    0  0.15262619247E+02  0.40845090177E+02 -0.38242233338E+02  0.57997735721E+02  0.51100000000E-03 0.  1.
         23    2    1    0    0    0  0.27794078650E+01  0.30636237384E+02 -0.65624223556E+01  0.93545754876E+02  0.88099027912E+02 0.  0.
         11    1    3    3    0    0 -0.12483211382E+02 -0.10208852793E+02  0.31679810982E+02  0.35548019155E+02  0.51100000000E-03 0. -1.
         22    1    1    0    0    0 -0.27794078650E+01 -0.30636237384E+02  0.65624223556E+01  0.31454245124E+02  0.00000000000E+00 0.  1.
</event>
<event>
 5    1  0.6690694E-004  0.9118800E+02  0.7818608E-02  0.1130116E+00
         25   -1    0    0    0    0  0.00000000000E+00  0.00000000000E+00  0.99999998245E-14  0.12500000000E+03  0.12500000000E+03 0.  0.
        -11    1    3    3    0    0  0.40808362626E+02 -0.12628483977E+02  0.88553722346E+01  0.43625894666E+02  0.51100000000E-03 0.  1.
         23    2    1    0    0    0  0.27566235511E+01  0.40530135337E+01  0.32971996230E+02  0.91665656936E+02  0.85389778276E+02 0.  0.
         11    1    3    3    0    0 -0.38051739075E+02  0.16681497511E+02  0.24116623995E+02  0.48039762270E+02  0.51100000000E-03 0. -1.
         22    1    1    0    0    0 -0.27566235511E+01 -0.40530135337E+01 -0.32971996230E+02  0.33334343064E+02  0.00000000000E+00 0. -1.
</event>
<event>
 5    1  0.6690694E-004  0.9118800E+02  0.7818608E-02  0.1130116E+00
         25   -1    0    0    0    0  0.00000000000E+00  0.00000000000E+00  0.99999998245E-14  0.12500000000E+03  0.12500000000E+03 0.  0.
        -11    1    3    3    0    0 -0.56144242536E+01 -0.15086582216E+02 -0.44441462015E+02  0.47267010366E+02  0.51100000000E-03 0. -1.
         23    2    1    0    0    0  0.36575310361E+01  0.21589056956E+02 -0.30218997515E+02  0.87681737388E+02  0.79343773209E+02 0.  0.
         11    1    3    3    0    0  0.92719552897E+01  0.36675639172E+02  0.14222464500E+02  0.40414727022E+02  0.51100000000E-03 0.  1.
         22    1    1    0    0    0 -0.36575310361E+01 -0.21589056956E+02  0.30218997515E+02  0.37318262612E+02  0.00000000000E+00 0. -1.
</event>
<event>
 5    1  0.6690694E-004  0.9118800E+02  0.7818608E-02  0.1130116E+00
         25   -1    0    0    0    0  0.00000000000E+00  0.00000000000E+00  0.99999998245E-14  0.12500000000E+03  0.12500000000E+03 0.  0.
        -11    1    3    3    0    0 -0.56013404037E+02 -0.73873532006E+01 -0.17777008714E+02  0.59229185865E+02  0.51100000000E-03 0.  1.
         23    2    1    0    0    0 -0.24073496560E+02 -0.16688890259E+02 -0.32559935140E+01  0.95527066850E+02  0.90866752515E+02 0.  0.
         11    1    3    3    0    0  0.31939907478E+02 -0.93015370580E+01  0.14521015200E+02  0.36297880985E+02  0.51100000000E-03 0. -1.
         22    1    1    0    0    0  0.24073496560E+02  0.16688890259E+02  0.32559935140E+01  0.29472933150E+02  0.00000000000E+00 0.  1.
</event>
<event>
 5    1  0.6690694E-004  0.9118800E+02  0.7818608E-02  0.1130116E+00
         25   -1    0    0    0    0  0.00000000000E+00  0.00000000000E+00  0.99999998245E-14  0.12500000000E+03  0.12500000000E+03 0.  0.
        -11    1    3    3    0    0 -0.24606741145E+02  0.36172264997E+02  0.18708746272E+02  0.47580895873E+02  0.51100000000E-03 0. -1.
         23    2    1    0    0    0  0.14740670254E+02  0.96743978022E+01  0.23897773510E+02  0.95301769226E+02  0.90556293578E+02 0.  0.
         11    1    3    3    0    0  0.39347411399E+02 -0.26497867194E+02  0.51890272375E+01  0.47720873353E+02  0.51100000000E-03 0.  1.
         22    1    1    0    0    0 -0.14740670254E+02 -0.96743978022E+01 -0.23897773510E+02  0.29698230774E+02  0.00000000000E+00 0.  1.
</event>
<event>
 5    1  0.6690694E-004  0.9118800E+02  0.7818608E-02  0.1130116E+00
         25   -1    0    0    0    0  0.00000000000E+00  0.00000000000E+00  0.99999998245E-14  0.12500000000E+03  0.12500000000E+03 0.  0.
        -11    1    3    3    0    0  0.20655869373E+02 -0.52577063331E+02 -0.81456892935E+01  0.57073328117E+02  0.51100000000E-03 0.  1.
         23    2    1    0    0    0  0.23865188320E+02 -0.12497881693E+02 -0.19337678323E+00  0.98059664906E+02  0.94286352282E+02 0.  0.
         11    1    3    3    0    0  0.32093189477E+01  0.40079181638E+02  0.79523125102E+01  0.40986336789E+02  0.51100000000E-03 0. -1.
         22    1    1    0    0    0 -0.23865188320E+02  0.12497881693E+02  0.19337678323E+00  0.26940335094E+02  0.00000000000E+00 0.  1.
</event>
<event>
 5    1  0.6690694E-004  0.9118800E+02  0.7818608E-02  0.1130116E+00
         25   -1    0    0    0    0  0.00000000000E+00  0.00000000000E+00  0.99999998245E-14  0.12500000000E+03  0.12500000000E+03 0.  0.
        -11    1    3    3    0    0  0.56599814244E+01  0.38470740116E+02  0.71690096981E+01  0.39540206564E+02  0.51100000000E-03 0. -1.
         23    2    1    0    0    0 -0.26971627562E+02 -0.74804865689E+01  0.79447463907E+01  0.95904547299E+02  0.91384554629E+02 0.  0.
         11    1    3    3    0    0 -0.32631608987E+02 -0.45951226685E+02  0.77573669259E+00  0.56364340736E+02  0.51100000000E-03 0.  1.
         22    1    1    0    0    0  0.26971627562E+02  0.74804865689E+01 -0.79447463907E+01  0.29095452701E+02  0.00000000000E+00 0.  1.
</event>
<event>
 5    1  0.6690694E-004  0.9118800E+02  0.7818608E-02  0.1130116E+00
         25   -1    0    0    0    0  0.00000000000E+00  0.00000000000E+00  0.99999998245E-14  0.12500000000E+03  0.12500000000E+03 0.  0.
        -11    1    3    3    0    0  0.32784946195E+02 -0.21988509936E+02 -0.48475014514E+01  0.39772421812E+02  0.51100000000E-03 0. -1.
         23    2    1    0    0    0 -0.19108136872E+02 -0.94303496745E+01 -0.20521390302E+02  0.95416561227E+02  0.90714609114E+02 0.  0.
         11    1    3    3    0    0 -0.51893083066E+02  0.12558160261E+02 -0.15673888851E+02  0.55644139415E+02  0.51100000000E-03 0.  1.
         22    1    1    0    0    0  0.19108136872E+02  0.94303496745E+01  0.20521390302E+02  0.29583438773E+02  0.00000000000E+00 0.  1.
</event>
<event>
 5    1  0.6690694E-004  0.9118800E+02  0.7818608E-02  0.1130116E+00
         25   -1    0    0    0    0  0.00000000000E+00  0.00000000000E+00  0.99999998245E-14  0.12500000000E+03  0.12500000000E+03 0.  0.
        -11    1    3    3    0    0  0.45943656449E+02 -0.18439868818E+02  0.14658252558E+02  0.51630540364E+02  0.51100000000E-03 0.  1.
         23    2    1    0    0    0  0.11880499378E+02  0.56212919924E+01  0.26871610278E+02  0.95086313700E+02  0.90258398085E+02 0.  0.
         11    1    3    3    0    0 -0.34063157071E+02  0.24061160811E+02  0.12213357720E+02  0.43455773336E+02  0.51100000000E-03 0. -1.
         22    1    1    0    0    0 -0.11880499378E+02 -0.56212919924E+01 -0.26871610278E+02  0.29913686300E+02  0.00000000000E+00 0. -1.
</event>
<event>
 5    1  0.6690694E-004  0.9118800E+02  0.7818608E-02  0.1130116E+00
         25   -1    0    0    0    0  0.00000000000E+00  0.00000000000E+00  0.99999998245E-14  0.12500000000E+03  0.12500000000E+03 0.  0.
        -11    1    3    3    0    0  0.43723363616E+02  0.28666938865E+02 -0.19438611293E+01  0.52319255596E+02  0.51100000000E-03 0.  1.
         23    2    1    0    0    0  0.26203124815E+02 -0.97957427629E+01 -0.98979467214E+01  0.95326279713E+02  0.90590120478E+02 0.  0.
         11    1    3    3    0    0 -0.17520238800E+02 -0.38462681627E+02 -0.79540855921E+01  0.43007024118E+02  0.51100000000E-03 0. -1.
         22    1    1    0    0    0 -0.26203124815E+02  0.97957427629E+01  0.98979467214E+01  0.29673720287E+02  0.00000000000E+00 0.  1.
</event>
<event>
 5    1  0.6690694E-004  0.9118800E+02  0.7818608E-02  0.1130116E+00
         25   -1    0    0    0    0  0.00000000000E+00  0.00000000000E+00  0.99999998245E-14  0.12500000000E+03  0.12500000000E+03 0.  0.
        -11    1    3    3    0    0 -0.34240070789E+02  0.32169417152E+02  0.36807635795E+02  0.59682961560E+02  0.51100000000E-03 0.  1.
         23    2    1    0    0    0 -0.80276763023E+01  0.25181377984E+02  0.14195975248E+02  0.94998815069E+02  0.90137138669E+02 0.  0.
         11    1    3    3    0    0  0.26212394486E+02 -0.69880391673E+01 -0.22611660548E+02  0.35315853509E+02  0.51100000000E-03 0. -1.
         22    1    1    0    0    0  0.80276763023E+01 -0.25181377984E+02 -0.14195975248E+02  0.30001184931E+02  0.00000000000E+00 0.  1.
</event>
<event>
 5    1  0.6690694E-004  0.9118800E+02  0.7818608E-02  0.1130116E+00
         25   -1    0    0    0    0  0.00000000000E+00  0.00000000000E+00  0.99999998245E-14  0.12500000000E+03  0.12500000000E+03 0.  0.
        -11    1    3    3    0    0  0.16107713428E+02 -0.14306659004E+02  0.31056363570E+02  0.37797309986E+02  0.51100000000E-03 0. -1.
         23    2    1    0    0    0 -0.27640858097E+02  0.11986859446E+02  0.78566780826E+01  0.93864341564E+02  0.88549903394E+02 0.  0.
         11    1    3    3    0    0 -0.43748571525E+02  0.26293518450E+02 -0.23199685487E+02  0.56067031578E+02  0.51100000000E-03 0.  1.
         22    1    1    0    0    0  0.27640858097E+02 -0.11986859446E+02 -0.78566780826E+01  0.31135658436E+02  0.00000000000E+00 0. -1.
</event>
<event>
 5    1  0.6690694E-004  0.9118800E+02  0.7818608E-02  0.1130116E+00
         25   -1    0    0    0    0  0.00000000000E+00  0.00000000000E+00  0.99999998245E-14  0.12500000000E+03  0.12500000000E+03 0.  0.
        -11    1    3    3    0    0 -0.35224283809E+02 -0.11585007458E+02  0.25480795536E+02  0.44991482628E+02  0.51100000000E-03 0.  1.
         23    2    1    0    0    0  0.33775514426E+01  0.19525890842E+02  0.23013254467E+02  0.94630967285E+02  0.89625564551E+02 0.  0.
         11    1    3    3    0    0  0.38601835251E+02  0.31110898300E+02 -0.24675410691E+01  0.49639484657E+02  0.51100000000E-03 0. -1.
         22    1    1    0    0    0 -0.33775514426E+01 -0.19525890842E+02 -0.23013254467E+02  0.30369032715E+02  0.00000000000E+00 0.  1.
</event>
<event>
 5    1  0.6690694E-004  0.9118800E+02  0.7818608E-02  0.1130116E+00
         25   -1    0    0    0    0  0.00000000000E+00  0.00000000000E+00  0.99999998245E-14  0.12500000000E+03  0.12500000000E+03 0.  0.
        -11    1    3    3    0    0 -0.24987146593E+02 -0.22886921080E+02  0.98913530671E+01  0.35298831668E+02  0.51100000000E-03 0.  1.
         23    2    1    0    0    0  0.23103515258E+02  0.14043578123E+02  0.10657419316E+02  0.95938425882E+02  0.91430883570E+02 0.  0.
         11    1    3    3    0    0  0.48090661851E+02  0.36930499202E+02  0.76606624856E+00  0.60639594214E+02  0.51100000000E-03 0. -1.
         22    1    1    0    0    0 -0.23103515258E+02 -0.14043578123E+02 -0.10657419316E+02  0.29061574118E+02  0.00000000000E+00 0. -1.
</event>
<event>
 5    1  0.6690694E-004  0.9118800E+02  0.7818608E-02  0.1130116E+00
         25   -1    0    0    0    0  0.00000000000E+00  0.00000000000E+00  0.99999998245E-14  0.12500000000E+03  0.12500000000E+03 0.  0.
        -11    1    3    3    0    0 -0.12968199496E+02  0.34371026752E+02 -0.53571509537E+01  0.37124664911E+02  0.51100000000E-03 0. -1.
         23    2    1    0    0    0 -0.48812788263E+01 -0.26033194961E+02  0.16069472001E+01  0.98464431377E+02  0.94821452447E+02 0.  0.
         11    1    3    3    0    0  0.80869206701E+01 -0.60404221713E+02  0.69640981538E+01  0.61339766466E+02  0.51100000000E-03 0.  1.
         22    1    1    0    0    0  0.48812788263E+01  0.26033194961E+02 -0.16069472001E+01  0.26535568623E+02  0.00000000000E+00 0.  1.
</event>
<event>
 5    1  0.6690694E-004  0.9118800E+02  0.7818608E-02  0.1130116E+00
         25   -1    0    0    0    0  0.00000000000E+00  0.00000000000E+00  0.99999998245E-14  0.12500000000E+03  0.12500000000E+03 0.  0.
        -11    1    3    3    0    0 -0.26088990033E+01 -0.24728492064E+02  0.48736905924E+02  0.54713715585E+02  0.51100000000E-03 0.  1.
         23    2    1    0    0    0 -0.12512566100E+02  0.76098104666E+01  0.24976602172E+02  0.96046516931E+02  0.91578541334E+02 0.  0.
         11    1    3    3    0    0 -0.99036670967E+01  0.32338302531E+02 -0.23760303752E+02  0.41332801347E+02  0.51100000000E-03 0. -1.
         22    1    1    0    0    0  0.12512566100E+02 -0.76098104666E+01 -0.24976602172E+02  0.28953483069E+02  0.00000000000E+00 0. -1.
</event>
<event>
 5    1  0.6690694E-004  0.9118800E+02  0.7818608E-02  0.1130116E+00
         25   -1    0    0    0    0  0.00000000000E+00  0.00000000000E+00  0.99999998245E-14  0.12500000000E+03  0.12500000000E+03 0.  0.
        -11    1    3    3    0    0 -0.60750151717E+02 -0.81449768943E+01  0.66361125915E+01  0.61651922702E+02  0.51100000000E-03 0. -1.
         23    2    1    0    0    0 -0.26875657201E+02 -0.16431577068E+01  0.99295474851E+01  0.96301623208E+02  0.91926088800E+02 0.  0.
         11    1    3    3    0    0  0.33874494517E+02  0.65018191875E+01  0.32934348935E+01  0.34649700506E+02  0.51100000000E-03 0.  1.
         22    1    1    0    0    0  0.26875657201E+02  0.16431577068E+01 -0.99295474851E+01  0.28698376792E+02  0.00000000000E+00 0. -1.
</event>
<event>
 5    1  0.6690694E-004  0.9118800E+02  0.7818608E-02  0.1130116E+00
         25   -1    0    0    0    0  0.00000000000E+00  0.00000000000E+00  0.99999998245E-14  0.12500000000E+03  0.12500000000E+03 0.  0.
        -11    1    3    3    0    0 -0.49453692936E+02 -0.21607360689E+02 -0.91490565877E+01  0.54738021682E+02  0.51100000000E-03 0.  1.
         23    2    1    0    0    0 -0.24645072503E+02  0.32800241753E+01  0.13660198445E+02  0.96632074823E+02  0.92374340083E+02 0.  0.
         11    1    3    3    0    0  0.24808620433E+02  0.24887384865E+02  0.22809255033E+02  0.41894053141E+02  0.51100000000E-03 0. -1.
         22    1    1    0    0    0  0.24645072503E+02 -0.32800241753E+01 -0.13660198445E+02  0.28367925177E+02  0.00000000000E+00 0.  1.
</event>
<event>
 5    1  0.6690694E-004  0.9118800E+02  0.7818608E-02  0.1130116E+00
         25   -1    0    0    0    0  0.00000000000E+00  0.00000000000E+00  0.99999998245E-14  0.12500000000E+03  0.12500000000E+03 0.  0.
        -11    1    3    3    0    0  0.13537565504E+02  0.42622803953E+02  0.40276218990E+02  0.60184241401E+02  0.51100000000E-03 0.  1.
         23    2    1    0    0    0 -0.31776674345E+01  0.26562753833E+02  0.15638942858E+02  0.94012034671E+02  0.88758147050E+02 0.  0.
         11    1    3    3    0    0 -0.16715232938E+02 -0.16060050120E+02 -0.24637276133E+02  0.33827793270E+02  0.51100000000E-03 0. -1.
         22    1    1    0    0    0  0.31776674345E+01 -0.26562753833E+02 -0.15638942858E+02  0.30987965329E+02  0.00000000000E+00 0.  1.
</event>
<event>
 5    1  0.6690694E-004  0.9118800E+02  0.7818608E-02  0.1130116E+00
         25   -1    0    0    0    0  0.00000000000E+00  0.00000000000E+00  0.99999998245E-14  0.12500000000E+03  0.12500000000E+03 0.  0.
        -11    1    3    3    0    0  0.13245010543E+02 -0.30340488832E+02  0.45477073368E+02  0.56250686834E+02  0.51100000000E-03 0. -1.
         23    2    1    0    0    0  0.16311146384E+02  0.28935351232E+01  0.23634379393E+02  0.96138088574E+02  0.91703446737E+02 0.  0.
         11    1    3    3    0    0  0.30661358403E+01  0.33234023955E+02 -0.21842693975E+02  0.39887401740E+02  0.51100000000E-03 0.  1.
         22    1    1    0    0    0 -0.16311146384E+02 -0.28935351232E+01 -0.23634379393E+02  0.28861911426E+02  0.00000000000E+00 0. -1.
</event>
<event>
 5    1  0.6690694E-004  0.9118800E+02  0.7818608E-02  0.1130116E+00
         25   -1    0    0    0    0  0.00000000000E+00  0.00000000000E+00  0.99999998245E-14  0.12500000000E+03  0.12500000000E+03 0.  0.
        -11    1    3    3    0    0  0.40770139291E+01  0.31453847795E+02 -0.15336965399E+02  0.35230513643E+02  0.51100000000E-03 0.  1.
         23    2    1    0    0    0 -0.13700019230E+02 -0.11947564727E+02  0.22913557442E+02  0.95751650569E+02  0.91175175581E+02 0.  0.
         11    1    3    3    0    0 -0.17777033159E+02 -0.43401412521E+02  0.38250522842E+02  0.60521136925E+02  0.51100000000E-03 0. -1.
         22    1    1    0    0    0  0.13700019230E+02  0.11947564727E+02 -0.22913557442E+02  0.29248349431E+02  0.00000000000E+00 0. -1.
</event>
<event>
 5    1  0.6690694E-004  0.9118800E+02  0.7818608E-02  0.1130116E+00
         25   -1    0    0    0    0  0.00000000000E+00  0.00000000000E+00  0.99999998245E-14  0.12500000000E+03  0.12500000000E+03 0.  0.
        -11    1    3    3    0    0  0.29174333541E+02  0.23252157742E+02  0.20017639471E+02  0.42338049878E+02  0.51100000000E-03 0.  1.
         23    2    1    0    0    0 -0.11124808331E+02  0.19337835709E+02 -0.16806903484E+02  0.97068203512E+02  0.92962631621E+02 0.  0.
         11    1    3    3    0    0 -0.40299141873E+02 -0.39143220325E+01 -0.36824542955E+02  0.54730153634E+02  0.51100000000E-03 0. -1.
         22    1    1    0    0    0  0.11124808331E+02 -0.19337835709E+02  0.16806903484E+02  0.27931796488E+02  0.00000000000E+00 0.  1.
</event>
<event>
 5    1  0.6690694E-004  0.9118800E+02  0.7818608E-02  0.1130116E+00
         25   -1    0    0    0    0  0.00000000000E+00  0.00000000000E+00  0.99999998245E-14  0.12500000000E+03  0.12500000000E+03 0.  0.
        -11    1    3    3    0    0 -0.21892642008E+00 -0.23043617244E+02  0.51080493766E+02  0.56038139406E+02  0.51100000000E-03 0. -1.
         23    2    1    0    0    0  0.52144514142E+01 -0.26176046974E+02  0.11797632226E+02  0.95818497899E+02  0.91266776402E+02 0.  0.
         11    1    3    3    0    0  0.54333778342E+01 -0.31324297300E+01 -0.39282861541E+02  0.39780358492E+02  0.51100000000E-03 0.  1.
         22    1    1    0    0    0 -0.52144514142E+01  0.26176046974E+02 -0.11797632226E+02  0.29181502101E+02  0.00000000000E+00 0. -1.
</event>
<event>
 5    1  0.6690694E-004  0.9118800E+02  0.7818608E-02  0.1130116E+00
         25   -1    0    0    0    0  0.00000000000E+00  0.00000000000E+00  0.99999998245E-14  0.12500000000E+03  0.12500000000E+03 0.  0.
        -11    1    3    3    0    0 -0.28813004227E+01  0.29104352416E+02 -0.35158824334E+02  0.45733009418E+02  0.51100000000E-03 0.  1.
         23    2    1    0    0    0 -0.15255134443E+02 -0.88826032746E+01  0.89187722581E+01  0.10522212685E+03  0.10334665796E+03 0.  0.
         11    1    3    3    0    0 -0.12373834021E+02 -0.37986955690E+02  0.44077596592E+02  0.59489117430E+02  0.51100000000E-03 0. -1.
         22    1    1    0    0    0  0.15255134443E+02  0.88826032746E+01 -0.89187722581E+01  0.19777873152E+02  0.00000000000E+00 0. -1.
</event>
<event>
 5    1  0.6690694E-004  0.9118800E+02  0.7818608E-02  0.1130116E+00
         25   -1    0    0    0    0  0.00000000000E+00  0.00000000000E+00  0.99999998245E-14  0.12500000000E+03  0.12500000000E+03 0.  0.
        -11    1    3    3    0    0  0.11183140840E+02  0.32604619429E+02 -0.11075222075E+02  0.36204756475E+02  0.51100000000E-03 0. -1.
         23    2    1    0    0    0 -0.26042741684E+02 -0.13102052716E+02 -0.34652583481E+01  0.95641931344E+02  0.91024627635E+02 0.  0.
         11    1    3    3    0    0 -0.37225882524E+02 -0.45706672144E+02  0.76099637271E+01  0.59437174869E+02  0.51100000000E-03 0.  1.
         22    1    1    0    0    0  0.26042741684E+02  0.13102052716E+02  0.34652583481E+01  0.29358068656E+02  0.00000000000E+00 0.  1.
</event>
<event>
 5    1  0.6690694E-004  0.9118800E+02  0.7818608E-02  0.1130116E+00
         25   -1    0    0    0    0  0.00000000000E+00  0.00000000000E+00  0.99999998245E-14  0.12500000000E+03  0.12500000000E+03 0.  0.
        -11    1    3    3    0    0  0.29955130650E+02 -0.56770460194E+01 -0.22204586478E+02  0.37717136221E+02  0.51100000000E-03 0. -1.
         23    2    1    0    0    0 -0.11152514517E+02 -0.20669353336E+02  0.16630812162E+02  0.96221802340E+02  0.91817485181E+02 0.  0.
         11    1    3    3    0    0 -0.41107645167E+02 -0.14992307317E+02  0.38835398640E+02  0.58504666119E+02  0.51100000000E-03 0.  1.
         22    1    1    0    0    0  0.11152514517E+02  0.20669353336E+02 -0.16630812162E+02  0.28778197660E+02  0.00000000000E+00 0.  1.
</event>
<event>
 5    1  0.6690694E-004  0.9118800E+02  0.7818608E-02  0.1130116E+00
         25   -1    0    0    0    0  0.00000000000E+00  0.00000000000E+00  0.99999998245E-14  0.12500000000E+03  0.12500000000E+03 0.  0.
        -11    1    3    3    0    0 -0.19603698719E+01  0.47366304267E+02 -0.25123069290E+02  0.53652385229E+02  0.51100000000E-03 0. -1.
         23    2    1    0    0    0 -0.86053231519E+01  0.15554790946E+02 -0.33378771311E+02  0.87182735660E+02  0.78553700836E+02 0.  0.
         11    1    3    3    0    0 -0.66449532800E+01 -0.31811513322E+02 -0.82557020212E+01  0.33530350431E+02  0.51100000000E-03 0.  1.
         22    1    1    0    0    0  0.86053231519E+01 -0.15554790946E+02  0.33378771311E+02  0.37817264340E+02  0.00000000000E+00 0. -1.
</event>
<event>
 5    1  0.6690694E-004  0.9118800E+02  0.7818608E-02  0.1130116E+00
         25   -1    0    0    0    0  0.00000000000E+00  0.00000000000E+00  0.99999998245E-14  0.12500000000E+03  0.12500000000E+03 0.  0.
        -11    1    3    3    0    0  0.14246776134E+02  0.52705923819E+02  0.26576341886E+02  0.60722211621E+02  0.51100000000E-03 0.  1.
         23    2    1    0    0    0  0.15354020240E+02  0.18179296014E+02  0.13374300074E+02  0.97703395018E+02  0.93812838964E+02 0.  0.
         11    1    3    3    0    0  0.11072441067E+01 -0.34526627806E+02 -0.13202041813E+02  0.36981183397E+02  0.51100000000E-03 0. -1.
         22    1    1    0    0    0 -0.15354020240E+02 -0.18179296014E+02 -0.13374300074E+02  0.27296604982E+02  0.00000000000E+00 0.  1.
</event>
<event>
 5    1  0.6690694E-004  0.9118800E+02  0.7818608E-02  0.1130116E+00
         25   -1    0    0    0    0  0.00000000000E+00  0.00000000000E+00  0.99999998245E-14  0.12500000000E+03  0.12500000000E+03 0.  0.
        -11    1    3    3    0    0  0.53082505509E+02  0.19765807500E+02 -0.19065705932E+02  0.59765714922E+02  0.51100000000E-03 0. -1.
         23    2    1    0    0    0  0.22641758988E+02  0.12356604721E+02 -0.21818188011E+02  0.91215857886E+02  0.84728770034E+02 0.  0.
         11    1    3    3    0    0 -0.30440746521E+02 -0.74092027796E+01 -0.27524820789E+01  0.31450142964E+02  0.51100000000E-03 0.  1.
         22    1    1    0    0    0 -0.22641758988E+02 -0.12356604721E+02  0.21818188011E+02  0.33784142114E+02  0.00000000000E+00 0. -1.
</event>
<event>
 5    1  0.6690694E-004  0.9118800E+02  0.7818608E-02  0.1130116E+00
         25   -1    0    0    0    0  0.00000000000E+00  0.00000000000E+00  0.99999998245E-14  0.12500000000E+03  0.12500000000E+03 0.  0.
        -11    1    3    3    0    0 -0.46485925979E+02  0.26568939140E+02 -0.93969013200E+01  0.54361306053E+02  0.51100000000E-03 0.  1.
         23    2    1    0    0    0 -0.51629924134E+01  0.28174656070E+02 -0.31775297357E+01  0.96180485248E+02  0.91761218998E+02 0.  0.
         11    1    3    3    0    0  0.41322933566E+02  0.16057169301E+01  0.62193715843E+01  0.41819179194E+02  0.51100000000E-03 0. -1.
         22    1    1    0    0    0  0.51629924134E+01 -0.28174656070E+02  0.31775297357E+01  0.28819514752E+02  0.00000000000E+00 0.  1.
</event>
<event>
 5    1  0.6690694E-004  0.9118800E+02  0.7818608E-02  0.1130116E+00
         25   -1    0    0    0    0  0.00000000000E+00  0.00000000000E+00  0.99999998245E-14  0.12500000000E+03  0.12500000000E+03 0.  0.
        -11    1    3    3    0    0  0.51923847402E+02  0.11526689475E+02 -0.27861469945E+02  0.60043417683E+02  0.51100000000E-03 0.  1.
         23    2    1    0    0    0  0.28892036397E+02  0.81990061646E+01 -0.19012699129E+01  0.94907005857E+02  0.90009729831E+02 0.  0.
         11    1    3    3    0    0 -0.23031811005E+02 -0.33276833105E+01  0.25960200032E+02  0.34863588174E+02  0.51100000000E-03 0. -1.
         22    1    1    0    0    0 -0.28892036397E+02 -0.81990061646E+01  0.19012699129E+01  0.30092994143E+02  0.00000000000E+00 0.  1.
</event>
<event>
 5    1  0.6690694E-004  0.9118800E+02  0.7818608E-02  0.1130116E+00
         25   -1    0    0    0    0  0.00000000000E+00  0.00000000000E+00  0.99999998245E-14  0.12500000000E+03  0.12500000000E+03 0.  0.
        -11    1    3    3    0    0 -0.40790355428E+02  0.40239013762E+02 -0.64244837565E+01  0.57656788987E+02  0.51100000000E-03 0. -1.
         23    2    1    0    0    0 -0.98969684309E+01  0.25338362551E+02  0.10421300020E+02  0.95869498888E+02  0.91336601218E+02 0.  0.
         11    1    3    3    0    0  0.30893386997E+02 -0.14900651211E+02  0.16845783776E+02  0.38212709901E+02  0.51100000000E-03 0.  1.
         22    1    1    0    0    0  0.98969684309E+01 -0.25338362551E+02 -0.10421300020E+02  0.29130501112E+02  0.00000000000E+00 0. -1.
</event>
<event>
 5    1  0.6690694E-004  0.9118800E+02  0.7818608E-02  0.1130116E+00
         25   -1    0    0    0    0  0.00000000000E+00  0.00000000000E+00  0.99999998245E-14  0.12500000000E+03  0.12500000000E+03 0.  0.
        -11    1    3    3    0    0  0.43410359102E+02  0.22204489969E+01  0.43097084600E+02  0.61210688384E+02  0.51100000000E-03 0. -1.
         23    2    1    0    0    0  0.23366987864E+02  0.79860137134E+01  0.15342928171E+02  0.95927711103E+02  0.91416233655E+02 0.  0.
         11    1    3    3    0    0 -0.20043371238E+02  0.57655647165E+01 -0.27754156429E+02  0.34717022719E+02  0.51100000000E-03 0.  1.
         22    1    1    0    0    0 -0.23366987864E+02 -0.79860137134E+01 -0.15342928171E+02  0.29072288897E+02  0.00000000000E+00 0. -1.
</event>
<event>
 5    1  0.6690694E-004  0.9118800E+02  0.7818608E-02  0.1130116E+00
         25   -1    0    0    0    0  0.00000000000E+00  0.00000000000E+00  0.99999998245E-14  0.12500000000E+03  0.12500000000E+03 0.  0.
        -11    1    3    3    0    0  0.47759233413E+02 -0.34751529150E+01 -0.36879861242E+02  0.60441254367E+02  0.51100000000E-03 0. -1.
         23    2    1    0    0    0  0.26766990688E+02 -0.68674476993E+01 -0.81409726292E+01  0.96191857684E+02  0.91776709578E+02 0.  0.
         11    1    3    3    0    0 -0.20992242726E+02 -0.33922947843E+01  0.28738888612E+02  0.35750603316E+02  0.51100000000E-03 0.  1.
         22    1    1    0    0    0 -0.26766990688E+02  0.68674476993E+01  0.81409726292E+01  0.28808142316E+02  0.00000000000E+00 0. -1.
</event>
<event>
 5    1  0.6690694E-004  0.9118800E+02  0.7818608E-02  0.1130116E+00
         25   -1    0    0    0    0  0.00000000000E+00  0.00000000000E+00  0.99999998245E-14  0.12500000000E+03  0.12500000000E+03 0.  0.
        -11    1    3    3    0    0 -0.21538567790E+02  0.15365322750E+02 -0.21631611924E+02  0.34174986179E+02  0.51100000000E-03 0.  1.
         23    2    1    0    0    0 -0.44685045234E+01 -0.19882222621E+02  0.23476963271E+02  0.93912412228E+02  0.88617735568E+02 0.  0.
         11    1    3    3    0    0  0.17070063266E+02 -0.35247545371E+02  0.45108575195E+02  0.59737426049E+02  0.51100000000E-03 0. -1.
         22    1    1    0    0    0  0.44685045234E+01  0.19882222621E+02 -0.23476963271E+02  0.31087587772E+02  0.00000000000E+00 0. -1.
</event>
<event>
 5    1  0.6690694E-004  0.9118800E+02  0.7818608E-02  0.1130116E+00
         25   -1    0    0    0    0  0.00000000000E+00  0.00000000000E+00  0.99999998245E-14  0.12500000000E+03  0.12500000000E+03 0.  0.
        -11    1    3    3    0    0 -0.46246958434E+01  0.59864949836E+02  0.14757883126E+02  0.61830373969E+02  0.51100000000E-03 0.  1.
         23    2    1    0    0    0  0.41703460043E+01  0.27529415827E+02  0.81757543937E+01  0.95980980694E+02  0.91489044008E+02 0.  0.
         11    1    3    3    0    0  0.87950418477E+01 -0.32335534009E+02 -0.65821287324E+01  0.34150606725E+02  0.51100000000E-03 0. -1.
         22    1    1    0    0    0 -0.41703460043E+01 -0.27529415827E+02 -0.81757543937E+01  0.29019019306E+02  0.00000000000E+00 0.  1.
</event>
<event>
 5    1  0.6690694E-004  0.9118800E+02  0.7818608E-02  0.1130116E+00
         25   -1    0    0    0    0  0.00000000000E+00  0.00000000000E+00  0.99999998245E-14  0.12500000000E+03  0.12500000000E+03 0.  0.
        -11    1    3    3    0    0  0.24201340588E+02  0.63516479693E+01  0.33506818216E+02  0.41818120300E+02  0.51100000000E-03 0.  1.
         23    2    1    0    0    0 -0.22654566416E+02  0.16401708854E+02  0.91620001434E+01  0.95568933430E+02  0.90924327644E+02 0.  0.
         11    1    3    3    0    0 -0.46855907003E+02  0.10050060884E+02 -0.24344818073E+02  0.53750813130E+02  0.51100000000E-03 0. -1.
         22    1    1    0    0    0  0.22654566416E+02 -0.16401708854E+02 -0.91620001434E+01  0.29431066570E+02  0.00000000000E+00 0. -1.
</event>
<event>
 5    1  0.6690694E-004  0.9118800E+02  0.7818608E-02  0.1130116E+00
         25   -1    0    0    0    0  0.00000000000E+00  0.00000000000E+00  0.99999998245E-14  0.12500000000E+03  0.12500000000E+03 0.  0.
        -11    1    3    3    0    0 -0.65179806314E+01  0.23123243303E+02 -0.24107271430E+02  0.34034232596E+02  0.51100000000E-03 0. -1.
         23    2    1    0    0    0  0.24915604188E+02 -0.34504837469E+01  0.18879380996E+02  0.93549655059E+02  0.88104561543E+02 0.  0.
         11    1    3    3    0    0  0.31433584820E+02 -0.26573727050E+02  0.42986652425E+02  0.59515422463E+02  0.51100000000E-03 0.  1.
         22    1    1    0    0    0 -0.24915604188E+02  0.34504837469E+01 -0.18879380996E+02  0.31450344941E+02  0.00000000000E+00 0.  1.
</event>
<event>
 5    1  0.6690694E-004  0.9118800E+02  0.7818608E-02  0.1130116E+00
         25   -1    0    0    0    0  0.00000000000E+00  0.00000000000E+00  0.99999998245E-14  0.12500000000E+03  0.12500000000E+03 0.  0.
        -11    1    3    3    0    0 -0.25607561449E+02  0.32007514262E+02  0.24776826179E+01  0.41065400083E+02  0.51100000000E-03 0. -1.
         23    2    1    0    0    0 -0.13421022576E+02 -0.17979414060E+02  0.19515322217E+02  0.95263978441E+02  0.90504113776E+02 0.  0.
         11    1    3    3    0    0  0.12186538873E+02 -0.49986928321E+02  0.17037639599E+02  0.54198578358E+02  0.51100000000E-03 0.  1.
         22    1    1    0    0    0  0.13421022576E+02  0.17979414060E+02 -0.19515322217E+02  0.29736021559E+02  0.00000000000E+00 0.  1.
</event>
<event>
 5    1  0.6690694E-004  0.9118800E+02  0.7818608E-02  0.1130116E+00
         25   -1    0    0    0    0  0.00000000000E+00  0.00000000000E+00  0.99999998245E-14  0.12500000000E+03  0.12500000000E+03 0.  0.
        -11    1    3    3    0    0  0.83956118293E+01  0.24546195178E+02 -0.53955231162E+02  0.59867929358E+02  0.51100000000E-03 0.  1.
         23    2    1    0    0    0  0.15072240623E+02  0.50925486960E+01 -0.24135319987E+02  0.96092904668E+02  0.91641836336E+02 0.  0.
         11    1    3    3    0    0  0.66766287938E+01 -0.19453646482E+02  0.29819911174E+02  0.36224975310E+02  0.51100000000E-03 0. -1.
         22    1    1    0    0    0 -0.15072240623E+02 -0.50925486960E+01  0.24135319987E+02  0.28907095332E+02  0.00000000000E+00 0.  1.
</event>
<event>
 5    1  0.6690694E-004  0.9118800E+02  0.7818608E-02  0.1130116E+00
         25   -1    0    0    0    0  0.00000000000E+00  0.00000000000E+00  0.99999998245E-14  0.12500000000E+03  0.12500000000E+03 0.  0.
        -11    1    3    3    0    0  0.64564978029E+01 -0.15311571555E+02 -0.57227277777E+02  0.59591038835E+02  0.51100000000E-03 0.  1.
         23    2    1    0    0    0  0.15960931641E+02 -0.50250524834E+01 -0.23136495221E+02  0.96446543074E+02  0.92122938341E+02 0.  0.
         11    1    3    3    0    0  0.95044338377E+01  0.10286519071E+02  0.34090782556E+02  0.36855504239E+02  0.51100000000E-03 0. -1.
         22    1    1    0    0    0 -0.15960931641E+02  0.50250524834E+01  0.23136495221E+02  0.28553456926E+02  0.00000000000E+00 0.  1.
</event>
<event>
 5    1  0.6690694E-004  0.9118800E+02  0.7818608E-02  0.1130116E+00
         25   -1    0    0    0    0  0.00000000000E+00  0.00000000000E+00  0.99999998245E-14  0.12500000000E+03  0.12500000000E+03 0.  0.
        -11    1    3    3    0    0  0.81091187054E+00 -0.14170251181E+02  0.39494953866E+02  0.41967904138E+02  0.51100000000E-03 0.  1.
         23    2    1    0    0    0 -0.25376307755E+02 -0.28344972075E+01 -0.87400332161E+01  0.98011492255E+02  0.94222465812E+02 0.  0.
         11    1    3    3    0    0 -0.26187219626E+02  0.11335753974E+02 -0.48234987082E+02  0.56043588116E+02  0.51100000000E-03 0. -1.
         22    1    1    0    0    0  0.25376307755E+02  0.28344972075E+01  0.87400332161E+01  0.26988507745E+02  0.00000000000E+00 0. -1.
</event>
<event>
 5    1  0.6690694E-004  0.9118800E+02  0.7818608E-02  0.1130116E+00
         25   -1    0    0    0    0  0.00000000000E+00  0.00000000000E+00  0.99999998245E-14  0.12500000000E+03  0.12500000000E+03 0.  0.
        -11    1    3    3    0    0 -0.90077945005E+01 -0.28309195402E+01  0.45962096740E+02  0.46921943739E+02  0.51100000000E-03 0.  1.
         23    2    1    0    0    0 -0.21314969579E+02  0.19832262915E+02  0.48044479169E+01  0.95491877385E+02  0.90818331554E+02 0.  0.
         11    1    3    3    0    0 -0.12307175079E+02  0.22663182455E+02 -0.41157648824E+02  0.48569933646E+02  0.51100000000E-03 0. -1.
         22    1    1    0    0    0  0.21314969579E+02 -0.19832262915E+02 -0.48044479169E+01  0.29508122615E+02  0.00000000000E+00 0. -1.
</event>
<event>
 5    1  0.6690694E-004  0.9118800E+02  0.7818608E-02  0.1130116E+00
         25   -1    0    0    0    0  0.00000000000E+00  0.00000000000E+00  0.99999998245E-14  0.12500000000E+03  0.12500000000E+03 0.  0.
        -11    1    3    3    0    0  0.20180952864E+00  0.17041753261E+02  0.32863340020E+02  0.37019740664E+02  0.51100000000E-03 0.  1.
         23    2    1    0    0    0 -0.26366586636E+02 -0.98702363381E+01 -0.10856358914E+02  0.94825855686E+02  0.89896962805E+02 0.  0.
         11    1    3    3    0    0 -0.26568396164E+02 -0.26911989599E+02 -0.43719698934E+02  0.57806115023E+02  0.51100000000E-03 0. -1.
         22    1    1    0    0    0  0.26366586636E+02  0.98702363381E+01  0.10856358914E+02  0.30174144314E+02  0.00000000000E+00 0. -1.
</event>
<event>
 5    1  0.6690694E-004  0.9118800E+02  0.7818608E-02  0.1130116E+00
         25   -1    0    0    0    0  0.00000000000E+00  0.00000000000E+00  0.99999998245E-14  0.12500000000E+03  0.12500000000E+03 0.  0.
        -11    1    3    3    0    0 -0.40966832374E+02 -0.35076274498E+02 -0.21956829561E+02  0.58229964383E+02  0.51100000000E-03 0.  1.
         23    2    1    0    0    0 -0.61593016656E+01 -0.25431996480E+02 -0.14404665730E+02  0.95129984320E+02  0.90318857831E+02 0.  0.
         11    1    3    3    0    0  0.34807530709E+02  0.96442780180E+01  0.75521638313E+01  0.36900019937E+02  0.51100000000E-03 0. -1.
         22    1    1    0    0    0  0.61593016656E+01  0.25431996480E+02  0.14404665730E+02  0.29870015680E+02  0.00000000000E+00 0.  1.
</event>
<event>
 5    1  0.6690694E-004  0.9118800E+02  0.7818608E-02  0.1130116E+00
         25   -1    0    0    0    0  0.00000000000E+00  0.00000000000E+00  0.99999998245E-14  0.12500000000E+03  0.12500000000E+03 0.  0.
        -11    1    3    3    0    0  0.35209367761E+02  0.50254362364E+02 -0.43192680594E+01  0.61513060333E+02  0.51100000000E-03 0. -1.
         23    2    1    0    0    0  0.96787567892E+01  0.26984134258E+02  0.48729408596E-01  0.96332523495E+02  0.91968097043E+02 0.  0.
         11    1    3    3    0    0 -0.25530610971E+02 -0.23270228106E+02  0.43679974680E+01  0.34819463161E+02  0.51100000000E-03 0.  1.
         22    1    1    0    0    0 -0.96787567892E+01 -0.26984134258E+02 -0.48729408596E-01  0.28667476505E+02  0.00000000000E+00 0. -1.
</event>
<event>
 5    1  0.6690694E-004  0.9118800E+02  0.7818608E-02  0.1130116E+00
         25   -1    0    0    0    0  0.00000000000E+00  0.00000000000E+00  0.99999998245E-14  0.12500000000E+03  0.12500000000E+03 0.  0.
        -11    1    3    3    0    0  0.29907614612E+02  0.25786758800E+02 -0.51023820720E+01  0.39817793061E+02  0.51100000000E-03 0. -1.
         23    2    1    0    0    0  0.12202398903E+02 -0.26448902672E+02  0.35839641431E+01  0.95652294970E+02  0.91038858421E+02 0.  0.
         11    1    3    3    0    0 -0.17705215709E+02 -0.52235661471E+02  0.86863462151E+01  0.55834501909E+02  0.51100000000E-03 0.  1.
         22    1    1    0    0    0 -0.12202398903E+02  0.26448902672E+02 -0.35839641431E+01  0.29347705030E+02  0.00000000000E+00 0.  1.
</event>
<event>
 5    1  0.6690694E-004  0.9118800E+02  0.7818608E-02  0.1130116E+00
         25   -1    0    0    0    0  0.00000000000E+00  0.00000000000E+00  0.99999998245E-14  0.12500000000E+03  0.12500000000E+03 0.  0.
        -11    1    3    3    0    0 -0.49704668407E+02 -0.14174766434E+02 -0.15378460898E+02  0.53925644408E+02  0.51100000000E-03 0.  1.
         23    2    1    0    0    0 -0.24999548952E+02  0.15030855648E+02  0.16181660339E+01  0.95784892082E+02  0.91220737887E+02 0.  0.
         11    1    3    3    0    0  0.24705119455E+02  0.29205622083E+02  0.16996626932E+02  0.41859247674E+02  0.51100000000E-03 0. -1.
         22    1    1    0    0    0  0.24999548952E+02 -0.15030855648E+02 -0.16181660339E+01  0.29215107918E+02  0.00000000000E+00 0.  1.
</event>
<event>
 5    1  0.6690694E-004  0.9118800E+02  0.7818608E-02  0.1130116E+00
         25   -1    0    0    0    0  0.00000000000E+00  0.00000000000E+00  0.99999998245E-14  0.12500000000E+03  0.12500000000E+03 0.  0.
        -11    1    3    3    0    0  0.18080487165E+02 -0.10460304813E+02  0.56681049997E+02  0.60407478195E+02  0.51100000000E-03 0. -1.
         23    2    1    0    0    0 -0.16576117679E+01  0.91370755876E-02  0.28873036070E+02  0.96079419574E+02  0.91623440743E+02 0.  0.
         11    1    3    3    0    0 -0.19738098933E+02  0.10469441888E+02 -0.27808013926E+02  0.35671941379E+02  0.51100000000E-03 0.  1.
         22    1    1    0    0    0  0.16576117679E+01 -0.91370755876E-02 -0.28873036070E+02  0.28920580426E+02  0.00000000000E+00 0. -1.
</event>
<event>
 5    1  0.6690694E-004  0.9118800E+02  0.7818608E-02  0.1130116E+00
         25   -1    0    0    0    0  0.00000000000E+00  0.00000000000E+00  0.99999998245E-14  0.12500000000E+03  0.12500000000E+03 0.  0.
        -11    1    3    3    0    0  0.87394285959E+01 -0.43494096176E+01  0.32874202482E+02  0.34292975451E+02  0.51100000000E-03 0. -1.
         23    2    1    0    0    0  0.36323172242E+01  0.45094206001E+00 -0.28600646278E+02  0.96166095570E+02  0.91741614835E+02 0.  0.
         11    1    3    3    0    0 -0.51071113717E+01  0.48003516777E+01 -0.61474848761E+02  0.61873120118E+02  0.51100000000E-03 0.  1.
         22    1    1    0    0    0 -0.36323172242E+01 -0.45094206001E+00  0.28600646278E+02  0.28833904430E+02  0.00000000000E+00 0.  1.
</event>
<event>
 5    1  0.6690694E-004  0.9118800E+02  0.7818608E-02  0.1130116E+00
         25   -1    0    0    0    0  0.00000000000E+00  0.00000000000E+00  0.99999998245E-14  0.12500000000E+03  0.12500000000E+03 0.  0.
        -11    1    3    3    0    0  0.48495791733E+02  0.29793405731E+02  0.73235163932E+01  0.57385736324E+02  0.51100000000E-03 0. -1.
         23    2    1    0    0    0  0.21733563284E+02  0.13571444261E+02 -0.14519083221E+02  0.95549437188E+02  0.90897520852E+02 0.  0.
         11    1    3    3    0    0 -0.26762228449E+02 -0.16221961469E+02 -0.21842599615E+02  0.38163700864E+02  0.51100000000E-03 0.  1.
         22    1    1    0    0    0 -0.21733563284E+02 -0.13571444261E+02  0.14519083221E+02  0.29450562812E+02  0.00000000000E+00 0. -1.
</event>
<event>
 5    1  0.6690694E-004  0.9118800E+02  0.7818608E-02  0.1130116E+00
         25   -1    0    0    0    0  0.00000000000E+00  0.00000000000E+00  0.99999998245E-14  0.12500000000E+03  0.12500000000E+03 0.  0.
        -11    1    3    3    0    0  0.46750733172E+02  0.36408141360E+02  0.17176413723E+02  0.61694513517E+02  0.51100000000E-03 0. -1.
         23    2    1    0    0    0  0.25107105443E+02  0.13541932637E+02  0.27061501850E+01  0.96345612342E+02  0.91985885251E+02 0.  0.
         11    1    3    3    0    0 -0.21643627729E+02 -0.22866208724E+02 -0.14470263538E+02  0.34651098825E+02  0.51100000000E-03 0.  1.
         22    1    1    0    0    0 -0.25107105443E+02 -0.13541932637E+02 -0.27061501850E+01  0.28654387658E+02  0.00000000000E+00 0. -1.
</event>
<event>
 5    1  0.6690694E-004  0.9118800E+02  0.7818608E-02  0.1130116E+00
         25   -1    0    0    0    0  0.00000000000E+00  0.00000000000E+00  0.99999998245E-14  0.12500000000E+03  0.12500000000E+03 0.  0.
        -11    1    3    3    0    0 -0.44148344726E+02 -0.41448094819E+01 -0.30592135256E+02  0.53871463016E+02  0.51100000000E-03 0.  1.
         23    2    1    0    0    0 -0.28584903279E+02 -0.13748277185E+01  0.77556771120E+01  0.95349749171E+02  0.90622498822E+02 0.  0.
         11    1    3    3    0    0  0.15563441447E+02  0.27699817634E+01  0.38347812368E+02  0.41478286155E+02  0.51100000000E-03 0. -1.
         22    1    1    0    0    0  0.28584903279E+02  0.13748277185E+01 -0.77556771120E+01  0.29650250829E+02  0.00000000000E+00 0.  1.
</event>
<event>
 5    1  0.6690694E-004  0.9118800E+02  0.7818608E-02  0.1130116E+00
         25   -1    0    0    0    0  0.00000000000E+00  0.00000000000E+00  0.99999998245E-14  0.12500000000E+03  0.12500000000E+03 0.  0.
        -11    1    3    3    0    0  0.40479550236E+02 -0.46752101629E+01  0.29338387599E+02  0.50211478414E+02  0.51100000000E-03 0.  1.
         23    2    1    0    0    0  0.18463119797E+02 -0.22901498301E+02 -0.52891219316E+01  0.95111202301E+02  0.90292860046E+02 0.  0.
         11    1    3    3    0    0 -0.22016430439E+02 -0.18226288138E+02 -0.34627509531E+02  0.44899723887E+02  0.51100000000E-03 0. -1.
         22    1    1    0    0    0 -0.18463119797E+02  0.22901498301E+02  0.52891219316E+01  0.29888797699E+02  0.00000000000E+00 0. -1.
</event>
<event>
 5    1  0.6690694E-004  0.9118800E+02  0.7818608E-02  0.1130116E+00
         25   -1    0    0    0    0  0.00000000000E+00  0.00000000000E+00  0.99999998245E-14  0.12500000000E+03  0.12500000000E+03 0.  0.
        -11    1    3    3    0    0 -0.12472692245E+02 -0.30159201128E+02  0.14162404168E+02  0.35576946982E+02  0.51100000000E-03 0.  1.
         23    2    1    0    0    0 -0.29540911306E+01  0.10571215019E+02 -0.27974379525E+02  0.94949323615E+02  0.90068478968E+02 0.  0.
         11    1    3    3    0    0  0.95186011142E+01  0.40730416147E+02 -0.42136783693E+02  0.59372376632E+02  0.51100000000E-03 0. -1.
         22    1    1    0    0    0  0.29540911306E+01 -0.10571215019E+02  0.27974379525E+02  0.30050676385E+02  0.00000000000E+00 0. -1.
</event>
<event>
 5    1  0.6690694E-004  0.9118800E+02  0.7818608E-02  0.1130116E+00
         25   -1    0    0    0    0  0.00000000000E+00  0.00000000000E+00  0.99999998245E-14  0.12500000000E+03  0.12500000000E+03 0.  0.
        -11    1    3    3    0    0  0.10441329218E+02 -0.29659657941E+02 -0.42611981645E+02  0.52957507919E+02  0.51100000000E-03 0.  1.
         23    2    1    0    0    0 -0.15362781742E+02 -0.33557275985E+01 -0.28566677466E+02  0.92391243016E+02  0.86445420665E+02 0.  0.
         11    1    3    3    0    0 -0.25804110960E+02  0.26303930343E+02  0.14045304179E+02  0.39433735096E+02  0.51100000000E-03 0. -1.
         22    1    1    0    0    0  0.15362781742E+02  0.33557275985E+01  0.28566677466E+02  0.32608756984E+02  0.00000000000E+00 0. -1.
</event>
<event>
 5    1  0.6690694E-004  0.9118800E+02  0.7818608E-02  0.1130116E+00
         25   -1    0    0    0    0  0.00000000000E+00  0.00000000000E+00  0.99999998245E-14  0.12500000000E+03  0.12500000000E+03 0.  0.
        -11    1    3    3    0    0 -0.19589490846E+02 -0.43125789430E+02 -0.33810871839E+02  0.58195849683E+02  0.51100000000E-03 0.  1.
         23    2    1    0    0    0  0.91401459047E+00 -0.12465244614E+02 -0.26362275370E+02  0.95824885456E+02  0.91275524452E+02 0.  0.
         11    1    3    3    0    0  0.20503505437E+02  0.30660544815E+02  0.74485964692E+01  0.37629035773E+02  0.51100000000E-03 0. -1.
         22    1    1    0    0    0 -0.91401459047E+00  0.12465244614E+02  0.26362275370E+02  0.29175114544E+02  0.00000000000E+00 0.  1.
</event>
<event>
 5    1  0.6690694E-004  0.9118800E+02  0.7818608E-02  0.1130116E+00
         25   -1    0    0    0    0  0.00000000000E+00  0.00000000000E+00  0.99999998245E-14  0.12500000000E+03  0.12500000000E+03 0.  0.
        -11    1    3    3    0    0 -0.50887284169E+01  0.36977137218E+02 -0.17034075914E+01  0.37364494261E+02  0.51100000000E-03 0.  1.
         23    2    1    0    0    0 -0.91043090330E+01 -0.18267300598E+02  0.19592813029E+02  0.96707579876E+02  0.92476456295E+02 0.  0.
         11    1    3    3    0    0 -0.40155806161E+01 -0.55244437816E+02  0.21296220620E+02  0.59343085614E+02  0.51100000000E-03 0. -1.
         22    1    1    0    0    0  0.91043090330E+01  0.18267300598E+02 -0.19592813029E+02  0.28292420124E+02  0.00000000000E+00 0. -1.
</event>
<event>
 5    1  0.6690694E-004  0.9118800E+02  0.7818608E-02  0.1130116E+00
         25   -1    0    0    0    0  0.00000000000E+00  0.00000000000E+00  0.99999998245E-14  0.12500000000E+03  0.12500000000E+03 0.  0.
        -11    1    3    3    0    0  0.44366820339E+01 -0.41487433817E+02  0.57233529809E+01  0.42114701492E+02  0.51100000000E-03 0. -1.
         23    2    1    0    0    0 -0.28358974642E+02  0.15758962555E+01  0.43850342812E+01  0.96260768671E+02  0.91870518490E+02 0.  0.
         11    1    3    3    0    0 -0.32795656676E+02  0.43063330072E+02 -0.13383186997E+01  0.54146067179E+02  0.51100000000E-03 0.  1.
         22    1    1    0    0    0  0.28358974642E+02 -0.15758962555E+01 -0.43850342812E+01  0.28739231329E+02  0.00000000000E+00 0.  1.
</event>
<event>
 5    1  0.6690694E-004  0.9118800E+02  0.7818608E-02  0.1130116E+00
         25   -1    0    0    0    0  0.00000000000E+00  0.00000000000E+00  0.99999998245E-14  0.12500000000E+03  0.12500000000E+03 0.  0.
        -11    1    3    3    0    0  0.26256642078E+01 -0.18249428869E+02 -0.37325796291E+02  0.41631128205E+02  0.51100000000E-03 0. -1.
         23    2    1    0    0    0 -0.28787264890E+02 -0.35755852034E+01  0.41570634542E+01  0.95695177770E+02  0.91097719194E+02 0.  0.
         11    1    3    3    0    0 -0.31412929098E+02  0.14673843665E+02  0.41482859746E+02  0.54064049565E+02  0.51100000000E-03 0.  1.
         22    1    1    0    0    0  0.28787264890E+02  0.35755852034E+01 -0.41570634542E+01  0.29304822230E+02  0.00000000000E+00 0.  1.
</event>
<event>
 5    1  0.6690694E-004  0.9118800E+02  0.7818608E-02  0.1130116E+00
         25   -1    0    0    0    0  0.00000000000E+00  0.00000000000E+00  0.99999998245E-14  0.12500000000E+03  0.12500000000E+03 0.  0.
        -11    1    3    3    0    0 -0.37041797430E+02  0.23843202077E+02  0.25654809294E+02  0.50978056870E+02  0.51100000000E-03 0. -1.
         23    2    1    0    0    0 -0.16816245985E+02  0.20485515364E+02 -0.13559935288E+02  0.95228968547E+02  0.90455746842E+02 0.  0.
         11    1    3    3    0    0  0.20225551445E+02 -0.33576867123E+01 -0.39214744582E+02  0.44250911677E+02  0.51100000000E-03 0.  1.
         22    1    1    0    0    0  0.16816245985E+02 -0.20485515364E+02  0.13559935288E+02  0.29771031453E+02  0.00000000000E+00 0.  1.
</event>
<event>
 5    1  0.6690694E-004  0.9118800E+02  0.7818608E-02  0.1130116E+00
         25   -1    0    0    0    0  0.00000000000E+00  0.00000000000E+00  0.99999998245E-14  0.12500000000E+03  0.12500000000E+03 0.  0.
        -11    1    3    3    0    0  0.24337039687E+02  0.29425190927E+02  0.43213110526E+02  0.57667202840E+02  0.51100000000E-03 0.  1.
         23    2    1    0    0    0  0.65420795354E+01  0.26583065799E+02  0.92707850342E+01  0.96096615300E+02  0.91646897520E+02 0.  0.
         11    1    3    3    0    0 -0.17794960151E+02 -0.28421251274E+01 -0.33942325492E+02  0.38429412461E+02  0.51100000000E-03 0. -1.
         22    1    1    0    0    0 -0.65420795354E+01 -0.26583065799E+02 -0.92707850342E+01  0.28903384700E+02  0.00000000000E+00 0.  1.
</event>
<event>
 5    1  0.6690694E-004  0.9118800E+02  0.7818608E-02  0.1130116E+00
         25   -1    0    0    0    0  0.00000000000E+00  0.00000000000E+00  0.99999998245E-14  0.12500000000E+03  0.12500000000E+03 0.  0.
        -11    1    3    3    0    0 -0.22686736582E+02 -0.19927934222E+02  0.29608051102E+02  0.42290037472E+02  0.51100000000E-03 0.  1.
         23    2    1    0    0    0  0.22079280727E+02 -0.18188950463E+02 -0.71040325466E+00  0.96384667936E+02  0.92038942758E+02 0.  0.
         11    1    3    3    0    0  0.44766017309E+02  0.17389837595E+01 -0.30318454356E+02  0.54094630464E+02  0.51100000000E-03 0. -1.
         22    1    1    0    0    0 -0.22079280727E+02  0.18188950463E+02  0.71040325466E+00  0.28615332064E+02  0.00000000000E+00 0. -1.
</event>
<event>
 5    1  0.6690694E-004  0.9118800E+02  0.7818608E-02  0.1130116E+00
         25   -1    0    0    0    0  0.00000000000E+00  0.00000000000E+00  0.99999998245E-14  0.12500000000E+03  0.12500000000E+03 0.  0.
        -11    1    3    3    0    0 -0.15276285658E+02 -0.78152896939E+01 -0.30701760002E+02  0.35171603944E+02  0.51100000000E-03 0. -1.
         23    2    1    0    0    0  0.26957387333E+02  0.43207259191E+01  0.10824030974E+02  0.95631155099E+02  0.91009827902E+02 0.  0.
         11    1    3    3    0    0  0.42233672992E+02  0.12136015613E+02  0.41525790976E+02  0.60459551154E+02  0.51100000000E-03 0.  1.
         22    1    1    0    0    0 -0.26957387333E+02 -0.43207259191E+01 -0.10824030974E+02  0.29368844901E+02  0.00000000000E+00 0.  1.
</event>
<event>
 5    1  0.6690694E-004  0.9118800E+02  0.7818608E-02  0.1130116E+00
         25   -1    0    0    0    0  0.00000000000E+00  0.00000000000E+00  0.99999998245E-14  0.12500000000E+03  0.12500000000E+03 0.  0.
        -11    1    3    3    0    0 -0.13108956774E+02 -0.20234818887E+02  0.22770892799E+02  0.33163326163E+02  0.51100000000E-03 0.  1.
         23    2    1    0    0    0  0.16414730900E+02  0.33618299351E+01 -0.25510852060E+02  0.94478714577E+02  0.89412966869E+02 0.  0.
         11    1    3    3    0    0  0.29523687674E+02  0.23596648822E+02 -0.48281744859E+02  0.61315388414E+02  0.51100000000E-03 0. -1.
         22    1    1    0    0    0 -0.16414730900E+02 -0.33618299351E+01  0.25510852060E+02  0.30521285423E+02  0.00000000000E+00 0. -1.
</event>
<event>
 5    1  0.6690694E-004  0.9118800E+02  0.7818608E-02  0.1130116E+00
         25   -1    0    0    0    0  0.00000000000E+00  0.00000000000E+00  0.99999998245E-14  0.12500000000E+03  0.12500000000E+03 0.  0.
        -11    1    3    3    0    0 -0.20021964398E+02  0.18618778154E+02 -0.21429937373E+02  0.34738741693E+02  0.51100000000E-03 0.  1.
         23    2    1    0    0    0 -0.69784274524E-01 -0.21974324011E+02  0.19410782759E+02  0.95680138594E+02  0.91077080807E+02 0.  0.
         11    1    3    3    0    0  0.19952180124E+02 -0.40593102165E+02  0.40840720132E+02  0.60941396901E+02  0.51100000000E-03 0. -1.
         22    1    1    0    0    0  0.69784274524E-01  0.21974324011E+02 -0.19410782759E+02  0.29319861406E+02  0.00000000000E+00 0. -1.
</event>
<event>
 5    1  0.6690694E-004  0.9118800E+02  0.7818608E-02  0.1130116E+00
         25   -1    0    0    0    0  0.00000000000E+00  0.00000000000E+00  0.99999998245E-14  0.12500000000E+03  0.12500000000E+03 0.  0.
        -11    1    3    3    0    0  0.57534934022E+01  0.31754955867E+02 -0.26426604652E+02  0.41711453369E+02  0.51100000000E-03 0.  1.
         23    2    1    0    0    0  0.26539264733E+02 -0.13021340131E+02 -0.83621500587E+01  0.94278453408E+02  0.89132560561E+02 0.  0.
         11    1    3    3    0    0  0.20785771331E+02 -0.44776295998E+02  0.18064454593E+02  0.52567000039E+02  0.51100000000E-03 0. -1.
         22    1    1    0    0    0 -0.26539264733E+02  0.13021340131E+02  0.83621500587E+01  0.30721546592E+02  0.00000000000E+00 0. -1.
</event>
<event>
 5    1  0.6690694E-004  0.9118800E+02  0.7818608E-02  0.1130116E+00
         25   -1    0    0    0    0  0.00000000000E+00  0.00000000000E+00  0.99999998245E-14  0.12500000000E+03  0.12500000000E+03 0.  0.
        -11    1    3    3    0    0 -0.30726050401E+02 -0.13408972577E+02 -0.23805433209E+02  0.41116777224E+02  0.51100000000E-03 0. -1.
         23    2    1    0    0    0 -0.95958608711E+01  0.12248869108E+02  0.22210175018E+02  0.97881607448E+02  0.94049996608E+02 0.  0.
         11    1    3    3    0    0  0.21130189530E+02  0.25657841685E+02  0.46015608227E+02  0.56764830223E+02  0.51100000000E-03 0.  1.
         22    1    1    0    0    0  0.95958608711E+01 -0.12248869108E+02 -0.22210175018E+02  0.27118392552E+02  0.00000000000E+00 0.  1.
</event>
<event>
 5    1  0.6690694E-004  0.9118800E+02  0.7818608E-02  0.1130116E+00
         25   -1    0    0    0    0  0.00000000000E+00  0.00000000000E+00  0.99999998245E-14  0.12500000000E+03  0.12500000000E+03 0.  0.
        -11    1    3    3    0    0  0.24775389880E+02 -0.41452591191E+02  0.37814164470E+02  0.61335538597E+02  0.51100000000E-03 0. -1.
         23    2    1    0    0    0  0.13817509600E+02 -0.10575179583E+02  0.19479621755E+02  0.98880779902E+02  0.95368731645E+02 0.  0.
         11    1    3    3    0    0 -0.10957880279E+02  0.30877411608E+02 -0.18334542715E+02  0.37545241305E+02  0.51100000000E-03 0.  1.
         22    1    1    0    0    0 -0.13817509600E+02  0.10575179583E+02 -0.19479621755E+02  0.26119220098E+02  0.00000000000E+00 0. -1.
</event>
<event>
 5    1  0.6690694E-004  0.9118800E+02  0.7818608E-02  0.1130116E+00
         25   -1    0    0    0    0  0.00000000000E+00  0.00000000000E+00  0.99999998245E-14  0.12500000000E+03  0.12500000000E+03 0.  0.
        -11    1    3    3    0    0  0.26986732340E+02  0.28753268656E+02 -0.61524598717E+01  0.39910987754E+02  0.51100000000E-03 0.  1.
         23    2    1    0    0    0 -0.10651208128E+02 -0.65427329800E+01 -0.26753556010E+02  0.95470212520E+02  0.90788507697E+02 0.  0.
         11    1    3    3    0    0 -0.37637940468E+02 -0.35296001636E+02 -0.20601096139E+02  0.55559224765E+02  0.51100000000E-03 0. -1.
         22    1    1    0    0    0  0.10651208128E+02  0.65427329800E+01  0.26753556010E+02  0.29529787480E+02  0.00000000000E+00 0. -1.
</event>
<event>
 5    1  0.6690694E-004  0.9118800E+02  0.7818608E-02  0.1130116E+00
         25   -1    0    0    0    0  0.00000000000E+00  0.00000000000E+00  0.99999998245E-14  0.12500000000E+03  0.12500000000E+03 0.  0.
        -11    1    3    3    0    0  0.47558108426E+02 -0.27174629217E+02 -0.10090515231E+02  0.55696073902E+02  0.51100000000E-03 0.  1.
         23    2    1    0    0    0  0.11382962297E+02 -0.14676846430E+02 -0.22401050842E+02  0.95900365456E+02  0.91378834332E+02 0.  0.
         11    1    3    3    0    0 -0.36175146129E+02  0.12497782787E+02 -0.12310535610E+02  0.40204291554E+02  0.51100000000E-03 0. -1.
         22    1    1    0    0    0 -0.11382962297E+02  0.14676846430E+02  0.22401050842E+02  0.29099634544E+02  0.00000000000E+00 0.  1.
</event>
<event>
 5    1  0.6690694E-004  0.9118800E+02  0.7818608E-02  0.1130116E+00
         25   -1    0    0    0    0  0.00000000000E+00  0.00000000000E+00  0.99999998245E-14  0.12500000000E+03  0.12500000000E+03 0.  0.
        -11    1    3    3    0    0 -0.30813618784E+02  0.73708720019E+01 -0.48105547232E+02  0.57601671255E+02  0.51100000000E-03 0. -1.
         23    2    1    0    0    0 -0.20843781970E+02 -0.11727256275E+02 -0.16148865948E+02  0.96142112725E+02  0.91708931851E+02 0.  0.
         11    1    3    3    0    0  0.99698368139E+01 -0.19098128277E+02  0.31956681284E+02  0.38540441470E+02  0.51100000000E-03 0.  1.
         22    1    1    0    0    0  0.20843781970E+02  0.11727256275E+02  0.16148865948E+02  0.28857887275E+02  0.00000000000E+00 0. -1.
</event>
<event>
 5    1  0.6690694E-004  0.9118800E+02  0.7818608E-02  0.1130116E+00
         25   -1    0    0    0    0  0.00000000000E+00  0.00000000000E+00  0.99999998245E-14  0.12500000000E+03  0.12500000000E+03 0.  0.
        -11    1    3    3    0    0  0.96201173779E+01 -0.43346822923E+02 -0.36536586928E+02  0.57501442595E+02  0.51100000000E-03 0.  1.
         23    2    1    0    0    0  0.97502232937E+01 -0.74039281495E+01 -0.27994263704E+02  0.94445723595E+02  0.89366833326E+02 0.  0.
         11    1    3    3    0    0  0.13010591582E+00  0.35942894774E+02  0.85423232246E+01  0.36944281000E+02  0.51100000000E-03 0. -1.
         22    1    1    0    0    0 -0.97502232937E+01  0.74039281495E+01  0.27994263704E+02  0.30554276405E+02  0.00000000000E+00 0. -1.
</event>
<event>
 5    1  0.6690694E-004  0.9118800E+02  0.7818608E-02  0.1130116E+00
         25   -1    0    0    0    0  0.00000000000E+00  0.00000000000E+00  0.99999998245E-14  0.12500000000E+03  0.12500000000E+03 0.  0.
        -11    1    3    3    0    0  0.37978224583E+02 -0.61562401535E+01  0.25612660808E+02  0.46219619527E+02  0.51100000000E-03 0. -1.
         23    2    1    0    0    0  0.17328612412E+02  0.21492697474E+02 -0.98362919748E+01  0.95691818674E+02  0.91093109885E+02 0.  0.
         11    1    3    3    0    0 -0.20649612172E+02  0.27648937627E+02 -0.35448952783E+02  0.49472199147E+02  0.51100000000E-03 0.  1.
         22    1    1    0    0    0 -0.17328612412E+02 -0.21492697474E+02  0.98362919748E+01  0.29308181326E+02  0.00000000000E+00 0. -1.
</event>
<event>
 5    1  0.6690694E-004  0.9118800E+02  0.7818608E-02  0.1130116E+00
         25   -1    0    0    0    0  0.00000000000E+00  0.00000000000E+00  0.99999998245E-14  0.12500000000E+03  0.12500000000E+03 0.  0.
        -11    1    3    3    0    0 -0.47448548298E+02  0.21254899330E+02 -0.87139342343E+01  0.52716867616E+02  0.51100000000E-03 0.  1.
         23    2    1    0    0    0 -0.18858672896E+02 -0.11200108918E+02 -0.17607212037E+02  0.96873395177E+02  0.92700317120E+02 0.  0.
         11    1    3    3    0    0  0.28589875402E+02 -0.32455008248E+02 -0.88932778027E+01  0.44156527561E+02  0.51100000000E-03 0. -1.
         22    1    1    0    0    0  0.18858672896E+02  0.11200108918E+02  0.17607212037E+02  0.28126604823E+02  0.00000000000E+00 0.  1.
</event>
<event>
 5    1  0.6690694E-004  0.9118800E+02  0.7818608E-02  0.1130116E+00
         25   -1    0    0    0    0  0.00000000000E+00  0.00000000000E+00  0.99999998245E-14  0.12500000000E+03  0.12500000000E+03 0.  0.
        -11    1    3    3    0    0  0.24526843870E+01 -0.46081251137E+02  0.10530329125E+02  0.47332707495E+02  0.51100000000E-03 0. -1.
         23    2    1    0    0    0 -0.16279419525E+02 -0.25471578941E+01  0.23342987273E+02  0.96427240801E+02  0.92096743701E+02 0.  0.
         11    1    3    3    0    0 -0.18732103912E+02  0.43534093243E+02  0.12812658148E+02  0.49094533306E+02  0.51100000000E-03 0.  1.
         22    1    1    0    0    0  0.16279419525E+02  0.25471578941E+01 -0.23342987273E+02  0.28572759199E+02  0.00000000000E+00 0.  1.
</event>
<event>
 5    1  0.6690694E-004  0.9118800E+02  0.7818608E-02  0.1130116E+00
         25   -1    0    0    0    0  0.00000000000E+00  0.00000000000E+00  0.99999998245E-14  0.12500000000E+03  0.12500000000E+03 0.  0.
        -11    1    3    3    0    0  0.12023163484E+02  0.48399923406E+02 -0.26265589527E+02  0.56364796100E+02  0.51100000000E-03 0.  1.
         23    2    1    0    0    0 -0.89139956485E+01  0.14930384391E+02 -0.23261054510E+02  0.95957748824E+02  0.91457297171E+02 0.  0.
         11    1    3    3    0    0 -0.20937159133E+02 -0.33469539015E+02  0.30045350170E+01  0.39592952724E+02  0.51100000000E-03 0. -1.
         22    1    1    0    0    0  0.89139956485E+01 -0.14930384391E+02  0.23261054510E+02  0.29042251176E+02  0.00000000000E+00 0.  1.
</event>
<event>
 5    1  0.6690694E-004  0.9118800E+02  0.7818608E-02  0.1130116E+00
         25   -1    0    0    0    0  0.00000000000E+00  0.00000000000E+00  0.99999998245E-14  0.12500000000E+03  0.12500000000E+03 0.  0.
        -11    1    3    3    0    0 -0.18421087061E+02  0.31131897343E+02  0.13142700801E+02  0.38487167541E+02  0.51100000000E-03 0.  1.
         23    2    1    0    0    0  0.67648112272E+01  0.34469619064E+00 -0.28282681745E+02  0.95917504008E+02  0.91402275694E+02 0.  0.
         11    1    3    3    0    0  0.25185898288E+02 -0.30787201152E+02 -0.41425382546E+02  0.57430336468E+02  0.51100000000E-03 0. -1.
         22    1    1    0    0    0 -0.67648112272E+01 -0.34469619064E+00  0.28282681745E+02  0.29082495992E+02  0.00000000000E+00 0. -1.
</event>
<event>
 5    1  0.6690694E-004  0.9118800E+02  0.7818608E-02  0.1130116E+00
         25   -1    0    0    0    0  0.00000000000E+00  0.00000000000E+00  0.99999998245E-14  0.12500000000E+03  0.12500000000E+03 0.  0.
        -11    1    3    3    0    0  0.37262870723E+02  0.42196282021E+02  0.22597354054E+01  0.56339632190E+02  0.51100000000E-03 0. -1.
         23    2    1    0    0    0 -0.54409142013E+00  0.26019176698E+02 -0.60211737949E+01  0.98287678397E+02  0.94588157818E+02 0.  0.
         11    1    3    3    0    0 -0.37806962144E+02 -0.16177105323E+02 -0.82809092003E+01  0.41948046207E+02  0.51100000000E-03 0.  1.
         22    1    1    0    0    0  0.54409142013E+00 -0.26019176698E+02  0.60211737949E+01  0.26712321603E+02  0.00000000000E+00 0. -1.
</event>
<event>
 5    1  0.6690694E-004  0.9118800E+02  0.7818608E-02  0.1130116E+00
         25   -1    0    0    0    0  0.00000000000E+00  0.00000000000E+00  0.99999998245E-14  0.12500000000E+03  0.12500000000E+03 0.  0.
        -11    1    3    3    0    0  0.36495228687E+02  0.12457793327E+02  0.40496465767E+02  0.55920140123E+02  0.51100000000E-03 0.  1.
         23    2    1    0    0    0  0.39743266607E+01 -0.73091639003E+01  0.27710226685E+02  0.96067737519E+02  0.91607501766E+02 0.  0.
         11    1    3    3    0    0 -0.32520902026E+02 -0.19766957227E+02 -0.12786239082E+02  0.40147597397E+02  0.51100000000E-03 0. -1.
         22    1    1    0    0    0 -0.39743266607E+01  0.73091639003E+01 -0.27710226685E+02  0.28932262481E+02  0.00000000000E+00 0.  1.
</event>
<event>
 5    1  0.6690694E-004  0.9118800E+02  0.7818608E-02  0.1130116E+00
         25   -1    0    0    0    0  0.00000000000E+00  0.00000000000E+00  0.99999998245E-14  0.12500000000E+03  0.12500000000E+03 0.  0.
        -11    1    3    3    0    0 -0.98503243756E+01 -0.38818186401E+02 -0.24973136623E+02  0.47196801150E+02  0.51100000000E-03 0.  1.
         23    2    1    0    0    0  0.20335346816E+02 -0.17965569061E+02  0.81946790781E+01  0.96654969271E+02  0.92405315420E+02 0.  0.
         11    1    3    3    0    0  0.30185671192E+02  0.20852617339E+02  0.33167815702E+02  0.49458168121E+02  0.51100000000E-03 0. -1.
         22    1    1    0    0    0 -0.20335346816E+02  0.17965569061E+02 -0.81946790781E+01  0.28345030729E+02  0.00000000000E+00 0.  1.
</event>
<event>
 5    1  0.6690694E-004  0.9118800E+02  0.7818608E-02  0.1130116E+00
         25   -1    0    0    0    0  0.00000000000E+00  0.00000000000E+00  0.99999998245E-14  0.12500000000E+03  0.12500000000E+03 0.  0.
        -11    1    3    3    0    0  0.11463382300E+02 -0.21624224564E+02  0.25320386418E+02  0.35215595840E+02  0.51100000000E-03 0.  1.
         23    2    1    0    0    0 -0.95535389021E+01  0.27655358609E+02 -0.25946708641E+01  0.95626180326E+02  0.91002994904E+02 0.  0.
         11    1    3    3    0    0 -0.21016921202E+02  0.49279583173E+02 -0.27915057282E+02  0.60410584486E+02  0.51100000000E-03 0. -1.
         22    1    1    0    0    0  0.95535389021E+01 -0.27655358609E+02  0.25946708641E+01  0.29373819674E+02  0.00000000000E+00 0. -1.
</event>
<event>
 5    1  0.6690694E-004  0.9118800E+02  0.7818608E-02  0.1130116E+00
         25   -1    0    0    0    0  0.00000000000E+00  0.00000000000E+00  0.99999998245E-14  0.12500000000E+03  0.12500000000E+03 0.  0.
        -11    1    3    3    0    0 -0.30441201515E+02  0.19632246056E+02  0.37253579728E+02  0.51960764406E+02  0.51100000000E-03 0.  1.
         23    2    1    0    0    0  0.24038927612E+01 -0.81873981474E+01  0.27651058876E+02  0.96062252234E+02  0.91600016695E+02 0.  0.
         11    1    3    3    0    0  0.32845094276E+02 -0.27819644204E+02 -0.96025208522E+01  0.44101487828E+02  0.51100000000E-03 0. -1.
         22    1    1    0    0    0 -0.24038927612E+01  0.81873981474E+01 -0.27651058876E+02  0.28937747766E+02  0.00000000000E+00 0.  1.
</event>
<event>
 5    1  0.6690694E-004  0.9118800E+02  0.7818608E-02  0.1130116E+00
         25   -1    0    0    0    0  0.00000000000E+00  0.00000000000E+00  0.99999998245E-14  0.12500000000E+03  0.12500000000E+03 0.  0.
        -11    1    3    3    0    0  0.26412697144E+02 -0.17913013129E+00  0.25528508899E+02  0.36733736877E+02  0.51100000000E-03 0.  1.
         23    2    1    0    0    0 -0.16511757873E+02  0.21323611252E+02 -0.97623738117E+01  0.96318324886E+02  0.91948796738E+02 0.  0.
         11    1    3    3    0    0 -0.42924455017E+02  0.21502741384E+02 -0.35290882711E+02  0.59584588010E+02  0.51100000000E-03 0. -1.
         22    1    1    0    0    0  0.16511757873E+02 -0.21323611252E+02  0.97623738117E+01  0.28681675114E+02  0.00000000000E+00 0.  1.
</event>
<event>
 5    1  0.6690694E-004  0.9118800E+02  0.7818608E-02  0.1130116E+00
         25   -1    0    0    0    0  0.00000000000E+00  0.00000000000E+00  0.99999998245E-14  0.12500000000E+03  0.12500000000E+03 0.  0.
        -11    1    3    3    0    0 -0.18936965986E+02  0.16491871574E+02  0.47618050693E+02  0.53833718624E+02  0.51100000000E-03 0. -1.
         23    2    1    0    0    0 -0.26136195168E+02 -0.68163811965E+01  0.16596458841E+02  0.93298167300E+02  0.87747033141E+02 0.  0.
         11    1    3    3    0    0 -0.71992291816E+01 -0.23308252771E+02 -0.31021591852E+02  0.39464448677E+02  0.51100000000E-03 0.  1.
         22    1    1    0    0    0  0.26136195168E+02  0.68163811965E+01 -0.16596458841E+02  0.31701832700E+02  0.00000000000E+00 0. -1.
</event>
<event>
 5    1  0.6690694E-004  0.9118800E+02  0.7818608E-02  0.1130116E+00
         25   -1    0    0    0    0  0.00000000000E+00  0.00000000000E+00  0.99999998245E-14  0.12500000000E+03  0.12500000000E+03 0.  0.
        -11    1    3    3    0    0  0.19633419411E+02 -0.57413977689E+02 -0.98371287734E+01  0.61470359480E+02  0.51100000000E-03 0.  1.
         23    2    1    0    0    0  0.36792805429E+01 -0.34586917369E+02 -0.34174267630E+01  0.90050454022E+02  0.82991647203E+02 0.  0.
         11    1    3    3    0    0 -0.15954138868E+02  0.22827060320E+02  0.64197020103E+01  0.28580094542E+02  0.51100000000E-03 0. -1.
         22    1    1    0    0    0 -0.36792805429E+01  0.34586917369E+02  0.34174267630E+01  0.34949545978E+02  0.00000000000E+00 0.  1.
</event>
<event>
 5    1  0.6690694E-004  0.9118800E+02  0.7818608E-02  0.1130116E+00
         25   -1    0    0    0    0  0.00000000000E+00  0.00000000000E+00  0.99999998245E-14  0.12500000000E+03  0.12500000000E+03 0.  0.
        -11    1    3    3    0    0 -0.46259322996E+02  0.39325474985E+02  0.11587094342E+02  0.61811638891E+02  0.51100000000E-03 0.  1.
         23    2    1    0    0    0 -0.20785035942E+02  0.18193130704E+02 -0.13396308140E+01  0.97344940162E+02  0.93333997239E+02 0.  0.
         11    1    3    3    0    0  0.25474287054E+02 -0.21132344281E+02 -0.12926725156E+02  0.35533301271E+02  0.51100000000E-03 0. -1.
         22    1    1    0    0    0  0.20785035942E+02 -0.18193130704E+02  0.13396308140E+01  0.27655059838E+02  0.00000000000E+00 0.  1.
</event>
<event>
 5    1  0.6690694E-004  0.9118800E+02  0.7818608E-02  0.1130116E+00
         25   -1    0    0    0    0  0.00000000000E+00  0.00000000000E+00  0.99999998245E-14  0.12500000000E+03  0.12500000000E+03 0.  0.
        -11    1    3    3    0    0 -0.57492278650E+02 -0.83927715354E+00 -0.24315283429E+02  0.62428354928E+02  0.51100000000E-03 0.  1.
         23    2    1    0    0    0 -0.28667064025E+02  0.16781155495E+01 -0.12424098532E+02  0.93711426112E+02  0.88333779089E+02 0.  0.
         11    1    3    3    0    0  0.28825214625E+02  0.25173927030E+01  0.11891184897E+02  0.31283071184E+02  0.51100000000E-03 0. -1.
         22    1    1    0    0    0  0.28667064025E+02 -0.16781155495E+01  0.12424098532E+02  0.31288573888E+02  0.00000000000E+00 0.  1.
</event>
<event>
 5    1  0.6690694E-004  0.9118800E+02  0.7818608E-02  0.1130116E+00
         25   -1    0    0    0    0  0.00000000000E+00  0.00000000000E+00  0.99999998245E-14  0.12500000000E+03  0.12500000000E+03 0.  0.
        -11    1    3    3    0    0 -0.15619124906E+02  0.45935118368E+02 -0.23538302459E+02  0.53926281581E+02  0.51100000000E-03 0. -1.
         23    2    1    0    0    0 -0.27745521621E+02  0.22303335492E+02 -0.22767115828E-01  0.89401499155E+02  0.82008382430E+02 0.  0.
         11    1    3    3    0    0 -0.12126396715E+02 -0.23631782876E+02  0.23515535343E+02  0.35475217574E+02  0.51100000000E-03 0.  1.
         22    1    1    0    0    0  0.27745521621E+02 -0.22303335492E+02  0.22767115828E-01  0.35598500845E+02  0.00000000000E+00 0. -1.
</event>
<event>
 5    1  0.6690694E-004  0.9118800E+02  0.7818608E-02  0.1130116E+00
         25   -1    0    0    0    0  0.00000000000E+00  0.00000000000E+00  0.99999998245E-14  0.12500000000E+03  0.12500000000E+03 0.  0.
        -11    1    3    3    0    0  0.35658378389E+02 -0.12828458779E+02  0.84631405523E+01  0.38829293738E+02  0.51100000000E-03 0.  1.
         23    2    1    0    0    0  0.37546667582E+01  0.80261844466E+01 -0.30442528696E+02  0.93294090257E+02  0.87741224998E+02 0.  0.
         11    1    3    3    0    0 -0.31903711630E+02  0.20854643226E+02 -0.38905669248E+02  0.54464796518E+02  0.51100000000E-03 0. -1.
         22    1    1    0    0    0 -0.37546667582E+01 -0.80261844466E+01  0.30442528696E+02  0.31705909743E+02  0.00000000000E+00 0. -1.
</event>
<event>
 5    1  0.6690694E-004  0.9118800E+02  0.7818608E-02  0.1130116E+00
         25   -1    0    0    0    0  0.00000000000E+00  0.00000000000E+00  0.99999998245E-14  0.12500000000E+03  0.12500000000E+03 0.  0.
        -11    1    3    3    0    0 -0.23254944648E+02  0.18157817618E+02  0.26433781801E+02  0.39613679604E+02  0.51100000000E-03 0.  1.
         23    2    1    0    0    0  0.42889243766E+01  0.30965233544E+02 -0.14461671905E+02  0.90556125145E+02  0.83749813649E+02 0.  0.
         11    1    3    3    0    0  0.27543869025E+02  0.12807415926E+02 -0.40895453707E+02  0.50942445541E+02  0.51100000000E-03 0. -1.
         22    1    1    0    0    0 -0.42889243766E+01 -0.30965233544E+02  0.14461671905E+02  0.34443874855E+02  0.00000000000E+00 0. -1.
</event>
<event>
 5    1  0.6690694E-004  0.9118800E+02  0.7818608E-02  0.1130116E+00
         25   -1    0    0    0    0  0.00000000000E+00  0.00000000000E+00  0.99999998245E-14  0.12500000000E+03  0.12500000000E+03 0.  0.
        -11    1    3    3    0    0  0.13165643090E+02  0.15674811679E+00 -0.37415120012E+02  0.39664214775E+02  0.51100000000E-03 0.  1.
         23    2    1    0    0    0  0.15036667809E+02 -0.17204783082E+02  0.16810935880E+02  0.96632527344E+02  0.92374952428E+02 0.  0.
         11    1    3    3    0    0  0.18710247196E+01 -0.17361531199E+02  0.54226055892E+02  0.56968312569E+02  0.51100000000E-03 0. -1.
         22    1    1    0    0    0 -0.15036667809E+02  0.17204783082E+02 -0.16810935880E+02  0.28367472656E+02  0.00000000000E+00 0. -1.
</event>
<event>
 5    1  0.6690694E-004  0.9118800E+02  0.7818608E-02  0.1130116E+00
         25   -1    0    0    0    0  0.00000000000E+00  0.00000000000E+00  0.99999998245E-14  0.12500000000E+03  0.12500000000E+03 0.  0.
        -11    1    3    3    0    0 -0.28273874095E+02 -0.35213888905E+02  0.37404509504E+02  0.58638956842E+02  0.51100000000E-03 0. -1.
         23    2    1    0    0    0  0.12532232856E+01 -0.18947416400E+02  0.22665515840E+02  0.95431422673E+02  0.90735085101E+02 0.  0.
         11    1    3    3    0    0  0.29527097380E+02  0.16266472505E+02 -0.14738993664E+02  0.36792465831E+02  0.51100000000E-03 0.  1.
         22    1    1    0    0    0 -0.12532232856E+01  0.18947416400E+02 -0.22665515840E+02  0.29568577327E+02  0.00000000000E+00 0. -1.
</event>
<event>
 5    1  0.6690694E-004  0.9118800E+02  0.7818608E-02  0.1130116E+00
         25   -1    0    0    0    0  0.00000000000E+00  0.00000000000E+00  0.99999998245E-14  0.12500000000E+03  0.12500000000E+03 0.  0.
        -11    1    3    3    0    0  0.32055080236E+02 -0.29506535603E+01  0.49593840556E+01  0.32570385565E+02  0.51100000000E-03 0.  1.
         23    2    1    0    0    0 -0.24099034258E+02  0.14938771920E+02 -0.12465357603E+02  0.94027181290E+02  0.88779475796E+02 0.  0.
         11    1    3    3    0    0 -0.56154114494E+02  0.17889425481E+02 -0.17424741659E+02  0.61456795725E+02  0.51100000000E-03 0. -1.
         22    1    1    0    0    0  0.24099034258E+02 -0.14938771920E+02  0.12465357603E+02  0.30972818710E+02  0.00000000000E+00 0. -1.
</event>
<event>
 5    1  0.6690694E-004  0.9118800E+02  0.7818608E-02  0.1130116E+00
         25   -1    0    0    0    0  0.00000000000E+00  0.00000000000E+00  0.99999998245E-14  0.12500000000E+03  0.12500000000E+03 0.  0.
        -11    1    3    3    0    0  0.15412485293E+02 -0.38836687129E+02  0.36000288416E+02  0.55153002967E+02  0.51100000000E-03 0.  1.
         23    2    1    0    0    0 -0.40165410089E+01 -0.29511696602E+02  0.23357569796E+01  0.95124782868E+02  0.90311658810E+02 0.  0.
         11    1    3    3    0    0 -0.19429026301E+02  0.93249905265E+01 -0.33664531437E+02  0.39971779901E+02  0.51100000000E-03 0. -1.
         22    1    1    0    0    0  0.40165410089E+01  0.29511696602E+02 -0.23357569796E+01  0.29875217132E+02  0.00000000000E+00 0.  1.
</event>
<event>
 5    1  0.6690694E-004  0.9118800E+02  0.7818608E-02  0.1130116E+00
         25   -1    0    0    0    0  0.00000000000E+00  0.00000000000E+00  0.99999998245E-14  0.12500000000E+03  0.12500000000E+03 0.  0.
        -11    1    3    3    0    0 -0.39069066727E+02  0.74100643930E+01  0.35297034261E+02  0.53171248407E+02  0.51100000000E-03 0.  1.
         23    2    1    0    0    0 -0.12226680491E+02  0.25605797498E+02  0.81091018228E+01  0.95488881523E+02  0.90814208034E+02 0.  0.
         11    1    3    3    0    0  0.26842386235E+02  0.18195733105E+02 -0.27187932439E+02  0.42317633117E+02  0.51100000000E-03 0. -1.
         22    1    1    0    0    0  0.12226680491E+02 -0.25605797498E+02 -0.81091018228E+01  0.29511118477E+02  0.00000000000E+00 0. -1.
</event>
<event>
 5    1  0.6690694E-004  0.9118800E+02  0.7818608E-02  0.1130116E+00
         25   -1    0    0    0    0  0.00000000000E+00  0.00000000000E+00  0.99999998245E-14  0.12500000000E+03  0.12500000000E+03 0.  0.
        -11    1    3    3    0    0 -0.23455696460E+02  0.14597849112E+02  0.40688785152E+02  0.49181745928E+02  0.51100000000E-03 0.  1.
         23    2    1    0    0    0 -0.56287588085E+01 -0.21945406493E+02  0.94671778869E+01  0.10044574886E+03  0.97398342979E+02 0.  0.
         11    1    3    3    0    0  0.17826937651E+02 -0.36543255605E+02 -0.31221607265E+02  0.51264002933E+02  0.51100000000E-03 0. -1.
         22    1    1    0    0    0  0.56287588085E+01  0.21945406493E+02 -0.94671778869E+01  0.24554251139E+02  0.00000000000E+00 0.  1.
</event>
<event>
 5    1  0.6690694E-004  0.9118800E+02  0.7818608E-02  0.1130116E+00
         25   -1    0    0    0    0  0.00000000000E+00  0.00000000000E+00  0.99999998245E-14  0.12500000000E+03  0.12500000000E+03 0.  0.
        -11    1    3    3    0    0 -0.17874404341E+01 -0.27060597409E+02  0.23145329375E+02  0.35653571316E+02  0.51100000000E-03 0. -1.
         23    2    1    0    0    0  0.95167928156E+01 -0.53808632870E+01 -0.29413174118E+02  0.93620741772E+02  0.88205359491E+02 0.  0.
         11    1    3    3    0    0  0.11304233250E+02  0.21679734122E+02 -0.52558503494E+02  0.57967170456E+02  0.51100000000E-03 0.  1.
         22    1    1    0    0    0 -0.95167928156E+01  0.53808632870E+01  0.29413174118E+02  0.31379258228E+02  0.00000000000E+00 0.  1.
</event>
<event>
 5    1  0.6690694E-004  0.9118800E+02  0.7818608E-02  0.1130116E+00
         25   -1    0    0    0    0  0.00000000000E+00  0.00000000000E+00  0.99999998245E-14  0.12500000000E+03  0.12500000000E+03 0.  0.
        -11    1    3    3    0    0  0.31595086562E+01 -0.20846053347E+02 -0.17627847951E+02  0.27482384517E+02  0.51100000000E-03 0. -1.
         23    2    1    0    0    0  0.82354342363E+01  0.35993114919E+02 -0.16497013407E+02  0.84558954638E+02  0.74261286411E+02 0.  0.
         11    1    3    3    0    0  0.50759255801E+01  0.56839168266E+02  0.11308345439E+01  0.57076570120E+02  0.51100000000E-03 0.  1.
         22    1    1    0    0    0 -0.82354342363E+01 -0.35993114919E+02  0.16497013407E+02  0.40441045362E+02  0.00000000000E+00 0.  1.
</event>
<event>
 5    1  0.6690694E-004  0.9118800E+02  0.7818608E-02  0.1130116E+00
         25   -1    0    0    0    0  0.00000000000E+00  0.00000000000E+00  0.99999998245E-14  0.12500000000E+03  0.12500000000E+03 0.  0.
        -11    1    3    3    0    0 -0.12247572529E+02  0.48690037581E+01 -0.33976553084E+02  0.36443331217E+02  0.51100000000E-03 0.  1.
         23    2    1    0    0    0  0.19065781768E+02  0.15164480742E+02  0.15668625501E+02  0.96034998089E+02  0.91562817357E+02 0.  0.
         11    1    3    3    0    0  0.31313354297E+02  0.10295476984E+02  0.49645178584E+02  0.59591666872E+02  0.51100000000E-03 0. -1.
         22    1    1    0    0    0 -0.19065781768E+02 -0.15164480742E+02 -0.15668625501E+02  0.28965001911E+02  0.00000000000E+00 0. -1.
</event>
<event>
 5    1  0.6690694E-004  0.9118800E+02  0.7818608E-02  0.1130116E+00
         25   -1    0    0    0    0  0.00000000000E+00  0.00000000000E+00  0.99999998245E-14  0.12500000000E+03  0.12500000000E+03 0.  0.
        -11    1    3    3    0    0 -0.34958691841E+02 -0.41121436983E+01 -0.74970871142E+00  0.35207696949E+02  0.51100000000E-03 0.  1.
         23    2    1    0    0    0 -0.71058576537E+00  0.28293340331E+02 -0.24104457214E+02  0.87824162460E+02  0.79567836560E+02 0.  0.
         11    1    3    3    0    0  0.34248106076E+02  0.32405484030E+02 -0.23354748503E+02  0.52616465511E+02  0.51100000000E-03 0. -1.
         22    1    1    0    0    0  0.71058576537E+00 -0.28293340331E+02  0.24104457214E+02  0.37175837540E+02  0.00000000000E+00 0. -1.
</event>
<event>
 5    1  0.6690694E-004  0.9118800E+02  0.7818608E-02  0.1130116E+00
         25   -1    0    0    0    0  0.00000000000E+00  0.00000000000E+00  0.99999998245E-14  0.12500000000E+03  0.12500000000E+03 0.  0.
        -11    1    3    3    0    0 -0.18811631537E+02 -0.81922460959E+01 -0.24207165086E+02  0.31732904357E+02  0.51100000000E-03 0.  1.
         23    2    1    0    0    0  0.27499324738E+02 -0.27905185223E+02 -0.54574611750E+01  0.85443760216E+02  0.75735989160E+02 0.  0.
         11    1    3    3    0    0  0.46310956275E+02 -0.19712939127E+02  0.18749703911E+02  0.53710855859E+02  0.51100000000E-03 0. -1.
         22    1    1    0    0    0 -0.27499324738E+02  0.27905185223E+02  0.54574611750E+01  0.39556239784E+02  0.00000000000E+00 0. -1.
</event>
<event>
 5    1  0.6690694E-004  0.9118800E+02  0.7818608E-02  0.1130116E+00
         25   -1    0    0    0    0  0.00000000000E+00  0.00000000000E+00  0.99999998245E-14  0.12500000000E+03  0.12500000000E+03 0.  0.
        -11    1    3    3    0    0  0.25670956338E+02  0.18465949325E+02  0.16004541444E+02  0.35441989658E+02  0.51100000000E-03 0. -1.
         23    2    1    0    0    0 -0.44729153946E+01 -0.28632421277E+02 -0.57714625412E+01  0.95451187838E+02  0.90762310236E+02 0.  0.
         11    1    3    3    0    0 -0.30143871733E+02 -0.47098370602E+02 -0.21776003985E+02  0.60009198180E+02  0.51100000000E-03 0.  1.
         22    1    1    0    0    0  0.44729153946E+01  0.28632421277E+02  0.57714625412E+01  0.29548812162E+02  0.00000000000E+00 0.  1.
</event>
<event>
 5    1  0.6690694E-004  0.9118800E+02  0.7818608E-02  0.1130116E+00
         25   -1    0    0    0    0  0.00000000000E+00  0.00000000000E+00  0.99999998245E-14  0.12500000000E+03  0.12500000000E+03 0.  0.
        -11    1    3    3    0    0 -0.37211547799E+02  0.21214306228E+02  0.29828999055E+02  0.52196889402E+02  0.51100000000E-03 0. -1.
         23    2    1    0    0    0 -0.26430850358E+02 -0.11455819510E+02  0.25910756769E+01  0.96077010451E+02  0.91620153966E+02 0.  0.
         11    1    3    3    0    0  0.10780697442E+02 -0.32670125738E+02 -0.27237923378E+02  0.43880121049E+02  0.51100000000E-03 0.  1.
         22    1    1    0    0    0  0.26430850358E+02  0.11455819510E+02 -0.25910756769E+01  0.28922989549E+02  0.00000000000E+00 0. -1.
</event>
<event>
 5    1  0.6690694E-004  0.9118800E+02  0.7818608E-02  0.1130116E+00
         25   -1    0    0    0    0  0.00000000000E+00  0.00000000000E+00  0.99999998245E-14  0.12500000000E+03  0.12500000000E+03 0.  0.
        -11    1    3    3    0    0 -0.25335183350E+02 -0.12610654821E+02 -0.20926826026E+02  0.35197047862E+02  0.51100000000E-03 0.  1.
         23    2    1    0    0    0  0.15789827490E+02  0.38252921398E+01  0.22515798381E+02  0.97234685508E+02  0.93186218814E+02 0.  0.
         11    1    3    3    0    0  0.41125010840E+02  0.16435946961E+02  0.43442624407E+02  0.62037637646E+02  0.51100000000E-03 0. -1.
         22    1    1    0    0    0 -0.15789827490E+02 -0.38252921398E+01 -0.22515798381E+02  0.27765314492E+02  0.00000000000E+00 0. -1.
</event>
<event>
 5    1  0.6690694E-004  0.9118800E+02  0.7818608E-02  0.1130116E+00
         25   -1    0    0    0    0  0.00000000000E+00  0.00000000000E+00  0.99999998245E-14  0.12500000000E+03  0.12500000000E+03 0.  0.
        -11    1    3    3    0    0  0.13465978039E+02  0.27524278676E+02 -0.16573803391E+01  0.30686566947E+02  0.51100000000E-03 0.  1.
         23    2    1    0    0    0  0.91753253743E+00 -0.25214138266E+02  0.23563549435E+02  0.90477029438E+02  0.83631676771E+02 0.  0.
         11    1    3    3    0    0 -0.12548445502E+02 -0.52738416941E+02  0.25220929774E+02  0.59790462491E+02  0.51100000000E-03 0. -1.
         22    1    1    0    0    0 -0.91753253743E+00  0.25214138266E+02 -0.23563549435E+02  0.34522970562E+02  0.00000000000E+00 0. -1.
</event>
<event>
 5    1  0.6690694E-004  0.9118800E+02  0.7818608E-02  0.1130116E+00
         25   -1    0    0    0    0  0.00000000000E+00  0.00000000000E+00  0.99999998245E-14  0.12500000000E+03  0.12500000000E+03 0.  0.
        -11    1    3    3    0    0  0.21779458782E+01  0.17431314884E+02  0.29797986126E+02  0.34590665854E+02  0.51100000000E-03 0.  1.
         23    2    1    0    0    0  0.11333845745E+02 -0.23251096173E+02 -0.14432991757E+02  0.95379385832E+02  0.90663368888E+02 0.  0.
         11    1    3    3    0    0  0.91558998673E+01 -0.40682411057E+02 -0.44230977883E+02  0.60788719978E+02  0.51100000000E-03 0. -1.
         22    1    1    0    0    0 -0.11333845745E+02  0.23251096173E+02  0.14432991757E+02  0.29620614168E+02  0.00000000000E+00 0. -1.
</event>
<event>
 5    1  0.6690694E-004  0.9118800E+02  0.7818608E-02  0.1130116E+00
         25   -1    0    0    0    0  0.00000000000E+00  0.00000000000E+00  0.99999998245E-14  0.12500000000E+03  0.12500000000E+03 0.  0.
        -11    1    3    3    0    0 -0.44826980256E+02  0.17685881167E+02  0.19162136460E+01  0.48227797239E+02  0.51100000000E-03 0. -1.
         23    2    1    0    0    0 -0.15384331101E+02 -0.10742292948E+02 -0.22357697428E+02  0.95811969312E+02  0.91257834337E+02 0.  0.
         11    1    3    3    0    0  0.29442649155E+02 -0.28428174115E+02 -0.24273911074E+02  0.47584172073E+02  0.51100000000E-03 0.  1.
         22    1    1    0    0    0  0.15384331101E+02  0.10742292948E+02  0.22357697428E+02  0.29188030688E+02  0.00000000000E+00 0. -1.
</event>
<event>
 5    1  0.6690694E-004  0.9118800E+02  0.7818608E-02  0.1130116E+00
         25   -1    0    0    0    0  0.00000000000E+00  0.00000000000E+00  0.99999998245E-14  0.12500000000E+03  0.12500000000E+03 0.  0.
        -11    1    3    3    0    0  0.34083182044E+02 -0.13381152890E+02  0.55158109820E+01  0.37028944381E+02  0.51100000000E-03 0. -1.
         23    2    1    0    0    0 -0.25608168204E+02 -0.78930665292E+01  0.80329628096E+01  0.97024881243E+02  0.92904361096E+02 0.  0.
         11    1    3    3    0    0 -0.59691350248E+02  0.54880863612E+01  0.25171518276E+01  0.59995936862E+02  0.51100000000E-03 0.  1.
         22    1    1    0    0    0  0.25608168204E+02  0.78930665292E+01 -0.80329628096E+01  0.27975118757E+02  0.00000000000E+00 0.  1.
</event>
<event>
 5    1  0.6690694E-004  0.9118800E+02  0.7818608E-02  0.1130116E+00
         25   -1    0    0    0    0  0.00000000000E+00  0.00000000000E+00  0.99999998245E-14  0.12500000000E+03  0.12500000000E+03 0.  0.
        -11    1    3    3    0    0  0.34416883168E+02  0.47525454712E+02  0.20515524588E+02  0.62161703982E+02  0.51100000000E-03 0.  1.
         23    2    1    0    0    0  0.16634068249E+02  0.21945668795E+02  0.48266005763E+01  0.97042877857E+02  0.92928571840E+02 0.  0.
         11    1    3    3    0    0 -0.17782814919E+02 -0.25579785917E+02 -0.15688924011E+02  0.34881173875E+02  0.51100000000E-03 0. -1.
         22    1    1    0    0    0 -0.16634068249E+02 -0.21945668795E+02 -0.48266005763E+01  0.27957122143E+02  0.00000000000E+00 0.  1.
</event>
<event>
 5    1  0.6690694E-004  0.9118800E+02  0.7818608E-02  0.1130116E+00
         25   -1    0    0    0    0  0.00000000000E+00  0.00000000000E+00  0.99999998245E-14  0.12500000000E+03  0.12500000000E+03 0.  0.
        -11    1    3    3    0    0 -0.19378190651E+02  0.21289923231E+02 -0.18162432304E+02  0.34038934348E+02  0.51100000000E-03 0.  1.
         23    2    1    0    0    0  0.43394632710E+01 -0.28363538815E+02  0.83445521406E+01  0.95117683724E+02  0.90301832379E+02 0.  0.
         11    1    3    3    0    0  0.23717653922E+02 -0.49653462046E+02  0.26506984445E+02  0.61078749376E+02  0.51100000000E-03 0. -1.
         22    1    1    0    0    0 -0.43394632710E+01  0.28363538815E+02 -0.83445521406E+01  0.29882316276E+02  0.00000000000E+00 0. -1.
</event>
<event>
 5    1  0.6690694E-004  0.9118800E+02  0.7818608E-02  0.1130116E+00
         25   -1    0    0    0    0  0.00000000000E+00  0.00000000000E+00  0.99999998245E-14  0.12500000000E+03  0.12500000000E+03 0.  0.
        -11    1    3    3    0    0  0.10493561805E+02  0.46092133652E+02 -0.20821443960E+02  0.51653965509E+02  0.51100000000E-03 0.  1.
         23    2    1    0    0    0  0.21409348307E+02  0.99976048858E+01  0.89851960233E+01  0.99720639922E+02  0.96463257153E+02 0.  0.
         11    1    3    3    0    0  0.10915786501E+02 -0.36094528766E+02  0.29806639984E+02  0.48066674413E+02  0.51100000000E-03 0. -1.
         22    1    1    0    0    0 -0.21409348307E+02 -0.99976048858E+01 -0.89851960233E+01  0.25279360078E+02  0.00000000000E+00 0.  1.
</event>
<event>
 5    1  0.6690694E-004  0.9118800E+02  0.7818608E-02  0.1130116E+00
         25   -1    0    0    0    0  0.00000000000E+00  0.00000000000E+00  0.99999998245E-14  0.12500000000E+03  0.12500000000E+03 0.  0.
        -11    1    3    3    0    0 -0.20717394450E+02  0.46665413982E+02 -0.29748806063E+02  0.59091985559E+02  0.51100000000E-03 0.  1.
         23    2    1    0    0    0 -0.13476130157E+02  0.28072786651E+02 -0.13095076390E+01  0.93832673445E+02  0.88505188329E+02 0.  0.
         11    1    3    3    0    0  0.72412642930E+01 -0.18592627331E+02  0.28439298424E+02  0.34740687885E+02  0.51100000000E-03 0. -1.
         22    1    1    0    0    0  0.13476130157E+02 -0.28072786651E+02  0.13095076390E+01  0.31167326555E+02  0.00000000000E+00 0.  1.
</event>
<event>
 5    1  0.6690694E-004  0.9118800E+02  0.7818608E-02  0.1130116E+00
         25   -1    0    0    0    0  0.00000000000E+00  0.00000000000E+00  0.99999998245E-14  0.12500000000E+03  0.12500000000E+03 0.  0.
        -11    1    3    3    0    0 -0.24920031140E+02 -0.35665476748E+02 -0.48899240040E+01  0.43782936639E+02  0.51100000000E-03 0. -1.
         23    2    1    0    0    0  0.49066299804E+01 -0.14268160864E+02  0.28079693391E+02  0.93123290428E+02  0.87497557720E+02 0.  0.
         11    1    3    3    0    0  0.29826661120E+02  0.21397315884E+02  0.32969617395E+02  0.49340353789E+02  0.51100000000E-03 0.  1.
         22    1    1    0    0    0 -0.49066299804E+01  0.14268160864E+02 -0.28079693391E+02  0.31876709572E+02  0.00000000000E+00 0. -1.
</event>
<event>
 5    1  0.6690694E-004  0.9118800E+02  0.7818608E-02  0.1130116E+00
         25   -1    0    0    0    0  0.00000000000E+00  0.00000000000E+00  0.99999998245E-14  0.12500000000E+03  0.12500000000E+03 0.  0.
        -11    1    3    3    0    0  0.98097248204E+01  0.93503011682E+00 -0.35078762915E+02  0.36436583132E+02  0.51100000000E-03 0. -1.
         23    2    1    0    0    0 -0.12166919281E+02 -0.26415032347E+02  0.10609942999E+02  0.94042630133E+02  0.88801224841E+02 0.  0.
         11    1    3    3    0    0 -0.21976644101E+02 -0.27350062463E+02  0.45688705915E+02  0.57606047001E+02  0.51100000000E-03 0.  1.
         22    1    1    0    0    0  0.12166919281E+02  0.26415032347E+02 -0.10609942999E+02  0.30957369867E+02  0.00000000000E+00 0.  1.
</event>
<event>
 5    1  0.6690694E-004  0.9118800E+02  0.7818608E-02  0.1130116E+00
         25   -1    0    0    0    0  0.00000000000E+00  0.00000000000E+00  0.99999998245E-14  0.12500000000E+03  0.12500000000E+03 0.  0.
        -11    1    3    3    0    0 -0.11995520658E+02  0.56905879466E+02 -0.48431778314E+01  0.58357758742E+02  0.51100000000E-03 0. -1.
         23    2    1    0    0    0 -0.19473333324E+01  0.25852580858E+02  0.13470833956E+02  0.95783370975E+02  0.91218653486E+02 0.  0.
         11    1    3    3    0    0  0.10048187326E+02 -0.31053298608E+02  0.18314011787E+02  0.37425612233E+02  0.51100000000E-03 0.  1.
         22    1    1    0    0    0  0.19473333324E+01 -0.25852580858E+02 -0.13470833956E+02  0.29216629025E+02  0.00000000000E+00 0. -1.
</event>
<event>
 5    1  0.6690694E-004  0.9118800E+02  0.7818608E-02  0.1130116E+00
         25   -1    0    0    0    0  0.00000000000E+00  0.00000000000E+00  0.99999998245E-14  0.12500000000E+03  0.12500000000E+03 0.  0.
        -11    1    3    3    0    0 -0.31339320981E+02  0.24021415243E+02 -0.19482759770E+02  0.44031345180E+02  0.51100000000E-03 0.  1.
         23    2    1    0    0    0  0.18629838722E+02  0.21574557010E+02 -0.56090998731E+01  0.95948418247E+02  0.91444543641E+02 0.  0.
         11    1    3    3    0    0  0.49969159703E+02 -0.24468582328E+01  0.13873659897E+02  0.51917073067E+02  0.51100000000E-03 0. -1.
         22    1    1    0    0    0 -0.18629838722E+02 -0.21574557010E+02  0.56090998731E+01  0.29051581753E+02  0.00000000000E+00 0. -1.
</event>
<event>
 5    1  0.6690694E-004  0.9118800E+02  0.7818608E-02  0.1130116E+00
         25   -1    0    0    0    0  0.00000000000E+00  0.00000000000E+00  0.99999998245E-14  0.12500000000E+03  0.12500000000E+03 0.  0.
        -11    1    3    3    0    0  0.24531211937E+02 -0.20140707974E+02 -0.20675277063E+02  0.37880015294E+02  0.51100000000E-03 0.  1.
         23    2    1    0    0    0  0.33522104079E+01  0.29342645225E+02 -0.20660278582E+00  0.95465768537E+02  0.90782388899E+02 0.  0.
         11    1    3    3    0    0 -0.21179001530E+02  0.49483353199E+02  0.20468674277E+02  0.57585753242E+02  0.51100000000E-03 0. -1.
         22    1    1    0    0    0 -0.33522104079E+01 -0.29342645225E+02  0.20660278582E+00  0.29534231463E+02  0.00000000000E+00 0. -1.
</event>
<event>
 5    1  0.6690694E-004  0.9118800E+02  0.7818608E-02  0.1130116E+00
         25   -1    0    0    0    0  0.00000000000E+00  0.00000000000E+00  0.99999998245E-14  0.12500000000E+03  0.12500000000E+03 0.  0.
        -11    1    3    3    0    0 -0.21850575484E+02 -0.16043660680E+01 -0.31051927069E+02  0.38003207949E+02  0.51100000000E-03 0.  1.
         23    2    1    0    0    0 -0.13930207920E+02 -0.99109590495E+01  0.24720133412E+02  0.94944005625E+02  0.90061098185E+02 0.  0.
         11    1    3    3    0    0  0.79203675638E+01 -0.83065929815E+01  0.55772060482E+02  0.56940797676E+02  0.51100000000E-03 0. -1.
         22    1    1    0    0    0  0.13930207920E+02  0.99109590495E+01 -0.24720133412E+02  0.30055994375E+02  0.00000000000E+00 0. -1.
</event>
<event>
 5    1  0.6690694E-004  0.9118800E+02  0.7818608E-02  0.1130116E+00
         25   -1    0    0    0    0  0.00000000000E+00  0.00000000000E+00  0.99999998245E-14  0.12500000000E+03  0.12500000000E+03 0.  0.
        -11    1    3    3    0    0  0.67631115365E+01 -0.62241564974E+01 -0.27101788882E+02  0.28617944766E+02  0.51100000000E-03 0.  1.
         23    2    1    0    0    0  0.46407554909E+01  0.36327113467E+02  0.12016123661E+02  0.86456738433E+02  0.77389822381E+02 0.  0.
         11    1    3    3    0    0 -0.21223560456E+01  0.42551269965E+02  0.39117912543E+02  0.57838793667E+02  0.51100000000E-03 0. -1.
         22    1    1    0    0    0 -0.46407554909E+01 -0.36327113467E+02 -0.12016123661E+02  0.38543261567E+02  0.00000000000E+00 0. -1.
</event>
<event>
 5    1  0.6690694E-004  0.9118800E+02  0.7818608E-02  0.1130116E+00
         25   -1    0    0    0    0  0.00000000000E+00  0.00000000000E+00  0.99999998245E-14  0.12500000000E+03  0.12500000000E+03 0.  0.
        -11    1    3    3    0    0  0.16734216405E+02  0.11204504853E+02 -0.53489296461E+02  0.57154875241E+02  0.51100000000E-03 0.  1.
         23    2    1    0    0    0 -0.10606936717E+02  0.59662985231E+01 -0.26071342129E+02  0.96228161251E+02  0.91826141772E+02 0.  0.
         11    1    3    3    0    0 -0.27341153121E+02 -0.52382063297E+01  0.27417954332E+02  0.39073286009E+02  0.51100000000E-03 0. -1.
         22    1    1    0    0    0  0.10606936717E+02 -0.59662985231E+01  0.26071342129E+02  0.28771838749E+02  0.00000000000E+00 0.  1.
</event>
<event>
 5    1  0.6690694E-004  0.9118800E+02  0.7818608E-02  0.1130116E+00
         25   -1    0    0    0    0  0.00000000000E+00  0.00000000000E+00  0.99999998245E-14  0.12500000000E+03  0.12500000000E+03 0.  0.
        -11    1    3    3    0    0 -0.34554408287E+02  0.99540375218E+00 -0.88883303126E+01  0.35693141872E+02  0.51100000000E-03 0. -1.
         23    2    1    0    0    0  0.23131637592E+02  0.16709705281E+02  0.17089182109E+01  0.96413161950E+02  0.92077632938E+02 0.  0.
         11    1    3    3    0    0  0.57686045879E+02  0.15714301529E+02  0.10597248524E+02  0.60720020078E+02  0.51100000000E-03 0.  1.
         22    1    1    0    0    0 -0.23131637592E+02 -0.16709705281E+02 -0.17089182109E+01  0.28586838050E+02  0.00000000000E+00 0.  1.
</event>
<event>
 5    1  0.6690694E-004  0.9118800E+02  0.7818608E-02  0.1130116E+00
         25   -1    0    0    0    0  0.00000000000E+00  0.00000000000E+00  0.99999998245E-14  0.12500000000E+03  0.12500000000E+03 0.  0.
        -11    1    3    3    0    0 -0.43366414630E+02  0.25579884679E+02 -0.16825884962E+02  0.53085655530E+02  0.51100000000E-03 0.  1.
         23    2    1    0    0    0 -0.17689853218E+02 -0.72648814798E+01 -0.22844228709E+02  0.95207917241E+02  0.90426651549E+02 0.  0.
         11    1    3    3    0    0  0.25676561412E+02 -0.32844766159E+02 -0.60183437470E+01  0.42122261711E+02  0.51100000000E-03 0. -1.
         22    1    1    0    0    0  0.17689853218E+02  0.72648814798E+01  0.22844228709E+02  0.29792082759E+02  0.00000000000E+00 0. -1.
</event>
<event>
 5    1  0.6690694E-004  0.9118800E+02  0.7818608E-02  0.1130116E+00
         25   -1    0    0    0    0  0.00000000000E+00  0.00000000000E+00  0.99999998245E-14  0.12500000000E+03  0.12500000000E+03 0.  0.
        -11    1    3    3    0    0 -0.41201194000E+02  0.42646502627E+01  0.26292730094E+02  0.49061525506E+02  0.51100000000E-03 0. -1.
         23    2    1    0    0    0 -0.24488354910E+02 -0.10572612216E+02 -0.13804467162E+02  0.94966302777E+02  0.90092040127E+02 0.  0.
         11    1    3    3    0    0  0.16712839091E+02 -0.14837262479E+02 -0.40097197255E+02  0.45904777272E+02  0.51100000000E-03 0.  1.
         22    1    1    0    0    0  0.24488354910E+02  0.10572612216E+02  0.13804467162E+02  0.30033697223E+02  0.00000000000E+00 0. -1.
</event>
<event>
 5    1  0.6690694E-004  0.9118800E+02  0.7818608E-02  0.1130116E+00
         25   -1    0    0    0    0  0.00000000000E+00  0.00000000000E+00  0.99999998245E-14  0.12500000000E+03  0.12500000000E+03 0.  0.
        -11    1    3    3    0    0 -0.26177857755E+02 -0.17299334412E-01  0.56201050443E+02  0.61998698431E+02  0.51100000000E-03 0.  1.
         23    2    1    0    0    0 -0.12373246932E+02  0.55098779259E+01  0.28777177114E+02  0.93194624400E+02  0.87599406961E+02 0.  0.
         11    1    3    3    0    0  0.13804610823E+02  0.55271772604E+01 -0.27423873329E+02  0.31195925969E+02  0.51100000000E-03 0. -1.
         22    1    1    0    0    0  0.12373246932E+02 -0.55098779259E+01 -0.28777177114E+02  0.31805375600E+02  0.00000000000E+00 0.  1.
</event>
<event>
 5    1  0.6690694E-004  0.9118800E+02  0.7818608E-02  0.1130116E+00
         25   -1    0    0    0    0  0.00000000000E+00  0.00000000000E+00  0.99999998245E-14  0.12500000000E+03  0.12500000000E+03 0.  0.
        -11    1    3    3    0    0  0.35663649182E+02 -0.18024764609E+02 -0.61629783810E+01  0.40432292972E+02  0.51100000000E-03 0. -1.
         23    2    1    0    0    0  0.11636274225E+02  0.29074579099E+02  0.15894447331E+00  0.93682923333E+02  0.88293435958E+02 0.  0.
         11    1    3    3    0    0 -0.24027374957E+02  0.47099343708E+02  0.63219228543E+01  0.53250630361E+02  0.51100000000E-03 0.  1.
         22    1    1    0    0    0 -0.11636274225E+02 -0.29074579099E+02 -0.15894447331E+00  0.31317076667E+02  0.00000000000E+00 0.  1.
</event>
<event>
 5    1  0.6690694E-004  0.9118800E+02  0.7818608E-02  0.1130116E+00
         25   -1    0    0    0    0  0.00000000000E+00  0.00000000000E+00  0.99999998245E-14  0.12500000000E+03  0.12500000000E+03 0.  0.
        -11    1    3    3    0    0  0.46472170319E+01 -0.15713578521E+02 -0.17607145984E+02  0.24052541779E+02  0.51100000000E-03 0. -1.
         23    2    1    0    0    0 -0.24730063331E+01  0.34830011246E+02  0.17440198564E+02  0.85969166424E+02  0.76598248061E+02 0.  0.
         11    1    3    3    0    0 -0.71202233650E+01  0.50543589767E+02  0.35047344548E+02  0.61916624645E+02  0.51100000000E-03 0.  1.
         22    1    1    0    0    0  0.24730063331E+01 -0.34830011246E+02 -0.17440198564E+02  0.39030833576E+02  0.00000000000E+00 0.  1.
</event>
<event>
 5    1  0.6690694E-004  0.9118800E+02  0.7818608E-02  0.1130116E+00
         25   -1    0    0    0    0  0.00000000000E+00  0.00000000000E+00  0.99999998245E-14  0.12500000000E+03  0.12500000000E+03 0.  0.
        -11    1    3    3    0    0 -0.21026554303E+02  0.50661703217E+02 -0.94297692055E+01  0.55656488447E+02  0.51100000000E-03 0.  1.
         23    2    1    0    0    0 -0.12719664418E+02  0.40227279025E+02  0.12211946686E+02  0.81077847474E+02  0.68150288837E+02 0.  0.
         11    1    3    3    0    0  0.83068898855E+01 -0.10434424192E+02  0.21641715891E+02  0.25421359027E+02  0.51100000000E-03 0. -1.
         22    1    1    0    0    0  0.12719664418E+02 -0.40227279025E+02 -0.12211946686E+02  0.43922152526E+02  0.00000000000E+00 0.  1.
</event>
<event>
 5    1  0.6690694E-004  0.9118800E+02  0.7818608E-02  0.1130116E+00
         25   -1    0    0    0    0  0.00000000000E+00  0.00000000000E+00  0.99999998245E-14  0.12500000000E+03  0.12500000000E+03 0.  0.
        -11    1    3    3    0    0 -0.25072441338E+02  0.26097491190E+02 -0.16990393197E+02  0.39979742650E+02  0.51100000000E-03 0. -1.
         23    2    1    0    0    0 -0.65092816782E+00 -0.55531822773E+01  0.25836325290E+02  0.98565604879E+02  0.94954732477E+02 0.  0.
         11    1    3    3    0    0  0.24421513171E+02 -0.31650673468E+02  0.42826718487E+02  0.58585862229E+02  0.51100000000E-03 0.  1.
         22    1    1    0    0    0  0.65092816782E+00  0.55531822773E+01 -0.25836325290E+02  0.26434395121E+02  0.00000000000E+00 0.  1.
</event>
<event>
 5    1  0.6690694E-004  0.9118800E+02  0.7818608E-02  0.1130116E+00
         25   -1    0    0    0    0  0.00000000000E+00  0.00000000000E+00  0.99999998245E-14  0.12500000000E+03  0.12500000000E+03 0.  0.
        -11    1    3    3    0    0 -0.28332087586E+02 -0.13865747742E+02  0.27359713715E+02  0.41755479667E+02  0.51100000000E-03 0. -1.
         23    2    1    0    0    0 -0.12978471050E+02  0.18062284329E+02 -0.15891660731E+02  0.97664460738E+02  0.93760947011E+02 0.  0.
         11    1    3    3    0    0  0.15353616536E+02  0.31928032071E+02 -0.43251374446E+02  0.55908981071E+02  0.51100000000E-03 0.  1.
         22    1    1    0    0    0  0.12978471050E+02 -0.18062284329E+02  0.15891660731E+02  0.27335539262E+02  0.00000000000E+00 0.  1.
</event>
<event>
 5    1  0.6690694E-004  0.9118800E+02  0.7818608E-02  0.1130116E+00
         25   -1    0    0    0    0  0.00000000000E+00  0.00000000000E+00  0.99999998245E-14  0.12500000000E+03  0.12500000000E+03 0.  0.
        -11    1    3    3    0    0  0.11085623060E+02  0.24665177520E+02 -0.29752831254E+02  0.40205633792E+02  0.51100000000E-03 0. -1.
         23    2    1    0    0    0  0.45487492764E+01  0.94721466229E+01  0.25255017781E+02  0.97646232348E+02  0.93736642179E+02 0.  0.
         11    1    3    3    0    0 -0.65368737841E+01 -0.15193030897E+02  0.55007849035E+02  0.57440598556E+02  0.51100000000E-03 0.  1.
         22    1    1    0    0    0 -0.45487492764E+01 -0.94721466229E+01 -0.25255017781E+02  0.27353767652E+02  0.00000000000E+00 0.  1.
</event>
<event>
 5    1  0.6690694E-004  0.9118800E+02  0.7818608E-02  0.1130116E+00
         25   -1    0    0    0    0  0.00000000000E+00  0.00000000000E+00  0.99999998245E-14  0.12500000000E+03  0.12500000000E+03 0.  0.
        -11    1    3    3    0    0  0.37272727256E+02 -0.45043556462E+02 -0.71076456068E+01  0.58895643321E+02  0.51100000000E-03 0.  1.
         23    2    1    0    0    0  0.22174713003E+02 -0.13736602587E+02 -0.15507677377E+02  0.94653662412E+02  0.89657211662E+02 0.  0.
         11    1    3    3    0    0 -0.15098014253E+02  0.31306953875E+02 -0.84000317699E+01  0.35758019091E+02  0.51100000000E-03 0. -1.
         22    1    1    0    0    0 -0.22174713003E+02  0.13736602587E+02  0.15507677377E+02  0.30346337588E+02  0.00000000000E+00 0.  1.
</event>
<event>
 5    1  0.6690694E-004  0.9118800E+02  0.7818608E-02  0.1130116E+00
         25   -1    0    0    0    0  0.00000000000E+00  0.00000000000E+00  0.99999998245E-14  0.12500000000E+03  0.12500000000E+03 0.  0.
        -11    1    3    3    0    0 -0.81555451606E+01  0.15770682611E+02 -0.51280718272E+02  0.54267295986E+02  0.51100000000E-03 0. -1.
         23    2    1    0    0    0 -0.76816440104E+00 -0.15718149430E+02 -0.22372932036E+02  0.97646784724E+02  0.93737378782E+02 0.  0.
         11    1    3    3    0    0  0.73873807596E+01 -0.31488832041E+02  0.28907786236E+02  0.43379488738E+02  0.51100000000E-03 0.  1.
         22    1    1    0    0    0  0.76816440104E+00  0.15718149430E+02  0.22372932036E+02  0.27353215276E+02  0.00000000000E+00 0. -1.
</event>
<event>
 5    1  0.6690694E-004  0.9118800E+02  0.7818608E-02  0.1130116E+00
         25   -1    0    0    0    0  0.00000000000E+00  0.00000000000E+00  0.99999998245E-14  0.12500000000E+03  0.12500000000E+03 0.  0.
        -11    1    3    3    0    0  0.21117393609E+02  0.26950182955E+02 -0.12106617916E+02  0.36315656015E+02  0.51100000000E-03 0. -1.
         23    2    1    0    0    0 -0.88077402234E-01 -0.27484586973E+02 -0.12664924944E+02  0.94737637195E+02  0.89774212882E+02 0.  0.
         11    1    3    3    0    0 -0.21205471011E+02 -0.54434769928E+02 -0.55830702807E+00  0.58421981180E+02  0.51100000000E-03 0.  1.
         22    1    1    0    0    0  0.88077402234E-01  0.27484586973E+02  0.12664924944E+02  0.30262362805E+02  0.00000000000E+00 0.  1.
</event>
<event>
 5    1  0.6690694E-004  0.9118800E+02  0.7818608E-02  0.1130116E+00
         25   -1    0    0    0    0  0.00000000000E+00  0.00000000000E+00  0.99999998245E-14  0.12500000000E+03  0.12500000000E+03 0.  0.
        -11    1    3    3    0    0 -0.16061786286E+02  0.30841663106E+02  0.17217726716E+02  0.38802567897E+02  0.51100000000E-03 0.  1.
         23    2    1    0    0    0  0.29085182246E+02 -0.84769508557E+00  0.88083577147E+01  0.94598460913E+02  0.89580216724E+02 0.  0.
         11    1    3    3    0    0  0.45146968532E+02 -0.31689358191E+02 -0.84093690017E+01  0.55795893016E+02  0.51100000000E-03 0. -1.
         22    1    1    0    0    0 -0.29085182246E+02  0.84769508557E+00 -0.88083577147E+01  0.30401539087E+02  0.00000000000E+00 0. -1.
</event>
<event>
 5    1  0.6690694E-004  0.9118800E+02  0.7818608E-02  0.1130116E+00
         25   -1    0    0    0    0  0.00000000000E+00  0.00000000000E+00  0.99999998245E-14  0.12500000000E+03  0.12500000000E+03 0.  0.
        -11    1    3    3    0    0 -0.16054325517E+02  0.27748588062E+02  0.21568214076E+02  0.38638237097E+02  0.51100000000E-03 0. -1.
         23    2    1    0    0    0 -0.11460665438E+02 -0.25634440379E+02 -0.12899288705E+01  0.96890654538E+02  0.92723587260E+02 0.  0.
         11    1    3    3    0    0  0.45936600790E+01 -0.53383028441E+02 -0.22858142946E+02  0.58252417441E+02  0.51100000000E-03 0.  1.
         22    1    1    0    0    0  0.11460665438E+02  0.25634440379E+02  0.12899288705E+01  0.28109345462E+02  0.00000000000E+00 0.  1.
</event>
<event>
 5    1  0.6690694E-004  0.9118800E+02  0.7818608E-02  0.1130116E+00
         25   -1    0    0    0    0  0.00000000000E+00  0.00000000000E+00  0.99999998245E-14  0.12500000000E+03  0.12500000000E+03 0.  0.
        -11    1    3    3    0    0 -0.80366785245E+01  0.56314930095E+02 -0.18419559507E+02  0.59793308371E+02  0.51100000000E-03 0.  1.
         23    2    1    0    0    0 -0.64345557338E+01  0.27763992679E+02  0.41195371188E+01  0.96203934591E+02  0.91793156867E+02 0.  0.
         11    1    3    3    0    0  0.16021227907E+01 -0.28550937415E+02  0.22539096626E+02  0.36410626220E+02  0.51100000000E-03 0. -1.
         22    1    1    0    0    0  0.64345557338E+01 -0.27763992679E+02 -0.41195371188E+01  0.28796065409E+02  0.00000000000E+00 0.  1.
</event>
<event>
 5    1  0.6690694E-004  0.9118800E+02  0.7818608E-02  0.1130116E+00
         25   -1    0    0    0    0  0.00000000000E+00  0.00000000000E+00  0.99999998245E-14  0.12500000000E+03  0.12500000000E+03 0.  0.
        -11    1    3    3    0    0 -0.22150510555E+02 -0.40247218063E+02 -0.40459123039E+02  0.61216209593E+02  0.51100000000E-03 0.  1.
         23    2    1    0    0    0 -0.17058841226E+02 -0.20196098145E+02 -0.13157997440E+02  0.95470026399E+02  0.90788251441E+02 0.  0.
         11    1    3    3    0    0  0.50916693282E+01  0.20051119918E+02  0.27301125598E+02  0.34253816805E+02  0.51100000000E-03 0. -1.
         22    1    1    0    0    0  0.17058841226E+02  0.20196098145E+02  0.13157997440E+02  0.29529973601E+02  0.00000000000E+00 0.  1.
</event>
<event>
 5    1  0.6690694E-004  0.9118800E+02  0.7818608E-02  0.1130116E+00
         25   -1    0    0    0    0  0.00000000000E+00  0.00000000000E+00  0.99999998245E-14  0.12500000000E+03  0.12500000000E+03 0.  0.
        -11    1    3    3    0    0  0.16980423437E+02  0.39725710472E+02  0.19756885179E+02  0.47505803486E+02  0.51100000000E-03 0. -1.
         23    2    1    0    0    0  0.20405047075E+02  0.94433404000E+01 -0.18121683791E+02  0.96122014484E+02  0.91681533697E+02 0.  0.
         11    1    3    3    0    0  0.34246236383E+01 -0.30282370072E+02 -0.37878568970E+02  0.48616210997E+02  0.51100000000E-03 0.  1.
         22    1    1    0    0    0 -0.20405047075E+02 -0.94433404000E+01  0.18121683791E+02  0.28877985516E+02  0.00000000000E+00 0.  1.
</event>
<event>
 5    1  0.6690694E-004  0.9118800E+02  0.7818608E-02  0.1130116E+00
         25   -1    0    0    0    0  0.00000000000E+00  0.00000000000E+00  0.99999998245E-14  0.12500000000E+03  0.12500000000E+03 0.  0.
        -11    1    3    3    0    0  0.34305134588E+02 -0.29027914808E+02 -0.11352064113E+02  0.46350096624E+02  0.51100000000E-03 0.  1.
         23    2    1    0    0    0  0.20615163299E+02  0.18907998104E+02 -0.39174581226E+01  0.96753870561E+02  0.92539006047E+02 0.  0.
         11    1    3    3    0    0 -0.13689971289E+02  0.47935912911E+02  0.74346059905E+01  0.50403773937E+02  0.51100000000E-03 0. -1.
         22    1    1    0    0    0 -0.20615163299E+02 -0.18907998104E+02  0.39174581226E+01  0.28246129439E+02  0.00000000000E+00 0. -1.
</event>
<event>
 5    1  0.6690694E-004  0.9118800E+02  0.7818608E-02  0.1130116E+00
         25   -1    0    0    0    0  0.00000000000E+00  0.00000000000E+00  0.99999998245E-14  0.12500000000E+03  0.12500000000E+03 0.  0.
        -11    1    3    3    0    0  0.29264153451E+02  0.19025560058E+02  0.16109588347E+02  0.38443223716E+02  0.51100000000E-03 0. -1.
         23    2    1    0    0    0  0.52646071697E+01 -0.19293207537E+02 -0.20306847521E+02  0.96498912268E+02  0.92193969797E+02 0.  0.
         11    1    3    3    0    0 -0.23999546281E+02 -0.38318767594E+02 -0.36416435867E+02  0.58055688552E+02  0.51100000000E-03 0.  1.
         22    1    1    0    0    0 -0.52646071697E+01  0.19293207537E+02  0.20306847521E+02  0.28501087732E+02  0.00000000000E+00 0. -1.
</event>
<event>
 5    1  0.6690694E-004  0.9118800E+02  0.7818608E-02  0.1130116E+00
         25   -1    0    0    0    0  0.00000000000E+00  0.00000000000E+00  0.99999998245E-14  0.12500000000E+03  0.12500000000E+03 0.  0.
        -11    1    3    3    0    0 -0.46871206276E+02 -0.30010196156E+01  0.20133811244E+02  0.51100748057E+02  0.51100000000E-03 0. -1.
         23    2    1    0    0    0 -0.16626176630E+01 -0.10552719631E+01  0.27915250167E+02  0.97015377646E+02  0.92891573414E+02 0.  0.
         11    1    3    3    0    0  0.45208588613E+02  0.19457476525E+01  0.77814389234E+01  0.45914629589E+02  0.51100000000E-03 0.  1.
         22    1    1    0    0    0  0.16626176630E+01  0.10552719631E+01 -0.27915250167E+02  0.27984622354E+02  0.00000000000E+00 0.  1.
</event>
<event>
 5    1  0.6690694E-004  0.9118800E+02  0.7818608E-02  0.1130116E+00
         25   -1    0    0    0    0  0.00000000000E+00  0.00000000000E+00  0.99999998245E-14  0.12500000000E+03  0.12500000000E+03 0.  0.
        -11    1    3    3    0    0  0.34674098578E+02  0.72530132429E-01 -0.51106891762E+02  0.61759313133E+02  0.51100000000E-03 0. -1.
         23    2    1    0    0    0  0.21572296843E+02 -0.10856587266E+00 -0.19716370669E+02  0.95774821643E+02  0.91206937295E+02 0.  0.
         11    1    3    3    0    0 -0.13101801734E+02 -0.18109600509E+00  0.31390521093E+02  0.34015508510E+02  0.51100000000E-03 0.  1.
         22    1    1    0    0    0 -0.21572296843E+02  0.10856587266E+00  0.19716370669E+02  0.29225178357E+02  0.00000000000E+00 0. -1.
</event>
<event>
 5    1  0.6690694E-004  0.9118800E+02  0.7818608E-02  0.1130116E+00
         25   -1    0    0    0    0  0.00000000000E+00  0.00000000000E+00  0.99999998245E-14  0.12500000000E+03  0.12500000000E+03 0.  0.
        -11    1    3    3    0    0 -0.50665890105E+02  0.18749481849E+02  0.90589542094E+01  0.54778099103E+02  0.51100000000E-03 0.  1.
         23    2    1    0    0    0 -0.24800704626E+02 -0.13398085254E+02  0.61984707927E+01  0.96138179569E+02  0.91703570771E+02 0.  0.
         11    1    3    3    0    0  0.25865185479E+02 -0.32147567103E+02 -0.28604834166E+01  0.41360080466E+02  0.51100000000E-03 0. -1.
         22    1    1    0    0    0  0.24800704626E+02  0.13398085254E+02 -0.61984707927E+01  0.28861820431E+02  0.00000000000E+00 0.  1.
</event>
<event>
 5    1  0.6690694E-004  0.9118800E+02  0.7818608E-02  0.1130116E+00
         25   -1    0    0    0    0  0.00000000000E+00  0.00000000000E+00  0.99999998245E-14  0.12500000000E+03  0.12500000000E+03 0.  0.
        -11    1    3    3    0    0 -0.44849882682E+02 -0.87306688811E+01  0.32333909546E+01  0.45806018961E+02  0.51100000000E-03 0.  1.
         23    2    1    0    0    0 -0.56584687758E+01  0.85961709555E+01  0.27909214788E+02  0.95253795299E+02  0.90490048209E+02 0.  0.
         11    1    3    3    0    0  0.39191413906E+02  0.17326839837E+02  0.24675823834E+02  0.49447776339E+02  0.51100000000E-03 0. -1.
         22    1    1    0    0    0  0.56584687758E+01 -0.85961709555E+01 -0.27909214788E+02  0.29746204701E+02  0.00000000000E+00 0.  1.
</event>
<event>
 5    1  0.6690694E-004  0.9118800E+02  0.7818608E-02  0.1130116E+00
         25   -1    0    0    0    0  0.00000000000E+00  0.00000000000E+00  0.99999998245E-14  0.12500000000E+03  0.12500000000E+03 0.  0.
        -11    1    3    3    0    0  0.98317590254E+01  0.31164741923E+02  0.30646453152E+02  0.44800778071E+02  0.51100000000E-03 0. -1.
         23    2    1    0    0    0 -0.75116900311E+01 -0.15974145546E+02  0.23611872803E+02  0.95519169783E+02  0.90855888338E+02 0.  0.
         11    1    3    3    0    0 -0.17343449057E+02 -0.47138887468E+02 -0.70345803494E+01  0.50718391712E+02  0.51100000000E-03 0.  1.
         22    1    1    0    0    0  0.75116900311E+01  0.15974145546E+02 -0.23611872803E+02  0.29480830217E+02  0.00000000000E+00 0.  1.
</event>
<event>
 5    1  0.6690694E-004  0.9118800E+02  0.7818608E-02  0.1130116E+00
         25   -1    0    0    0    0  0.00000000000E+00  0.00000000000E+00  0.99999998245E-14  0.12500000000E+03  0.12500000000E+03 0.  0.
        -11    1    3    3    0    0 -0.10440315764E+02  0.74469355142E+01  0.57670065993E+02  0.59078706432E+02  0.51100000000E-03 0.  1.
         23    2    1    0    0    0 -0.40117468836E+01  0.17580508124E+02  0.22956665493E+02  0.95807931394E+02  0.91252303250E+02 0.  0.
         11    1    3    3    0    0  0.64285688803E+01  0.10133572610E+02 -0.34713400500E+02  0.36729224961E+02  0.51100000000E-03 0. -1.
         22    1    1    0    0    0  0.40117468836E+01 -0.17580508124E+02 -0.22956665493E+02  0.29192068606E+02  0.00000000000E+00 0.  1.
</event>
<event>
 5    1  0.6690694E-004  0.9118800E+02  0.7818608E-02  0.1130116E+00
         25   -1    0    0    0    0  0.00000000000E+00  0.00000000000E+00  0.99999998245E-14  0.12500000000E+03  0.12500000000E+03 0.  0.
        -11    1    3    3    0    0  0.30449180157E+02 -0.11503254251E+02 -0.37270235440E+02  0.49482803888E+02  0.51100000000E-03 0.  1.
         23    2    1    0    0    0  0.11434169597E+02  0.23327189613E+02 -0.13891325385E+02  0.95540418697E+02  0.90885118002E+02 0.  0.
         11    1    3    3    0    0 -0.19015010559E+02  0.34830443863E+02  0.23378910055E+02  0.46057614809E+02  0.51100000000E-03 0. -1.
         22    1    1    0    0    0 -0.11434169597E+02 -0.23327189613E+02  0.13891325385E+02  0.29459581303E+02  0.00000000000E+00 0.  1.
</event>
<event>
 5    1  0.6690694E-004  0.9118800E+02  0.7818608E-02  0.1130116E+00
         25   -1    0    0    0    0  0.00000000000E+00  0.00000000000E+00  0.99999998245E-14  0.12500000000E+03  0.12500000000E+03 0.  0.
        -11    1    3    3    0    0  0.24771722264E+02 -0.14168915040E+02  0.49925591296E+02  0.57506182658E+02  0.51100000000E-03 0. -1.
         23    2    1    0    0    0 -0.19708153563E+01 -0.18195317212E+02  0.22041521183E+02  0.96350700922E+02  0.91992799884E+02 0.  0.
         11    1    3    3    0    0 -0.26742537620E+02 -0.40264021718E+01 -0.27884070113E+02  0.38844518264E+02  0.51100000000E-03 0.  1.
         22    1    1    0    0    0  0.19708153563E+01  0.18195317212E+02 -0.22041521183E+02  0.28649299078E+02  0.00000000000E+00 0. -1.
</event>
<event>
 5    1  0.6690694E-004  0.9118800E+02  0.7818608E-02  0.1130116E+00
         25   -1    0    0    0    0  0.00000000000E+00  0.00000000000E+00  0.99999998245E-14  0.12500000000E+03  0.12500000000E+03 0.  0.
        -11    1    3    3    0    0 -0.20773707115E+02 -0.26603332549E+02 -0.85297095362E+00  0.33764060327E+02  0.51100000000E-03 0.  1.
         23    2    1    0    0    0 -0.11444820639E+00  0.30478954964E+02 -0.16666030363E+01  0.94475299186E+02  0.89408191999E+02 0.  0.
         11    1    3    3    0    0  0.20659258909E+02  0.57082287513E+02 -0.81363208264E+00  0.60711238859E+02  0.51100000000E-03 0. -1.
         22    1    1    0    0    0  0.11444820639E+00 -0.30478954964E+02  0.16666030363E+01  0.30524700814E+02  0.00000000000E+00 0. -1.
</event>
<event>
 5    1  0.6690694E-004  0.9118800E+02  0.7818608E-02  0.1130116E+00
         25   -1    0    0    0    0  0.00000000000E+00  0.00000000000E+00  0.99999998245E-14  0.12500000000E+03  0.12500000000E+03 0.  0.
        -11    1    3    3    0    0 -0.48857873529E+01 -0.42370172836E+02  0.77440382176E+01  0.43348270928E+02  0.51100000000E-03 0. -1.
         23    2    1    0    0    0  0.47552235451E+01 -0.63635252554E+01 -0.28544777439E+02  0.95370438348E+02  0.90651031914E+02 0.  0.
         11    1    3    3    0    0  0.96410108980E+01  0.36006647581E+02 -0.36288815656E+02  0.52022167421E+02  0.51100000000E-03 0.  1.
         22    1    1    0    0    0 -0.47552235451E+01  0.63635252554E+01  0.28544777439E+02  0.29629561652E+02  0.00000000000E+00 0.  1.
</event>
<event>
 5    1  0.6690694E-004  0.9118800E+02  0.7818608E-02  0.1130116E+00
         25   -1    0    0    0    0  0.00000000000E+00  0.00000000000E+00  0.99999998245E-14  0.12500000000E+03  0.12500000000E+03 0.  0.
        -11    1    3    3    0    0  0.12507340998E+02 -0.35130278739E+02  0.14340348441E+02  0.39952667706E+02  0.51100000000E-03 0.  1.
         23    2    1    0    0    0 -0.63055592976E+01 -0.72755818415E+01 -0.28795140323E+02  0.94637946785E+02  0.89635298272E+02 0.  0.
         11    1    3    3    0    0 -0.18812900296E+02  0.27854696898E+02 -0.43135488764E+02  0.54685279079E+02  0.51100000000E-03 0. -1.
         22    1    1    0    0    0  0.63055592976E+01  0.72755818415E+01  0.28795140323E+02  0.30362053215E+02  0.00000000000E+00 0.  1.
</event>
<event>
 5    1  0.6690694E-004  0.9118800E+02  0.7818608E-02  0.1130116E+00
         25   -1    0    0    0    0  0.00000000000E+00  0.00000000000E+00  0.99999998245E-14  0.12500000000E+03  0.12500000000E+03 0.  0.
        -11    1    3    3    0    0 -0.81049527280E+01 -0.29875886720E+02  0.33012087277E+02  0.45255461247E+02  0.51100000000E-03 0. -1.
         23    2    1    0    0    0  0.26227252886E+02  0.11327694797E+01  0.10205063255E+02  0.96834502016E+02  0.92647857525E+02 0.  0.
         11    1    3    3    0    0  0.34332205614E+02  0.31008656200E+02 -0.22807024021E+02  0.51579040769E+02  0.51100000000E-03 0.  1.
         22    1    1    0    0    0 -0.26227252886E+02 -0.11327694797E+01 -0.10205063255E+02  0.28165497984E+02  0.00000000000E+00 0.  1.
</event>
<event>
 5    1  0.6690694E-004  0.9118800E+02  0.7818608E-02  0.1130116E+00
         25   -1    0    0    0    0  0.00000000000E+00  0.00000000000E+00  0.99999998245E-14  0.12500000000E+03  0.12500000000E+03 0.  0.
        -11    1    3    3    0    0  0.32012331257E+02 -0.16970677551E+02  0.62268151473E+01  0.36763657002E+02  0.51100000000E-03 0. -1.
         23    2    1    0    0    0 -0.21769169385E+02  0.12786198913E+02  0.87500167913E+01  0.98280224323E+02  0.94578306608E+02 0.  0.
         11    1    3    3    0    0 -0.53781500642E+02  0.29756876464E+02  0.25232016441E+01  0.61516567321E+02  0.51100000000E-03 0.  1.
         22    1    1    0    0    0  0.21769169385E+02 -0.12786198913E+02 -0.87500167913E+01  0.26719775677E+02  0.00000000000E+00 0.  1.
</event>
<event>
 5    1  0.6690694E-004  0.9118800E+02  0.7818608E-02  0.1130116E+00
         25   -1    0    0    0    0  0.00000000000E+00  0.00000000000E+00  0.99999998245E-14  0.12500000000E+03  0.12500000000E+03 0.  0.
        -11    1    3    3    0    0  0.65126715536E+01 -0.44212684745E+02 -0.41129326856E+02  0.60735474897E+02  0.51100000000E-03 0.  1.
         23    2    1    0    0    0 -0.64595951214E+01 -0.17422149548E+02 -0.22369512847E+02  0.95919890492E+02  0.91405539345E+02 0.  0.
         11    1    3    3    0    0 -0.12972266675E+02  0.26790535197E+02  0.18759814009E+02  0.35184415595E+02  0.51100000000E-03 0. -1.
         22    1    1    0    0    0  0.64595951214E+01  0.17422149548E+02  0.22369512847E+02  0.29080109508E+02  0.00000000000E+00 0.  1.
</event>
<event>
 5    1  0.6690694E-004  0.9118800E+02  0.7818608E-02  0.1130116E+00
         25   -1    0    0    0    0  0.00000000000E+00  0.00000000000E+00  0.99999998245E-14  0.12500000000E+03  0.12500000000E+03 0.  0.
        -11    1    3    3    0    0 -0.77104787273E+00 -0.48582128855E+02 -0.34225762607E+02  0.59432487624E+02  0.51100000000E-03 0. -1.
         23    2    1    0    0    0 -0.46569678469E+00 -0.13394898518E+02 -0.26268853926E+02  0.95509444454E+02  0.90842507195E+02 0.  0.
         11    1    3    3    0    0  0.30535108804E+00  0.35187230337E+02  0.79569086804E+01  0.36076956830E+02  0.51100000000E-03 0.  1.
         22    1    1    0    0    0  0.46569678469E+00  0.13394898518E+02  0.26268853926E+02  0.29490555546E+02  0.00000000000E+00 0. -1.
</event>
<event>
 5    1  0.6690694E-004  0.9118800E+02  0.7818608E-02  0.1130116E+00
         25   -1    0    0    0    0  0.00000000000E+00  0.00000000000E+00  0.99999998245E-14  0.12500000000E+03  0.12500000000E+03 0.  0.
        -11    1    3    3    0    0 -0.23267712217E+02 -0.94409230960E+01 -0.47182665191E+02  0.53448305450E+02  0.51100000000E-03 0.  1.
         23    2    1    0    0    0 -0.29553137795E+02 -0.24593573528E+01 -0.72496185344E+01  0.94471433689E+02  0.89402787553E+02 0.  0.
         11    1    3    3    0    0 -0.62854255785E+01  0.69815657432E+01  0.39933046657E+02  0.41023128238E+02  0.51100000000E-03 0. -1.
         22    1    1    0    0    0  0.29553137795E+02  0.24593573528E+01  0.72496185344E+01  0.30528566311E+02  0.00000000000E+00 0.  1.
</event>
<event>
 5    1  0.6690694E-004  0.9118800E+02  0.7818608E-02  0.1130116E+00
         25   -1    0    0    0    0  0.00000000000E+00  0.00000000000E+00  0.99999998245E-14  0.12500000000E+03  0.12500000000E+03 0.  0.
        -11    1    3    3    0    0  0.19367860202E+02 -0.14284099628E+01  0.30298842959E+02  0.35988529405E+02  0.51100000000E-03 0.  1.
         23    2    1    0    0    0 -0.29120370450E+02 -0.79484697225E+01 -0.22172319087E+01  0.94733016943E+02  0.89767779496E+02 0.  0.
         11    1    3    3    0    0 -0.48488230652E+02 -0.65200597597E+01 -0.32516074868E+02  0.58744487538E+02  0.51100000000E-03 0. -1.
         22    1    1    0    0    0  0.29120370450E+02  0.79484697225E+01  0.22172319087E+01  0.30266983057E+02  0.00000000000E+00 0. -1.
</event>
<event>
 5    1  0.6690694E-004  0.9118800E+02  0.7818608E-02  0.1130116E+00
         25   -1    0    0    0    0  0.00000000000E+00  0.00000000000E+00  0.99999998245E-14  0.12500000000E+03  0.12500000000E+03 0.  0.
        -11    1    3    3    0    0 -0.56004454683E+02 -0.12210130096E+02  0.94575653410E+00  0.57327835098E+02  0.51100000000E-03 0. -1.
         23    2    1    0    0    0 -0.22221904441E+02 -0.54768145221E+01  0.18110374326E+02  0.95814486598E+02  0.91261282314E+02 0.  0.
         11    1    3    3    0    0  0.33782550242E+02  0.67333155740E+01  0.17164617792E+02  0.38486651500E+02  0.51100000000E-03 0.  1.
         22    1    1    0    0    0  0.22221904441E+02  0.54768145221E+01 -0.18110374326E+02  0.29185513402E+02  0.00000000000E+00 0. -1.
</event>
<event>
 5    1  0.6690694E-004  0.9118800E+02  0.7818608E-02  0.1130116E+00
         25   -1    0    0    0    0  0.00000000000E+00  0.00000000000E+00  0.99999998245E-14  0.12500000000E+03  0.12500000000E+03 0.  0.
        -11    1    3    3    0    0  0.36471186219E+02 -0.18335169252E+01 -0.46599461639E+01  0.36813371308E+02  0.51100000000E-03 0. -1.
         23    2    1    0    0    0 -0.18548130038E+02 -0.22616549067E+02 -0.15256706215E+01  0.95710597643E+02  0.91118875161E+02 0.  0.
         11    1    3    3    0    0 -0.55019316257E+02 -0.20783032142E+02  0.31342755424E+01  0.58897226334E+02  0.51100000000E-03 0.  1.
         22    1    1    0    0    0  0.18548130038E+02  0.22616549067E+02  0.15256706215E+01  0.29289402357E+02  0.00000000000E+00 0.  1.
</event>
<event>
 5    1  0.6690694E-004  0.9118800E+02  0.7818608E-02  0.1130116E+00
         25   -1    0    0    0    0  0.00000000000E+00  0.00000000000E+00  0.99999998245E-14  0.12500000000E+03  0.12500000000E+03 0.  0.
        -11    1    3    3    0    0 -0.16704303942E+02  0.44146338189E+02 -0.18315171847E+02  0.50629817951E+02  0.51100000000E-03 0.  1.
         23    2    1    0    0    0  0.19938317409E+02  0.19667010868E+02 -0.66265766493E+01  0.96220852416E+02  0.91816191949E+02 0.  0.
         11    1    3    3    0    0  0.36642621351E+02 -0.24479327321E+02  0.11688595198E+02  0.45591034465E+02  0.51100000000E-03 0. -1.
         22    1    1    0    0    0 -0.19938317409E+02 -0.19667010868E+02  0.66265766493E+01  0.28779147584E+02  0.00000000000E+00 0.  1.
</event>
<event>
 5    1  0.6690694E-004  0.9118800E+02  0.7818608E-02  0.1130116E+00
         25   -1    0    0    0    0  0.00000000000E+00  0.00000000000E+00  0.99999998245E-14  0.12500000000E+03  0.12500000000E+03 0.  0.
        -11    1    3    3    0    0  0.13012694086E+02  0.37311610669E+02  0.45510853324E+02  0.60272085319E+02  0.51100000000E-03 0.  1.
         23    2    1    0    0    0  0.14310602408E+02  0.21418718269E+02  0.13775321662E+02  0.95788455699E+02  0.91225620989E+02 0.  0.
         11    1    3    3    0    0  0.12979083215E+01 -0.15892892400E+02 -0.31735531662E+02  0.35516370381E+02  0.51100000000E-03 0. -1.
         22    1    1    0    0    0 -0.14310602408E+02 -0.21418718269E+02 -0.13775321662E+02  0.29211544301E+02  0.00000000000E+00 0.  1.
</event>
<event>
 5    1  0.6690694E-004  0.9118800E+02  0.7818608E-02  0.1130116E+00
         25   -1    0    0    0    0  0.00000000000E+00  0.00000000000E+00  0.99999998245E-14  0.12500000000E+03  0.12500000000E+03 0.  0.
        -11    1    3    3    0    0  0.96017241793E+01 -0.26672363065E+02  0.26167139785E+02  0.38578844766E+02  0.51100000000E-03 0.  1.
         23    2    1    0    0    0 -0.21510398990E+02  0.17907830029E+02  0.81915831107E+01  0.95836843879E+02  0.91291899804E+02 0.  0.
         11    1    3    3    0    0 -0.31112123169E+02  0.44580193094E+02 -0.17975556675E+02  0.57257999113E+02  0.51100000000E-03 0. -1.
         22    1    1    0    0    0  0.21510398990E+02 -0.17907830029E+02 -0.81915831107E+01  0.29163156121E+02  0.00000000000E+00 0. -1.
</event>
<event>
 5    1  0.6690694E-004  0.9118800E+02  0.7818608E-02  0.1130116E+00
         25   -1    0    0    0    0  0.00000000000E+00  0.00000000000E+00  0.99999998245E-14  0.12500000000E+03  0.12500000000E+03 0.  0.
        -11    1    3    3    0    0  0.53018077133E+02 -0.28938856236E+02 -0.96000211298E+01  0.61159907694E+02  0.51100000000E-03 0.  1.
         23    2    1    0    0    0  0.20516348190E+02 -0.17773172712E+02 -0.11367862767E+02  0.95571535630E+02  0.90927904998E+02 0.  0.
         11    1    3    3    0    0 -0.32501728943E+02  0.11165683524E+02 -0.17678416375E+01  0.34411627936E+02  0.51100000000E-03 0. -1.
         22    1    1    0    0    0 -0.20516348190E+02  0.17773172712E+02  0.11367862767E+02  0.29428464370E+02  0.00000000000E+00 0.  1.
</event>
<event>
 5    1  0.6690694E-004  0.9118800E+02  0.7818608E-02  0.1130116E+00
         25   -1    0    0    0    0  0.00000000000E+00  0.00000000000E+00  0.99999998245E-14  0.12500000000E+03  0.12500000000E+03 0.  0.
        -11    1    3    3    0    0 -0.35624766037E+02 -0.30882623024E+02 -0.10045769938E+02  0.48205579075E+02  0.51100000000E-03 0. -1.
         23    2    1    0    0    0  0.63751001298E+01 -0.14263098364E+02 -0.24771029429E+02  0.95713795473E+02  0.91123261949E+02 0.  0.
         11    1    3    3    0    0  0.41999866167E+02  0.16619524660E+02 -0.14725259492E+02  0.47508216398E+02  0.51100000000E-03 0.  1.
         22    1    1    0    0    0 -0.63751001298E+01  0.14263098364E+02  0.24771029429E+02  0.29286204527E+02  0.00000000000E+00 0.  1.
</event>
<event>
 5    1  0.6690694E-004  0.9118800E+02  0.7818608E-02  0.1130116E+00
         25   -1    0    0    0    0  0.00000000000E+00  0.00000000000E+00  0.99999998245E-14  0.12500000000E+03  0.12500000000E+03 0.  0.
        -11    1    3    3    0    0  0.96826160362E+01  0.28720644908E+02 -0.25066528583E+02  0.39331404153E+02  0.51100000000E-03 0. -1.
         23    2    1    0    0    0  0.17935341872E+02 -0.21668198260E+02  0.13878569527E+01  0.96837730013E+02  0.92652212619E+02 0.  0.
         11    1    3    3    0    0  0.82527258356E+01 -0.50388843168E+02  0.26454385535E+02  0.57506325859E+02  0.51100000000E-03 0.  1.
         22    1    1    0    0    0 -0.17935341872E+02  0.21668198260E+02 -0.13878569527E+01  0.28162269987E+02  0.00000000000E+00 0.  1.
</event>
<event>
 5    1  0.6690694E-004  0.9118800E+02  0.7818608E-02  0.1130116E+00
         25   -1    0    0    0    0  0.00000000000E+00  0.00000000000E+00  0.99999998245E-14  0.12500000000E+03  0.12500000000E+03 0.  0.
        -11    1    3    3    0    0  0.38293285199E+02 -0.21684454922E+02  0.41466954442E+02  0.60465689341E+02  0.51100000000E-03 0.  1.
         23    2    1    0    0    0  0.16336649683E+02 -0.20069791582E+02  0.14299531217E+02  0.95433815768E+02  0.90738381857E+02 0.  0.
         11    1    3    3    0    0 -0.21956635516E+02  0.16146633404E+01 -0.27167423225E+02  0.34968126427E+02  0.51100000000E-03 0. -1.
         22    1    1    0    0    0 -0.16336649683E+02  0.20069791582E+02 -0.14299531217E+02  0.29566184232E+02  0.00000000000E+00 0.  1.
</event>
<event>
 5    1  0.6690694E-004  0.9118800E+02  0.7818608E-02  0.1130116E+00
         25   -1    0    0    0    0  0.00000000000E+00  0.00000000000E+00  0.99999998245E-14  0.12500000000E+03  0.12500000000E+03 0.  0.
        -11    1    3    3    0    0  0.49626510563E+02  0.89627290949E+01 -0.16700490705E+02  0.53122758339E+02  0.51100000000E-03 0.  1.
         23    2    1    0    0    0  0.80880640346E+01  0.52860137677E+01 -0.27208199072E+02  0.96127091969E+02  0.91688456157E+02 0.  0.
         11    1    3    3    0    0 -0.41538446529E+02 -0.36767153272E+01 -0.10507708367E+02  0.43004333630E+02  0.51100000000E-03 0. -1.
         22    1    1    0    0    0 -0.80880640346E+01 -0.52860137677E+01  0.27208199072E+02  0.28872908031E+02  0.00000000000E+00 0.  1.
</event>
<event>
 5    1  0.6690694E-004  0.9118800E+02  0.7818608E-02  0.1130116E+00
         25   -1    0    0    0    0  0.00000000000E+00  0.00000000000E+00  0.99999998245E-14  0.12500000000E+03  0.12500000000E+03 0.  0.
        -11    1    3    3    0    0 -0.41302793871E+02 -0.21839417846E+02 -0.20507841472E+02  0.51024038604E+02  0.51100000000E-03 0. -1.
         23    2    1    0    0    0 -0.18751427593E+01 -0.12526259257E+01 -0.28666599299E+02  0.96244841376E+02  0.91848845088E+02 0.  0.
         11    1    3    3    0    0  0.39427651112E+02  0.20586791920E+02 -0.81587578279E+01  0.45220802772E+02  0.51100000000E-03 0.  1.
         22    1    1    0    0    0  0.18751427593E+01  0.12526259257E+01  0.28666599299E+02  0.28755158624E+02  0.00000000000E+00 0. -1.
</event>
<event>
 5    1  0.6690694E-004  0.9118800E+02  0.7818608E-02  0.1130116E+00
         25   -1    0    0    0    0  0.00000000000E+00  0.00000000000E+00  0.99999998245E-14  0.12500000000E+03  0.12500000000E+03 0.  0.
        -11    1    3    3    0    0  0.33108132808E+02 -0.10746123983E+02  0.95319136095E+01  0.36089957274E+02  0.51100000000E-03 0. -1.
         23    2    1    0    0    0 -0.16771659512E+02  0.20457724341E+02  0.13953183944E+02  0.95091834055E+02  0.90266042972E+02 0.  0.
         11    1    3    3    0    0 -0.49879792320E+02  0.31203848324E+02  0.44212703344E+01  0.59001876782E+02  0.51100000000E-03 0.  1.
         22    1    1    0    0    0  0.16771659512E+02 -0.20457724341E+02 -0.13953183944E+02  0.29908165945E+02  0.00000000000E+00 0.  1.
</event>
<event>
 5    1  0.6690694E-004  0.9118800E+02  0.7818608E-02  0.1130116E+00
         25   -1    0    0    0    0  0.00000000000E+00  0.00000000000E+00  0.99999998245E-14  0.12500000000E+03  0.12500000000E+03 0.  0.
        -11    1    3    3    0    0 -0.29662572857E+02 -0.23616581630E+02  0.89276228571E+01  0.38952709874E+02  0.51100000000E-03 0. -1.
         23    2    1    0    0    0  0.13240742549E+02  0.17951480369E+02  0.13602953035E+02  0.98873131799E+02  0.95358706733E+02 0.  0.
         11    1    3    3    0    0  0.42903315406E+02  0.41568061999E+02  0.46753301776E+01  0.59920421926E+02  0.51100000000E-03 0.  1.
         22    1    1    0    0    0 -0.13240742549E+02 -0.17951480369E+02 -0.13602953035E+02  0.26126868201E+02  0.00000000000E+00 0.  1.
</event>
<event>
 5    1  0.6690694E-004  0.9118800E+02  0.7818608E-02  0.1130116E+00
         25   -1    0    0    0    0  0.00000000000E+00  0.00000000000E+00  0.99999998245E-14  0.12500000000E+03  0.12500000000E+03 0.  0.
        -11    1    3    3    0    0  0.47194710584E+00  0.46700237266E+02 -0.34619912617E+02  0.58134957166E+02  0.51100000000E-03 0. -1.
         23    2    1    0    0    0 -0.14142803096E+02  0.25539813461E+02 -0.89649052890E+01  0.94460345812E+02  0.89387283509E+02 0.  0.
         11    1    3    3    0    0 -0.14614750202E+02 -0.21160423805E+02  0.25655007328E+02  0.36325388647E+02  0.51100000000E-03 0.  1.
         22    1    1    0    0    0  0.14142803096E+02 -0.25539813461E+02  0.89649052890E+01  0.30539654188E+02  0.00000000000E+00 0. -1.
</event>
<event>
 5    1  0.6690694E-004  0.9118800E+02  0.7818608E-02  0.1130116E+00
         25   -1    0    0    0    0  0.00000000000E+00  0.00000000000E+00  0.99999998245E-14  0.12500000000E+03  0.12500000000E+03 0.  0.
        -11    1    3    3    0    0 -0.15154003038E+02  0.40750488750E+02  0.44396172131E+02  0.62139087872E+02  0.51100000000E-03 0.  1.
         23    2    1    0    0    0 -0.41171426806E+01  0.21903780229E+02  0.18349862476E+02  0.96130571446E+02  0.91693199647E+02 0.  0.
         11    1    3    3    0    0  0.11036860357E+02 -0.18846708522E+02 -0.26046309655E+02  0.33991483574E+02  0.51100000000E-03 0. -1.
         22    1    1    0    0    0  0.41171426806E+01 -0.21903780229E+02 -0.18349862476E+02  0.28869428554E+02  0.00000000000E+00 0.  1.
</event>
<event>
 5    1  0.6690694E-004  0.9118800E+02  0.7818608E-02  0.1130116E+00
         25   -1    0    0    0    0  0.00000000000E+00  0.00000000000E+00  0.99999998245E-14  0.12500000000E+03  0.12500000000E+03 0.  0.
        -11    1    3    3    0    0 -0.45995055489E+02 -0.37423765799E+02  0.86336810970E+01  0.59921814272E+02  0.51100000000E-03 0. -1.
         23    2    1    0    0    0 -0.21093213040E+02 -0.13328103361E+02  0.16016239099E+02  0.95350684824E+02  0.90623789404E+02 0.  0.
         11    1    3    3    0    0  0.24901842449E+02  0.24095662438E+02  0.73825580015E+01  0.35428870552E+02  0.51100000000E-03 0.  1.
         22    1    1    0    0    0  0.21093213040E+02  0.13328103361E+02 -0.16016239099E+02  0.29649315176E+02  0.00000000000E+00 0. -1.
</event>
<event>
 5    1  0.6690694E-004  0.9118800E+02  0.7818608E-02  0.1130116E+00
         25   -1    0    0    0    0  0.00000000000E+00  0.00000000000E+00  0.99999998245E-14  0.12500000000E+03  0.12500000000E+03 0.  0.
        -11    1    3    3    0    0  0.54281673037E+02  0.27099206162E+02 -0.68485073441E+01  0.61055458850E+02  0.51100000000E-03 0.  1.
         23    2    1    0    0    0  0.13891945867E+02  0.16954288108E+02 -0.29911044997E+01  0.10287804820E+03  0.10047144893E+03 0.  0.
         11    1    3    3    0    0 -0.40389727170E+02 -0.10144918054E+02  0.38574028444E+01  0.41822589353E+02  0.51100000000E-03 0. -1.
         22    1    1    0    0    0 -0.13891945867E+02 -0.16954288108E+02  0.29911044997E+01  0.22121951797E+02  0.00000000000E+00 0.  1.
</event>
<event>
 5    1  0.6690694E-004  0.9118800E+02  0.7818608E-02  0.1130116E+00
         25   -1    0    0    0    0  0.00000000000E+00  0.00000000000E+00  0.99999998245E-14  0.12500000000E+03  0.12500000000E+03 0.  0.
        -11    1    3    3    0    0  0.56035508319E+02  0.20549847451E+01  0.97104395744E+01  0.56907765655E+02  0.51100000000E-03 0.  1.
         23    2    1    0    0    0  0.28538417246E+02  0.17062353111E+02  0.14730038806E+02  0.88633268007E+02  0.80828936662E+02 0.  0.
         11    1    3    3    0    0 -0.27497091073E+02  0.15007368366E+02  0.50195992315E+01  0.31725502352E+02  0.51100000000E-03 0. -1.
         22    1    1    0    0    0 -0.28538417246E+02 -0.17062353111E+02 -0.14730038806E+02  0.36366731993E+02  0.00000000000E+00 0.  1.
</event>
<event>
 5    1  0.6690694E-004  0.9118800E+02  0.7818608E-02  0.1130116E+00
         25   -1    0    0    0    0  0.00000000000E+00  0.00000000000E+00  0.99999998245E-14  0.12500000000E+03  0.12500000000E+03 0.  0.
        -11    1    3    3    0    0  0.11671903267E+02  0.44377470771E+01  0.35022969654E+02  0.37182459959E+02  0.51100000000E-03 0. -1.
         23    2    1    0    0    0 -0.28309254267E+02 -0.17657378109E+01 -0.72773875318E+01  0.95717034364E+02  0.91127704849E+02 0.  0.
         11    1    3    3    0    0 -0.39981157533E+02 -0.62034848880E+01 -0.42300357186E+02  0.58534574405E+02  0.51100000000E-03 0.  1.
         22    1    1    0    0    0  0.28309254267E+02  0.17657378109E+01  0.72773875318E+01  0.29282965636E+02  0.00000000000E+00 0.  1.
</event>
<event>
 5    1  0.6690694E-004  0.9118800E+02  0.7818608E-02  0.1130116E+00
         25   -1    0    0    0    0  0.00000000000E+00  0.00000000000E+00  0.99999998245E-14  0.12500000000E+03  0.12500000000E+03 0.  0.
        -11    1    3    3    0    0 -0.44051892927E+02 -0.17027110107E+02  0.13759045262E+02  0.49191493938E+02  0.51100000000E-03 0. -1.
         23    2    1    0    0    0 -0.31874628229E+02  0.80345992510E+01 -0.14674498172E+02  0.89001561055E+02  0.81396500317E+02 0.  0.
         11    1    3    3    0    0  0.12177264698E+02  0.25061709358E+02 -0.28433543434E+02  0.39810067118E+02  0.51100000000E-03 0.  1.
         22    1    1    0    0    0  0.31874628229E+02 -0.80345992510E+01  0.14674498172E+02  0.35998438945E+02  0.00000000000E+00 0. -1.
</event>
<event>
 5    1  0.6690694E-004  0.9118800E+02  0.7818608E-02  0.1130116E+00
         25   -1    0    0    0    0  0.00000000000E+00  0.00000000000E+00  0.99999998245E-14  0.12500000000E+03  0.12500000000E+03 0.  0.
        -11    1    3    3    0    0  0.46062642585E+02  0.36333593329E+01 -0.20053467543E+02  0.50369732010E+02  0.51100000000E-03 0.  1.
         23    2    1    0    0    0  0.98382172741E+01 -0.23471928845E+02 -0.13818713193E+02  0.96040048392E+02  0.91569711684E+02 0.  0.
         11    1    3    3    0    0 -0.36224425311E+02 -0.27105288178E+02  0.62347543496E+01  0.45670316382E+02  0.51100000000E-03 0. -1.
         22    1    1    0    0    0 -0.98382172741E+01  0.23471928845E+02  0.13818713193E+02  0.28959951608E+02  0.00000000000E+00 0.  1.
</event>
<event>
 5    1  0.6690694E-004  0.9118800E+02  0.7818608E-02  0.1130116E+00
         25   -1    0    0    0    0  0.00000000000E+00  0.00000000000E+00  0.99999998245E-14  0.12500000000E+03  0.12500000000E+03 0.  0.
        -11    1    3    3    0    0 -0.10331376982E+02 -0.10060662596E+02 -0.41069851203E+02  0.43528002025E+02  0.51100000000E-03 0. -1.
         23    2    1    0    0    0  0.26532726924E+02  0.76649696768E+01 -0.76678614588E+01  0.96337595050E+02  0.91974989875E+02 0.  0.
         11    1    3    3    0    0  0.36864103906E+02  0.17725632273E+02  0.33401989744E+02  0.52809593025E+02  0.51100000000E-03 0.  1.
         22    1    1    0    0    0 -0.26532726924E+02 -0.76649696768E+01  0.76678614588E+01  0.28662404950E+02  0.00000000000E+00 0. -1.
</event>
<event>
 5    1  0.6690694E-004  0.9118800E+02  0.7818608E-02  0.1130116E+00
         25   -1    0    0    0    0  0.00000000000E+00  0.00000000000E+00  0.99999998245E-14  0.12500000000E+03  0.12500000000E+03 0.  0.
        -11    1    3    3    0    0 -0.45261073069E+02  0.34033800927E+02 -0.20230578224E+02  0.60134354877E+02  0.51100000000E-03 0.  1.
         23    2    1    0    0    0 -0.14146305684E+02  0.24482039638E+02 -0.42043068644E+01  0.96413912028E+02  0.92078651201E+02 0.  0.
         11    1    3    3    0    0  0.31114767385E+02 -0.95517612895E+01  0.16026271359E+02  0.36279557152E+02  0.51100000000E-03 0. -1.
         22    1    1    0    0    0  0.14146305684E+02 -0.24482039638E+02  0.42043068644E+01  0.28586087972E+02  0.00000000000E+00 0.  1.
</event>
<event>
 5    1  0.6690694E-004  0.9118800E+02  0.7818608E-02  0.1130116E+00
         25   -1    0    0    0    0  0.00000000000E+00  0.00000000000E+00  0.99999998245E-14  0.12500000000E+03  0.12500000000E+03 0.  0.
        -11    1    3    3    0    0 -0.19331962484E+02 -0.40480883346E+01 -0.29691834179E+02  0.35661138650E+02  0.51100000000E-03 0.  1.
         23    2    1    0    0    0 -0.53774685324E+01  0.80659870109E+00  0.28646829319E+02  0.95841663297E+02  0.91298498477E+02 0.  0.
         11    1    3    3    0    0  0.13954493951E+02  0.48546870357E+01  0.58338663498E+02  0.60180524646E+02  0.51100000000E-03 0. -1.
         22    1    1    0    0    0  0.53774685324E+01 -0.80659870109E+00 -0.28646829319E+02  0.29158336703E+02  0.00000000000E+00 0. -1.
</event>
<event>
 5    1  0.6690694E-004  0.9118800E+02  0.7818608E-02  0.1130116E+00
         25   -1    0    0    0    0  0.00000000000E+00  0.00000000000E+00  0.99999998245E-14  0.12500000000E+03  0.12500000000E+03 0.  0.
        -11    1    3    3    0    0  0.14430884348E+02  0.47412946397E+02 -0.33085340372E+02  0.59589241117E+02  0.51100000000E-03 0.  1.
         23    2    1    0    0    0  0.14612108586E+02  0.25073488126E+02 -0.48770198184E+01  0.95572481476E+02  0.90929205259E+02 0.  0.
         11    1    3    3    0    0  0.18122423875E+00 -0.22339458271E+02  0.28208320553E+02  0.35983240360E+02  0.51100000000E-03 0. -1.
         22    1    1    0    0    0 -0.14612108586E+02 -0.25073488126E+02  0.48770198184E+01  0.29427518524E+02  0.00000000000E+00 0.  1.
</event>
<event>
 5    1  0.6690694E-004  0.9118800E+02  0.7818608E-02  0.1130116E+00
         25   -1    0    0    0    0  0.00000000000E+00  0.00000000000E+00  0.99999998245E-14  0.12500000000E+03  0.12500000000E+03 0.  0.
        -11    1    3    3    0    0 -0.11236441877E+02  0.17356775129E+02 -0.19638587333E+02  0.28516475617E+02  0.51100000000E-03 0.  1.
         23    2    1    0    0    0  0.21988003378E+02 -0.25090647860E+02  0.10181506356E+02  0.90119117352E+02  0.83095001884E+02 0.  0.
         11    1    3    3    0    0  0.33224445255E+02 -0.42447422989E+02  0.29820093689E+02  0.61602641735E+02  0.51100000000E-03 0. -1.
         22    1    1    0    0    0 -0.21988003378E+02  0.25090647860E+02 -0.10181506356E+02  0.34880882648E+02  0.00000000000E+00 0. -1.
</event>
<event>
 5    1  0.6690694E-004  0.9118800E+02  0.7818608E-02  0.1130116E+00
         25   -1    0    0    0    0  0.00000000000E+00  0.00000000000E+00  0.99999998245E-14  0.12500000000E+03  0.12500000000E+03 0.  0.
        -11    1    3    3    0    0 -0.37926330014E+01  0.36360027169E+02  0.30580323897E+02  0.47661219568E+02  0.51100000000E-03 0. -1.
         23    2    1    0    0    0  0.26040650674E+02  0.15116833454E+02  0.77629647140E+00  0.94879628532E+02  0.89971701845E+02 0.  0.
         11    1    3    3    0    0  0.29833283675E+02 -0.21243193715E+02 -0.29804027426E+02  0.47218408964E+02  0.51100000000E-03 0.  1.
         22    1    1    0    0    0 -0.26040650674E+02 -0.15116833454E+02 -0.77629647140E+00  0.30120371468E+02  0.00000000000E+00 0. -1.
</event>
<event>
 5    1  0.6690694E-004  0.9118800E+02  0.7818608E-02  0.1130116E+00
         25   -1    0    0    0    0  0.00000000000E+00  0.00000000000E+00  0.99999998245E-14  0.12500000000E+03  0.12500000000E+03 0.  0.
        -11    1    3    3    0    0 -0.42237844617E+01  0.30329043490E+02  0.41838829309E+02  0.51847650597E+02  0.51100000000E-03 0.  1.
         23    2    1    0    0    0 -0.25368256479E+02  0.97164406704E+01  0.81666786829E+01  0.96633606207E+02  0.92376412313E+02 0.  0.
         11    1    3    3    0    0 -0.21144472017E+02 -0.20612602819E+02 -0.33672150626E+02  0.44785955611E+02  0.51100000000E-03 0. -1.
         22    1    1    0    0    0  0.25368256479E+02 -0.97164406704E+01 -0.81666786829E+01  0.28366393793E+02  0.00000000000E+00 0.  1.
</event>
<event>
 5    1  0.6690694E-004  0.9118800E+02  0.7818608E-02  0.1130116E+00
         25   -1    0    0    0    0  0.00000000000E+00  0.00000000000E+00  0.99999998245E-14  0.12500000000E+03  0.12500000000E+03 0.  0.
        -11    1    3    3    0    0  0.34997282929E+02 -0.11157140994E+02  0.14523009313E+02  0.39499486166E+02  0.51100000000E-03 0. -1.
         23    2    1    0    0    0 -0.15668031516E+02  0.11495826717E+02  0.22165368132E+02  0.95522130539E+02  0.90859961671E+02 0.  0.
         11    1    3    3    0    0 -0.50665314446E+02  0.22652967711E+02  0.76423588193E+01  0.56022644373E+02  0.51100000000E-03 0.  1.
         22    1    1    0    0    0  0.15668031516E+02 -0.11495826717E+02 -0.22165368132E+02  0.29477869461E+02  0.00000000000E+00 0.  1.
</event>
<event>
 5    1  0.6690694E-004  0.9118800E+02  0.7818608E-02  0.1130116E+00
         25   -1    0    0    0    0  0.00000000000E+00  0.00000000000E+00  0.99999998245E-14  0.12500000000E+03  0.12500000000E+03 0.  0.
        -11    1    3    3    0    0  0.86542267607E+01  0.34743151038E+02 -0.21404631232E+02  0.41714990391E+02  0.51100000000E-03 0. -1.
         23    2    1    0    0    0 -0.12253964442E+01 -0.19122659312E+02 -0.21123684126E+02  0.96480046868E+02  0.92168387840E+02 0.  0.
         11    1    3    3    0    0 -0.98796232049E+01 -0.53865810350E+02  0.28094710624E+00  0.54765056477E+02  0.51100000000E-03 0.  1.
         22    1    1    0    0    0  0.12253964442E+01  0.19122659312E+02  0.21123684126E+02  0.28519953132E+02  0.00000000000E+00 0.  1.
</event>
<event>
 5    1  0.6690694E-004  0.9118800E+02  0.7818608E-02  0.1130116E+00
         25   -1    0    0    0    0  0.00000000000E+00  0.00000000000E+00  0.99999998245E-14  0.12500000000E+03  0.12500000000E+03 0.  0.
        -11    1    3    3    0    0  0.91970964752E+01 -0.27698547910E+02  0.20557185309E+02  0.35698655549E+02  0.51100000000E-03 0.  1.
         23    2    1    0    0    0  0.89097746244E+01  0.87333693903E+01 -0.26793850584E+02  0.95443845753E+02  0.90752197980E+02 0.  0.
         11    1    3    3    0    0 -0.28732185085E+00  0.36431917300E+02 -0.47351035893E+02  0.59745190204E+02  0.51100000000E-03 0. -1.
         22    1    1    0    0    0 -0.89097746244E+01 -0.87333693903E+01  0.26793850584E+02  0.29556154247E+02  0.00000000000E+00 0. -1.
</event>
<event>
 5    1  0.6690694E-004  0.9118800E+02  0.7818608E-02  0.1130116E+00
         25   -1    0    0    0    0  0.00000000000E+00  0.00000000000E+00  0.99999998245E-14  0.12500000000E+03  0.12500000000E+03 0.  0.
        -11    1    3    3    0    0 -0.36786191945E+02  0.19815481599E+02  0.42810427812E+01  0.42002435124E+02  0.51100000000E-03 0.  1.
         23    2    1    0    0    0 -0.12945720005E+02 -0.27218011200E+02  0.75821055905E+00  0.94850593979E+02  0.89931354347E+02 0.  0.
         11    1    3    3    0    0  0.23840471940E+02 -0.47033492799E+02 -0.35228322222E+01  0.52848158855E+02  0.51100000000E-03 0. -1.
         22    1    1    0    0    0  0.12945720005E+02  0.27218011200E+02 -0.75821055905E+00  0.30149406021E+02  0.00000000000E+00 0. -1.
</event>
<event>
 5    1  0.6690694E-004  0.9118800E+02  0.7818608E-02  0.1130116E+00
         25   -1    0    0    0    0  0.00000000000E+00  0.00000000000E+00  0.99999998245E-14  0.12500000000E+03  0.12500000000E+03 0.  0.
        -11    1    3    3    0    0  0.28467676495E+02 -0.29686484946E+02  0.28271580920E+02  0.49909701276E+02  0.51100000000E-03 0. -1.
         23    2    1    0    0    0 -0.38509021292E+01  0.10461598218E+02 -0.65125487708E+01  0.11208923798E+03  0.11134320588E+03 0.  0.
         11    1    3    3    0    0 -0.32318578624E+02  0.40148083164E+02 -0.34784129691E+02  0.62179536703E+02  0.51100000000E-03 0.  1.
         22    1    1    0    0    0  0.38509021292E+01 -0.10461598218E+02  0.65125487708E+01  0.12910762021E+02  0.00000000000E+00 0.  1.
</event>
<event>
 5    1  0.6690694E-004  0.9118800E+02  0.7818608E-02  0.1130116E+00
         25   -1    0    0    0    0  0.00000000000E+00  0.00000000000E+00  0.99999998245E-14  0.12500000000E+03  0.12500000000E+03 0.  0.
        -11    1    3    3    0    0  0.42418588924E+02  0.27706585882E+02  0.22367422019E+02  0.55383148661E+02  0.51100000000E-03 0.  1.
         23    2    1    0    0    0  0.20273497679E+02  0.19116414873E+02 -0.98809790124E+01  0.95435058397E+02  0.90740093670E+02 0.  0.
         11    1    3    3    0    0 -0.22145091245E+02 -0.85901710086E+01 -0.32248401031E+02  0.40051909736E+02  0.51100000000E-03 0. -1.
         22    1    1    0    0    0 -0.20273497679E+02 -0.19116414873E+02  0.98809790124E+01  0.29564941603E+02  0.00000000000E+00 0.  1.
</event>
<event>
 5    1  0.6690694E-004  0.9118800E+02  0.7818608E-02  0.1130116E+00
         25   -1    0    0    0    0  0.00000000000E+00  0.00000000000E+00  0.99999998245E-14  0.12500000000E+03  0.12500000000E+03 0.  0.
        -11    1    3    3    0    0 -0.42354547056E+01  0.32380781555E+02  0.76749360670E+00  0.32665626236E+02  0.51100000000E-03 0. -1.
         23    2    1    0    0    0 -0.12383820734E+02 -0.28351668836E+02  0.24454986231E+01  0.93965235537E+02  0.88692214339E+02 0.  0.
         11    1    3    3    0    0 -0.81483660282E+01 -0.60732450391E+02  0.16780050164E+01  0.61299609301E+02  0.51100000000E-03 0.  1.
         22    1    1    0    0    0  0.12383820734E+02  0.28351668836E+02 -0.24454986231E+01  0.31034764463E+02  0.00000000000E+00 0.  1.
</event>
<event>
 5    1  0.6690694E-004  0.9118800E+02  0.7818608E-02  0.1130116E+00
         25   -1    0    0    0    0  0.00000000000E+00  0.00000000000E+00  0.99999998245E-14  0.12500000000E+03  0.12500000000E+03 0.  0.
        -11    1    3    3    0    0  0.24751809168E+02  0.30509345445E+02  0.25199472352E+02  0.46674250113E+02  0.51100000000E-03 0.  1.
         23    2    1    0    0    0 -0.50252660888E+01  0.25203132216E+02 -0.13642930233E+02  0.95903939818E+02  0.91383723685E+02 0.  0.
         11    1    3    3    0    0 -0.29777075257E+02 -0.53062132288E+01 -0.38842402585E+02  0.49229689705E+02  0.51100000000E-03 0. -1.
         22    1    1    0    0    0  0.50252660888E+01 -0.25203132216E+02  0.13642930233E+02  0.29096060182E+02  0.00000000000E+00 0. -1.
</event>
<event>
 5    1  0.6690694E-004  0.9118800E+02  0.7818608E-02  0.1130116E+00
         25   -1    0    0    0    0  0.00000000000E+00  0.00000000000E+00  0.99999998245E-14  0.12500000000E+03  0.12500000000E+03 0.  0.
        -11    1    3    3    0    0  0.41770673563E+02  0.11038510556E+02  0.28207681203E+01  0.43296588991E+02  0.51100000000E-03 0.  1.
         23    2    1    0    0    0  0.56952945928E+01 -0.14402991911E+02  0.27180941520E+02  0.93716040237E+02  0.88340308237E+02 0.  0.
         11    1    3    3    0    0 -0.36075378970E+02 -0.25441502468E+02  0.24360173400E+02  0.50419451246E+02  0.51100000000E-03 0. -1.
         22    1    1    0    0    0 -0.56952945928E+01  0.14402991911E+02 -0.27180941520E+02  0.31283959763E+02  0.00000000000E+00 0. -1.
</event>
<event>
 5    1  0.6690694E-004  0.9118800E+02  0.7818608E-02  0.1130116E+00
         25   -1    0    0    0    0  0.00000000000E+00  0.00000000000E+00  0.99999998245E-14  0.12500000000E+03  0.12500000000E+03 0.  0.
        -11    1    3    3    0    0  0.37833184654E+02 -0.19320959992E+02  0.18374736811E+02  0.46284774054E+02  0.51100000000E-03 0.  1.
         23    2    1    0    0    0 -0.92150950207E+01 -0.27250485195E+02  0.53768113165E+01  0.95735396474E+02  0.91152888701E+02 0.  0.
         11    1    3    3    0    0 -0.47048279675E+02 -0.79295252029E+01 -0.12997925495E+02  0.49450622420E+02  0.51100000000E-03 0. -1.
         22    1    1    0    0    0  0.92150950207E+01  0.27250485195E+02 -0.53768113165E+01  0.29264603526E+02  0.00000000000E+00 0. -1.
</event>
<event>
 5    1  0.6690694E-004  0.9118800E+02  0.7818608E-02  0.1130116E+00
         25   -1    0    0    0    0  0.00000000000E+00  0.00000000000E+00  0.99999998245E-14  0.12500000000E+03  0.12500000000E+03 0.  0.
        -11    1    3    3    0    0  0.58160007228E+01 -0.58714938503E+02 -0.55185278102E+01  0.59259801023E+02  0.51100000000E-03 0. -1.
         23    2    1    0    0    0 -0.56059120621E+01 -0.24602012202E+02 -0.13892242799E+02  0.96195839460E+02  0.91782132602E+02 0.  0.
         11    1    3    3    0    0 -0.11421912785E+02  0.34112926300E+02 -0.83737149885E+01  0.36936038437E+02  0.51100000000E-03 0.  1.
         22    1    1    0    0    0  0.56059120621E+01  0.24602012202E+02  0.13892242799E+02  0.28804160540E+02  0.00000000000E+00 0. -1.
</event>
<event>
 5    1  0.6690694E-004  0.9118800E+02  0.7818608E-02  0.1130116E+00
         25   -1    0    0    0    0  0.00000000000E+00  0.00000000000E+00  0.99999998245E-14  0.12500000000E+03  0.12500000000E+03 0.  0.
        -11    1    3    3    0    0  0.44620083857E+02  0.18197145650E+02 -0.23152324946E+02  0.53461370577E+02  0.51100000000E-03 0. -1.
         23    2    1    0    0    0  0.24857781532E+02 -0.14326109998E+02 -0.41090517528E+01  0.96016711079E+02  0.91537848837E+02 0.  0.
         11    1    3    3    0    0 -0.19762302325E+02 -0.32523255647E+02  0.19043273194E+02  0.42555340503E+02  0.51100000000E-03 0.  1.
         22    1    1    0    0    0 -0.24857781532E+02  0.14326109998E+02  0.41090517528E+01  0.28983288921E+02  0.00000000000E+00 0. -1.
</event>
<event>
 5    1  0.6690694E-004  0.9118800E+02  0.7818608E-02  0.1130116E+00
         25   -1    0    0    0    0  0.00000000000E+00  0.00000000000E+00  0.99999998245E-14  0.12500000000E+03  0.12500000000E+03 0.  0.
        -11    1    3    3    0    0  0.21177187280E+02  0.15732810132E+02  0.54827425829E+02  0.60844401543E+02  0.51100000000E-03 0.  1.
         23    2    1    0    0    0  0.15061439537E+02  0.13952681950E+02  0.19694395573E+02  0.96550157970E+02  0.92263424457E+02 0.  0.
         11    1    3    3    0    0 -0.61157477422E+01 -0.17801281819E+01 -0.35133030257E+02  0.35705756428E+02  0.51100000000E-03 0. -1.
         22    1    1    0    0    0 -0.15061439537E+02 -0.13952681950E+02 -0.19694395573E+02  0.28449842030E+02  0.00000000000E+00 0.  1.
</event>
<event>
 5    1  0.6690694E-004  0.9118800E+02  0.7818608E-02  0.1130116E+00
         25   -1    0    0    0    0  0.00000000000E+00  0.00000000000E+00  0.99999998245E-14  0.12500000000E+03  0.12500000000E+03 0.  0.
        -11    1    3    3    0    0 -0.15693877596E+02  0.50428482192E+02  0.44458703681E+01  0.53000899745E+02  0.51100000000E-03 0.  1.
         23    2    1    0    0    0 -0.35835336851E+01  0.14192981024E+02  0.24733746754E+02  0.96259077042E+02  0.91868216813E+02 0.  0.
         11    1    3    3    0    0  0.12110343911E+02 -0.36235501168E+02  0.20287876385E+02  0.43258177297E+02  0.51100000000E-03 0. -1.
         22    1    1    0    0    0  0.35835336851E+01 -0.14192981024E+02 -0.24733746754E+02  0.28740922958E+02  0.00000000000E+00 0.  1.
</event>
<event>
 5    1  0.6690694E-004  0.9118800E+02  0.7818608E-02  0.1130116E+00
         25   -1    0    0    0    0  0.00000000000E+00  0.00000000000E+00  0.99999998245E-14  0.12500000000E+03  0.12500000000E+03 0.  0.
        -11    1    3    3    0    0 -0.23564573567E+01  0.39231830980E+02 -0.27332917751E+02  0.47872516608E+02  0.51100000000E-03 0. -1.
         23    2    1    0    0    0  0.59003046828E+00  0.21467200114E+02  0.18208240331E+02  0.96844559449E+02  0.92661425966E+02 0.  0.
         11    1    3    3    0    0  0.29464878250E+01 -0.17764630866E+02  0.45541158082E+02  0.48972042841E+02  0.51100000000E-03 0.  1.
         22    1    1    0    0    0 -0.59003046828E+00 -0.21467200114E+02 -0.18208240331E+02  0.28155440551E+02  0.00000000000E+00 0. -1.
</event>
<event>
 5    1  0.6690694E-004  0.9118800E+02  0.7818608E-02  0.1130116E+00
         25   -1    0    0    0    0  0.00000000000E+00  0.00000000000E+00  0.99999998245E-14  0.12500000000E+03  0.12500000000E+03 0.  0.
        -11    1    3    3    0    0  0.35420462335E+01  0.35726599846E+02  0.47463536506E+02  0.59512379603E+02  0.51100000000E-03 0.  1.
         23    2    1    0    0    0 -0.11994303787E+02  0.15136020269E+02  0.21121262038E+02  0.96380598486E+02  0.92033415788E+02 0.  0.
         11    1    3    3    0    0 -0.15536350020E+02 -0.20590579576E+02 -0.26342274468E+02  0.36868218884E+02  0.51100000000E-03 0. -1.
         22    1    1    0    0    0  0.11994303787E+02 -0.15136020269E+02 -0.21121262038E+02  0.28619401514E+02  0.00000000000E+00 0.  1.
</event>
<event>
 5    1  0.6690694E-004  0.9118800E+02  0.7818608E-02  0.1130116E+00
         25   -1    0    0    0    0  0.00000000000E+00  0.00000000000E+00  0.99999998245E-14  0.12500000000E+03  0.12500000000E+03 0.  0.
        -11    1    3    3    0    0  0.43716124509E+02  0.37636331259E+02  0.21905812909E+02  0.61704599603E+02  0.51100000000E-03 0. -1.
         23    2    1    0    0    0  0.20083979470E+02  0.19628156895E+02  0.33893322285E+01  0.96713636724E+02  0.92484642947E+02 0.  0.
         11    1    3    3    0    0 -0.23632145039E+02 -0.18008174364E+02 -0.18516480681E+02  0.35009037121E+02  0.51100000000E-03 0.  1.
         22    1    1    0    0    0 -0.20083979470E+02 -0.19628156895E+02 -0.33893322285E+01  0.28286363276E+02  0.00000000000E+00 0. -1.
</event>
<event>
 5    1  0.6690694E-004  0.9118800E+02  0.7818608E-02  0.1130116E+00
         25   -1    0    0    0    0  0.00000000000E+00  0.00000000000E+00  0.99999998245E-14  0.12500000000E+03  0.12500000000E+03 0.  0.
        -11    1    3    3    0    0  0.24582446770E+02  0.31996155290E+01 -0.49020100755E+02  0.54931816892E+02  0.51100000000E-03 0. -1.
         23    2    1    0    0    0  0.43964619527E+00 -0.17534189493E+02 -0.23218697694E+02  0.95901047914E+02  0.91379767883E+02 0.  0.
         11    1    3    3    0    0 -0.24142800575E+02 -0.20733805021E+02  0.25801403062E+02  0.40969231021E+02  0.51100000000E-03 0.  1.
         22    1    1    0    0    0 -0.43964619527E+00  0.17534189493E+02  0.23218697694E+02  0.29098952086E+02  0.00000000000E+00 0. -1.
</event>
<event>
 5    1  0.6690694E-004  0.9118800E+02  0.7818608E-02  0.1130116E+00
         25   -1    0    0    0    0  0.00000000000E+00  0.00000000000E+00  0.99999998245E-14  0.12500000000E+03  0.12500000000E+03 0.  0.
        -11    1    3    3    0    0 -0.13392787129E+02 -0.18469749096E+02 -0.47058674258E+02  0.52297391923E+02  0.51100000000E-03 0. -1.
         23    2    1    0    0    0  0.17401036395E+02 -0.15539183225E+02 -0.27683215069E+02  0.88797476890E+02  0.81082484068E+02 0.  0.
         11    1    3    3    0    0  0.30793823524E+02  0.29305658706E+01  0.19375459189E+02  0.36500084967E+02  0.51100000000E-03 0.  1.
         22    1    1    0    0    0 -0.17401036395E+02  0.15539183225E+02  0.27683215069E+02  0.36202523110E+02  0.00000000000E+00 0. -1.
</event>
<event>
 5    1  0.6690694E-004  0.9118800E+02  0.7818608E-02  0.1130116E+00
         25   -1    0    0    0    0  0.00000000000E+00  0.00000000000E+00  0.99999998245E-14  0.12500000000E+03  0.12500000000E+03 0.  0.
        -11    1    3    3    0    0 -0.16543600638E+02  0.48064715820E+01 -0.48742987900E+02  0.51697889326E+02  0.51100000000E-03 0. -1.
         23    2    1    0    0    0 -0.26054336582E+02 -0.95321632348E+01 -0.76902147636E+01  0.96210592334E+02  0.91802222650E+02 0.  0.
         11    1    3    3    0    0 -0.95107359439E+01 -0.14338634817E+02  0.41052773136E+02  0.44512703008E+02  0.51100000000E-03 0.  1.
         22    1    1    0    0    0  0.26054336582E+02  0.95321632348E+01  0.76902147636E+01  0.28789407666E+02  0.00000000000E+00 0.  1.
</event>
<event>
 5    1  0.6690694E-004  0.9118800E+02  0.7818608E-02  0.1130116E+00
         25   -1    0    0    0    0  0.00000000000E+00  0.00000000000E+00  0.99999998245E-14  0.12500000000E+03  0.12500000000E+03 0.  0.
        -11    1    3    3    0    0  0.10631977662E+02  0.25560331092E+01 -0.34446853020E+02  0.36140807095E+02  0.51100000000E-03 0. -1.
         23    2    1    0    0    0 -0.32083412549E+01 -0.17977457759E+02  0.21182477124E+02  0.97032522849E+02  0.92914642077E+02 0.  0.
         11    1    3    3    0    0 -0.13840318917E+02 -0.20533490868E+02  0.55629330144E+02  0.60891715754E+02  0.51100000000E-03 0.  1.
         22    1    1    0    0    0  0.32083412549E+01  0.17977457759E+02 -0.21182477124E+02  0.27967477151E+02  0.00000000000E+00 0.  1.
</event>
<event>
 5    1  0.6690694E-004  0.9118800E+02  0.7818608E-02  0.1130116E+00
         25   -1    0    0    0    0  0.00000000000E+00  0.00000000000E+00  0.99999998245E-14  0.12500000000E+03  0.12500000000E+03 0.  0.
        -11    1    3    3    0    0 -0.16913908687E+00 -0.27746885466E+02  0.46063767869E+02  0.53775356545E+02  0.51100000000E-03 0. -1.
         23    2    1    0    0    0 -0.19896258879E+02 -0.18183820700E+02  0.94748942102E+01  0.96429279447E+02  0.92099510648E+02 0.  0.
         11    1    3    3    0    0 -0.19727119792E+02  0.95630647655E+01 -0.36588873658E+02  0.42653922901E+02  0.51100000000E-03 0.  1.
         22    1    1    0    0    0  0.19896258879E+02  0.18183820700E+02 -0.94748942102E+01  0.28570720553E+02  0.00000000000E+00 0.  1.
</event>
<event>
 5    1  0.6690694E-004  0.9118800E+02  0.7818608E-02  0.1130116E+00
         25   -1    0    0    0    0  0.00000000000E+00  0.00000000000E+00  0.99999998245E-14  0.12500000000E+03  0.12500000000E+03 0.  0.
        -11    1    3    3    0    0  0.17210340376E+02  0.18430799640E+02 -0.47294949415E+02  0.53597597256E+02  0.51100000000E-03 0. -1.
         23    2    1    0    0    0 -0.79862772437E+01  0.25931637486E+02 -0.22195278361E+02  0.89944888697E+02  0.82832494676E+02 0.  0.
         11    1    3    3    0    0 -0.25196617620E+02  0.75008378459E+01  0.25099671053E+02  0.36347291441E+02  0.51100000000E-03 0.  1.
         22    1    1    0    0    0  0.79862772437E+01 -0.25931637486E+02  0.22195278361E+02  0.35055111303E+02  0.00000000000E+00 0. -1.
</event>
<event>
 5    1  0.6690694E-004  0.9118800E+02  0.7818608E-02  0.1130116E+00
         25   -1    0    0    0    0  0.00000000000E+00  0.00000000000E+00  0.99999998245E-14  0.12500000000E+03  0.12500000000E+03 0.  0.
        -11    1    3    3    0    0 -0.34599290560E+01 -0.34454235794E+02  0.27562053630E+02  0.44257567419E+02  0.51100000000E-03 0.  1.
         23    2    1    0    0    0 -0.15544386717E+02 -0.15744001111E+02 -0.18976723862E+02  0.95851799748E+02  0.91312375596E+02 0.  0.
         11    1    3    3    0    0 -0.12084457661E+02  0.18710234683E+02 -0.46538777493E+02  0.51594232329E+02  0.51100000000E-03 0. -1.
         22    1    1    0    0    0  0.15544386717E+02  0.15744001111E+02  0.18976723862E+02  0.29148200252E+02  0.00000000000E+00 0. -1.
</event>
<event>
 5    1  0.6690694E-004  0.9118800E+02  0.7818608E-02  0.1130116E+00
         25   -1    0    0    0    0  0.00000000000E+00  0.00000000000E+00  0.99999998245E-14  0.12500000000E+03  0.12500000000E+03 0.  0.
        -11    1    3    3    0    0 -0.24700666351E+02  0.20172007810E+02  0.10473950777E+02  0.33566895335E+02  0.51100000000E-03 0.  1.
         23    2    1    0    0    0  0.22672878071E+02 -0.18676439056E+02  0.61777062424E+01  0.94982791098E+02  0.90114914273E+02 0.  0.
         11    1    3    3    0    0  0.47373544422E+02 -0.38848446866E+02 -0.42962445341E+01  0.61415895763E+02  0.51100000000E-03 0. -1.
         22    1    1    0    0    0 -0.22672878071E+02  0.18676439056E+02 -0.61777062424E+01  0.30017208902E+02  0.00000000000E+00 0. -1.
</event>
<event>
 5    1  0.6690694E-004  0.9118800E+02  0.7818608E-02  0.1130116E+00
         25   -1    0    0    0    0  0.00000000000E+00  0.00000000000E+00  0.99999998245E-14  0.12500000000E+03  0.12500000000E+03 0.  0.
        -11    1    3    3    0    0  0.73810450439E+01 -0.47169113232E+02 -0.14839651446E+02  0.49996203100E+02  0.51100000000E-03 0. -1.
         23    2    1    0    0    0 -0.18468489245E+02 -0.17566251462E+02  0.11219729788E+02  0.97151470022E+02  0.93074526620E+02 0.  0.
         11    1    3    3    0    0 -0.25849534289E+02  0.29602861771E+02  0.26059381234E+02  0.47155266923E+02  0.51100000000E-03 0.  1.
         22    1    1    0    0    0  0.18468489245E+02  0.17566251462E+02 -0.11219729788E+02  0.27848529978E+02  0.00000000000E+00 0.  1.
</event>
<event>
 5    1  0.6690694E-004  0.9118800E+02  0.7818608E-02  0.1130116E+00
         25   -1    0    0    0    0  0.00000000000E+00  0.00000000000E+00  0.99999998245E-14  0.12500000000E+03  0.12500000000E+03 0.  0.
        -11    1    3    3    0    0  0.44074234803E+02 -0.16188086904E+02  0.46596342959E+01  0.47183731552E+02  0.51100000000E-03 0. -1.
         23    2    1    0    0    0  0.12866684160E+02  0.17926323779E+02  0.19303075161E+02  0.95682541785E+02  0.91080379041E+02 0.  0.
         11    1    3    3    0    0 -0.31207550643E+02  0.34114410683E+02  0.14643440865E+02  0.48498810233E+02  0.51100000000E-03 0.  1.
         22    1    1    0    0    0 -0.12866684160E+02 -0.17926323779E+02 -0.19303075161E+02  0.29317458215E+02  0.00000000000E+00 0. -1.
</event>
<event>
 5    1  0.6690694E-004  0.9118800E+02  0.7818608E-02  0.1130116E+00
         25   -1    0    0    0    0  0.00000000000E+00  0.00000000000E+00  0.99999998245E-14  0.12500000000E+03  0.12500000000E+03 0.  0.
        -11    1    3    3    0    0 -0.36158007380E+02  0.40070908849E+01 -0.40366458228E+01  0.36602633578E+02  0.51100000000E-03 0.  1.
         23    2    1    0    0    0  0.15013340144E+02 -0.22389639252E+02  0.10634394423E+02  0.96020926985E+02  0.91543605709E+02 0.  0.
         11    1    3    3    0    0  0.51171347524E+02 -0.26396730136E+02  0.14671040245E+02  0.59418293407E+02  0.51100000000E-03 0. -1.
         22    1    1    0    0    0 -0.15013340144E+02  0.22389639252E+02 -0.10634394423E+02  0.28979073015E+02  0.00000000000E+00 0. -1.
</event>
<event>
 5    1  0.6690694E-004  0.9118800E+02  0.7818608E-02  0.1130116E+00
         25   -1    0    0    0    0  0.00000000000E+00  0.00000000000E+00  0.99999998245E-14  0.12500000000E+03  0.12500000000E+03 0.  0.
        -11    1    3    3    0    0 -0.10818331872E+02  0.91637935973E+01 -0.32115091725E+02  0.35105420299E+02  0.51100000000E-03 0.  1.
         23    2    1    0    0    0  0.17169428844E+00 -0.13474669703E+02  0.24487172460E+02  0.97049725983E+02  0.92937782930E+02 0.  0.
         11    1    3    3    0    0  0.10990026160E+02 -0.22638463301E+02  0.56602264185E+02  0.61944305684E+02  0.51100000000E-03 0. -1.
         22    1    1    0    0    0 -0.17169428844E+00  0.13474669703E+02 -0.24487172460E+02  0.27950274017E+02  0.00000000000E+00 0. -1.
</event>
<event>
 5    1  0.6690694E-004  0.9118800E+02  0.7818608E-02  0.1130116E+00
         25   -1    0    0    0    0  0.00000000000E+00  0.00000000000E+00  0.99999998245E-14  0.12500000000E+03  0.12500000000E+03 0.  0.
        -11    1    3    3    0    0 -0.75323328107E+01 -0.49458274683E+02 -0.35159352706E+02  0.61147665983E+02  0.51100000000E-03 0.  1.
         23    2    1    0    0    0 -0.55805646814E+01 -0.17055063960E+02 -0.23035649313E+02  0.95799673835E+02  0.91240991111E+02 0.  0.
         11    1    3    3    0    0  0.19517681292E+01  0.32403210723E+02  0.12123703392E+02  0.34652007853E+02  0.51100000000E-03 0. -1.
         22    1    1    0    0    0  0.55805646814E+01  0.17055063960E+02  0.23035649313E+02  0.29200326165E+02  0.00000000000E+00 0.  1.
</event>
<event>
 5    1  0.6690694E-004  0.9118800E+02  0.7818608E-02  0.1130116E+00
         25   -1    0    0    0    0  0.00000000000E+00  0.00000000000E+00  0.99999998245E-14  0.12500000000E+03  0.12500000000E+03 0.  0.
        -11    1    3    3    0    0  0.98475467476E+01  0.41338755502E+02 -0.11628198794E+02  0.44057710913E+02  0.51100000000E-03 0. -1.
         23    2    1    0    0    0  0.11261419291E+02  0.34266937360E+01  0.25358857587E+02  0.97042291716E+02  0.92927783407E+02 0.  0.
         11    1    3    3    0    0  0.14138725433E+01 -0.37912061766E+02  0.36987056381E+02  0.52984580803E+02  0.51100000000E-03 0.  1.
         22    1    1    0    0    0 -0.11261419291E+02 -0.34266937360E+01 -0.25358857587E+02  0.27957708284E+02  0.00000000000E+00 0. -1.
</event>
<event>
 5    1  0.6690694E-004  0.9118800E+02  0.7818608E-02  0.1130116E+00
         25   -1    0    0    0    0  0.00000000000E+00  0.00000000000E+00  0.99999998245E-14  0.12500000000E+03  0.12500000000E+03 0.  0.
        -11    1    3    3    0    0 -0.19166409394E+02 -0.29637157157E+02 -0.55549114040E+01  0.35729111022E+02  0.51100000000E-03 0. -1.
         23    2    1    0    0    0  0.11185671295E+02  0.12493048466E+02  0.24186884793E+02  0.95568708858E+02  0.90924018909E+02 0.  0.
         11    1    3    3    0    0  0.30352080689E+02  0.42130205623E+02  0.29741796197E+02  0.59839597837E+02  0.51100000000E-03 0.  1.
         22    1    1    0    0    0 -0.11185671295E+02 -0.12493048466E+02 -0.24186884793E+02  0.29431291142E+02  0.00000000000E+00 0.  1.
</event>
<event>
 5    1  0.6690694E-004  0.9118800E+02  0.7818608E-02  0.1130116E+00
         25   -1    0    0    0    0  0.00000000000E+00  0.00000000000E+00  0.99999998245E-14  0.12500000000E+03  0.12500000000E+03 0.  0.
        -11    1    3    3    0    0  0.21138881100E+02 -0.16746038044E+02  0.40750358800E+02  0.48865875894E+02  0.51100000000E-03 0. -1.
         23    2    1    0    0    0 -0.56848601769E+01 -0.21830198533E+02  0.43187676207E+02  0.76275770100E+02  0.58685113316E+02 0.  0.
         11    1    3    3    0    0 -0.26823741277E+02 -0.50841604896E+01  0.24373174071E+01  0.27409894206E+02  0.51100000000E-03 0.  1.
         22    1    1    0    0    0  0.56848601769E+01  0.21830198533E+02 -0.43187676207E+02  0.48724229900E+02  0.00000000000E+00 0. -1.
</event>
<event>
 5    1  0.6690694E-004  0.9118800E+02  0.7818608E-02  0.1130116E+00
         25   -1    0    0    0    0  0.00000000000E+00  0.00000000000E+00  0.99999998245E-14  0.12500000000E+03  0.12500000000E+03 0.  0.
        -11    1    3    3    0    0  0.16638324020E+02  0.44321479086E+02  0.16207369849E+02  0.50039046476E+02  0.51100000000E-03 0.  1.
         23    2    1    0    0    0 -0.20269050885E+02  0.15840653558E+02  0.11257551939E+02  0.96919878836E+02  0.92762975960E+02 0.  0.
         11    1    3    3    0    0 -0.36907374905E+02 -0.28480825528E+02 -0.49498179103E+01  0.46880832360E+02  0.51100000000E-03 0. -1.
         22    1    1    0    0    0  0.20269050885E+02 -0.15840653558E+02 -0.11257551939E+02  0.28080121164E+02  0.00000000000E+00 0.  1.
</event>
<event>
 5    1  0.6690694E-004  0.9118800E+02  0.7818608E-02  0.1130116E+00
         25   -1    0    0    0    0  0.00000000000E+00  0.00000000000E+00  0.99999998245E-14  0.12500000000E+03  0.12500000000E+03 0.  0.
        -11    1    3    3    0    0  0.45369206448E+02  0.32318021330E+02 -0.38092101126E+00  0.55704259240E+02  0.51100000000E-03 0. -1.
         23    2    1    0    0    0  0.18273856778E+02  0.10756895885E+02 -0.20293979398E+02  0.95648845841E+02  0.91034122505E+02 0.  0.
         11    1    3    3    0    0 -0.27095349670E+02 -0.21561125444E+02 -0.19913058387E+02  0.39944586601E+02  0.51100000000E-03 0.  1.
         22    1    1    0    0    0 -0.18273856778E+02 -0.10756895885E+02  0.20293979398E+02  0.29351154159E+02  0.00000000000E+00 0. -1.
</event>
<event>
 5    1  0.6690694E-004  0.9118800E+02  0.7818608E-02  0.1130116E+00
         25   -1    0    0    0    0  0.00000000000E+00  0.00000000000E+00  0.99999998245E-14  0.12500000000E+03  0.12500000000E+03 0.  0.
        -11    1    3    3    0    0 -0.83399205799E+01  0.14234559247E+02  0.47443161456E+02  0.50229777239E+02  0.51100000000E-03 0. -1.
         23    2    1    0    0    0  0.47739881554E+01 -0.20144645763E+02  0.20756571930E+02  0.95683912367E+02  0.91082260028E+02 0.  0.
         11    1    3    3    0    0  0.13113908735E+02 -0.34379205010E+02 -0.26686589527E+02  0.45454135128E+02  0.51100000000E-03 0.  1.
         22    1    1    0    0    0 -0.47739881554E+01  0.20144645763E+02 -0.20756571930E+02  0.29316087633E+02  0.00000000000E+00 0.  1.
</event>
<event>
 5    1  0.6690694E-004  0.9118800E+02  0.7818608E-02  0.1130116E+00
         25   -1    0    0    0    0  0.00000000000E+00  0.00000000000E+00  0.99999998245E-14  0.12500000000E+03  0.12500000000E+03 0.  0.
        -11    1    3    3    0    0 -0.13299849963E+02 -0.57682419243E+01  0.36213432594E+02  0.39007323985E+02  0.51100000000E-03 0.  1.
         23    2    1    0    0    0  0.99635337763E+01 -0.29588114814E+02 -0.64448470630E+01  0.93121094793E+02  0.87494420954E+02 0.  0.
         11    1    3    3    0    0  0.23263383739E+02 -0.23819872890E+02 -0.42658279657E+02  0.54113770808E+02  0.51100000000E-03 0. -1.
         22    1    1    0    0    0 -0.99635337763E+01  0.29588114814E+02  0.64448470630E+01  0.31878905207E+02  0.00000000000E+00 0. -1.
</event>
<event>
 5    1  0.6690694E-004  0.9118800E+02  0.7818608E-02  0.1130116E+00
         25   -1    0    0    0    0  0.00000000000E+00  0.00000000000E+00  0.99999998245E-14  0.12500000000E+03  0.12500000000E+03 0.  0.
        -11    1    3    3    0    0 -0.83662191932E+01 -0.35872085356E+02  0.11764668017E+02  0.38667913639E+02  0.51100000000E-03 0.  1.
         23    2    1    0    0    0 -0.14054726593E+02  0.21688948110E+02  0.11989431959E+02  0.96509786094E+02  0.92208711755E+02 0.  0.
         11    1    3    3    0    0 -0.56885073995E+01  0.57561033466E+02  0.22476394135E+00  0.57841872455E+02  0.51100000000E-03 0. -1.
         22    1    1    0    0    0  0.14054726593E+02 -0.21688948110E+02 -0.11989431959E+02  0.28490213906E+02  0.00000000000E+00 0. -1.
</event>
<event>
 5    1  0.6690694E-004  0.9118800E+02  0.7818608E-02  0.1130116E+00
         25   -1    0    0    0    0  0.00000000000E+00  0.00000000000E+00  0.99999998245E-14  0.12500000000E+03  0.12500000000E+03 0.  0.
        -11    1    3    3    0    0  0.23523227326E+02 -0.21058742716E+02 -0.47165708548E+02  0.56757527533E+02  0.51100000000E-03 0.  1.
         23    2    1    0    0    0  0.20257643905E+02  0.67025958589E+01 -0.19257325972E+02  0.96257322125E+02  0.91865828964E+02 0.  0.
         11    1    3    3    0    0 -0.32655834217E+01  0.27761338575E+02  0.27908382575E+02  0.39499794592E+02  0.51100000000E-03 0. -1.
         22    1    1    0    0    0 -0.20257643905E+02 -0.67025958589E+01  0.19257325972E+02  0.28742677875E+02  0.00000000000E+00 0.  1.
</event>
<event>
 5    1  0.6690694E-004  0.9118800E+02  0.7818608E-02  0.1130116E+00
         25   -1    0    0    0    0  0.00000000000E+00  0.00000000000E+00  0.99999998245E-14  0.12500000000E+03  0.12500000000E+03 0.  0.
        -11    1    3    3    0    0  0.11467312470E+02  0.10078665588E+02  0.33980885449E+02  0.37252910376E+02  0.51100000000E-03 0. -1.
         23    2    1    0    0    0  0.37981424311E+01 -0.29773652127E+02 -0.61875409556E+01  0.94353925047E+02  0.89238339641E+02 0.  0.
         11    1    3    3    0    0 -0.76691700390E+01 -0.39852317716E+02 -0.40168426405E+02  0.57101014671E+02  0.51100000000E-03 0.  1.
         22    1    1    0    0    0 -0.37981424311E+01  0.29773652127E+02  0.61875409556E+01  0.30646074953E+02  0.00000000000E+00 0.  1.
</event>
<event>
 5    1  0.6690694E-004  0.9118800E+02  0.7818608E-02  0.1130116E+00
         25   -1    0    0    0    0  0.00000000000E+00  0.00000000000E+00  0.99999998245E-14  0.12500000000E+03  0.12500000000E+03 0.  0.
        -11    1    3    3    0    0  0.17150057369E+02  0.23009568070E+02 -0.28758968670E+02  0.40628105663E+02  0.51100000000E-03 0.  1.
         23    2    1    0    0    0 -0.15717092164E+02  0.17811727808E+02  0.15969309632E+02  0.96376522159E+02  0.92027879145E+02 0.  0.
         11    1    3    3    0    0 -0.32867149532E+02 -0.51978402628E+01  0.44728278302E+02  0.55748416497E+02  0.51100000000E-03 0. -1.
         22    1    1    0    0    0  0.15717092164E+02 -0.17811727808E+02 -0.15969309632E+02  0.28623477841E+02  0.00000000000E+00 0. -1.
</event>
<event>
 5    1  0.6690694E-004  0.9118800E+02  0.7818608E-02  0.1130116E+00
         25   -1    0    0    0    0  0.00000000000E+00  0.00000000000E+00  0.99999998245E-14  0.12500000000E+03  0.12500000000E+03 0.  0.
        -11    1    3    3    0    0  0.21710530743E+02 -0.48143488579E+02  0.17515368999E+02  0.55641089036E+02  0.51100000000E-03 0.  1.
         23    2    1    0    0    0  0.26867625295E+02 -0.11622919767E+02  0.19895624031E+01  0.95658563235E+02  0.91047464593E+02 0.  0.
         11    1    3    3    0    0  0.51570945520E+01  0.36520568812E+02 -0.15525806595E+02  0.40017474199E+02  0.51100000000E-03 0. -1.
         22    1    1    0    0    0 -0.26867625295E+02  0.11622919767E+02 -0.19895624031E+01  0.29341436765E+02  0.00000000000E+00 0.  1.
</event>
<event>
 5    1  0.6690694E-004  0.9118800E+02  0.7818608E-02  0.1130116E+00
         25   -1    0    0    0    0  0.00000000000E+00  0.00000000000E+00  0.99999998245E-14  0.12500000000E+03  0.12500000000E+03 0.  0.
        -11    1    3    3    0    0 -0.13283136251E+02 -0.53207772847E+02 -0.23732368666E+02  0.59755620010E+02  0.51100000000E-03 0.  1.
         23    2    1    0    0    0  0.37605651724E+01 -0.37032285839E+02 -0.13194883970E+02  0.85507760157E+02  0.75841545601E+02 0.  0.
         11    1    3    3    0    0  0.17043701423E+02  0.16175487008E+02  0.10537484696E+02  0.25752140147E+02  0.51100000000E-03 0. -1.
         22    1    1    0    0    0 -0.37605651724E+01  0.37032285839E+02  0.13194883970E+02  0.39492239843E+02  0.00000000000E+00 0.  1.
</event>
<event>
 5    1  0.6690694E-004  0.9118800E+02  0.7818608E-02  0.1130116E+00
         25   -1    0    0    0    0  0.00000000000E+00  0.00000000000E+00  0.99999998245E-14  0.12500000000E+03  0.12500000000E+03 0.  0.
        -11    1    3    3    0    0  0.19421643148E+02 -0.57818523348E+02  0.65011337936E+01  0.61338785491E+02  0.51100000000E-03 0.  1.
         23    2    1    0    0    0  0.16521823336E+02 -0.23861695748E+02  0.32152390944E+00  0.95974932421E+02  0.91480779978E+02 0.  0.
         11    1    3    3    0    0 -0.28998198124E+01  0.33956827600E+02 -0.61796098841E+01  0.34636146930E+02  0.51100000000E-03 0. -1.
         22    1    1    0    0    0 -0.16521823336E+02  0.23861695748E+02 -0.32152390944E+00  0.29025067579E+02  0.00000000000E+00 0.  1.
</event>
<event>
 5    1  0.6690694E-004  0.9118800E+02  0.7818608E-02  0.1130116E+00
         25   -1    0    0    0    0  0.00000000000E+00  0.00000000000E+00  0.99999998245E-14  0.12500000000E+03  0.12500000000E+03 0.  0.
        -11    1    3    3    0    0 -0.53584618612E+02  0.19344109448E+02 -0.15835495286E+02  0.59129255309E+02  0.51100000000E-03 0.  1.
         23    2    1    0    0    0 -0.25552211936E+02 -0.23711732072E+01  0.27971250641E+01  0.99186013368E+02  0.95767966158E+02 0.  0.
         11    1    3    3    0    0  0.28032406676E+02 -0.21715282655E+02  0.18632620350E+02  0.40056758059E+02  0.51100000000E-03 0. -1.
         22    1    1    0    0    0  0.25552211936E+02  0.23711732072E+01 -0.27971250641E+01  0.25813986632E+02  0.00000000000E+00 0.  1.
</event>
<event>
 5    1  0.6690694E-004  0.9118800E+02  0.7818608E-02  0.1130116E+00
         25   -1    0    0    0    0  0.00000000000E+00  0.00000000000E+00  0.99999998245E-14  0.12500000000E+03  0.12500000000E+03 0.  0.
        -11    1    3    3    0    0  0.12694511067E+02 -0.97489903199E+01  0.34641564879E+02  0.38160600638E+02  0.51100000000E-03 0. -1.
         23    2    1    0    0    0 -0.26024957439E+02  0.15346366982E+02  0.19199067486E+01  0.94726324452E+02  0.89758459841E+02 0.  0.
         11    1    3    3    0    0 -0.38719468506E+02  0.25095357302E+02 -0.32721658131E+02  0.56565723814E+02  0.51100000000E-03 0.  1.
         22    1    1    0    0    0  0.26024957439E+02 -0.15346366982E+02 -0.19199067486E+01  0.30273675548E+02  0.00000000000E+00 0.  1.
</event>
<event>
 5    1  0.6690694E-004  0.9118800E+02  0.7818608E-02  0.1130116E+00
         25   -1    0    0    0    0  0.00000000000E+00  0.00000000000E+00  0.99999998245E-14  0.12500000000E+03  0.12500000000E+03 0.  0.
        -11    1    3    3    0    0  0.25294430075E+02 -0.21297265611E+02 -0.28458571144E+01  0.33188561558E+02  0.51100000000E-03 0. -1.
         23    2    1    0    0    0 -0.25018719338E+02  0.13982575004E+02  0.71862205096E+01  0.95451895386E+02  0.90763284683E+02 0.  0.
         11    1    3    3    0    0 -0.50313149413E+02  0.35279840615E+02  0.10032077624E+02  0.62263333828E+02  0.51100000000E-03 0.  1.
         22    1    1    0    0    0  0.25018719338E+02 -0.13982575004E+02 -0.71862205096E+01  0.29548104614E+02  0.00000000000E+00 0.  1.
</event>
<event>
 5    1  0.6690694E-004  0.9118800E+02  0.7818608E-02  0.1130116E+00
         25   -1    0    0    0    0  0.00000000000E+00  0.00000000000E+00  0.99999998245E-14  0.12500000000E+03  0.12500000000E+03 0.  0.
        -11    1    3    3    0    0 -0.13332097066E+02  0.29575626577E+02 -0.17922519587E+02  0.37063178604E+02  0.51100000000E-03 0.  1.
         23    2    1    0    0    0 -0.15224836651E+02 -0.25434013309E+02  0.12016426298E+01  0.95333038088E+02  0.90599445484E+02 0.  0.
         11    1    3    3    0    0 -0.18927395853E+01 -0.55009639886E+02  0.19124162217E+02  0.58269859484E+02  0.51100000000E-03 0. -1.
         22    1    1    0    0    0  0.15224836651E+02  0.25434013309E+02 -0.12016426298E+01  0.29666961912E+02  0.00000000000E+00 0. -1.
</event>
<event>
 5    1  0.6690694E-004  0.9118800E+02  0.7818608E-02  0.1130116E+00
         25   -1    0    0    0    0  0.00000000000E+00  0.00000000000E+00  0.99999998245E-14  0.12500000000E+03  0.12500000000E+03 0.  0.
        -11    1    3    3    0    0 -0.23660410092E+02  0.13761342678E+02  0.16650963069E+02  0.32038166761E+02  0.51100000000E-03 0.  1.
         23    2    1    0    0    0  0.16915576096E+02 -0.23973744046E+02 -0.10620338833E+02  0.93796334908E+02  0.88453850832E+02 0.  0.
         11    1    3    3    0    0  0.40575986188E+02 -0.37735086724E+02 -0.27271301901E+02  0.61758168147E+02  0.51100000000E-03 0. -1.
         22    1    1    0    0    0 -0.16915576096E+02  0.23973744046E+02  0.10620338833E+02  0.31203665092E+02  0.00000000000E+00 0. -1.
</event>
<event>
 5    1  0.6690694E-004  0.9118800E+02  0.7818608E-02  0.1130116E+00
         25   -1    0    0    0    0  0.00000000000E+00  0.00000000000E+00  0.99999998245E-14  0.12500000000E+03  0.12500000000E+03 0.  0.
        -11    1    3    3    0    0  0.21654833868E+02  0.43490831141E+02  0.10662709722E+02  0.49740100543E+02  0.51100000000E-03 0.  1.
         23    2    1    0    0    0 -0.12391128450E+02  0.21628195398E+02  0.21993649087E+02  0.91757865583E+02  0.85524653730E+02 0.  0.
         11    1    3    3    0    0 -0.34045962317E+02 -0.21862635743E+02  0.11330939365E+02  0.42017765039E+02  0.51100000000E-03 0. -1.
         22    1    1    0    0    0  0.12391128450E+02 -0.21628195398E+02 -0.21993649087E+02  0.33242134417E+02  0.00000000000E+00 0. -1.
</event>
<event>
 5    1  0.6690694E-004  0.9118800E+02  0.7818608E-02  0.1130116E+00
         25   -1    0    0    0    0  0.00000000000E+00  0.00000000000E+00  0.99999998245E-14  0.12500000000E+03  0.12500000000E+03 0.  0.
        -11    1    3    3    0    0 -0.17413017299E+02 -0.21078039717E+02  0.26006995159E+02  0.37734079123E+02  0.51100000000E-03 0. -1.
         23    2    1    0    0    0 -0.10469089708E+02  0.25387713050E+02 -0.87535597688E+01  0.96177046961E+02  0.91756535137E+02 0.  0.
         11    1    3    3    0    0  0.69439275913E+01  0.46465752768E+02 -0.34760554928E+02  0.58442967839E+02  0.51100000000E-03 0.  1.
         22    1    1    0    0    0  0.10469089708E+02 -0.25387713050E+02  0.87535597688E+01  0.28822953039E+02  0.00000000000E+00 0.  1.
</event>
<event>
 5    1  0.6690694E-004  0.9118800E+02  0.7818608E-02  0.1130116E+00
         25   -1    0    0    0    0  0.00000000000E+00  0.00000000000E+00  0.99999998245E-14  0.12500000000E+03  0.12500000000E+03 0.  0.
        -11    1    3    3    0    0 -0.21803301163E+02 -0.29919159534E+02  0.85355631226E+01  0.37992050312E+02  0.51100000000E-03 0. -1.
         23    2    1    0    0    0  0.21534599358E+02  0.77114686852E+01  0.17652151067E+02  0.96107022374E+02  0.91661090946E+02 0.  0.
         11    1    3    3    0    0  0.43337900521E+02  0.37630628219E+02  0.91165879448E+01  0.58114972062E+02  0.51100000000E-03 0.  1.
         22    1    1    0    0    0 -0.21534599358E+02 -0.77114686852E+01 -0.17652151067E+02  0.28892977626E+02  0.00000000000E+00 0.  1.
</event>
<event>
 5    1  0.6690694E-004  0.9118800E+02  0.7818608E-02  0.1130116E+00
         25   -1    0    0    0    0  0.00000000000E+00  0.00000000000E+00  0.99999998245E-14  0.12500000000E+03  0.12500000000E+03 0.  0.
        -11    1    3    3    0    0  0.65344768918E-02 -0.40205006942E+02 -0.37484005211E+02  0.54968111417E+02  0.51100000000E-03 0.  1.
         23    2    1    0    0    0 -0.39329323150E+01 -0.15117724951E+01 -0.30162660939E+02  0.94544466388E+02  0.89504841192E+02 0.  0.
         11    1    3    3    0    0 -0.39394667919E+01  0.38693234447E+02  0.73213442713E+01  0.39576354970E+02  0.51100000000E-03 0. -1.
         22    1    1    0    0    0  0.39329323150E+01  0.15117724951E+01  0.30162660939E+02  0.30455533612E+02  0.00000000000E+00 0.  1.
</event>
<event>
 5    1  0.6690694E-004  0.9118800E+02  0.7818608E-02  0.1130116E+00
         25   -1    0    0    0    0  0.00000000000E+00  0.00000000000E+00  0.99999998245E-14  0.12500000000E+03  0.12500000000E+03 0.  0.
        -11    1    3    3    0    0  0.23607038872E+02 -0.50804493587E+02  0.23388411280E+02  0.60707550070E+02  0.51100000000E-03 0.  1.
         23    2    1    0    0    0  0.97198671799E+00 -0.26646421479E+02  0.12444265894E+02  0.95574903748E+02  0.90932535085E+02 0.  0.
         11    1    3    3    0    0 -0.22635052154E+02  0.24158072108E+02 -0.10944145386E+02  0.34867353678E+02  0.51100000000E-03 0. -1.
         22    1    1    0    0    0 -0.97198671799E+00  0.26646421479E+02 -0.12444265894E+02  0.29425096252E+02  0.00000000000E+00 0.  1.
</event>
<event>
 5    1  0.6690694E-004  0.9118800E+02  0.7818608E-02  0.1130116E+00
         25   -1    0    0    0    0  0.00000000000E+00  0.00000000000E+00  0.99999998245E-14  0.12500000000E+03  0.12500000000E+03 0.  0.
        -11    1    3    3    0    0  0.96567150642E+01 -0.20990581529E+02  0.30154994999E+02  0.37989214027E+02  0.51100000000E-03 0.  1.
         23    2    1    0    0    0  0.24846019981E+02 -0.90351251648E+01 -0.20071061708E+02  0.91806541101E+02  0.85595766690E+02 0.  0.
         11    1    3    3    0    0  0.15189304916E+02  0.11955456364E+02 -0.50226056707E+02  0.53817327073E+02  0.51100000000E-03 0. -1.
         22    1    1    0    0    0 -0.24846019981E+02  0.90351251648E+01  0.20071061708E+02  0.33193458899E+02  0.00000000000E+00 0.  1.
</event>
<event>
 5    1  0.6690694E-004  0.9118800E+02  0.7818608E-02  0.1130116E+00
         25   -1    0    0    0    0  0.00000000000E+00  0.00000000000E+00  0.99999998245E-14  0.12500000000E+03  0.12500000000E+03 0.  0.
        -11    1    3    3    0    0 -0.26731730433E+02 -0.34330162121E+02  0.22476484602E+01  0.43568306911E+02  0.51100000000E-03 0.  1.
         23    2    1    0    0    0 -0.37468425307E+01  0.56192288879E+01  0.27885141109E+02  0.96308613542E+02  0.91935593681E+02 0.  0.
         11    1    3    3    0    0  0.22984887903E+02  0.39949391009E+02  0.25637492649E+02  0.52740306631E+02  0.51100000000E-03 0. -1.
         22    1    1    0    0    0  0.37468425307E+01 -0.56192288879E+01 -0.27885141109E+02  0.28691386458E+02  0.00000000000E+00 0. -1.
</event>
<event>
 5    1  0.6690694E-004  0.9118800E+02  0.7818608E-02  0.1130116E+00
         25   -1    0    0    0    0  0.00000000000E+00  0.00000000000E+00  0.99999998245E-14  0.12500000000E+03  0.12500000000E+03 0.  0.
        -11    1    3    3    0    0  0.38215280113E+02 -0.51577306243E+01 -0.14464515610E+02  0.41185337578E+02  0.51100000000E-03 0. -1.
         23    2    1    0    0    0 -0.11290397392E+01  0.29154073071E+02  0.15276725508E+01  0.95784105511E+02  0.91219660040E+02 0.  0.
         11    1    3    3    0    0 -0.39344319852E+02  0.34311803695E+02  0.15992188160E+02  0.54598767934E+02  0.51100000000E-03 0.  1.
         22    1    1    0    0    0  0.11290397392E+01 -0.29154073071E+02 -0.15276725508E+01  0.29215894489E+02  0.00000000000E+00 0.  1.
</event>
<event>
 5    1  0.6690694E-004  0.9118800E+02  0.7818608E-02  0.1130116E+00
         25   -1    0    0    0    0  0.00000000000E+00  0.00000000000E+00  0.99999998245E-14  0.12500000000E+03  0.12500000000E+03 0.  0.
        -11    1    3    3    0    0 -0.20197070851E+02  0.22578142963E+02 -0.16014980361E+02  0.34266219617E+02  0.51100000000E-03 0. -1.
         23    2    1    0    0    0 -0.13272173044E+02 -0.11664159096E+02  0.28874565444E+02  0.91148209585E+02  0.84628909932E+02 0.  0.
         11    1    3    3    0    0  0.69248978065E+01 -0.34242302059E+02  0.44889545805E+02  0.56881989968E+02  0.51100000000E-03 0.  1.
         22    1    1    0    0    0  0.13272173044E+02  0.11664159096E+02 -0.28874565444E+02  0.33851790415E+02  0.00000000000E+00 0.  1.
</event>
<event>
 5    1  0.6690694E-004  0.9118800E+02  0.7818608E-02  0.1130116E+00
         25   -1    0    0    0    0  0.00000000000E+00  0.00000000000E+00  0.99999998245E-14  0.12500000000E+03  0.12500000000E+03 0.  0.
        -11    1    3    3    0    0  0.36139103149E+02 -0.80364062622E+01  0.41629048021E+02  0.55709929469E+02  0.51100000000E-03 0.  1.
         23    2    1    0    0    0  0.30270046807E+02 -0.41812071008E+01  0.37744392047E+01  0.94210316374E+02  0.89036953527E+02 0.  0.
         11    1    3    3    0    0 -0.58690563421E+01  0.38551991615E+01 -0.37854608816E+02  0.38500386905E+02  0.51100000000E-03 0. -1.
         22    1    1    0    0    0 -0.30270046807E+02  0.41812071008E+01 -0.37744392047E+01  0.30789683626E+02  0.00000000000E+00 0.  1.
</event>
<event>
 5    1  0.6690694E-004  0.9118800E+02  0.7818608E-02  0.1130116E+00
         25   -1    0    0    0    0  0.00000000000E+00  0.00000000000E+00  0.99999998245E-14  0.12500000000E+03  0.12500000000E+03 0.  0.
        -11    1    3    3    0    0 -0.30501218382E+02  0.27650023950E+02 -0.10048958715E+02  0.42377231136E+02  0.51100000000E-03 0.  1.
         23    2    1    0    0    0 -0.18462000055E+02 -0.20384080733E+02  0.99086427162E+01  0.95767528435E+02  0.91196941334E+02 0.  0.
         11    1    3    3    0    0  0.12039218327E+02 -0.48034104682E+02  0.19957601431E+02  0.53390297299E+02  0.51100000000E-03 0. -1.
         22    1    1    0    0    0  0.18462000055E+02  0.20384080733E+02 -0.99086427162E+01  0.29232471565E+02  0.00000000000E+00 0. -1.
</event>
<event>
 5    1  0.6690694E-004  0.9118800E+02  0.7818608E-02  0.1130116E+00
         25   -1    0    0    0    0  0.00000000000E+00  0.00000000000E+00  0.99999998245E-14  0.12500000000E+03  0.12500000000E+03 0.  0.
        -11    1    3    3    0    0  0.89784137318E+01  0.42338612903E+02  0.82625019974E+01  0.44061763414E+02  0.51100000000E-03 0.  1.
         23    2    1    0    0    0 -0.25520482240E+02 -0.89755036618E-01 -0.67027192022E+00  0.99470559462E+02  0.96138649176E+02 0.  0.
         11    1    3    3    0    0 -0.34498895972E+02 -0.42428367939E+02 -0.89327739176E+01  0.55408796047E+02  0.51100000000E-03 0. -1.
         22    1    1    0    0    0  0.25520482240E+02  0.89755036618E-01  0.67027192022E+00  0.25529440538E+02  0.00000000000E+00 0.  1.
</event>
<event>
 5    1  0.6690694E-004  0.9118800E+02  0.7818608E-02  0.1130116E+00
         25   -1    0    0    0    0  0.00000000000E+00  0.00000000000E+00  0.99999998245E-14  0.12500000000E+03  0.12500000000E+03 0.  0.
        -11    1    3    3    0    0 -0.40957992078E+02 -0.38995172133E+02  0.23380706241E+02  0.61195081414E+02  0.51100000000E-03 0.  1.
         23    2    1    0    0    0 -0.12709402491E+02 -0.23328560083E+02  0.14677316388E+02  0.94649147564E+02  0.89650916845E+02 0.  0.
         11    1    3    3    0    0  0.28248589587E+02  0.15666612049E+02 -0.87033898529E+01  0.33454066150E+02  0.51100000000E-03 0. -1.
         22    1    1    0    0    0  0.12709402491E+02  0.23328560083E+02 -0.14677316388E+02  0.30350852436E+02  0.00000000000E+00 0.  1.
</event>
<event>
 5    1  0.6690694E-004  0.9118800E+02  0.7818608E-02  0.1130116E+00
         25   -1    0    0    0    0  0.00000000000E+00  0.00000000000E+00  0.99999998245E-14  0.12500000000E+03  0.12500000000E+03 0.  0.
        -11    1    3    3    0    0 -0.15129844016E+02 -0.38088372508E+02 -0.31000708781E+02  0.51387549518E+02  0.51100000000E-03 0.  1.
         23    2    1    0    0    0  0.16723314925E+01 -0.27760319865E+02  0.88195270896E+01  0.95824391871E+02  0.91274848495E+02 0.  0.
         11    1    3    3    0    0  0.16802175509E+02  0.10328052644E+02  0.39820235871E+02  0.44436842353E+02  0.51100000000E-03 0. -1.
         22    1    1    0    0    0 -0.16723314925E+01  0.27760319865E+02 -0.88195270896E+01  0.29175608129E+02  0.00000000000E+00 0.  1.
</event>
<event>
 5    1  0.6690694E-004  0.9118800E+02  0.7818608E-02  0.1130116E+00
         25   -1    0    0    0    0  0.00000000000E+00  0.00000000000E+00  0.99999998245E-14  0.12500000000E+03  0.12500000000E+03 0.  0.
        -11    1    3    3    0    0 -0.32249381382E+02  0.15024280663E+02 -0.31789181164E+02  0.47710624061E+02  0.51100000000E-03 0.  1.
         23    2    1    0    0    0 -0.18753879203E+02 -0.20579360153E+02 -0.24371041354E+00  0.97156195586E+02  0.93080872883E+02 0.  0.
         11    1    3    3    0    0  0.13495502179E+02 -0.35603640815E+02  0.31545470751E+02  0.49445571526E+02  0.51100000000E-03 0. -1.
         22    1    1    0    0    0  0.18753879203E+02  0.20579360153E+02  0.24371041354E+00  0.27843804414E+02  0.00000000000E+00 0.  1.
</event>
<event>
 5    1  0.6690694E-004  0.9118800E+02  0.7818608E-02  0.1130116E+00
         25   -1    0    0    0    0  0.00000000000E+00  0.00000000000E+00  0.99999998245E-14  0.12500000000E+03  0.12500000000E+03 0.  0.
        -11    1    3    3    0    0  0.89522032029E+01 -0.14143294708E+02  0.35111780965E+02  0.38897453518E+02  0.51100000000E-03 0. -1.
         23    2    1    0    0    0  0.11355896555E+01  0.10762479450E+02 -0.21329095237E+02  0.10108241585E+03  0.98212035735E+02 0.  0.
         11    1    3    3    0    0 -0.78166135474E+01  0.24905774159E+02 -0.56440876203E+02  0.62184962335E+02  0.51100000000E-03 0.  1.
         22    1    1    0    0    0 -0.11355896555E+01 -0.10762479450E+02  0.21329095237E+02  0.23917584147E+02  0.00000000000E+00 0.  1.
</event>
<event>
 5    1  0.6690694E-004  0.9118800E+02  0.7818608E-02  0.1130116E+00
         25   -1    0    0    0    0  0.00000000000E+00  0.00000000000E+00  0.99999998245E-14  0.12500000000E+03  0.12500000000E+03 0.  0.
        -11    1    3    3    0    0  0.46493762654E+02  0.16258476430E+00  0.11218781991E+02  0.47828416962E+02  0.51100000000E-03 0.  1.
         23    2    1    0    0    0  0.16012122523E+02  0.53868105138E+01 -0.24604331691E+02  0.95154080125E+02  0.90352199925E+02 0.  0.
         11    1    3    3    0    0 -0.30481640130E+02  0.52242257495E+01 -0.35823113682E+02  0.47325663163E+02  0.51100000000E-03 0. -1.
         22    1    1    0    0    0 -0.16012122523E+02 -0.53868105138E+01  0.24604331691E+02  0.29845919875E+02  0.00000000000E+00 0.  1.
</event>
<event>
 5    1  0.6690694E-004  0.9118800E+02  0.7818608E-02  0.1130116E+00
         25   -1    0    0    0    0  0.00000000000E+00  0.00000000000E+00  0.99999998245E-14  0.12500000000E+03  0.12500000000E+03 0.  0.
        -11    1    3    3    0    0  0.10483334790E+02 -0.12967033937E+01  0.44926623791E+02  0.46151741826E+02  0.51100000000E-03 0.  1.
         23    2    1    0    0    0  0.27434009815E+00 -0.26906100094E+02  0.92519046751E+00  0.98076600100E+02  0.94308801419E+02 0.  0.
         11    1    3    3    0    0 -0.10208994692E+02 -0.25609396700E+02 -0.44001433324E+02  0.51924858274E+02  0.51100000000E-03 0. -1.
         22    1    1    0    0    0 -0.27434009815E+00  0.26906100094E+02 -0.92519046751E+00  0.26923399900E+02  0.00000000000E+00 0. -1.
</event>
<event>
 5    1  0.6690694E-004  0.9118800E+02  0.7818608E-02  0.1130116E+00
         25   -1    0    0    0    0  0.00000000000E+00  0.00000000000E+00  0.99999998245E-14  0.12500000000E+03  0.12500000000E+03 0.  0.
        -11    1    3    3    0    0  0.41776144606E+01 -0.23867114035E+02 -0.48406980161E+02  0.54132497850E+02  0.51100000000E-03 0.  1.
         23    2    1    0    0    0  0.23823180505E+02 -0.68425084001E+01 -0.16799996416E+02  0.95056657999E+02  0.90217318181E+02 0.  0.
         11    1    3    3    0    0  0.19645566045E+02  0.17024605635E+02  0.31606983744E+02  0.40924160149E+02  0.51100000000E-03 0. -1.
         22    1    1    0    0    0 -0.23823180505E+02  0.68425084001E+01  0.16799996416E+02  0.29943342001E+02  0.00000000000E+00 0. -1.
</event>
<event>
 5    1  0.6690694E-004  0.9118800E+02  0.7818608E-02  0.1130116E+00
         25   -1    0    0    0    0  0.00000000000E+00  0.00000000000E+00  0.99999998245E-14  0.12500000000E+03  0.12500000000E+03 0.  0.
        -11    1    3    3    0    0 -0.11848567922E+02  0.33997122813E+02  0.18237313535E+02  0.40358301830E+02  0.51100000000E-03 0.  1.
         23    2    1    0    0    0 -0.15630874839E+02 -0.21461995578E+02  0.10351092491E+02  0.96502866491E+02  0.92199330924E+02 0.  0.
         11    1    3    3    0    0 -0.37823069174E+01 -0.55459118391E+02 -0.78862210440E+01  0.56144564661E+02  0.51100000000E-03 0. -1.
         22    1    1    0    0    0  0.15630874839E+02  0.21461995578E+02 -0.10351092491E+02  0.28497133509E+02  0.00000000000E+00 0. -1.
</event>
<event>
 5    1  0.6690694E-004  0.9118800E+02  0.7818608E-02  0.1130116E+00
         25   -1    0    0    0    0  0.00000000000E+00  0.00000000000E+00  0.99999998245E-14  0.12500000000E+03  0.12500000000E+03 0.  0.
        -11    1    3    3    0    0 -0.41214328988E+02  0.85385507821E+01 -0.43022351058E+01  0.42308828754E+02  0.51100000000E-03 0.  1.
         23    2    1    0    0    0 -0.15042099026E+01 -0.16998892413E+02 -0.25704650706E+02  0.94146247252E+02  0.88946960674E+02 0.  0.
         11    1    3    3    0    0  0.39710119086E+02 -0.25537443195E+02 -0.21402415600E+02  0.51837418498E+02  0.51100000000E-03 0. -1.
         22    1    1    0    0    0  0.15042099026E+01  0.16998892413E+02  0.25704650706E+02  0.30853752748E+02  0.00000000000E+00 0. -1.
</event>
<event>
 5    1  0.6690694E-004  0.9118800E+02  0.7818608E-02  0.1130116E+00
         25   -1    0    0    0    0  0.00000000000E+00  0.00000000000E+00  0.99999998245E-14  0.12500000000E+03  0.12500000000E+03 0.  0.
        -11    1    3    3    0    0 -0.39686219708E+02 -0.39102345417E+02  0.75355056533E+01  0.56220755042E+02  0.51100000000E-03 0.  1.
         23    2    1    0    0    0 -0.20763957917E+02 -0.59107336755E+01  0.19137540333E+02  0.96149971041E+02  0.91719642172E+02 0.  0.
         11    1    3    3    0    0  0.18922261791E+02  0.33191611741E+02  0.11602034680E+02  0.39929215999E+02  0.51100000000E-03 0. -1.
         22    1    1    0    0    0  0.20763957917E+02  0.59107336755E+01 -0.19137540333E+02  0.28850028959E+02  0.00000000000E+00 0.  1.
</event>
<event>
 5    1  0.6690694E-004  0.9118800E+02  0.7818608E-02  0.1130116E+00
         25   -1    0    0    0    0  0.00000000000E+00  0.00000000000E+00  0.99999998245E-14  0.12500000000E+03  0.12500000000E+03 0.  0.
        -11    1    3    3    0    0  0.15496208071E+02  0.27346605975E+02  0.46870663434E+02  0.56434284030E+02  0.51100000000E-03 0.  1.
         23    2    1    0    0    0 -0.77410959239E+00  0.24788400401E+02  0.75330491689E+01  0.99080685389E+02  0.95630389246E+02 0.  0.
         11    1    3    3    0    0 -0.16270317663E+02 -0.25582055743E+01 -0.39337614265E+02  0.42646401360E+02  0.51100000000E-03 0. -1.
         22    1    1    0    0    0  0.77410959239E+00 -0.24788400401E+02 -0.75330491689E+01  0.25919314611E+02  0.00000000000E+00 0.  1.
</event>
<event>
 5    1  0.6690694E-004  0.9118800E+02  0.7818608E-02  0.1130116E+00
         25   -1    0    0    0    0  0.00000000000E+00  0.00000000000E+00  0.99999998245E-14  0.12500000000E+03  0.12500000000E+03 0.  0.
        -11    1    3    3    0    0  0.56395964699E+02 -0.18241534114E+02  0.25248400139E+01  0.59326496766E+02  0.51100000000E-03 0. -1.
         23    2    1    0    0    0  0.25022358015E+02 -0.35360256913E+00 -0.10695936508E+02  0.97785178796E+02  0.93921747742E+02 0.  0.
         11    1    3    3    0    0 -0.31373606684E+02  0.17887931545E+02 -0.13220776522E+02  0.38458682030E+02  0.51100000000E-03 0.  1.
         22    1    1    0    0    0 -0.25022358015E+02  0.35360256913E+00  0.10695936508E+02  0.27214821204E+02  0.00000000000E+00 0. -1.
</event>
<event>
 5    1  0.6690694E-004  0.9118800E+02  0.7818608E-02  0.1130116E+00
         25   -1    0    0    0    0  0.00000000000E+00  0.00000000000E+00  0.99999998245E-14  0.12500000000E+03  0.12500000000E+03 0.  0.
        -11    1    3    3    0    0 -0.14494656649E+02  0.29710537334E+02  0.14147052299E+02  0.35957616566E+02  0.51100000000E-03 0. -1.
         23    2    1    0    0    0 -0.11193532354E+02 -0.27968737629E+02  0.41451468645E+01  0.94590664367E+02  0.89569336783E+02 0.  0.
         11    1    3    3    0    0  0.33011242951E+01 -0.57679274963E+02 -0.10001905435E+02  0.58633047801E+02  0.51100000000E-03 0.  1.
         22    1    1    0    0    0  0.11193532354E+02  0.27968737629E+02 -0.41451468645E+01  0.30409335633E+02  0.00000000000E+00 0.  1.
</event>
<event>
 5    1  0.6690694E-004  0.9118800E+02  0.7818608E-02  0.1130116E+00
         25   -1    0    0    0    0  0.00000000000E+00  0.00000000000E+00  0.99999998245E-14  0.12500000000E+03  0.12500000000E+03 0.  0.
        -11    1    3    3    0    0 -0.59965936391E+02  0.60864387468E+01  0.27050900442E+01  0.60334697947E+02  0.51100000000E-03 0. -1.
         23    2    1    0    0    0 -0.26611604924E+02 -0.77972063988E+01 -0.36912430795E+01  0.97025025116E+02  0.92904554674E+02 0.  0.
         11    1    3    3    0    0  0.33354331467E+02 -0.13883645146E+02 -0.63963331237E+01  0.36690327170E+02  0.51100000000E-03 0.  1.
         22    1    1    0    0    0  0.26611604924E+02  0.77972063988E+01  0.36912430795E+01  0.27974974884E+02  0.00000000000E+00 0. -1.
</event>
<event>
 5    1  0.6690694E-004  0.9118800E+02  0.7818608E-02  0.1130116E+00
         25   -1    0    0    0    0  0.00000000000E+00  0.00000000000E+00  0.99999998245E-14  0.12500000000E+03  0.12500000000E+03 0.  0.
        -11    1    3    3    0    0 -0.44912270705E+02  0.30033989368E+02  0.21851891814E+02  0.58280852374E+02  0.51100000000E-03 0.  1.
         23    2    1    0    0    0 -0.19078370106E+02  0.24033312040E+02 -0.24026680623E+01  0.94220833226E+02  0.89051717032E+02 0.  0.
         11    1    3    3    0    0  0.25833900600E+02 -0.60006773277E+01 -0.24254559876E+02  0.35939980852E+02  0.51100000000E-03 0. -1.
         22    1    1    0    0    0  0.19078370106E+02 -0.24033312040E+02  0.24026680623E+01  0.30779166774E+02  0.00000000000E+00 0. -1.
</event>
<event>
 5    1  0.6690694E-004  0.9118800E+02  0.7818608E-02  0.1130116E+00
         25   -1    0    0    0    0  0.00000000000E+00  0.00000000000E+00  0.99999998245E-14  0.12500000000E+03  0.12500000000E+03 0.  0.
        -11    1    3    3    0    0 -0.14880359877E+02 -0.32291725429E+02 -0.10232657686E+01  0.35570039561E+02  0.51100000000E-03 0.  1.
         23    2    1    0    0    0  0.25776473435E+01  0.15120814721E+02 -0.28169147301E+02  0.92925334556E+02  0.87214297217E+02 0.  0.
         11    1    3    3    0    0  0.17458007220E+02  0.47412540150E+02 -0.27145881532E+02  0.57355294996E+02  0.51100000000E-03 0. -1.
         22    1    1    0    0    0 -0.25776473435E+01 -0.15120814721E+02  0.28169147301E+02  0.32074665444E+02  0.00000000000E+00 0. -1.
</event>
<event>
 5    1  0.6690694E-004  0.9118800E+02  0.7818608E-02  0.1130116E+00
         25   -1    0    0    0    0  0.00000000000E+00  0.00000000000E+00  0.99999998245E-14  0.12500000000E+03  0.12500000000E+03 0.  0.
        -11    1    3    3    0    0 -0.32934973088E+02 -0.15261569595E+02 -0.63983807409E+01  0.36858747065E+02  0.51100000000E-03 0.  1.
         23    2    1    0    0    0  0.52118061916E+01  0.27946301289E+02 -0.10625145331E+02  0.94651155000E+02  0.89653715763E+02 0.  0.
         11    1    3    3    0    0  0.38146779280E+02  0.43207870884E+02 -0.42267645900E+01  0.57792407935E+02  0.51100000000E-03 0. -1.
         22    1    1    0    0    0 -0.52118061916E+01 -0.27946301289E+02  0.10625145331E+02  0.30348845000E+02  0.00000000000E+00 0. -1.
</event>
<event>
 5    1  0.6690694E-004  0.9118800E+02  0.7818608E-02  0.1130116E+00
         25   -1    0    0    0    0  0.00000000000E+00  0.00000000000E+00  0.99999998245E-14  0.12500000000E+03  0.12500000000E+03 0.  0.
        -11    1    3    3    0    0  0.23384330270E+01 -0.23527387445E+02  0.24041520864E+02  0.33719444757E+02  0.51100000000E-03 0.  1.
         23    2    1    0    0    0 -0.68489409033E+01  0.16809175035E+01 -0.30068193620E+02  0.94115865842E+02  0.88904254456E+02 0.  0.
         11    1    3    3    0    0 -0.91873739303E+01  0.25208304949E+02 -0.54109714483E+02  0.60396421085E+02  0.51100000000E-03 0. -1.
         22    1    1    0    0    0  0.68489409033E+01 -0.16809175035E+01  0.30068193620E+02  0.30884134158E+02  0.00000000000E+00 0. -1.
</event>
<event>
 5    1  0.6690694E-004  0.9118800E+02  0.7818608E-02  0.1130116E+00
         25   -1    0    0    0    0  0.00000000000E+00  0.00000000000E+00  0.99999998245E-14  0.12500000000E+03  0.12500000000E+03 0.  0.
        -11    1    3    3    0    0 -0.56324142276E+01  0.85759979946E+01 -0.61099529523E+02  0.61955018681E+02  0.51100000000E-03 0. -1.
         23    2    1    0    0    0  0.27134178460E+01  0.63135967335E+01 -0.28723280259E+02  0.95466104744E+02  0.90782851828E+02 0.  0.
         11    1    3    3    0    0  0.83458320737E+01 -0.22624012612E+01  0.32376249264E+02  0.33511086063E+02  0.51100000000E-03 0.  1.
         22    1    1    0    0    0 -0.27134178460E+01 -0.63135967335E+01  0.28723280259E+02  0.29533895256E+02  0.00000000000E+00 0. -1.
</event>
<event>
 5    1  0.6690694E-004  0.9118800E+02  0.7818608E-02  0.1130116E+00
         25   -1    0    0    0    0  0.00000000000E+00  0.00000000000E+00  0.99999998245E-14  0.12500000000E+03  0.12500000000E+03 0.  0.
        -11    1    3    3    0    0  0.10202896364E+01  0.57941102723E+02  0.23791152501E+01  0.57998901415E+02  0.51100000000E-03 0. -1.
         23    2    1    0    0    0  0.16841782027E+02  0.24026535540E+02 -0.14827372106E+01  0.95621120825E+02  0.90996045004E+02 0.  0.
         11    1    3    3    0    0  0.15821492391E+02 -0.33914567183E+02 -0.38618524607E+01  0.37622219410E+02  0.51100000000E-03 0.  1.
         22    1    1    0    0    0 -0.16841782027E+02 -0.24026535540E+02  0.14827372106E+01  0.29378879175E+02  0.00000000000E+00 0. -1.
</event>
<event>
 5    1  0.6690694E-004  0.9118800E+02  0.7818608E-02  0.1130116E+00
         25   -1    0    0    0    0  0.00000000000E+00  0.00000000000E+00  0.99999998245E-14  0.12500000000E+03  0.12500000000E+03 0.  0.
        -11    1    3    3    0    0 -0.54637566655E+00 -0.29659347201E+02  0.21351725235E+02  0.36549576927E+02  0.51100000000E-03 0. -1.
         23    2    1    0    0    0 -0.17816668916E+02  0.14856024776E+02 -0.15701357955E+02  0.96988077449E+02  0.92854829504E+02 0.  0.
         11    1    3    3    0    0 -0.17270293249E+02  0.44515371977E+02 -0.37053083190E+02  0.60438500522E+02  0.51100000000E-03 0.  1.
         22    1    1    0    0    0  0.17816668916E+02 -0.14856024776E+02  0.15701357955E+02  0.28011922551E+02  0.00000000000E+00 0.  1.
</event>
<event>
 5    1  0.6690694E-004  0.9118800E+02  0.7818608E-02  0.1130116E+00
         25   -1    0    0    0    0  0.00000000000E+00  0.00000000000E+00  0.99999998245E-14  0.12500000000E+03  0.12500000000E+03 0.  0.
        -11    1    3    3    0    0  0.51930600715E+02 -0.17358624751E+02 -0.21868585101E+02  0.58960530513E+02  0.51100000000E-03 0.  1.
         23    2    1    0    0    0  0.16977971346E+02 -0.61987537608E+01 -0.23096570085E+02  0.95672067770E+02  0.91066003220E+02 0.  0.
         11    1    3    3    0    0 -0.34952629369E+02  0.11159870990E+02 -0.12279849842E+01  0.36711537256E+02  0.51100000000E-03 0. -1.
         22    1    1    0    0    0 -0.16977971346E+02  0.61987537608E+01  0.23096570085E+02  0.29327932230E+02  0.00000000000E+00 0.  1.
</event>
<event>
 5    1  0.6690694E-004  0.9118800E+02  0.7818608E-02  0.1130116E+00
         25   -1    0    0    0    0  0.00000000000E+00  0.00000000000E+00  0.99999998245E-14  0.12500000000E+03  0.12500000000E+03 0.  0.
        -11    1    3    3    0    0  0.25112327576E+02  0.49882798419E+02 -0.11635863305E+02  0.57046611552E+02  0.51100000000E-03 0.  1.
         23    2    1    0    0    0  0.25118614722E+02  0.14931981369E+02  0.43082105524E+01  0.95462404442E+02  0.90777756695E+02 0.  0.
         11    1    3    3    0    0  0.62871462491E-02 -0.34950817050E+02  0.15944073858E+02  0.38415792891E+02  0.51100000000E-03 0. -1.
         22    1    1    0    0    0 -0.25118614722E+02 -0.14931981369E+02 -0.43082105524E+01  0.29537595558E+02  0.00000000000E+00 0.  1.
</event>
<event>
 5    1  0.6690694E-004  0.9118800E+02  0.7818608E-02  0.1130116E+00
         25   -1    0    0    0    0  0.00000000000E+00  0.00000000000E+00  0.99999998245E-14  0.12500000000E+03  0.12500000000E+03 0.  0.
        -11    1    3    3    0    0  0.41115146118E+02  0.99576606589E+01  0.24290647566E+02  0.48781613396E+02  0.51100000000E-03 0.  1.
         23    2    1    0    0    0  0.64935061894E+01 -0.21824439473E+02  0.17531938198E+02  0.96262556865E+02  0.91872951494E+02 0.  0.
         11    1    3    3    0    0 -0.34621639928E+02 -0.31782100132E+02 -0.67587093676E+01  0.47480943469E+02  0.51100000000E-03 0. -1.
         22    1    1    0    0    0 -0.64935061894E+01  0.21824439473E+02 -0.17531938198E+02  0.28737443135E+02  0.00000000000E+00 0.  1.
</event>
<event>
 5    1  0.6690694E-004  0.9118800E+02  0.7818608E-02  0.1130116E+00
         25   -1    0    0    0    0  0.00000000000E+00  0.00000000000E+00  0.99999998245E-14  0.12500000000E+03  0.12500000000E+03 0.  0.
        -11    1    3    3    0    0 -0.12848591347E+02 -0.35953098178E+02 -0.39932385412E+02  0.55247687491E+02  0.51100000000E-03 0. -1.
         23    2    1    0    0    0 -0.81870078090E+01  0.27676666070E+01 -0.27488210601E+02  0.96185267703E+02  0.91767733576E+02 0.  0.
         11    1    3    3    0    0  0.46615835378E+01  0.38720764785E+02  0.12444174811E+02  0.40937580212E+02  0.51100000000E-03 0.  1.
         22    1    1    0    0    0  0.81870078090E+01 -0.27676666070E+01  0.27488210601E+02  0.28814732297E+02  0.00000000000E+00 0. -1.
</event>
<event>
 5    1  0.6690694E-004  0.9118800E+02  0.7818608E-02  0.1130116E+00
         25   -1    0    0    0    0  0.00000000000E+00  0.00000000000E+00  0.99999998245E-14  0.12500000000E+03  0.12500000000E+03 0.  0.
        -11    1    3    3    0    0 -0.16040016233E+02 -0.46504189725E+02 -0.16755714162E+02  0.51968026132E+02  0.51100000000E-03 0. -1.
         23    2    1    0    0    0 -0.35437879268E+01 -0.21391703653E+02  0.18132792774E+02  0.96734091349E+02  0.92512284792E+02 0.  0.
         11    1    3    3    0    0  0.12496228306E+02  0.25112486072E+02  0.34888506936E+02  0.44766065217E+02  0.51100000000E-03 0.  1.
         22    1    1    0    0    0  0.35437879268E+01  0.21391703653E+02 -0.18132792774E+02  0.28265908651E+02  0.00000000000E+00 0. -1.
</event>
<event>
 5    1  0.6690694E-004  0.9118800E+02  0.7818608E-02  0.1130116E+00
         25   -1    0    0    0    0  0.00000000000E+00  0.00000000000E+00  0.99999998245E-14  0.12500000000E+03  0.12500000000E+03 0.  0.
        -11    1    3    3    0    0  0.19597805535E+02  0.39088176521E+02 -0.29463077181E+01  0.43825109868E+02  0.51100000000E-03 0. -1.
         23    2    1    0    0    0 -0.11778898216E+02  0.20207578430E+01 -0.25097225144E+02  0.97202578980E+02  0.93143141160E+02 0.  0.
         11    1    3    3    0    0 -0.31376703751E+02 -0.37067418678E+02 -0.22150917425E+02  0.53377469112E+02  0.51100000000E-03 0.  1.
         22    1    1    0    0    0  0.11778898216E+02 -0.20207578430E+01  0.25097225144E+02  0.27797421020E+02  0.00000000000E+00 0.  1.
</event>
<event>
 5    1  0.6690694E-004  0.9118800E+02  0.7818608E-02  0.1130116E+00
         25   -1    0    0    0    0  0.00000000000E+00  0.00000000000E+00  0.99999998245E-14  0.12500000000E+03  0.12500000000E+03 0.  0.
        -11    1    3    3    0    0  0.50000337810E+01 -0.17098166620E+02  0.29674834094E+02  0.34611319223E+02  0.51100000000E-03 0.  1.
         23    2    1    0    0    0  0.15273988519E+02 -0.10216843380E+02 -0.26844972362E+02  0.92467997986E+02  0.86556337125E+02 0.  0.
         11    1    3    3    0    0  0.10273954738E+02  0.68813232406E+01 -0.56519806455E+02  0.57856678763E+02  0.51100000000E-03 0. -1.
         22    1    1    0    0    0 -0.15273988519E+02  0.10216843380E+02  0.26844972362E+02  0.32532002014E+02  0.00000000000E+00 0. -1.
</event>
<event>
 5    1  0.6690694E-004  0.9118800E+02  0.7818608E-02  0.1130116E+00
         25   -1    0    0    0    0  0.00000000000E+00  0.00000000000E+00  0.99999998245E-14  0.12500000000E+03  0.12500000000E+03 0.  0.
        -11    1    3    3    0    0 -0.22037340494E+01  0.14149127506E+02 -0.34779407942E+02  0.37611985722E+02  0.51100000000E-03 0. -1.
         23    2    1    0    0    0 -0.13830170872E+02  0.16917920977E+02  0.21021530905E+02  0.94678482259E+02  0.89691808794E+02 0.  0.
         11    1    3    3    0    0 -0.11626436822E+02  0.27687934708E+01  0.55800938847E+02  0.57066496537E+02  0.51100000000E-03 0.  1.
         22    1    1    0    0    0  0.13830170872E+02 -0.16917920977E+02 -0.21021530905E+02  0.30321517741E+02  0.00000000000E+00 0.  1.
</event>
<event>
 5    1  0.6690694E-004  0.9118800E+02  0.7818608E-02  0.1130116E+00
         25   -1    0    0    0    0  0.00000000000E+00  0.00000000000E+00  0.99999998245E-14  0.12500000000E+03  0.12500000000E+03 0.  0.
        -11    1    3    3    0    0  0.17899246062E+02 -0.15551019975E+02  0.24615930666E+02  0.34178374372E+02  0.51100000000E-03 0. -1.
         23    2    1    0    0    0 -0.20193532687E+02  0.22224307460E+02 -0.35371254538E+01  0.94764096492E+02  0.89811046776E+02 0.  0.
         11    1    3    3    0    0 -0.38092778749E+02  0.37775327435E+02 -0.28153056120E+02  0.60585722120E+02  0.51100000000E-03 0.  1.
         22    1    1    0    0    0  0.20193532687E+02 -0.22224307460E+02  0.35371254538E+01  0.30235903508E+02  0.00000000000E+00 0.  1.
</event>
<event>
 5    1  0.6690694E-004  0.9118800E+02  0.7818608E-02  0.1130116E+00
         25   -1    0    0    0    0  0.00000000000E+00  0.00000000000E+00  0.99999998245E-14  0.12500000000E+03  0.12500000000E+03 0.  0.
        -11    1    3    3    0    0  0.39174138130E+01  0.39637301182E+02  0.26759305762E+02  0.47984604001E+02  0.51100000000E-03 0. -1.
         23    2    1    0    0    0  0.26712521236E+02  0.87710442409E+01 -0.32501252343E+01  0.96697114601E+02  0.92462309349E+02 0.  0.
         11    1    3    3    0    0  0.22795107423E+02 -0.30866256941E+02 -0.30009430996E+02  0.48712510600E+02  0.51100000000E-03 0.  1.
         22    1    1    0    0    0 -0.26712521236E+02 -0.87710442409E+01  0.32501252343E+01  0.28302885399E+02  0.00000000000E+00 0.  1.
</event>
<event>
 5    1  0.6690694E-004  0.9118800E+02  0.7818608E-02  0.1130116E+00
         25   -1    0    0    0    0  0.00000000000E+00  0.00000000000E+00  0.99999998245E-14  0.12500000000E+03  0.12500000000E+03 0.  0.
        -11    1    3    3    0    0  0.15552339146E+02  0.46779837878E+02  0.97016282500E+01  0.50242910701E+02  0.51100000000E-03 0.  1.
         23    2    1    0    0    0  0.16313630167E+01  0.17404501001E+02  0.31214651010E+02  0.89223856579E+02  0.81737165015E+02 0.  0.
         11    1    3    3    0    0 -0.13920976129E+02 -0.29375336877E+02  0.21513022760E+02  0.38980945878E+02  0.51100000000E-03 0. -1.
         22    1    1    0    0    0 -0.16313630167E+01 -0.17404501001E+02 -0.31214651010E+02  0.35776143421E+02  0.00000000000E+00 0. -1.
</event>
<event>
 5    1  0.6690694E-004  0.9118800E+02  0.7818608E-02  0.1130116E+00
         25   -1    0    0    0    0  0.00000000000E+00  0.00000000000E+00  0.99999998245E-14  0.12500000000E+03  0.12500000000E+03 0.  0.
        -11    1    3    3    0    0 -0.22878098271E+02  0.16325604317E+02  0.16578775809E+02  0.32631097812E+02  0.51100000000E-03 0.  1.
         23    2    1    0    0    0 -0.77737449512E+01 -0.31093778981E+02 -0.12874057446E+02  0.90460232239E+02  0.83606567085E+02 0.  0.
         11    1    3    3    0    0  0.15104353320E+02 -0.47419383298E+02 -0.29452833255E+02  0.57829134427E+02  0.51100000000E-03 0. -1.
         22    1    1    0    0    0  0.77737449512E+01  0.31093778981E+02  0.12874057446E+02  0.34539767761E+02  0.00000000000E+00 0. -1.
</event>
<event>
 5    1  0.6690694E-004  0.9118800E+02  0.7818608E-02  0.1130116E+00
         25   -1    0    0    0    0  0.00000000000E+00  0.00000000000E+00  0.99999998245E-14  0.12500000000E+03  0.12500000000E+03 0.  0.
        -11    1    3    3    0    0 -0.16221476702E+02 -0.15854486348E+02  0.40349068305E+02  0.46287669601E+02  0.51100000000E-03 0. -1.
         23    2    1    0    0    0 -0.17464283526E+02 -0.24003221367E+02 -0.71254682731E+01  0.94472502016E+02  0.89404281239E+02 0.  0.
         11    1    3    3    0    0 -0.12428068233E+01 -0.81487350198E+01 -0.47474536578E+02  0.48184832414E+02  0.51100000000E-03 0.  1.
         22    1    1    0    0    0  0.17464283526E+02  0.24003221367E+02  0.71254682731E+01  0.30527497984E+02  0.00000000000E+00 0. -1.
</event>
<event>
 5    1  0.6690694E-004  0.9118800E+02  0.7818608E-02  0.1130116E+00
         25   -1    0    0    0    0  0.00000000000E+00  0.00000000000E+00  0.99999998245E-14  0.12500000000E+03  0.12500000000E+03 0.  0.
        -11    1    3    3    0    0 -0.31124288565E+02  0.29592749963E+02  0.43974284149E+02  0.61466981834E+02  0.51100000000E-03 0.  1.
         23    2    1    0    0    0 -0.83070941756E+01  0.18717470224E+02  0.21785173935E+02  0.95101081815E+02  0.90278848319E+02 0.  0.
         11    1    3    3    0    0  0.22817194390E+02 -0.10875279740E+02 -0.22189110214E+02  0.33634099982E+02  0.51100000000E-03 0. -1.
         22    1    1    0    0    0  0.83070941756E+01 -0.18717470224E+02 -0.21785173935E+02  0.29898918185E+02  0.00000000000E+00 0.  1.
</event>
<event>
 5    1  0.6690694E-004  0.9118800E+02  0.7818608E-02  0.1130116E+00
         25   -1    0    0    0    0  0.00000000000E+00  0.00000000000E+00  0.99999998245E-14  0.12500000000E+03  0.12500000000E+03 0.  0.
        -11    1    3    3    0    0 -0.37428205765E+02  0.28063866524E+01 -0.32314971802E+02  0.49527808307E+02  0.51100000000E-03 0. -1.
         23    2    1    0    0    0 -0.20395646761E+02  0.22800843696E+02  0.37882222020E+01  0.94174499072E+02  0.88986654999E+02 0.  0.
         11    1    3    3    0    0  0.17032559004E+02  0.19994457044E+02  0.36103194004E+02  0.44646690765E+02  0.51100000000E-03 0.  1.
         22    1    1    0    0    0  0.20395646761E+02 -0.22800843696E+02 -0.37882222020E+01  0.30825500928E+02  0.00000000000E+00 0. -1.
</event>
<event>
 5    1  0.6690694E-004  0.9118800E+02  0.7818608E-02  0.1130116E+00
         25   -1    0    0    0    0  0.00000000000E+00  0.00000000000E+00  0.99999998245E-14  0.12500000000E+03  0.12500000000E+03 0.  0.
        -11    1    3    3    0    0 -0.35690253748E+02  0.31870907802E+02  0.40706702101E+01  0.48022071310E+02  0.51100000000E-03 0.  1.
         23    2    1    0    0    0 -0.35072037964E+01  0.96776310221E+01  0.28891644829E+02  0.94329425150E+02  0.89204014975E+02 0.  0.
         11    1    3    3    0    0  0.32183049951E+02 -0.22193276780E+02  0.24820974619E+02  0.46307353840E+02  0.51100000000E-03 0. -1.
         22    1    1    0    0    0  0.35072037964E+01 -0.96776310221E+01 -0.28891644829E+02  0.30670574850E+02  0.00000000000E+00 0. -1.
</event>
<event>
 5    1  0.6690694E-004  0.9118800E+02  0.7818608E-02  0.1130116E+00
         25   -1    0    0    0    0  0.00000000000E+00  0.00000000000E+00  0.99999998245E-14  0.12500000000E+03  0.12500000000E+03 0.  0.
        -11    1    3    3    0    0 -0.38749079101E+02  0.27505507733E+02 -0.93585288333E+01  0.48431664736E+02  0.51100000000E-03 0.  1.
         23    2    1    0    0    0 -0.16524392548E+02 -0.15623419761E+02 -0.15704625373E+02  0.97363392896E+02  0.93358707275E+02 0.  0.
         11    1    3    3    0    0  0.22224686553E+02 -0.43128927494E+02 -0.63460965399E+01  0.48931728160E+02  0.51100000000E-03 0. -1.
         22    1    1    0    0    0  0.16524392548E+02  0.15623419761E+02  0.15704625373E+02  0.27636607104E+02  0.00000000000E+00 0.  1.
</event>
<event>
 5    1  0.6690694E-004  0.9118800E+02  0.7818608E-02  0.1130116E+00
         25   -1    0    0    0    0  0.00000000000E+00  0.00000000000E+00  0.99999998245E-14  0.12500000000E+03  0.12500000000E+03 0.  0.
        -11    1    3    3    0    0  0.33617223612E+01  0.34923868501E+02 -0.39538000670E+01  0.35307368969E+02  0.51100000000E-03 0.  1.
         23    2    1    0    0    0 -0.22170547898E+02 -0.11189095321E+02 -0.22802055607E+02  0.91285570032E+02  0.84831553728E+02 0.  0.
         11    1    3    3    0    0 -0.25532270259E+02 -0.46112963822E+02 -0.18848255540E+02  0.55978201062E+02  0.51100000000E-03 0. -1.
         22    1    1    0    0    0  0.22170547898E+02  0.11189095321E+02  0.22802055607E+02  0.33714429968E+02  0.00000000000E+00 0. -1.
</event>
<event>
 5    1  0.6690694E-004  0.9118800E+02  0.7818608E-02  0.1130116E+00
         25   -1    0    0    0    0  0.00000000000E+00  0.00000000000E+00  0.99999998245E-14  0.12500000000E+03  0.12500000000E+03 0.  0.
        -11    1    3    3    0    0  0.26922310604E+02  0.14895113678E+02 -0.32087792508E+02  0.44455614360E+02  0.51100000000E-03 0.  1.
         23    2    1    0    0    0 -0.98072815452E+01 -0.19395933511E+02 -0.18367585855E+02  0.96543836903E+02  0.92254860174E+02 0.  0.
         11    1    3    3    0    0 -0.36729592150E+02 -0.34291047190E+02  0.13720206653E+02  0.52088222543E+02  0.51100000000E-03 0. -1.
         22    1    1    0    0    0  0.98072815452E+01  0.19395933511E+02  0.18367585855E+02  0.28456163097E+02  0.00000000000E+00 0. -1.
</event>
<event>
 5    1  0.6690694E-004  0.9118800E+02  0.7818608E-02  0.1130116E+00
         25   -1    0    0    0    0  0.00000000000E+00  0.00000000000E+00  0.99999998245E-14  0.12500000000E+03  0.12500000000E+03 0.  0.
        -11    1    3    3    0    0 -0.25587367003E+02  0.12230073314E+02  0.18751141726E+02  0.33998431724E+02  0.51100000000E-03 0.  1.
         23    2    1    0    0    0  0.22133140632E+02 -0.18659072328E+02 -0.50295208008E+01  0.95617471622E+02  0.90991032006E+02 0.  0.
         11    1    3    3    0    0  0.47720507635E+02 -0.30889145642E+02 -0.23780662527E+02  0.61619039898E+02  0.51100000000E-03 0. -1.
         22    1    1    0    0    0 -0.22133140632E+02  0.18659072328E+02  0.50295208008E+01  0.29382528378E+02  0.00000000000E+00 0. -1.
</event>
<event>
 5    1  0.6690694E-004  0.9118800E+02  0.7818608E-02  0.1130116E+00
         25   -1    0    0    0    0  0.00000000000E+00  0.00000000000E+00  0.99999998245E-14  0.12500000000E+03  0.12500000000E+03 0.  0.
        -11    1    3    3    0    0  0.21939412449E+02  0.31199099392E+02 -0.22464820421E+02  0.44264994954E+02  0.51100000000E-03 0. -1.
         23    2    1    0    0    0 -0.15573525230E+02 -0.50196261117E+01 -0.23434753228E+02  0.96418205213E+02  0.92084479166E+02 0.  0.
         11    1    3    3    0    0 -0.37512937679E+02 -0.36218725504E+02 -0.96993280698E+00  0.52153210259E+02  0.51100000000E-03 0.  1.
         22    1    1    0    0    0  0.15573525230E+02  0.50196261117E+01  0.23434753228E+02  0.28581794787E+02  0.00000000000E+00 0.  1.
</event>
<event>
 5    1  0.6690694E-004  0.9118800E+02  0.7818608E-02  0.1130116E+00
         25   -1    0    0    0    0  0.00000000000E+00  0.00000000000E+00  0.99999998245E-14  0.12500000000E+03  0.12500000000E+03 0.  0.
        -11    1    3    3    0    0 -0.21422734548E+02  0.50012145356E+02  0.14706496533E+02  0.56359819723E+02  0.51100000000E-03 0.  1.
         23    2    1    0    0    0 -0.25845020226E+02  0.12022299485E+02  0.94736515159E+01  0.94962509618E+02  0.90086777079E+02 0.  0.
         11    1    3    3    0    0 -0.44222856779E+01 -0.37989845871E+02 -0.52328450176E+01  0.38602689895E+02  0.51100000000E-03 0. -1.
         22    1    1    0    0    0  0.25845020226E+02 -0.12022299485E+02 -0.94736515159E+01  0.30037490382E+02  0.00000000000E+00 0.  1.
</event>
<event>
 5    1  0.6690694E-004  0.9118800E+02  0.7818608E-02  0.1130116E+00
         25   -1    0    0    0    0  0.00000000000E+00  0.00000000000E+00  0.99999998245E-14  0.12500000000E+03  0.12500000000E+03 0.  0.
        -11    1    3    3    0    0  0.15024340341E+02 -0.23767902789E+02  0.39754734942E+02  0.48693767119E+02  0.51100000000E-03 0. -1.
         23    2    1    0    0    0  0.59433240838E+01 -0.21886257877E+02 -0.10650307271E+02  0.99944852225E+02  0.96753361990E+02 0.  0.
         11    1    3    3    0    0 -0.90810162568E+01  0.18816449118E+01 -0.50405042213E+02  0.51251085106E+02  0.51100000000E-03 0.  1.
         22    1    1    0    0    0 -0.59433240838E+01  0.21886257877E+02  0.10650307271E+02  0.25055147775E+02  0.00000000000E+00 0. -1.
</event>
<event>
 5    1  0.6690694E-004  0.9118800E+02  0.7818608E-02  0.1130116E+00
         25   -1    0    0    0    0  0.00000000000E+00  0.00000000000E+00  0.99999998245E-14  0.12500000000E+03  0.12500000000E+03 0.  0.
        -11    1    3    3    0    0 -0.28800774255E+02  0.44523057182E+02 -0.72663001212E+01  0.53521830464E+02  0.51100000000E-03 0.  1.
         23    2    1    0    0    0 -0.23984821326E+02  0.30206438797E+01 -0.15739653091E+02  0.96153290952E+02  0.91724166597E+02 0.  0.
         11    1    3    3    0    0  0.48159529293E+01 -0.41502413302E+02 -0.84733529696E+01  0.42631460488E+02  0.51100000000E-03 0. -1.
         22    1    1    0    0    0  0.23984821326E+02 -0.30206438797E+01  0.15739653091E+02  0.28846709048E+02  0.00000000000E+00 0.  1.
</event>
<event>
 5    1  0.6690694E-004  0.9118800E+02  0.7818608E-02  0.1130116E+00
         25   -1    0    0    0    0  0.00000000000E+00  0.00000000000E+00  0.99999998245E-14  0.12500000000E+03  0.12500000000E+03 0.  0.
        -11    1    3    3    0    0 -0.29660522469E+02 -0.11704777801E+02  0.32624626953E+02  0.45619236081E+02  0.51100000000E-03 0. -1.
         23    2    1    0    0    0 -0.17225868829E+02  0.16173925437E+02 -0.11058445573E+02  0.98911388702E+02  0.95408842229E+02 0.  0.
         11    1    3    3    0    0  0.12434653640E+02  0.27878703238E+02 -0.43683072526E+02  0.53292152621E+02  0.51100000000E-03 0.  1.
         22    1    1    0    0    0  0.17225868829E+02 -0.16173925437E+02  0.11058445573E+02  0.26088611298E+02  0.00000000000E+00 0.  1.
</event>
<event>
 5    1  0.6690694E-004  0.9118800E+02  0.7818608E-02  0.1130116E+00
         25   -1    0    0    0    0  0.00000000000E+00  0.00000000000E+00  0.99999998245E-14  0.12500000000E+03  0.12500000000E+03 0.  0.
        -11    1    3    3    0    0  0.27022039938E+02 -0.14642540251E+02 -0.27851980331E+02  0.41476830111E+02  0.51100000000E-03 0. -1.
         23    2    1    0    0    0 -0.34640057224E+00  0.28036034273E+02 -0.10338277652E+02  0.95116573223E+02  0.90300295159E+02 0.  0.
         11    1    3    3    0    0 -0.27368440510E+02  0.42678574524E+02  0.17513702680E+02  0.53639743112E+02  0.51100000000E-03 0.  1.
         22    1    1    0    0    0  0.34640057224E+00 -0.28036034273E+02  0.10338277652E+02  0.29883426777E+02  0.00000000000E+00 0.  1.
</event>
<event>
 5    1  0.6690694E-004  0.9118800E+02  0.7818608E-02  0.1130116E+00
         25   -1    0    0    0    0  0.00000000000E+00  0.00000000000E+00  0.99999998245E-14  0.12500000000E+03  0.12500000000E+03 0.  0.
        -11    1    3    3    0    0 -0.27106635151E+01  0.33613824271E+02 -0.66142644046E-01  0.33723007783E+02  0.51100000000E-03 0.  1.
         23    2    1    0    0    0  0.59880425124E+01 -0.28193001750E+02  0.12212503930E+01  0.96152236597E+02  0.91722729731E+02 0.  0.
         11    1    3    3    0    0  0.86987060275E+01 -0.61806826021E+02  0.12873930371E+01  0.62429228815E+02  0.51100000000E-03 0. -1.
         22    1    1    0    0    0 -0.59880425124E+01  0.28193001750E+02 -0.12212503930E+01  0.28847763403E+02  0.00000000000E+00 0. -1.
</event>
<event>
 5    1  0.6690694E-004  0.9118800E+02  0.7818608E-02  0.1130116E+00
         25   -1    0    0    0    0  0.00000000000E+00  0.00000000000E+00  0.99999998245E-14  0.12500000000E+03  0.12500000000E+03 0.  0.
        -11    1    3    3    0    0  0.32395489843E+02  0.41512944301E+02 -0.15851227092E+02  0.54991396666E+02  0.51100000000E-03 0. -1.
         23    2    1    0    0    0  0.16972574635E+02  0.40324214091E+01 -0.22985408786E+02  0.96144190720E+02  0.91711764131E+02 0.  0.
         11    1    3    3    0    0 -0.15422915208E+02 -0.37480522892E+02 -0.71341816940E+01  0.41152794054E+02  0.51100000000E-03 0.  1.
         22    1    1    0    0    0 -0.16972574635E+02 -0.40324214091E+01  0.22985408786E+02  0.28855809280E+02  0.00000000000E+00 0. -1.
</event>
<event>
 5    1  0.6690694E-004  0.9118800E+02  0.7818608E-02  0.1130116E+00
         25   -1    0    0    0    0  0.00000000000E+00  0.00000000000E+00  0.99999998245E-14  0.12500000000E+03  0.12500000000E+03 0.  0.
        -11    1    3    3    0    0  0.42211586140E+02  0.35578574664E+02  0.28739822586E+02  0.62238495982E+02  0.51100000000E-03 0.  1.
         23    2    1    0    0    0  0.21632445122E+02  0.16304311145E+02  0.98541836179E+01  0.96174695515E+02  0.91753331704E+02 0.  0.
         11    1    3    3    0    0 -0.20579141018E+02 -0.19274263519E+02 -0.18885638969E+02  0.33936199533E+02  0.51100000000E-03 0. -1.
         22    1    1    0    0    0 -0.21632445122E+02 -0.16304311145E+02 -0.98541836179E+01  0.28825304485E+02  0.00000000000E+00 0.  1.
</event>
<event>
 5    1  0.6690694E-004  0.9118800E+02  0.7818608E-02  0.1130116E+00
         25   -1    0    0    0    0  0.00000000000E+00  0.00000000000E+00  0.99999998245E-14  0.12500000000E+03  0.12500000000E+03 0.  0.
        -11    1    3    3    0    0 -0.18983443227E+02  0.49165011478E+02  0.24023515759E+02  0.57919761568E+02  0.51100000000E-03 0.  1.
         23    2    1    0    0    0 -0.22417435800E+02  0.13046739354E+02  0.13829776761E+02  0.95605756331E+02  0.90974936563E+02 0.  0.
         11    1    3    3    0    0 -0.34339925726E+01 -0.36118272124E+02 -0.10193738997E+02  0.37685994763E+02  0.51100000000E-03 0. -1.
         22    1    1    0    0    0  0.22417435800E+02 -0.13046739354E+02 -0.13829776761E+02  0.29394243669E+02  0.00000000000E+00 0.  1.
</event>
<event>
 5    1  0.6690694E-004  0.9118800E+02  0.7818608E-02  0.1130116E+00
         25   -1    0    0    0    0  0.00000000000E+00  0.00000000000E+00  0.99999998245E-14  0.12500000000E+03  0.12500000000E+03 0.  0.
        -11    1    3    3    0    0  0.14540603613E+02 -0.20053658676E+02 -0.28887157153E+02  0.38053202603E+02  0.51100000000E-03 0.  1.
         23    2    1    0    0    0 -0.13571944371E+02  0.25088321253E+02 -0.65520018036E+01  0.95733120000E+02  0.91149766867E+02 0.  0.
         11    1    3    3    0    0 -0.28112547984E+02  0.45141979930E+02  0.22335155349E+02  0.57679917396E+02  0.51100000000E-03 0. -1.
         22    1    1    0    0    0  0.13571944371E+02 -0.25088321253E+02  0.65520018036E+01  0.29266880000E+02  0.00000000000E+00 0. -1.
</event>
<event>
 5    1  0.6690694E-004  0.9118800E+02  0.7818608E-02  0.1130116E+00
         25   -1    0    0    0    0  0.00000000000E+00  0.00000000000E+00  0.99999998245E-14  0.12500000000E+03  0.12500000000E+03 0.  0.
        -11    1    3    3    0    0 -0.50428597323E+02 -0.32448764624E+02  0.75540959379E+01  0.60440302111E+02  0.51100000000E-03 0.  1.
         23    2    1    0    0    0 -0.15962978333E+02 -0.92647455376E+01 -0.81188637177E+01  0.10483646521E+03  0.10287913444E+03 0.  0.
         11    1    3    3    0    0  0.34465618990E+02  0.23184019086E+02 -0.15672959656E+02  0.44396163100E+02  0.51100000000E-03 0. -1.
         22    1    1    0    0    0  0.15962978333E+02  0.92647455376E+01  0.81188637177E+01  0.20163534789E+02  0.00000000000E+00 0.  1.
</event>
<event>
 5    1  0.6690694E-004  0.9118800E+02  0.7818608E-02  0.1130116E+00
         25   -1    0    0    0    0  0.00000000000E+00  0.00000000000E+00  0.99999998245E-14  0.12500000000E+03  0.12500000000E+03 0.  0.
        -11    1    3    3    0    0  0.35556089951E+02  0.51657167309E+01  0.98747937413E+01  0.37261665471E+02  0.51100000000E-03 0.  1.
         23    2    1    0    0    0 -0.22572592624E+02  0.40866948969E+01 -0.11668330146E+02  0.99263392972E+02  0.95868911764E+02 0.  0.
         11    1    3    3    0    0 -0.58128682575E+02 -0.10790218339E+01 -0.21543123887E+02  0.62001727501E+02  0.51100000000E-03 0. -1.
         22    1    1    0    0    0  0.22572592624E+02 -0.40866948969E+01  0.11668330146E+02  0.25736607028E+02  0.00000000000E+00 0. -1.
</event>
<event>
 5    1  0.6690694E-004  0.9118800E+02  0.7818608E-02  0.1130116E+00
         25   -1    0    0    0    0  0.00000000000E+00  0.00000000000E+00  0.99999998245E-14  0.12500000000E+03  0.12500000000E+03 0.  0.
        -11    1    3    3    0    0 -0.80026386500E+01 -0.31840852084E+02  0.12659676052E+02  0.35187348363E+02  0.51100000000E-03 0. -1.
         23    2    1    0    0    0  0.22385490686E+02  0.18384611464E+02  0.11301911221E+02  0.93905992069E+02  0.88608679131E+02 0.  0.
         11    1    3    3    0    0  0.30388129336E+02  0.50225463548E+02 -0.13577648307E+01  0.58718643707E+02  0.51100000000E-03 0.  1.
         22    1    1    0    0    0 -0.22385490686E+02 -0.18384611464E+02 -0.11301911221E+02  0.31094007931E+02  0.00000000000E+00 0.  1.
</event>
<event>
 5    1  0.6690694E-004  0.9118800E+02  0.7818608E-02  0.1130116E+00
         25   -1    0    0    0    0  0.00000000000E+00  0.00000000000E+00  0.99999998245E-14  0.12500000000E+03  0.12500000000E+03 0.  0.
        -11    1    3    3    0    0  0.33523205720E+02  0.16515036017E+02 -0.29541489980E+02  0.47636659905E+02  0.51100000000E-03 0. -1.
         23    2    1    0    0    0 -0.37215924691E+01 -0.29704710329E+01 -0.34689902350E+02  0.89984813670E+02  0.82892722343E+02 0.  0.
         11    1    3    3    0    0 -0.37244798189E+02 -0.19485507050E+02 -0.51484123697E+01  0.42348153765E+02  0.51100000000E-03 0.  1.
         22    1    1    0    0    0  0.37215924691E+01  0.29704710329E+01  0.34689902350E+02  0.35015186330E+02  0.00000000000E+00 0.  1.
</event>
<event>
 5    1  0.6690694E-004  0.9118800E+02  0.7818608E-02  0.1130116E+00
         25   -1    0    0    0    0  0.00000000000E+00  0.00000000000E+00  0.99999998245E-14  0.12500000000E+03  0.12500000000E+03 0.  0.
        -11    1    3    3    0    0  0.22107577064E+02  0.85366802676E+01 -0.29788911919E+02  0.38065721420E+02  0.51100000000E-03 0. -1.
         23    2    1    0    0    0 -0.22147243292E+02  0.20286112396E+02  0.36235468031E+01  0.94748440817E+02  0.89789254392E+02 0.  0.
         11    1    3    3    0    0 -0.44254820356E+02  0.11749432128E+02  0.33412458722E+02  0.56682719397E+02  0.51100000000E-03 0.  1.
         22    1    1    0    0    0  0.22147243292E+02 -0.20286112396E+02 -0.36235468031E+01  0.30251559183E+02  0.00000000000E+00 0.  1.
</event>
<event>
 5    1  0.6690694E-004  0.9118800E+02  0.7818608E-02  0.1130116E+00
         25   -1    0    0    0    0  0.00000000000E+00  0.00000000000E+00  0.99999998245E-14  0.12500000000E+03  0.12500000000E+03 0.  0.
        -11    1    3    3    0    0  0.16861451651E-01 -0.11503561965E+02 -0.56636263406E+02  0.57792720606E+02  0.51100000000E-03 0. -1.
         23    2    1    0    0    0  0.55085354548E+01  0.11139982172E+02 -0.24981037486E+02  0.97098469585E+02  0.93003319275E+02 0.  0.
         11    1    3    3    0    0  0.54916740031E+01  0.22643544137E+02  0.31655225920E+02  0.39305748979E+02  0.51100000000E-03 0.  1.
         22    1    1    0    0    0 -0.55085354548E+01 -0.11139982172E+02  0.24981037486E+02  0.27901530415E+02  0.00000000000E+00 0. -1.
</event>
<event>
 5    1  0.6690694E-004  0.9118800E+02  0.7818608E-02  0.1130116E+00
         25   -1    0    0    0    0  0.00000000000E+00  0.00000000000E+00  0.99999998245E-14  0.12500000000E+03  0.12500000000E+03 0.  0.
        -11    1    3    3    0    0  0.64748703535E+01 -0.46865878995E+02  0.39782158664E+02  0.61813871487E+02  0.51100000000E-03 0. -1.
         23    2    1    0    0    0 -0.19567181291E+01 -0.21812504887E+02  0.23582421216E+02  0.92817012169E+02  0.87058905589E+02 0.  0.
         11    1    3    3    0    0 -0.84315884827E+01  0.25053374107E+02 -0.16199737448E+02  0.31003140682E+02  0.51100000000E-03 0.  1.
         22    1    1    0    0    0  0.19567181291E+01  0.21812504887E+02 -0.23582421216E+02  0.32182987831E+02  0.00000000000E+00 0. -1.
</event>
<event>
 5    1  0.6690694E-004  0.9118800E+02  0.7818608E-02  0.1130116E+00
         25   -1    0    0    0    0  0.00000000000E+00  0.00000000000E+00  0.99999998245E-14  0.12500000000E+03  0.12500000000E+03 0.  0.
        -11    1    3    3    0    0  0.25496540946E+02  0.31869851876E+02 -0.26297163111E+02  0.48552052962E+02  0.51100000000E-03 0. -1.
         23    2    1    0    0    0 -0.95840608586E+01  0.27373760652E+02  0.47462842940E+01  0.95611155018E+02  0.90982354083E+02 0.  0.
         11    1    3    3    0    0 -0.35080601805E+02 -0.44960912246E+01  0.31043447405E+02  0.47059102056E+02  0.51100000000E-03 0.  1.
         22    1    1    0    0    0  0.95840608586E+01 -0.27373760652E+02 -0.47462842940E+01  0.29388844982E+02  0.00000000000E+00 0. -1.
</event>
<event>
 5    1  0.6690694E-004  0.9118800E+02  0.7818608E-02  0.1130116E+00
         25   -1    0    0    0    0  0.00000000000E+00  0.00000000000E+00  0.99999998245E-14  0.12500000000E+03  0.12500000000E+03 0.  0.
        -11    1    3    3    0    0 -0.20702725546E+02  0.30181527855E+01  0.51835082084E+02  0.55898012722E+02  0.51100000000E-03 0. -1.
         23    2    1    0    0    0 -0.24598822745E+02 -0.12795522773E+02  0.23173998857E+02  0.88863291426E+02  0.81183882985E+02 0.  0.
         11    1    3    3    0    0 -0.38960971994E+01 -0.15813675559E+02 -0.28661083227E+02  0.32965278705E+02  0.51100000000E-03 0.  1.
         22    1    1    0    0    0  0.24598822745E+02  0.12795522773E+02 -0.23173998857E+02  0.36136708574E+02  0.00000000000E+00 0. -1.
</event>
<event>
 5    1  0.6690694E-004  0.9118800E+02  0.7818608E-02  0.1130116E+00
         25   -1    0    0    0    0  0.00000000000E+00  0.00000000000E+00  0.99999998245E-14  0.12500000000E+03  0.12500000000E+03 0.  0.
        -11    1    3    3    0    0 -0.61420867582E+01 -0.26462105636E+02  0.17984367776E+02  0.32579222658E+02  0.51100000000E-03 0.  1.
         23    2    1    0    0    0  0.14467749725E+02  0.28357014059E+02  0.96526093215E+01  0.91734268456E+02  0.85490157994E+02 0.  0.
         11    1    3    3    0    0  0.20609836484E+02  0.54819119696E+02 -0.83317584544E+01  0.59155045797E+02  0.51100000000E-03 0. -1.
         22    1    1    0    0    0 -0.14467749725E+02 -0.28357014059E+02 -0.96526093215E+01  0.33265731544E+02  0.00000000000E+00 0.  1.
</event>
<event>
 5    1  0.6690694E-004  0.9118800E+02  0.7818608E-02  0.1130116E+00
         25   -1    0    0    0    0  0.00000000000E+00  0.00000000000E+00  0.99999998245E-14  0.12500000000E+03  0.12500000000E+03 0.  0.
        -11    1    3    3    0    0 -0.28661121386E+02 -0.19263612576E+02  0.36288117431E+02  0.50093653446E+02  0.51100000000E-03 0.  1.
         23    2    1    0    0    0 -0.30415491990E+02  0.82977148769E+01  0.30235617908E+01  0.93328306786E+02  0.87789957834E+02 0.  0.
         11    1    3    3    0    0 -0.17543706034E+01  0.27561327453E+02 -0.33264555641E+02  0.43234653340E+02  0.51100000000E-03 0. -1.
         22    1    1    0    0    0  0.30415491990E+02 -0.82977148769E+01 -0.30235617908E+01  0.31671693214E+02  0.00000000000E+00 0.  1.
</event>
<event>
 5    1  0.6690694E-004  0.9118800E+02  0.7818608E-02  0.1130116E+00
         25   -1    0    0    0    0  0.00000000000E+00  0.00000000000E+00  0.99999998245E-14  0.12500000000E+03  0.12500000000E+03 0.  0.
        -11    1    3    3    0    0  0.14651659592E+02 -0.25812346739E+02 -0.21843141398E+02  0.36852017575E+02  0.51100000000E-03 0.  1.
         23    2    1    0    0    0  0.12030113222E+02  0.10608134789E+02  0.24416546386E+02  0.95786580391E+02  0.91223051350E+02 0.  0.
         11    1    3    3    0    0 -0.26215463704E+01  0.36420481528E+02  0.46259687784E+02  0.58934562816E+02  0.51100000000E-03 0. -1.
         22    1    1    0    0    0 -0.12030113222E+02 -0.10608134789E+02 -0.24416546386E+02  0.29213419609E+02  0.00000000000E+00 0. -1.
</event>
<event>
 5    1  0.6690694E-004  0.9118800E+02  0.7818608E-02  0.1130116E+00
         25   -1    0    0    0    0  0.00000000000E+00  0.00000000000E+00  0.99999998245E-14  0.12500000000E+03  0.12500000000E+03 0.  0.
        -11    1    3    3    0    0  0.16618777708E+02  0.30848769461E+02 -0.13365248019E+02  0.37502802624E+02  0.51100000000E-03 0. -1.
         23    2    1    0    0    0  0.98164049895E+01 -0.21890340794E+02  0.13912721117E+02  0.97267119950E+02  0.93229716226E+02 0.  0.
         11    1    3    3    0    0 -0.68023727190E+01 -0.52739110254E+02  0.27277969136E+02  0.59764317326E+02  0.51100000000E-03 0.  1.
         22    1    1    0    0    0 -0.98164049895E+01  0.21890340794E+02 -0.13912721117E+02  0.27732880050E+02  0.00000000000E+00 0.  1.
</event>
<event>
 5    1  0.6690694E-004  0.9118800E+02  0.7818608E-02  0.1130116E+00
         25   -1    0    0    0    0  0.00000000000E+00  0.00000000000E+00  0.99999998245E-14  0.12500000000E+03  0.12500000000E+03 0.  0.
        -11    1    3    3    0    0  0.28647986584E+02 -0.26264454338E+02  0.37877291268E+02  0.54269861719E+02  0.51100000000E-03 0. -1.
         23    2    1    0    0    0  0.86092895219E+01  0.28675450899E+01  0.33964519276E+02  0.89844186105E+02  0.82680387798E+02 0.  0.
         11    1    3    3    0    0 -0.20038697062E+02  0.29131999428E+02 -0.39127719918E+01  0.35574324386E+02  0.51100000000E-03 0.  1.
         22    1    1    0    0    0 -0.86092895219E+01 -0.28675450899E+01 -0.33964519276E+02  0.35155813895E+02  0.00000000000E+00 0. -1.
</event>
<event>
 5    1  0.6690694E-004  0.9118800E+02  0.7818608E-02  0.1130116E+00
         25   -1    0    0    0    0  0.00000000000E+00  0.00000000000E+00  0.99999998245E-14  0.12500000000E+03  0.12500000000E+03 0.  0.
        -11    1    3    3    0    0  0.28904634751E+02 -0.15459136239E+02  0.46915497490E+02  0.57232217398E+02  0.51100000000E-03 0. -1.
         23    2    1    0    0    0 -0.35144648120E+01 -0.43923199487E+01  0.28154170694E+02  0.96289352761E+02  0.91909402077E+02 0.  0.
         11    1    3    3    0    0 -0.32419099563E+02  0.11066816291E+02 -0.18761326796E+02  0.39057135362E+02  0.51100000000E-03 0.  1.
         22    1    1    0    0    0  0.35144648120E+01  0.43923199487E+01 -0.28154170694E+02  0.28710647239E+02  0.00000000000E+00 0. -1.
</event>
<event>
 5    1  0.6690694E-004  0.9118800E+02  0.7818608E-02  0.1130116E+00
         25   -1    0    0    0    0  0.00000000000E+00  0.00000000000E+00  0.99999998245E-14  0.12500000000E+03  0.12500000000E+03 0.  0.
        -11    1    3    3    0    0 -0.15586508509E+01 -0.13207164049E+01  0.54582097608E+02  0.54620317318E+02  0.51100000000E-03 0.  1.
         23    2    1    0    0    0 -0.20118742174E+02 -0.90678679605E+01  0.39479216667E+02  0.79771706149E+02  0.65710931642E+02 0.  0.
         11    1    3    3    0    0 -0.18560091323E+02 -0.77471515556E+01 -0.15102880942E+02  0.25151388832E+02  0.51100000000E-03 0. -1.
         22    1    1    0    0    0  0.20118742174E+02  0.90678679605E+01 -0.39479216667E+02  0.45228293851E+02  0.00000000000E+00 0.  1.
</event>
<event>
 5    1  0.6690694E-004  0.9118800E+02  0.7818608E-02  0.1130116E+00
         25   -1    0    0    0    0  0.00000000000E+00  0.00000000000E+00  0.99999998245E-14  0.12500000000E+03  0.12500000000E+03 0.  0.
        -11    1    3    3    0    0  0.34631508896E+01  0.29250205157E+02 -0.19212274962E+02  0.35166453123E+02  0.51100000000E-03 0.  1.
         23    2    1    0    0    0 -0.23697476198E+02  0.26659907658E+02  0.20884997991E+02  0.83665943877E+02  0.72742600788E+02 0.  0.
         11    1    3    3    0    0 -0.27160627087E+02 -0.25902974986E+01  0.40097272953E+02  0.48499490754E+02  0.51100000000E-03 0. -1.
         22    1    1    0    0    0  0.23697476198E+02 -0.26659907658E+02 -0.20884997991E+02  0.41334056123E+02  0.00000000000E+00 0. -1.
</event>
<event>
 5    1  0.6690694E-004  0.9118800E+02  0.7818608E-02  0.1130116E+00
         25   -1    0    0    0    0  0.00000000000E+00  0.00000000000E+00  0.99999998245E-14  0.12500000000E+03  0.12500000000E+03 0.  0.
        -11    1    3    3    0    0 -0.40492904834E+01 -0.27273987241E+02 -0.40570853757E+02  0.49053657441E+02  0.51100000000E-03 0.  1.
         23    2    1    0    0    0 -0.27465528463E+02  0.48224785309E+00 -0.13226266192E+02  0.94511937842E+02  0.89459401186E+02 0.  0.
         11    1    3    3    0    0 -0.23416237980E+02  0.27756235094E+02  0.27344587565E+02  0.45458280402E+02  0.51100000000E-03 0. -1.
         22    1    1    0    0    0  0.27465528463E+02 -0.48224785309E+00  0.13226266192E+02  0.30488062158E+02  0.00000000000E+00 0.  1.
</event>
<event>
 5    1  0.6690694E-004  0.9118800E+02  0.7818608E-02  0.1130116E+00
         25   -1    0    0    0    0  0.00000000000E+00  0.00000000000E+00  0.99999998245E-14  0.12500000000E+03  0.12500000000E+03 0.  0.
        -11    1    3    3    0    0 -0.10423995350E+02  0.58401337891E+01  0.53454505433E+02  0.54773634105E+02  0.51100000000E-03 0.  1.
         23    2    1    0    0    0 -0.23819620251E+02 -0.62792135692E+01  0.18248347423E+02  0.94343760576E+02  0.89224100691E+02 0.  0.
         11    1    3    3    0    0 -0.13395624901E+02 -0.12119347358E+02 -0.35206158010E+02  0.39570126472E+02  0.51100000000E-03 0. -1.
         22    1    1    0    0    0  0.23819620251E+02  0.62792135692E+01 -0.18248347423E+02  0.30656239424E+02  0.00000000000E+00 0.  1.
</event>
<event>
 5    1  0.6690694E-004  0.9118800E+02  0.7818608E-02  0.1130116E+00
         25   -1    0    0    0    0  0.00000000000E+00  0.00000000000E+00  0.99999998245E-14  0.12500000000E+03  0.12500000000E+03 0.  0.
        -11    1    3    3    0    0 -0.10118555476E+02  0.85686751789E+01 -0.50157184672E+02  0.51880155491E+02  0.51100000000E-03 0.  1.
         23    2    1    0    0    0 -0.25107410614E+02  0.20066521987E+02 -0.21053147608E+02  0.86577579506E+02  0.77584759306E+02 0.  0.
         11    1    3    3    0    0 -0.14988855138E+02  0.11497846809E+02  0.29104037065E+02  0.34697424016E+02  0.51100000000E-03 0. -1.
         22    1    1    0    0    0  0.25107410614E+02 -0.20066521987E+02  0.21053147608E+02  0.38422420494E+02  0.00000000000E+00 0.  1.
</event>
<event>
 5    1  0.6690694E-004  0.9118800E+02  0.7818608E-02  0.1130116E+00
         25   -1    0    0    0    0  0.00000000000E+00  0.00000000000E+00  0.99999998245E-14  0.12500000000E+03  0.12500000000E+03 0.  0.
        -11    1    3    3    0    0  0.72683314276E+01  0.30624401466E+02  0.23879314368E+02  0.39508280928E+02  0.51100000000E-03 0. -1.
         23    2    1    0    0    0 -0.10671730004E+02 -0.23084898700E+02  0.84828291473E+01  0.98190360696E+02  0.94459463126E+02 0.  0.
         11    1    3    3    0    0 -0.17940061432E+02 -0.53709300166E+02 -0.15396485221E+02  0.58682079768E+02  0.51100000000E-03 0.  1.
         22    1    1    0    0    0  0.10671730004E+02  0.23084898700E+02 -0.84828291473E+01  0.26809639304E+02  0.00000000000E+00 0.  1.
</event>
<event>
 5    1  0.6690694E-004  0.9118800E+02  0.7818608E-02  0.1130116E+00
         25   -1    0    0    0    0  0.00000000000E+00  0.00000000000E+00  0.99999998245E-14  0.12500000000E+03  0.12500000000E+03 0.  0.
        -11    1    3    3    0    0  0.18873970496E+02 -0.35064396220E+02 -0.47452130780E+02  0.61947101307E+02  0.51100000000E-03 0. -1.
         23    2    1    0    0    0  0.10724483377E+02 -0.20102300518E+02 -0.18035338757E+02  0.95941602351E+02  0.91435226186E+02 0.  0.
         11    1    3    3    0    0 -0.81494871198E+01  0.14962095701E+02  0.29416792022E+02  0.33994501044E+02  0.51100000000E-03 0.  1.
         22    1    1    0    0    0 -0.10724483377E+02  0.20102300518E+02  0.18035338757E+02  0.29058397649E+02  0.00000000000E+00 0. -1.
</event>
<event>
 5    1  0.6690694E-004  0.9118800E+02  0.7818608E-02  0.1130116E+00
         25   -1    0    0    0    0  0.00000000000E+00  0.00000000000E+00  0.99999998245E-14  0.12500000000E+03  0.12500000000E+03 0.  0.
        -11    1    3    3    0    0  0.16567460764E+02 -0.22939178146E+02 -0.24312417212E+02  0.37306571554E+02  0.51100000000E-03 0. -1.
         23    2    1    0    0    0 -0.28663282927E+02 -0.80550170266E+01  0.71513891236E+01  0.94379590893E+02  0.89274283662E+02 0.  0.
         11    1    3    3    0    0 -0.45230743691E+02  0.14884161120E+02  0.31463806336E+02  0.57073019339E+02  0.51100000000E-03 0.  1.
         22    1    1    0    0    0  0.28663282927E+02  0.80550170266E+01 -0.71513891236E+01  0.30620409107E+02  0.00000000000E+00 0.  1.
</event>
<event>
 5    1  0.6690694E-004  0.9118800E+02  0.7818608E-02  0.1130116E+00
         25   -1    0    0    0    0  0.00000000000E+00  0.00000000000E+00  0.99999998245E-14  0.12500000000E+03  0.12500000000E+03 0.  0.
        -11    1    3    3    0    0 -0.39707857143E+01  0.51281314727E+02 -0.30337590380E+02  0.59715239007E+02  0.51100000000E-03 0.  1.
         23    2    1    0    0    0 -0.13166369444E+01  0.16842972228E+02 -0.25236869870E+02  0.94630297216E+02  0.89624630008E+02 0.  0.
         11    1    3    3    0    0  0.26541487700E+01 -0.34438342499E+02  0.51007205097E+01  0.34915058209E+02  0.51100000000E-03 0. -1.
         22    1    1    0    0    0  0.13166369444E+01 -0.16842972228E+02  0.25236869870E+02  0.30369702784E+02  0.00000000000E+00 0.  1.
</event>
<event>
 5    1  0.6690694E-004  0.9118800E+02  0.7818608E-02  0.1130116E+00
         25   -1    0    0    0    0  0.00000000000E+00  0.00000000000E+00  0.99999998245E-14  0.12500000000E+03  0.12500000000E+03 0.  0.
        -11    1    3    3    0    0  0.41217662902E+00  0.22765996908E+02 -0.36938621032E+02  0.43392651783E+02  0.51100000000E-03 0.  1.
         23    2    1    0    0    0  0.12684298251E+02  0.23470200213E+02  0.13354169765E+02  0.95165865686E+02  0.90368503481E+02 0.  0.
         11    1    3    3    0    0  0.12272121622E+02  0.70420330583E+00  0.50292790797E+02  0.51773213902E+02  0.51100000000E-03 0. -1.
         22    1    1    0    0    0 -0.12684298251E+02 -0.23470200213E+02 -0.13354169765E+02  0.29834134314E+02  0.00000000000E+00 0. -1.
</event>
<event>
 5    1  0.6690694E-004  0.9118800E+02  0.7818608E-02  0.1130116E+00
         25   -1    0    0    0    0  0.00000000000E+00  0.00000000000E+00  0.99999998245E-14  0.12500000000E+03  0.12500000000E+03 0.  0.
        -11    1    3    3    0    0  0.44274755533E+02 -0.28654200079E+02  0.21654040359E+02  0.57010653599E+02  0.51100000000E-03 0. -1.
         23    2    1    0    0    0  0.16219180840E+02 -0.20401883653E+01  0.24234768087E+02  0.95767343947E+02  0.91196688464E+02 0.  0.
         11    1    3    3    0    0 -0.28055574694E+02  0.26614011714E+02  0.25807277279E+01  0.38756690348E+02  0.51100000000E-03 0.  1.
         22    1    1    0    0    0 -0.16219180840E+02  0.20401883653E+01 -0.24234768087E+02  0.29232656053E+02  0.00000000000E+00 0. -1.
</event>
<event>
 5    1  0.6690694E-004  0.9118800E+02  0.7818608E-02  0.1130116E+00
         25   -1    0    0    0    0  0.00000000000E+00  0.00000000000E+00  0.99999998245E-14  0.12500000000E+03  0.12500000000E+03 0.  0.
        -11    1    3    3    0    0 -0.53030511476E+01 -0.36955520910E+02 -0.81088837937E+01  0.38204539964E+02  0.51100000000E-03 0.  1.
         23    2    1    0    0    0 -0.15519724360E+02  0.20909564528E+02 -0.10279339115E+02  0.97004704938E+02  0.92877210523E+02 0.  0.
         11    1    3    3    0    0 -0.10216673212E+02  0.57865085439E+02 -0.21704553211E+01  0.58800164974E+02  0.51100000000E-03 0. -1.
         22    1    1    0    0    0  0.15519724360E+02 -0.20909564528E+02  0.10279339115E+02  0.27995295062E+02  0.00000000000E+00 0. -1.
</event>
<event>
 5    1  0.6690694E-004  0.9118800E+02  0.7818608E-02  0.1130116E+00
         25   -1    0    0    0    0  0.00000000000E+00  0.00000000000E+00  0.99999998245E-14  0.12500000000E+03  0.12500000000E+03 0.  0.
        -11    1    3    3    0    0 -0.40994262747E+02 -0.16738261284E+02 -0.26630711157E+02  0.51671014563E+02  0.51100000000E-03 0. -1.
         23    2    1    0    0    0 -0.96621070494E+01  0.12566668842E+02 -0.25966930917E+02  0.94576999167E+02  0.89550264052E+02 0.  0.
         11    1    3    3    0    0  0.31332155697E+02  0.29304930127E+02  0.66378023993E+00  0.42905984604E+02  0.51100000000E-03 0.  1.
         22    1    1    0    0    0  0.96621070494E+01 -0.12566668842E+02  0.25966930917E+02  0.30423000833E+02  0.00000000000E+00 0. -1.
</event>
<event>
 5    1  0.6690694E-004  0.9118800E+02  0.7818608E-02  0.1130116E+00
         25   -1    0    0    0    0  0.00000000000E+00  0.00000000000E+00  0.99999998245E-14  0.12500000000E+03  0.12500000000E+03 0.  0.
        -11    1    3    3    0    0  0.12531326305E+02  0.19062072053E+02 -0.31901734800E+02  0.39218840032E+02  0.51100000000E-03 0.  1.
         23    2    1    0    0    0 -0.75516498454E-01  0.14129322209E+02  0.24225220970E+02  0.96955307456E+02  0.92810704469E+02 0.  0.
         11    1    3    3    0    0 -0.12606842803E+02 -0.49327498440E+01  0.56126955770E+02  0.57736467425E+02  0.51100000000E-03 0. -1.
         22    1    1    0    0    0  0.75516498454E-01 -0.14129322209E+02 -0.24225220970E+02  0.28044692544E+02  0.00000000000E+00 0. -1.
</event>
<event>
 5    1  0.6690694E-004  0.9118800E+02  0.7818608E-02  0.1130116E+00
         25   -1    0    0    0    0  0.00000000000E+00  0.00000000000E+00  0.99999998245E-14  0.12500000000E+03  0.12500000000E+03 0.  0.
        -11    1    3    3    0    0  0.46830524662E+02 -0.83594514773E+01 -0.11041722487E+02  0.48835418549E+02  0.51100000000E-03 0.  1.
         23    2    1    0    0    0  0.79620041895E+01  0.16818075937E+02 -0.21758745174E+02  0.96369872853E+02  0.92018847054E+02 0.  0.
         11    1    3    3    0    0 -0.38868520473E+02  0.25177527414E+02 -0.10717022687E+02  0.47534454304E+02  0.51100000000E-03 0. -1.
         22    1    1    0    0    0 -0.79620041895E+01 -0.16818075937E+02  0.21758745174E+02  0.28630127147E+02  0.00000000000E+00 0. -1.
</event>
<event>
 5    1  0.6690694E-004  0.9118800E+02  0.7818608E-02  0.1130116E+00
         25   -1    0    0    0    0  0.00000000000E+00  0.00000000000E+00  0.99999998245E-14  0.12500000000E+03  0.12500000000E+03 0.  0.
        -11    1    3    3    0    0  0.98910247893E+00 -0.45646098421E+02 -0.16322422145E+02  0.48486762004E+02  0.51100000000E-03 0. -1.
         23    2    1    0    0    0  0.13115132521E+02 -0.87438809528E+00 -0.25996347584E+02  0.95869580448E+02  0.91336712838E+02 0.  0.
         11    1    3    3    0    0  0.12126030042E+02  0.44771710325E+02 -0.96739254386E+01  0.47382818444E+02  0.51100000000E-03 0.  1.
         22    1    1    0    0    0 -0.13115132521E+02  0.87438809528E+00  0.25996347584E+02  0.29130419552E+02  0.00000000000E+00 0.  1.
</event>
<event>
 5    1  0.6690694E-004  0.9118800E+02  0.7818608E-02  0.1130116E+00
         25   -1    0    0    0    0  0.00000000000E+00  0.00000000000E+00  0.99999998245E-14  0.12500000000E+03  0.12500000000E+03 0.  0.
        -11    1    3    3    0    0  0.45868590498E+02 -0.21167390433E+01 -0.25236105427E+01  0.45986702305E+02  0.51100000000E-03 0. -1.
         23    2    1    0    0    0  0.80983776217E+01  0.19913716925E+02 -0.22342975832E+02  0.93994380978E+02  0.88733281494E+02 0.  0.
         11    1    3    3    0    0 -0.37770212876E+02  0.22030455968E+02 -0.19819365289E+02  0.48007678674E+02  0.51100000000E-03 0.  1.
         22    1    1    0    0    0 -0.80983776217E+01 -0.19913716925E+02  0.22342975832E+02  0.31005619022E+02  0.00000000000E+00 0. -1.
</event>
<event>
 5    1  0.6690694E-004  0.9118800E+02  0.7818608E-02  0.1130116E+00
         25   -1    0    0    0    0  0.00000000000E+00  0.00000000000E+00  0.99999998245E-14  0.12500000000E+03  0.12500000000E+03 0.  0.
        -11    1    3    3    0    0  0.22626139093E+02  0.11145106068E+01  0.29169259690E+02  0.36932776978E+02  0.51100000000E-03 0.  1.
         23    2    1    0    0    0 -0.11538445611E+02  0.27608043309E+02 -0.80869310258E+01  0.94004222289E+02  0.88747144023E+02 0.  0.
         11    1    3    3    0    0 -0.34164584704E+02  0.26493532702E+02 -0.37256190716E+02  0.57071445312E+02  0.51100000000E-03 0. -1.
         22    1    1    0    0    0  0.11538445611E+02 -0.27608043309E+02  0.80869310258E+01  0.30995777711E+02  0.00000000000E+00 0. -1.
</event>
<event>
 5    1  0.6690694E-004  0.9118800E+02  0.7818608E-02  0.1130116E+00
         25   -1    0    0    0    0  0.00000000000E+00  0.00000000000E+00  0.99999998245E-14  0.12500000000E+03  0.12500000000E+03 0.  0.
        -11    1    3    3    0    0 -0.69185074877E+01 -0.46797490824E+02 -0.14721585007E+02  0.49543879124E+02  0.51100000000E-03 0.  1.
         23    2    1    0    0    0 -0.16954235346E+01 -0.22319396762E+02  0.21757761339E+02  0.93784136865E+02  0.88436611289E+02 0.  0.
         11    1    3    3    0    0  0.52230839532E+01  0.24478094063E+02  0.36479346345E+02  0.44240257741E+02  0.51100000000E-03 0. -1.
         22    1    1    0    0    0  0.16954235346E+01  0.22319396762E+02 -0.21757761339E+02  0.31215863135E+02  0.00000000000E+00 0. -1.
</event>
<event>
 5    1  0.6690694E-004  0.9118800E+02  0.7818608E-02  0.1130116E+00
         25   -1    0    0    0    0  0.00000000000E+00  0.00000000000E+00  0.99999998245E-14  0.12500000000E+03  0.12500000000E+03 0.  0.
        -11    1    3    3    0    0 -0.10628170404E+02 -0.25389610959E+02 -0.52548677059E+02  0.59320770491E+02  0.51100000000E-03 0. -1.
         23    2    1    0    0    0  0.82021864557E+01 -0.16201506355E+02 -0.20467691292E+02  0.97637780470E+02  0.93725370725E+02 0.  0.
         11    1    3    3    0    0  0.18830356859E+02  0.91881046044E+01  0.32080985767E+02  0.38317009979E+02  0.51100000000E-03 0.  1.
         22    1    1    0    0    0 -0.82021864557E+01  0.16201506355E+02  0.20467691292E+02  0.27362219530E+02  0.00000000000E+00 0.  1.
</event>
<event>
 5    1  0.6690694E-004  0.9118800E+02  0.7818608E-02  0.1130116E+00
         25   -1    0    0    0    0  0.00000000000E+00  0.00000000000E+00  0.99999998245E-14  0.12500000000E+03  0.12500000000E+03 0.  0.
        -11    1    3    3    0    0  0.46543232330E+02  0.33009605781E+02  0.21651598273E+02  0.61030306059E+02  0.51100000000E-03 0.  1.
         23    2    1    0    0    0  0.20324438373E+02  0.20783750120E+02  0.22910875914E+01  0.95840162096E+02  0.91296443107E+02 0.  0.
         11    1    3    3    0    0 -0.26218793957E+02 -0.12225855661E+02 -0.19360510682E+02  0.34809856037E+02  0.51100000000E-03 0. -1.
         22    1    1    0    0    0 -0.20324438373E+02 -0.20783750120E+02 -0.22910875914E+01  0.29159837904E+02  0.00000000000E+00 0.  1.
</event>
<event>
 5    1  0.6690694E-004  0.9118800E+02  0.7818608E-02  0.1130116E+00
         25   -1    0    0    0    0  0.00000000000E+00  0.00000000000E+00  0.99999998245E-14  0.12500000000E+03  0.12500000000E+03 0.  0.
        -11    1    3    3    0    0 -0.31903531016E+02  0.16914902293E+02 -0.50813221489E+02  0.62337249612E+02  0.51100000000E-03 0. -1.
         23    2    1    0    0    0 -0.11635230184E+02  0.64429221637E+01 -0.24162000835E+02  0.97419352585E+02  0.93433602876E+02 0.  0.
         11    1    3    3    0    0  0.20268300832E+02 -0.10471980130E+02  0.26651220653E+02  0.35082102973E+02  0.51100000000E-03 0.  1.
         22    1    1    0    0    0  0.11635230184E+02 -0.64429221637E+01  0.24162000835E+02  0.27580647415E+02  0.00000000000E+00 0. -1.
</event>
<event>
 5    1  0.6690694E-004  0.9118800E+02  0.7818608E-02  0.1130116E+00
         25   -1    0    0    0    0  0.00000000000E+00  0.00000000000E+00  0.99999998245E-14  0.12500000000E+03  0.12500000000E+03 0.  0.
        -11    1    3    3    0    0  0.20476578362E+02  0.23713307215E+02  0.13985137409E+02  0.34310279350E+02  0.51100000000E-03 0. -1.
         23    2    1    0    0    0 -0.19036969041E+02 -0.21823655312E+02  0.78180696566E+00  0.96029509089E+02  0.91555323561E+02 0.  0.
         11    1    3    3    0    0 -0.39513547403E+02 -0.45536962527E+02 -0.13203330443E+02  0.61719229739E+02  0.51100000000E-03 0.  1.
         22    1    1    0    0    0  0.19036969041E+02  0.21823655312E+02 -0.78180696566E+00  0.28970490911E+02  0.00000000000E+00 0.  1.
</event>
<event>
 5    1  0.6690694E-004  0.9118800E+02  0.7818608E-02  0.1130116E+00
         25   -1    0    0    0    0  0.00000000000E+00  0.00000000000E+00  0.99999998245E-14  0.12500000000E+03  0.12500000000E+03 0.  0.
        -11    1    3    3    0    0  0.34224592758E+02 -0.13198899937E+02  0.49293410246E+02  0.61444072155E+02  0.51100000000E-03 0.  1.
         23    2    1    0    0    0  0.22038685957E+02 -0.14479887874E+01  0.20386214378E+02  0.94943418576E+02  0.90060283388E+02 0.  0.
         11    1    3    3    0    0 -0.12185906801E+02  0.11750911150E+02 -0.28907195868E+02  0.33499346421E+02  0.51100000000E-03 0. -1.
         22    1    1    0    0    0 -0.22038685957E+02  0.14479887874E+01 -0.20386214378E+02  0.30056581424E+02  0.00000000000E+00 0.  1.
</event>
<event>
 5    1  0.6690694E-004  0.9118800E+02  0.7818608E-02  0.1130116E+00
         25   -1    0    0    0    0  0.00000000000E+00  0.00000000000E+00  0.99999998245E-14  0.12500000000E+03  0.12500000000E+03 0.  0.
        -11    1    3    3    0    0  0.53531025227E+01  0.20731235689E+01  0.56299799718E+02  0.56591704309E+02  0.51100000000E-03 0. -1.
         23    2    1    0    0    0  0.73039842743E+01  0.18696659259E+02  0.19519411401E+02  0.97001416551E+02  0.92872784699E+02 0.  0.
         11    1    3    3    0    0  0.19508817516E+01  0.16623535690E+02 -0.36780388318E+02  0.40409712242E+02  0.51100000000E-03 0.  1.
         22    1    1    0    0    0 -0.73039842743E+01 -0.18696659259E+02 -0.19519411401E+02  0.27998583449E+02  0.00000000000E+00 0. -1.
</event>
<event>
 5    1  0.6690694E-004  0.9118800E+02  0.7818608E-02  0.1130116E+00
         25   -1    0    0    0    0  0.00000000000E+00  0.00000000000E+00  0.99999998245E-14  0.12500000000E+03  0.12500000000E+03 0.  0.
        -11    1    3    3    0    0 -0.19434809115E+02 -0.30824912168E+02 -0.73436916049E+01  0.37172796803E+02  0.51100000000E-03 0. -1.
         23    2    1    0    0    0  0.82313619180E+00 -0.48524865489E+01  0.34345215371E+02  0.90303919562E+02  0.83372536789E+02 0.  0.
         11    1    3    3    0    0  0.20257945307E+02  0.25972425619E+02  0.41688906975E+02  0.53131122759E+02  0.51100000000E-03 0.  1.
         22    1    1    0    0    0 -0.82313619180E+00  0.48524865489E+01 -0.34345215371E+02  0.34696080438E+02  0.00000000000E+00 0.  1.
</event>
<event>
 5    1  0.6690694E-004  0.9118800E+02  0.7818608E-02  0.1130116E+00
         25   -1    0    0    0    0  0.00000000000E+00  0.00000000000E+00  0.99999998245E-14  0.12500000000E+03  0.12500000000E+03 0.  0.
        -11    1    3    3    0    0  0.13375955512E+02 -0.19426198711E+01  0.31883465654E+02  0.34630121862E+02  0.51100000000E-03 0.  1.
         23    2    1    0    0    0 -0.15661358222E+02 -0.68715910132E+01 -0.22655664372E+02  0.96613805599E+02  0.92349615050E+02 0.  0.
         11    1    3    3    0    0 -0.29037313735E+02 -0.49289711422E+01 -0.54539130025E+02  0.61983683737E+02  0.51100000000E-03 0. -1.
         22    1    1    0    0    0  0.15661358222E+02  0.68715910132E+01  0.22655664372E+02  0.28386194401E+02  0.00000000000E+00 0. -1.
</event>
<event>
 5    1  0.6690694E-004  0.9118800E+02  0.7818608E-02  0.1130116E+00
         25   -1    0    0    0    0  0.00000000000E+00  0.00000000000E+00  0.99999998245E-14  0.12500000000E+03  0.12500000000E+03 0.  0.
        -11    1    3    3    0    0 -0.12579684518E+02  0.13102202936E+02 -0.32946985641E+02  0.37622068623E+02  0.51100000000E-03 0. -1.
         23    2    1    0    0    0 -0.14429309757E+02 -0.20227488703E+02  0.14949079933E+02  0.96002909282E+02  0.91518999778E+02 0.  0.
         11    1    3    3    0    0 -0.18496252388E+01 -0.33329691638E+02  0.47896065575E+02  0.58380840659E+02  0.51100000000E-03 0.  1.
         22    1    1    0    0    0  0.14429309757E+02  0.20227488703E+02 -0.14949079933E+02  0.28997090718E+02  0.00000000000E+00 0.  1.
</event>
<event>
 5    1  0.6690694E-004  0.9118800E+02  0.7818608E-02  0.1130116E+00
         25   -1    0    0    0    0  0.00000000000E+00  0.00000000000E+00  0.99999998245E-14  0.12500000000E+03  0.12500000000E+03 0.  0.
        -11    1    3    3    0    0 -0.10316279860E+02 -0.27012112234E+02 -0.33845537348E+02  0.44515168608E+02  0.51100000000E-03 0. -1.
         23    2    1    0    0    0 -0.22528507949E+02 -0.11023172210E+02  0.13898905537E+02  0.96325558923E+02  0.91958630540E+02 0.  0.
         11    1    3    3    0    0 -0.12212228088E+02  0.15988940024E+02  0.47744442885E+02  0.51810390316E+02  0.51100000000E-03 0.  1.
         22    1    1    0    0    0  0.22528507949E+02  0.11023172210E+02 -0.13898905537E+02  0.28674441077E+02  0.00000000000E+00 0.  1.
</event>
<event>
 5    1  0.6690694E-004  0.9118800E+02  0.7818608E-02  0.1130116E+00
         25   -1    0    0    0    0  0.00000000000E+00  0.00000000000E+00  0.99999998245E-14  0.12500000000E+03  0.12500000000E+03 0.  0.
        -11    1    3    3    0    0 -0.21916300695E+02  0.20205208557E+02 -0.17620751607E+02  0.34627526283E+02  0.51100000000E-03 0.  1.
         23    2    1    0    0    0  0.24758233506E+02 -0.15801430135E+02 -0.22762874812E+01  0.95540929999E+02  0.90885821225E+02 0.  0.
         11    1    3    3    0    0  0.46674534200E+02 -0.36006638692E+02  0.15344464126E+02  0.60913403716E+02  0.51100000000E-03 0. -1.
         22    1    1    0    0    0 -0.24758233506E+02  0.15801430135E+02  0.22762874812E+01  0.29459070001E+02  0.00000000000E+00 0. -1.
</event>
<event>
 5    1  0.6690694E-004  0.9118800E+02  0.7818608E-02  0.1130116E+00
         25   -1    0    0    0    0  0.00000000000E+00  0.00000000000E+00  0.99999998245E-14  0.12500000000E+03  0.12500000000E+03 0.  0.
        -11    1    3    3    0    0 -0.33703255860E+02  0.13266575965E+02 -0.27811357283E+02  0.45665994871E+02  0.51100000000E-03 0.  1.
         23    2    1    0    0    0  0.11158655322E+02 -0.67129616088E+01 -0.27271662120E+02  0.94778765794E+02  0.89831461352E+02 0.  0.
         11    1    3    3    0    0  0.44861911182E+02 -0.19979537573E+02  0.53969516345E+00  0.49112770923E+02  0.51100000000E-03 0. -1.
         22    1    1    0    0    0 -0.11158655322E+02  0.67129616088E+01  0.27271662120E+02  0.30221234206E+02  0.00000000000E+00 0. -1.
</event>
<event>
 5    1  0.6690694E-004  0.9118800E+02  0.7818608E-02  0.1130116E+00
         25   -1    0    0    0    0  0.00000000000E+00  0.00000000000E+00  0.99999998245E-14  0.12500000000E+03  0.12500000000E+03 0.  0.
        -11    1    3    3    0    0  0.22754447832E+02 -0.49582347017E+02 -0.15159959631E+02  0.56621536610E+02  0.51100000000E-03 0. -1.
         23    2    1    0    0    0  0.18790187546E+02 -0.13602186661E+02 -0.21501616120E+02  0.93370739406E+02  0.87850354874E+02 0.  0.
         11    1    3    3    0    0 -0.39642602868E+01  0.35980160355E+02 -0.63416564894E+01  0.36749202796E+02  0.51100000000E-03 0.  1.
         22    1    1    0    0    0 -0.18790187546E+02  0.13602186661E+02  0.21501616120E+02  0.31629260594E+02  0.00000000000E+00 0. -1.
</event>
<event>
 5    1  0.6690694E-004  0.9118800E+02  0.7818608E-02  0.1130116E+00
         25   -1    0    0    0    0  0.00000000000E+00  0.00000000000E+00  0.99999998245E-14  0.12500000000E+03  0.12500000000E+03 0.  0.
        -11    1    3    3    0    0  0.34618567982E+01 -0.36029323157E+02  0.13039343292E+02  0.38472341408E+02  0.51100000000E-03 0. -1.
         23    2    1    0    0    0 -0.26373591747E+02  0.75136504165E+01 -0.96533015318E+01  0.95927547151E+02  0.91416009472E+02 0.  0.
         11    1    3    3    0    0 -0.29835448545E+02  0.43542973574E+02 -0.22692644824E+02  0.57455205743E+02  0.51100000000E-03 0.  1.
         22    1    1    0    0    0  0.26373591747E+02 -0.75136504165E+01  0.96533015318E+01  0.29072452849E+02  0.00000000000E+00 0.  1.
</event>
<event>
 5    1  0.6690694E-004  0.9118800E+02  0.7818608E-02  0.1130116E+00
         25   -1    0    0    0    0  0.00000000000E+00  0.00000000000E+00  0.99999998245E-14  0.12500000000E+03  0.12500000000E+03 0.  0.
        -11    1    3    3    0    0 -0.40061425061E+02 -0.20988185061E+02  0.42317542693E+02  0.61937033429E+02  0.51100000000E-03 0.  1.
         23    2    1    0    0    0 -0.20916034488E+02 -0.42917225063E+01  0.19578629574E+02  0.96030669376E+02  0.91556907681E+02 0.  0.
         11    1    3    3    0    0  0.19145390573E+02  0.16696462555E+02 -0.22738913119E+02  0.34093635948E+02  0.51100000000E-03 0. -1.
         22    1    1    0    0    0  0.20916034488E+02  0.42917225063E+01 -0.19578629574E+02  0.28969330624E+02  0.00000000000E+00 0.  1.
</event>
<event>
 5    1  0.6690694E-004  0.9118800E+02  0.7818608E-02  0.1130116E+00
         25   -1    0    0    0    0  0.00000000000E+00  0.00000000000E+00  0.99999998245E-14  0.12500000000E+03  0.12500000000E+03 0.  0.
        -11    1    3    3    0    0 -0.24585582441E+02 -0.49683673416E+02  0.28011699109E+02  0.62109367693E+02  0.51100000000E-03 0. -1.
         23    2    1    0    0    0 -0.16810283614E+02 -0.28672466985E+02  0.11932321907E+02  0.89686032447E+02  0.82440937112E+02 0.  0.
         11    1    3    3    0    0  0.77752988269E+01  0.21011206430E+02 -0.16079377202E+02  0.27576664754E+02  0.51100000000E-03 0.  1.
         22    1    1    0    0    0  0.16810283614E+02  0.28672466985E+02 -0.11932321907E+02  0.35313967553E+02  0.00000000000E+00 0. -1.
</event>
<event>
 5    1  0.6690694E-004  0.9118800E+02  0.7818608E-02  0.1130116E+00
         25   -1    0    0    0    0  0.00000000000E+00  0.00000000000E+00  0.99999998245E-14  0.12500000000E+03  0.12500000000E+03 0.  0.
        -11    1    3    3    0    0 -0.21693822721E+02 -0.42656405923E+02 -0.70660465501E+01  0.48374786042E+02  0.51100000000E-03 0. -1.
         23    2    1    0    0    0 -0.22358248537E+02 -0.79143769220E+01 -0.27499190569E+02  0.88685621007E+02  0.80909858804E+02 0.  0.
         11    1    3    3    0    0 -0.66442581690E+00  0.34742029001E+02 -0.20433144019E+02  0.40310834965E+02  0.51100000000E-03 0.  1.
         22    1    1    0    0    0  0.22358248537E+02  0.79143769220E+01  0.27499190569E+02  0.36314378993E+02  0.00000000000E+00 0.  1.
</event>
<event>
 5    1  0.6690694E-004  0.9118800E+02  0.7818608E-02  0.1130116E+00
         25   -1    0    0    0    0  0.00000000000E+00  0.00000000000E+00  0.99999998245E-14  0.12500000000E+03  0.12500000000E+03 0.  0.
        -11    1    3    3    0    0 -0.26515184373E+02 -0.26774303379E+01  0.23796961900E+02  0.35728406506E+02  0.51100000000E-03 0. -1.
         23    2    1    0    0    0  0.17232836301E+02  0.19828822720E+02 -0.11544756015E+02  0.96304455940E+02  0.91929940634E+02 0.  0.
         11    1    3    3    0    0  0.43748020674E+02  0.22506253058E+02 -0.35341717915E+02  0.60576049434E+02  0.51100000000E-03 0.  1.
         22    1    1    0    0    0 -0.17232836301E+02 -0.19828822720E+02  0.11544756015E+02  0.28695544060E+02  0.00000000000E+00 0.  1.
</event>
<event>
 5    1  0.6690694E-004  0.9118800E+02  0.7818608E-02  0.1130116E+00
         25   -1    0    0    0    0  0.00000000000E+00  0.00000000000E+00  0.99999998245E-14  0.12500000000E+03  0.12500000000E+03 0.  0.
        -11    1    3    3    0    0 -0.28666020711E+02  0.61770477658E+01 -0.20326346850E+02  0.35679924874E+02  0.51100000000E-03 0. -1.
         23    2    1    0    0    0  0.22651931030E+02  0.19729639401E+02  0.50958736642E+01  0.94531383709E+02  0.89486568419E+02 0.  0.
         11    1    3    3    0    0  0.51317951741E+02  0.13552591635E+02  0.25422220514E+02  0.58851458835E+02  0.51100000000E-03 0.  1.
         22    1    1    0    0    0 -0.22651931030E+02 -0.19729639401E+02 -0.50958736642E+01  0.30468616291E+02  0.00000000000E+00 0.  1.
</event>
<event>
 5    1  0.6690694E-004  0.9118800E+02  0.7818608E-02  0.1130116E+00
         25   -1    0    0    0    0  0.00000000000E+00  0.00000000000E+00  0.99999998245E-14  0.12500000000E+03  0.12500000000E+03 0.  0.
        -11    1    3    3    0    0  0.41738289921E+02  0.19303981705E+01 -0.18908473097E+02  0.45862202714E+02  0.51100000000E-03 0. -1.
         23    2    1    0    0    0 -0.17205036463E+01  0.26635633210E+02 -0.90590268472E+01  0.96813424175E+02  0.92619415048E+02 0.  0.
         11    1    3    3    0    0 -0.43458793567E+02  0.24705235040E+02  0.98494462499E+01  0.50951221461E+02  0.51100000000E-03 0.  1.
         22    1    1    0    0    0  0.17205036463E+01 -0.26635633210E+02  0.90590268472E+01  0.28186575825E+02  0.00000000000E+00 0.  1.
</event>
<event>
 5    1  0.6690694E-004  0.9118800E+02  0.7818608E-02  0.1130116E+00
         25   -1    0    0    0    0  0.00000000000E+00  0.00000000000E+00  0.99999998245E-14  0.12500000000E+03  0.12500000000E+03 0.  0.
        -11    1    3    3    0    0  0.61279496067E+01 -0.11003633005E+02  0.37868704188E+02  0.39908275619E+02  0.51100000000E-03 0.  1.
         23    2    1    0    0    0  0.24563097258E+02  0.13117968930E+02 -0.89864641544E+01  0.95739388357E+02  0.91158362695E+02 0.  0.
         11    1    3    3    0    0  0.18435147651E+02  0.24121601935E+02 -0.46855168343E+02  0.55831112738E+02  0.51100000000E-03 0. -1.
         22    1    1    0    0    0 -0.24563097258E+02 -0.13117968930E+02  0.89864641544E+01  0.29260611643E+02  0.00000000000E+00 0. -1.
</event>
<event>
 5    1  0.6690694E-004  0.9118800E+02  0.7818608E-02  0.1130116E+00
         25   -1    0    0    0    0  0.00000000000E+00  0.00000000000E+00  0.99999998245E-14  0.12500000000E+03  0.12500000000E+03 0.  0.
        -11    1    3    3    0    0 -0.48218550139E+01  0.42157387780E+02  0.26891710389E+02  0.50236040032E+02  0.51100000000E-03 0.  1.
         23    2    1    0    0    0 -0.24244236419E+01  0.22967560117E+02 -0.15741458555E+02  0.97050399553E+02  0.92938688867E+02 0.  0.
         11    1    3    3    0    0  0.23974313720E+01 -0.19189827663E+02 -0.42633168944E+02  0.46814359521E+02  0.51100000000E-03 0. -1.
         22    1    1    0    0    0  0.24244236419E+01 -0.22967560117E+02  0.15741458555E+02  0.27949600447E+02  0.00000000000E+00 0.  1.
</event>
<event>
 5    1  0.6690694E-004  0.9118800E+02  0.7818608E-02  0.1130116E+00
         25   -1    0    0    0    0  0.00000000000E+00  0.00000000000E+00  0.99999998245E-14  0.12500000000E+03  0.12500000000E+03 0.  0.
        -11    1    3    3    0    0 -0.99539634166E+01  0.35727581949E+02 -0.18757656622E+02  0.41561895792E+02  0.51100000000E-03 0.  1.
         23    2    1    0    0    0 -0.12146248436E+02  0.68351628192E+01  0.26359770412E+02  0.95182416295E+02  0.90391393804E+02 0.  0.
         11    1    3    3    0    0 -0.21922850194E+01 -0.28892419129E+02  0.45117427033E+02  0.53620520504E+02  0.51100000000E-03 0. -1.
         22    1    1    0    0    0  0.12146248436E+02 -0.68351628192E+01 -0.26359770412E+02  0.29817583705E+02  0.00000000000E+00 0. -1.
</event>
<event>
 5    1  0.6690694E-004  0.9118800E+02  0.7818608E-02  0.1130116E+00
         25   -1    0    0    0    0  0.00000000000E+00  0.00000000000E+00  0.99999998245E-14  0.12500000000E+03  0.12500000000E+03 0.  0.
        -11    1    3    3    0    0 -0.42272444679E+02 -0.29254641852E+02  0.27630493085E+02  0.58362983109E+02  0.51100000000E-03 0. -1.
         23    2    1    0    0    0 -0.18535543676E+02 -0.22709420677E+02 -0.41485830248E+00  0.95683515315E+02  0.91081715118E+02 0.  0.
         11    1    3    3    0    0  0.23736901002E+02  0.65452211755E+01 -0.28045351387E+02  0.37320532206E+02  0.51100000000E-03 0.  1.
         22    1    1    0    0    0  0.18535543676E+02  0.22709420677E+02  0.41485830248E+00  0.29316484685E+02  0.00000000000E+00 0. -1.
</event>
<event>
 5    1  0.6690694E-004  0.9118800E+02  0.7818608E-02  0.1130116E+00
         25   -1    0    0    0    0  0.00000000000E+00  0.00000000000E+00  0.99999998245E-14  0.12500000000E+03  0.12500000000E+03 0.  0.
        -11    1    3    3    0    0  0.31617576023E+02  0.41800029458E+02  0.18335288625E+02  0.55525637192E+02  0.51100000000E-03 0. -1.
         23    2    1    0    0    0  0.25038204330E+02  0.29965521585E+01  0.16377311790E+02  0.94931622219E+02  0.90043909038E+02 0.  0.
         11    1    3    3    0    0 -0.65793716936E+01 -0.38803477300E+02 -0.19579768352E+01  0.39405985028E+02  0.51100000000E-03 0.  1.
         22    1    1    0    0    0 -0.25038204330E+02 -0.29965521585E+01 -0.16377311790E+02  0.30068377781E+02  0.00000000000E+00 0. -1.
</event>
<event>
 5    1  0.6690694E-004  0.9118800E+02  0.7818608E-02  0.1130116E+00
         25   -1    0    0    0    0  0.00000000000E+00  0.00000000000E+00  0.99999998245E-14  0.12500000000E+03  0.12500000000E+03 0.  0.
        -11    1    3    3    0    0 -0.44598895666E+02  0.13507613312E+02  0.11558417380E+02  0.48011604062E+02  0.51100000000E-03 0.  1.
         23    2    1    0    0    0  0.69220540822E+01  0.22036753723E+02 -0.15367213944E+01  0.10185059698E+03  0.99184924489E+02 0.  0.
         11    1    3    3    0    0  0.51520949748E+02  0.85291404110E+01 -0.13095138775E+02  0.53838992922E+02  0.51100000000E-03 0. -1.
         22    1    1    0    0    0 -0.69220540822E+01 -0.22036753723E+02  0.15367213944E+01  0.23149403016E+02  0.00000000000E+00 0. -1.
</event>
<event>
 5    1  0.6690694E-004  0.9118800E+02  0.7818608E-02  0.1130116E+00
         25   -1    0    0    0    0  0.00000000000E+00  0.00000000000E+00  0.99999998245E-14  0.12500000000E+03  0.12500000000E+03 0.  0.
        -11    1    3    3    0    0 -0.35673045025E+02  0.46762313291E+02  0.85637810276E+00  0.58821879173E+02  0.51100000000E-03 0. -1.
         23    2    1    0    0    0 -0.22872500281E+02  0.13811588382E+02  0.11749034825E+02  0.95811799267E+02  0.91257601419E+02 0.  0.
         11    1    3    3    0    0  0.12800544745E+02 -0.32950724910E+02  0.10892656722E+02  0.36989920094E+02  0.51100000000E-03 0.  1.
         22    1    1    0    0    0  0.22872500281E+02 -0.13811588382E+02 -0.11749034825E+02  0.29188200733E+02  0.00000000000E+00 0. -1.
</event>
<event>
 5    1  0.6690694E-004  0.9118800E+02  0.7818608E-02  0.1130116E+00
         25   -1    0    0    0    0  0.00000000000E+00  0.00000000000E+00  0.99999998245E-14  0.12500000000E+03  0.12500000000E+03 0.  0.
        -11    1    3    3    0    0 -0.17866333814E+02 -0.86990818019E+01 -0.31605558584E+02  0.37333513655E+02  0.51100000000E-03 0. -1.
         23    2    1    0    0    0  0.20171137529E+02 -0.18996947351E+02  0.10835323109E+02  0.95248310557E+02  0.90482471447E+02 0.  0.
         11    1    3    3    0    0  0.38037471343E+02 -0.10297865549E+02  0.42440881693E+02  0.57914796902E+02  0.51100000000E-03 0.  1.
         22    1    1    0    0    0 -0.20171137529E+02  0.18996947351E+02 -0.10835323109E+02  0.29751689443E+02  0.00000000000E+00 0.  1.
</event>
<event>
 5    1  0.6690694E-004  0.9118800E+02  0.7818608E-02  0.1130116E+00
         25   -1    0    0    0    0  0.00000000000E+00  0.00000000000E+00  0.99999998245E-14  0.12500000000E+03  0.12500000000E+03 0.  0.
        -11    1    3    3    0    0 -0.17335913434E+02  0.53550474990E+02  0.20225850123E+02  0.59810302454E+02  0.51100000000E-03 0.  1.
         23    2    1    0    0    0 -0.48633461899E+01  0.32151252561E+02 -0.10554761150E+01  0.92465876265E+02  0.86553272995E+02 0.  0.
         11    1    3    3    0    0  0.12472567244E+02 -0.21399222429E+02 -0.21281326238E+02  0.32655573811E+02  0.51100000000E-03 0. -1.
         22    1    1    0    0    0  0.48633461899E+01 -0.32151252561E+02  0.10554761150E+01  0.32534123735E+02  0.00000000000E+00 0.  1.
</event>
<event>
 5    1  0.6690694E-004  0.9118800E+02  0.7818608E-02  0.1130116E+00
         25   -1    0    0    0    0  0.00000000000E+00  0.00000000000E+00  0.99999998245E-14  0.12500000000E+03  0.12500000000E+03 0.  0.
        -11    1    3    3    0    0  0.38836045594E+01  0.37850805020E+02  0.30034733487E+01  0.38167874941E+02  0.51100000000E-03 0.  1.
         23    2    1    0    0    0  0.16650771240E+02 -0.17437427304E+02 -0.13636294091E+02  0.97300531225E+02  0.93274502445E+02 0.  0.
         11    1    3    3    0    0  0.12767166681E+02 -0.55288232324E+02 -0.16639767439E+02  0.59132656285E+02  0.51100000000E-03 0. -1.
         22    1    1    0    0    0 -0.16650771240E+02  0.17437427304E+02  0.13636294091E+02  0.27699468775E+02  0.00000000000E+00 0. -1.
</event>
<event>
 5    1  0.6690694E-004  0.9118800E+02  0.7818608E-02  0.1130116E+00
         25   -1    0    0    0    0  0.00000000000E+00  0.00000000000E+00  0.99999998245E-14  0.12500000000E+03  0.12500000000E+03 0.  0.
        -11    1    3    3    0    0 -0.66721787492E+01  0.48184768726E+02  0.20744173396E+02  0.52882990050E+02  0.51100000000E-03 0. -1.
         23    2    1    0    0    0 -0.24950401527E+02  0.15841098105E+02 -0.25223915832E-01  0.95445583041E+02  0.90754590849E+02 0.  0.
         11    1    3    3    0    0 -0.18278222778E+02 -0.32343670621E+02 -0.20769397312E+02  0.42562592991E+02  0.51100000000E-03 0.  1.
         22    1    1    0    0    0  0.24950401527E+02 -0.15841098105E+02  0.25223915832E-01  0.29554416959E+02  0.00000000000E+00 0. -1.
</event>
<event>
 5    1  0.6690694E-004  0.9118800E+02  0.7818608E-02  0.1130116E+00
         25   -1    0    0    0    0  0.00000000000E+00  0.00000000000E+00  0.99999998245E-14  0.12500000000E+03  0.12500000000E+03 0.  0.
        -11    1    3    3    0    0  0.36138909013E+02 -0.18547739273E+01  0.50393765569E+02  0.62040249350E+02  0.51100000000E-03 0. -1.
         23    2    1    0    0    0  0.16152086548E+02 -0.48666655565E+01  0.28839641958E+02  0.91588934740E+02  0.85277392579E+02 0.  0.
         11    1    3    3    0    0 -0.19986822465E+02 -0.30118916293E+01 -0.21554123610E+02  0.29548685390E+02  0.51100000000E-03 0.  1.
         22    1    1    0    0    0 -0.16152086548E+02  0.48666655565E+01 -0.28839641958E+02  0.33411065260E+02  0.00000000000E+00 0. -1.
</event>
<event>
 5    1  0.6690694E-004  0.9118800E+02  0.7818608E-02  0.1130116E+00
         25   -1    0    0    0    0  0.00000000000E+00  0.00000000000E+00  0.99999998245E-14  0.12500000000E+03  0.12500000000E+03 0.  0.
        -11    1    3    3    0    0 -0.28192025784E+02  0.36217906756E+02 -0.89173856201E+01  0.46755179972E+02  0.51100000000E-03 0.  1.
         23    2    1    0    0    0 -0.22026234121E+02 -0.32906073543E+01  0.19165425880E+02  0.95618089996E+02  0.90991881501E+02 0.  0.
         11    1    3    3    0    0  0.61657916636E+01 -0.39508514111E+02  0.28082811500E+02  0.48862910025E+02  0.51100000000E-03 0. -1.
         22    1    1    0    0    0  0.22026234121E+02  0.32906073543E+01 -0.19165425880E+02  0.29381910004E+02  0.00000000000E+00 0. -1.
</event>
<event>
 5    1  0.6690694E-004  0.9118800E+02  0.7818608E-02  0.1130116E+00
         25   -1    0    0    0    0  0.00000000000E+00  0.00000000000E+00  0.99999998245E-14  0.12500000000E+03  0.12500000000E+03 0.  0.
        -11    1    3    3    0    0 -0.12666566076E+02  0.16840082517E+02  0.45356485941E+02  0.50012409385E+02  0.51100000000E-03 0.  1.
         23    2    1    0    0    0  0.21832825753E+02  0.37343875494E+01  0.11747396406E+02  0.99927719428E+02  0.96731224830E+02 0.  0.
         11    1    3    3    0    0  0.34499391829E+02 -0.13105694967E+02 -0.33609089535E+02  0.49915310044E+02  0.51100000000E-03 0. -1.
         22    1    1    0    0    0 -0.21832825753E+02 -0.37343875494E+01 -0.11747396406E+02  0.25072280572E+02  0.00000000000E+00 0.  1.
</event>
<event>
 5    1  0.6690694E-004  0.9118800E+02  0.7818608E-02  0.1130116E+00
         25   -1    0    0    0    0  0.00000000000E+00  0.00000000000E+00  0.99999998245E-14  0.12500000000E+03  0.12500000000E+03 0.  0.
        -11    1    3    3    0    0 -0.19348538151E+02  0.27670798195E+02  0.11509946420E+01  0.33784075987E+02  0.51100000000E-03 0.  1.
         23    2    1    0    0    0  0.12425566483E+02 -0.25068705845E+02 -0.76806587139E+01  0.95985740860E+02  0.91495547514E+02 0.  0.
         11    1    3    3    0    0  0.31774104633E+02 -0.52739504041E+02 -0.88316533559E+01  0.62201664873E+02  0.51100000000E-03 0. -1.
         22    1    1    0    0    0 -0.12425566483E+02  0.25068705845E+02  0.76806587139E+01  0.29014259140E+02  0.00000000000E+00 0. -1.
</event>
<event>
 5    1  0.6690694E-004  0.9118800E+02  0.7818608E-02  0.1130116E+00
         25   -1    0    0    0    0  0.00000000000E+00  0.00000000000E+00  0.99999998245E-14  0.12500000000E+03  0.12500000000E+03 0.  0.
        -11    1    3    3    0    0  0.56284694039E+02 -0.22930829861E+01  0.20483129302E+02  0.59939833158E+02  0.51100000000E-03 0. -1.
         23    2    1    0    0    0  0.29486881798E+02  0.11752529518E+01 -0.24597527680E+01  0.95387370915E+02  0.90674377465E+02 0.  0.
         11    1    3    3    0    0 -0.26797812242E+02  0.34683359379E+01 -0.22942882070E+02  0.35447537757E+02  0.51100000000E-03 0.  1.
         22    1    1    0    0    0 -0.29486881798E+02 -0.11752529518E+01  0.24597527680E+01  0.29612629085E+02  0.00000000000E+00 0. -1.
</event>
<event>
 5    1  0.6690694E-004  0.9118800E+02  0.7818608E-02  0.1130116E+00
         25   -1    0    0    0    0  0.00000000000E+00  0.00000000000E+00  0.99999998245E-14  0.12500000000E+03  0.12500000000E+03 0.  0.
        -11    1    3    3    0    0 -0.40724852804E+02  0.21221481750E+02 -0.38678117311E+01  0.46084974682E+02  0.51100000000E-03 0. -1.
         23    2    1    0    0    0 -0.81546335610E+00  0.12179660329E+02 -0.28603289115E+02  0.93900848012E+02  0.88601422127E+02 0.  0.
         11    1    3    3    0    0  0.39909389448E+02 -0.90418214209E+01 -0.24735477383E+02  0.47815873330E+02  0.51100000000E-03 0.  1.
         22    1    1    0    0    0  0.81546335610E+00 -0.12179660329E+02  0.28603289115E+02  0.31099151988E+02  0.00000000000E+00 0.  1.
</event>
<event>
 5    1  0.6690694E-004  0.9118800E+02  0.7818608E-02  0.1130116E+00
         25   -1    0    0    0    0  0.00000000000E+00  0.00000000000E+00  0.99999998245E-14  0.12500000000E+03  0.12500000000E+03 0.  0.
        -11    1    3    3    0    0 -0.22746023470E+02  0.23753198836E+02 -0.12012652682E+02  0.35012852831E+02  0.51100000000E-03 0.  1.
         23    2    1    0    0    0  0.19492429449E+02 -0.18328669646E+02  0.65398110585E+01  0.97456142872E+02  0.93482809746E+02 0.  0.
         11    1    3    3    0    0  0.42238452919E+02 -0.42081868483E+02  0.18552463740E+02  0.62443290041E+02  0.51100000000E-03 0. -1.
         22    1    1    0    0    0 -0.19492429449E+02  0.18328669646E+02 -0.65398110585E+01  0.27543857128E+02  0.00000000000E+00 0. -1.
</event>
<event>
 5    1  0.6690694E-004  0.9118800E+02  0.7818608E-02  0.1130116E+00
         25   -1    0    0    0    0  0.00000000000E+00  0.00000000000E+00  0.99999998245E-14  0.12500000000E+03  0.12500000000E+03 0.  0.
        -11    1    3    3    0    0  0.20388511047E+02 -0.25342920882E+02 -0.99398439557E+01  0.34011108769E+02  0.51100000000E-03 0.  1.
         23    2    1    0    0    0 -0.31850377203E+02 -0.66556559105E+00 -0.93884356730E+01  0.91788070970E+02  0.85568789535E+02 0.  0.
         11    1    3    3    0    0 -0.52238888250E+02  0.24677355291E+02  0.55140828270E+00  0.57776962201E+02  0.51100000000E-03 0. -1.
         22    1    1    0    0    0  0.31850377203E+02  0.66556559105E+00  0.93884356730E+01  0.33211929030E+02  0.00000000000E+00 0. -1.
</event>
<event>
 5    1  0.6690694E-004  0.9118800E+02  0.7818608E-02  0.1130116E+00
         25   -1    0    0    0    0  0.00000000000E+00  0.00000000000E+00  0.99999998245E-14  0.12500000000E+03  0.12500000000E+03 0.  0.
        -11    1    3    3    0    0  0.23627023253E+02 -0.59309485755E+01 -0.24325558606E+02  0.34425937614E+02  0.51100000000E-03 0.  1.
         23    2    1    0    0    0 -0.40909551618E+01  0.45175072210E+01  0.28967606114E+02  0.95398209690E+02  0.90689318127E+02 0.  0.
         11    1    3    3    0    0 -0.27717978415E+02  0.10448455796E+02  0.53293164720E+02  0.60972272076E+02  0.51100000000E-03 0. -1.
         22    1    1    0    0    0  0.40909551618E+01 -0.45175072210E+01 -0.28967606114E+02  0.29601790310E+02  0.00000000000E+00 0. -1.
</event>
<event>
 5    1  0.6690694E-004  0.9118800E+02  0.7818608E-02  0.1130116E+00
         25   -1    0    0    0    0  0.00000000000E+00  0.00000000000E+00  0.99999998245E-14  0.12500000000E+03  0.12500000000E+03 0.  0.
        -11    1    3    3    0    0  0.16154099870E+02 -0.94818588934E+01  0.41369403371E+02  0.45412422598E+02  0.51100000000E-03 0.  1.
         23    2    1    0    0    0  0.11528106174E+02 -0.26597555275E+02 -0.54743832290E+01  0.95499219497E+02  0.90828436485E+02 0.  0.
         11    1    3    3    0    0 -0.46259936962E+01 -0.17115696381E+02 -0.46843786600E+02  0.50086796899E+02  0.51100000000E-03 0. -1.
         22    1    1    0    0    0 -0.11528106174E+02  0.26597555275E+02  0.54743832290E+01  0.29500780503E+02  0.00000000000E+00 0.  1.
</event>
<event>
 5    1  0.6690694E-004  0.9118800E+02  0.7818608E-02  0.1130116E+00
         25   -1    0    0    0    0  0.00000000000E+00  0.00000000000E+00  0.99999998245E-14  0.12500000000E+03  0.12500000000E+03 0.  0.
        -11    1    3    3    0    0  0.54711743781E+02 -0.20954330564E+02 -0.39776921290E+01  0.58722064949E+02  0.51100000000E-03 0.  1.
         23    2    1    0    0    0  0.20167646497E+02 -0.14870139601E+02 -0.15373613020E+02  0.95602670287E+02  0.90970696226E+02 0.  0.
         11    1    3    3    0    0 -0.34544097285E+02  0.60841909625E+01 -0.11395920891E+02  0.36880605338E+02  0.51100000000E-03 0. -1.
         22    1    1    0    0    0 -0.20167646497E+02  0.14870139601E+02  0.15373613020E+02  0.29397329713E+02  0.00000000000E+00 0.  1.
</event>
<event>
 5    1  0.6690694E-004  0.9118800E+02  0.7818608E-02  0.1130116E+00
         25   -1    0    0    0    0  0.00000000000E+00  0.00000000000E+00  0.99999998245E-14  0.12500000000E+03  0.12500000000E+03 0.  0.
        -11    1    3    3    0    0 -0.99218624568E+01 -0.80958825334E+01 -0.34591827987E+02  0.36886057425E+02  0.51100000000E-03 0.  1.
         23    2    1    0    0    0 -0.16214916384E+02 -0.24737152015E+02  0.16600613446E+02  0.91082002272E+02  0.84531062740E+02 0.  0.
         11    1    3    3    0    0 -0.62930539272E+01 -0.16641269481E+02  0.51192441433E+02  0.54195944846E+02  0.51100000000E-03 0. -1.
         22    1    1    0    0    0  0.16214916384E+02  0.24737152015E+02 -0.16600613446E+02  0.33917997728E+02  0.00000000000E+00 0. -1.
</event>
<event>
 5    1  0.6690694E-004  0.9118800E+02  0.7818608E-02  0.1130116E+00
         25   -1    0    0    0    0  0.00000000000E+00  0.00000000000E+00  0.99999998245E-14  0.12500000000E+03  0.12500000000E+03 0.  0.
        -11    1    3    3    0    0 -0.21081387445E+01  0.40603618751E+02  0.62071376623E-02  0.40658309648E+02  0.51100000000E-03 0.  1.
         23    2    1    0    0    0  0.37602130807E+01 -0.55780023679E+01  0.28818901941E+02  0.95406378696E+02  0.90700577032E+02 0.  0.
         11    1    3    3    0    0  0.58683518253E+01 -0.46181621119E+02  0.28812694803E+02  0.54748069047E+02  0.51100000000E-03 0. -1.
         22    1    1    0    0    0 -0.37602130807E+01  0.55780023679E+01 -0.28818901941E+02  0.29593621304E+02  0.00000000000E+00 0. -1.
</event>
<event>
 5    1  0.6690694E-004  0.9118800E+02  0.7818608E-02  0.1130116E+00
         25   -1    0    0    0    0  0.00000000000E+00  0.00000000000E+00  0.99999998245E-14  0.12500000000E+03  0.12500000000E+03 0.  0.
        -11    1    3    3    0    0 -0.27512570403E+02  0.90919098488E+01 -0.51351034229E+02  0.58962132522E+02  0.51100000000E-03 0.  1.
         23    2    1    0    0    0 -0.57033416271E+01 -0.76608817372E+01 -0.29209871441E+02  0.94268358256E+02  0.89118401938E+02 0.  0.
         11    1    3    3    0    0  0.21809228776E+02 -0.16752791586E+02  0.22141162788E+02  0.35306225734E+02  0.51100000000E-03 0. -1.
         22    1    1    0    0    0  0.57033416271E+01  0.76608817372E+01  0.29209871441E+02  0.30731641744E+02  0.00000000000E+00 0.  1.
</event>
<event>
 5    1  0.6690694E-004  0.9118800E+02  0.7818608E-02  0.1130116E+00
         25   -1    0    0    0    0  0.00000000000E+00  0.00000000000E+00  0.99999998245E-14  0.12500000000E+03  0.12500000000E+03 0.  0.
        -11    1    3    3    0    0  0.27121413375E+02  0.76821552466E+01 -0.51524438575E+02  0.58731204171E+02  0.51100000000E-03 0. -1.
         23    2    1    0    0    0  0.17137533362E+02  0.19300242054E+02 -0.26992031425E+02  0.87653458613E+02  0.79299209664E+02 0.  0.
         11    1    3    3    0    0 -0.99838800124E+01  0.11618086807E+02  0.24532407150E+02  0.28922254442E+02  0.51100000000E-03 0.  1.
         22    1    1    0    0    0 -0.17137533362E+02 -0.19300242054E+02  0.26992031425E+02  0.37346541387E+02  0.00000000000E+00 0. -1.
</event>
<event>
 5    1  0.6690694E-004  0.9118800E+02  0.7818608E-02  0.1130116E+00
         25   -1    0    0    0    0  0.00000000000E+00  0.00000000000E+00  0.99999998245E-14  0.12500000000E+03  0.12500000000E+03 0.  0.
        -11    1    3    3    0    0 -0.49645968062E+02 -0.18314814264E+02 -0.24561580438E+02  0.58338887547E+02  0.51100000000E-03 0.  1.
         23    2    1    0    0    0 -0.25457693977E+02  0.73423652319E+01 -0.13292544683E+02  0.95357188832E+02  0.90632760125E+02 0.  0.
         11    1    3    3    0    0  0.24188274085E+02  0.25657179496E+02  0.11269035755E+02  0.37018301285E+02  0.51100000000E-03 0. -1.
         22    1    1    0    0    0  0.25457693977E+02 -0.73423652319E+01  0.13292544683E+02  0.29642811168E+02  0.00000000000E+00 0.  1.
</event>
<event>
 5    1  0.6690694E-004  0.9118800E+02  0.7818608E-02  0.1130116E+00
         25   -1    0    0    0    0  0.00000000000E+00  0.00000000000E+00  0.99999998245E-14  0.12500000000E+03  0.12500000000E+03 0.  0.
        -11    1    3    3    0    0 -0.17631465365E+02 -0.43836383895E+02 -0.39263344245E+02  0.61433763725E+02  0.51100000000E-03 0. -1.
         23    2    1    0    0    0 -0.44259178761E+01 -0.15297156604E+02 -0.23507368304E+02  0.96606548047E+02  0.92339791054E+02 0.  0.
         11    1    3    3    0    0  0.13205547489E+02  0.28539227290E+02  0.15755975942E+02  0.35172784322E+02  0.51100000000E-03 0.  1.
         22    1    1    0    0    0  0.44259178761E+01  0.15297156604E+02  0.23507368304E+02  0.28393451953E+02  0.00000000000E+00 0. -1.
</event>
<event>
 5    1  0.6690694E-004  0.9118800E+02  0.7818608E-02  0.1130116E+00
         25   -1    0    0    0    0  0.00000000000E+00  0.00000000000E+00  0.99999998245E-14  0.12500000000E+03  0.12500000000E+03 0.  0.
        -11    1    3    3    0    0 -0.41291478876E+02 -0.17435341705E+02  0.41801061156E+02  0.61288710887E+02  0.51100000000E-03 0. -1.
         23    2    1    0    0    0 -0.18178954547E+02  0.21566066506E+00  0.21945381554E+02  0.96502269047E+02  0.92198520930E+02 0.  0.
         11    1    3    3    0    0  0.23112524329E+02  0.17651002370E+02 -0.19855679602E+02  0.35213558160E+02  0.51100000000E-03 0.  1.
         22    1    1    0    0    0  0.18178954547E+02 -0.21566066506E+00 -0.21945381554E+02  0.28497730953E+02  0.00000000000E+00 0. -1.
</event>
<event>
 5    1  0.6690694E-004  0.9118800E+02  0.7818608E-02  0.1130116E+00
         25   -1    0    0    0    0  0.00000000000E+00  0.00000000000E+00  0.99999998245E-14  0.12500000000E+03  0.12500000000E+03 0.  0.
        -11    1    3    3    0    0 -0.21604727332E+02 -0.90393171883E+01  0.28550749498E+02  0.36927209419E+02  0.51100000000E-03 0.  1.
         23    2    1    0    0    0  0.96420315548E+01  0.97801075552E+01 -0.21879887379E+02  0.99166905954E+02  0.95743023184E+02 0.  0.
         11    1    3    3    0    0  0.31246758887E+02  0.18819424744E+02 -0.50430636877E+02  0.62239696534E+02  0.51100000000E-03 0. -1.
         22    1    1    0    0    0 -0.96420315548E+01 -0.97801075552E+01  0.21879887379E+02  0.25833094046E+02  0.00000000000E+00 0. -1.
</event>
<event>
 5    1  0.6690694E-004  0.9118800E+02  0.7818608E-02  0.1130116E+00
         25   -1    0    0    0    0  0.00000000000E+00  0.00000000000E+00  0.99999998245E-14  0.12500000000E+03  0.12500000000E+03 0.  0.
        -11    1    3    3    0    0 -0.13291983111E+02  0.40006611556E+02  0.46007042282E+02  0.62400750981E+02  0.51100000000E-03 0. -1.
         23    2    1    0    0    0 -0.56350440405E+01  0.20270395337E+02  0.19598483152E+02  0.96246857732E+02  0.91851589169E+02 0.  0.
         11    1    3    3    0    0  0.76569390705E+01 -0.19736216220E+02 -0.26408559130E+02  0.33846106750E+02  0.51100000000E-03 0.  1.
         22    1    1    0    0    0  0.56350440405E+01 -0.20270395337E+02 -0.19598483152E+02  0.28753142268E+02  0.00000000000E+00 0. -1.
</event>
<event>
 5    1  0.6690694E-004  0.9118800E+02  0.7818608E-02  0.1130116E+00
         25   -1    0    0    0    0  0.00000000000E+00  0.00000000000E+00  0.99999998245E-14  0.12500000000E+03  0.12500000000E+03 0.  0.
        -11    1    3    3    0    0 -0.40159324211E+02 -0.42695096641E+02 -0.75392608077E+01  0.59097233879E+02  0.51100000000E-03 0.  1.
         23    2    1    0    0    0 -0.83267670725E+01 -0.24289059639E+02 -0.12913763693E+02  0.96258762018E+02  0.91867788177E+02 0.  0.
         11    1    3    3    0    0  0.31832557139E+02  0.18406037002E+02 -0.53745028855E+01  0.37161528139E+02  0.51100000000E-03 0. -1.
         22    1    1    0    0    0  0.83267670725E+01  0.24289059639E+02  0.12913763693E+02  0.28741237982E+02  0.00000000000E+00 0.  1.
</event>
<event>
 5    1  0.6690694E-004  0.9118800E+02  0.7818608E-02  0.1130116E+00
         25   -1    0    0    0    0  0.00000000000E+00  0.00000000000E+00  0.99999998245E-14  0.12500000000E+03  0.12500000000E+03 0.  0.
        -11    1    3    3    0    0  0.22691710862E+02 -0.29175567150E+02  0.16409177555E+02  0.40439937793E+02  0.51100000000E-03 0.  1.
         23    2    1    0    0    0  0.12609234940E+02  0.23650984425E+02  0.15101835135E+02  0.94235941515E+02  0.89072921692E+02 0.  0.
         11    1    3    3    0    0 -0.10082475922E+02  0.52826551575E+02 -0.13073424200E+01  0.53796003722E+02  0.51100000000E-03 0. -1.
         22    1    1    0    0    0 -0.12609234940E+02 -0.23650984425E+02 -0.15101835135E+02  0.30764058485E+02  0.00000000000E+00 0. -1.
</event>
<event>
 5    1  0.6690694E-004  0.9118800E+02  0.7818608E-02  0.1130116E+00
         25   -1    0    0    0    0  0.00000000000E+00  0.00000000000E+00  0.99999998245E-14  0.12500000000E+03  0.12500000000E+03 0.  0.
        -11    1    3    3    0    0  0.14326797523E+02  0.19635791930E+02  0.57122536677E+02  0.62079027446E+02  0.51100000000E-03 0.  1.
         23    2    1    0    0    0  0.82811872453E+01  0.13185465195E+02  0.23762035305E+02  0.96591042321E+02  0.92318798629E+02 0.  0.
         11    1    3    3    0    0 -0.60456102779E+01 -0.64503267352E+01 -0.33360501373E+02  0.34512014875E+02  0.51100000000E-03 0. -1.
         22    1    1    0    0    0 -0.82811872453E+01 -0.13185465195E+02 -0.23762035305E+02  0.28408957679E+02  0.00000000000E+00 0.  1.
</event>
<event>
 5    1  0.6690694E-004  0.9118800E+02  0.7818608E-02  0.1130116E+00
         25   -1    0    0    0    0  0.00000000000E+00  0.00000000000E+00  0.99999998245E-14  0.12500000000E+03  0.12500000000E+03 0.  0.
        -11    1    3    3    0    0 -0.29779553807E+02  0.13567336167E+02 -0.23401390175E+02  0.40230827707E+02  0.51100000000E-03 0. -1.
         23    2    1    0    0    0 -0.68187417559E+01 -0.29348046186E+02  0.13610530189E+01  0.94839503993E+02  0.89915938511E+02 0.  0.
         11    1    3    3    0    0  0.22960812051E+02 -0.42915382353E+02  0.24762443194E+02  0.54608676286E+02  0.51100000000E-03 0.  1.
         22    1    1    0    0    0  0.68187417559E+01  0.29348046186E+02 -0.13610530189E+01  0.30160496007E+02  0.00000000000E+00 0.  1.
</event>
<event>
 5    1  0.6690694E-004  0.9118800E+02  0.7818608E-02  0.1130116E+00
         25   -1    0    0    0    0  0.00000000000E+00  0.00000000000E+00  0.99999998245E-14  0.12500000000E+03  0.12500000000E+03 0.  0.
        -11    1    3    3    0    0  0.51083252805E+02 -0.25819240327E+01 -0.23598371703E+02  0.56329816226E+02  0.51100000000E-03 0. -1.
         23    2    1    0    0    0  0.23426572729E+02  0.46733136746E+01  0.88015986495E+01  0.99541950009E+02  0.96231426791E+02 0.  0.
         11    1    3    3    0    0 -0.27656680075E+02  0.72552377073E+01  0.32399970352E+02  0.43212133783E+02  0.51100000000E-03 0.  1.
         22    1    1    0    0    0 -0.23426572729E+02 -0.46733136746E+01 -0.88015986495E+01  0.25458049991E+02  0.00000000000E+00 0. -1.
</event>
<event>
 5    1  0.6690694E-004  0.9118800E+02  0.7818608E-02  0.1130116E+00
         25   -1    0    0    0    0  0.00000000000E+00  0.00000000000E+00  0.99999998245E-14  0.12500000000E+03  0.12500000000E+03 0.  0.
        -11    1    3    3    0    0 -0.31520817299E+02  0.17543996274E+02 -0.25812803714E+02  0.44358252493E+02  0.51100000000E-03 0.  1.
         23    2    1    0    0    0 -0.12391923130E+02 -0.25862642176E+02 -0.63704499268E+01  0.95622820907E+02  0.90998380352E+02 0.  0.
         11    1    3    3    0    0  0.19128894169E+02 -0.43406638450E+02  0.19442353787E+02  0.51264568414E+02  0.51100000000E-03 0. -1.
         22    1    1    0    0    0  0.12391923130E+02  0.25862642176E+02  0.63704499268E+01  0.29377179093E+02  0.00000000000E+00 0.  1.
</event>
<event>
 5    1  0.6690694E-004  0.9118800E+02  0.7818608E-02  0.1130116E+00
         25   -1    0    0    0    0  0.00000000000E+00  0.00000000000E+00  0.99999998245E-14  0.12500000000E+03  0.12500000000E+03 0.  0.
        -11    1    3    3    0    0 -0.24000760967E+02  0.32063642167E+02 -0.23275921415E+01  0.40118965109E+02  0.51100000000E-03 0. -1.
         23    2    1    0    0    0  0.27113895849E+02  0.84070569194E+01  0.15051468521E+01  0.96572769723E+02  0.92294054147E+02 0.  0.
         11    1    3    3    0    0  0.51114656816E+02 -0.23656585247E+02  0.38327389936E+01  0.56453804614E+02  0.51100000000E-03 0.  1.
         22    1    1    0    0    0 -0.27113895849E+02 -0.84070569194E+01 -0.15051468521E+01  0.28427230277E+02  0.00000000000E+00 0.  1.
</event>
<event>
 5    1  0.6690694E-004  0.9118800E+02  0.7818608E-02  0.1130116E+00
         25   -1    0    0    0    0  0.00000000000E+00  0.00000000000E+00  0.99999998245E-14  0.12500000000E+03  0.12500000000E+03 0.  0.
        -11    1    3    3    0    0  0.70203079749E+01 -0.13309452560E+02 -0.50720466721E+02  0.52905500623E+02  0.51100000000E-03 0.  1.
         23    2    1    0    0    0 -0.48932441251E+01 -0.26227291648E+02 -0.11375850968E+02  0.95996126974E+02  0.91509735785E+02 0.  0.
         11    1    3    3    0    0 -0.11913552100E+02 -0.12917839089E+02  0.39344615753E+02  0.43090626351E+02  0.51100000000E-03 0. -1.
         22    1    1    0    0    0  0.48932441251E+01  0.26227291648E+02  0.11375850968E+02  0.29003873026E+02  0.00000000000E+00 0.  1.
</event>
<event>
 5    1  0.6690694E-004  0.9118800E+02  0.7818608E-02  0.1130116E+00
         25   -1    0    0    0    0  0.00000000000E+00  0.00000000000E+00  0.99999998245E-14  0.12500000000E+03  0.12500000000E+03 0.  0.
        -11    1    3    3    0    0 -0.39905637032E+01 -0.16335458396E+02 -0.27760767590E+02  0.32456617463E+02  0.51100000000E-03 0.  1.
         23    2    1    0    0    0  0.41476104275E+01  0.79232858631E+01  0.28964735525E+02  0.94686025745E+02  0.89702321242E+02 0.  0.
         11    1    3    3    0    0  0.81381741307E+01  0.24258744259E+02  0.56725503115E+02  0.62229408282E+02  0.51100000000E-03 0. -1.
         22    1    1    0    0    0 -0.41476104275E+01 -0.79232858631E+01 -0.28964735525E+02  0.30313974255E+02  0.00000000000E+00 0. -1.
</event>
<event>
 5    1  0.6690694E-004  0.9118800E+02  0.7818608E-02  0.1130116E+00
         25   -1    0    0    0    0  0.00000000000E+00  0.00000000000E+00  0.99999998245E-14  0.12500000000E+03  0.12500000000E+03 0.  0.
        -11    1    3    3    0    0 -0.30791872500E+02 -0.20155132237E+02 -0.31381148553E+01  0.36935301984E+02  0.51100000000E-03 0. -1.
         23    2    1    0    0    0  0.13785576124E+02  0.11468562242E+01  0.26896986690E+02  0.94754251848E+02  0.89797343847E+02 0.  0.
         11    1    3    3    0    0  0.44577448625E+02  0.21301988461E+02  0.30035101545E+02  0.57818949864E+02  0.51100000000E-03 0.  1.
         22    1    1    0    0    0 -0.13785576124E+02 -0.11468562242E+01 -0.26896986690E+02  0.30245748152E+02  0.00000000000E+00 0.  1.
</event>
<event>
 5    1  0.6690694E-004  0.9118800E+02  0.7818608E-02  0.1130116E+00
         25   -1    0    0    0    0  0.00000000000E+00  0.00000000000E+00  0.99999998245E-14  0.12500000000E+03  0.12500000000E+03 0.  0.
        -11    1    3    3    0    0 -0.25496641427E+02 -0.11058985111E+02  0.35854500290E+02  0.45364358995E+02  0.51100000000E-03 0.  1.
         23    2    1    0    0    0 -0.25070575209E+02  0.90545449856E+01 -0.10852534596E+02  0.96219867385E+02  0.91814850902E+02 0.  0.
         11    1    3    3    0    0  0.42606621833E+00  0.20113530096E+02 -0.46707034887E+02  0.50855508389E+02  0.51100000000E-03 0. -1.
         22    1    1    0    0    0  0.25070575209E+02 -0.90545449856E+01  0.10852534596E+02  0.28780132615E+02  0.00000000000E+00 0.  1.
</event>
<event>
 5    1  0.6690694E-004  0.9118800E+02  0.7818608E-02  0.1130116E+00
         25   -1    0    0    0    0  0.00000000000E+00  0.00000000000E+00  0.99999998245E-14  0.12500000000E+03  0.12500000000E+03 0.  0.
        -11    1    3    3    0    0  0.44723962618E+02 -0.69649395575E+01  0.14908225691E+02  0.47654993535E+02  0.51100000000E-03 0. -1.
         23    2    1    0    0    0 -0.53255126328E+01 -0.99099048481E+01  0.23894029545E+02  0.98589927172E+02  0.94986745354E+02 0.  0.
         11    1    3    3    0    0 -0.50049475251E+02 -0.29449652906E+01  0.89858038544E+01  0.50934933637E+02  0.51100000000E-03 0.  1.
         22    1    1    0    0    0  0.53255126328E+01  0.99099048481E+01 -0.23894029545E+02  0.26410072828E+02  0.00000000000E+00 0.  1.
</event>
<event>
 5    1  0.6690694E-004  0.9118800E+02  0.7818608E-02  0.1130116E+00
         25   -1    0    0    0    0  0.00000000000E+00  0.00000000000E+00  0.99999998245E-14  0.12500000000E+03  0.12500000000E+03 0.  0.
        -11    1    3    3    0    0 -0.44328931541E+02 -0.10199297077E+02  0.37801158660E+02  0.59143955133E+02  0.51100000000E-03 0.  1.
         23    2    1    0    0    0 -0.28847926972E+02 -0.18109346453E+01  0.60224587734E+01  0.95474546836E+02  0.90794475102E+02 0.  0.
         11    1    3    3    0    0  0.15481004569E+02  0.83883624317E+01 -0.31778699887E+02  0.36330591703E+02  0.51100000000E-03 0. -1.
         22    1    1    0    0    0  0.28847926972E+02  0.18109346453E+01 -0.60224587734E+01  0.29525453164E+02  0.00000000000E+00 0.  1.
</event>
<event>
 5    1  0.6690694E-004  0.9118800E+02  0.7818608E-02  0.1130116E+00
         25   -1    0    0    0    0  0.00000000000E+00  0.00000000000E+00  0.99999998245E-14  0.12500000000E+03  0.12500000000E+03 0.  0.
        -11    1    3    3    0    0 -0.22924885660E+02 -0.46934274680E+02 -0.33582829586E+02  0.62098171998E+02  0.51100000000E-03 0.  1.
         23    2    1    0    0    0 -0.12587889946E+02 -0.18451900121E+02 -0.18763507452E+02  0.95828150499E+02  0.91279995754E+02 0.  0.
         11    1    3    3    0    0  0.10336995713E+02  0.28482374559E+02  0.14819322134E+02  0.33729978501E+02  0.51100000000E-03 0. -1.
         22    1    1    0    0    0  0.12587889946E+02  0.18451900121E+02  0.18763507452E+02  0.29171849501E+02  0.00000000000E+00 0.  1.
</event>
<event>
 5    1  0.6690694E-004  0.9118800E+02  0.7818608E-02  0.1130116E+00
         25   -1    0    0    0    0  0.00000000000E+00  0.00000000000E+00  0.99999998245E-14  0.12500000000E+03  0.12500000000E+03 0.  0.
        -11    1    3    3    0    0  0.38093365392E+01 -0.21643828006E+02 -0.21508415503E+02  0.30750256476E+02  0.51100000000E-03 0.  1.
         23    2    1    0    0    0 -0.27599535556E+02  0.96948118205E+01  0.18412175501E+02  0.90435105297E+02  0.83568991404E+02 0.  0.
         11    1    3    3    0    0 -0.31408872095E+02  0.31338639826E+02  0.39920591004E+02  0.59684848821E+02  0.51100000000E-03 0. -1.
         22    1    1    0    0    0  0.27599535556E+02 -0.96948118205E+01 -0.18412175501E+02  0.34564894703E+02  0.00000000000E+00 0. -1.
</event>
<event>
 5    1  0.6690694E-004  0.9118800E+02  0.7818608E-02  0.1130116E+00
         25   -1    0    0    0    0  0.00000000000E+00  0.00000000000E+00  0.99999998245E-14  0.12500000000E+03  0.12500000000E+03 0.  0.
        -11    1    3    3    0    0 -0.38897348673E+02  0.31560786260E+02 -0.33733570218E+02  0.60390733751E+02  0.51100000000E-03 0.  1.
         23    2    1    0    0    0 -0.25950217299E+02  0.70513771012E+01 -0.12302584498E+02  0.95428235051E+02  0.90730693609E+02 0.  0.
         11    1    3    3    0    0  0.12947131375E+02 -0.24509409159E+02  0.21430985720E+02  0.35037501300E+02  0.51100000000E-03 0. -1.
         22    1    1    0    0    0  0.25950217299E+02 -0.70513771012E+01  0.12302584498E+02  0.29571764949E+02  0.00000000000E+00 0.  1.
</event>
<event>
 5    1  0.6690694E-004  0.9118800E+02  0.7818608E-02  0.1130116E+00
         25   -1    0    0    0    0  0.00000000000E+00  0.00000000000E+00  0.99999998245E-14  0.12500000000E+03  0.12500000000E+03 0.  0.
        -11    1    3    3    0    0  0.35719731342E+02 -0.23470715359E+02  0.45214513646E+01  0.42979264876E+02  0.51100000000E-03 0. -1.
         23    2    1    0    0    0  0.92483849070E+01  0.21032538852E+02  0.17211087048E+02  0.96292477792E+02  0.91913652131E+02 0.  0.
         11    1    3    3    0    0 -0.26471346435E+02  0.44503254211E+02  0.12689635684E+02  0.53313212916E+02  0.51100000000E-03 0.  1.
         22    1    1    0    0    0 -0.92483849070E+01 -0.21032538852E+02 -0.17211087048E+02  0.28707522208E+02  0.00000000000E+00 0.  1.
</event>
<event>
 5    1  0.6690694E-004  0.9118800E+02  0.7818608E-02  0.1130116E+00
         25   -1    0    0    0    0  0.00000000000E+00  0.00000000000E+00  0.99999998245E-14  0.12500000000E+03  0.12500000000E+03 0.  0.
        -11    1    3    3    0    0  0.45967225553E+02  0.14914655348E+02 -0.20298073382E+02  0.52416071510E+02  0.51100000000E-03 0.  1.
         23    2    1    0    0    0  0.15899351057E+02 -0.14038093528E+02 -0.22324396084E+02  0.94206557607E+02  0.89031676395E+02 0.  0.
         11    1    3    3    0    0 -0.30067874497E+02 -0.28952748877E+02 -0.20263227015E+01  0.41790486097E+02  0.51100000000E-03 0. -1.
         22    1    1    0    0    0 -0.15899351057E+02  0.14038093528E+02  0.22324396084E+02  0.30793442393E+02  0.00000000000E+00 0.  1.
</event>
<event>
 5    1  0.6690694E-004  0.9118800E+02  0.7818608E-02  0.1130116E+00
         25   -1    0    0    0    0  0.00000000000E+00  0.00000000000E+00  0.99999998245E-14  0.12500000000E+03  0.12500000000E+03 0.  0.
        -11    1    3    3    0    0 -0.95288973161E+01  0.46602975145E+01 -0.47037957205E+02  0.48219162946E+02  0.51100000000E-03 0.  1.
         23    2    1    0    0    0 -0.23659595238E+02  0.16009942401E+02 -0.24764531797E+01  0.96325490015E+02  0.91958536873E+02 0.  0.
         11    1    3    3    0    0 -0.14130697922E+02  0.11349644886E+02  0.44561504025E+02  0.48106327069E+02  0.51100000000E-03 0. -1.
         22    1    1    0    0    0  0.23659595238E+02 -0.16009942401E+02  0.24764531797E+01  0.28674509985E+02  0.00000000000E+00 0.  1.
</event>
<event>
 5    1  0.6690694E-004  0.9118800E+02  0.7818608E-02  0.1130116E+00
         25   -1    0    0    0    0  0.00000000000E+00  0.00000000000E+00  0.99999998245E-14  0.12500000000E+03  0.12500000000E+03 0.  0.
        -11    1    3    3    0    0  0.21650101546E+02 -0.24489746471E+02 -0.16004049156E+02  0.36395111880E+02  0.51100000000E-03 0.  1.
         23    2    1    0    0    0  0.11930406208E+01  0.28875421954E+02  0.11842773243E+01  0.96075687532E+02  0.91618349052E+02 0.  0.
         11    1    3    3    0    0 -0.20457060925E+02  0.53365168425E+02  0.17188326481E+02  0.59680575652E+02  0.51100000000E-03 0. -1.
         22    1    1    0    0    0 -0.11930406208E+01 -0.28875421954E+02 -0.11842773243E+01  0.28924312468E+02  0.00000000000E+00 0. -1.
</event>
<event>
 5    1  0.6690694E-004  0.9118800E+02  0.7818608E-02  0.1130116E+00
         25   -1    0    0    0    0  0.00000000000E+00  0.00000000000E+00  0.99999998245E-14  0.12500000000E+03  0.12500000000E+03 0.  0.
        -11    1    3    3    0    0 -0.31558210708E+02  0.43808533673E+01 -0.27913471917E+02  0.42358876921E+02  0.51100000000E-03 0.  1.
         23    2    1    0    0    0 -0.14674009914E+02  0.13952165295E+02  0.21511471349E+02  0.95457947211E+02  0.90771618928E+02 0.  0.
         11    1    3    3    0    0  0.16884200794E+02  0.95713119273E+01  0.49424943267E+02  0.53099070290E+02  0.51100000000E-03 0. -1.
         22    1    1    0    0    0  0.14674009914E+02 -0.13952165295E+02 -0.21511471349E+02  0.29542052789E+02  0.00000000000E+00 0. -1.
</event>
<event>
 5    1  0.6690694E-004  0.9118800E+02  0.7818608E-02  0.1130116E+00
         25   -1    0    0    0    0  0.00000000000E+00  0.00000000000E+00  0.99999998245E-14  0.12500000000E+03  0.12500000000E+03 0.  0.
        -11    1    3    3    0    0 -0.43500457640E+02  0.95644318444E-01  0.87018675229E+01  0.44362387913E+02  0.51100000000E-03 0. -1.
         23    2    1    0    0    0 -0.19991525956E+02 -0.20773640671E+02 -0.22328957041E+02  0.88533747392E+02  0.80674883625E+02 0.  0.
         11    1    3    3    0    0  0.23508931684E+02 -0.20869284989E+02 -0.31030824563E+02  0.44171359479E+02  0.51100000000E-03 0.  1.
         22    1    1    0    0    0  0.19991525956E+02  0.20773640671E+02  0.22328957041E+02  0.36466252608E+02  0.00000000000E+00 0. -1.
</event>
<event>
 5    1  0.6690694E-004  0.9118800E+02  0.7818608E-02  0.1130116E+00
         25   -1    0    0    0    0  0.00000000000E+00  0.00000000000E+00  0.99999998245E-14  0.12500000000E+03  0.12500000000E+03 0.  0.
        -11    1    3    3    0    0  0.27102770757E+02 -0.19626811062E+02  0.41614629568E+02  0.53399899714E+02  0.51100000000E-03 0. -1.
         23    2    1    0    0    0 -0.94541676823E+01 -0.19236574920E+02  0.12096811844E+02  0.10038780875E+03  0.97323954852E+02 0.  0.
         11    1    3    3    0    0 -0.36556938439E+02  0.39023614187E+00 -0.29517817724E+02  0.46987909038E+02  0.51100000000E-03 0.  1.
         22    1    1    0    0    0  0.94541676823E+01  0.19236574920E+02 -0.12096811844E+02  0.24612191248E+02  0.00000000000E+00 0. -1.
</event>
<event>
 5    1  0.6690694E-004  0.9118800E+02  0.7818608E-02  0.1130116E+00
         25   -1    0    0    0    0  0.00000000000E+00  0.00000000000E+00  0.99999998245E-14  0.12500000000E+03  0.12500000000E+03 0.  0.
        -11    1    3    3    0    0 -0.19655048460E+02 -0.44214486550E+02 -0.17874705608E+01  0.48419384569E+02  0.51100000000E-03 0.  1.
         23    2    1    0    0    0  0.13907842882E+00 -0.11721005321E+02  0.26627449199E+02  0.95906661253E+02  0.91387446148E+02 0.  0.
         11    1    3    3    0    0  0.19794126889E+02  0.32493481228E+02  0.28414919760E+02  0.47487276684E+02  0.51100000000E-03 0. -1.
         22    1    1    0    0    0 -0.13907842882E+00  0.11721005321E+02 -0.26627449199E+02  0.29093338747E+02  0.00000000000E+00 0. -1.
</event>
<event>
 5    1  0.6690694E-004  0.9118800E+02  0.7818608E-02  0.1130116E+00
         25   -1    0    0    0    0  0.00000000000E+00  0.00000000000E+00  0.99999998245E-14  0.12500000000E+03  0.12500000000E+03 0.  0.
        -11    1    3    3    0    0 -0.92800869390E+01 -0.13131437419E+02  0.30354027796E+02  0.34349987860E+02  0.51100000000E-03 0. -1.
         23    2    1    0    0    0  0.22125798935E+00  0.27713502309E+02 -0.12755084679E+02  0.94491323358E+02  0.89430592301E+02 0.  0.
         11    1    3    3    0    0  0.95013449284E+01  0.40844939728E+02 -0.43109112475E+02  0.60141335498E+02  0.51100000000E-03 0.  1.
         22    1    1    0    0    0 -0.22125798935E+00 -0.27713502309E+02  0.12755084679E+02  0.30508676642E+02  0.00000000000E+00 0.  1.
</event>
<event>
 5    1  0.6690694E-004  0.9118800E+02  0.7818608E-02  0.1130116E+00
         25   -1    0    0    0    0  0.00000000000E+00  0.00000000000E+00  0.99999998245E-14  0.12500000000E+03  0.12500000000E+03 0.  0.
        -11    1    3    3    0    0  0.48183207475E+00  0.40744800380E+01  0.39561492755E+02  0.39773675452E+02  0.51100000000E-03 0.  1.
         23    2    1    0    0    0  0.14268391678E+02 -0.14115032981E+02 -0.15671066226E+02  0.99536232136E+02  0.96223999263E+02 0.  0.
         11    1    3    3    0    0  0.13786559604E+02 -0.18189513019E+02 -0.55232558981E+02  0.59762556684E+02  0.51100000000E-03 0. -1.
         22    1    1    0    0    0 -0.14268391678E+02  0.14115032981E+02  0.15671066226E+02  0.25463767864E+02  0.00000000000E+00 0. -1.
</event>
<event>
 5    1  0.6690694E-004  0.9118800E+02  0.7818608E-02  0.1130116E+00
         25   -1    0    0    0    0  0.00000000000E+00  0.00000000000E+00  0.99999998245E-14  0.12500000000E+03  0.12500000000E+03 0.  0.
        -11    1    3    3    0    0 -0.48839649854E+02  0.15350065162E+02  0.14651952947E+02  0.53250498812E+02  0.51100000000E-03 0.  1.
         23    2    1    0    0    0 -0.13723458535E+02  0.24921226807E+02 -0.71334689123E+01  0.95669346436E+02  0.91062267757E+02 0.  0.
         11    1    3    3    0    0  0.35116191318E+02  0.95711616457E+01 -0.21785421859E+02  0.42418847625E+02  0.51100000000E-03 0. -1.
         22    1    1    0    0    0  0.13723458535E+02 -0.24921226807E+02  0.71334689123E+01  0.29330653564E+02  0.00000000000E+00 0.  1.
</event>
<event>
 5    1  0.6690694E-004  0.9118800E+02  0.7818608E-02  0.1130116E+00
         25   -1    0    0    0    0  0.00000000000E+00  0.00000000000E+00  0.99999998245E-14  0.12500000000E+03  0.12500000000E+03 0.  0.
        -11    1    3    3    0    0 -0.12696293318E+02  0.29581424275E+02 -0.39541561531E+02  0.50988151709E+02  0.51100000000E-03 0. -1.
         23    2    1    0    0    0 -0.19715366841E+02 -0.97524923650E+01 -0.19100344640E+02  0.95868745952E+02  0.91335570771E+02 0.  0.
         11    1    3    3    0    0 -0.70190735228E+01 -0.39333916640E+02  0.20441216890E+02  0.44880594243E+02  0.51100000000E-03 0.  1.
         22    1    1    0    0    0  0.19715366841E+02  0.97524923650E+01  0.19100344640E+02  0.29131254048E+02  0.00000000000E+00 0. -1.
</event>
<event>
 5    1  0.6690694E-004  0.9118800E+02  0.7818608E-02  0.1130116E+00
         25   -1    0    0    0    0  0.00000000000E+00  0.00000000000E+00  0.99999998245E-14  0.12500000000E+03  0.12500000000E+03 0.  0.
        -11    1    3    3    0    0 -0.37664697562E+02 -0.30424867132E+01  0.19090498481E+02  0.42335957534E+02  0.51100000000E-03 0. -1.
         23    2    1    0    0    0 -0.70265092119E+00  0.24715787257E+02 -0.11463696136E+02  0.97746006033E+02  0.93869598424E+02 0.  0.
         11    1    3    3    0    0  0.36962046641E+02  0.27758273970E+02 -0.30554194617E+02  0.55410048499E+02  0.51100000000E-03 0.  1.
         22    1    1    0    0    0  0.70265092119E+00 -0.24715787257E+02  0.11463696136E+02  0.27253993967E+02  0.00000000000E+00 0.  1.
</event>
<event>
 5    1  0.6690694E-004  0.9118800E+02  0.7818608E-02  0.1130116E+00
         25   -1    0    0    0    0  0.00000000000E+00  0.00000000000E+00  0.99999998245E-14  0.12500000000E+03  0.12500000000E+03 0.  0.
        -11    1    3    3    0    0 -0.17940017707E+02  0.40527256341E+01 -0.38908054557E+02  0.43036095665E+02  0.51100000000E-03 0.  1.
         23    2    1    0    0    0  0.23322587017E+02  0.16881535983E+02 -0.13086522726E+02  0.93374276302E+02  0.87855387288E+02 0.  0.
         11    1    3    3    0    0  0.41262604724E+02  0.12828810349E+02  0.25821531831E+02  0.50338180638E+02  0.51100000000E-03 0. -1.
         22    1    1    0    0    0 -0.23322587017E+02 -0.16881535983E+02  0.13086522726E+02  0.31625723698E+02  0.00000000000E+00 0. -1.
</event>
<event>
 5    1  0.6690694E-004  0.9118800E+02  0.7818608E-02  0.1130116E+00
         25   -1    0    0    0    0  0.00000000000E+00  0.00000000000E+00  0.99999998245E-14  0.12500000000E+03  0.12500000000E+03 0.  0.
        -11    1    3    3    0    0  0.49298425109E+02  0.30075171502E+02  0.11534502299E+02  0.58888839372E+02  0.51100000000E-03 0. -1.
         23    2    1    0    0    0  0.17854001294E+02  0.23325528008E+02 -0.52411331461E+01  0.95161851671E+02  0.90362951024E+02 0.  0.
         11    1    3    3    0    0 -0.31444423815E+02 -0.67496434934E+01 -0.16775635445E+02  0.36273012298E+02  0.51100000000E-03 0.  1.
         22    1    1    0    0    0 -0.17854001294E+02 -0.23325528008E+02  0.52411331461E+01  0.29838148329E+02  0.00000000000E+00 0. -1.
</event>
<event>
 5    1  0.6690694E-004  0.9118800E+02  0.7818608E-02  0.1130116E+00
         25   -1    0    0    0    0  0.00000000000E+00  0.00000000000E+00  0.99999998245E-14  0.12500000000E+03  0.12500000000E+03 0.  0.
        -11    1    3    3    0    0  0.36312854238E+02  0.32366859754E+02  0.54741849378E+01  0.48951033639E+02  0.51100000000E-03 0.  1.
         23    2    1    0    0    0  0.19163887326E+02 -0.10109226193E+02  0.18429806262E+02  0.96555162322E+02  0.92270204186E+02 0.  0.
         11    1    3    3    0    0 -0.17148966912E+02 -0.42476085947E+02  0.12955621324E+02  0.47604128684E+02  0.51100000000E-03 0. -1.
         22    1    1    0    0    0 -0.19163887326E+02  0.10109226193E+02 -0.18429806262E+02  0.28444837678E+02  0.00000000000E+00 0.  1.
</event>
<event>
 5    1  0.6690694E-004  0.9118800E+02  0.7818608E-02  0.1130116E+00
         25   -1    0    0    0    0  0.00000000000E+00  0.00000000000E+00  0.99999998245E-14  0.12500000000E+03  0.12500000000E+03 0.  0.
        -11    1    3    3    0    0  0.25481319783E+02  0.94436674313E+01  0.52785171505E+02  0.59369645809E+02  0.51100000000E-03 0. -1.
         23    2    1    0    0    0  0.90339983535E+01  0.13915966101E+02  0.95191031496E+01  0.10587199531E+03  0.10412972115E+03 0.  0.
         11    1    3    3    0    0 -0.16447321429E+02  0.44722986694E+01 -0.43266068356E+02  0.46502349498E+02  0.51100000000E-03 0.  1.
         22    1    1    0    0    0 -0.90339983535E+01 -0.13915966101E+02 -0.95191031496E+01  0.19128004693E+02  0.00000000000E+00 0. -1.
</event>
<event>
 5    1  0.6690694E-004  0.9118800E+02  0.7818608E-02  0.1130116E+00
         25   -1    0    0    0    0  0.00000000000E+00  0.00000000000E+00  0.99999998245E-14  0.12500000000E+03  0.12500000000E+03 0.  0.
        -11    1    3    3    0    0 -0.87366355526E+01 -0.28248222397E+02 -0.15868205689E+02  0.33557276728E+02  0.51100000000E-03 0.  1.
         23    2    1    0    0    0  0.19818991508E+02  0.20241507358E+02  0.92743190402E+01  0.95191879660E+02  0.90404479507E+02 0.  0.
         11    1    3    3    0    0  0.28555627061E+02  0.48489729755E+02  0.25142524729E+02  0.61634602932E+02  0.51100000000E-03 0. -1.
         22    1    1    0    0    0 -0.19818991508E+02 -0.20241507358E+02 -0.92743190402E+01  0.29808120340E+02  0.00000000000E+00 0. -1.
</event>
<event>
 5    1  0.6690694E-004  0.9118800E+02  0.7818608E-02  0.1130116E+00
         25   -1    0    0    0    0  0.00000000000E+00  0.00000000000E+00  0.99999998245E-14  0.12500000000E+03  0.12500000000E+03 0.  0.
        -11    1    3    3    0    0  0.16299327882E+02  0.27771897895E+02  0.49786997311E+02  0.59293266933E+02  0.51100000000E-03 0.  1.
         23    2    1    0    0    0 -0.24988453456E+01  0.43593325469E+01  0.28405130560E+02  0.96153865936E+02  0.91724950172E+02 0.  0.
         11    1    3    3    0    0 -0.18798173228E+02 -0.23412565348E+02 -0.21381866751E+02  0.36860599003E+02  0.51100000000E-03 0. -1.
         22    1    1    0    0    0  0.24988453456E+01 -0.43593325469E+01 -0.28405130560E+02  0.28846134064E+02  0.00000000000E+00 0.  1.
</event>
<event>
 5    1  0.6690694E-004  0.9118800E+02  0.7818608E-02  0.1130116E+00
         25   -1    0    0    0    0  0.00000000000E+00  0.00000000000E+00  0.99999998245E-14  0.12500000000E+03  0.12500000000E+03 0.  0.
        -11    1    3    3    0    0 -0.49073139061E+02 -0.55783298791E+00 -0.19395278010E+02  0.52769886908E+02  0.51100000000E-03 0.  1.
         23    2    1    0    0    0 -0.23406360548E+02 -0.11301637154E+02  0.13382478123E+02  0.95765167400E+02  0.91193705100E+02 0.  0.
         11    1    3    3    0    0  0.25666778513E+02 -0.10743804166E+02  0.32777756133E+02  0.42995280492E+02  0.51100000000E-03 0. -1.
         22    1    1    0    0    0  0.23406360548E+02  0.11301637154E+02 -0.13382478123E+02  0.29234832600E+02  0.00000000000E+00 0.  1.
</event>
<event>
 5    1  0.6690694E-004  0.9118800E+02  0.7818608E-02  0.1130116E+00
         25   -1    0    0    0    0  0.00000000000E+00  0.00000000000E+00  0.99999998245E-14  0.12500000000E+03  0.12500000000E+03 0.  0.
        -11    1    3    3    0    0  0.88933670923E+01 -0.11647888035E+02  0.35068759262E+02  0.38007672257E+02  0.51100000000E-03 0.  1.
         23    2    1    0    0    0  0.17735824365E+02 -0.12183231956E+02 -0.21095806798E+02  0.94866568876E+02  0.89953555900E+02 0.  0.
         11    1    3    3    0    0  0.88424572730E+01 -0.53534392096E+00 -0.56164566061E+02  0.56858896620E+02  0.51100000000E-03 0. -1.
         22    1    1    0    0    0 -0.17735824365E+02  0.12183231956E+02  0.21095806798E+02  0.30133431124E+02  0.00000000000E+00 0. -1.
</event>
<event>
 5    1  0.6690694E-004  0.9118800E+02  0.7818608E-02  0.1130116E+00
         25   -1    0    0    0    0  0.00000000000E+00  0.00000000000E+00  0.99999998245E-14  0.12500000000E+03  0.12500000000E+03 0.  0.
        -11    1    3    3    0    0  0.35462877979E+02  0.94128124915E+01  0.13269249274E+02  0.39016531498E+02  0.51100000000E-03 0. -1.
         23    2    1    0    0    0 -0.20086658801E+02  0.19607604876E+02  0.83831517510E+01  0.95704791108E+02  0.91110909209E+02 0.  0.
         11    1    3    3    0    0 -0.55549536781E+02  0.10194792384E+02 -0.48860975227E+01  0.56688259610E+02  0.51100000000E-03 0.  1.
         22    1    1    0    0    0  0.20086658801E+02 -0.19607604876E+02 -0.83831517510E+01  0.29295208892E+02  0.00000000000E+00 0. -1.
</event>
<event>
 5    1  0.6690694E-004  0.9118800E+02  0.7818608E-02  0.1130116E+00
         25   -1    0    0    0    0  0.00000000000E+00  0.00000000000E+00  0.99999998245E-14  0.12500000000E+03  0.12500000000E+03 0.  0.
        -11    1    3    3    0    0  0.26206573949E+02 -0.23243902014E+02  0.35790202333E+02  0.50079956891E+02  0.51100000000E-03 0.  1.
         23    2    1    0    0    0  0.30600144796E+02 -0.58185021296E+00 -0.19632108406E+01  0.94331423117E+02  0.89206814646E+02 0.  0.
         11    1    3    3    0    0  0.43935708476E+01  0.22662051801E+02 -0.37753413173E+02  0.44251466226E+02  0.51100000000E-03 0. -1.
         22    1    1    0    0    0 -0.30600144796E+02  0.58185021296E+00  0.19632108406E+01  0.30668576883E+02  0.00000000000E+00 0.  1.
</event>
<event>
 5    1  0.6690694E-004  0.9118800E+02  0.7818608E-02  0.1130116E+00
         25   -1    0    0    0    0  0.00000000000E+00  0.00000000000E+00  0.99999998245E-14  0.12500000000E+03  0.12500000000E+03 0.  0.
        -11    1    3    3    0    0 -0.21515996339E+02 -0.44007122310E+02  0.97555055474E+01  0.49947320261E+02  0.51100000000E-03 0.  1.
         23    2    1    0    0    0  0.18503946502E+02 -0.20846923735E+02  0.40060506525E+00  0.97122576342E+02  0.93035714033E+02 0.  0.
         11    1    3    3    0    0  0.40019942841E+02  0.23160198575E+02 -0.93549004822E+01  0.47175256081E+02  0.51100000000E-03 0. -1.
         22    1    1    0    0    0 -0.18503946502E+02  0.20846923735E+02 -0.40060506525E+00  0.27877423658E+02  0.00000000000E+00 0.  1.
</event>
<event>
 5    1  0.6690694E-004  0.9118800E+02  0.7818608E-02  0.1130116E+00
         25   -1    0    0    0    0  0.00000000000E+00  0.00000000000E+00  0.99999998245E-14  0.12500000000E+03  0.12500000000E+03 0.  0.
        -11    1    3    3    0    0 -0.63403009933E+01 -0.30134261646E+02  0.17896399926E+02  0.35616769536E+02  0.51100000000E-03 0.  1.
         23    2    1    0    0    0  0.24478402283E+02  0.58330997296E+01 -0.17158545618E+02  0.94542933193E+02  0.89502699949E+02 0.  0.
         11    1    3    3    0    0  0.30818703276E+02  0.35967361375E+02 -0.35054945544E+02  0.58926163657E+02  0.51100000000E-03 0. -1.
         22    1    1    0    0    0 -0.24478402283E+02 -0.58330997296E+01  0.17158545618E+02  0.30457066807E+02  0.00000000000E+00 0. -1.
</event>
<event>
 5    1  0.6690694E-004  0.9118800E+02  0.7818608E-02  0.1130116E+00
         25   -1    0    0    0    0  0.00000000000E+00  0.00000000000E+00  0.99999998245E-14  0.12500000000E+03  0.12500000000E+03 0.  0.
        -11    1    3    3    0    0 -0.16986602778E+02  0.37929956824E+02 -0.33920165612E+01  0.41698106374E+02  0.51100000000E-03 0.  1.
         23    2    1    0    0    0  0.51781212690E+01 -0.10839349499E+00  0.28482496443E+02  0.96050435363E+02  0.91583889636E+02 0.  0.
         11    1    3    3    0    0  0.22164724047E+02 -0.38038350319E+02  0.31874513004E+02  0.54352328989E+02  0.51100000000E-03 0. -1.
         22    1    1    0    0    0 -0.51781212690E+01  0.10839349499E+00 -0.28482496443E+02  0.28949564637E+02  0.00000000000E+00 0. -1.
</event>
<event>
 5    1  0.6690694E-004  0.9118800E+02  0.7818608E-02  0.1130116E+00
         25   -1    0    0    0    0  0.00000000000E+00  0.00000000000E+00  0.99999998245E-14  0.12500000000E+03  0.12500000000E+03 0.  0.
        -11    1    3    3    0    0 -0.45800599025E+01  0.29219894290E+02 -0.46021677247E+02  0.54706251452E+02  0.51100000000E-03 0.  1.
         23    2    1    0    0    0 -0.84862510173E+00  0.35380613873E+02 -0.14985408795E+02  0.86567325368E+02  0.77568236683E+02 0.  0.
         11    1    3    3    0    0  0.37314348007E+01  0.61607195826E+01  0.31036268452E+02  0.31861073917E+02  0.51100000000E-03 0. -1.
         22    1    1    0    0    0  0.84862510173E+00 -0.35380613873E+02  0.14985408795E+02  0.38432674632E+02  0.00000000000E+00 0. -1.
</event>
<event>
 5    1  0.6690694E-004  0.9118800E+02  0.7818608E-02  0.1130116E+00
         25   -1    0    0    0    0  0.00000000000E+00  0.00000000000E+00  0.99999998245E-14  0.12500000000E+03  0.12500000000E+03 0.  0.
        -11    1    3    3    0    0  0.92657882625E+01  0.33318590035E+01 -0.29912223089E+02  0.31491224284E+02  0.51100000000E-03 0.  1.
         23    2    1    0    0    0 -0.17053698829E+02 -0.22247184501E+02  0.17881283593E+02  0.91750847155E+02  0.85514395214E+02 0.  0.
         11    1    3    3    0    0 -0.26319487091E+02 -0.25579043504E+02  0.47793506682E+02  0.60259622871E+02  0.51100000000E-03 0. -1.
         22    1    1    0    0    0  0.17053698829E+02  0.22247184501E+02 -0.17881283593E+02  0.33249152845E+02  0.00000000000E+00 0. -1.
</event>
<event>
 5    1  0.6690694E-004  0.9118800E+02  0.7818608E-02  0.1130116E+00
         25   -1    0    0    0    0  0.00000000000E+00  0.00000000000E+00  0.99999998245E-14  0.12500000000E+03  0.12500000000E+03 0.  0.
        -11    1    3    3    0    0 -0.18070081740E+02 -0.27665160982E+02 -0.16438397424E+02  0.36906773042E+02  0.51100000000E-03 0.  1.
         23    2    1    0    0    0 -0.51107062688E+01  0.28179376462E+02 -0.71667802482E+00  0.96351959862E+02  0.91994510519E+02 0.  0.
         11    1    3    3    0    0  0.12959375471E+02  0.55844537444E+02  0.15721719399E+02  0.59445186820E+02  0.51100000000E-03 0. -1.
         22    1    1    0    0    0  0.51107062688E+01 -0.28179376462E+02  0.71667802482E+00  0.28648040138E+02  0.00000000000E+00 0. -1.
</event>
<event>
 5    1  0.6690694E-004  0.9118800E+02  0.7818608E-02  0.1130116E+00
         25   -1    0    0    0    0  0.00000000000E+00  0.00000000000E+00  0.99999998245E-14  0.12500000000E+03  0.12500000000E+03 0.  0.
        -11    1    3    3    0    0 -0.23091873374E+02  0.17956393158E+02 -0.42609974273E+02  0.51684393959E+02  0.51100000000E-03 0.  1.
         23    2    1    0    0    0  0.13766939838E+02  0.16818650185E+02 -0.22619550802E+02  0.93630592849E+02  0.88219318815E+02 0.  0.
         11    1    3    3    0    0  0.36858813212E+02 -0.11377429725E+01  0.19990423471E+02  0.41946198889E+02  0.51100000000E-03 0. -1.
         22    1    1    0    0    0 -0.13766939838E+02 -0.16818650185E+02  0.22619550802E+02  0.31369407151E+02  0.00000000000E+00 0.  1.
</event>
<event>
 5    1  0.6690694E-004  0.9118800E+02  0.7818608E-02  0.1130116E+00
         25   -1    0    0    0    0  0.00000000000E+00  0.00000000000E+00  0.99999998245E-14  0.12500000000E+03  0.12500000000E+03 0.  0.
        -11    1    3    3    0    0 -0.41902030634E+01 -0.87002176113E+01 -0.38334285047E+02  0.39531873198E+02  0.51100000000E-03 0.  1.
         23    2    1    0    0    0 -0.11326581020E+02 -0.21167124899E+02  0.16273299618E+02  0.95997260568E+02  0.91511284234E+02 0.  0.
         11    1    3    3    0    0 -0.71363779567E+01 -0.12466907288E+02  0.54607584665E+02  0.56465387370E+02  0.51100000000E-03 0. -1.
         22    1    1    0    0    0  0.11326581020E+02  0.21167124899E+02 -0.16273299618E+02  0.29002739432E+02  0.00000000000E+00 0. -1.
</event>
<event>
 5    1  0.6690694E-004  0.9118800E+02  0.7818608E-02  0.1130116E+00
         25   -1    0    0    0    0  0.00000000000E+00  0.00000000000E+00  0.99999998245E-14  0.12500000000E+03  0.12500000000E+03 0.  0.
        -11    1    3    3    0    0  0.30672257855E+02  0.13620633331E+02 -0.11745436577E+02  0.35556494975E+02  0.51100000000E-03 0. -1.
         23    2    1    0    0    0 -0.14012308279E+02 -0.21773405669E+02  0.10916978164E+02  0.96900064235E+02  0.92736271538E+02 0.  0.
         11    1    3    3    0    0 -0.44684566134E+02 -0.35394039000E+02  0.22662414742E+02  0.61343569260E+02  0.51100000000E-03 0.  1.
         22    1    1    0    0    0  0.14012308279E+02  0.21773405669E+02 -0.10916978164E+02  0.28099935765E+02  0.00000000000E+00 0.  1.
</event>
<event>
 5    1  0.6690694E-004  0.9118800E+02  0.7818608E-02  0.1130116E+00
         25   -1    0    0    0    0  0.00000000000E+00  0.00000000000E+00  0.99999998245E-14  0.12500000000E+03  0.12500000000E+03 0.  0.
        -11    1    3    3    0    0  0.29491107557E+02 -0.26947629288E+02 -0.91885237790E+01  0.40991817704E+02  0.51100000000E-03 0.  1.
         23    2    1    0    0    0 -0.18039583794E+02 -0.18076528957E+02  0.15339927780E+02  0.95209047231E+02  0.90428213561E+02 0.  0.
         11    1    3    3    0    0 -0.47530691352E+02  0.88711003310E+01  0.24528451559E+02  0.54217229527E+02  0.51100000000E-03 0. -1.
         22    1    1    0    0    0  0.18039583794E+02  0.18076528957E+02 -0.15339927780E+02  0.29790952769E+02  0.00000000000E+00 0. -1.
</event>
<event>
 5    1  0.6690694E-004  0.9118800E+02  0.7818608E-02  0.1130116E+00
         25   -1    0    0    0    0  0.00000000000E+00  0.00000000000E+00  0.99999998245E-14  0.12500000000E+03  0.12500000000E+03 0.  0.
        -11    1    3    3    0    0  0.53891926649E+02  0.11774248200E+02  0.23935510156E+01  0.55215050171E+02  0.51100000000E-03 0.  1.
         23    2    1    0    0    0  0.16010091266E+02  0.24924749971E+02  0.17756483253E+00  0.95375724266E+02  0.90658320449E+02 0.  0.
         11    1    3    3    0    0 -0.37881835383E+02  0.13150501771E+02 -0.22159861830E+01  0.40160674096E+02  0.51100000000E-03 0. -1.
         22    1    1    0    0    0 -0.16010091266E+02 -0.24924749971E+02 -0.17756483253E+00  0.29624275734E+02  0.00000000000E+00 0.  1.
</event>
<event>
 5    1  0.6690694E-004  0.9118800E+02  0.7818608E-02  0.1130116E+00
         25   -1    0    0    0    0  0.00000000000E+00  0.00000000000E+00  0.99999998245E-14  0.12500000000E+03  0.12500000000E+03 0.  0.
        -11    1    3    3    0    0  0.22893421209E+02 -0.25971497075E+02 -0.20054788884E+02  0.40010273086E+02  0.51100000000E-03 0.  1.
         23    2    1    0    0    0  0.10509098000E+02  0.64326622157E+01  0.25151335706E+02  0.96992680032E+02  0.92861025237E+02 0.  0.
         11    1    3    3    0    0 -0.12384323209E+02  0.32404159290E+02  0.45206124591E+02  0.56982406947E+02  0.51100000000E-03 0. -1.
         22    1    1    0    0    0 -0.10509098000E+02 -0.64326622157E+01 -0.25151335706E+02  0.28007319968E+02  0.00000000000E+00 0. -1.
</event>
<event>
 5    1  0.6690694E-004  0.9118800E+02  0.7818608E-02  0.1130116E+00
         25   -1    0    0    0    0  0.00000000000E+00  0.00000000000E+00  0.99999998245E-14  0.12500000000E+03  0.12500000000E+03 0.  0.
        -11    1    3    3    0    0 -0.32861104251E+01  0.10709630972E+02  0.32840200556E+02  0.34698321142E+02  0.51100000000E-03 0.  1.
         23    2    1    0    0    0  0.17987859275E+02 -0.27896490866E+01 -0.22828121154E+02  0.95802939553E+02  0.91245465029E+02 0.  0.
         11    1    3    3    0    0  0.21273969700E+02 -0.13499280059E+02 -0.55668321710E+02  0.61104618411E+02  0.51100000000E-03 0. -1.
         22    1    1    0    0    0 -0.17987859275E+02  0.27896490866E+01  0.22828121154E+02  0.29197060447E+02  0.00000000000E+00 0. -1.
</event>
<event>
 5    1  0.6690694E-004  0.9118800E+02  0.7818608E-02  0.1130116E+00
         25   -1    0    0    0    0  0.00000000000E+00  0.00000000000E+00  0.99999998245E-14  0.12500000000E+03  0.12500000000E+03 0.  0.
        -11    1    3    3    0    0  0.25703056213E+02  0.48131292069E+02  0.29879372869E+02  0.62209688138E+02  0.51100000000E-03 0.  1.
         23    2    1    0    0    0  0.80587597058E+01  0.22969266445E+02  0.15524660243E+02  0.96128805278E+02  0.91690791901E+02 0.  0.
         11    1    3    3    0    0 -0.17644296507E+02 -0.25162025624E+02 -0.14354712626E+02  0.33919117140E+02  0.51100000000E-03 0. -1.
         22    1    1    0    0    0 -0.80587597058E+01 -0.22969266445E+02 -0.15524660243E+02  0.28871194722E+02  0.00000000000E+00 0.  1.
</event>
<event>
 5    1  0.6690694E-004  0.9118800E+02  0.7818608E-02  0.1130116E+00
         25   -1    0    0    0    0  0.00000000000E+00  0.00000000000E+00  0.99999998245E-14  0.12500000000E+03  0.12500000000E+03 0.  0.
        -11    1    3    3    0    0  0.23286316559E+02  0.23898338341E+02 -0.24847897267E+02  0.41602897894E+02  0.51100000000E-03 0. -1.
         23    2    1    0    0    0 -0.60509368917E+01 -0.19373363278E+02 -0.23567070123E+02  0.93897784064E+02  0.88597099365E+02 0.  0.
         11    1    3    3    0    0 -0.29337253450E+02 -0.43271701620E+02  0.12808271439E+01  0.52294886170E+02  0.51100000000E-03 0.  1.
         22    1    1    0    0    0  0.60509368917E+01  0.19373363278E+02  0.23567070123E+02  0.31102215936E+02  0.00000000000E+00 0. -1.
</event>
<event>
 5    1  0.6690694E-004  0.9118800E+02  0.7818608E-02  0.1130116E+00
         25   -1    0    0    0    0  0.00000000000E+00  0.00000000000E+00  0.99999998245E-14  0.12500000000E+03  0.12500000000E+03 0.  0.
        -11    1    3    3    0    0  0.29067462659E+02  0.78687087875E+01  0.16468291230E+02  0.34322566624E+02  0.51100000000E-03 0.  1.
         23    2    1    0    0    0 -0.28607877189E+02 -0.19696909348E+01 -0.34252275458E+01  0.96120552232E+02  0.91679540018E+02 0.  0.
         11    1    3    3    0    0 -0.57675339848E+02 -0.98383997222E+01 -0.19893518775E+02  0.61797985608E+02  0.51100000000E-03 0. -1.
         22    1    1    0    0    0  0.28607877189E+02  0.19696909348E+01  0.34252275458E+01  0.28879447768E+02  0.00000000000E+00 0. -1.
</event>
<event>
 5    1  0.6690694E-004  0.9118800E+02  0.7818608E-02  0.1130116E+00
         25   -1    0    0    0    0  0.00000000000E+00  0.00000000000E+00  0.99999998245E-14  0.12500000000E+03  0.12500000000E+03 0.  0.
        -11    1    3    3    0    0  0.25334040754E+02  0.26953426304E+02 -0.59024078341E+01  0.37458500090E+02  0.51100000000E-03 0.  1.
         23    2    1    0    0    0  0.96169060735E+01 -0.21220038793E+02  0.19934649901E+02  0.94337886643E+02  0.89215871127E+02 0.  0.
         11    1    3    3    0    0 -0.15717134680E+02 -0.48173465097E+02  0.25837057736E+02  0.56879386554E+02  0.51100000000E-03 0. -1.
         22    1    1    0    0    0 -0.96169060735E+01  0.21220038793E+02 -0.19934649901E+02  0.30662113357E+02  0.00000000000E+00 0. -1.
</event>
<event>
 5    1  0.6690694E-004  0.9118800E+02  0.7818608E-02  0.1130116E+00
         25   -1    0    0    0    0  0.00000000000E+00  0.00000000000E+00  0.99999998245E-14  0.12500000000E+03  0.12500000000E+03 0.  0.
        -11    1    3    3    0    0  0.14331805405E+02 -0.16039522617E+01 -0.55127516927E+02  0.56982597622E+02  0.51100000000E-03 0.  1.
         23    2    1    0    0    0 -0.11528938305E+02  0.23843322829E+01 -0.27761858965E+02  0.94845029066E+02  0.89923619069E+02 0.  0.
         11    1    3    3    0    0 -0.25860743710E+02  0.39882845446E+01  0.27365657962E+02  0.37862431443E+02  0.51100000000E-03 0. -1.
         22    1    1    0    0    0  0.11528938305E+02 -0.23843322829E+01  0.27761858965E+02  0.30154970934E+02  0.00000000000E+00 0.  1.
</event>
<event>
 5    1  0.6690694E-004  0.9118800E+02  0.7818608E-02  0.1130116E+00
         25   -1    0    0    0    0  0.00000000000E+00  0.00000000000E+00  0.99999998245E-14  0.12500000000E+03  0.12500000000E+03 0.  0.
        -11    1    3    3    0    0 -0.13027738239E+02  0.21602991376E+02 -0.54733170164E+02  0.60267164497E+02  0.51100000000E-03 0.  1.
         23    2    1    0    0    0  0.26708037209E+00  0.18362659843E+02 -0.18794792770E+02  0.98722579204E+02  0.95161151742E+02 0.  0.
         11    1    3    3    0    0  0.13294818611E+02 -0.32403315332E+01  0.35938377394E+02  0.38455414707E+02  0.51100000000E-03 0. -1.
         22    1    1    0    0    0 -0.26708037209E+00 -0.18362659843E+02  0.18794792770E+02  0.26277420796E+02  0.00000000000E+00 0.  1.
</event>
<event>
 5    1  0.6690694E-004  0.9118800E+02  0.7818608E-02  0.1130116E+00
         25   -1    0    0    0    0  0.00000000000E+00  0.00000000000E+00  0.99999998245E-14  0.12500000000E+03  0.12500000000E+03 0.  0.
        -11    1    3    3    0    0 -0.52341324461E+02  0.24030930752E+02  0.15056501124E+02  0.59529808546E+02  0.51100000000E-03 0.  1.
         23    2    1    0    0    0 -0.18021792098E+02  0.17561864841E+02  0.17200550113E+02  0.94519465042E+02  0.89469918188E+02 0.  0.
         11    1    3    3    0    0  0.34319532363E+02 -0.64690659110E+01  0.21440489898E+01  0.34989656496E+02  0.51100000000E-03 0. -1.
         22    1    1    0    0    0  0.18021792098E+02 -0.17561864841E+02 -0.17200550113E+02  0.30480534958E+02  0.00000000000E+00 0.  1.
</event>
<event>
 5    1  0.6690694E-004  0.9118800E+02  0.7818608E-02  0.1130116E+00
         25   -1    0    0    0    0  0.00000000000E+00  0.00000000000E+00  0.99999998245E-14  0.12500000000E+03  0.12500000000E+03 0.  0.
        -11    1    3    3    0    0  0.20882875958E+02 -0.67933893694E+01  0.33911957273E+02  0.40401305595E+02  0.51100000000E-03 0. -1.
         23    2    1    0    0    0 -0.24993529634E+02  0.11342038763E+02  0.66692127495E+01  0.96754703656E+02  0.92540131370E+02 0.  0.
         11    1    3    3    0    0 -0.45876405592E+02  0.18135428132E+02 -0.27242744524E+02  0.56353398061E+02  0.51100000000E-03 0.  1.
         22    1    1    0    0    0  0.24993529634E+02 -0.11342038763E+02 -0.66692127495E+01  0.28245296344E+02  0.00000000000E+00 0.  1.
</event>
<event>
 5    1  0.6690694E-004  0.9118800E+02  0.7818608E-02  0.1130116E+00
         25   -1    0    0    0    0  0.00000000000E+00  0.00000000000E+00  0.99999998245E-14  0.12500000000E+03  0.12500000000E+03 0.  0.
        -11    1    3    3    0    0 -0.10598201354E+02 -0.37794036843E+02 -0.74424005995E+01  0.39951225510E+02  0.51100000000E-03 0. -1.
         23    2    1    0    0    0  0.27757682169E+02 -0.10291166931E+02  0.14541638236E+02  0.92017333662E+02  0.85903046601E+02 0.  0.
         11    1    3    3    0    0  0.38355883523E+02  0.27502869912E+02  0.21984038835E+02  0.52066108151E+02  0.51100000000E-03 0.  1.
         22    1    1    0    0    0 -0.27757682169E+02  0.10291166931E+02 -0.14541638236E+02  0.32982666338E+02  0.00000000000E+00 0.  1.
</event>
<event>
 5    1  0.6690694E-004  0.9118800E+02  0.7818608E-02  0.1130116E+00
         25   -1    0    0    0    0  0.00000000000E+00  0.00000000000E+00  0.99999998245E-14  0.12500000000E+03  0.12500000000E+03 0.  0.
        -11    1    3    3    0    0 -0.13880374927E+02  0.58240277567E+02  0.33979704650E+01  0.59967832566E+02  0.51100000000E-03 0.  1.
         23    2    1    0    0    0 -0.31865294060E+01  0.23109687211E+02  0.13490724780E+02  0.98051692674E+02  0.94275782514E+02 0.  0.
         11    1    3    3    0    0  0.10693845521E+02 -0.35130590356E+02  0.10092754315E+02  0.38083860108E+02  0.51100000000E-03 0. -1.
         22    1    1    0    0    0  0.31865294060E+01 -0.23109687211E+02 -0.13490724780E+02  0.26948307326E+02  0.00000000000E+00 0.  1.
</event>
<event>
 5    1  0.6690694E-004  0.9118800E+02  0.7818608E-02  0.1130116E+00
         25   -1    0    0    0    0  0.00000000000E+00  0.00000000000E+00  0.99999998245E-14  0.12500000000E+03  0.12500000000E+03 0.  0.
        -11    1    3    3    0    0 -0.30322515022E+02 -0.35260310987E+01  0.24182863836E+02  0.38944816294E+02  0.51100000000E-03 0.  1.
         23    2    1    0    0    0  0.48324063046E+01  0.21079573345E+02 -0.16285295902E+02  0.97927663091E+02  0.94111188351E+02 0.  0.
         11    1    3    3    0    0  0.35154921327E+02  0.24605604444E+02 -0.40468159738E+02  0.58982846798E+02  0.51100000000E-03 0. -1.
         22    1    1    0    0    0 -0.48324063046E+01 -0.21079573345E+02  0.16285295902E+02  0.27072336909E+02  0.00000000000E+00 0. -1.
</event>
<event>
 5    1  0.6690694E-004  0.9118800E+02  0.7818608E-02  0.1130116E+00
         25   -1    0    0    0    0  0.00000000000E+00  0.00000000000E+00  0.99999998245E-14  0.12500000000E+03  0.12500000000E+03 0.  0.
        -11    1    3    3    0    0  0.41644310912E+02  0.14002529047E+02 -0.49497324134E+01  0.44213338511E+02  0.51100000000E-03 0.  1.
         23    2    1    0    0    0 -0.58777351338E+01  0.27636808691E+02 -0.12277886052E+02  0.94192737045E+02  0.89012270284E+02 0.  0.
         11    1    3    3    0    0 -0.47522046046E+02  0.13634279643E+02 -0.73281536382E+01  0.49979398534E+02  0.51100000000E-03 0. -1.
         22    1    1    0    0    0  0.58777351338E+01 -0.27636808691E+02  0.12277886052E+02  0.30807262955E+02  0.00000000000E+00 0. -1.
</event>
<event>
 5    1  0.6690694E-004  0.9118800E+02  0.7818608E-02  0.1130116E+00
         25   -1    0    0    0    0  0.00000000000E+00  0.00000000000E+00  0.99999998245E-14  0.12500000000E+03  0.12500000000E+03 0.  0.
        -11    1    3    3    0    0  0.21088031523E+02  0.30558216131E+02  0.23802048163E+02  0.44102688621E+02  0.51100000000E-03 0.  1.
         23    2    1    0    0    0 -0.10930632728E+02 -0.41193832928E+01  0.31023017909E+02  0.91850706030E+02  0.85660238778E+02 0.  0.
         11    1    3    3    0    0 -0.32018664250E+02 -0.34677599424E+02  0.72209697462E+01  0.47748017409E+02  0.51100000000E-03 0. -1.
         22    1    1    0    0    0  0.10930632728E+02  0.41193832928E+01 -0.31023017909E+02  0.33149293970E+02  0.00000000000E+00 0. -1.
</event>
<event>
 5    1  0.6690694E-004  0.9118800E+02  0.7818608E-02  0.1130116E+00
         25   -1    0    0    0    0  0.00000000000E+00  0.00000000000E+00  0.99999998245E-14  0.12500000000E+03  0.12500000000E+03 0.  0.
        -11    1    3    3    0    0  0.43534590132E+02  0.31138941228E+02 -0.14702182735E+02  0.55507192113E+02  0.51100000000E-03 0. -1.
         23    2    1    0    0    0  0.11077902963E+02 -0.76681320475E+01  0.61033706605E+01  0.11020907993E+03  0.10921204138E+03 0.  0.
         11    1    3    3    0    0 -0.32456687169E+02 -0.38807073275E+02  0.20805553396E+02  0.54701887815E+02  0.51100000000E-03 0.  1.
         22    1    1    0    0    0 -0.11077902963E+02  0.76681320475E+01 -0.61033706605E+01  0.14790920072E+02  0.00000000000E+00 0. -1.
</event>
<event>
 5    1  0.6690694E-004  0.9118800E+02  0.7818608E-02  0.1130116E+00
         25   -1    0    0    0    0  0.00000000000E+00  0.00000000000E+00  0.99999998245E-14  0.12500000000E+03  0.12500000000E+03 0.  0.
        -11    1    3    3    0    0  0.84869219815E+01  0.16425423909E+02  0.53003319220E+02  0.56135320823E+02  0.51100000000E-03 0.  1.
         23    2    1    0    0    0 -0.15398444393E+02  0.23933487957E+01  0.25109780903E+02  0.95447651445E+02  0.90757439701E+02 0.  0.
         11    1    3    3    0    0 -0.23885366374E+02 -0.14032075113E+02 -0.27893538317E+02  0.39312330622E+02  0.51100000000E-03 0. -1.
         22    1    1    0    0    0  0.15398444393E+02 -0.23933487957E+01 -0.25109780903E+02  0.29552348555E+02  0.00000000000E+00 0.  1.
</event>
<event>
 5    1  0.6690694E-004  0.9118800E+02  0.7818608E-02  0.1130116E+00
         25   -1    0    0    0    0  0.00000000000E+00  0.00000000000E+00  0.99999998245E-14  0.12500000000E+03  0.12500000000E+03 0.  0.
        -11    1    3    3    0    0  0.12520012116E+02 -0.14234116042E+01 -0.33676433222E+02  0.35956626076E+02  0.51100000000E-03 0. -1.
         23    2    1    0    0    0  0.57150567423E+01 -0.13238823900E+02  0.24969057759E+02  0.96166301361E+02  0.91741895230E+02 0.  0.
         11    1    3    3    0    0 -0.68049553732E+01 -0.11815412296E+02  0.58645490981E+02  0.60209675285E+02  0.51100000000E-03 0.  1.
         22    1    1    0    0    0 -0.57150567423E+01  0.13238823900E+02 -0.24969057759E+02  0.28833698639E+02  0.00000000000E+00 0.  1.
</event>
<event>
 5    1  0.6690694E-004  0.9118800E+02  0.7818608E-02  0.1130116E+00
         25   -1    0    0    0    0  0.00000000000E+00  0.00000000000E+00  0.99999998245E-14  0.12500000000E+03  0.12500000000E+03 0.  0.
        -11    1    3    3    0    0  0.38900011225E+02 -0.90205648363E+01  0.16782334609E+02  0.43315450112E+02  0.51100000000E-03 0. -1.
         23    2    1    0    0    0  0.36307059958E+01 -0.20422179140E+02 -0.20463530292E+02  0.95862335391E+02  0.91326796986E+02 0.  0.
         11    1    3    3    0    0 -0.35269305229E+02 -0.11401614303E+02 -0.37245864901E+02  0.52546885279E+02  0.51100000000E-03 0.  1.
         22    1    1    0    0    0 -0.36307059958E+01  0.20422179140E+02  0.20463530292E+02  0.29137664609E+02  0.00000000000E+00 0.  1.
</event>
<event>
 5    1  0.6690694E-004  0.9118800E+02  0.7818608E-02  0.1130116E+00
         25   -1    0    0    0    0  0.00000000000E+00  0.00000000000E+00  0.99999998245E-14  0.12500000000E+03  0.12500000000E+03 0.  0.
        -11    1    3    3    0    0 -0.17990341836E+02 -0.20180446196E+02  0.23533941963E+02  0.35843398732E+02  0.51100000000E-03 0.  1.
         23    2    1    0    0    0  0.37015129840E+01 -0.83416031617E+01 -0.29375545877E+02  0.94239534509E+02  0.89077963757E+02 0.  0.
         11    1    3    3    0    0  0.21691854821E+02  0.11838843034E+02 -0.52909487840E+02  0.58396135777E+02  0.51100000000E-03 0. -1.
         22    1    1    0    0    0 -0.37015129840E+01  0.83416031617E+01  0.29375545877E+02  0.30760465491E+02  0.00000000000E+00 0.  1.
</event>
<event>
 5    1  0.6690694E-004  0.9118800E+02  0.7818608E-02  0.1130116E+00
         25   -1    0    0    0    0  0.00000000000E+00  0.00000000000E+00  0.99999998245E-14  0.12500000000E+03  0.12500000000E+03 0.  0.
        -11    1    3    3    0    0  0.79445683255E+01 -0.24608001161E+02 -0.13135392805E+02  0.29003593423E+02  0.51100000000E-03 0.  1.
         23    2    1    0    0    0  0.27107062425E+02  0.26009998980E+02 -0.17994956797E+02  0.83345092122E+02  0.72189147594E+02 0.  0.
         11    1    3    3    0    0  0.19162494099E+02  0.50618000141E+02 -0.48595639920E+01  0.54341498699E+02  0.51100000000E-03 0. -1.
         22    1    1    0    0    0 -0.27107062425E+02 -0.26009998980E+02  0.17994956797E+02  0.41654907878E+02  0.00000000000E+00 0. -1.
</event>
<event>
 5    1  0.6690694E-004  0.9118800E+02  0.7818608E-02  0.1130116E+00
         25   -1    0    0    0    0  0.00000000000E+00  0.00000000000E+00  0.99999998245E-14  0.12500000000E+03  0.12500000000E+03 0.  0.
        -11    1    3    3    0    0 -0.52767852452E+02  0.14941988805E+02  0.30082733365E+01  0.54925030638E+02  0.51100000000E-03 0.  1.
         23    2    1    0    0    0 -0.16943166704E+02  0.85476951961E+01  0.21977423323E+02  0.95963107483E+02  0.91464620869E+02 0.  0.
         11    1    3    3    0    0  0.35824685748E+02 -0.63942936091E+01  0.18969149986E+02  0.41038076845E+02  0.51100000000E-03 0. -1.
         22    1    1    0    0    0  0.16943166704E+02 -0.85476951961E+01 -0.21977423323E+02  0.29036892517E+02  0.00000000000E+00 0.  1.
</event>
<event>
 5    1  0.6690694E-004  0.9118800E+02  0.7818608E-02  0.1130116E+00
         25   -1    0    0    0    0  0.00000000000E+00  0.00000000000E+00  0.99999998245E-14  0.12500000000E+03  0.12500000000E+03 0.  0.
        -11    1    3    3    0    0  0.31313279514E+02 -0.20237597523E+01 -0.38626872763E+02  0.49765976099E+02  0.51100000000E-03 0.  1.
         23    2    1    0    0    0  0.15742483247E+02 -0.25000117344E+02 -0.24620734728E+01  0.95353862785E+02  0.90628172752E+02 0.  0.
         11    1    3    3    0    0 -0.15570796267E+02 -0.22976357591E+02  0.36164799290E+02  0.45587886686E+02  0.51100000000E-03 0. -1.
         22    1    1    0    0    0 -0.15742483247E+02  0.25000117344E+02  0.24620734728E+01  0.29646137215E+02  0.00000000000E+00 0.  1.
</event>
<event>
 5    1  0.6690694E-004  0.9118800E+02  0.7818608E-02  0.1130116E+00
         25   -1    0    0    0    0  0.00000000000E+00  0.00000000000E+00  0.99999998245E-14  0.12500000000E+03  0.12500000000E+03 0.  0.
        -11    1    3    3    0    0  0.57147239137E+01 -0.28890091937E+02 -0.49139515626E+02  0.57288633059E+02  0.51100000000E-03 0.  1.
         23    2    1    0    0    0  0.12697410277E+02 -0.23955291151E+02 -0.12086176023E+02  0.95315730551E+02  0.90575563138E+02 0.  0.
         11    1    3    3    0    0  0.69826863629E+01  0.49348007861E+01  0.37053339603E+02  0.38027097492E+02  0.51100000000E-03 0. -1.
         22    1    1    0    0    0 -0.12697410277E+02  0.23955291151E+02  0.12086176023E+02  0.29684269449E+02  0.00000000000E+00 0.  1.
</event>
<event>
 5    1  0.6690694E-004  0.9118800E+02  0.7818608E-02  0.1130116E+00
         25   -1    0    0    0    0  0.00000000000E+00  0.00000000000E+00  0.99999998245E-14  0.12500000000E+03  0.12500000000E+03 0.  0.
        -11    1    3    3    0    0 -0.47323270899E+02 -0.98545395678E+01  0.10366103028E+02  0.49437435319E+02  0.51100000000E-03 0. -1.
         23    2    1    0    0    0 -0.12344167678E+02  0.21958556364E+02 -0.53203965512E+01  0.99253868393E+02  0.95856492207E+02 0.  0.
         11    1    3    3    0    0  0.34979103221E+02  0.31813095932E+02 -0.15686499579E+02  0.49816433074E+02  0.51100000000E-03 0.  1.
         22    1    1    0    0    0  0.12344167678E+02 -0.21958556364E+02  0.53203965512E+01  0.25746131607E+02  0.00000000000E+00 0. -1.
</event>
<event>
 5    1  0.6690694E-004  0.9118800E+02  0.7818608E-02  0.1130116E+00
         25   -1    0    0    0    0  0.00000000000E+00  0.00000000000E+00  0.99999998245E-14  0.12500000000E+03  0.12500000000E+03 0.  0.
        -11    1    3    3    0    0  0.11992853981E+02 -0.22070272660E+02 -0.22225763106E+02  0.33539678409E+02  0.51100000000E-03 0. -1.
         23    2    1    0    0    0 -0.15784140937E+02  0.70928465535E+01  0.24358788864E+02  0.95120271549E+02  0.90305414496E+02 0.  0.
         11    1    3    3    0    0 -0.27776994918E+02  0.29163119213E+02  0.46584551970E+02  0.61580593140E+02  0.51100000000E-03 0.  1.
         22    1    1    0    0    0  0.15784140937E+02 -0.70928465535E+01 -0.24358788864E+02  0.29879728451E+02  0.00000000000E+00 0.  1.
</event>
<event>
 5    1  0.6690694E-004  0.9118800E+02  0.7818608E-02  0.1130116E+00
         25   -1    0    0    0    0  0.00000000000E+00  0.00000000000E+00  0.99999998245E-14  0.12500000000E+03  0.12500000000E+03 0.  0.
        -11    1    3    3    0    0 -0.29673139496E+02  0.19439510422E+02 -0.30807707907E+02  0.46984089219E+02  0.51100000000E-03 0.  1.
         23    2    1    0    0    0  0.16477882103E+02  0.37370651779E+01 -0.23163335397E+02  0.96328997899E+02  0.91963305044E+02 0.  0.
         11    1    3    3    0    0  0.46151021599E+02 -0.15702445244E+02  0.76443725092E+01  0.49344908680E+02  0.51100000000E-03 0. -1.
         22    1    1    0    0    0 -0.16477882103E+02 -0.37370651779E+01  0.23163335397E+02  0.28671002101E+02  0.00000000000E+00 0.  1.
</event>
<event>
 5    1  0.6690694E-004  0.9118800E+02  0.7818608E-02  0.1130116E+00
         25   -1    0    0    0    0  0.00000000000E+00  0.00000000000E+00  0.99999998245E-14  0.12500000000E+03  0.12500000000E+03 0.  0.
        -11    1    3    3    0    0  0.50536512872E+02 -0.14051066603E+02  0.34190709024E+00  0.52454632842E+02  0.51100000000E-03 0. -1.
         23    2    1    0    0    0  0.19569427647E+02  0.18847441507E+02  0.26998524740E+01  0.97696561513E+02  0.93803733286E+02 0.  0.
         11    1    3    3    0    0 -0.30967085225E+02  0.32898508110E+02  0.23579453838E+01  0.45241928671E+02  0.51100000000E-03 0.  1.
         22    1    1    0    0    0 -0.19569427647E+02 -0.18847441507E+02 -0.26998524740E+01  0.27303438487E+02  0.00000000000E+00 0. -1.
</event>
<event>
 5    1  0.6690694E-004  0.9118800E+02  0.7818608E-02  0.1130116E+00
         25   -1    0    0    0    0  0.00000000000E+00  0.00000000000E+00  0.99999998245E-14  0.12500000000E+03  0.12500000000E+03 0.  0.
        -11    1    3    3    0    0  0.45865394485E+02 -0.32756526500E+02  0.10570712532E+02  0.57344262166E+02  0.51100000000E-03 0.  1.
         23    2    1    0    0    0  0.75497236752E+01 -0.26667275430E+02  0.76377559614E+01  0.96251483124E+02  0.91857883609E+02 0.  0.
         11    1    3    3    0    0 -0.38315670810E+02  0.60892510706E+01 -0.29329565702E+01  0.38907220959E+02  0.51100000000E-03 0. -1.
         22    1    1    0    0    0 -0.75497236752E+01  0.26667275430E+02 -0.76377559614E+01  0.28748516876E+02  0.00000000000E+00 0.  1.
</event>
<event>
 5    1  0.6690694E-004  0.9118800E+02  0.7818608E-02  0.1130116E+00
         25   -1    0    0    0    0  0.00000000000E+00  0.00000000000E+00  0.99999998245E-14  0.12500000000E+03  0.12500000000E+03 0.  0.
        -11    1    3    3    0    0  0.21915509227E+02  0.57050832677E+01 -0.31234220441E+02  0.38579969500E+02  0.51100000000E-03 0. -1.
         23    2    1    0    0    0  0.11276708458E+02  0.21213624207E+02  0.20368529830E+02  0.93503031684E+02  0.88038388905E+02 0.  0.
         11    1    3    3    0    0 -0.10638800769E+02  0.15508540940E+02  0.51602750271E+02  0.54923062184E+02  0.51100000000E-03 0.  1.
         22    1    1    0    0    0 -0.11276708458E+02 -0.21213624207E+02 -0.20368529830E+02  0.31496968316E+02  0.00000000000E+00 0.  1.
</event>
<event>
 5    1  0.6690694E-004  0.9118800E+02  0.7818608E-02  0.1130116E+00
         25   -1    0    0    0    0  0.00000000000E+00  0.00000000000E+00  0.99999998245E-14  0.12500000000E+03  0.12500000000E+03 0.  0.
        -11    1    3    3    0    0  0.19982546304E+02 -0.50809990301E+02 -0.20039257758E+02  0.58159514466E+02  0.51100000000E-03 0. -1.
         23    2    1    0    0    0  0.14236792875E+02 -0.24574534056E+02  0.64435948349E+01  0.95877604668E+02  0.91347693825E+02 0.  0.
         11    1    3    3    0    0 -0.57457534287E+01  0.26235456245E+02  0.26482852593E+02  0.37718090203E+02  0.51100000000E-03 0.  1.
         22    1    1    0    0    0 -0.14236792875E+02  0.24574534056E+02 -0.64435948349E+01  0.29122395332E+02  0.00000000000E+00 0. -1.
</event>
<event>
 5    1  0.6690694E-004  0.9118800E+02  0.7818608E-02  0.1130116E+00
         25   -1    0    0    0    0  0.00000000000E+00  0.00000000000E+00  0.99999998245E-14  0.12500000000E+03  0.12500000000E+03 0.  0.
        -11    1    3    3    0    0 -0.38355742789E+02 -0.30820346277E+02  0.14438670292E+02  0.51278962057E+02  0.51100000000E-03 0.  1.
         23    2    1    0    0    0 -0.85663702588E+01 -0.22630011932E+02 -0.17055076634E+02  0.95396355318E+02  0.90686762151E+02 0.  0.
         11    1    3    3    0    0  0.29789372531E+02  0.81903343450E+01 -0.31493746926E+02  0.44117393261E+02  0.51100000000E-03 0. -1.
         22    1    1    0    0    0  0.85663702588E+01  0.22630011932E+02  0.17055076634E+02  0.29603644682E+02  0.00000000000E+00 0.  1.
</event>
<event>
 5    1  0.6690694E-004  0.9118800E+02  0.7818608E-02  0.1130116E+00
         25   -1    0    0    0    0  0.00000000000E+00  0.00000000000E+00  0.99999998245E-14  0.12500000000E+03  0.12500000000E+03 0.  0.
        -11    1    3    3    0    0 -0.35166699591E+02  0.23223067479E+02  0.42303589016E+02  0.59712655838E+02  0.51100000000E-03 0.  1.
         23    2    1    0    0    0 -0.21665985432E+02 -0.13309495124E+01  0.18465133008E+02  0.96501798507E+02  0.92197882984E+02 0.  0.
         11    1    3    3    0    0  0.13500714159E+02 -0.24554016992E+02 -0.23838456008E+02  0.36789142669E+02  0.51100000000E-03 0. -1.
         22    1    1    0    0    0  0.21665985432E+02  0.13309495124E+01 -0.18465133008E+02  0.28498201493E+02  0.00000000000E+00 0.  1.
</event>
<event>
 5    1  0.6690694E-004  0.9118800E+02  0.7818608E-02  0.1130116E+00
         25   -1    0    0    0    0  0.00000000000E+00  0.00000000000E+00  0.99999998245E-14  0.12500000000E+03  0.12500000000E+03 0.  0.
        -11    1    3    3    0    0  0.29354469944E+02  0.15489007770E+02  0.54623192357E+01  0.33636753694E+02  0.51100000000E-03 0. -1.
         23    2    1    0    0    0 -0.14236842033E+02 -0.25198002319E+02 -0.84154969397E+01  0.94859535825E+02  0.89943782199E+02 0.  0.
         11    1    3    3    0    0 -0.43591311977E+02 -0.40687010089E+02 -0.13877816175E+02  0.61222782131E+02  0.51100000000E-03 0.  1.
         22    1    1    0    0    0  0.14236842033E+02  0.25198002319E+02  0.84154969397E+01  0.30140464175E+02  0.00000000000E+00 0.  1.
</event>
<event>
 5    1  0.6690694E-004  0.9118800E+02  0.7818608E-02  0.1130116E+00
         25   -1    0    0    0    0  0.00000000000E+00  0.00000000000E+00  0.99999998245E-14  0.12500000000E+03  0.12500000000E+03 0.  0.
        -11    1    3    3    0    0  0.24811752024E+02 -0.24777456374E+02 -0.42465862946E+02  0.55071725040E+02  0.51100000000E-03 0. -1.
         23    2    1    0    0    0  0.20418297368E+02  0.82543052622E+01 -0.19911871194E+02  0.95309546362E+02  0.90567028164E+02 0.  0.
         11    1    3    3    0    0 -0.43934546565E+01  0.33031761636E+02  0.22553991751E+02  0.40237821322E+02  0.51100000000E-03 0.  1.
         22    1    1    0    0    0 -0.20418297368E+02 -0.82543052622E+01  0.19911871194E+02  0.29690453638E+02  0.00000000000E+00 0. -1.
</event>
<event>
 5    1  0.6690694E-004  0.9118800E+02  0.7818608E-02  0.1130116E+00
         25   -1    0    0    0    0  0.00000000000E+00  0.00000000000E+00  0.99999998245E-14  0.12500000000E+03  0.12500000000E+03 0.  0.
        -11    1    3    3    0    0 -0.36973595586E+02  0.14012613847E+02  0.43162676264E+02  0.58535602328E+02  0.51100000000E-03 0.  1.
         23    2    1    0    0    0 -0.64845779902E+01 -0.99594191870E+00  0.28856599931E+02  0.95407010770E+02  0.90701448128E+02 0.  0.
         11    1    3    3    0    0  0.30489017596E+02 -0.15008555766E+02 -0.14306076333E+02  0.36871408442E+02  0.51100000000E-03 0. -1.
         22    1    1    0    0    0  0.64845779902E+01  0.99594191870E+00 -0.28856599931E+02  0.29592989230E+02  0.00000000000E+00 0.  1.
</event>
<event>
 5    1  0.6690694E-004  0.9118800E+02  0.7818608E-02  0.1130116E+00
         25   -1    0    0    0    0  0.00000000000E+00  0.00000000000E+00  0.99999998245E-14  0.12500000000E+03  0.12500000000E+03 0.  0.
        -11    1    3    3    0    0 -0.15758794492E+02 -0.52661062196E+01  0.60040162688E+02  0.62296810628E+02  0.51100000000E-03 0.  1.
         23    2    1    0    0    0 -0.44834419845E+01 -0.49858279040E+00  0.28781227327E+02  0.95867391410E+02  0.91333716953E+02 0.  0.
         11    1    3    3    0    0  0.11275352508E+02  0.47675234292E+01 -0.31258935361E+02  0.33570580782E+02  0.51100000000E-03 0. -1.
         22    1    1    0    0    0  0.44834419845E+01  0.49858279040E+00 -0.28781227327E+02  0.29132608590E+02  0.00000000000E+00 0.  1.
</event>
<event>
 5    1  0.6690694E-004  0.9118800E+02  0.7818608E-02  0.1130116E+00
         25   -1    0    0    0    0  0.00000000000E+00  0.00000000000E+00  0.99999998245E-14  0.12500000000E+03  0.12500000000E+03 0.  0.
        -11    1    3    3    0    0  0.62296123235E+01 -0.46253396218E+02 -0.22212855510E+01  0.46723857302E+02  0.51100000000E-03 0. -1.
         23    2    1    0    0    0 -0.26366289226E+02 -0.16095030122E+02 -0.11405440319E+02  0.92071057243E+02  0.85981185796E+02 0.  0.
         11    1    3    3    0    0 -0.32595901550E+02  0.30158366096E+02 -0.91841547684E+01  0.45347199941E+02  0.51100000000E-03 0.  1.
         22    1    1    0    0    0  0.26366289226E+02  0.16095030122E+02  0.11405440319E+02  0.32928942757E+02  0.00000000000E+00 0. -1.
</event>
<event>
 5    1  0.6690694E-004  0.9118800E+02  0.7818608E-02  0.1130116E+00
         25   -1    0    0    0    0  0.00000000000E+00  0.00000000000E+00  0.99999998245E-14  0.12500000000E+03  0.12500000000E+03 0.  0.
        -11    1    3    3    0    0 -0.44033012477E+01  0.31677735012E+02 -0.10552503115E+02  0.33678231539E+02  0.51100000000E-03 0.  1.
         23    2    1    0    0    0  0.65682284932E+00 -0.26122940438E+02  0.12401384129E+02  0.96075377933E+02  0.91617926648E+02 0.  0.
         11    1    3    3    0    0  0.50601240970E+01 -0.57800675450E+02  0.22953887244E+02  0.62397146394E+02  0.51100000000E-03 0. -1.
         22    1    1    0    0    0 -0.65682284932E+00  0.26122940438E+02 -0.12401384129E+02  0.28924622067E+02  0.00000000000E+00 0. -1.
</event>
<event>
 5    1  0.6690694E-004  0.9118800E+02  0.7818608E-02  0.1130116E+00
         25   -1    0    0    0    0  0.00000000000E+00  0.00000000000E+00  0.99999998245E-14  0.12500000000E+03  0.12500000000E+03 0.  0.
        -11    1    3    3    0    0 -0.48065684825E+02 -0.38247002580E+02  0.10186876097E+02  0.62264883434E+02  0.51100000000E-03 0.  1.
         23    2    1    0    0    0 -0.31763751724E+02 -0.28430005875E+02  0.96011192535E+01  0.81303516748E+02  0.68562957835E+02 0.  0.
         11    1    3    3    0    0  0.16301933101E+02  0.98169967053E+01 -0.58575684385E+00  0.19038633315E+02  0.51100000000E-03 0. -1.
         22    1    1    0    0    0  0.31763751724E+02  0.28430005875E+02 -0.96011192535E+01  0.43696483252E+02  0.00000000000E+00 0.  1.
</event>
<event>
 5    1  0.6690694E-004  0.9118800E+02  0.7818608E-02  0.1130116E+00
         25   -1    0    0    0    0  0.00000000000E+00  0.00000000000E+00  0.99999998245E-14  0.12500000000E+03  0.12500000000E+03 0.  0.
        -11    1    3    3    0    0  0.53037575078E+02 -0.23645297185E+02 -0.15037168393E+02  0.59985005482E+02  0.51100000000E-03 0.  1.
         23    2    1    0    0    0  0.26017675745E+02 -0.17412393155E+00 -0.13205139863E+02  0.95822517431E+02  0.91272281431E+02 0.  0.
         11    1    3    3    0    0 -0.27019899334E+02  0.23471173253E+02  0.18320285301E+01  0.35837511949E+02  0.51100000000E-03 0. -1.
         22    1    1    0    0    0 -0.26017675745E+02  0.17412393155E+00  0.13205139863E+02  0.29177482569E+02  0.00000000000E+00 0.  1.
</event>
<event>
 5    1  0.6690694E-004  0.9118800E+02  0.7818608E-02  0.1130116E+00
         25   -1    0    0    0    0  0.00000000000E+00  0.00000000000E+00  0.99999998245E-14  0.12500000000E+03  0.12500000000E+03 0.  0.
        -11    1    3    3    0    0  0.69369046476E+01 -0.43248046228E+02  0.12802143202E+02  0.45633419984E+02  0.51100000000E-03 0.  1.
         23    2    1    0    0    0  0.11077580925E+02  0.39911451715E+01  0.27340086720E+02  0.95232192208E+02  0.90460201481E+02 0.  0.
         11    1    3    3    0    0  0.41406762773E+01  0.47239191399E+02  0.14537943518E+02  0.49598772224E+02  0.51100000000E-03 0. -1.
         22    1    1    0    0    0 -0.11077580925E+02 -0.39911451715E+01 -0.27340086720E+02  0.29767807792E+02  0.00000000000E+00 0.  1.
</event>
<event>
 5    1  0.6690694E-004  0.9118800E+02  0.7818608E-02  0.1130116E+00
         25   -1    0    0    0    0  0.00000000000E+00  0.00000000000E+00  0.99999998245E-14  0.12500000000E+03  0.12500000000E+03 0.  0.
        -11    1    3    3    0    0 -0.15434511303E+02 -0.33167909823E+01 -0.11611624689E+02  0.19597323025E+02  0.51100000000E-03 0. -1.
         23    2    1    0    0    0 -0.16543694140E+02 -0.31584757492E+02  0.35586618683E+02  0.74624429026E+02  0.55055492519E+02 0.  0.
         11    1    3    3    0    0 -0.11091828373E+01 -0.28267966510E+02  0.47198243372E+02  0.55027106001E+02  0.51100000000E-03 0.  1.
         22    1    1    0    0    0  0.16543694140E+02  0.31584757492E+02 -0.35586618683E+02  0.50375570974E+02  0.00000000000E+00 0.  1.
</event>
<event>
 5    1  0.6690694E-004  0.9118800E+02  0.7818608E-02  0.1130116E+00
         25   -1    0    0    0    0  0.00000000000E+00  0.00000000000E+00  0.99999998245E-14  0.12500000000E+03  0.12500000000E+03 0.  0.
        -11    1    3    3    0    0 -0.34345227395E+02 -0.37001842946E+02  0.12923470513E+02  0.52112830633E+02  0.51100000000E-03 0.  1.
         23    2    1    0    0    0 -0.21176578411E+02 -0.94321355927E+01 -0.18049742539E+02  0.95619634775E+02  0.90994003614E+02 0.  0.
         11    1    3    3    0    0  0.13168648984E+02  0.27569707353E+02 -0.30973213052E+02  0.43506804142E+02  0.51100000000E-03 0. -1.
         22    1    1    0    0    0  0.21176578411E+02  0.94321355927E+01  0.18049742539E+02  0.29380365225E+02  0.00000000000E+00 0. -1.
</event>
<event>
 5    1  0.6690694E-004  0.9118800E+02  0.7818608E-02  0.1130116E+00
         25   -1    0    0    0    0  0.00000000000E+00  0.00000000000E+00  0.99999998245E-14  0.12500000000E+03  0.12500000000E+03 0.  0.
        -11    1    3    3    0    0 -0.25829838915E+02  0.27830626863E+02  0.95168082755E+00  0.37981970283E+02  0.51100000000E-03 0.  1.
         23    2    1    0    0    0  0.12213399514E+02 -0.88799159448E+01  0.24788277803E+02  0.95974515485E+02  0.91480210271E+02 0.  0.
         11    1    3    3    0    0  0.38043238429E+02 -0.36710542807E+02  0.23836596976E+02  0.57992545202E+02  0.51100000000E-03 0. -1.
         22    1    1    0    0    0 -0.12213399514E+02  0.88799159448E+01 -0.24788277803E+02  0.29025484515E+02  0.00000000000E+00 0. -1.
</event>
<event>
 5    1  0.6690694E-004  0.9118800E+02  0.7818608E-02  0.1130116E+00
         25   -1    0    0    0    0  0.00000000000E+00  0.00000000000E+00  0.99999998245E-14  0.12500000000E+03  0.12500000000E+03 0.  0.
        -11    1    3    3    0    0 -0.18200388501E+02 -0.26094731196E+02 -0.31654347018E+02  0.44879692771E+02  0.51100000000E-03 0.  1.
         23    2    1    0    0    0  0.12748597504E+02 -0.27529915258E+02  0.64431651111E+01  0.93984885151E+02  0.88719903561E+02 0.  0.
         11    1    3    3    0    0  0.30948986005E+02 -0.14351840620E+01  0.38097512130E+02  0.49105192381E+02  0.51100000000E-03 0. -1.
         22    1    1    0    0    0 -0.12748597504E+02  0.27529915258E+02 -0.64431651111E+01  0.31015114849E+02  0.00000000000E+00 0. -1.
</event>
<event>
 5    1  0.6690694E-004  0.9118800E+02  0.7818608E-02  0.1130116E+00
         25   -1    0    0    0    0  0.00000000000E+00  0.00000000000E+00  0.99999998245E-14  0.12500000000E+03  0.12500000000E+03 0.  0.
        -11    1    3    3    0    0 -0.18512119467E+02 -0.95852814533E+00 -0.32086835309E+02  0.37056475059E+02  0.51100000000E-03 0. -1.
         23    2    1    0    0    0  0.70604725334E+01  0.27884383517E+02  0.10390300721E+02  0.94416549155E+02  0.89326016864E+02 0.  0.
         11    1    3    3    0    0  0.25572592000E+02  0.28842911662E+02  0.42477136030E+02  0.57360074096E+02  0.51100000000E-03 0.  1.
         22    1    1    0    0    0 -0.70604725334E+01 -0.27884383517E+02 -0.10390300721E+02  0.30583450845E+02  0.00000000000E+00 0.  1.
</event>
<event>
 5    1  0.6690694E-004  0.9118800E+02  0.7818608E-02  0.1130116E+00
         25   -1    0    0    0    0  0.00000000000E+00  0.00000000000E+00  0.99999998245E-14  0.12500000000E+03  0.12500000000E+03 0.  0.
        -11    1    3    3    0    0  0.29207867977E+02 -0.14037965886E+02 -0.39269310635E+02  0.50914072671E+02  0.51100000000E-03 0.  1.
         23    2    1    0    0    0  0.13242169004E+01  0.58990585614E+01 -0.39346027451E+02  0.85192182696E+02  0.75319623433E+02 0.  0.
         11    1    3    3    0    0 -0.27883651076E+02  0.19937024448E+02 -0.76716815533E-01  0.34278110025E+02  0.51100000000E-03 0. -1.
         22    1    1    0    0    0 -0.13242169004E+01 -0.58990585614E+01  0.39346027451E+02  0.39807817304E+02  0.00000000000E+00 0.  1.
</event>
<event>
 5    1  0.6690694E-004  0.9118800E+02  0.7818608E-02  0.1130116E+00
         25   -1    0    0    0    0  0.00000000000E+00  0.00000000000E+00  0.99999998245E-14  0.12500000000E+03  0.12500000000E+03 0.  0.
        -11    1    3    3    0    0  0.41192438068E+02 -0.53997386382E+01  0.40208508572E+02  0.57816072966E+02  0.51100000000E-03 0.  1.
         23    2    1    0    0    0  0.84437521534E+01 -0.14491430946E+02  0.24625560877E+02  0.95205423819E+02  0.90423204737E+02 0.  0.
         11    1    3    3    0    0 -0.32748685915E+02 -0.90916923077E+01 -0.15582947695E+02  0.37389350854E+02  0.51100000000E-03 0. -1.
         22    1    1    0    0    0 -0.84437521534E+01  0.14491430946E+02 -0.24625560877E+02  0.29794576181E+02  0.00000000000E+00 0.  1.
</event>
<event>
 5    1  0.6690694E-004  0.9118800E+02  0.7818608E-02  0.1130116E+00
         25   -1    0    0    0    0  0.00000000000E+00  0.00000000000E+00  0.99999998245E-14  0.12500000000E+03  0.12500000000E+03 0.  0.
        -11    1    3    3    0    0 -0.38368135943E+02  0.71271294479E-01 -0.72734987238E+01  0.39051539269E+02  0.51100000000E-03 0. -1.
         23    2    1    0    0    0  0.10952169113E+02  0.17224445233E+02  0.18650791253E+02  0.97350704598E+02  0.93341717091E+02 0.  0.
         11    1    3    3    0    0  0.49320305056E+02  0.17153173939E+02  0.25924289977E+02  0.58299165329E+02  0.51100000000E-03 0.  1.
         22    1    1    0    0    0 -0.10952169113E+02 -0.17224445233E+02 -0.18650791253E+02  0.27649295402E+02  0.00000000000E+00 0.  1.
</event>
<event>
 5    1  0.6690694E-004  0.9118800E+02  0.7818608E-02  0.1130116E+00
         25   -1    0    0    0    0  0.00000000000E+00  0.00000000000E+00  0.99999998245E-14  0.12500000000E+03  0.12500000000E+03 0.  0.
        -11    1    3    3    0    0 -0.41856996822E+02 -0.25347692683E+02 -0.22945344373E+02  0.54046299928E+02  0.51100000000E-03 0.  1.
         23    2    1    0    0    0 -0.14321070971E+01 -0.26655814864E+02 -0.89452866105E+01  0.96846819907E+02  0.92664475269E+02 0.  0.
         11    1    3    3    0    0  0.40424889724E+02 -0.13081221805E+01  0.14000057762E+02  0.42800519979E+02  0.51100000000E-03 0. -1.
         22    1    1    0    0    0  0.14321070971E+01  0.26655814864E+02  0.89452866105E+01  0.28153180093E+02  0.00000000000E+00 0.  1.
</event>
<event>
 5    1  0.6690694E-004  0.9118800E+02  0.7818608E-02  0.1130116E+00
         25   -1    0    0    0    0  0.00000000000E+00  0.00000000000E+00  0.99999998245E-14  0.12500000000E+03  0.12500000000E+03 0.  0.
        -11    1    3    3    0    0  0.20717573374E+02  0.25158729964E+02  0.39790052584E+02  0.51433722642E+02  0.51100000000E-03 0. -1.
         23    2    1    0    0    0  0.27321442822E+02 -0.62337732043E+01  0.99031867281E+01  0.95278050643E+02  0.90523547548E+02 0.  0.
         11    1    3    3    0    0  0.66038694473E+01 -0.31392503168E+02 -0.29886865856E+02  0.43844328000E+02  0.51100000000E-03 0.  1.
         22    1    1    0    0    0 -0.27321442822E+02  0.62337732043E+01 -0.99031867281E+01  0.29721949357E+02  0.00000000000E+00 0. -1.
</event>
<event>
 5    1  0.6690694E-004  0.9118800E+02  0.7818608E-02  0.1130116E+00
         25   -1    0    0    0    0  0.00000000000E+00  0.00000000000E+00  0.99999998245E-14  0.12500000000E+03  0.12500000000E+03 0.  0.
        -11    1    3    3    0    0 -0.24209401114E+02  0.41576683036E+01  0.21078541741E+01  0.24654094133E+02  0.51100000000E-03 0. -1.
         23    2    1    0    0    0  0.14784860617E+01 -0.37360708411E+02  0.26442005591E+02  0.79204933522E+02  0.64623783397E+02 0.  0.
         11    1    3    3    0    0  0.25687887176E+02 -0.41518376715E+02  0.24334151417E+02  0.54550839389E+02  0.51100000000E-03 0.  1.
         22    1    1    0    0    0 -0.14784860617E+01  0.37360708411E+02 -0.26442005591E+02  0.45795066478E+02  0.00000000000E+00 0.  1.
</event>
<event>
 5    1  0.6690694E-004  0.9118800E+02  0.7818608E-02  0.1130116E+00
         25   -1    0    0    0    0  0.00000000000E+00  0.00000000000E+00  0.99999998245E-14  0.12500000000E+03  0.12500000000E+03 0.  0.
        -11    1    3    3    0    0  0.26646321541E+02 -0.50488386650E+01  0.39351081765E+02  0.47791472669E+02  0.51100000000E-03 0. -1.
         23    2    1    0    0    0 -0.48980209416E+01  0.23199365984E+02  0.18109186994E+02  0.95164721473E+02  0.90366920763E+02 0.  0.
         11    1    3    3    0    0 -0.31544342482E+02  0.28248204649E+02 -0.21241894770E+02  0.47373248804E+02  0.51100000000E-03 0.  1.
         22    1    1    0    0    0  0.48980209416E+01 -0.23199365984E+02 -0.18109186994E+02  0.29835278527E+02  0.00000000000E+00 0.  1.
</event>
<event>
 5    1  0.6690694E-004  0.9118800E+02  0.7818608E-02  0.1130116E+00
         25   -1    0    0    0    0  0.00000000000E+00  0.00000000000E+00  0.99999998245E-14  0.12500000000E+03  0.12500000000E+03 0.  0.
        -11    1    3    3    0    0 -0.76674748253E+01  0.44062132992E+01  0.44042975599E+02  0.44922027845E+02  0.51100000000E-03 0.  1.
         23    2    1    0    0    0  0.10829108913E+02 -0.27098951324E+02  0.12256396438E+02  0.93348111962E+02  0.87818152967E+02 0.  0.
         11    1    3    3    0    0  0.18496583739E+02 -0.31505164623E+02 -0.31786579161E+02  0.48426084117E+02  0.51100000000E-03 0. -1.
         22    1    1    0    0    0 -0.10829108913E+02  0.27098951324E+02 -0.12256396438E+02  0.31651888038E+02  0.00000000000E+00 0.  1.
</event>
<event>
 5    1  0.6690694E-004  0.9118800E+02  0.7818608E-02  0.1130116E+00
         25   -1    0    0    0    0  0.00000000000E+00  0.00000000000E+00  0.99999998245E-14  0.12500000000E+03  0.12500000000E+03 0.  0.
        -11    1    3    3    0    0  0.52670987212E+02 -0.22931016914E+02  0.18569320036E+02  0.60372875346E+02  0.51100000000E-03 0.  1.
         23    2    1    0    0    0  0.17671700724E+02 -0.16373233290E+02  0.16012681561E+02  0.96072889089E+02  0.91614530902E+02 0.  0.
         11    1    3    3    0    0 -0.34999286488E+02  0.65577836240E+01 -0.25566384746E+01  0.35700013744E+02  0.51100000000E-03 0. -1.
         22    1    1    0    0    0 -0.17671700724E+02  0.16373233290E+02 -0.16012681561E+02  0.28927110911E+02  0.00000000000E+00 0.  1.
</event>
<event>
 5    1  0.6690694E-004  0.9118800E+02  0.7818608E-02  0.1130116E+00
         25   -1    0    0    0    0  0.00000000000E+00  0.00000000000E+00  0.99999998245E-14  0.12500000000E+03  0.12500000000E+03 0.  0.
        -11    1    3    3    0    0  0.63959145344E+01  0.39432501252E+02 -0.44064226418E+02  0.59476767967E+02  0.51100000000E-03 0.  1.
         23    2    1    0    0    0 -0.93198786261E+01  0.16078436892E+02 -0.26417918875E+02  0.92700112877E+02  0.86890898368E+02 0.  0.
         11    1    3    3    0    0 -0.15715793160E+02 -0.23354064360E+02  0.17646307544E+02  0.33223344910E+02  0.51100000000E-03 0. -1.
         22    1    1    0    0    0  0.93198786261E+01 -0.16078436892E+02  0.26417918875E+02  0.32299887123E+02  0.00000000000E+00 0.  1.
</event>
<event>
 5    1  0.6690694E-004  0.9118800E+02  0.7818608E-02  0.1130116E+00
         25   -1    0    0    0    0  0.00000000000E+00  0.00000000000E+00  0.99999998245E-14  0.12500000000E+03  0.12500000000E+03 0.  0.
        -11    1    3    3    0    0 -0.18086838073E+02 -0.57587837961E+02 -0.13822270779E+02  0.61923726973E+02  0.51100000000E-03 0. -1.
         23    2    1    0    0    0 -0.73684165675E+01 -0.27449624853E+02 -0.50091603313E+00  0.96574195101E+02  0.92295984611E+02 0.  0.
         11    1    3    3    0    0  0.10718421506E+02  0.30138213109E+02  0.13321354746E+02  0.34650468128E+02  0.51100000000E-03 0.  1.
         22    1    1    0    0    0  0.73684165675E+01  0.27449624853E+02  0.50091603313E+00  0.28425804899E+02  0.00000000000E+00 0. -1.
</event>
<event>
 5    1  0.6690694E-004  0.9118800E+02  0.7818608E-02  0.1130116E+00
         25   -1    0    0    0    0  0.00000000000E+00  0.00000000000E+00  0.99999998245E-14  0.12500000000E+03  0.12500000000E+03 0.  0.
        -11    1    3    3    0    0 -0.49166284650E+02  0.31449909042E+02  0.58455674857E+01  0.58656551079E+02  0.51100000000E-03 0. -1.
         23    2    1    0    0    0 -0.23486254224E+02  0.61794781587E+01 -0.10892667582E+02  0.98383458248E+02  0.94714648085E+02 0.  0.
         11    1    3    3    0    0  0.25680030426E+02 -0.25270430883E+02 -0.16738235068E+02  0.39726907168E+02  0.51100000000E-03 0.  1.
         22    1    1    0    0    0  0.23486254224E+02 -0.61794781587E+01  0.10892667582E+02  0.26616541752E+02  0.00000000000E+00 0. -1.
</event>
<event>
 5    1  0.6690694E-004  0.9118800E+02  0.7818608E-02  0.1130116E+00
         25   -1    0    0    0    0  0.00000000000E+00  0.00000000000E+00  0.99999998245E-14  0.12500000000E+03  0.12500000000E+03 0.  0.
        -11    1    3    3    0    0 -0.15936079610E+02  0.33695822006E+02 -0.41279702743E+02  0.55618170707E+02  0.51100000000E-03 0. -1.
         23    2    1    0    0    0 -0.98579215333E+01  0.31584659425E+02 -0.61328666247E+01  0.91349125108E+02  0.84925151027E+02 0.  0.
         11    1    3    3    0    0  0.60781580766E+01 -0.21111625803E+01  0.35146836118E+02  0.35730954401E+02  0.51100000000E-03 0.  1.
         22    1    1    0    0    0  0.98579215333E+01 -0.31584659425E+02  0.61328666247E+01  0.33650874892E+02  0.00000000000E+00 0.  1.
</event>
<event>
 5    1  0.6690694E-004  0.9118800E+02  0.7818608E-02  0.1130116E+00
         25   -1    0    0    0    0  0.00000000000E+00  0.00000000000E+00  0.99999998245E-14  0.12500000000E+03  0.12500000000E+03 0.  0.
        -11    1    3    3    0    0  0.26275978362E+02 -0.43783483345E+02 -0.92879063041E+01  0.51900728863E+02  0.51100000000E-03 0. -1.
         23    2    1    0    0    0  0.27543563629E+02  0.32616029280E+00 -0.89735100216E+01  0.96029702106E+02  0.91555587086E+02 0.  0.
         11    1    3    3    0    0  0.12675852672E+01  0.44109643638E+02  0.31439628249E+00  0.44128973244E+02  0.51100000000E-03 0.  1.
         22    1    1    0    0    0 -0.27543563629E+02 -0.32616029280E+00  0.89735100216E+01  0.28970297894E+02  0.00000000000E+00 0. -1.
</event>
<event>
 5    1  0.6690694E-004  0.9118800E+02  0.7818608E-02  0.1130116E+00
         25   -1    0    0    0    0  0.00000000000E+00  0.00000000000E+00  0.99999998245E-14  0.12500000000E+03  0.12500000000E+03 0.  0.
        -11    1    3    3    0    0  0.14314775278E+02 -0.26233238620E+02  0.23006968739E+02  0.37714933522E+02  0.51100000000E-03 0.  1.
         23    2    1    0    0    0  0.11648817066E+02  0.27712295418E+02  0.59486522057E+01  0.94356032903E+02  0.89241292156E+02 0.  0.
         11    1    3    3    0    0 -0.26659582121E+01  0.53945534038E+02 -0.17058316533E+02  0.56641099381E+02  0.51100000000E-03 0. -1.
         22    1    1    0    0    0 -0.11648817066E+02 -0.27712295418E+02 -0.59486522057E+01  0.30643967097E+02  0.00000000000E+00 0. -1.
</event>
<event>
 5    1  0.6690694E-004  0.9118800E+02  0.7818608E-02  0.1130116E+00
         25   -1    0    0    0    0  0.00000000000E+00  0.00000000000E+00  0.99999998245E-14  0.12500000000E+03  0.12500000000E+03 0.  0.
        -11    1    3    3    0    0 -0.35487766044E+02 -0.23919264568E+02  0.31228067966E+02  0.52978344495E+02  0.51100000000E-03 0. -1.
         23    2    1    0    0    0 -0.96423951234E+01 -0.24722674831E+02 -0.55036169826E+01  0.97898777991E+02  0.94072814871E+02 0.  0.
         11    1    3    3    0    0  0.25845370921E+02 -0.80341026238E+00 -0.36731684948E+02  0.44920433496E+02  0.51100000000E-03 0.  1.
         22    1    1    0    0    0  0.96423951234E+01  0.24722674831E+02  0.55036169826E+01  0.27101222009E+02  0.00000000000E+00 0.  1.
</event>
<event>
 5    1  0.6690694E-004  0.9118800E+02  0.7818608E-02  0.1130116E+00
         25   -1    0    0    0    0  0.00000000000E+00  0.00000000000E+00  0.99999998245E-14  0.12500000000E+03  0.12500000000E+03 0.  0.
        -11    1    3    3    0    0 -0.12030347155E+02  0.10831191715E+02 -0.39726194886E+02  0.42897721700E+02  0.51100000000E-03 0. -1.
         23    2    1    0    0    0 -0.10977616600E+02 -0.18356409663E+02  0.10633639054E+02  0.10111401831E+03  0.98252249728E+02 0.  0.
         11    1    3    3    0    0  0.10527305547E+01 -0.29187601378E+02  0.50359833940E+02  0.58216296606E+02  0.51100000000E-03 0.  1.
         22    1    1    0    0    0  0.10977616600E+02  0.18356409663E+02 -0.10633639054E+02  0.23885981694E+02  0.00000000000E+00 0.  1.
</event>
<event>
 5    1  0.6690694E-004  0.9118800E+02  0.7818608E-02  0.1130116E+00
         25   -1    0    0    0    0  0.00000000000E+00  0.00000000000E+00  0.99999998245E-14  0.12500000000E+03  0.12500000000E+03 0.  0.
        -11    1    3    3    0    0  0.14740352163E+02  0.27220396898E+02  0.19552196986E+02  0.36613063194E+02  0.51100000000E-03 0.  1.
         23    2    1    0    0    0 -0.20668900075E+02 -0.18055366274E+02  0.13518243373E+02  0.94406821259E+02  0.89312402917E+02 0.  0.
         11    1    3    3    0    0 -0.35409252238E+02 -0.45275763172E+02 -0.60339536137E+01  0.57793758065E+02  0.51100000000E-03 0. -1.
         22    1    1    0    0    0  0.20668900075E+02  0.18055366274E+02 -0.13518243373E+02  0.30593178741E+02  0.00000000000E+00 0. -1.
</event>
<event>
 5    1  0.6690694E-004  0.9118800E+02  0.7818608E-02  0.1130116E+00
         25   -1    0    0    0    0  0.00000000000E+00  0.00000000000E+00  0.99999998245E-14  0.12500000000E+03  0.12500000000E+03 0.  0.
        -11    1    3    3    0    0  0.29033027620E+02 -0.11058776727E+02  0.28480193899E+02  0.42146585630E+02  0.51100000000E-03 0. -1.
         23    2    1    0    0    0  0.14373153652E+02  0.27527496224E+02 -0.26302624371E+01  0.93834813097E+02  0.88508210208E+02 0.  0.
         11    1    3    3    0    0 -0.14659873968E+02  0.38586272950E+02 -0.31110456336E+02  0.51688227467E+02  0.51100000000E-03 0.  1.
         22    1    1    0    0    0 -0.14373153652E+02 -0.27527496224E+02  0.26302624371E+01  0.31165186903E+02  0.00000000000E+00 0.  1.
</event>
<event>
 5    1  0.6690694E-004  0.9118800E+02  0.7818608E-02  0.1130116E+00
         25   -1    0    0    0    0  0.00000000000E+00  0.00000000000E+00  0.99999998245E-14  0.12500000000E+03  0.12500000000E+03 0.  0.
        -11    1    3    3    0    0 -0.35395346387E+02 -0.61493419407E+01 -0.46758879213E+02  0.58966411945E+02  0.51100000000E-03 0.  1.
         23    2    1    0    0    0 -0.14584452842E+02 -0.17498615078E+02 -0.20336835579E+02  0.94463224209E+02  0.89391308595E+02 0.  0.
         11    1    3    3    0    0  0.20810893545E+02 -0.11349273137E+02  0.26422043634E+02  0.35496812264E+02  0.51100000000E-03 0. -1.
         22    1    1    0    0    0  0.14584452842E+02  0.17498615078E+02  0.20336835579E+02  0.30536775791E+02  0.00000000000E+00 0.  1.
</event>
<event>
 5    1  0.6690694E-004  0.9118800E+02  0.7818608E-02  0.1130116E+00
         25   -1    0    0    0    0  0.00000000000E+00  0.00000000000E+00  0.99999998245E-14  0.12500000000E+03  0.12500000000E+03 0.  0.
        -11    1    3    3    0    0  0.25596450213E+02  0.58659387962E+01 -0.30652860510E+02  0.40363168350E+02  0.51100000000E-03 0. -1.
         23    2    1    0    0    0 -0.12979556958E+02  0.26075770730E+02  0.34397283165E+01  0.95670041785E+02  0.91063222249E+02 0.  0.
         11    1    3    3    0    0 -0.38576007171E+02  0.20209831934E+02  0.34092588827E+02  0.55306873436E+02  0.51100000000E-03 0.  1.
         22    1    1    0    0    0  0.12979556958E+02 -0.26075770730E+02 -0.34397283165E+01  0.29329958215E+02  0.00000000000E+00 0.  1.
</event>
<event>
 5    1  0.6690694E-004  0.9118800E+02  0.7818608E-02  0.1130116E+00
         25   -1    0    0    0    0  0.00000000000E+00  0.00000000000E+00  0.99999998245E-14  0.12500000000E+03  0.12500000000E+03 0.  0.
        -11    1    3    3    0    0 -0.92986125109E+01 -0.17930646326E+02  0.29252472996E+02  0.35548269282E+02  0.51100000000E-03 0.  1.
         23    2    1    0    0    0 -0.86175262003E+01  0.75666414097E+01 -0.26098309683E+02  0.96493201015E+02  0.92186225944E+02 0.  0.
         11    1    3    3    0    0  0.68108631064E+00  0.25497287736E+02 -0.55350782679E+02  0.60944931733E+02  0.51100000000E-03 0. -1.
         22    1    1    0    0    0  0.86175262003E+01 -0.75666414097E+01  0.26098309683E+02  0.28506798985E+02  0.00000000000E+00 0. -1.
</event>
<event>
 5    1  0.6690694E-004  0.9118800E+02  0.7818608E-02  0.1130116E+00
         25   -1    0    0    0    0  0.00000000000E+00  0.00000000000E+00  0.99999998245E-14  0.12500000000E+03  0.12500000000E+03 0.  0.
        -11    1    3    3    0    0  0.32891877959E+02  0.20136841804E+02 -0.55409004869E+01  0.38962412810E+02  0.51100000000E-03 0. -1.
         23    2    1    0    0    0 -0.30172237294E+01 -0.26339252585E+02 -0.65027071187E+01  0.97702654605E+02  0.93811852402E+02 0.  0.
         11    1    3    3    0    0 -0.35909101689E+02 -0.46476094389E+02 -0.96180663181E+00  0.58740241794E+02  0.51100000000E-03 0.  1.
         22    1    1    0    0    0  0.30172237294E+01  0.26339252585E+02  0.65027071187E+01  0.27297345395E+02  0.00000000000E+00 0.  1.
</event>
<event>
 5    1  0.6690694E-004  0.9118800E+02  0.7818608E-02  0.1130116E+00
         25   -1    0    0    0    0  0.00000000000E+00  0.00000000000E+00  0.99999998245E-14  0.12500000000E+03  0.12500000000E+03 0.  0.
        -11    1    3    3    0    0  0.17777514757E+02 -0.28677275908E+02  0.29666026489E+01  0.33870738344E+02  0.51100000000E-03 0.  1.
         23    2    1    0    0    0 -0.47056122709E+00  0.29808866558E+02  0.12228073096E+01  0.95162352454E+02  0.90363643760E+02 0.  0.
         11    1    3    3    0    0 -0.18248075984E+02  0.58486142467E+02 -0.17437953393E+01  0.61291614110E+02  0.51100000000E-03 0. -1.
         22    1    1    0    0    0  0.47056122709E+00 -0.29808866558E+02 -0.12228073096E+01  0.29837647546E+02  0.00000000000E+00 0. -1.
</event>
<event>
 5    1  0.6690694E-004  0.9118800E+02  0.7818608E-02  0.1130116E+00
         25   -1    0    0    0    0  0.00000000000E+00  0.00000000000E+00  0.99999998245E-14  0.12500000000E+03  0.12500000000E+03 0.  0.
        -11    1    3    3    0    0 -0.20701236427E+01  0.18384608355E+02 -0.17431156796E+02  0.25418978417E+02  0.51100000000E-03 0. -1.
         23    2    1    0    0    0  0.94605544976E+00 -0.18396430886E+02  0.32580311226E+02  0.87572732269E+02  0.79171857798E+02 0.  0.
         11    1    3    3    0    0  0.30161790924E+01 -0.36781039241E+02  0.50011468021E+02  0.62153753852E+02  0.51100000000E-03 0.  1.
         22    1    1    0    0    0 -0.94605544976E+00  0.18396430886E+02 -0.32580311226E+02  0.37427267731E+02  0.00000000000E+00 0.  1.
</event>
<event>
 5    1  0.6690694E-004  0.9118800E+02  0.7818608E-02  0.1130116E+00
         25   -1    0    0    0    0  0.00000000000E+00  0.00000000000E+00  0.99999998245E-14  0.12500000000E+03  0.12500000000E+03 0.  0.
        -11    1    3    3    0    0 -0.11508954259E+02 -0.32577253387E+02  0.20386505228E+02  0.40116618278E+02  0.51100000000E-03 0. -1.
         23    2    1    0    0    0 -0.23474786341E+02  0.17954222082E+02  0.13813485496E+01  0.95414060634E+02  0.90711163362E+02 0.  0.
         11    1    3    3    0    0 -0.11965832082E+02  0.50531475470E+02 -0.19005156678E+02  0.55297442356E+02  0.51100000000E-03 0.  1.
         22    1    1    0    0    0  0.23474786341E+02 -0.17954222082E+02 -0.13813485496E+01  0.29585939366E+02  0.00000000000E+00 0.  1.
</event>
<event>
 5    1  0.6690694E-004  0.9118800E+02  0.7818608E-02  0.1130116E+00
         25   -1    0    0    0    0  0.00000000000E+00  0.00000000000E+00  0.99999998245E-14  0.12500000000E+03  0.12500000000E+03 0.  0.
        -11    1    3    3    0    0  0.62417775648E+01  0.23436981763E+02  0.22674073722E+02  0.33201890319E+02  0.51100000000E-03 0.  1.
         23    2    1    0    0    0 -0.16655383336E+02 -0.18531770906E+02 -0.16588772627E+02  0.95066478586E+02  0.90230924004E+02 0.  0.
         11    1    3    3    0    0 -0.22897160901E+02 -0.41968752669E+02 -0.39262846349E+02  0.61864588268E+02  0.51100000000E-03 0. -1.
         22    1    1    0    0    0  0.16655383336E+02  0.18531770906E+02  0.16588772627E+02  0.29933521414E+02  0.00000000000E+00 0. -1.
</event>
<event>
 5    1  0.6690694E-004  0.9118800E+02  0.7818608E-02  0.1130116E+00
         25   -1    0    0    0    0  0.00000000000E+00  0.00000000000E+00  0.99999998245E-14  0.12500000000E+03  0.12500000000E+03 0.  0.
        -11    1    3    3    0    0  0.25922863190E+02  0.23773755586E+02  0.67703738192E+00  0.35180174395E+02  0.51100000000E-03 0. -1.
         23    2    1    0    0    0 -0.25322736676E+02 -0.82260975021E+01  0.10479963745E+02  0.96386378891E+02  0.92041266412E+02 0.  0.
         11    1    3    3    0    0 -0.51245599866E+02 -0.31999853088E+02  0.98029263633E+01  0.61206204496E+02  0.51100000000E-03 0.  1.
         22    1    1    0    0    0  0.25322736676E+02  0.82260975021E+01 -0.10479963745E+02  0.28613621109E+02  0.00000000000E+00 0.  1.
</event>
<event>
 5    1  0.6690694E-004  0.9118800E+02  0.7818608E-02  0.1130116E+00
         25   -1    0    0    0    0  0.00000000000E+00  0.00000000000E+00  0.99999998245E-14  0.12500000000E+03  0.12500000000E+03 0.  0.
        -11    1    3    3    0    0  0.84736744366E+01  0.61367245067E+01 -0.50320010105E+02  0.51396166815E+02  0.51100000000E-03 0. -1.
         23    2    1    0    0    0  0.15166911854E+01  0.29171708872E+02 -0.22859958085E+02  0.87907323711E+02  0.79698374687E+02 0.  0.
         11    1    3    3    0    0 -0.69569832511E+01  0.23034984365E+02  0.27460052020E+02  0.36511156895E+02  0.51100000000E-03 0.  1.
         22    1    1    0    0    0 -0.15166911854E+01 -0.29171708872E+02  0.22859958085E+02  0.37092676289E+02  0.00000000000E+00 0. -1.
</event>
<event>
 5    1  0.6690694E-004  0.9118800E+02  0.7818608E-02  0.1130116E+00
         25   -1    0    0    0    0  0.00000000000E+00  0.00000000000E+00  0.99999998245E-14  0.12500000000E+03  0.12500000000E+03 0.  0.
        -11    1    3    3    0    0 -0.15260006113E+02  0.16901579336E+02  0.38451712942E+02  0.44688537670E+02  0.51100000000E-03 0. -1.
         23    2    1    0    0    0  0.24664491939E+02  0.13457306657E+02  0.59617345989E+01  0.96277560262E+02  0.91893362468E+02 0.  0.
         11    1    3    3    0    0  0.39924498052E+02 -0.34442726786E+01 -0.32489978344E+02  0.51589022592E+02  0.51100000000E-03 0.  1.
         22    1    1    0    0    0 -0.24664491939E+02 -0.13457306657E+02 -0.59617345989E+01  0.28722439738E+02  0.00000000000E+00 0.  1.
</event>
<event>
 5    1  0.6690694E-004  0.9118800E+02  0.7818608E-02  0.1130116E+00
         25   -1    0    0    0    0  0.00000000000E+00  0.00000000000E+00  0.99999998245E-14  0.12500000000E+03  0.12500000000E+03 0.  0.
        -11    1    3    3    0    0 -0.14341358099E+02 -0.43537182819E+02 -0.29588834639E+00  0.45839375979E+02  0.51100000000E-03 0.  1.
         23    2    1    0    0    0  0.19213886822E+02 -0.14364601523E+02  0.19086469390E+02  0.94343703135E+02  0.89224020217E+02 0.  0.
         11    1    3    3    0    0  0.33555244921E+02  0.29172581296E+02  0.19382357737E+02  0.48504327156E+02  0.51100000000E-03 0. -1.
         22    1    1    0    0    0 -0.19213886822E+02  0.14364601523E+02 -0.19086469390E+02  0.30656296865E+02  0.00000000000E+00 0. -1.
</event>
<event>
 5    1  0.6690694E-004  0.9118800E+02  0.7818608E-02  0.1130116E+00
         25   -1    0    0    0    0  0.00000000000E+00  0.00000000000E+00  0.99999998245E-14  0.12500000000E+03  0.12500000000E+03 0.  0.
        -11    1    3    3    0    0  0.15666343596E+02  0.23572814946E+02 -0.54623259944E+02  0.61520829426E+02  0.51100000000E-03 0.  1.
         23    2    1    0    0    0  0.14794307181E+02  0.99213924725E+01 -0.23549166975E+02  0.95472575142E+02  0.90791760559E+02 0.  0.
         11    1    3    3    0    0 -0.87203641551E+00 -0.13651422473E+02  0.31074092969E+02  0.33951745715E+02  0.51100000000E-03 0. -1.
         22    1    1    0    0    0 -0.14794307181E+02 -0.99213924725E+01  0.23549166975E+02  0.29527424858E+02  0.00000000000E+00 0.  1.
</event>
<event>
 5    1  0.6690694E-004  0.9118800E+02  0.7818608E-02  0.1130116E+00
         25   -1    0    0    0    0  0.00000000000E+00  0.00000000000E+00  0.99999998245E-14  0.12500000000E+03  0.12500000000E+03 0.  0.
        -11    1    3    3    0    0 -0.20702154149E+02  0.37855285695E+02 -0.32217682548E+02  0.53847756782E+02  0.51100000000E-03 0.  1.
         23    2    1    0    0    0 -0.16795201156E+02  0.23407937736E+02  0.65940358536E+01  0.95445108023E+02  0.90753936586E+02 0.  0.
         11    1    3    3    0    0  0.39069529929E+01 -0.14447347959E+02  0.38811718402E+02  0.41597351241E+02  0.51100000000E-03 0. -1.
         22    1    1    0    0    0  0.16795201156E+02 -0.23407937736E+02 -0.65940358536E+01  0.29554891977E+02  0.00000000000E+00 0. -1.
</event>
<event>
 5    1  0.6690694E-004  0.9118800E+02  0.7818608E-02  0.1130116E+00
         25   -1    0    0    0    0  0.00000000000E+00  0.00000000000E+00  0.99999998245E-14  0.12500000000E+03  0.12500000000E+03 0.  0.
        -11    1    3    3    0    0 -0.14253261642E+02  0.36117745756E+02  0.41474389832E+02  0.56813484650E+02  0.51100000000E-03 0.  1.
         23    2    1    0    0    0  0.89370332945E+01  0.26190044852E+02  0.14451447168E+02  0.93780881840E+02  0.88432010380E+02 0.  0.
         11    1    3    3    0    0  0.23190294936E+02 -0.99277009036E+01 -0.27022942664E+02  0.36967397189E+02  0.51100000000E-03 0. -1.
         22    1    1    0    0    0 -0.89370332945E+01 -0.26190044852E+02 -0.14451447168E+02  0.31219118160E+02  0.00000000000E+00 0.  1.
</event>
<event>
 5    1  0.6690694E-004  0.9118800E+02  0.7818608E-02  0.1130116E+00
         25   -1    0    0    0    0  0.00000000000E+00  0.00000000000E+00  0.99999998245E-14  0.12500000000E+03  0.12500000000E+03 0.  0.
        -11    1    3    3    0    0  0.12552004973E+02  0.21871523767E+02  0.25848122595E+02  0.36111519252E+02  0.51100000000E-03 0. -1.
         23    2    1    0    0    0  0.10997849027E+02 -0.26489081684E+02 -0.80742356756E+01  0.95203734908E+02  0.90420869975E+02 0.  0.
         11    1    3    3    0    0 -0.15541559458E+01 -0.48360605451E+02 -0.33922358270E+02  0.59092215657E+02  0.51100000000E-03 0.  1.
         22    1    1    0    0    0 -0.10997849027E+02  0.26489081684E+02  0.80742356756E+01  0.29796265092E+02  0.00000000000E+00 0.  1.
</event>
<event>
 5    1  0.6690694E-004  0.9118800E+02  0.7818608E-02  0.1130116E+00
         25   -1    0    0    0    0  0.00000000000E+00  0.00000000000E+00  0.99999998245E-14  0.12500000000E+03  0.12500000000E+03 0.  0.
        -11    1    3    3    0    0  0.43545801284E+02 -0.25842827821E+02 -0.16799607005E+02  0.53350870237E+02  0.51100000000E-03 0.  1.
         23    2    1    0    0    0  0.18611309559E+02 -0.13565279877E+02  0.16458339334E+02  0.96693205846E+02  0.92457024944E+02 0.  0.
         11    1    3    3    0    0 -0.24934491725E+02  0.12277547944E+02  0.33257946339E+02  0.43342335609E+02  0.51100000000E-03 0. -1.
         22    1    1    0    0    0 -0.18611309559E+02  0.13565279877E+02 -0.16458339334E+02  0.28306794154E+02  0.00000000000E+00 0. -1.
</event>
<event>
 5    1  0.6690694E-004  0.9118800E+02  0.7818608E-02  0.1130116E+00
         25   -1    0    0    0    0  0.00000000000E+00  0.00000000000E+00  0.99999998245E-14  0.12500000000E+03  0.12500000000E+03 0.  0.
        -11    1    3    3    0    0 -0.66234660134E+01  0.35045034307E+02 -0.92018893693E+01  0.36833401958E+02  0.51100000000E-03 0. -1.
         23    2    1    0    0    0 -0.18458614685E+02 -0.22379783022E+02 -0.17416031300E+01  0.95937854077E+02  0.91430101823E+02 0.  0.
         11    1    3    3    0    0 -0.11835148671E+02 -0.57424817328E+02  0.74602862393E+01  0.59104452119E+02  0.51100000000E-03 0.  1.
         22    1    1    0    0    0  0.18458614685E+02  0.22379783022E+02  0.17416031300E+01  0.29062145923E+02  0.00000000000E+00 0.  1.
</event>
<event>
 5    1  0.6690694E-004  0.9118800E+02  0.7818608E-02  0.1130116E+00
         25   -1    0    0    0    0  0.00000000000E+00  0.00000000000E+00  0.99999998245E-14  0.12500000000E+03  0.12500000000E+03 0.  0.
        -11    1    3    3    0    0  0.22521443151E+02 -0.39436112405E+02 -0.13917697369E+02  0.47498680650E+02  0.51100000000E-03 0. -1.
         23    2    1    0    0    0  0.15626936488E+02  0.76151627715E+01 -0.23260359347E+02  0.95961471026E+02  0.91462384380E+02 0.  0.
         11    1    3    3    0    0 -0.68945066636E+01  0.47051275176E+02 -0.93426619786E+01  0.48462790375E+02  0.51100000000E-03 0.  1.
         22    1    1    0    0    0 -0.15626936488E+02 -0.76151627715E+01  0.23260359347E+02  0.29038528974E+02  0.00000000000E+00 0.  1.
</event>
<event>
 5    1  0.6690694E-004  0.9118800E+02  0.7818608E-02  0.1130116E+00
         25   -1    0    0    0    0  0.00000000000E+00  0.00000000000E+00  0.99999998245E-14  0.12500000000E+03  0.12500000000E+03 0.  0.
        -11    1    3    3    0    0 -0.48614903947E+02  0.21897752883E+02 -0.41786572542E+01  0.53482535877E+02  0.51100000000E-03 0. -1.
         23    2    1    0    0    0 -0.25144142687E+02 -0.13125708362E+02 -0.71532294496E+01  0.95747977454E+02  0.91170139648E+02 0.  0.
         11    1    3    3    0    0  0.23470761260E+02 -0.35023461245E+02 -0.29745721954E+01  0.42265441577E+02  0.51100000000E-03 0.  1.
         22    1    1    0    0    0  0.25144142687E+02  0.13125708362E+02  0.71532294496E+01  0.29252022546E+02  0.00000000000E+00 0. -1.
</event>
<event>
 5    1  0.6690694E-004  0.9118800E+02  0.7818608E-02  0.1130116E+00
         25   -1    0    0    0    0  0.00000000000E+00  0.00000000000E+00  0.99999998245E-14  0.12500000000E+03  0.12500000000E+03 0.  0.
        -11    1    3    3    0    0  0.34695209223E+02 -0.25610362497E+02 -0.41908462246E+02  0.60132914600E+02  0.51100000000E-03 0.  1.
         23    2    1    0    0    0  0.49232105536E+01 -0.12976963315E+02 -0.24448543978E+02  0.96886464440E+02  0.92717938448E+02 0.  0.
         11    1    3    3    0    0 -0.29771998670E+02  0.12633399182E+02  0.17459918268E+02  0.36753549840E+02  0.51100000000E-03 0. -1.
         22    1    1    0    0    0 -0.49232105536E+01  0.12976963315E+02  0.24448543978E+02  0.28113535560E+02  0.00000000000E+00 0.  1.
</event>
<event>
 5    1  0.6690694E-004  0.9118800E+02  0.7818608E-02  0.1130116E+00
         25   -1    0    0    0    0  0.00000000000E+00  0.00000000000E+00  0.99999998245E-14  0.12500000000E+03  0.12500000000E+03 0.  0.
        -11    1    3    3    0    0  0.28647347838E+02 -0.13091550975E+02 -0.16466378899E+02  0.35541537380E+02  0.51100000000E-03 0.  1.
         23    2    1    0    0    0 -0.28450223889E+02 -0.79350330343E+01 -0.12243622549E+02  0.93026788061E+02  0.87359584564E+02 0.  0.
         11    1    3    3    0    0 -0.57097571727E+02  0.51565179403E+01  0.42227563495E+01  0.57485250681E+02  0.51100000000E-03 0. -1.
         22    1    1    0    0    0  0.28450223889E+02  0.79350330343E+01  0.12243622549E+02  0.31973211939E+02  0.00000000000E+00 0. -1.
</event>
<event>
 5    1  0.6690694E-004  0.9118800E+02  0.7818608E-02  0.1130116E+00
         25   -1    0    0    0    0  0.00000000000E+00  0.00000000000E+00  0.99999998245E-14  0.12500000000E+03  0.12500000000E+03 0.  0.
        -11    1    3    3    0    0 -0.20601275772E+01  0.49707414905E+02  0.35042539063E+02  0.60852697281E+02  0.51100000000E-03 0.  1.
         23    2    1    0    0    0  0.66608899751E+01  0.28423315515E+02  0.11921715661E+02  0.93466214556E+02  0.87986099124E+02 0.  0.
         11    1    3    3    0    0  0.87210175523E+01 -0.21284099390E+02 -0.23120823402E+02  0.32613517275E+02  0.51100000000E-03 0. -1.
         22    1    1    0    0    0 -0.66608899751E+01 -0.28423315515E+02 -0.11921715661E+02  0.31533785444E+02  0.00000000000E+00 0.  1.
</event>
<event>
 5    1  0.6690694E-004  0.9118800E+02  0.7818608E-02  0.1130116E+00
         25   -1    0    0    0    0  0.00000000000E+00  0.00000000000E+00  0.99999998245E-14  0.12500000000E+03  0.12500000000E+03 0.  0.
        -11    1    3    3    0    0  0.83304792985E+01  0.51050953906E+02 -0.54516747144E+01  0.52012667087E+02  0.51100000000E-03 0. -1.
         23    2    1    0    0    0 -0.17347922408E+02  0.16640401653E+02  0.11722196311E+02  0.98255593755E+02  0.94545747862E+02 0.  0.
         11    1    3    3    0    0 -0.25678401706E+02 -0.34410552253E+02  0.17173871025E+02  0.46242926668E+02  0.51100000000E-03 0.  1.
         22    1    1    0    0    0  0.17347922408E+02 -0.16640401653E+02 -0.11722196311E+02  0.26744406245E+02  0.00000000000E+00 0.  1.
</event>
<event>
 5    1  0.6690694E-004  0.9118800E+02  0.7818608E-02  0.1130116E+00
         25   -1    0    0    0    0  0.00000000000E+00  0.00000000000E+00  0.99999998245E-14  0.12500000000E+03  0.12500000000E+03 0.  0.
        -11    1    3    3    0    0  0.35741299192E+02 -0.32061523516E+02 -0.29540453996E+02  0.56373931747E+02  0.51100000000E-03 0.  1.
         23    2    1    0    0    0  0.25560458831E+02 -0.76256266678E+01  0.28143871774E+01  0.98178217566E+02  0.94443392525E+02 0.  0.
         11    1    3    3    0    0 -0.10180840361E+02  0.24435896848E+02  0.32354841173E+02  0.41804285819E+02  0.51100000000E-03 0. -1.
         22    1    1    0    0    0 -0.25560458831E+02  0.76256266678E+01 -0.28143871774E+01  0.26821782434E+02  0.00000000000E+00 0.  1.
</event>
<event>
 5    1  0.6690694E-004  0.9118800E+02  0.7818608E-02  0.1130116E+00
         25   -1    0    0    0    0  0.00000000000E+00  0.00000000000E+00  0.99999998245E-14  0.12500000000E+03  0.12500000000E+03 0.  0.
        -11    1    3    3    0    0  0.44236803181E+02  0.28156599394E+02 -0.14938311524E+02  0.54523774599E+02  0.51100000000E-03 0.  1.
         23    2    1    0    0    0  0.32341637631E+02 -0.18767621133E+01  0.46043007742E+01  0.92278396337E+02  0.86282090170E+02 0.  0.
         11    1    3    3    0    0 -0.11895165550E+02 -0.30033361507E+02  0.19542612298E+02  0.37754621738E+02  0.51100000000E-03 0. -1.
         22    1    1    0    0    0 -0.32341637631E+02  0.18767621133E+01 -0.46043007742E+01  0.32721603663E+02  0.00000000000E+00 0.  1.
</event>
<event>
 5    1  0.6690694E-004  0.9118800E+02  0.7818608E-02  0.1130116E+00
         25   -1    0    0    0    0  0.00000000000E+00  0.00000000000E+00  0.99999998245E-14  0.12500000000E+03  0.12500000000E+03 0.  0.
        -11    1    3    3    0    0  0.24792712599E+02  0.95992198992E+01  0.23037426543E+02  0.35178781143E+02  0.51100000000E-03 0.  1.
         23    2    1    0    0    0 -0.24912483030E+02  0.10719869840E+02 -0.11318319651E+02  0.95612047029E+02  0.90983579602E+02 0.  0.
         11    1    3    3    0    0 -0.49705195629E+02  0.11206499411E+01 -0.34355746195E+02  0.60433265886E+02  0.51100000000E-03 0. -1.
         22    1    1    0    0    0  0.24912483030E+02 -0.10719869840E+02  0.11318319651E+02  0.29387952971E+02  0.00000000000E+00 0. -1.
</event>
<event>
 5    1  0.6690694E-004  0.9118800E+02  0.7818608E-02  0.1130116E+00
         25   -1    0    0    0    0  0.00000000000E+00  0.00000000000E+00  0.99999998245E-14  0.12500000000E+03  0.12500000000E+03 0.  0.
        -11    1    3    3    0    0  0.43912635304E+02  0.17449478415E+02 -0.64530369790E+01  0.47691147217E+02  0.51100000000E-03 0. -1.
         23    2    1    0    0    0  0.10826596220E+02  0.29331636581E+02  0.16471879170E+02  0.89660462742E+02  0.82402158257E+02 0.  0.
         11    1    3    3    0    0 -0.33086039085E+02  0.11882158166E+02  0.22924916149E+02  0.41969315525E+02  0.51100000000E-03 0.  1.
         22    1    1    0    0    0 -0.10826596220E+02 -0.29331636581E+02 -0.16471879170E+02  0.35339537258E+02  0.00000000000E+00 0.  1.
</event>
<event>
 5    1  0.6690694E-004  0.9118800E+02  0.7818608E-02  0.1130116E+00
         25   -1    0    0    0    0  0.00000000000E+00  0.00000000000E+00  0.99999998245E-14  0.12500000000E+03  0.12500000000E+03 0.  0.
        -11    1    3    3    0    0 -0.30508586969E+02  0.29641939113E+02  0.39459828429E+01  0.42719892486E+02  0.51100000000E-03 0. -1.
         23    2    1    0    0    0 -0.30284869693E+02 -0.23877689489E+01  0.28705512822E+02  0.83204291617E+02  0.71944929663E+02 0.  0.
         11    1    3    3    0    0  0.22371727623E+00 -0.32029708061E+02  0.24759529979E+02  0.40484399131E+02  0.51100000000E-03 0.  1.
         22    1    1    0    0    0  0.30284869693E+02  0.23877689489E+01 -0.28705512822E+02  0.41795708383E+02  0.00000000000E+00 0. -1.
</event>
<event>
 5    1  0.6690694E-004  0.9118800E+02  0.7818608E-02  0.1130116E+00
         25   -1    0    0    0    0  0.00000000000E+00  0.00000000000E+00  0.99999998245E-14  0.12500000000E+03  0.12500000000E+03 0.  0.
        -11    1    3    3    0    0  0.50003012094E+02 -0.29760507566E+01 -0.23122285297E+02  0.55170627821E+02  0.51100000000E-03 0.  1.
         23    2    1    0    0    0  0.30039449305E+02  0.43863615874E+01  0.86717097891E+01  0.93427745833E+02  0.87931430434E+02 0.  0.
         11    1    3    3    0    0 -0.19963562789E+02  0.73624123441E+01  0.31793995086E+02  0.38257118011E+02  0.51100000000E-03 0. -1.
         22    1    1    0    0    0 -0.30039449305E+02 -0.43863615874E+01 -0.86717097891E+01  0.31572254167E+02  0.00000000000E+00 0.  1.
</event>
<event>
 5    1  0.6690694E-004  0.9118800E+02  0.7818608E-02  0.1130116E+00
         25   -1    0    0    0    0  0.00000000000E+00  0.00000000000E+00  0.99999998245E-14  0.12500000000E+03  0.12500000000E+03 0.  0.
        -11    1    3    3    0    0 -0.11367125430E+02  0.11551846842E+02 -0.50190689238E+02  0.52742411705E+02  0.51100000000E-03 0.  1.
         23    2    1    0    0    0 -0.19149016447E+02  0.20382819577E+02 -0.89408012189E+01  0.95638765502E+02  0.91020280023E+02 0.  0.
         11    1    3    3    0    0 -0.77818910171E+01  0.88309727349E+01  0.41249888019E+02  0.42896353797E+02  0.51100000000E-03 0. -1.
         22    1    1    0    0    0  0.19149016447E+02 -0.20382819577E+02  0.89408012189E+01  0.29361234498E+02  0.00000000000E+00 0. -1.
</event>
<event>
 5    1  0.6690694E-004  0.9118800E+02  0.7818608E-02  0.1130116E+00
         25   -1    0    0    0    0  0.00000000000E+00  0.00000000000E+00  0.99999998245E-14  0.12500000000E+03  0.12500000000E+03 0.  0.
        -11    1    3    3    0    0  0.47235323818E+02 -0.33142623568E+02 -0.12904722295E+02  0.59128175779E+02  0.51100000000E-03 0.  1.
         23    2    1    0    0    0  0.29016680875E+02 -0.10485729560E+02  0.56722658327E+01  0.93629745090E+02  0.88218117598E+02 0.  0.
         11    1    3    3    0    0 -0.18218642943E+02  0.22656894008E+02  0.18576988127E+02  0.34501569311E+02  0.51100000000E-03 0. -1.
         22    1    1    0    0    0 -0.29016680875E+02  0.10485729560E+02 -0.56722658327E+01  0.31370254910E+02  0.00000000000E+00 0.  1.
</event>
<event>
 5    1  0.6690694E-004  0.9118800E+02  0.7818608E-02  0.1130116E+00
         25   -1    0    0    0    0  0.00000000000E+00  0.00000000000E+00  0.99999998245E-14  0.12500000000E+03  0.12500000000E+03 0.  0.
        -11    1    3    3    0    0 -0.40293536638E+02  0.10555071256E+02  0.58955750215E+01  0.42068235394E+02  0.51100000000E-03 0.  1.
         23    2    1    0    0    0 -0.19209007570E+01  0.12015361105E+02 -0.28745808248E+02  0.93784935463E+02  0.88437740053E+02 0.  0.
         11    1    3    3    0    0  0.38372635881E+02  0.14602898493E+01 -0.34641383270E+02  0.51716700069E+02  0.51100000000E-03 0. -1.
         22    1    1    0    0    0  0.19209007570E+01 -0.12015361105E+02  0.28745808248E+02  0.31215064537E+02  0.00000000000E+00 0.  1.
</event>
<event>
 5    1  0.6690694E-004  0.9118800E+02  0.7818608E-02  0.1130116E+00
         25   -1    0    0    0    0  0.00000000000E+00  0.00000000000E+00  0.99999998245E-14  0.12500000000E+03  0.12500000000E+03 0.  0.
        -11    1    3    3    0    0  0.54813797742E+02 -0.98145885197E+01  0.27883847788E+02  0.62276701410E+02  0.51100000000E-03 0. -1.
         23    2    1    0    0    0  0.26710417133E+02 -0.18568911862E+01  0.10689954125E+02  0.96169988770E+02  0.91746919254E+02 0.  0.
         11    1    3    3    0    0 -0.28103380609E+02  0.79576973335E+01 -0.17193893663E+02  0.33893287360E+02  0.51100000000E-03 0.  1.
         22    1    1    0    0    0 -0.26710417133E+02  0.18568911862E+01 -0.10689954125E+02  0.28830011230E+02  0.00000000000E+00 0. -1.
</event>
<event>
 5    1  0.6690694E-004  0.9118800E+02  0.7818608E-02  0.1130116E+00
         25   -1    0    0    0    0  0.00000000000E+00  0.00000000000E+00  0.99999998245E-14  0.12500000000E+03  0.12500000000E+03 0.  0.
        -11    1    3    3    0    0  0.48110937741E+02 -0.18144508332E+02  0.78020831779E+00  0.51424646214E+02  0.51100000000E-03 0.  1.
         23    2    1    0    0    0  0.17116810954E+02  0.92099350384E+01 -0.19497384562E+02  0.97468997014E+02  0.93499996008E+02 0.  0.
         11    1    3    3    0    0 -0.30994126787E+02  0.27354443370E+02 -0.20277592880E+02  0.46044350801E+02  0.51100000000E-03 0. -1.
         22    1    1    0    0    0 -0.17116810954E+02 -0.92099350384E+01  0.19497384562E+02  0.27531002986E+02  0.00000000000E+00 0. -1.
</event>
<event>
 5    1  0.6690694E-004  0.9118800E+02  0.7818608E-02  0.1130116E+00
         25   -1    0    0    0    0  0.00000000000E+00  0.00000000000E+00  0.99999998245E-14  0.12500000000E+03  0.12500000000E+03 0.  0.
        -11    1    3    3    0    0 -0.45340035385E+01 -0.28505470459E+02  0.24056483715E+02  0.37574372160E+02  0.51100000000E-03 0.  1.
         23    2    1    0    0    0 -0.18558468432E+02 -0.11577068701E+00 -0.23714399940E+02  0.94886831487E+02  0.89981708540E+02 0.  0.
         11    1    3    3    0    0 -0.14024464893E+02  0.28389699772E+02 -0.47770883655E+02  0.57312459327E+02  0.51100000000E-03 0. -1.
         22    1    1    0    0    0  0.18558468432E+02  0.11577068701E+00  0.23714399940E+02  0.30113168513E+02  0.00000000000E+00 0. -1.
</event>
<event>
 5    1  0.6690694E-004  0.9118800E+02  0.7818608E-02  0.1130116E+00
         25   -1    0    0    0    0  0.00000000000E+00  0.00000000000E+00  0.99999998245E-14  0.12500000000E+03  0.12500000000E+03 0.  0.
        -11    1    3    3    0    0 -0.13054389348E+02 -0.89557248736E+01 -0.30904669160E+02  0.34723488670E+02  0.51100000000E-03 0. -1.
         23    2    1    0    0    0 -0.39554826309E+01  0.29788325936E+02  0.11450251967E+02  0.92842598441E+02  0.87095634852E+02 0.  0.
         11    1    3    3    0    0  0.90989067171E+01  0.38744050809E+02  0.42354921128E+02  0.58119109771E+02  0.51100000000E-03 0.  1.
         22    1    1    0    0    0  0.39554826309E+01 -0.29788325936E+02 -0.11450251967E+02  0.32157401559E+02  0.00000000000E+00 0.  1.
</event>
<event>
 5    1  0.6690694E-004  0.9118800E+02  0.7818608E-02  0.1130116E+00
         25   -1    0    0    0    0  0.00000000000E+00  0.00000000000E+00  0.99999998245E-14  0.12500000000E+03  0.12500000000E+03 0.  0.
        -11    1    3    3    0    0  0.90940020598E+01 -0.27763247695E+02  0.51738887624E+02  0.59417264232E+02  0.51100000000E-03 0.  1.
         23    2    1    0    0    0  0.15752017937E+02 -0.50093990408E+01  0.19453460346E+02  0.99472421437E+02  0.96141070097E+02 0.  0.
         11    1    3    3    0    0  0.66580158771E+01  0.22753848654E+02 -0.32285427278E+02  0.40055157205E+02  0.51100000000E-03 0. -1.
         22    1    1    0    0    0 -0.15752017937E+02  0.50093990408E+01 -0.19453460346E+02  0.25527578563E+02  0.00000000000E+00 0.  1.
</event>
<event>
 5    1  0.6690694E-004  0.9118800E+02  0.7818608E-02  0.1130116E+00
         25   -1    0    0    0    0  0.00000000000E+00  0.00000000000E+00  0.99999998245E-14  0.12500000000E+03  0.12500000000E+03 0.  0.
        -11    1    3    3    0    0  0.56017199325E+02 -0.16425690115E+02  0.43249954904E+01  0.58535762592E+02  0.51100000000E-03 0.  1.
         23    2    1    0    0    0  0.23057208911E+02 -0.17765904310E+02 -0.96118721051E+01  0.94346283682E+02  0.89227635408E+02 0.  0.
         11    1    3    3    0    0 -0.32959990413E+02 -0.13402141952E+01 -0.13936867595E+02  0.35810521091E+02  0.51100000000E-03 0. -1.
         22    1    1    0    0    0 -0.23057208911E+02  0.17765904310E+02  0.96118721051E+01  0.30653716318E+02  0.00000000000E+00 0. -1.
</event>
<event>
 5    1  0.6690694E-004  0.9118800E+02  0.7818608E-02  0.1130116E+00
         25   -1    0    0    0    0  0.00000000000E+00  0.00000000000E+00  0.99999998245E-14  0.12500000000E+03  0.12500000000E+03 0.  0.
        -11    1    3    3    0    0  0.45534408387E+02  0.15528825573E+02  0.19401030292E+02  0.51874143342E+02  0.51100000000E-03 0.  1.
         23    2    1    0    0    0  0.51132836846E+01  0.27379027325E+02  0.33679146400E+01  0.96944703596E+02  0.92796421800E+02 0.  0.
         11    1    3    3    0    0 -0.40421124702E+02  0.11850201752E+02 -0.16033115652E+02  0.45070560253E+02  0.51100000000E-03 0. -1.
         22    1    1    0    0    0 -0.51132836846E+01 -0.27379027325E+02 -0.33679146400E+01  0.28055296404E+02  0.00000000000E+00 0. -1.
</event>
<event>
 5    1  0.6690694E-004  0.9118800E+02  0.7818608E-02  0.1130116E+00
         25   -1    0    0    0    0  0.00000000000E+00  0.00000000000E+00  0.99999998245E-14  0.12500000000E+03  0.12500000000E+03 0.  0.
        -11    1    3    3    0    0  0.40714798759E+02  0.19526722754E+02  0.28089921859E+02  0.53179238898E+02  0.51100000000E-03 0. -1.
         23    2    1    0    0    0  0.51206206721E+01 -0.16660703869E+00  0.30636784256E+02  0.93937787208E+02  0.88653521092E+02 0.  0.
         11    1    3    3    0    0 -0.35594178087E+02 -0.19693329792E+02  0.25468623966E+01  0.40758548310E+02  0.51100000000E-03 0.  1.
         22    1    1    0    0    0 -0.51206206721E+01  0.16660703869E+00 -0.30636784256E+02  0.31062212792E+02  0.00000000000E+00 0. -1.
</event>
<event>
 5    1  0.6690694E-004  0.9118800E+02  0.7818608E-02  0.1130116E+00
         25   -1    0    0    0    0  0.00000000000E+00  0.00000000000E+00  0.99999998245E-14  0.12500000000E+03  0.12500000000E+03 0.  0.
        -11    1    3    3    0    0  0.10551642512E+02  0.33256806903E+02  0.89206987702E+01  0.36012931454E+02  0.51100000000E-03 0. -1.
         23    2    1    0    0    0  0.18888370693E+02 -0.23775845468E+02 -0.15499642403E+01  0.94595004287E+02  0.89575393227E+02 0.  0.
         11    1    3    3    0    0  0.83367281806E+01 -0.57032652371E+02 -0.10470663010E+02  0.58582072833E+02  0.51100000000E-03 0.  1.
         22    1    1    0    0    0 -0.18888370693E+02  0.23775845468E+02  0.15499642403E+01  0.30404995713E+02  0.00000000000E+00 0.  1.
</event>
<event>
 5    1  0.6690694E-004  0.9118800E+02  0.7818608E-02  0.1130116E+00
         25   -1    0    0    0    0  0.00000000000E+00  0.00000000000E+00  0.99999998245E-14  0.12500000000E+03  0.12500000000E+03 0.  0.
        -11    1    3    3    0    0 -0.44120662718E+02 -0.16136602622E+02 -0.20161321240E+02  0.51122418735E+02  0.51100000000E-03 0.  1.
         23    2    1    0    0    0 -0.18068734699E+01 -0.27219352326E+02 -0.91346045627E+01  0.96231980720E+02  0.91831340947E+02 0.  0.
         11    1    3    3    0    0  0.42313789249E+02 -0.11082749704E+02  0.11026716678E+02  0.45109561985E+02  0.51100000000E-03 0. -1.
         22    1    1    0    0    0  0.18068734699E+01  0.27219352326E+02  0.91346045627E+01  0.28768019280E+02  0.00000000000E+00 0.  1.
</event>
<event>
 5    1  0.6690694E-004  0.9118800E+02  0.7818608E-02  0.1130116E+00
         25   -1    0    0    0    0  0.00000000000E+00  0.00000000000E+00  0.99999998245E-14  0.12500000000E+03  0.12500000000E+03 0.  0.
        -11    1    3    3    0    0 -0.12157467206E+02 -0.30649501647E+02  0.11665830643E+02  0.34975528086E+02  0.51100000000E-03 0.  1.
         23    2    1    0    0    0 -0.11352209147E+01  0.14340310324E+02 -0.26403194798E+02  0.94932377509E+02  0.90044957534E+02 0.  0.
         11    1    3    3    0    0  0.11022246291E+02  0.44989811971E+02 -0.38069025440E+02  0.59956849423E+02  0.51100000000E-03 0. -1.
         22    1    1    0    0    0  0.11352209147E+01 -0.14340310324E+02  0.26403194798E+02  0.30067622491E+02  0.00000000000E+00 0. -1.
</event>
<event>
 5    1  0.6690694E-004  0.9118800E+02  0.7818608E-02  0.1130116E+00
         25   -1    0    0    0    0  0.00000000000E+00  0.00000000000E+00  0.99999998245E-14  0.12500000000E+03  0.12500000000E+03 0.  0.
        -11    1    3    3    0    0 -0.17678386544E+01  0.30030934532E+02 -0.11722453062E+02  0.32286191915E+02  0.51100000000E-03 0.  1.
         23    2    1    0    0    0 -0.14358320638E+02 -0.26391850418E+02  0.88997971746E+01  0.93664755789E+02  0.88267711804E+02 0.  0.
         11    1    3    3    0    0 -0.12590481984E+02 -0.56422784950E+02  0.20622250237E+02  0.61378563873E+02  0.51100000000E-03 0. -1.
         22    1    1    0    0    0  0.14358320638E+02  0.26391850418E+02 -0.88997971746E+01  0.31335244211E+02  0.00000000000E+00 0. -1.
</event>
<event>
 5    1  0.6690694E-004  0.9118800E+02  0.7818608E-02  0.1130116E+00
         25   -1    0    0    0    0  0.00000000000E+00  0.00000000000E+00  0.99999998245E-14  0.12500000000E+03  0.12500000000E+03 0.  0.
        -11    1    3    3    0    0  0.39528139729E+02 -0.34648476640E+02  0.95251652661E+01  0.53420216562E+02  0.51100000000E-03 0. -1.
         23    2    1    0    0    0 -0.29834757774E+01 -0.27335228625E+02  0.69749207686E+01  0.96631613169E+02  0.92373715375E+02 0.  0.
         11    1    3    3    0    0 -0.42511615506E+02  0.73132480154E+01 -0.25502444976E+01  0.43211396607E+02  0.51100000000E-03 0.  1.
         22    1    1    0    0    0  0.29834757774E+01  0.27335228625E+02 -0.69749207686E+01  0.28368386831E+02  0.00000000000E+00 0. -1.
</event>
<event>
 5    1  0.6690694E-004  0.9118800E+02  0.7818608E-02  0.1130116E+00
         25   -1    0    0    0    0  0.00000000000E+00  0.00000000000E+00  0.99999998245E-14  0.12500000000E+03  0.12500000000E+03 0.  0.
        -11    1    3    3    0    0  0.48207619266E+02 -0.55285664583E+01 -0.33095058360E+02  0.58735189542E+02  0.51100000000E-03 0.  1.
         23    2    1    0    0    0  0.24216069137E+02 -0.14350802612E+02 -0.55587726949E+01  0.96307431381E+02  0.91933986345E+02 0.  0.
         11    1    3    3    0    0 -0.23991550129E+02 -0.88222361538E+01  0.27536285666E+02  0.37572241840E+02  0.51100000000E-03 0. -1.
         22    1    1    0    0    0 -0.24216069137E+02  0.14350802612E+02  0.55587726949E+01  0.28692568619E+02  0.00000000000E+00 0.  1.
</event>
<event>
 5    1  0.6690694E-004  0.9118800E+02  0.7818608E-02  0.1130116E+00
         25   -1    0    0    0    0  0.00000000000E+00  0.00000000000E+00  0.99999998245E-14  0.12500000000E+03  0.12500000000E+03 0.  0.
        -11    1    3    3    0    0 -0.78091256573E+01 -0.47986432376E+02 -0.33955325893E+02  0.59301300934E+02  0.51100000000E-03 0. -1.
         23    2    1    0    0    0  0.14046370855E+01 -0.12906190801E+02 -0.25260027383E+02  0.96599088928E+02  0.92329693122E+02 0.  0.
         11    1    3    3    0    0  0.92137627428E+01  0.35080241575E+02  0.86952985103E+01  0.37297787994E+02  0.51100000000E-03 0.  1.
         22    1    1    0    0    0 -0.14046370855E+01  0.12906190801E+02  0.25260027383E+02  0.28400911072E+02  0.00000000000E+00 0. -1.
</event>
<event>
 5    1  0.6690694E-004  0.9118800E+02  0.7818608E-02  0.1130116E+00
         25   -1    0    0    0    0  0.00000000000E+00  0.00000000000E+00  0.99999998245E-14  0.12500000000E+03  0.12500000000E+03 0.  0.
        -11    1    3    3    0    0 -0.11387172588E+01 -0.29807246341E+02 -0.20937869701E+02  0.36443970685E+02  0.51100000000E-03 0.  1.
         23    2    1    0    0    0 -0.76604222738E+01  0.17538883960E+02  0.18480133626E+02  0.98395303820E+02  0.94730280033E+02 0.  0.
         11    1    3    3    0    0 -0.65217050150E+01  0.47346130300E+02  0.39418003327E+02  0.61951333136E+02  0.51100000000E-03 0. -1.
         22    1    1    0    0    0  0.76604222738E+01 -0.17538883960E+02 -0.18480133626E+02  0.26604696180E+02  0.00000000000E+00 0. -1.
</event>
<event>
 5    1  0.6690694E-004  0.9118800E+02  0.7818608E-02  0.1130116E+00
         25   -1    0    0    0    0  0.00000000000E+00  0.00000000000E+00  0.99999998245E-14  0.12500000000E+03  0.12500000000E+03 0.  0.
        -11    1    3    3    0    0  0.45538360989E+02  0.21146174615E+02 -0.11902841450E+02  0.51600200167E+02  0.51100000000E-03 0. -1.
         23    2    1    0    0    0  0.12529010290E+01  0.27167017354E+02 -0.88630462116E+01  0.96396325742E+02  0.92054774105E+02 0.  0.
         11    1    3    3    0    0 -0.44285459960E+02  0.60208427393E+01  0.30397952381E+01  0.44796125575E+02  0.51100000000E-03 0.  1.
         22    1    1    0    0    0 -0.12529010290E+01 -0.27167017354E+02  0.88630462116E+01  0.28603674258E+02  0.00000000000E+00 0. -1.
</event>
<event>
 5    1  0.6690694E-004  0.9118800E+02  0.7818608E-02  0.1130116E+00
         25   -1    0    0    0    0  0.00000000000E+00  0.00000000000E+00  0.99999998245E-14  0.12500000000E+03  0.12500000000E+03 0.  0.
        -11    1    3    3    0    0 -0.32748254191E+02  0.23478641621E+02  0.33112970165E+02  0.52155187263E+02  0.51100000000E-03 0. -1.
         23    2    1    0    0    0 -0.20979351139E+02 -0.14227124657E+02  0.14123106641E+02  0.95982653612E+02  0.91491329660E+02 0.  0.
         11    1    3    3    0    0  0.11768903053E+02 -0.37705766278E+02 -0.18989863524E+02  0.43827466349E+02  0.51100000000E-03 0.  1.
         22    1    1    0    0    0  0.20979351139E+02  0.14227124657E+02 -0.14123106641E+02  0.29017346388E+02  0.00000000000E+00 0. -1.
</event>
<event>
 5    1  0.6690694E-004  0.9118800E+02  0.7818608E-02  0.1130116E+00
         25   -1    0    0    0    0  0.00000000000E+00  0.00000000000E+00  0.99999998245E-14  0.12500000000E+03  0.12500000000E+03 0.  0.
        -11    1    3    3    0    0 -0.26317818324E+02 -0.19172477372E+02  0.96398040541E+01  0.33957874969E+02  0.51100000000E-03 0.  1.
         23    2    1    0    0    0  0.27086768675E+02 -0.18119983174E+02 -0.10066351997E+02  0.90891961798E+02  0.84249572400E+02 0.  0.
         11    1    3    3    0    0  0.53404586999E+02  0.10524941984E+01 -0.19706156051E+02  0.56934086830E+02  0.51100000000E-03 0. -1.
         22    1    1    0    0    0 -0.27086768675E+02  0.18119983174E+02  0.10066351997E+02  0.34108038202E+02  0.00000000000E+00 0. -1.
</event>
<event>
 5    1  0.6690694E-004  0.9118800E+02  0.7818608E-02  0.1130116E+00
         25   -1    0    0    0    0  0.00000000000E+00  0.00000000000E+00  0.99999998245E-14  0.12500000000E+03  0.12500000000E+03 0.  0.
        -11    1    3    3    0    0 -0.54644370655E+02  0.64673595619E+00  0.20733291378E+02  0.58449079405E+02  0.51100000000E-03 0.  1.
         23    2    1    0    0    0 -0.16228965564E+02  0.68252106168E+01  0.21304379421E+02  0.97362355278E+02  0.93357317976E+02 0.  0.
         11    1    3    3    0    0  0.38415405091E+02  0.61784746606E+01  0.57108804263E+00  0.38913275874E+02  0.51100000000E-03 0. -1.
         22    1    1    0    0    0  0.16228965564E+02 -0.68252106168E+01 -0.21304379421E+02  0.27637644722E+02  0.00000000000E+00 0.  1.
</event>
<event>
 5    1  0.6690694E-004  0.9118800E+02  0.7818608E-02  0.1130116E+00
         25   -1    0    0    0    0  0.00000000000E+00  0.00000000000E+00  0.99999998245E-14  0.12500000000E+03  0.12500000000E+03 0.  0.
        -11    1    3    3    0    0 -0.13689778109E+01 -0.12518711239E+02 -0.30655198753E+02  0.33141114076E+02  0.51100000000E-03 0.  1.
         23    2    1    0    0    0  0.12920352144E+02  0.80903955688E+01  0.25865946497E+02  0.94976056419E+02  0.90105571996E+02 0.  0.
         11    1    3    3    0    0  0.14289329955E+02  0.20609106808E+02  0.56521145250E+02  0.61834942343E+02  0.51100000000E-03 0. -1.
         22    1    1    0    0    0 -0.12920352144E+02 -0.80903955688E+01 -0.25865946497E+02  0.30023943581E+02  0.00000000000E+00 0. -1.
</event>
<event>
 5    1  0.6690694E-004  0.9118800E+02  0.7818608E-02  0.1130116E+00
         25   -1    0    0    0    0  0.00000000000E+00  0.00000000000E+00  0.99999998245E-14  0.12500000000E+03  0.12500000000E+03 0.  0.
        -11    1    3    3    0    0  0.26925569079E+02  0.47800519934E+01 -0.50140120227E+02  0.57112755352E+02  0.51100000000E-03 0. -1.
         23    2    1    0    0    0  0.22493727295E+02 -0.10675918826E+02 -0.14561401569E+02  0.96155981104E+02  0.91727832614E+02 0.  0.
         11    1    3    3    0    0 -0.44318417834E+01 -0.15455970819E+02  0.35578718658E+02  0.39043225752E+02  0.51100000000E-03 0.  1.
         22    1    1    0    0    0 -0.22493727295E+02  0.10675918826E+02  0.14561401569E+02  0.28844018896E+02  0.00000000000E+00 0. -1.
</event>
<event>
 5    1  0.6690694E-004  0.9118800E+02  0.7818608E-02  0.1130116E+00
         25   -1    0    0    0    0  0.00000000000E+00  0.00000000000E+00  0.99999998245E-14  0.12500000000E+03  0.12500000000E+03 0.  0.
        -11    1    3    3    0    0  0.17564142102E+02 -0.16894355685E+02  0.52636283335E+02  0.58004281440E+02  0.51100000000E-03 0. -1.
         23    2    1    0    0    0 -0.13464570147E+01 -0.20671875849E+02  0.18426493641E+02  0.97275010090E+02  0.93240294521E+02 0.  0.
         11    1    3    3    0    0 -0.18910599117E+02 -0.37775201638E+01 -0.34209789694E+02  0.39270728650E+02  0.51100000000E-03 0.  1.
         22    1    1    0    0    0  0.13464570147E+01  0.20671875849E+02 -0.18426493641E+02  0.27724989910E+02  0.00000000000E+00 0.  1.
</event>
<event>
 5    1  0.6690694E-004  0.9118800E+02  0.7818608E-02  0.1130116E+00
         25   -1    0    0    0    0  0.00000000000E+00  0.00000000000E+00  0.99999998245E-14  0.12500000000E+03  0.12500000000E+03 0.  0.
        -11    1    3    3    0    0 -0.92025755878E+01  0.53217405778E+02 -0.20147919807E+01  0.54044787558E+02  0.51100000000E-03 0. -1.
         23    2    1    0    0    0  0.18553399873E+02  0.23001993757E+02  0.26075950022E+01  0.95333184948E+02  0.90599648106E+02 0.  0.
         11    1    3    3    0    0  0.27755975461E+02 -0.30215412021E+02  0.46223869830E+01  0.41288397390E+02  0.51100000000E-03 0.  1.
         22    1    1    0    0    0 -0.18553399873E+02 -0.23001993757E+02 -0.26075950022E+01  0.29666815052E+02  0.00000000000E+00 0. -1.
</event>
<event>
 5    1  0.6690694E-004  0.9118800E+02  0.7818608E-02  0.1130116E+00
         25   -1    0    0    0    0  0.00000000000E+00  0.00000000000E+00  0.99999998245E-14  0.12500000000E+03  0.12500000000E+03 0.  0.
        -11    1    3    3    0    0  0.77168853761E+01 -0.40257117133E+02 -0.23727436430E+02  0.47362189978E+02  0.51100000000E-03 0. -1.
         23    2    1    0    0    0  0.16015183927E+02  0.74602198758E+01 -0.23251078496E+02  0.95798054037E+02  0.91238771963E+02 0.  0.
         11    1    3    3    0    0  0.82982985505E+01  0.47717337008E+02  0.47635793378E+00  0.48435864059E+02  0.51100000000E-03 0.  1.
         22    1    1    0    0    0 -0.16015183927E+02 -0.74602198758E+01  0.23251078496E+02  0.29201945963E+02  0.00000000000E+00 0.  1.
</event>
<event>
 5    1  0.6690694E-004  0.9118800E+02  0.7818608E-02  0.1130116E+00
         25   -1    0    0    0    0  0.00000000000E+00  0.00000000000E+00  0.99999998245E-14  0.12500000000E+03  0.12500000000E+03 0.  0.
        -11    1    3    3    0    0 -0.50179144158E+02  0.21896871360E+02  0.99130931719E+01  0.55638915341E+02  0.51100000000E-03 0.  1.
         23    2    1    0    0    0 -0.16866168544E+02  0.18986419566E+02 -0.13286597364E+02  0.96338432723E+02  0.91976128320E+02 0.  0.
         11    1    3    3    0    0  0.33312975614E+02 -0.29104517938E+01 -0.23199690536E+02  0.40699517382E+02  0.51100000000E-03 0. -1.
         22    1    1    0    0    0  0.16866168544E+02 -0.18986419566E+02  0.13286597364E+02  0.28661567277E+02  0.00000000000E+00 0.  1.
</event>
<event>
 5    1  0.6690694E-004  0.9118800E+02  0.7818608E-02  0.1130116E+00
         25   -1    0    0    0    0  0.00000000000E+00  0.00000000000E+00  0.99999998245E-14  0.12500000000E+03  0.12500000000E+03 0.  0.
        -11    1    3    3    0    0  0.17402039971E+02  0.33351094007E+02  0.16102017007E+02  0.40919450370E+02  0.51100000000E-03 0.  1.
         23    2    1    0    0    0  0.89740161251E+01 -0.23444261796E+02  0.52760450569E+01  0.99348430301E+02  0.95979724813E+02 0.  0.
         11    1    3    3    0    0 -0.84280238462E+01 -0.56795355804E+02 -0.10825971950E+02  0.58428979931E+02  0.51100000000E-03 0. -1.
         22    1    1    0    0    0 -0.89740161251E+01  0.23444261796E+02 -0.52760450569E+01  0.25651569699E+02  0.00000000000E+00 0.  1.
</event>
<event>
 5    1  0.6690694E-004  0.9118800E+02  0.7818608E-02  0.1130116E+00
         25   -1    0    0    0    0  0.00000000000E+00  0.00000000000E+00  0.99999998245E-14  0.12500000000E+03  0.12500000000E+03 0.  0.
        -11    1    3    3    0    0  0.18341411313E+02  0.46346269612E+02 -0.30845488550E+01  0.49938947904E+02  0.51100000000E-03 0. -1.
         23    2    1    0    0    0  0.15629582619E+02  0.65840229525E+01 -0.24515255938E+02  0.95190085797E+02  0.90401999145E+02 0.  0.
         11    1    3    3    0    0 -0.27118286943E+01 -0.39762246659E+02 -0.21430707083E+02  0.45251137893E+02  0.51100000000E-03 0.  1.
         22    1    1    0    0    0 -0.15629582619E+02 -0.65840229525E+01  0.24515255938E+02  0.29809914203E+02  0.00000000000E+00 0.  1.
</event>
<event>
 5    1  0.6690694E-004  0.9118800E+02  0.7818608E-02  0.1130116E+00
         25   -1    0    0    0    0  0.00000000000E+00  0.00000000000E+00  0.99999998245E-14  0.12500000000E+03  0.12500000000E+03 0.  0.
        -11    1    3    3    0    0 -0.46224778271E+01  0.53702376454E+02  0.18927932209E+02  0.57127744188E+02  0.51100000000E-03 0. -1.
         23    2    1    0    0    0  0.10385877357E+02  0.28291224865E+02 -0.41317643532E+01  0.94580740813E+02  0.89555486728E+02 0.  0.
         11    1    3    3    0    0  0.15008355184E+02 -0.25411151588E+02 -0.23059696562E+02  0.37452996625E+02  0.51100000000E-03 0.  1.
         22    1    1    0    0    0 -0.10385877357E+02 -0.28291224865E+02  0.41317643532E+01  0.30419259187E+02  0.00000000000E+00 0. -1.
</event>
<event>
 5    1  0.6690694E-004  0.9118800E+02  0.7818608E-02  0.1130116E+00
         25   -1    0    0    0    0  0.00000000000E+00  0.00000000000E+00  0.99999998245E-14  0.12500000000E+03  0.12500000000E+03 0.  0.
        -11    1    3    3    0    0 -0.42285784449E+02  0.31631688781E+02  0.72247735435E+01  0.53299612143E+02  0.51100000000E-03 0.  1.
         23    2    1    0    0    0 -0.26533057226E+02  0.16491120530E+01 -0.15632768729E+02  0.94159991010E+02  0.88966273119E+02 0.  0.
         11    1    3    3    0    0  0.15752727222E+02 -0.29982576728E+02 -0.22857542272E+02  0.40860378867E+02  0.51100000000E-03 0. -1.
         22    1    1    0    0    0  0.26533057226E+02 -0.16491120530E+01  0.15632768729E+02  0.30840008990E+02  0.00000000000E+00 0.  1.
</event>
<event>
 5    1  0.6690694E-004  0.9118800E+02  0.7818608E-02  0.1130116E+00
         25   -1    0    0    0    0  0.00000000000E+00  0.00000000000E+00  0.99999998245E-14  0.12500000000E+03  0.12500000000E+03 0.  0.
        -11    1    3    3    0    0  0.33757749712E+02 -0.12097343427E+02 -0.31661630679E+02  0.47837121999E+02  0.51100000000E-03 0.  1.
         23    2    1    0    0    0 -0.25718296744E+00 -0.29159296994E+02 -0.25911754260E+01  0.95724670209E+02  0.91138178346E+02 0.  0.
         11    1    3    3    0    0 -0.34014932680E+02 -0.17061953567E+02  0.29070455253E+02  0.47887548210E+02  0.51100000000E-03 0. -1.
         22    1    1    0    0    0  0.25718296744E+00  0.29159296994E+02  0.25911754260E+01  0.29275329791E+02  0.00000000000E+00 0. -1.
</event>
<event>
 5    1  0.6690694E-004  0.9118800E+02  0.7818608E-02  0.1130116E+00
         25   -1    0    0    0    0  0.00000000000E+00  0.00000000000E+00  0.99999998245E-14  0.12500000000E+03  0.12500000000E+03 0.  0.
        -11    1    3    3    0    0  0.91816955414E+01 -0.37870671484E+02  0.45178602526E+02  0.59662361821E+02  0.51100000000E-03 0. -1.
         23    2    1    0    0    0  0.16953778962E+01 -0.28594809048E+02  0.13849259374E+02  0.93182718596E+02  0.87582416324E+02 0.  0.
         11    1    3    3    0    0 -0.74863176452E+01  0.92758624357E+01 -0.31329343151E+02  0.33520356775E+02  0.51100000000E-03 0.  1.
         22    1    1    0    0    0 -0.16953778962E+01  0.28594809048E+02 -0.13849259374E+02  0.31817281404E+02  0.00000000000E+00 0. -1.
</event>
<event>
 5    1  0.6690694E-004  0.9118800E+02  0.7818608E-02  0.1130116E+00
         25   -1    0    0    0    0  0.00000000000E+00  0.00000000000E+00  0.99999998245E-14  0.12500000000E+03  0.12500000000E+03 0.  0.
        -11    1    3    3    0    0  0.39200813432E+02  0.24247041116E+02 -0.50564636028E+01  0.46370147736E+02  0.51100000000E-03 0.  1.
         23    2    1    0    0    0  0.49221175267E+01  0.46312460332E+01  0.26956321528E+02  0.97209372964E+02  0.93152258378E+02 0.  0.
         11    1    3    3    0    0 -0.34278695905E+02 -0.19615795083E+02  0.32012785131E+02  0.50839225228E+02  0.51100000000E-03 0. -1.
         22    1    1    0    0    0 -0.49221175267E+01 -0.46312460332E+01 -0.26956321528E+02  0.27790627036E+02  0.00000000000E+00 0. -1.
</event>
<event>
 5    1  0.6690694E-004  0.9118800E+02  0.7818608E-02  0.1130116E+00
         25   -1    0    0    0    0  0.00000000000E+00  0.00000000000E+00  0.99999998245E-14  0.12500000000E+03  0.12500000000E+03 0.  0.
        -11    1    3    3    0    0  0.33842929319E+02 -0.90703271204E+01  0.11584826915E+01  0.35056479877E+02  0.51100000000E-03 0. -1.
         23    2    1    0    0    0 -0.16229094196E+02  0.23849118296E+02 -0.63881135045E+01  0.95453901509E+02  0.90766047491E+02 0.  0.
         11    1    3    3    0    0 -0.50072023515E+02  0.32919445416E+02 -0.75465961960E+01  0.60397421632E+02  0.51100000000E-03 0.  1.
         22    1    1    0    0    0  0.16229094196E+02 -0.23849118296E+02  0.63881135045E+01  0.29546098491E+02  0.00000000000E+00 0.  1.
</event>
<event>
 5    1  0.6690694E-004  0.9118800E+02  0.7818608E-02  0.1130116E+00
         25   -1    0    0    0    0  0.00000000000E+00  0.00000000000E+00  0.99999998245E-14  0.12500000000E+03  0.12500000000E+03 0.  0.
        -11    1    3    3    0    0 -0.26638347808E+02 -0.64196499673E+01  0.47023083874E+02  0.54424111356E+02  0.51100000000E-03 0.  1.
         23    2    1    0    0    0  0.84858035110E+01  0.20099830522E+01  0.28852436668E+02  0.94858467278E+02  0.89942297167E+02 0.  0.
         11    1    3    3    0    0  0.35124151319E+02  0.84296330195E+01 -0.18170647206E+02  0.40434355922E+02  0.51100000000E-03 0. -1.
         22    1    1    0    0    0 -0.84858035110E+01 -0.20099830522E+01 -0.28852436668E+02  0.30141532722E+02  0.00000000000E+00 0.  1.
</event>
<event>
 5    1  0.6690694E-004  0.9118800E+02  0.7818608E-02  0.1130116E+00
         25   -1    0    0    0    0  0.00000000000E+00  0.00000000000E+00  0.99999998245E-14  0.12500000000E+03  0.12500000000E+03 0.  0.
        -11    1    3    3    0    0  0.16467331902E+02  0.42121749493E+01  0.51128584498E+02  0.53879936811E+02  0.51100000000E-03 0. -1.
         23    2    1    0    0    0  0.26911333700E+02  0.29587961999E+01  0.10313700484E+02  0.96028517916E+02  0.91553970307E+02 0.  0.
         11    1    3    3    0    0  0.10444001798E+02 -0.12533787494E+01 -0.40814884013E+02  0.42148581105E+02  0.51100000000E-03 0.  1.
         22    1    1    0    0    0 -0.26911333700E+02 -0.29587961999E+01 -0.10313700484E+02  0.28971482084E+02  0.00000000000E+00 0. -1.
</event>
<event>
 5    1  0.6690694E-004  0.9118800E+02  0.7818608E-02  0.1130116E+00
         25   -1    0    0    0    0  0.00000000000E+00  0.00000000000E+00  0.99999998245E-14  0.12500000000E+03  0.12500000000E+03 0.  0.
        -11    1    3    3    0    0 -0.42996825641E+01 -0.75132562191E+01 -0.35486148873E+02  0.36526744328E+02  0.51100000000E-03 0.  1.
         23    2    1    0    0    0 -0.40604365011E+01  0.21905034753E+02  0.17189610275E+02  0.96861052018E+02  0.92683671726E+02 0.  0.
         11    1    3    3    0    0  0.23924606304E+00  0.29418290972E+02  0.52675759147E+02  0.60334307690E+02  0.51100000000E-03 0. -1.
         22    1    1    0    0    0  0.40604365011E+01 -0.21905034753E+02 -0.17189610275E+02  0.28138947982E+02  0.00000000000E+00 0. -1.
</event>
<event>
 5    1  0.6690694E-004  0.9118800E+02  0.7818608E-02  0.1130116E+00
         25   -1    0    0    0    0  0.00000000000E+00  0.00000000000E+00  0.99999998245E-14  0.12500000000E+03  0.12500000000E+03 0.  0.
        -11    1    3    3    0    0 -0.26233465819E+02 -0.21906700779E+02 -0.10275825968E+02  0.35688805913E+02  0.51100000000E-03 0.  1.
         23    2    1    0    0    0  0.12909690939E+02  0.88448270851E+01  0.24158286214E+02  0.96216082978E+02  0.91809698532E+02 0.  0.
         11    1    3    3    0    0  0.39143156759E+02  0.30751527864E+02  0.34434112182E+02  0.60527277066E+02  0.51100000000E-03 0. -1.
         22    1    1    0    0    0 -0.12909690939E+02 -0.88448270851E+01 -0.24158286214E+02  0.28783917022E+02  0.00000000000E+00 0. -1.
</event>
<event>
 5    1  0.6690694E-004  0.9118800E+02  0.7818608E-02  0.1130116E+00
         25   -1    0    0    0    0  0.00000000000E+00  0.00000000000E+00  0.99999998245E-14  0.12500000000E+03  0.12500000000E+03 0.  0.
        -11    1    3    3    0    0  0.26857091454E+02 -0.22887897972E+02  0.33519959159E+00  0.35288405943E+02  0.51100000000E-03 0.  1.
         23    2    1    0    0    0 -0.40379615575E+01  0.25166782215E+02 -0.16244516269E+02  0.94774904972E+02  0.89826088878E+02 0.  0.
         11    1    3    3    0    0 -0.30895053012E+02  0.48054680187E+02 -0.16579715861E+02  0.59486499029E+02  0.51100000000E-03 0. -1.
         22    1    1    0    0    0  0.40379615575E+01 -0.25166782215E+02  0.16244516269E+02  0.30225095028E+02  0.00000000000E+00 0. -1.
</event>
<event>
 5    1  0.6690694E-004  0.9118800E+02  0.7818608E-02  0.1130116E+00
         25   -1    0    0    0    0  0.00000000000E+00  0.00000000000E+00  0.99999998245E-14  0.12500000000E+03  0.12500000000E+03 0.  0.
        -11    1    3    3    0    0 -0.47452639179E+02  0.37532996657E+02 -0.11277176362E+01  0.60512399973E+02  0.51100000000E-03 0. -1.
         23    2    1    0    0    0 -0.15931576873E+02  0.24040351164E+02 -0.70576634652E+01  0.95308852509E+02  0.90566070508E+02 0.  0.
         11    1    3    3    0    0  0.31521062306E+02 -0.13492645493E+02 -0.59299458291E+01  0.34796452536E+02  0.51100000000E-03 0.  1.
         22    1    1    0    0    0  0.15931576873E+02 -0.24040351164E+02  0.70576634652E+01  0.29691147491E+02  0.00000000000E+00 0. -1.
</event>
<event>
 5    1  0.6690694E-004  0.9118800E+02  0.7818608E-02  0.1130116E+00
         25   -1    0    0    0    0  0.00000000000E+00  0.00000000000E+00  0.99999998245E-14  0.12500000000E+03  0.12500000000E+03 0.  0.
        -11    1    3    3    0    0  0.16878409548E+02  0.13608938097E+02 -0.15225707621E+02  0.26493510107E+02  0.51100000000E-03 0.  1.
         23    2    1    0    0    0 -0.29665211101E+02  0.19412157897E+02  0.19206833051E+02  0.84679297380E+02  0.74463577305E+02 0.  0.
         11    1    3    3    0    0 -0.46543620649E+02  0.58032198007E+01  0.34432540672E+02  0.58185787273E+02  0.51100000000E-03 0. -1.
         22    1    1    0    0    0  0.29665211101E+02 -0.19412157897E+02 -0.19206833051E+02  0.40320702620E+02  0.00000000000E+00 0. -1.
</event>
<event>
 5    1  0.6690694E-004  0.9118800E+02  0.7818608E-02  0.1130116E+00
         25   -1    0    0    0    0  0.00000000000E+00  0.00000000000E+00  0.99999998245E-14  0.12500000000E+03  0.12500000000E+03 0.  0.
        -11    1    3    3    0    0 -0.40234002915E+01 -0.12813512728E+02  0.31057622199E+02  0.33837106189E+02  0.51100000000E-03 0. -1.
         23    2    1    0    0    0  0.15787644863E+02  0.25105342346E+02 -0.10556814168E+02  0.93520256195E+02  0.88062841476E+02 0.  0.
         11    1    3    3    0    0  0.19811045155E+02  0.37918855074E+02 -0.41614436367E+02  0.59683150006E+02  0.51100000000E-03 0.  1.
         22    1    1    0    0    0 -0.15787644863E+02 -0.25105342346E+02  0.10556814168E+02  0.31479743805E+02  0.00000000000E+00 0.  1.
</event>
<event>
 5    1  0.6690694E-004  0.9118800E+02  0.7818608E-02  0.1130116E+00
         25   -1    0    0    0    0  0.00000000000E+00  0.00000000000E+00  0.99999998245E-14  0.12500000000E+03  0.12500000000E+03 0.  0.
        -11    1    3    3    0    0 -0.23777664753E+02  0.23762443773E+02  0.10745144062E+02  0.35291489008E+02  0.51100000000E-03 0.  1.
         23    2    1    0    0    0  0.15928904379E+02 -0.66283949788E+01 -0.23463796710E+02  0.95875862747E+02  0.91345310151E+02 0.  0.
         11    1    3    3    0    0  0.39706569132E+02 -0.30390838752E+02 -0.34208940772E+02  0.60584373739E+02  0.51100000000E-03 0. -1.
         22    1    1    0    0    0 -0.15928904379E+02  0.66283949788E+01  0.23463796710E+02  0.29124137253E+02  0.00000000000E+00 0. -1.
</event>
<event>
 5    1  0.6690694E-004  0.9118800E+02  0.7818608E-02  0.1130116E+00
         25   -1    0    0    0    0  0.00000000000E+00  0.00000000000E+00  0.99999998245E-14  0.12500000000E+03  0.12500000000E+03 0.  0.
        -11    1    3    3    0    0  0.50946744722E+02  0.24123030621E+02 -0.12711642472E+02  0.57784749361E+02  0.51100000000E-03 0. -1.
         23    2    1    0    0    0  0.14107677794E+02  0.14643062076E+02 -0.19958432750E+02  0.96508161212E+02  0.92206509005E+02 0.  0.
         11    1    3    3    0    0 -0.36839066928E+02 -0.94799685449E+01 -0.72467902774E+01  0.38723411850E+02  0.51100000000E-03 0.  1.
         22    1    1    0    0    0 -0.14107677794E+02 -0.14643062076E+02  0.19958432750E+02  0.28491838788E+02  0.00000000000E+00 0. -1.
</event>
<event>
 5    1  0.6690694E-004  0.9118800E+02  0.7818608E-02  0.1130116E+00
         25   -1    0    0    0    0  0.00000000000E+00  0.00000000000E+00  0.99999998245E-14  0.12500000000E+03  0.12500000000E+03 0.  0.
        -11    1    3    3    0    0 -0.50702955500E+02 -0.21478443419E+02 -0.19678720970E+02  0.58475339139E+02  0.51100000000E-03 0.  1.
         23    2    1    0    0    0 -0.33018756113E+02  0.22534559055E+01 -0.15805822909E+02  0.88323844850E+02  0.80348996337E+02 0.  0.
         11    1    3    3    0    0  0.17684199387E+02  0.23731899324E+02  0.38728980612E+01  0.29848505710E+02  0.51100000000E-03 0. -1.
         22    1    1    0    0    0  0.33018756113E+02 -0.22534559055E+01  0.15805822909E+02  0.36676155150E+02  0.00000000000E+00 0.  1.
</event>
<event>
 5    1  0.6690694E-004  0.9118800E+02  0.7818608E-02  0.1130116E+00
         25   -1    0    0    0    0  0.00000000000E+00  0.00000000000E+00  0.99999998245E-14  0.12500000000E+03  0.12500000000E+03 0.  0.
        -11    1    3    3    0    0  0.50026501568E+02 -0.31844843595E+02 -0.15256867455E+02  0.61233299172E+02  0.51100000000E-03 0. -1.
         23    2    1    0    0    0  0.25803840715E+02 -0.83884985339E+01 -0.12680362810E+02  0.95050096757E+02  0.90208226838E+02 0.  0.
         11    1    3    3    0    0 -0.24222660853E+02  0.23456345061E+02  0.25765046458E+01  0.33816797584E+02  0.51100000000E-03 0.  1.
         22    1    1    0    0    0 -0.25803840715E+02  0.83884985339E+01  0.12680362810E+02  0.29949903243E+02  0.00000000000E+00 0. -1.
</event>
<event>
 5    1  0.6690694E-004  0.9118800E+02  0.7818608E-02  0.1130116E+00
         25   -1    0    0    0    0  0.00000000000E+00  0.00000000000E+00  0.99999998245E-14  0.12500000000E+03  0.12500000000E+03 0.  0.
        -11    1    3    3    0    0 -0.11433600534E+02 -0.56658353342E+02 -0.16785246784E+02  0.60188377071E+02  0.51100000000E-03 0.  1.
         23    2    1    0    0    0  0.29302595545E+01 -0.37057319774E+02 -0.40975447391E+01  0.87601855089E+02  0.79217824840E+02 0.  0.
         11    1    3    3    0    0  0.14363860089E+02  0.19601033568E+02  0.12687702045E+02  0.27413478018E+02  0.51100000000E-03 0. -1.
         22    1    1    0    0    0 -0.29302595545E+01  0.37057319774E+02  0.40975447391E+01  0.37398144911E+02  0.00000000000E+00 0.  1.
</event>
<event>
 5    1  0.6690694E-004  0.9118800E+02  0.7818608E-02  0.1130116E+00
         25   -1    0    0    0    0  0.00000000000E+00  0.00000000000E+00  0.99999998245E-14  0.12500000000E+03  0.12500000000E+03 0.  0.
        -11    1    3    3    0    0  0.27131889963E+02  0.36789851282E+02  0.62156816138E+01  0.46133147611E+02  0.51100000000E-03 0. -1.
         23    2    1    0    0    0  0.21249696886E+02 -0.12662280815E+02 -0.97217263562E+01  0.98421908712E+02  0.94765379638E+02 0.  0.
         11    1    3    3    0    0 -0.58821930767E+01 -0.49452132097E+02 -0.15937407970E+02  0.52288761100E+02  0.51100000000E-03 0.  1.
         22    1    1    0    0    0 -0.21249696886E+02  0.12662280815E+02  0.97217263562E+01  0.26578091288E+02  0.00000000000E+00 0.  1.
</event>
<event>
 5    1  0.6690694E-004  0.9118800E+02  0.7818608E-02  0.1130116E+00
         25   -1    0    0    0    0  0.00000000000E+00  0.00000000000E+00  0.99999998245E-14  0.12500000000E+03  0.12500000000E+03 0.  0.
        -11    1    3    3    0    0 -0.14087485495E+02  0.38316916271E+02  0.37754414941E+02  0.55606107289E+02  0.51100000000E-03 0. -1.
         23    2    1    0    0    0  0.55348099419E+01  0.29567171446E+02  0.54089111782E+01  0.94436818416E+02  0.89354376523E+02 0.  0.
         11    1    3    3    0    0  0.19622295436E+02 -0.87497448243E+01 -0.32345503762E+02  0.38830711127E+02  0.51100000000E-03 0.  1.
         22    1    1    0    0    0 -0.55348099419E+01 -0.29567171446E+02 -0.54089111782E+01  0.30563181584E+02  0.00000000000E+00 0. -1.
</event>
<event>
 5    1  0.6690694E-004  0.9118800E+02  0.7818608E-02  0.1130116E+00
         25   -1    0    0    0    0  0.00000000000E+00  0.00000000000E+00  0.99999998245E-14  0.12500000000E+03  0.12500000000E+03 0.  0.
        -11    1    3    3    0    0  0.46089129687E+02  0.25074047599E+02 -0.23179888620E+02  0.57360465261E+02  0.51100000000E-03 0. -1.
         23    2    1    0    0    0  0.11534277509E+02  0.12601801176E+02 -0.25651620529E+02  0.94180353891E+02  0.88994878913E+02 0.  0.
         11    1    3    3    0    0 -0.34554852178E+02 -0.12472246423E+02 -0.24717319086E+01  0.36819888630E+02  0.51100000000E-03 0.  1.
         22    1    1    0    0    0 -0.11534277509E+02 -0.12601801176E+02  0.25651620529E+02  0.30819646109E+02  0.00000000000E+00 0. -1.
</event>
<event>
 5    1  0.6690694E-004  0.9118800E+02  0.7818608E-02  0.1130116E+00
         25   -1    0    0    0    0  0.00000000000E+00  0.00000000000E+00  0.99999998245E-14  0.12500000000E+03  0.12500000000E+03 0.  0.
        -11    1    3    3    0    0 -0.25482672525E+02  0.89200256582E+01  0.13127964836E+02  0.30021274419E+02  0.51100000000E-03 0. -1.
         23    2    1    0    0    0  0.25527259629E+02 -0.21583432410E+02 -0.25049815026E+01  0.91477463236E+02  0.85113840291E+02 0.  0.
         11    1    3    3    0    0  0.51009932153E+02 -0.30503458068E+02 -0.15632946339E+02  0.61456188817E+02  0.51100000000E-03 0.  1.
         22    1    1    0    0    0 -0.25527259629E+02  0.21583432410E+02  0.25049815026E+01  0.33522536764E+02  0.00000000000E+00 0.  1.
</event>
<event>
 5    1  0.6690694E-004  0.9118800E+02  0.7818608E-02  0.1130116E+00
         25   -1    0    0    0    0  0.00000000000E+00  0.00000000000E+00  0.99999998245E-14  0.12500000000E+03  0.12500000000E+03 0.  0.
        -11    1    3    3    0    0 -0.17116111227E+02 -0.36634676398E+02 -0.13763042381E+02  0.42713956901E+02  0.51100000000E-03 0.  1.
         23    2    1    0    0    0  0.26357326886E+02 -0.69387475418E+01 -0.11521605973E+02  0.95409422070E+02  0.90704771195E+02 0.  0.
         11    1    3    3    0    0  0.43473438113E+02  0.29695928856E+02  0.22414364078E+01  0.52695465169E+02  0.51100000000E-03 0. -1.
         22    1    1    0    0    0 -0.26357326886E+02  0.69387475418E+01  0.11521605973E+02  0.29590577930E+02  0.00000000000E+00 0. -1.
</event>
<event>
 5    1  0.6690694E-004  0.9118800E+02  0.7818608E-02  0.1130116E+00
         25   -1    0    0    0    0  0.00000000000E+00  0.00000000000E+00  0.99999998245E-14  0.12500000000E+03  0.12500000000E+03 0.  0.
        -11    1    3    3    0    0  0.65729970067E-01 -0.28459335578E+02 -0.31456196509E+02  0.42419693552E+02  0.51100000000E-03 0. -1.
         23    2    1    0    0    0 -0.98340058225E+01 -0.19830874459E+02  0.19781584727E+02  0.95313599972E+02  0.90572622756E+02 0.  0.
         11    1    3    3    0    0 -0.98997357925E+01  0.86284611188E+01  0.51237781236E+02  0.52893906419E+02  0.51100000000E-03 0.  1.
         22    1    1    0    0    0  0.98340058225E+01  0.19830874459E+02 -0.19781584727E+02  0.29686400028E+02  0.00000000000E+00 0.  1.
</event>
<event>
 5    1  0.6690694E-004  0.9118800E+02  0.7818608E-02  0.1130116E+00
         25   -1    0    0    0    0  0.00000000000E+00  0.00000000000E+00  0.99999998245E-14  0.12500000000E+03  0.12500000000E+03 0.  0.
        -11    1    3    3    0    0 -0.33279037616E+02  0.14786710746E+02 -0.30680735894E+02  0.47617735295E+02  0.51100000000E-03 0. -1.
         23    2    1    0    0    0 -0.56985540152E+01 -0.68881187064E+01 -0.40081376168E+02  0.83933755800E+02  0.73201358935E+02 0.  0.
         11    1    3    3    0    0  0.27580483601E+02 -0.21674829453E+02 -0.94006402736E+01  0.36316020505E+02  0.51100000000E-03 0.  1.
         22    1    1    0    0    0  0.56985540152E+01  0.68881187064E+01  0.40081376168E+02  0.41066244200E+02  0.00000000000E+00 0. -1.
</event>
<event>
 5    1  0.6690694E-004  0.9118800E+02  0.7818608E-02  0.1130116E+00
         25   -1    0    0    0    0  0.00000000000E+00  0.00000000000E+00  0.99999998245E-14  0.12500000000E+03  0.12500000000E+03 0.  0.
        -11    1    3    3    0    0 -0.18937532981E+02 -0.51543815194E+01  0.51563691614E+02  0.55172566529E+02  0.51100000000E-03 0. -1.
         23    2    1    0    0    0 -0.72693306363E+01 -0.22937018326E+02  0.17826503822E+02  0.95054479198E+02  0.90214299307E+02 0.  0.
         11    1    3    3    0    0  0.11668202344E+02 -0.17782636807E+02 -0.33737187792E+02  0.39881912669E+02  0.51100000000E-03 0.  1.
         22    1    1    0    0    0  0.72693306363E+01  0.22937018326E+02 -0.17826503822E+02  0.29945520802E+02  0.00000000000E+00 0.  1.
</event>
<event>
 5    1  0.6690694E-004  0.9118800E+02  0.7818608E-02  0.1130116E+00
         25   -1    0    0    0    0  0.00000000000E+00  0.00000000000E+00  0.99999998245E-14  0.12500000000E+03  0.12500000000E+03 0.  0.
        -11    1    3    3    0    0  0.15385626185E+02 -0.34691979867E+02 -0.22684937726E+02  0.44213768896E+02  0.51100000000E-03 0.  1.
         23    2    1    0    0    0  0.77178074544E+00  0.14655443583E+02 -0.25306133480E+02  0.95746315380E+02  0.91167860812E+02 0.  0.
         11    1    3    3    0    0 -0.14613845439E+02  0.49347423450E+02 -0.26211957545E+01  0.51532546484E+02  0.51100000000E-03 0. -1.
         22    1    1    0    0    0 -0.77178074544E+00 -0.14655443583E+02  0.25306133480E+02  0.29253684620E+02  0.00000000000E+00 0. -1.
</event>
<event>
 5    1  0.6690694E-004  0.9118800E+02  0.7818608E-02  0.1130116E+00
         25   -1    0    0    0    0  0.00000000000E+00  0.00000000000E+00  0.99999998245E-14  0.12500000000E+03  0.12500000000E+03 0.  0.
        -11    1    3    3    0    0  0.64551416095E+01  0.73562704310E+01 -0.28077394958E+02  0.29734217255E+02  0.51100000000E-03 0.  1.
         23    2    1    0    0    0 -0.15824420280E+02  0.11816661688E+02  0.28283935542E+02  0.90503235218E+02  0.83670836045E+02 0.  0.
         11    1    3    3    0    0 -0.22279561890E+02  0.44603912571E+01  0.56361330501E+02  0.60769017963E+02  0.51100000000E-03 0. -1.
         22    1    1    0    0    0  0.15824420280E+02 -0.11816661688E+02 -0.28283935542E+02  0.34496764782E+02  0.00000000000E+00 0. -1.
</event>
<event>
 5    1  0.6690694E-004  0.9118800E+02  0.7818608E-02  0.1130116E+00
         25   -1    0    0    0    0  0.00000000000E+00  0.00000000000E+00  0.99999998245E-14  0.12500000000E+03  0.12500000000E+03 0.  0.
        -11    1    3    3    0    0  0.41272170476E+02  0.28764555962E+02 -0.36961911652E+02  0.62425753090E+02  0.51100000000E-03 0. -1.
         23    2    1    0    0    0  0.20275460518E+02  0.14840146317E+02 -0.15885657818E+02  0.95273271854E+02  0.90516948488E+02 0.  0.
         11    1    3    3    0    0 -0.20996709958E+02 -0.13924409645E+02  0.21076253834E+02  0.32847518765E+02  0.51100000000E-03 0.  1.
         22    1    1    0    0    0 -0.20275460518E+02 -0.14840146317E+02  0.15885657818E+02  0.29726728146E+02  0.00000000000E+00 0. -1.
</event>
<event>
 5    1  0.6690694E-004  0.9118800E+02  0.7818608E-02  0.1130116E+00
         25   -1    0    0    0    0  0.00000000000E+00  0.00000000000E+00  0.99999998245E-14  0.12500000000E+03  0.12500000000E+03 0.  0.
        -11    1    3    3    0    0 -0.95047955991E+01  0.38298976599E+02  0.22546678912E+02  0.45447832491E+02  0.51100000000E-03 0. -1.
         23    2    1    0    0    0  0.18417502671E+02  0.17098887553E+02 -0.14116571649E+02  0.96175462618E+02  0.91754376759E+02 0.  0.
         11    1    3    3    0    0  0.27922298271E+02 -0.21200089046E+02 -0.36663250561E+02  0.50727630126E+02  0.51100000000E-03 0.  1.
         22    1    1    0    0    0 -0.18417502671E+02 -0.17098887553E+02  0.14116571649E+02  0.28824537382E+02  0.00000000000E+00 0.  1.
</event>
<event>
 5    1  0.6690694E-004  0.9118800E+02  0.7818608E-02  0.1130116E+00
         25   -1    0    0    0    0  0.00000000000E+00  0.00000000000E+00  0.99999998245E-14  0.12500000000E+03  0.12500000000E+03 0.  0.
        -11    1    3    3    0    0 -0.22160535848E+02 -0.54268710828E+02 -0.16824685710E+02  0.60985673511E+02  0.51100000000E-03 0.  1.
         23    2    1    0    0    0 -0.10307578461E+02 -0.23260557522E+02 -0.17382705505E+02  0.94186721034E+02  0.89003821594E+02 0.  0.
         11    1    3    3    0    0  0.11852957387E+02  0.31008153306E+02 -0.55801979513E+00  0.33201047523E+02  0.51100000000E-03 0. -1.
         22    1    1    0    0    0  0.10307578461E+02  0.23260557522E+02  0.17382705505E+02  0.30813278966E+02  0.00000000000E+00 0.  1.
</event>
<event>
 5    1  0.6690694E-004  0.9118800E+02  0.7818608E-02  0.1130116E+00
         25   -1    0    0    0    0  0.00000000000E+00  0.00000000000E+00  0.99999998245E-14  0.12500000000E+03  0.12500000000E+03 0.  0.
        -11    1    3    3    0    0  0.28902801215E+02  0.23334191668E+02  0.10074182153E+02  0.38488252301E+02  0.51100000000E-03 0.  1.
         23    2    1    0    0    0 -0.22802414131E+02  0.15137724967E+02 -0.11761139479E+02  0.95210317068E+02  0.90429968854E+02 0.  0.
         11    1    3    3    0    0 -0.51705215346E+02 -0.81964667011E+01 -0.21835321632E+02  0.56722064766E+02  0.51100000000E-03 0. -1.
         22    1    1    0    0    0  0.22802414131E+02 -0.15137724967E+02  0.11761139479E+02  0.29789682932E+02  0.00000000000E+00 0. -1.
</event>
<event>
 5    1  0.6690694E-004  0.9118800E+02  0.7818608E-02  0.1130116E+00
         25   -1    0    0    0    0  0.00000000000E+00  0.00000000000E+00  0.99999998245E-14  0.12500000000E+03  0.12500000000E+03 0.  0.
        -11    1    3    3    0    0 -0.51202478224E+01 -0.29275751994E+02  0.31193699347E+02  0.43085188543E+02  0.51100000000E-03 0. -1.
         23    2    1    0    0    0  0.24629127878E+02 -0.19995571209E+02 -0.71345264796E+01  0.92483569137E+02  0.86578821222E+02 0.  0.
         11    1    3    3    0    0  0.29749375700E+02  0.92801807849E+01 -0.38328225827E+02  0.49398380593E+02  0.51100000000E-03 0.  1.
         22    1    1    0    0    0 -0.24629127878E+02  0.19995571209E+02  0.71345264796E+01  0.32516430863E+02  0.00000000000E+00 0. -1.
</event>
<event>
 5    1  0.6690694E-004  0.9118800E+02  0.7818608E-02  0.1130116E+00
         25   -1    0    0    0    0  0.00000000000E+00  0.00000000000E+00  0.99999998245E-14  0.12500000000E+03  0.12500000000E+03 0.  0.
        -11    1    3    3    0    0  0.23510430465E+02 -0.23009713788E+01 -0.21330713317E+02  0.31828197260E+02  0.51100000000E-03 0.  1.
         23    2    1    0    0    0 -0.24910488693E+02 -0.51531824610E+01  0.17635985338E+02  0.94046555680E+02  0.88806750419E+02 0.  0.
         11    1    3    3    0    0 -0.48420919158E+02 -0.28522110822E+01  0.38966698655E+02  0.62218358420E+02  0.51100000000E-03 0. -1.
         22    1    1    0    0    0  0.24910488693E+02  0.51531824610E+01 -0.17635985338E+02  0.30953444320E+02  0.00000000000E+00 0. -1.
</event>
<event>
 5    1  0.6690694E-004  0.9118800E+02  0.7818608E-02  0.1130116E+00
         25   -1    0    0    0    0  0.00000000000E+00  0.00000000000E+00  0.99999998245E-14  0.12500000000E+03  0.12500000000E+03 0.  0.
        -11    1    3    3    0    0 -0.36495021703E+02 -0.11947071237E+02  0.42658780777E+02  0.57396782993E+02  0.51100000000E-03 0.  1.
         23    2    1    0    0    0 -0.88709052433E+01  0.95745723813E+01  0.25412503385E+02  0.96431473184E+02  0.92102488002E+02 0.  0.
         11    1    3    3    0    0  0.27624116459E+02  0.21521643619E+02 -0.17246277392E+02  0.39034690192E+02  0.51100000000E-03 0. -1.
         22    1    1    0    0    0  0.88709052433E+01 -0.95745723813E+01 -0.25412503385E+02  0.28568526816E+02  0.00000000000E+00 0.  1.
</event>
<event>
 5    1  0.6690694E-004  0.9118800E+02  0.7818608E-02  0.1130116E+00
         25   -1    0    0    0    0  0.00000000000E+00  0.00000000000E+00  0.99999998245E-14  0.12500000000E+03  0.12500000000E+03 0.  0.
        -11    1    3    3    0    0  0.52074837385E+02 -0.26950347639E+02 -0.13830386831E+02  0.60244414900E+02  0.51100000000E-03 0. -1.
         23    2    1    0    0    0  0.18988757539E+02 -0.15092781455E+02 -0.16765738491E+02  0.95513478468E+02  0.90848057860E+02 0.  0.
         11    1    3    3    0    0 -0.33086079845E+02  0.11857566184E+02 -0.29353516597E+01  0.35269063568E+02  0.51100000000E-03 0.  1.
         22    1    1    0    0    0 -0.18988757539E+02  0.15092781455E+02  0.16765738491E+02  0.29486521532E+02  0.00000000000E+00 0. -1.
</event>
<event>
 5    1  0.6690694E-004  0.9118800E+02  0.7818608E-02  0.1130116E+00
         25   -1    0    0    0    0  0.00000000000E+00  0.00000000000E+00  0.99999998245E-14  0.12500000000E+03  0.12500000000E+03 0.  0.
        -11    1    3    3    0    0 -0.32994784519E+02 -0.33192344307E+02 -0.12753683446E+02  0.48508184544E+02  0.51100000000E-03 0. -1.
         23    2    1    0    0    0  0.89193622344E+01 -0.26610223333E+02  0.81073771468E+01  0.95787184786E+02  0.91223879530E+02 0.  0.
         11    1    3    3    0    0  0.41914146753E+02  0.65821209742E+01  0.20861060593E+02  0.47279000242E+02  0.51100000000E-03 0.  1.
         22    1    1    0    0    0 -0.89193622344E+01  0.26610223333E+02 -0.81073771468E+01  0.29212815214E+02  0.00000000000E+00 0. -1.
</event>
<event>
 5    1  0.6690694E-004  0.9118800E+02  0.7818608E-02  0.1130116E+00
         25   -1    0    0    0    0  0.00000000000E+00  0.00000000000E+00  0.99999998245E-14  0.12500000000E+03  0.12500000000E+03 0.  0.
        -11    1    3    3    0    0 -0.23346075806E+02  0.30739862806E+02  0.15896955267E+02  0.41745557941E+02  0.51100000000E-03 0.  1.
         23    2    1    0    0    0 -0.22957465830E+02 -0.18107476403E+02 -0.57916275666E+01  0.95192804747E+02  0.90405758592E+02 0.  0.
         11    1    3    3    0    0  0.38860997595E+00 -0.48847339209E+02 -0.21688582833E+02  0.53447246805E+02  0.51100000000E-03 0. -1.
         22    1    1    0    0    0  0.22957465830E+02  0.18107476403E+02  0.57916275666E+01  0.29807195253E+02  0.00000000000E+00 0. -1.
</event>
<event>
 5    1  0.6690694E-004  0.9118800E+02  0.7818608E-02  0.1130116E+00
         25   -1    0    0    0    0  0.00000000000E+00  0.00000000000E+00  0.99999998245E-14  0.12500000000E+03  0.12500000000E+03 0.  0.
        -11    1    3    3    0    0  0.33040261579E+02  0.33664778441E+02 -0.15878890690E+02  0.49770627508E+02  0.51100000000E-03 0.  1.
         23    2    1    0    0    0  0.23145537546E+02 -0.11062396119E+02 -0.14352542557E+02  0.95604626315E+02  0.90973383903E+02 0.  0.
         11    1    3    3    0    0 -0.98947240330E+01 -0.44727174560E+02  0.15263481327E+01  0.45833998808E+02  0.51100000000E-03 0. -1.
         22    1    1    0    0    0 -0.23145537546E+02  0.11062396119E+02  0.14352542557E+02  0.29395373685E+02  0.00000000000E+00 0. -1.
</event>
<event>
 5    1  0.6690694E-004  0.9118800E+02  0.7818608E-02  0.1130116E+00
         25   -1    0    0    0    0  0.00000000000E+00  0.00000000000E+00  0.99999998245E-14  0.12500000000E+03  0.12500000000E+03 0.  0.
        -11    1    3    3    0    0  0.46411262147E+01  0.22665060535E+02 -0.27425668506E+02  0.35880528353E+02  0.51100000000E-03 0. -1.
         23    2    1    0    0    0 -0.20770124263E+02 -0.19748578225E+02  0.62029352574E+01  0.95676275652E+02  0.91071778905E+02 0.  0.
         11    1    3    3    0    0 -0.25411250478E+02 -0.42413638760E+02  0.33628603764E+02  0.59795747299E+02  0.51100000000E-03 0.  1.
         22    1    1    0    0    0  0.20770124263E+02  0.19748578225E+02 -0.62029352574E+01  0.29323724348E+02  0.00000000000E+00 0.  1.
</event>
<event>
 5    1  0.6690694E-004  0.9118800E+02  0.7818608E-02  0.1130116E+00
         25   -1    0    0    0    0  0.00000000000E+00  0.00000000000E+00  0.99999998245E-14  0.12500000000E+03  0.12500000000E+03 0.  0.
        -11    1    3    3    0    0  0.21428253788E+02 -0.13170105747E+02  0.50778719627E+02  0.56666569624E+02  0.51100000000E-03 0. -1.
         23    2    1    0    0    0  0.29016608924E+02  0.25990080902E+00  0.25048302922E+02  0.86666612188E+02  0.77728071164E+02 0.  0.
         11    1    3    3    0    0  0.75883551364E+01  0.13430006556E+02 -0.25730416704E+02  0.30000042563E+02  0.51100000000E-03 0.  1.
         22    1    1    0    0    0 -0.29016608924E+02 -0.25990080902E+00 -0.25048302922E+02  0.38333387812E+02  0.00000000000E+00 0. -1.
</event>
<event>
 5    1  0.6690694E-004  0.9118800E+02  0.7818608E-02  0.1130116E+00
         25   -1    0    0    0    0  0.00000000000E+00  0.00000000000E+00  0.99999998245E-14  0.12500000000E+03  0.12500000000E+03 0.  0.
        -11    1    3    3    0    0  0.36357814779E+02 -0.18331429329E+02 -0.20103996172E+02  0.45410380521E+02  0.51100000000E-03 0.  1.
         23    2    1    0    0    0  0.76260370031E+01  0.22744587104E+02 -0.16930692640E+02  0.95638102306E+02  0.91019369239E+02 0.  0.
         11    1    3    3    0    0 -0.28731777776E+02  0.41076016433E+02  0.31733035323E+01  0.50227721785E+02  0.51100000000E-03 0. -1.
         22    1    1    0    0    0 -0.76260370031E+01 -0.22744587104E+02  0.16930692640E+02  0.29361897694E+02  0.00000000000E+00 0. -1.
</event>
<event>
 5    1  0.6690694E-004  0.9118800E+02  0.7818608E-02  0.1130116E+00
         25   -1    0    0    0    0  0.00000000000E+00  0.00000000000E+00  0.99999998245E-14  0.12500000000E+03  0.12500000000E+03 0.  0.
        -11    1    3    3    0    0 -0.20624138551E+02  0.23087468761E+02 -0.46016742280E+02  0.55461039253E+02  0.51100000000E-03 0. -1.
         23    2    1    0    0    0 -0.23226043482E+02  0.18029201299E+02 -0.71514515697E+01  0.94740382441E+02  0.89778035232E+02 0.  0.
         11    1    3    3    0    0 -0.26019049306E+01 -0.50582674622E+01  0.38865290710E+02  0.39279343187E+02  0.51100000000E-03 0.  1.
         22    1    1    0    0    0  0.23226043482E+02 -0.18029201299E+02  0.71514515697E+01  0.30259617559E+02  0.00000000000E+00 0. -1.
</event>
<event>
 5    1  0.6690694E-004  0.9118800E+02  0.7818608E-02  0.1130116E+00
         25   -1    0    0    0    0  0.00000000000E+00  0.00000000000E+00  0.99999998245E-14  0.12500000000E+03  0.12500000000E+03 0.  0.
        -11    1    3    3    0    0  0.27920561925E+02 -0.46871752343E+01 -0.10632079608E+02  0.30241833724E+02  0.51100000000E-03 0.  1.
         23    2    1    0    0    0 -0.20482651949E+02 -0.86266063051E+01  0.25796647721E+02  0.90949678403E+02  0.84335162303E+02 0.  0.
         11    1    3    3    0    0 -0.48403213874E+02 -0.39394310707E+01  0.36428727330E+02  0.60707844679E+02  0.51100000000E-03 0. -1.
         22    1    1    0    0    0  0.20482651949E+02  0.86266063051E+01 -0.25796647721E+02  0.34050321597E+02  0.00000000000E+00 0. -1.
</event>
<event>
 5    1  0.6690694E-004  0.9118800E+02  0.7818608E-02  0.1130116E+00
         25   -1    0    0    0    0  0.00000000000E+00  0.00000000000E+00  0.99999998245E-14  0.12500000000E+03  0.12500000000E+03 0.  0.
        -11    1    3    3    0    0  0.39167006548E+02 -0.10777008736E+01 -0.65940863614E+01  0.39732830460E+02  0.51100000000E-03 0. -1.
         23    2    1    0    0    0 -0.15234135105E+02 -0.85919452199E+01 -0.22117937010E+02  0.96802419738E+02  0.92604562169E+02 0.  0.
         11    1    3    3    0    0 -0.54401141653E+02 -0.75142443463E+01 -0.15523850648E+02  0.57069589279E+02  0.51100000000E-03 0.  1.
         22    1    1    0    0    0  0.15234135105E+02  0.85919452199E+01  0.22117937010E+02  0.28197580262E+02  0.00000000000E+00 0.  1.
</event>
<event>
 5    1  0.6690694E-004  0.9118800E+02  0.7818608E-02  0.1130116E+00
         25   -1    0    0    0    0  0.00000000000E+00  0.00000000000E+00  0.99999998245E-14  0.12500000000E+03  0.12500000000E+03 0.  0.
        -11    1    3    3    0    0  0.21895198283E+02 -0.53492436631E+01  0.24994385944E+02  0.33656105607E+02  0.51100000000E-03 0.  1.
         23    2    1    0    0    0 -0.14290750030E+02  0.11039778048E+01 -0.25282962433E+02  0.95936750134E+02  0.91428592538E+02 0.  0.
         11    1    3    3    0    0 -0.36185948313E+02  0.64532214679E+01 -0.50277348377E+02  0.62280644527E+02  0.51100000000E-03 0. -1.
         22    1    1    0    0    0  0.14290750030E+02 -0.11039778048E+01  0.25282962433E+02  0.29063249866E+02  0.00000000000E+00 0. -1.
</event>
<event>
 5    1  0.6690694E-004  0.9118800E+02  0.7818608E-02  0.1130116E+00
         25   -1    0    0    0    0  0.00000000000E+00  0.00000000000E+00  0.99999998245E-14  0.12500000000E+03  0.12500000000E+03 0.  0.
        -11    1    3    3    0    0 -0.18532745846E+02  0.19860361753E+02 -0.33149278968E+02  0.42857570322E+02  0.51100000000E-03 0.  1.
         23    2    1    0    0    0  0.13474567489E+02  0.24978447981E+02  0.82569825414E+01  0.95442182197E+02  0.90749906608E+02 0.  0.
         11    1    3    3    0    0  0.32007313335E+02  0.51180862276E+01  0.41406261510E+02  0.52584611875E+02  0.51100000000E-03 0. -1.
         22    1    1    0    0    0 -0.13474567489E+02 -0.24978447981E+02 -0.82569825414E+01  0.29557817803E+02  0.00000000000E+00 0.  1.
</event>
<event>
 5    1  0.6690694E-004  0.9118800E+02  0.7818608E-02  0.1130116E+00
         25   -1    0    0    0    0  0.00000000000E+00  0.00000000000E+00  0.99999998245E-14  0.12500000000E+03  0.12500000000E+03 0.  0.
        -11    1    3    3    0    0 -0.11809582578E+02  0.28321360796E+02 -0.25720449868E+02  0.40038821907E+02  0.51100000000E-03 0.  1.
         23    2    1    0    0    0  0.26371297259E+02 -0.72759525824E+01 -0.14533195658E+01  0.97604800733E+02  0.93681375862E+02 0.  0.
         11    1    3    3    0    0  0.38180879837E+02 -0.35597313379E+02  0.24267130302E+02  0.57565978826E+02  0.51100000000E-03 0. -1.
         22    1    1    0    0    0 -0.26371297259E+02  0.72759525824E+01  0.14533195658E+01  0.27395199267E+02  0.00000000000E+00 0. -1.
</event>
<event>
 5    1  0.6690694E-004  0.9118800E+02  0.7818608E-02  0.1130116E+00
         25   -1    0    0    0    0  0.00000000000E+00  0.00000000000E+00  0.99999998245E-14  0.12500000000E+03  0.12500000000E+03 0.  0.
        -11    1    3    3    0    0 -0.28968192156E+02 -0.32657293359E+02  0.24314997970E+02  0.49968731151E+02  0.51100000000E-03 0.  1.
         23    2    1    0    0    0 -0.18734049193E+02  0.11076119449E+02  0.20593804039E+02  0.95037527037E+02  0.90190807510E+02 0.  0.
         11    1    3    3    0    0  0.10234142963E+02  0.43733412809E+02 -0.37211939308E+01  0.45068795886E+02  0.51100000000E-03 0. -1.
         22    1    1    0    0    0  0.18734049193E+02 -0.11076119449E+02 -0.20593804039E+02  0.29962472963E+02  0.00000000000E+00 0. -1.
</event>
<event>
 5    1  0.6690694E-004  0.9118800E+02  0.7818608E-02  0.1130116E+00
         25   -1    0    0    0    0  0.00000000000E+00  0.00000000000E+00  0.99999998245E-14  0.12500000000E+03  0.12500000000E+03 0.  0.
        -11    1    3    3    0    0  0.24896584182E+02  0.48210281870E+02 -0.14331965655E+02  0.56120196202E+02  0.51100000000E-03 0. -1.
         23    2    1    0    0    0  0.23649491551E+02  0.96172335507E+01 -0.16174671594E+02  0.94777332465E+02  0.89829466859E+02 0.  0.
         11    1    3    3    0    0 -0.12470926308E+01 -0.38593048319E+02 -0.18427059387E+01  0.38657136263E+02  0.51100000000E-03 0.  1.
         22    1    1    0    0    0 -0.23649491551E+02 -0.96172335507E+01  0.16174671594E+02  0.30222667535E+02  0.00000000000E+00 0. -1.
</event>
<event>
 5    1  0.6690694E-004  0.9118800E+02  0.7818608E-02  0.1130116E+00
         25   -1    0    0    0    0  0.00000000000E+00  0.00000000000E+00  0.99999998245E-14  0.12500000000E+03  0.12500000000E+03 0.  0.
        -11    1    3    3    0    0  0.22927996197E+02 -0.13041889119E+02 -0.52352418861E+02  0.58622177051E+02  0.51100000000E-03 0. -1.
         23    2    1    0    0    0  0.12072025258E+02  0.93292952334E+01 -0.25998689762E+02  0.94855325301E+02  0.89937930403E+02 0.  0.
         11    1    3    3    0    0 -0.10855970939E+02  0.22371184353E+02  0.26353729099E+02  0.36233148249E+02  0.51100000000E-03 0.  1.
         22    1    1    0    0    0 -0.12072025258E+02 -0.93292952334E+01  0.25998689762E+02  0.30144674699E+02  0.00000000000E+00 0. -1.
</event>
<event>
 5    1  0.6690694E-004  0.9118800E+02  0.7818608E-02  0.1130116E+00
         25   -1    0    0    0    0  0.00000000000E+00  0.00000000000E+00  0.99999998245E-14  0.12500000000E+03  0.12500000000E+03 0.  0.
        -11    1    3    3    0    0  0.28741185963E+01 -0.16309605750E+02 -0.43402547520E+02  0.46454762177E+02  0.51100000000E-03 0. -1.
         23    2    1    0    0    0 -0.28105316603E+02 -0.11985226410E+02 -0.85783438643E+01  0.93264492175E+02  0.87699048135E+02 0.  0.
         11    1    3    3    0    0 -0.30979435199E+02  0.43243793403E+01  0.34824203656E+02  0.46809729998E+02  0.51100000000E-03 0.  1.
         22    1    1    0    0    0  0.28105316603E+02  0.11985226410E+02  0.85783438643E+01  0.31735507825E+02  0.00000000000E+00 0.  1.
</event>
<event>
 5    1  0.6690694E-004  0.9118800E+02  0.7818608E-02  0.1130116E+00
         25   -1    0    0    0    0  0.00000000000E+00  0.00000000000E+00  0.99999998245E-14  0.12500000000E+03  0.12500000000E+03 0.  0.
        -11    1    3    3    0    0 -0.13517462369E+02  0.43704738105E+02 -0.17891909807E+01  0.45782388823E+02  0.51100000000E-03 0. -1.
         23    2    1    0    0    0  0.32801217448E+00  0.66477644632E+01  0.28580595125E+02  0.95654629291E+02  0.91042063480E+02 0.  0.
         11    1    3    3    0    0  0.13845474543E+02 -0.37056973642E+02  0.30369786106E+02  0.49872240467E+02  0.51100000000E-03 0.  1.
         22    1    1    0    0    0 -0.32801217448E+00 -0.66477644632E+01 -0.28580595125E+02  0.29345370709E+02  0.00000000000E+00 0.  1.
</event>
<event>
 5    1  0.6690694E-004  0.9118800E+02  0.7818608E-02  0.1130116E+00
         25   -1    0    0    0    0  0.00000000000E+00  0.00000000000E+00  0.99999998245E-14  0.12500000000E+03  0.12500000000E+03 0.  0.
        -11    1    3    3    0    0 -0.23202795689E+02  0.37455458462E+02 -0.43309575910E+02  0.61781878105E+02  0.51100000000E-03 0.  1.
         23    2    1    0    0    0 -0.77076815594E+01  0.22671521829E+02 -0.17383638552E+02  0.95409509190E+02  0.90704891255E+02 0.  0.
         11    1    3    3    0    0  0.15495114129E+02 -0.14783936633E+02  0.25925937358E+02  0.33627631085E+02  0.51100000000E-03 0. -1.
         22    1    1    0    0    0  0.77076815594E+01 -0.22671521829E+02  0.17383638552E+02  0.29590490810E+02  0.00000000000E+00 0.  1.
</event>
<event>
 5    1  0.6690694E-004  0.9118800E+02  0.7818608E-02  0.1130116E+00
         25   -1    0    0    0    0  0.00000000000E+00  0.00000000000E+00  0.99999998245E-14  0.12500000000E+03  0.12500000000E+03 0.  0.
        -11    1    3    3    0    0  0.10148330613E+02 -0.44689094011E+02 -0.17126780332E+02  0.48922697621E+02  0.51100000000E-03 0. -1.
         23    2    1    0    0    0 -0.24378074673E+02 -0.15683692053E+02 -0.79822270511E+01  0.94933662180E+02  0.90046740891E+02 0.  0.
         11    1    3    3    0    0 -0.34526405286E+02  0.29005401958E+02  0.91445532813E+01  0.46010964559E+02  0.51100000000E-03 0.  1.
         22    1    1    0    0    0  0.24378074673E+02  0.15683692053E+02  0.79822270511E+01  0.30066337820E+02  0.00000000000E+00 0.  1.
</event>
<event>
 5    1  0.6690694E-004  0.9118800E+02  0.7818608E-02  0.1130116E+00
         25   -1    0    0    0    0  0.00000000000E+00  0.00000000000E+00  0.99999998245E-14  0.12500000000E+03  0.12500000000E+03 0.  0.
        -11    1    3    3    0    0  0.35508167375E+02  0.17069942079E+02 -0.13132200161E+02  0.41529116945E+02  0.51100000000E-03 0.  1.
         23    2    1    0    0    0 -0.18247840144E+02  0.17114073720E+02 -0.15901744606E+02  0.95356439642E+02  0.90631726843E+02 0.  0.
         11    1    3    3    0    0 -0.53756007519E+02  0.44131640674E-01 -0.27695444452E+01  0.53827322697E+02  0.51100000000E-03 0. -1.
         22    1    1    0    0    0  0.18247840144E+02 -0.17114073720E+02  0.15901744606E+02  0.29643560358E+02  0.00000000000E+00 0. -1.
</event>
<event>
 5    1  0.6690694E-004  0.9118800E+02  0.7818608E-02  0.1130116E+00
         25   -1    0    0    0    0  0.00000000000E+00  0.00000000000E+00  0.99999998245E-14  0.12500000000E+03  0.12500000000E+03 0.  0.
        -11    1    3    3    0    0  0.45606303515E+02  0.70444545744E+01  0.39669588446E+02  0.60854215206E+02  0.51100000000E-03 0.  1.
         23    2    1    0    0    0  0.15222707888E+02 -0.24922278317E+01  0.24307826746E+02  0.96210896573E+02  0.91802636907E+02 0.  0.
         11    1    3    3    0    0 -0.30383595627E+02 -0.95366824061E+01 -0.15361761699E+02  0.35356681367E+02  0.51100000000E-03 0. -1.
         22    1    1    0    0    0 -0.15222707888E+02  0.24922278317E+01 -0.24307826746E+02  0.28789103427E+02  0.00000000000E+00 0.  1.
</event>
<event>
 5    1  0.6690694E-004  0.9118800E+02  0.7818608E-02  0.1130116E+00
         25   -1    0    0    0    0  0.00000000000E+00  0.00000000000E+00  0.99999998245E-14  0.12500000000E+03  0.12500000000E+03 0.  0.
        -11    1    3    3    0    0  0.10030524401E+02  0.29760451249E+01  0.49265890713E+02  0.50364632952E+02  0.51100000000E-03 0.  1.
         23    2    1    0    0    0  0.28430451446E+02 -0.44259331959E+01  0.96773642791E+01  0.94643273670E+02  0.89642726517E+02 0.  0.
         11    1    3    3    0    0  0.18399927046E+02 -0.74019783208E+01 -0.39588526434E+02  0.44278640718E+02  0.51100000000E-03 0. -1.
         22    1    1    0    0    0 -0.28430451446E+02  0.44259331959E+01 -0.96773642791E+01  0.30356726330E+02  0.00000000000E+00 0.  1.
</event>
<event>
 5    1  0.6690694E-004  0.9118800E+02  0.7818608E-02  0.1130116E+00
         25   -1    0    0    0    0  0.00000000000E+00  0.00000000000E+00  0.99999998245E-14  0.12500000000E+03  0.12500000000E+03 0.  0.
        -11    1    3    3    0    0 -0.30222605528E+01  0.40983519795E+02 -0.19468894161E+02  0.45473297590E+02  0.51100000000E-03 0. -1.
         23    2    1    0    0    0 -0.13198548546E+02 -0.35926443614E+01  0.16441508764E+02  0.10361234030E+03  0.10138089107E+03 0.  0.
         11    1    3    3    0    0 -0.10176287993E+02 -0.44576164156E+02  0.35910402924E+02  0.58139042705E+02  0.51100000000E-03 0.  1.
         22    1    1    0    0    0  0.13198548546E+02  0.35926443614E+01 -0.16441508764E+02  0.21387659705E+02  0.00000000000E+00 0.  1.
</event>
<event>
 5    1  0.6690694E-004  0.9118800E+02  0.7818608E-02  0.1130116E+00
         25   -1    0    0    0    0  0.00000000000E+00  0.00000000000E+00  0.99999998245E-14  0.12500000000E+03  0.12500000000E+03 0.  0.
        -11    1    3    3    0    0  0.18743548306E+02  0.22518802310E+02 -0.48801613915E+02  0.56921125969E+02  0.51100000000E-03 0.  1.
         23    2    1    0    0    0  0.23977554684E+02  0.12071693318E+02 -0.11886891636E+02  0.95641064376E+02  0.91023437059E+02 0.  0.
         11    1    3    3    0    0  0.52340063776E+01 -0.10447108992E+02  0.36914722279E+02  0.38719938407E+02  0.51100000000E-03 0. -1.
         22    1    1    0    0    0 -0.23977554684E+02 -0.12071693318E+02  0.11886891636E+02  0.29358935624E+02  0.00000000000E+00 0.  1.
</event>
<event>
 5    1  0.6690694E-004  0.9118800E+02  0.7818608E-02  0.1130116E+00
         25   -1    0    0    0    0  0.00000000000E+00  0.00000000000E+00  0.99999998245E-14  0.12500000000E+03  0.12500000000E+03 0.  0.
        -11    1    3    3    0    0  0.19749338238E+02 -0.22500759670E+02  0.16140711765E+02  0.34012396609E+02  0.51100000000E-03 0.  1.
         23    2    1    0    0    0 -0.59936243352E+01  0.13652739516E+02 -0.25880497829E+02  0.95131605386E+02  0.90321101335E+02 0.  0.
         11    1    3    3    0    0 -0.25742962574E+02  0.36153499186E+02 -0.42021209594E+02  0.61119208776E+02  0.51100000000E-03 0. -1.
         22    1    1    0    0    0  0.59936243352E+01 -0.13652739516E+02  0.25880497829E+02  0.29868394614E+02  0.00000000000E+00 0. -1.
</event>
<event>
 5    1  0.6690694E-004  0.9118800E+02  0.7818608E-02  0.1130116E+00
         25   -1    0    0    0    0  0.00000000000E+00  0.00000000000E+00  0.99999998245E-14  0.12500000000E+03  0.12500000000E+03 0.  0.
        -11    1    3    3    0    0 -0.32087753007E+02  0.54513035452E+01 -0.89193562818E+01  0.33747526133E+02  0.51100000000E-03 0. -1.
         23    2    1    0    0    0  0.26104729455E+02 -0.13698416101E+02 -0.46089065411E+01  0.95161341801E+02  0.90362245713E+02 0.  0.
         11    1    3    3    0    0  0.58192482462E+02 -0.19149719646E+02  0.43104497408E+01  0.61413815668E+02  0.51100000000E-03 0.  1.
         22    1    1    0    0    0 -0.26104729455E+02  0.13698416101E+02  0.46089065411E+01  0.29838658199E+02  0.00000000000E+00 0.  1.
</event>
<event>
 5    1  0.6690694E-004  0.9118800E+02  0.7818608E-02  0.1130116E+00
         25   -1    0    0    0    0  0.00000000000E+00  0.00000000000E+00  0.99999998245E-14  0.12500000000E+03  0.12500000000E+03 0.  0.
        -11    1    3    3    0    0  0.33973737611E+02 -0.37226351502E+02 -0.64894799335E+01  0.50814657762E+02  0.51100000000E-03 0.  1.
         23    2    1    0    0    0 -0.38047863585E+01 -0.25462990635E+02  0.14340101725E+02  0.95530035480E+02  0.90870836191E+02 0.  0.
         11    1    3    3    0    0 -0.37778523969E+02  0.11763360866E+02  0.20829581659E+02  0.44715377718E+02  0.51100000000E-03 0. -1.
         22    1    1    0    0    0  0.38047863585E+01  0.25462990635E+02 -0.14340101725E+02  0.29469964520E+02  0.00000000000E+00 0. -1.
</event>
<event>
 5    1  0.6690694E-004  0.9118800E+02  0.7818608E-02  0.1130116E+00
         25   -1    0    0    0    0  0.00000000000E+00  0.00000000000E+00  0.99999998245E-14  0.12500000000E+03  0.12500000000E+03 0.  0.
        -11    1    3    3    0    0  0.31888624154E+02  0.26603809342E+02  0.79835816068E+01  0.42289296488E+02  0.51100000000E-03 0.  1.
         23    2    1    0    0    0  0.11302627611E+02 -0.22908774687E+02 -0.79809906817E+01  0.98237011362E+02  0.94521176677E+02 0.  0.
         11    1    3    3    0    0 -0.20585996543E+02 -0.49512584030E+02 -0.15964572289E+02  0.55947714873E+02  0.51100000000E-03 0. -1.
         22    1    1    0    0    0 -0.11302627611E+02  0.22908774687E+02  0.79809906817E+01  0.26762988638E+02  0.00000000000E+00 0. -1.
</event>
<event>
 5    1  0.6690694E-004  0.9118800E+02  0.7818608E-02  0.1130116E+00
         25   -1    0    0    0    0  0.00000000000E+00  0.00000000000E+00  0.99999998245E-14  0.12500000000E+03  0.12500000000E+03 0.  0.
        -11    1    3    3    0    0 -0.23912143186E+02 -0.47689114367E+02 -0.10589865216E+02  0.54389221969E+02  0.51100000000E-03 0.  1.
         23    2    1    0    0    0  0.49173301165E+01 -0.24918336087E+02 -0.20410101790E+02  0.92416632097E+02  0.86482125461E+02 0.  0.
         11    1    3    3    0    0  0.28829473303E+02  0.22770778280E+02 -0.98202365738E+01  0.38027410128E+02  0.51100000000E-03 0. -1.
         22    1    1    0    0    0 -0.49173301165E+01  0.24918336087E+02  0.20410101790E+02  0.32583367903E+02  0.00000000000E+00 0.  1.
</event>
<event>
 5    1  0.6690694E-004  0.9118800E+02  0.7818608E-02  0.1130116E+00
         25   -1    0    0    0    0  0.00000000000E+00  0.00000000000E+00  0.99999998245E-14  0.12500000000E+03  0.12500000000E+03 0.  0.
        -11    1    3    3    0    0  0.27121412785E+02 -0.26731965505E+02  0.14433605577E+02  0.40724660605E+02  0.51100000000E-03 0.  1.
         23    2    1    0    0    0  0.21045297953E+01  0.22864080293E+02  0.17153140548E+02  0.96339479350E+02  0.91977550725E+02 0.  0.
         11    1    3    3    0    0 -0.25016882990E+02  0.49596045798E+02  0.27195349711E+01  0.55614818745E+02  0.51100000000E-03 0. -1.
         22    1    1    0    0    0 -0.21045297953E+01 -0.22864080293E+02 -0.17153140548E+02  0.28660520650E+02  0.00000000000E+00 0. -1.
</event>
<event>
 5    1  0.6690694E-004  0.9118800E+02  0.7818608E-02  0.1130116E+00
         25   -1    0    0    0    0  0.00000000000E+00  0.00000000000E+00  0.99999998245E-14  0.12500000000E+03  0.12500000000E+03 0.  0.
        -11    1    3    3    0    0  0.35972082344E+02 -0.69774511519E+01  0.97541249861E+01  0.37918577073E+02  0.51100000000E-03 0.  1.
         23    2    1    0    0    0 -0.44524785948E+01  0.21427672554E+02 -0.19797765821E+02  0.95488625105E+02  0.90813855089E+02 0.  0.
         11    1    3    3    0    0 -0.40424560939E+02  0.28405123706E+02 -0.29551890807E+02  0.57570048032E+02  0.51100000000E-03 0. -1.
         22    1    1    0    0    0  0.44524785948E+01 -0.21427672554E+02  0.19797765821E+02  0.29511374895E+02  0.00000000000E+00 0. -1.
</event>
<event>
 5    1  0.6690694E-004  0.9118800E+02  0.7818608E-02  0.1130116E+00
         25   -1    0    0    0    0  0.00000000000E+00  0.00000000000E+00  0.99999998245E-14  0.12500000000E+03  0.12500000000E+03 0.  0.
        -11    1    3    3    0    0 -0.50651666811E+02  0.17823500984E+02  0.27046606342E+02  0.60123102489E+02  0.51100000000E-03 0.  1.
         23    2    1    0    0    0 -0.19367086962E+02  0.19606089261E+02  0.11012872751E+02  0.95322295241E+02  0.90584622372E+02 0.  0.
         11    1    3    3    0    0  0.31284579849E+02  0.17825882767E+01 -0.16033733591E+02  0.35199192752E+02  0.51100000000E-03 0. -1.
         22    1    1    0    0    0  0.19367086962E+02 -0.19606089261E+02 -0.11012872751E+02  0.29677704759E+02  0.00000000000E+00 0.  1.
</event>
<event>
 5    1  0.6690694E-004  0.9118800E+02  0.7818608E-02  0.1130116E+00
         25   -1    0    0    0    0  0.00000000000E+00  0.00000000000E+00  0.99999998245E-14  0.12500000000E+03  0.12500000000E+03 0.  0.
        -11    1    3    3    0    0  0.46371910889E+02 -0.14788782857E+02  0.24960162470E+02  0.54699834814E+02  0.51100000000E-03 0. -1.
         23    2    1    0    0    0  0.11944968656E+02 -0.26079989309E+02  0.56219567238E+01  0.95768946034E+02  0.91198884360E+02 0.  0.
         11    1    3    3    0    0 -0.34426942233E+02 -0.11291206452E+02 -0.19338205746E+02  0.41069111220E+02  0.51100000000E-03 0.  1.
         22    1    1    0    0    0 -0.11944968656E+02  0.26079989309E+02 -0.56219567238E+01  0.29231053966E+02  0.00000000000E+00 0. -1.
</event>
<event>
 5    1  0.6690694E-004  0.9118800E+02  0.7818608E-02  0.1130116E+00
         25   -1    0    0    0    0  0.00000000000E+00  0.00000000000E+00  0.99999998245E-14  0.12500000000E+03  0.12500000000E+03 0.  0.
        -11    1    3    3    0    0  0.25015310580E+02 -0.47981332562E+01 -0.37435709363E+02  0.45279357128E+02  0.51100000000E-03 0.  1.
         23    2    1    0    0    0  0.55632479393E+01  0.30002233668E+02 -0.15881607692E+02  0.90600738154E+02  0.83816373928E+02 0.  0.
         11    1    3    3    0    0 -0.19452062640E+02  0.34800366924E+02  0.21554101671E+02  0.45321381026E+02  0.51100000000E-03 0. -1.
         22    1    1    0    0    0 -0.55632479393E+01 -0.30002233668E+02  0.15881607692E+02  0.34399261846E+02  0.00000000000E+00 0. -1.
</event>
<event>
 5    1  0.6690694E-004  0.9118800E+02  0.7818608E-02  0.1130116E+00
         25   -1    0    0    0    0  0.00000000000E+00  0.00000000000E+00  0.99999998245E-14  0.12500000000E+03  0.12500000000E+03 0.  0.
        -11    1    3    3    0    0 -0.13972541390E+02  0.50345254787E+02 -0.28547824993E+02  0.59538684102E+02  0.51100000000E-03 0.  1.
         23    2    1    0    0    0 -0.28993407591E+01  0.15751124854E+02 -0.24002040173E+02  0.96145155632E+02  0.91713079264E+02 0.  0.
         11    1    3    3    0    0  0.11073200631E+02 -0.34594129933E+02  0.45457848199E+01  0.36606471531E+02  0.51100000000E-03 0. -1.
         22    1    1    0    0    0  0.28993407591E+01 -0.15751124854E+02  0.24002040173E+02  0.28854844368E+02  0.00000000000E+00 0.  1.
</event>
<event>
 5    1  0.6690694E-004  0.9118800E+02  0.7818608E-02  0.1130116E+00
         25   -1    0    0    0    0  0.00000000000E+00  0.00000000000E+00  0.99999998245E-14  0.12500000000E+03  0.12500000000E+03 0.  0.
        -11    1    3    3    0    0  0.29412030818E+02 -0.95911766054E+00 -0.16598284758E+02  0.33785951529E+02  0.51100000000E-03 0. -1.
         23    2    1    0    0    0 -0.23757549153E+01  0.16850389141E+02  0.28525544443E+02  0.91784243025E+02  0.85563197441E+02 0.  0.
         11    1    3    3    0    0 -0.31787785734E+02  0.17809506802E+02  0.45123829202E+02  0.57998291496E+02  0.51100000000E-03 0.  1.
         22    1    1    0    0    0  0.23757549153E+01 -0.16850389141E+02 -0.28525544443E+02  0.33215756975E+02  0.00000000000E+00 0.  1.
</event>
<event>
 5    1  0.6690694E-004  0.9118800E+02  0.7818608E-02  0.1130116E+00
         25   -1    0    0    0    0  0.00000000000E+00  0.00000000000E+00  0.99999998245E-14  0.12500000000E+03  0.12500000000E+03 0.  0.
        -11    1    3    3    0    0 -0.24651983523E+02  0.20127375164E+02 -0.96706661541E+01  0.33261889705E+02  0.51100000000E-03 0.  1.
         23    2    1    0    0    0  0.18336915706E+02 -0.20691140027E+02  0.98140682797E+01  0.95662622997E+02  0.91053038111E+02 0.  0.
         11    1    3    3    0    0  0.42988899228E+02 -0.40818515191E+02  0.19484734434E+02  0.62400733293E+02  0.51100000000E-03 0. -1.
         22    1    1    0    0    0 -0.18336915706E+02  0.20691140027E+02 -0.98140682797E+01  0.29337377003E+02  0.00000000000E+00 0. -1.
</event>
<event>
 5    1  0.6690694E-004  0.9118800E+02  0.7818608E-02  0.1130116E+00
         25   -1    0    0    0    0  0.00000000000E+00  0.00000000000E+00  0.99999998245E-14  0.12500000000E+03  0.12500000000E+03 0.  0.
        -11    1    3    3    0    0  0.55925607801E+02  0.72133451205E+01  0.11929431454E+02  0.57636943802E+02  0.51100000000E-03 0. -1.
         23    2    1    0    0    0  0.25162266035E+02  0.15139648618E+02 -0.72589841020E+01  0.94750348060E+02  0.89791909518E+02 0.  0.
         11    1    3    3    0    0 -0.30763341766E+02  0.79263034976E+01 -0.19188415556E+02  0.37113404258E+02  0.51100000000E-03 0.  1.
         22    1    1    0    0    0 -0.25162266035E+02 -0.15139648618E+02  0.72589841020E+01  0.30249651940E+02  0.00000000000E+00 0. -1.
</event>
<event>
 5    1  0.6690694E-004  0.9118800E+02  0.7818608E-02  0.1130116E+00
         25   -1    0    0    0    0  0.00000000000E+00  0.00000000000E+00  0.99999998245E-14  0.12500000000E+03  0.12500000000E+03 0.  0.
        -11    1    3    3    0    0  0.31740094683E+02  0.22124958580E+01  0.45639218875E+02  0.55635124231E+02  0.51100000000E-03 0.  1.
         23    2    1    0    0    0 -0.35058891106E+00 -0.13450041169E+02  0.24271063023E+02  0.97249125774E+02  0.93205586976E+02 0.  0.
         11    1    3    3    0    0 -0.32090683595E+02 -0.15662537027E+02 -0.21368155852E+02  0.41614001543E+02  0.51100000000E-03 0. -1.
         22    1    1    0    0    0  0.35058891106E+00  0.13450041169E+02 -0.24271063023E+02  0.27750874226E+02  0.00000000000E+00 0.  1.
</event>
<event>
 5    1  0.6690694E-004  0.9118800E+02  0.7818608E-02  0.1130116E+00
         25   -1    0    0    0    0  0.00000000000E+00  0.00000000000E+00  0.99999998245E-14  0.12500000000E+03  0.12500000000E+03 0.  0.
        -11    1    3    3    0    0 -0.23985946107E+01 -0.20436478076E+02  0.48518738902E+02  0.52701716453E+02  0.51100000000E-03 0. -1.
         23    2    1    0    0    0  0.20463669069E+02  0.30753047118E+01  0.16517963813E+02  0.98522417419E+02  0.94897862751E+02 0.  0.
         11    1    3    3    0    0  0.22862263679E+02  0.23511782788E+02 -0.32000775089E+02  0.45820700966E+02  0.51100000000E-03 0.  1.
         22    1    1    0    0    0 -0.20463669069E+02 -0.30753047118E+01 -0.16517963813E+02  0.26477582581E+02  0.00000000000E+00 0. -1.
</event>
<event>
 5    1  0.6690694E-004  0.9118800E+02  0.7818608E-02  0.1130116E+00
         25   -1    0    0    0    0  0.00000000000E+00  0.00000000000E+00  0.99999998245E-14  0.12500000000E+03  0.12500000000E+03 0.  0.
        -11    1    3    3    0    0 -0.30692440979E+02 -0.62195566987E+01  0.24934073662E+02  0.40030199205E+02  0.51100000000E-03 0.  1.
         23    2    1    0    0    0  0.24308112593E+02 -0.38816041750E+01  0.15575299207E+02  0.95870270612E+02  0.91337657366E+02 0.  0.
         11    1    3    3    0    0  0.55000553572E+02  0.23379525237E+01 -0.93587744548E+01  0.55840071407E+02  0.51100000000E-03 0. -1.
         22    1    1    0    0    0 -0.24308112593E+02  0.38816041750E+01 -0.15575299207E+02  0.29129729388E+02  0.00000000000E+00 0. -1.
</event>
<event>
 5    1  0.6690694E-004  0.9118800E+02  0.7818608E-02  0.1130116E+00
         25   -1    0    0    0    0  0.00000000000E+00  0.00000000000E+00  0.99999998245E-14  0.12500000000E+03  0.12500000000E+03 0.  0.
        -11    1    3    3    0    0  0.22623746030E+02 -0.47464712011E+02  0.21160274411E+02  0.56678831887E+02  0.51100000000E-03 0. -1.
         23    2    1    0    0    0  0.23665974216E+02 -0.80698878334E+01  0.12575706314E+02  0.97011612863E+02  0.92886507178E+02 0.  0.
         11    1    3    3    0    0  0.10422281855E+01  0.39394824177E+02 -0.85845680976E+01  0.40332780976E+02  0.51100000000E-03 0.  1.
         22    1    1    0    0    0 -0.23665974216E+02  0.80698878334E+01 -0.12575706314E+02  0.27988387137E+02  0.00000000000E+00 0. -1.
</event>
<event>
 5    1  0.6690694E-004  0.9118800E+02  0.7818608E-02  0.1130116E+00
         25   -1    0    0    0    0  0.00000000000E+00  0.00000000000E+00  0.99999998245E-14  0.12500000000E+03  0.12500000000E+03 0.  0.
        -11    1    3    3    0    0 -0.31888457080E+02  0.29199768247E+01  0.14998988476E+02  0.35360565821E+02  0.51100000000E-03 0.  1.
         23    2    1    0    0    0  0.13437851435E+02 -0.19155753378E+02 -0.17880796812E+02  0.95551033409E+02  0.90899715908E+02 0.  0.
         11    1    3    3    0    0  0.45326308515E+02 -0.22075730202E+02 -0.32879785288E+02  0.60190467588E+02  0.51100000000E-03 0. -1.
         22    1    1    0    0    0 -0.13437851435E+02  0.19155753378E+02  0.17880796812E+02  0.29448966591E+02  0.00000000000E+00 0. -1.
</event>
<event>
 5    1  0.6690694E-004  0.9118800E+02  0.7818608E-02  0.1130116E+00
         25   -1    0    0    0    0  0.00000000000E+00  0.00000000000E+00  0.99999998245E-14  0.12500000000E+03  0.12500000000E+03 0.  0.
        -11    1    3    3    0    0 -0.48373590924E+02  0.12732624815E+02 -0.24082838309E+02  0.55516728423E+02  0.51100000000E-03 0.  1.
         23    2    1    0    0    0 -0.21861889819E+02 -0.15153457954E+02 -0.11730055534E+02  0.95928300407E+02  0.91417039449E+02 0.  0.
         11    1    3    3    0    0  0.26511701105E+02 -0.27886082769E+02  0.12352782775E+02  0.40411571984E+02  0.51100000000E-03 0. -1.
         22    1    1    0    0    0  0.21861889819E+02  0.15153457954E+02  0.11730055534E+02  0.29071699593E+02  0.00000000000E+00 0.  1.
</event>
<event>
 5    1  0.6690694E-004  0.9118800E+02  0.7818608E-02  0.1130116E+00
         25   -1    0    0    0    0  0.00000000000E+00  0.00000000000E+00  0.99999998245E-14  0.12500000000E+03  0.12500000000E+03 0.  0.
        -11    1    3    3    0    0 -0.44720023794E+02  0.34479340065E+01 -0.30155240106E+02  0.54047268970E+02  0.51100000000E-03 0. -1.
         23    2    1    0    0    0 -0.18597917564E+02 -0.18345764721E+01  0.11175303041E+02  0.10322534486E+03  0.10090260757E+03 0.  0.
         11    1    3    3    0    0  0.26122106230E+02 -0.52825104786E+01  0.41330543147E+02  0.49178075887E+02  0.51100000000E-03 0.  1.
         22    1    1    0    0    0  0.18597917564E+02  0.18345764721E+01 -0.11175303041E+02  0.21774655143E+02  0.00000000000E+00 0. -1.
</event>
<event>
 5    1  0.6690694E-004  0.9118800E+02  0.7818608E-02  0.1130116E+00
         25   -1    0    0    0    0  0.00000000000E+00  0.00000000000E+00  0.99999998245E-14  0.12500000000E+03  0.12500000000E+03 0.  0.
        -11    1    3    3    0    0  0.43265092224E+02  0.19829882732E+02  0.28344159306E+02  0.55393896969E+02  0.51100000000E-03 0. -1.
         23    2    1    0    0    0  0.29462845193E+02 -0.62701818430E+01  0.22564230634E+01  0.94792949958E+02  0.89851196372E+02 0.  0.
         11    1    3    3    0    0 -0.13802247032E+02 -0.26100064575E+02 -0.26087736243E+02  0.39399052990E+02  0.51100000000E-03 0.  1.
         22    1    1    0    0    0 -0.29462845193E+02  0.62701818430E+01 -0.22564230634E+01  0.30207050042E+02  0.00000000000E+00 0. -1.
</event>
<event>
 5    1  0.6690694E-004  0.9118800E+02  0.7818608E-02  0.1130116E+00
         25   -1    0    0    0    0  0.00000000000E+00  0.00000000000E+00  0.99999998245E-14  0.12500000000E+03  0.12500000000E+03 0.  0.
        -11    1    3    3    0    0 -0.51589564912E+02  0.87718506563E+01  0.28302936265E+02  0.59493569176E+02  0.51100000000E-03 0.  1.
         23    2    1    0    0    0 -0.14558295118E+02  0.11663845448E+02  0.20186316799E+02  0.97514064810E+02  0.93560227675E+02 0.  0.
         11    1    3    3    0    0  0.37031269794E+02  0.28919947916E+01 -0.81166194667E+01  0.38020495634E+02  0.51100000000E-03 0. -1.
         22    1    1    0    0    0  0.14558295118E+02 -0.11663845448E+02 -0.20186316799E+02  0.27485935190E+02  0.00000000000E+00 0.  1.
</event>
<event>
 5    1  0.6690694E-004  0.9118800E+02  0.7818608E-02  0.1130116E+00
         25   -1    0    0    0    0  0.00000000000E+00  0.00000000000E+00  0.99999998245E-14  0.12500000000E+03  0.12500000000E+03 0.  0.
        -11    1    3    3    0    0 -0.38143288643E+02 -0.20512362754E+02 -0.31642748341E+02  0.53637030278E+02  0.51100000000E-03 0. -1.
         23    2    1    0    0    0 -0.28467810668E+02  0.55190158651E+01  0.34754195504E+00  0.96000059211E+02  0.91515106965E+02 0.  0.
         11    1    3    3    0    0  0.96754779749E+01  0.26031378619E+02  0.31990290296E+02  0.42363028933E+02  0.51100000000E-03 0.  1.
         22    1    1    0    0    0  0.28467810668E+02 -0.55190158651E+01 -0.34754195504E+00  0.28999940789E+02  0.00000000000E+00 0. -1.
</event>
<event>
 5    1  0.6690694E-004  0.9118800E+02  0.7818608E-02  0.1130116E+00
         25   -1    0    0    0    0  0.00000000000E+00  0.00000000000E+00  0.99999998245E-14  0.12500000000E+03  0.12500000000E+03 0.  0.
        -11    1    3    3    0    0 -0.30010140170E+02 -0.36138859891E+02  0.18913783181E+02  0.50639479674E+02  0.51100000000E-03 0.  1.
         23    2    1    0    0    0 -0.22787652648E+02 -0.14271005294E+02 -0.16917176247E+02  0.93233200390E+02  0.87654435698E+02 0.  0.
         11    1    3    3    0    0  0.72224875217E+01  0.21867854597E+02 -0.35830959427E+02  0.42593720716E+02  0.51100000000E-03 0. -1.
         22    1    1    0    0    0  0.22787652648E+02  0.14271005294E+02  0.16917176247E+02  0.31766799610E+02  0.00000000000E+00 0.  1.
</event>
<event>
 5    1  0.6690694E-004  0.9118800E+02  0.7818608E-02  0.1130116E+00
         25   -1    0    0    0    0  0.00000000000E+00  0.00000000000E+00  0.99999998245E-14  0.12500000000E+03  0.12500000000E+03 0.  0.
        -11    1    3    3    0    0  0.19297682744E+02  0.21034403219E+01 -0.57092121878E+02  0.60302034802E+02  0.51100000000E-03 0. -1.
         23    2    1    0    0    0  0.14221721543E+02  0.68715841811E+01 -0.14185408569E+02  0.10377026027E+03  0.10157541566E+03 0.  0.
         11    1    3    3    0    0 -0.50759612013E+01  0.47681438592E+01  0.42906713309E+02  0.43468225467E+02  0.51100000000E-03 0.  1.
         22    1    1    0    0    0 -0.14221721543E+02 -0.68715841811E+01  0.14185408569E+02  0.21229739731E+02  0.00000000000E+00 0. -1.
</event>
<event>
 5    1  0.6690694E-004  0.9118800E+02  0.7818608E-02  0.1130116E+00
         25   -1    0    0    0    0  0.00000000000E+00  0.00000000000E+00  0.99999998245E-14  0.12500000000E+03  0.12500000000E+03 0.  0.
        -11    1    3    3    0    0  0.33490506103E+02  0.12459916218E+02 -0.39049024730E+02  0.52930991336E+02  0.51100000000E-03 0. -1.
         23    2    1    0    0    0 -0.46838084687E+01  0.20019125324E+02 -0.20223723242E+02  0.96160748583E+02  0.91734329157E+02 0.  0.
         11    1    3    3    0    0 -0.38174314572E+02  0.75592091059E+01  0.18825301487E+02  0.43229757248E+02  0.51100000000E-03 0.  1.
         22    1    1    0    0    0  0.46838084687E+01 -0.20019125324E+02  0.20223723242E+02  0.28839251417E+02  0.00000000000E+00 0. -1.
</event>
<event>
 5    1  0.6690694E-004  0.9118800E+02  0.7818608E-02  0.1130116E+00
         25   -1    0    0    0    0  0.00000000000E+00  0.00000000000E+00  0.99999998245E-14  0.12500000000E+03  0.12500000000E+03 0.  0.
        -11    1    3    3    0    0  0.33308989814E+02  0.29688249525E+02  0.71349210054E+01  0.45186148988E+02  0.51100000000E-03 0. -1.
         23    2    1    0    0    0  0.21090417643E+02 -0.14064891700E+02 -0.14814860012E+02  0.95638341804E+02  0.91019698148E+02 0.  0.
         11    1    3    3    0    0 -0.12218572172E+02 -0.43753141225E+02 -0.21949781017E+02  0.50452192816E+02  0.51100000000E-03 0.  1.
         22    1    1    0    0    0 -0.21090417643E+02  0.14064891700E+02  0.14814860012E+02  0.29361658196E+02  0.00000000000E+00 0.  1.
</event>
<event>
 5    1  0.6690694E-004  0.9118800E+02  0.7818608E-02  0.1130116E+00
         25   -1    0    0    0    0  0.00000000000E+00  0.00000000000E+00  0.99999998245E-14  0.12500000000E+03  0.12500000000E+03 0.  0.
        -11    1    3    3    0    0  0.14021427730E+02 -0.10690412193E+02  0.39219890821E+02  0.43000990508E+02  0.51100000000E-03 0.  1.
         23    2    1    0    0    0  0.64949896854E+00  0.28326780181E+02  0.58185643200E+01  0.96074509251E+02  0.91616741444E+02 0.  0.
         11    1    3    3    0    0 -0.13371928761E+02  0.39017192373E+02 -0.33401326501E+02  0.53073518743E+02  0.51100000000E-03 0. -1.
         22    1    1    0    0    0 -0.64949896854E+00 -0.28326780181E+02 -0.58185643200E+01  0.28925490749E+02  0.00000000000E+00 0. -1.
</event>
<event>
 5    1  0.6690694E-004  0.9118800E+02  0.7818608E-02  0.1130116E+00
         25   -1    0    0    0    0  0.00000000000E+00  0.00000000000E+00  0.99999998245E-14  0.12500000000E+03  0.12500000000E+03 0.  0.
        -11    1    3    3    0    0  0.60370836692E+02  0.96667263894E+01  0.74784888815E+01  0.61595546253E+02  0.51100000000E-03 0. -1.
         23    2    1    0    0    0  0.26609860429E+02 -0.22001071551E+01  0.70514383107E+01  0.97383919073E+02  0.93386186174E+02 0.  0.
         11    1    3    3    0    0 -0.33760976263E+02 -0.11866833545E+02 -0.42705057075E+00  0.35788372820E+02  0.51100000000E-03 0.  1.
         22    1    1    0    0    0 -0.26609860429E+02  0.22001071551E+01 -0.70514383107E+01  0.27616080927E+02  0.00000000000E+00 0. -1.
</event>
<event>
 5    1  0.6690694E-004  0.9118800E+02  0.7818608E-02  0.1130116E+00
         25   -1    0    0    0    0  0.00000000000E+00  0.00000000000E+00  0.99999998245E-14  0.12500000000E+03  0.12500000000E+03 0.  0.
        -11    1    3    3    0    0 -0.87063765860E+01  0.43937047496E+02  0.10252334544E+02  0.45949706199E+02  0.51100000000E-03 0.  1.
         23    2    1    0    0    0  0.23133020494E+02  0.99012787175E+01 -0.11441616122E+02  0.97357957078E+02  0.93351428857E+02 0.  0.
         11    1    3    3    0    0  0.31839397080E+02 -0.34035768778E+02 -0.21693950666E+02  0.51408250879E+02  0.51100000000E-03 0. -1.
         22    1    1    0    0    0 -0.23133020494E+02 -0.99012787175E+01  0.11441616122E+02  0.27642042922E+02  0.00000000000E+00 0. -1.
</event>
<event>
 5    1  0.6690694E-004  0.9118800E+02  0.7818608E-02  0.1130116E+00
         25   -1    0    0    0    0  0.00000000000E+00  0.00000000000E+00  0.99999998245E-14  0.12500000000E+03  0.12500000000E+03 0.  0.
        -11    1    3    3    0    0 -0.41646449122E+02 -0.77441004599E+01  0.22277128966E+02  0.47860926564E+02  0.51100000000E-03 0. -1.
         23    2    1    0    0    0  0.41907250236E+01 -0.16735940611E+02  0.24970198424E+02  0.94649304890E+02  0.89651136203E+02 0.  0.
         11    1    3    3    0    0  0.45837174145E+02 -0.89918401510E+01  0.26930694579E+01  0.46788378325E+02  0.51100000000E-03 0.  1.
         22    1    1    0    0    0 -0.41907250236E+01  0.16735940611E+02 -0.24970198424E+02  0.30350695110E+02  0.00000000000E+00 0. -1.
</event>
<event>
 5    1  0.6690694E-004  0.9118800E+02  0.7818608E-02  0.1130116E+00
         25   -1    0    0    0    0  0.00000000000E+00  0.00000000000E+00  0.99999998245E-14  0.12500000000E+03  0.12500000000E+03 0.  0.
        -11    1    3    3    0    0  0.18664909517E+02 -0.44134533882E+02 -0.81649834834E+01  0.48609699483E+02  0.51100000000E-03 0. -1.
         23    2    1    0    0    0 -0.19781104304E+02 -0.21124230770E+02  0.56839727472E+01  0.95507072724E+02  0.90839243618E+02 0.  0.
         11    1    3    3    0    0 -0.38446013820E+02  0.23010303112E+02  0.13848956231E+02  0.46897373241E+02  0.51100000000E-03 0.  1.
         22    1    1    0    0    0  0.19781104304E+02  0.21124230770E+02 -0.56839727472E+01  0.29492927276E+02  0.00000000000E+00 0. -1.
</event>
<event>
 5    1  0.6690694E-004  0.9118800E+02  0.7818608E-02  0.1130116E+00
         25   -1    0    0    0    0  0.00000000000E+00  0.00000000000E+00  0.99999998245E-14  0.12500000000E+03  0.12500000000E+03 0.  0.
        -11    1    3    3    0    0 -0.41757976409E+02 -0.23963182611E+02 -0.18489001204E+02  0.51573305890E+02  0.51100000000E-03 0. -1.
         23    2    1    0    0    0 -0.24471603548E+02  0.10824439842E+02  0.61098121059E+01  0.97552637976E+02  0.93611748697E+02 0.  0.
         11    1    3    3    0    0  0.17286372861E+02  0.34787622453E+02  0.24598813310E+02  0.45979332086E+02  0.51100000000E-03 0.  1.
         22    1    1    0    0    0  0.24471603548E+02 -0.10824439842E+02 -0.61098121059E+01  0.27447362024E+02  0.00000000000E+00 0. -1.
</event>
<event>
 5    1  0.6690694E-004  0.9118800E+02  0.7818608E-02  0.1130116E+00
         25   -1    0    0    0    0  0.00000000000E+00  0.00000000000E+00  0.99999998245E-14  0.12500000000E+03  0.12500000000E+03 0.  0.
        -11    1    3    3    0    0 -0.21631287790E+02  0.31307455444E+01  0.35221497455E+02  0.41451997085E+02  0.51100000000E-03 0.  1.
         23    2    1    0    0    0  0.68098493646E+01  0.27228473781E+02 -0.52184227894E+01  0.96451869252E+02  0.92130165055E+02 0.  0.
         11    1    3    3    0    0  0.28441137155E+02  0.24097728236E+02 -0.40439920244E+02  0.54999872167E+02  0.51100000000E-03 0. -1.
         22    1    1    0    0    0 -0.68098493646E+01 -0.27228473781E+02  0.52184227894E+01  0.28548130748E+02  0.00000000000E+00 0. -1.
</event>
<event>
 5    1  0.6690694E-004  0.9118800E+02  0.7818608E-02  0.1130116E+00
         25   -1    0    0    0    0  0.00000000000E+00  0.00000000000E+00  0.99999998245E-14  0.12500000000E+03  0.12500000000E+03 0.  0.
        -11    1    3    3    0    0  0.19509409500E+02  0.35043945781E+02  0.41382723415E+01  0.40321464422E+02  0.51100000000E-03 0. -1.
         23    2    1    0    0    0 -0.89179274780E+01  0.24692592990E+01 -0.28848986012E+02  0.94703289520E+02  0.89726375053E+02 0.  0.
         11    1    3    3    0    0 -0.28427336978E+02 -0.32574686482E+02 -0.32987258353E+02  0.54381825098E+02  0.51100000000E-03 0.  1.
         22    1    1    0    0    0  0.89179274780E+01 -0.24692592990E+01  0.28848986012E+02  0.30296710480E+02  0.00000000000E+00 0.  1.
</event>
<event>
 5    1  0.6690694E-004  0.9118800E+02  0.7818608E-02  0.1130116E+00
         25   -1    0    0    0    0  0.00000000000E+00  0.00000000000E+00  0.99999998245E-14  0.12500000000E+03  0.12500000000E+03 0.  0.
        -11    1    3    3    0    0  0.19516586325E+02  0.23675764467E+02  0.49003138564E+02  0.57816490332E+02  0.51100000000E-03 0. -1.
         23    2    1    0    0    0  0.23939030459E+02  0.46669408069E+01  0.17109945088E+02  0.95207253622E+02  0.90425734200E+02 0.  0.
         11    1    3    3    0    0  0.44224441344E+01 -0.19008823660E+02 -0.31893193477E+02  0.37390763291E+02  0.51100000000E-03 0.  1.
         22    1    1    0    0    0 -0.23939030459E+02 -0.46669408069E+01 -0.17109945088E+02  0.29792746378E+02  0.00000000000E+00 0. -1.
</event>
<event>
 5    1  0.6690694E-004  0.9118800E+02  0.7818608E-02  0.1130116E+00
         25   -1    0    0    0    0  0.00000000000E+00  0.00000000000E+00  0.99999998245E-14  0.12500000000E+03  0.12500000000E+03 0.  0.
        -11    1    3    3    0    0 -0.13213019421E+02 -0.21617916211E+02 -0.26361001704E+02  0.36562557277E+02  0.51100000000E-03 0.  1.
         23    2    1    0    0    0 -0.21434770094E+02 -0.15610759329E+02  0.24779659253E+02  0.88707071095E+02  0.80942990887E+02 0.  0.
         11    1    3    3    0    0 -0.82217506728E+01  0.60071568824E+01  0.51140660957E+02  0.52144513818E+02  0.51100000000E-03 0. -1.
         22    1    1    0    0    0  0.21434770094E+02  0.15610759329E+02 -0.24779659253E+02  0.36292928905E+02  0.00000000000E+00 0. -1.
</event>
<event>
 5    1  0.6690694E-004  0.9118800E+02  0.7818608E-02  0.1130116E+00
         25   -1    0    0    0    0  0.00000000000E+00  0.00000000000E+00  0.99999998245E-14  0.12500000000E+03  0.12500000000E+03 0.  0.
        -11    1    3    3    0    0  0.46750569398E+02  0.17611991933E+02  0.11739451453E+02  0.51318736535E+02  0.51100000000E-03 0.  1.
         23    2    1    0    0    0  0.19196431759E+02 -0.17023184292E+02  0.14254890828E+02  0.95648786937E+02  0.91034041623E+02 0.  0.
         11    1    3    3    0    0 -0.27554137639E+02 -0.34635176225E+02  0.25154393755E+01  0.44330050403E+02  0.51100000000E-03 0. -1.
         22    1    1    0    0    0 -0.19196431759E+02  0.17023184292E+02 -0.14254890828E+02  0.29351213063E+02  0.00000000000E+00 0. -1.
</event>
<event>
 5    1  0.6690694E-004  0.9118800E+02  0.7818608E-02  0.1130116E+00
         25   -1    0    0    0    0  0.00000000000E+00  0.00000000000E+00  0.99999998245E-14  0.12500000000E+03  0.12500000000E+03 0.  0.
        -11    1    3    3    0    0 -0.14204278383E+02 -0.98118724979E+01  0.36179721521E+02  0.40087487024E+02  0.51100000000E-03 0.  1.
         23    2    1    0    0    0 -0.18721884589E+02  0.17132967928E+02 -0.13104746461E+02  0.96438103488E+02  0.92111486102E+02 0.  0.
         11    1    3    3    0    0 -0.45176062060E+01  0.26944840426E+02 -0.49284467982E+02  0.56350616464E+02  0.51100000000E-03 0. -1.
         22    1    1    0    0    0  0.18721884589E+02 -0.17132967928E+02  0.13104746461E+02  0.28561896512E+02  0.00000000000E+00 0. -1.
</event>
<event>
 5    1  0.6690694E-004  0.9118800E+02  0.7818608E-02  0.1130116E+00
         25   -1    0    0    0    0  0.00000000000E+00  0.00000000000E+00  0.99999998245E-14  0.12500000000E+03  0.12500000000E+03 0.  0.
        -11    1    3    3    0    0  0.12008266719E+01 -0.57254841043E+02  0.75358126774E+01  0.57761122570E+02  0.51100000000E-03 0.  1.
         23    2    1    0    0    0 -0.71309020696E+01 -0.20643856157E+02  0.17954228902E+02  0.96726816649E+02  0.92502454899E+02 0.  0.
         11    1    3    3    0    0 -0.83317287415E+01  0.36610984887E+02  0.10418416224E+02  0.38965694079E+02  0.51100000000E-03 0. -1.
         22    1    1    0    0    0  0.71309020696E+01  0.20643856157E+02 -0.17954228902E+02  0.28273183351E+02  0.00000000000E+00 0.  1.
</event>
<event>
 5    1  0.6690694E-004  0.9118800E+02  0.7818608E-02  0.1130116E+00
         25   -1    0    0    0    0  0.00000000000E+00  0.00000000000E+00  0.99999998245E-14  0.12500000000E+03  0.12500000000E+03 0.  0.
        -11    1    3    3    0    0  0.28302774264E+02  0.17634066324E+02  0.31811391019E+02  0.46086569899E+02  0.51100000000E-03 0. -1.
         23    2    1    0    0    0  0.15780555167E+02  0.23206577184E+02 -0.13810027675E+02  0.93722404019E+02  0.88349312418E+02 0.  0.
         11    1    3    3    0    0 -0.12522219097E+02  0.55725108598E+01 -0.45621418694E+02  0.47635834120E+02  0.51100000000E-03 0.  1.
         22    1    1    0    0    0 -0.15780555167E+02 -0.23206577184E+02  0.13810027675E+02  0.31277595981E+02  0.00000000000E+00 0. -1.
</event>
<event>
 5    1  0.6690694E-004  0.9118800E+02  0.7818608E-02  0.1130116E+00
         25   -1    0    0    0    0  0.00000000000E+00  0.00000000000E+00  0.99999998245E-14  0.12500000000E+03  0.12500000000E+03 0.  0.
        -11    1    3    3    0    0  0.29123319669E+02  0.36329840578E+02 -0.31334971853E+02  0.56124019156E+02  0.51100000000E-03 0.  1.
         23    2    1    0    0    0  0.29110225563E+02  0.47724233714E+01 -0.18423502063E+02  0.90220599697E+02  0.83247522031E+02 0.  0.
         11    1    3    3    0    0 -0.13094106833E-01 -0.31557417207E+02  0.12911469790E+02  0.34096580541E+02  0.51100000000E-03 0. -1.
         22    1    1    0    0    0 -0.29110225563E+02 -0.47724233714E+01  0.18423502063E+02  0.34779400303E+02  0.00000000000E+00 0.  1.
</event>
<event>
 5    1  0.6690694E-004  0.9118800E+02  0.7818608E-02  0.1130116E+00
         25   -1    0    0    0    0  0.00000000000E+00  0.00000000000E+00  0.99999998245E-14  0.12500000000E+03  0.12500000000E+03 0.  0.
        -11    1    3    3    0    0  0.23185150580E+02 -0.23995382877E+02 -0.31442652566E+01  0.33514414975E+02  0.51100000000E-03 0. -1.
         23    2    1    0    0    0 -0.61641415952E+01  0.29457756541E+02  0.27486153178E+01  0.94778965137E+02  0.89831738736E+02 0.  0.
         11    1    3    3    0    0 -0.29349292175E+02  0.53453139418E+02  0.58928805744E+01  0.61264550162E+02  0.51100000000E-03 0.  1.
         22    1    1    0    0    0  0.61641415952E+01 -0.29457756541E+02 -0.27486153178E+01  0.30221034863E+02  0.00000000000E+00 0.  1.
</event>
<event>
 5    1  0.6690694E-004  0.9118800E+02  0.7818608E-02  0.1130116E+00
         25   -1    0    0    0    0  0.00000000000E+00  0.00000000000E+00  0.99999998245E-14  0.12500000000E+03  0.12500000000E+03 0.  0.
        -11    1    3    3    0    0  0.30918242411E+02 -0.12734232352E+02 -0.15219193796E+01  0.33472595152E+02  0.51100000000E-03 0.  1.
         23    2    1    0    0    0 -0.20771678093E+02  0.11550477310E+02  0.19426396264E+02  0.94303729727E+02  0.89168001164E+02 0.  0.
         11    1    3    3    0    0 -0.51689920504E+02  0.24284709662E+02  0.20948315644E+02  0.60831134574E+02  0.51100000000E-03 0. -1.
         22    1    1    0    0    0  0.20771678093E+02 -0.11550477310E+02 -0.19426396264E+02  0.30696270273E+02  0.00000000000E+00 0. -1.
</event>
<event>
 5    1  0.6690694E-004  0.9118800E+02  0.7818608E-02  0.1130116E+00
         25   -1    0    0    0    0  0.00000000000E+00  0.00000000000E+00  0.99999998245E-14  0.12500000000E+03  0.12500000000E+03 0.  0.
        -11    1    3    3    0    0 -0.86806713413E+01 -0.28912869806E+02 -0.47731892047E+02  0.56476912221E+02  0.51100000000E-03 0. -1.
         23    2    1    0    0    0 -0.72153691266E+00 -0.29073585072E+02 -0.11249834238E+02  0.93817428989E+02  0.88483655255E+02 0.  0.
         11    1    3    3    0    0  0.79591344286E+01 -0.16071526598E+00  0.36482057809E+02  0.37340516768E+02  0.51100000000E-03 0.  1.
         22    1    1    0    0    0  0.72153691266E+00  0.29073585072E+02  0.11249834238E+02  0.31182571011E+02  0.00000000000E+00 0. -1.
</event>
<event>
 5    1  0.6690694E-004  0.9118800E+02  0.7818608E-02  0.1130116E+00
         25   -1    0    0    0    0  0.00000000000E+00  0.00000000000E+00  0.99999998245E-14  0.12500000000E+03  0.12500000000E+03 0.  0.
        -11    1    3    3    0    0  0.25693176470E+02 -0.17331908078E+02  0.38997784245E+02  0.49813266616E+02  0.51100000000E-03 0. -1.
         23    2    1    0    0    0  0.36999870945E+02 -0.22108500043E+02  0.10801602662E+02  0.80565206829E+02  0.67203435234E+02 0.  0.
         11    1    3    3    0    0  0.11306694475E+02 -0.47765919652E+01 -0.28196181582E+02  0.30751940213E+02  0.51100000000E-03 0.  1.
         22    1    1    0    0    0 -0.36999870945E+02  0.22108500043E+02 -0.10801602662E+02  0.44434793171E+02  0.00000000000E+00 0. -1.
</event>
<event>
 5    1  0.6690694E-004  0.9118800E+02  0.7818608E-02  0.1130116E+00
         25   -1    0    0    0    0  0.00000000000E+00  0.00000000000E+00  0.99999998245E-14  0.12500000000E+03  0.12500000000E+03 0.  0.
        -11    1    3    3    0    0  0.82969491847E+01 -0.27685840878E+02 -0.36692792675E+02  0.46708737785E+02  0.51100000000E-03 0.  1.
         23    2    1    0    0    0  0.27748151563E+02  0.51887054084E+01 -0.50238867051E+01  0.96327329796E+02  0.91961037668E+02 0.  0.
         11    1    3    3    0    0  0.19451202379E+02  0.32874546287E+02  0.31668905970E+02  0.49618592011E+02  0.51100000000E-03 0. -1.
         22    1    1    0    0    0 -0.27748151563E+02 -0.51887054084E+01  0.50238867051E+01  0.28672670204E+02  0.00000000000E+00 0. -1.
</event>
<event>
 5    1  0.6690694E-004  0.9118800E+02  0.7818608E-02  0.1130116E+00
         25   -1    0    0    0    0  0.00000000000E+00  0.00000000000E+00  0.99999998245E-14  0.12500000000E+03  0.12500000000E+03 0.  0.
        -11    1    3    3    0    0 -0.45497515293E+02 -0.22532778724E+02  0.20189799258E+02  0.54638612805E+02  0.51100000000E-03 0.  1.
         23    2    1    0    0    0 -0.11883023041E+02  0.21366391859E+01  0.25611701685E+02  0.96685150066E+02  0.92446133053E+02 0.  0.
         11    1    3    3    0    0  0.33614492253E+02  0.24669417910E+02  0.54219024274E+01  0.42046537261E+02  0.51100000000E-03 0. -1.
         22    1    1    0    0    0  0.11883023041E+02 -0.21366391859E+01 -0.25611701685E+02  0.28314849934E+02  0.00000000000E+00 0.  1.
</event>
<event>
 5    1  0.6690694E-004  0.9118800E+02  0.7818608E-02  0.1130116E+00
         25   -1    0    0    0    0  0.00000000000E+00  0.00000000000E+00  0.99999998245E-14  0.12500000000E+03  0.12500000000E+03 0.  0.
        -11    1    3    3    0    0 -0.42899760498E+01  0.35476212419E+02  0.15008529750E+02  0.38758502391E+02  0.51100000000E-03 0. -1.
         23    2    1    0    0    0 -0.24409540092E+02 -0.15845709283E+02 -0.31805437172E-01  0.95898227515E+02  0.91375909729E+02 0.  0.
         11    1    3    3    0    0 -0.20119564042E+02 -0.51321921702E+02 -0.15040335187E+02  0.57139725124E+02  0.51100000000E-03 0.  1.
         22    1    1    0    0    0  0.24409540092E+02  0.15845709283E+02  0.31805437172E-01  0.29101772485E+02  0.00000000000E+00 0. -1.
</event>
<event>
 4    1  0.6690694E-004  0.9118800E+02  0.7818608E-02  0.1130116E+00
         25   -1    0    0    0    0  0.00000000000E+00  0.00000000000E+00  0.99999998245E-14  0.12500000000E+03  0.12500000000E+03 0.  0.
        -11    1    1    0    0    0 -0.38378369817E+02 -0.94117155145E+01 -0.20977058650E+02  0.44738312984E+02  0.51100000000E-03 0.  1.
         11    1    1    0    0    0 -0.12777733476E+02  0.19895806278E+02  0.14258386309E+02  0.27611866301E+02  0.51100000000E-03 0. -1.
         22    1    1    0    0    0  0.51156103294E+02 -0.10484090763E+02  0.67186723412E+01  0.52649820715E+02  0.00000000000E+00 0. -1.
</event>
<event>
 5    1  0.6690694E-004  0.9118800E+02  0.7818608E-02  0.1130116E+00
         25   -1    0    0    0    0  0.00000000000E+00  0.00000000000E+00  0.99999998245E-14  0.12500000000E+03  0.12500000000E+03 0.  0.
        -11    1    3    3    0    0 -0.49107558785E+01 -0.34028926933E+02  0.25954229828E+02  0.43077899644E+02  0.51100000000E-03 0. -1.
         23    2    1    0    0    0 -0.85151402966E+01 -0.16866016985E+02 -0.23091052859E+02  0.95164335681E+02  0.90366387115E+02 0.  0.
         11    1    3    3    0    0 -0.36043844180E+01  0.17162909947E+02 -0.49045282687E+02  0.52086436037E+02  0.51100000000E-03 0.  1.
         22    1    1    0    0    0  0.85151402966E+01  0.16866016985E+02  0.23091052859E+02  0.29835664319E+02  0.00000000000E+00 0. -1.
</event>
<event>
 5    1  0.6690694E-004  0.9118800E+02  0.7818608E-02  0.1130116E+00
         25   -1    0    0    0    0  0.00000000000E+00  0.00000000000E+00  0.99999998245E-14  0.12500000000E+03  0.12500000000E+03 0.  0.
        -11    1    3    3    0    0 -0.49903163987E+02 -0.14773152526E+02  0.20235810542E+02  0.55839590257E+02  0.51100000000E-03 0.  1.
         23    2    1    0    0    0 -0.11866273544E+02 -0.11858797988E+02  0.25630281432E+02  0.94367486818E+02  0.89257334178E+02 0.  0.
         11    1    3    3    0    0  0.38036890444E+02  0.29143545380E+01  0.53944708906E+01  0.38527896561E+02  0.51100000000E-03 0. -1.
         22    1    1    0    0    0  0.11866273544E+02  0.11858797988E+02 -0.25630281432E+02  0.30632513182E+02  0.00000000000E+00 0.  1.
</event>
<event>
 5    1  0.6690694E-004  0.9118800E+02  0.7818608E-02  0.1130116E+00
         25   -1    0    0    0    0  0.00000000000E+00  0.00000000000E+00  0.99999998245E-14  0.12500000000E+03  0.12500000000E+03 0.  0.
        -11    1    3    3    0    0  0.27040161174E+02 -0.30386068407E+02  0.16297661298E+02  0.43818914108E+02  0.51100000000E-03 0.  1.
         23    2    1    0    0    0  0.22049531497E+02  0.19442245000E+02  0.74717365633E+01  0.94668340350E+02  0.89677673294E+02 0.  0.
         11    1    3    3    0    0 -0.49906296767E+01  0.49828313406E+02 -0.88259247348E+01  0.50849426242E+02  0.51100000000E-03 0. -1.
         22    1    1    0    0    0 -0.22049531497E+02 -0.19442245000E+02 -0.74717365633E+01  0.30331659650E+02  0.00000000000E+00 0.  1.
</event>
<event>
 5    1  0.6690694E-004  0.9118800E+02  0.7818608E-02  0.1130116E+00
         25   -1    0    0    0    0  0.00000000000E+00  0.00000000000E+00  0.99999998245E-14  0.12500000000E+03  0.12500000000E+03 0.  0.
        -11    1    3    3    0    0 -0.34007624257E+02 -0.20482249398E+02 -0.10656748270E+02  0.41104833438E+02  0.51100000000E-03 0. -1.
         23    2    1    0    0    0  0.14338264477E+02 -0.22064453781E+01 -0.26178905131E+02  0.95070260555E+02  0.90236163142E+02 0.  0.
         11    1    3    3    0    0  0.48345888734E+02  0.18275804020E+02 -0.15522156861E+02  0.53965427117E+02  0.51100000000E-03 0.  1.
         22    1    1    0    0    0 -0.14338264477E+02  0.22064453781E+01  0.26178905131E+02  0.29929739445E+02  0.00000000000E+00 0.  1.
</event>
<event>
 5    1  0.6690694E-004  0.9118800E+02  0.7818608E-02  0.1130116E+00
         25   -1    0    0    0    0  0.00000000000E+00  0.00000000000E+00  0.99999998245E-14  0.12500000000E+03  0.12500000000E+03 0.  0.
        -11    1    3    3    0    0  0.58401922292E+02 -0.44829860639E+01 -0.14441118562E+02  0.60327668586E+02  0.51100000000E-03 0.  1.
         23    2    1    0    0    0  0.42858718277E+02  0.69865815453E+01 -0.70667637397E+01  0.81004304713E+02  0.68015264303E+02 0.  0.
         11    1    3    3    0    0 -0.15543204015E+02  0.11469567609E+02  0.73743548221E+01  0.20676636126E+02  0.51100000000E-03 0. -1.
         22    1    1    0    0    0 -0.42858718277E+02 -0.69865815453E+01  0.70667637397E+01  0.43995695287E+02  0.00000000000E+00 0.  1.
</event>
<event>
 5    1  0.6690694E-004  0.9118800E+02  0.7818608E-02  0.1130116E+00
         25   -1    0    0    0    0  0.00000000000E+00  0.00000000000E+00  0.99999998245E-14  0.12500000000E+03  0.12500000000E+03 0.  0.
        -11    1    3    3    0    0  0.52966500317E+01 -0.30192399096E+01  0.36786104472E+02  0.37287904120E+02  0.51100000000E-03 0.  1.
         23    2    1    0    0    0 -0.29968620763E+02  0.14229553697E+02 -0.10464971566E+01  0.91808230159E+02  0.85598233275E+02 0.  0.
         11    1    3    3    0    0 -0.35265270795E+02  0.17248793607E+02 -0.37832601629E+02  0.54520326039E+02  0.51100000000E-03 0. -1.
         22    1    1    0    0    0  0.29968620763E+02 -0.14229553697E+02  0.10464971566E+01  0.33191769841E+02  0.00000000000E+00 0. -1.
</event>
<event>
 5    1  0.6690694E-004  0.9118800E+02  0.7818608E-02  0.1130116E+00
         25   -1    0    0    0    0  0.00000000000E+00  0.00000000000E+00  0.99999998245E-14  0.12500000000E+03  0.12500000000E+03 0.  0.
        -11    1    3    3    0    0 -0.57698943927E+02 -0.13085690138E+02  0.17204003197E+02  0.61614780231E+02  0.51100000000E-03 0. -1.
         23    2    1    0    0    0 -0.26988066686E+02 -0.23352904746E+00  0.12569464483E+02  0.95227500665E+02  0.90453718366E+02 0.  0.
         11    1    3    3    0    0  0.30710877241E+02  0.12852161091E+02 -0.46345387138E+01  0.33612720434E+02  0.51100000000E-03 0.  1.
         22    1    1    0    0    0  0.26988066686E+02  0.23352904746E+00 -0.12569464483E+02  0.29772499335E+02  0.00000000000E+00 0. -1.
</event>
<event>
 5    1  0.6690694E-004  0.9118800E+02  0.7818608E-02  0.1130116E+00
         25   -1    0    0    0    0  0.00000000000E+00  0.00000000000E+00  0.99999998245E-14  0.12500000000E+03  0.12500000000E+03 0.  0.
        -11    1    3    3    0    0 -0.70909166942E+01 -0.38484259827E+02 -0.32666261204E+02  0.50974542424E+02  0.51100000000E-03 0. -1.
         23    2    1    0    0    0  0.75868584311E+01  0.93431094348E+01  0.32174050493E+01  0.11254183761E+03  0.11185016497E+03 0.  0.
         11    1    3    3    0    0  0.14677775125E+02  0.47827369262E+02  0.35883666253E+02  0.61567295191E+02  0.51100000000E-03 0.  1.
         22    1    1    0    0    0 -0.75868584311E+01 -0.93431094348E+01 -0.32174050493E+01  0.12458162385E+02  0.00000000000E+00 0.  1.
</event>
<event>
 5    1  0.6690694E-004  0.9118800E+02  0.7818608E-02  0.1130116E+00
         25   -1    0    0    0    0  0.00000000000E+00  0.00000000000E+00  0.99999998245E-14  0.12500000000E+03  0.12500000000E+03 0.  0.
        -11    1    3    3    0    0  0.18399338437E+02 -0.37318301927E+01  0.16395816257E+02  0.24925589311E+02  0.51100000000E-03 0.  1.
         23    2    1    0    0    0 -0.21904605201E+02  0.14979844781E+02 -0.27075066323E+02  0.87088699639E+02  0.78403921520E+02 0.  0.
         11    1    3    3    0    0 -0.40303943638E+02  0.18711674974E+02 -0.43470882580E+02  0.62163110328E+02  0.51100000000E-03 0. -1.
         22    1    1    0    0    0  0.21904605201E+02 -0.14979844781E+02  0.27075066323E+02  0.37911300361E+02  0.00000000000E+00 0. -1.
</event>
<event>
 5    1  0.6690694E-004  0.9118800E+02  0.7818608E-02  0.1130116E+00
         25   -1    0    0    0    0  0.00000000000E+00  0.00000000000E+00  0.99999998245E-14  0.12500000000E+03  0.12500000000E+03 0.  0.
        -11    1    3    3    0    0 -0.51544306981E+02 -0.38951167588E+01 -0.34225764616E+02  0.61995084326E+02  0.51100000000E-03 0.  1.
         23    2    1    0    0    0 -0.28882256312E+02  0.97502171129E-01 -0.12903434637E+02  0.93366270189E+02  0.87843995510E+02 0.  0.
         11    1    3    3    0    0  0.22662050669E+02  0.39926189299E+01  0.21322329979E+02  0.31371185863E+02  0.51100000000E-03 0. -1.
         22    1    1    0    0    0  0.28882256312E+02 -0.97502171129E-01  0.12903434637E+02  0.31633729811E+02  0.00000000000E+00 0.  1.
</event>
<event>
 5    1  0.6690694E-004  0.9118800E+02  0.7818608E-02  0.1130116E+00
         25   -1    0    0    0    0  0.00000000000E+00  0.00000000000E+00  0.99999998245E-14  0.12500000000E+03  0.12500000000E+03 0.  0.
        -11    1    3    3    0    0 -0.58607257096E+02 -0.54404273006E+01  0.18206452119E+02  0.61610743646E+02  0.51100000000E-03 0.  1.
         23    2    1    0    0    0 -0.30189802924E+02 -0.37195002649E+01  0.17106947057E+02  0.90101482547E+02  0.83068469570E+02 0.  0.
         11    1    3    3    0    0  0.28417454172E+02  0.17209270357E+01 -0.10995050621E+01  0.28490738901E+02  0.51100000000E-03 0. -1.
         22    1    1    0    0    0  0.30189802924E+02  0.37195002649E+01 -0.17106947057E+02  0.34898517453E+02  0.00000000000E+00 0.  1.
</event>
<event>
 5    1  0.6690694E-004  0.9118800E+02  0.7818608E-02  0.1130116E+00
         25   -1    0    0    0    0  0.00000000000E+00  0.00000000000E+00  0.99999998245E-14  0.12500000000E+03  0.12500000000E+03 0.  0.
        -11    1    3    3    0    0  0.30988255647E+02  0.50546818221E+02  0.18115514957E+02  0.61995360333E+02  0.51100000000E-03 0.  1.
         23    2    1    0    0    0  0.10141296280E+02  0.23501486630E+02  0.12175411464E+02  0.96655575356E+02  0.92406135289E+02 0.  0.
         11    1    3    3    0    0 -0.20846959367E+02 -0.27045331591E+02 -0.59401034936E+01  0.34660215024E+02  0.51100000000E-03 0. -1.
         22    1    1    0    0    0 -0.10141296280E+02 -0.23501486630E+02 -0.12175411464E+02  0.28344424644E+02  0.00000000000E+00 0.  1.
</event>
<event>
 5    1  0.6690694E-004  0.9118800E+02  0.7818608E-02  0.1130116E+00
         25   -1    0    0    0    0  0.00000000000E+00  0.00000000000E+00  0.99999998245E-14  0.12500000000E+03  0.12500000000E+03 0.  0.
        -11    1    3    3    0    0 -0.19694531834E+02  0.18382563908E+02  0.54255413559E+02  0.60575928723E+02  0.51100000000E-03 0.  1.
         23    2    1    0    0    0 -0.11107592483E+02 -0.19559967893E+01  0.27585963030E+02  0.95197485165E+02  0.90412229766E+02 0.  0.
         11    1    3    3    0    0  0.85869393508E+01 -0.20338560698E+02 -0.26669450529E+02  0.34621556442E+02  0.51100000000E-03 0. -1.
         22    1    1    0    0    0  0.11107592483E+02  0.19559967893E+01 -0.27585963030E+02  0.29802514835E+02  0.00000000000E+00 0. -1.
</event>
<event>
 5    1  0.6690694E-004  0.9118800E+02  0.7818608E-02  0.1130116E+00
         25   -1    0    0    0    0  0.00000000000E+00  0.00000000000E+00  0.99999998245E-14  0.12500000000E+03  0.12500000000E+03 0.  0.
        -11    1    3    3    0    0  0.27987565098E+02  0.47910773829E+02  0.93153344952E+01  0.56262967448E+02  0.51100000000E-03 0. -1.
         23    2    1    0    0    0  0.22198227590E+02  0.87754621481E+01  0.15831552284E+02  0.96357233169E+02  0.92001675486E+02 0.  0.
         11    1    3    3    0    0 -0.57893375083E+01 -0.39135311681E+02  0.65162177884E+01  0.40094265721E+02  0.51100000000E-03 0.  1.
         22    1    1    0    0    0 -0.22198227590E+02 -0.87754621481E+01 -0.15831552284E+02  0.28642766831E+02  0.00000000000E+00 0. -1.
</event>
<event>
 5    1  0.6690694E-004  0.9118800E+02  0.7818608E-02  0.1130116E+00
         25   -1    0    0    0    0  0.00000000000E+00  0.00000000000E+00  0.99999998245E-14  0.12500000000E+03  0.12500000000E+03 0.  0.
        -11    1    3    3    0    0  0.47650854698E+02 -0.12615554880E+02  0.33353940806E+02  0.59516733327E+02  0.51100000000E-03 0.  1.
         23    2    1    0    0    0  0.28199905880E+02 -0.64823833068E+01  0.32446370106E+01  0.95883275351E+02  0.91355453246E+02 0.  0.
         11    1    3    3    0    0 -0.19450948818E+02  0.61331715732E+01 -0.30109303796E+02  0.36366542024E+02  0.51100000000E-03 0. -1.
         22    1    1    0    0    0 -0.28199905880E+02  0.64823833068E+01 -0.32446370106E+01  0.29116724649E+02  0.00000000000E+00 0.  1.
</event>
<event>
 5    1  0.6690694E-004  0.9118800E+02  0.7818608E-02  0.1130116E+00
         25   -1    0    0    0    0  0.00000000000E+00  0.00000000000E+00  0.99999998245E-14  0.12500000000E+03  0.12500000000E+03 0.  0.
        -11    1    3    3    0    0  0.22616052948E+02  0.48064386885E+02 -0.18791498693E+02  0.56345288720E+02  0.51100000000E-03 0. -1.
         23    2    1    0    0    0  0.25883678299E+02  0.11475772789E+02 -0.14074635299E+02  0.93381120795E+02  0.87865125043E+02 0.  0.
         11    1    3    3    0    0  0.32676253506E+01 -0.36588614096E+02  0.47168633945E+01  0.37035832074E+02  0.51100000000E-03 0.  1.
         22    1    1    0    0    0 -0.25883678299E+02 -0.11475772789E+02  0.14074635299E+02  0.31618879205E+02  0.00000000000E+00 0. -1.
</event>
<event>
 5    1  0.6690694E-004  0.9118800E+02  0.7818608E-02  0.1130116E+00
         25   -1    0    0    0    0  0.00000000000E+00  0.00000000000E+00  0.99999998245E-14  0.12500000000E+03  0.12500000000E+03 0.  0.
        -11    1    3    3    0    0 -0.35001781680E+02 -0.32050699147E+02  0.19039840362E+02  0.51135971272E+02  0.51100000000E-03 0. -1.
         23    2    1    0    0    0 -0.65748140362E+01  0.18568275328E+01  0.27912132709E+02  0.96263905268E+02  0.91874786078E+02 0.  0.
         11    1    3    3    0    0  0.28426967644E+02  0.33907526680E+02  0.88722923466E+01  0.45127933996E+02  0.51100000000E-03 0.  1.
         22    1    1    0    0    0  0.65748140362E+01 -0.18568275328E+01 -0.27912132709E+02  0.28736094732E+02  0.00000000000E+00 0.  1.
</event>
<event>
 5    1  0.6690694E-004  0.9118800E+02  0.7818608E-02  0.1130116E+00
         25   -1    0    0    0    0  0.00000000000E+00  0.00000000000E+00  0.99999998245E-14  0.12500000000E+03  0.12500000000E+03 0.  0.
        -11    1    3    3    0    0 -0.16183303064E+02 -0.98353514016E+01  0.27447178204E+02  0.33346379517E+02  0.51100000000E-03 0. -1.
         23    2    1    0    0    0  0.13624179725E+02  0.42660974040E+01 -0.25531006076E+02  0.95748502064E+02  0.91170858919E+02 0.  0.
         11    1    3    3    0    0  0.29807482789E+02  0.14101448806E+02 -0.52978184280E+02  0.62402122548E+02  0.51100000000E-03 0.  1.
         22    1    1    0    0    0 -0.13624179725E+02 -0.42660974040E+01  0.25531006076E+02  0.29251497936E+02  0.00000000000E+00 0.  1.
</event>
<event>
 5    1  0.6690694E-004  0.9118800E+02  0.7818608E-02  0.1130116E+00
         25   -1    0    0    0    0  0.00000000000E+00  0.00000000000E+00  0.99999998245E-14  0.12500000000E+03  0.12500000000E+03 0.  0.
        -11    1    3    3    0    0 -0.57890805497E+01 -0.31281232024E+02  0.19018933259E+02  0.37064116786E+02  0.51100000000E-03 0. -1.
         23    2    1    0    0    0  0.18121708268E+02  0.56054308091E+00 -0.23500844435E+02  0.95318352332E+02  0.90579181290E+02 0.  0.
         11    1    3    3    0    0  0.23910788817E+02  0.31841775105E+02 -0.42519777694E+02  0.58254235547E+02  0.51100000000E-03 0.  1.
         22    1    1    0    0    0 -0.18121708268E+02 -0.56054308091E+00  0.23500844435E+02  0.29681647668E+02  0.00000000000E+00 0.  1.
</event>
<event>
 5    1  0.6690694E-004  0.9118800E+02  0.7818608E-02  0.1130116E+00
         25   -1    0    0    0    0  0.00000000000E+00  0.00000000000E+00  0.99999998245E-14  0.12500000000E+03  0.12500000000E+03 0.  0.
        -11    1    3    3    0    0 -0.16311484444E+02  0.59612835733E+02  0.51827000540E+01  0.62021085842E+02  0.51100000000E-03 0.  1.
         23    2    1    0    0    0 -0.20069765397E+01  0.27900579724E+02  0.26388771306E+01  0.96903132270E+02  0.92740406875E+02 0.  0.
         11    1    3    3    0    0  0.14304507905E+02 -0.31712256010E+02 -0.25438229234E+01  0.34882046427E+02  0.51100000000E-03 0. -1.
         22    1    1    0    0    0  0.20069765397E+01 -0.27900579724E+02 -0.26388771306E+01  0.28096867730E+02  0.00000000000E+00 0.  1.
</event>
<event>
 5    1  0.6690694E-004  0.9118800E+02  0.7818608E-02  0.1130116E+00
         25   -1    0    0    0    0  0.00000000000E+00  0.00000000000E+00  0.99999998245E-14  0.12500000000E+03  0.12500000000E+03 0.  0.
        -11    1    3    3    0    0 -0.34048299053E+02 -0.29855330566E+02  0.78272760383E+00  0.45290618172E+02  0.51100000000E-03 0.  1.
         23    2    1    0    0    0 -0.16591988892E+02  0.12909424502E+02 -0.20038714710E+02  0.95956972893E+02  0.91456236655E+02 0.  0.
         11    1    3    3    0    0  0.17456310161E+02  0.42764755068E+02 -0.20821442313E+02  0.50666354721E+02  0.51100000000E-03 0. -1.
         22    1    1    0    0    0  0.16591988892E+02 -0.12909424502E+02  0.20038714710E+02  0.29043027107E+02  0.00000000000E+00 0. -1.
</event>
<event>
 5    1  0.6690694E-004  0.9118800E+02  0.7818608E-02  0.1130116E+00
         25   -1    0    0    0    0  0.00000000000E+00  0.00000000000E+00  0.99999998245E-14  0.12500000000E+03  0.12500000000E+03 0.  0.
        -11    1    3    3    0    0  0.54667067719E+02 -0.21104143099E+02  0.24639754167E+01  0.58651038559E+02  0.51100000000E-03 0.  1.
         23    2    1    0    0    0  0.15948144055E+02 -0.22201182380E+02 -0.17171288166E+01  0.97610506955E+02  0.93688989422E+02 0.  0.
         11    1    3    3    0    0 -0.38718923664E+02 -0.10970392806E+01 -0.41811042334E+01  0.38959468396E+02  0.51100000000E-03 0. -1.
         22    1    1    0    0    0 -0.15948144055E+02  0.22201182380E+02  0.17171288166E+01  0.27389493045E+02  0.00000000000E+00 0.  1.
</event>
<event>
 5    1  0.6690694E-004  0.9118800E+02  0.7818608E-02  0.1130116E+00
         25   -1    0    0    0    0  0.00000000000E+00  0.00000000000E+00  0.99999998245E-14  0.12500000000E+03  0.12500000000E+03 0.  0.
        -11    1    3    3    0    0  0.11135304473E+02 -0.86922886457E+00  0.52713065425E+02  0.53883372494E+02  0.51100000000E-03 0. -1.
         23    2    1    0    0    0  0.19780669283E+01  0.22369342525E+02  0.20975418451E+02  0.94271049270E+02  0.89122176350E+02 0.  0.
         11    1    3    3    0    0 -0.91572375448E+01  0.23238571390E+02 -0.31737646974E+02  0.40387676776E+02  0.51100000000E-03 0.  1.
         22    1    1    0    0    0 -0.19780669283E+01 -0.22369342525E+02 -0.20975418451E+02  0.30728950730E+02  0.00000000000E+00 0. -1.
</event>
<event>
 5    1  0.6690694E-004  0.9118800E+02  0.7818608E-02  0.1130116E+00
         25   -1    0    0    0    0  0.00000000000E+00  0.00000000000E+00  0.99999998245E-14  0.12500000000E+03  0.12500000000E+03 0.  0.
        -11    1    3    3    0    0  0.47023553499E+02 -0.16899000320E+02 -0.23219242288E+02  0.55099219670E+02  0.51100000000E-03 0. -1.
         23    2    1    0    0    0 -0.50350011336E+01  0.15119266867E+01  0.55439786138E+01  0.11735978681E+03  0.11711083085E+03 0.  0.
         11    1    3    3    0    0 -0.52058554633E+02  0.18410927007E+02  0.28763220902E+02  0.62260567140E+02  0.51100000000E-03 0.  1.
         22    1    1    0    0    0  0.50350011336E+01 -0.15119266867E+01 -0.55439786138E+01  0.76402131902E+01  0.00000000000E+00 0.  1.
</event>
<event>
 4    1  0.6690694E-004  0.9118800E+02  0.7818608E-02  0.1130116E+00
         25   -1    0    0    0    0  0.00000000000E+00  0.00000000000E+00  0.99999998245E-14  0.12500000000E+03  0.12500000000E+03 0.  0.
        -11    1    1    0    0    0  0.15366317896E+02 -0.10944553782E+01  0.63622445328E+00  0.15418376700E+02  0.51100000000E-03 0. -1.
         11    1    1    0    0    0 -0.17392917263E+02  0.53128718888E+02  0.90021523339E+01  0.56623432327E+02  0.51100000000E-03 0.  1.
         22    1    1    0    0    0  0.20265993670E+01 -0.52034263510E+02 -0.96383767871E+01  0.52958190973E+02  0.00000000000E+00 0.  1.
</event>
<event>
 5    1  0.6690694E-004  0.9118800E+02  0.7818608E-02  0.1130116E+00
         25   -1    0    0    0    0  0.00000000000E+00  0.00000000000E+00  0.99999998245E-14  0.12500000000E+03  0.12500000000E+03 0.  0.
        -11    1    3    3    0    0  0.61192050380E+01 -0.32388078890E+02  0.13437078292E+02  0.35594766438E+02  0.51100000000E-03 0.  1.
         23    2    1    0    0    0 -0.17162625378E+02  0.22772863004E+02  0.45119627222E+01  0.96129308861E+02  0.91691478422E+02 0.  0.
         11    1    3    3    0    0 -0.23281830416E+02  0.55160941894E+02 -0.89251155694E+01  0.60534542423E+02  0.51100000000E-03 0. -1.
         22    1    1    0    0    0  0.17162625378E+02 -0.22772863004E+02 -0.45119627222E+01  0.28870691139E+02  0.00000000000E+00 0. -1.
</event>
<event>
 4    1  0.6690694E-004  0.9118800E+02  0.7818608E-02  0.1130116E+00
         25   -1    0    0    0    0  0.00000000000E+00  0.00000000000E+00  0.99999998245E-14  0.12500000000E+03  0.12500000000E+03 0.  0.
        -11    1    1    0    0    0 -0.40454652167E+01 -0.99643076948E+01 -0.51145039700E+00  0.10766373504E+02  0.51100000000E-03 0.  1.
         11    1    1    0    0    0 -0.54598828703E+02  0.10597888058E+01  0.44256376405E+01  0.54788151245E+02  0.51100000000E-03 0. -1.
         22    1    1    0    0    0  0.58644293920E+02  0.89045188890E+01 -0.39141872435E+01  0.59445475251E+02  0.00000000000E+00 0. -1.
</event>
<event>
 5    1  0.6690694E-004  0.9118800E+02  0.7818608E-02  0.1130116E+00
         25   -1    0    0    0    0  0.00000000000E+00  0.00000000000E+00  0.99999998245E-14  0.12500000000E+03  0.12500000000E+03 0.  0.
        -11    1    3    3    0    0  0.40708929408E+02  0.42236645050E+02 -0.59061497422E+01  0.58957897890E+02  0.51100000000E-03 0. -1.
         23    2    1    0    0    0  0.26943066122E+02  0.89434136678E+01  0.40223242061E+01  0.96327843609E+02  0.91961736077E+02 0.  0.
         11    1    3    3    0    0 -0.13765863286E+02 -0.33293231382E+02  0.99284739483E+01  0.37369945719E+02  0.51100000000E-03 0.  1.
         22    1    1    0    0    0 -0.26943066122E+02 -0.89434136678E+01 -0.40223242061E+01  0.28672156391E+02  0.00000000000E+00 0. -1.
</event>
<event>
 5    1  0.6690694E-004  0.9118800E+02  0.7818608E-02  0.1130116E+00
         25   -1    0    0    0    0  0.00000000000E+00  0.00000000000E+00  0.99999998245E-14  0.12500000000E+03  0.12500000000E+03 0.  0.
        -11    1    3    3    0    0 -0.25298495773E+02  0.32272851395E+02 -0.21048160765E+02  0.46093122019E+02  0.51100000000E-03 0.  1.
         23    2    1    0    0    0 -0.18332526185E+02 -0.17762802259E+02 -0.67261257175E+01  0.98602283667E+02  0.95003004778E+02 0.  0.
         11    1    3    3    0    0  0.69659695886E+01 -0.50035653654E+02  0.14322035048E+02  0.52509161649E+02  0.51100000000E-03 0. -1.
         22    1    1    0    0    0  0.18332526185E+02  0.17762802259E+02  0.67261257175E+01  0.26397716333E+02  0.00000000000E+00 0. -1.
</event>
<event>
 5    1  0.6690694E-004  0.9118800E+02  0.7818608E-02  0.1130116E+00
         25   -1    0    0    0    0  0.00000000000E+00  0.00000000000E+00  0.99999998245E-14  0.12500000000E+03  0.12500000000E+03 0.  0.
        -11    1    3    3    0    0 -0.22108637973E+02  0.12168646842E+01  0.29963260038E+02  0.37256805889E+02  0.51100000000E-03 0.  1.
         23    2    1    0    0    0  0.15193918208E+02  0.24577172100E+02 -0.76026731217E+01  0.95122028558E+02  0.90307846500E+02 0.  0.
         11    1    3    3    0    0  0.37302556181E+02  0.23360307415E+02 -0.37565933159E+02  0.57865222669E+02  0.51100000000E-03 0. -1.
         22    1    1    0    0    0 -0.15193918208E+02 -0.24577172100E+02  0.76026731217E+01  0.29877971442E+02  0.00000000000E+00 0. -1.
</event>
<event>
 5    1  0.6690694E-004  0.9118800E+02  0.7818608E-02  0.1130116E+00
         25   -1    0    0    0    0  0.00000000000E+00  0.00000000000E+00  0.99999998245E-14  0.12500000000E+03  0.12500000000E+03 0.  0.
        -11    1    3    3    0    0  0.53280502602E+02 -0.93955469960E+01 -0.63793667753E+01  0.54477376787E+02  0.51100000000E-03 0. -1.
         23    2    1    0    0    0  0.15530149478E+02 -0.77165551332E+01 -0.23361376924E+02  0.95905589924E+02  0.91385980768E+02 0.  0.
         11    1    3    3    0    0 -0.37750353125E+02  0.16789918628E+01 -0.16982010148E+02  0.41428213136E+02  0.51100000000E-03 0.  1.
         22    1    1    0    0    0 -0.15530149478E+02  0.77165551332E+01  0.23361376924E+02  0.29094410076E+02  0.00000000000E+00 0. -1.
</event>
<event>
 5    1  0.6690694E-004  0.9118800E+02  0.7818608E-02  0.1130116E+00
         25   -1    0    0    0    0  0.00000000000E+00  0.00000000000E+00  0.99999998245E-14  0.12500000000E+03  0.12500000000E+03 0.  0.
        -11    1    3    3    0    0  0.15111813212E+02 -0.41653280450E+02 -0.93261972804E+01  0.45280687128E+02  0.51100000000E-03 0. -1.
         23    2    1    0    0    0  0.26620309051E+02  0.81235048974E+01 -0.63220364726E+01  0.96458795909E+02  0.92139562498E+02 0.  0.
         11    1    3    3    0    0  0.11508495839E+02  0.49776785348E+02  0.30041608079E+01  0.51178108781E+02  0.51100000000E-03 0.  1.
         22    1    1    0    0    0 -0.26620309051E+02 -0.81235048974E+01  0.63220364726E+01  0.28541204091E+02  0.00000000000E+00 0.  1.
</event>
<event>
 5    1  0.6690694E-004  0.9118800E+02  0.7818608E-02  0.1130116E+00
         25   -1    0    0    0    0  0.00000000000E+00  0.00000000000E+00  0.99999998245E-14  0.12500000000E+03  0.12500000000E+03 0.  0.
        -11    1    3    3    0    0 -0.24124882334E+02  0.30435331892E+02  0.44627384320E+02  0.59160145423E+02  0.51100000000E-03 0.  1.
         23    2    1    0    0    0 -0.19479780049E+02  0.14881628663E+02  0.80157012821E+01  0.99208990530E+02  0.95797952131E+02 0.  0.
         11    1    3    3    0    0  0.46451022844E+01 -0.15553703229E+02 -0.36611683038E+02  0.40048845108E+02  0.51100000000E-03 0. -1.
         22    1    1    0    0    0  0.19479780049E+02 -0.14881628663E+02 -0.80157012821E+01  0.25791009470E+02  0.00000000000E+00 0.  1.
</event>
<event>
 5    1  0.6690694E-004  0.9118800E+02  0.7818608E-02  0.1130116E+00
         25   -1    0    0    0    0  0.00000000000E+00  0.00000000000E+00  0.99999998245E-14  0.12500000000E+03  0.12500000000E+03 0.  0.
        -11    1    3    3    0    0  0.35941786638E+02 -0.26279421014E+02 -0.32908508214E+02  0.55365963450E+02  0.51100000000E-03 0. -1.
         23    2    1    0    0    0  0.16928197162E+02  0.77023448539E+01 -0.22763040015E+02  0.95605341197E+02  0.90974366166E+02 0.  0.
         11    1    3    3    0    0 -0.19013589475E+02  0.33981765868E+02  0.10145468199E+02  0.40239377747E+02  0.51100000000E-03 0.  1.
         22    1    1    0    0    0 -0.16928197162E+02 -0.77023448539E+01  0.22763040015E+02  0.29394658803E+02  0.00000000000E+00 0. -1.
</event>
<event>
 5    1  0.6690694E-004  0.9118800E+02  0.7818608E-02  0.1130116E+00
         25   -1    0    0    0    0  0.00000000000E+00  0.00000000000E+00  0.99999998245E-14  0.12500000000E+03  0.12500000000E+03 0.  0.
        -11    1    3    3    0    0  0.21641916626E-01 -0.38719204538E+02 -0.12679663325E+02  0.40742497846E+02  0.51100000000E-03 0. -1.
         23    2    1    0    0    0 -0.15448473220E+02 -0.18289040588E+02  0.27587826244E+02  0.88472852735E+02  0.80580476443E+02 0.  0.
         11    1    3    3    0    0 -0.15470115137E+02  0.20430163950E+02  0.40267489569E+02  0.47730354889E+02  0.51100000000E-03 0.  1.
         22    1    1    0    0    0  0.15448473220E+02  0.18289040588E+02 -0.27587826244E+02  0.36527147265E+02  0.00000000000E+00 0. -1.
</event>
<event>
 5    1  0.6690694E-004  0.9118800E+02  0.7818608E-02  0.1130116E+00
         25   -1    0    0    0    0  0.00000000000E+00  0.00000000000E+00  0.99999998245E-14  0.12500000000E+03  0.12500000000E+03 0.  0.
        -11    1    3    3    0    0 -0.43257864711E+02 -0.17650504346E+02 -0.16440016941E+02  0.49528348653E+02  0.51100000000E-03 0.  1.
         23    2    1    0    0    0 -0.58859037234E+00 -0.38293636351E+01 -0.28711184644E+02  0.96028590159E+02  0.91554068942E+02 0.  0.
         11    1    3    3    0    0  0.42669274338E+02  0.13821140711E+02 -0.12271167703E+02  0.46500241507E+02  0.51100000000E-03 0. -1.
         22    1    1    0    0    0  0.58859037234E+00  0.38293636351E+01  0.28711184644E+02  0.28971409841E+02  0.00000000000E+00 0.  1.
</event>
<event>
 5    1  0.6690694E-004  0.9118800E+02  0.7818608E-02  0.1130116E+00
         25   -1    0    0    0    0  0.00000000000E+00  0.00000000000E+00  0.99999998245E-14  0.12500000000E+03  0.12500000000E+03 0.  0.
        -11    1    3    3    0    0  0.27596569845E+02  0.29074012743E+02 -0.46259665388E+02  0.61211318612E+02  0.51100000000E-03 0.  1.
         23    2    1    0    0    0  0.20935125355E+02  0.97430552093E+01 -0.20315093115E+02  0.94244356506E+02  0.89084730041E+02 0.  0.
         11    1    3    3    0    0 -0.66614444893E+01 -0.19330957533E+02  0.25944572273E+02  0.33033037894E+02  0.51100000000E-03 0. -1.
         22    1    1    0    0    0 -0.20935125355E+02 -0.97430552093E+01  0.20315093115E+02  0.30755643494E+02  0.00000000000E+00 0.  1.
</event>
<event>
 5    1  0.6690694E-004  0.9118800E+02  0.7818608E-02  0.1130116E+00
         25   -1    0    0    0    0  0.00000000000E+00  0.00000000000E+00  0.99999998245E-14  0.12500000000E+03  0.12500000000E+03 0.  0.
        -11    1    3    3    0    0 -0.21441521249E+02  0.24853987098E+02  0.95081263860E+01  0.34174024870E+02  0.51100000000E-03 0.  1.
         23    2    1    0    0    0  0.13796317692E+02 -0.22361738524E+02 -0.10941629681E+02  0.96537656601E+02  0.92246485843E+02 0.  0.
         11    1    3    3    0    0  0.35237838942E+02 -0.47215725622E+02 -0.20449756067E+02  0.62363631732E+02  0.51100000000E-03 0. -1.
         22    1    1    0    0    0 -0.13796317692E+02  0.22361738524E+02  0.10941629681E+02  0.28462343399E+02  0.00000000000E+00 0. -1.
</event>
<event>
 5    1  0.6690694E-004  0.9118800E+02  0.7818608E-02  0.1130116E+00
         25   -1    0    0    0    0  0.00000000000E+00  0.00000000000E+00  0.99999998245E-14  0.12500000000E+03  0.12500000000E+03 0.  0.
        -11    1    3    3    0    0  0.23063425280E+02  0.34127435592E+01 -0.49410666543E+02  0.54634992200E+02  0.51100000000E-03 0.  1.
         23    2    1    0    0    0  0.20269681991E+02  0.19819746892E+02 -0.14844220511E+02  0.92999480356E+02  0.87320502112E+02 0.  0.
         11    1    3    3    0    0 -0.27937432883E+01  0.16407003333E+02  0.34566446032E+02  0.38364488156E+02  0.51100000000E-03 0. -1.
         22    1    1    0    0    0 -0.20269681991E+02 -0.19819746892E+02  0.14844220511E+02  0.32000519644E+02  0.00000000000E+00 0.  1.
</event>
<event>
 5    1  0.6690694E-004  0.9118800E+02  0.7818608E-02  0.1130116E+00
         25   -1    0    0    0    0  0.00000000000E+00  0.00000000000E+00  0.99999998245E-14  0.12500000000E+03  0.12500000000E+03 0.  0.
        -11    1    3    3    0    0  0.35285462484E+01  0.61336816958E+02  0.59830905847E+01  0.61728867853E+02  0.51100000000E-03 0. -1.
         23    2    1    0    0    0 -0.52771664346E+01  0.28716460912E+02  0.30429851753E+01  0.95644534211E+02  0.91028201964E+02 0.  0.
         11    1    3    3    0    0 -0.88057126830E+01 -0.32620356046E+02 -0.29401054093E+01  0.33915666358E+02  0.51100000000E-03 0.  1.
         22    1    1    0    0    0  0.52771664346E+01 -0.28716460912E+02 -0.30429851753E+01  0.29355465789E+02  0.00000000000E+00 0. -1.
</event>
<event>
 5    1  0.6690694E-004  0.9118800E+02  0.7818608E-02  0.1130116E+00
         25   -1    0    0    0    0  0.00000000000E+00  0.00000000000E+00  0.99999998245E-14  0.12500000000E+03  0.12500000000E+03 0.  0.
        -11    1    3    3    0    0  0.12695128897E+02  0.68765942656E+01 -0.30882500086E+02  0.34090800199E+02  0.51100000000E-03 0.  1.
         23    2    1    0    0    0 -0.50407764295E+00 -0.13031786477E+02  0.26070180243E+02  0.95849770997E+02  0.91309598341E+02 0.  0.
         11    1    3    3    0    0 -0.13199206540E+02 -0.19908380742E+02  0.56952680329E+02  0.61758970797E+02  0.51100000000E-03 0. -1.
         22    1    1    0    0    0  0.50407764295E+00  0.13031786477E+02 -0.26070180243E+02  0.29150229003E+02  0.00000000000E+00 0. -1.
</event>
<event>
 5    1  0.6690694E-004  0.9118800E+02  0.7818608E-02  0.1130116E+00
         25   -1    0    0    0    0  0.00000000000E+00  0.00000000000E+00  0.99999998245E-14  0.12500000000E+03  0.12500000000E+03 0.  0.
        -11    1    3    3    0    0 -0.49938903787E+02  0.29608591049E+02 -0.56870666931E+00  0.58059333469E+02  0.51100000000E-03 0.  1.
         23    2    1    0    0    0 -0.19151435147E+02  0.16819444121E+02  0.15605160697E+02  0.95113678562E+02  0.90296288077E+02 0.  0.
         11    1    3    3    0    0  0.30787468640E+02 -0.12789146928E+02  0.16173867366E+02  0.37054345092E+02  0.51100000000E-03 0. -1.
         22    1    1    0    0    0  0.19151435147E+02 -0.16819444121E+02 -0.15605160697E+02  0.29886321438E+02  0.00000000000E+00 0.  1.
</event>
<event>
 5    1  0.6690694E-004  0.9118800E+02  0.7818608E-02  0.1130116E+00
         25   -1    0    0    0    0  0.00000000000E+00  0.00000000000E+00  0.99999998245E-14  0.12500000000E+03  0.12500000000E+03 0.  0.
        -11    1    3    3    0    0  0.40010483436E+02  0.28564993757E+02 -0.23183295819E+02  0.54353131082E+02  0.51100000000E-03 0. -1.
         23    2    1    0    0    0  0.28015937527E+02 -0.29671661411E+01  0.24470645970E+01  0.96721298552E+02  0.92494997908E+02 0.  0.
         11    1    3    3    0    0 -0.11994545909E+02 -0.31532159898E+02  0.25630360416E+02  0.42368167470E+02  0.51100000000E-03 0.  1.
         22    1    1    0    0    0 -0.28015937527E+02  0.29671661411E+01 -0.24470645970E+01  0.28278701448E+02  0.00000000000E+00 0. -1.
</event>
<event>
 5    1  0.6690694E-004  0.9118800E+02  0.7818608E-02  0.1130116E+00
         25   -1    0    0    0    0  0.00000000000E+00  0.00000000000E+00  0.99999998245E-14  0.12500000000E+03  0.12500000000E+03 0.  0.
        -11    1    3    3    0    0  0.20179693552E+02  0.92973471736E+01 -0.41362960745E+02  0.46952691278E+02  0.51100000000E-03 0.  1.
         23    2    1    0    0    0  0.22296670389E+02  0.15066112323E+02  0.81794186080E+01  0.96874706406E+02  0.92702085206E+02 0.  0.
         11    1    3    3    0    0  0.21169768369E+01  0.57687651493E+01  0.49542379353E+02  0.49922015129E+02  0.51100000000E-03 0. -1.
         22    1    1    0    0    0 -0.22296670389E+02 -0.15066112323E+02 -0.81794186080E+01  0.28125293594E+02  0.00000000000E+00 0.  1.
</event>
<event>
 5    1  0.6690694E-004  0.9118800E+02  0.7818608E-02  0.1130116E+00
         25   -1    0    0    0    0  0.00000000000E+00  0.00000000000E+00  0.99999998245E-14  0.12500000000E+03  0.12500000000E+03 0.  0.
        -11    1    3    3    0    0  0.20106484565E+02  0.10705773391E+02  0.55594438233E+02  0.60080162018E+02  0.51100000000E-03 0.  1.
         23    2    1    0    0    0  0.13646075664E+02  0.13734586347E+02  0.17293506550E+02  0.99040038290E+02  0.95577244010E+02 0.  0.
         11    1    3    3    0    0 -0.64604089001E+01  0.30288129564E+01 -0.38300931683E+02  0.38959876272E+02  0.51100000000E-03 0. -1.
         22    1    1    0    0    0 -0.13646075664E+02 -0.13734586347E+02 -0.17293506550E+02  0.25959961710E+02  0.00000000000E+00 0.  1.
</event>
<event>
 5    1  0.6690694E-004  0.9118800E+02  0.7818608E-02  0.1130116E+00
         25   -1    0    0    0    0  0.00000000000E+00  0.00000000000E+00  0.99999998245E-14  0.12500000000E+03  0.12500000000E+03 0.  0.
        -11    1    3    3    0    0 -0.39186585219E+02  0.42960913054E+02 -0.74251712020E+01  0.58620488562E+02  0.51100000000E-03 0. -1.
         23    2    1    0    0    0 -0.22933802973E+02  0.15193511077E+02  0.10621889089E+02  0.95510567563E+02  0.90844052588E+02 0.  0.
         11    1    3    3    0    0  0.16252782246E+02 -0.27767401977E+02  0.18047060291E+02  0.36890079001E+02  0.51100000000E-03 0.  1.
         22    1    1    0    0    0  0.22933802973E+02 -0.15193511077E+02 -0.10621889089E+02  0.29489432437E+02  0.00000000000E+00 0. -1.
</event>
<event>
 5    1  0.6690694E-004  0.9118800E+02  0.7818608E-02  0.1130116E+00
         25   -1    0    0    0    0  0.00000000000E+00  0.00000000000E+00  0.99999998245E-14  0.12500000000E+03  0.12500000000E+03 0.  0.
        -11    1    3    3    0    0 -0.38844921799E+01 -0.76549101067E+01  0.33605001092E+02  0.34684045711E+02  0.51100000000E-03 0.  1.
         23    2    1    0    0    0  0.14147286984E+01 -0.39881403826E+01 -0.28028673890E+02  0.96653690169E+02  0.92403585115E+02 0.  0.
         11    1    3    3    0    0  0.52992208784E+01  0.36667697241E+01 -0.61633674982E+02  0.61969644458E+02  0.51100000000E-03 0. -1.
         22    1    1    0    0    0 -0.14147286984E+01  0.39881403826E+01  0.28028673890E+02  0.28346309831E+02  0.00000000000E+00 0. -1.
</event>
<event>
 5    1  0.6690694E-004  0.9118800E+02  0.7818608E-02  0.1130116E+00
         25   -1    0    0    0    0  0.00000000000E+00  0.00000000000E+00  0.99999998245E-14  0.12500000000E+03  0.12500000000E+03 0.  0.
        -11    1    3    3    0    0 -0.95001474661E+01 -0.13363400496E+02 -0.53107949150E+02  0.55581359626E+02  0.51100000000E-03 0.  1.
         23    2    1    0    0    0  0.46902754730E+01 -0.23762621057E+02 -0.18093967459E+02  0.94766698792E+02  0.89814668613E+02 0.  0.
         11    1    3    3    0    0  0.14190422939E+02 -0.10399220561E+02  0.35013981691E+02  0.39185339166E+02  0.51100000000E-03 0. -1.
         22    1    1    0    0    0 -0.46902754730E+01  0.23762621057E+02  0.18093967459E+02  0.30233301208E+02  0.00000000000E+00 0.  1.
</event>
<event>
 5    1  0.6690694E-004  0.9118800E+02  0.7818608E-02  0.1130116E+00
         25   -1    0    0    0    0  0.00000000000E+00  0.00000000000E+00  0.99999998245E-14  0.12500000000E+03  0.12500000000E+03 0.  0.
        -11    1    3    3    0    0  0.13400186166E+02  0.39269850112E+02  0.25239515513E+02  0.48566647616E+02  0.51100000000E-03 0. -1.
         23    2    1    0    0    0  0.28728736235E+02 -0.12648814879E+01  0.86362317953E+01  0.94974598912E+02  0.90103550030E+02 0.  0.
         11    1    3    3    0    0  0.15328550069E+02 -0.40534731600E+02 -0.16603283717E+02  0.46407951296E+02  0.51100000000E-03 0.  1.
         22    1    1    0    0    0 -0.28728736235E+02  0.12648814879E+01 -0.86362317953E+01  0.30025401088E+02  0.00000000000E+00 0. -1.
</event>
<event>
 5    1  0.6690694E-004  0.9118800E+02  0.7818608E-02  0.1130116E+00
         25   -1    0    0    0    0  0.00000000000E+00  0.00000000000E+00  0.99999998245E-14  0.12500000000E+03  0.12500000000E+03 0.  0.
        -11    1    3    3    0    0  0.12340307335E+02 -0.29747018243E+02  0.47266118477E+02  0.57194879452E+02  0.51100000000E-03 0. -1.
         23    2    1    0    0    0 -0.12101581568E+02 -0.82852959187E+01  0.22775232213E+02  0.97911153453E+02  0.94089257427E+02 0.  0.
         11    1    3    3    0    0 -0.24441888902E+02  0.21461722324E+02 -0.24490886263E+02  0.40716274000E+02  0.51100000000E-03 0.  1.
         22    1    1    0    0    0  0.12101581568E+02  0.82852959187E+01 -0.22775232213E+02  0.27088846547E+02  0.00000000000E+00 0. -1.
</event>
<event>
 5    1  0.6690694E-004  0.9118800E+02  0.7818608E-02  0.1130116E+00
         25   -1    0    0    0    0  0.00000000000E+00  0.00000000000E+00  0.99999998245E-14  0.12500000000E+03  0.12500000000E+03 0.  0.
        -11    1    3    3    0    0  0.28133292889E+02  0.13503750802E+02  0.44864575156E+02  0.54650375650E+02  0.51100000000E-03 0. -1.
         23    2    1    0    0    0  0.25382035287E+02  0.11489836844E+02  0.26385586256E+01  0.97013823811E+02  0.92889482466E+02 0.  0.
         11    1    3    3    0    0 -0.27512576016E+01 -0.20139139576E+01 -0.42226016530E+02  0.42363448161E+02  0.51100000000E-03 0.  1.
         22    1    1    0    0    0 -0.25382035287E+02 -0.11489836844E+02 -0.26385586256E+01  0.27986176189E+02  0.00000000000E+00 0. -1.
</event>
<event>
 5    1  0.6690694E-004  0.9118800E+02  0.7818608E-02  0.1130116E+00
         25   -1    0    0    0    0  0.00000000000E+00  0.00000000000E+00  0.99999998245E-14  0.12500000000E+03  0.12500000000E+03 0.  0.
        -11    1    3    3    0    0 -0.18172913379E+02  0.46011908913E+02  0.19182760941E+02  0.53059672634E+02  0.51100000000E-03 0. -1.
         23    2    1    0    0    0 -0.99034522344E+01  0.48728964059E+01  0.27078921295E+02  0.95758053005E+02  0.91183952817E+02 0.  0.
         11    1    3    3    0    0  0.82694611444E+01 -0.41139012507E+02  0.78961603542E+01  0.42698380371E+02  0.51100000000E-03 0.  1.
         22    1    1    0    0    0  0.99034522344E+01 -0.48728964059E+01 -0.27078921295E+02  0.29241946995E+02  0.00000000000E+00 0. -1.
</event>
<event>
 5    1  0.6690694E-004  0.9118800E+02  0.7818608E-02  0.1130116E+00
         25   -1    0    0    0    0  0.00000000000E+00  0.00000000000E+00  0.99999998245E-14  0.12500000000E+03  0.12500000000E+03 0.  0.
        -11    1    3    3    0    0  0.27872861405E+02 -0.38660813600E+02  0.24520657662E+02  0.53598671285E+02  0.51100000000E-03 0.  1.
         23    2    1    0    0    0  0.29192366148E+02 -0.47418390518E+01  0.83063827152E-01  0.95424906112E+02  0.90726107202E+02 0.  0.
         11    1    3    3    0    0  0.13195047428E+01  0.33918974548E+02 -0.24437593834E+02  0.41826234827E+02  0.51100000000E-03 0. -1.
         22    1    1    0    0    0 -0.29192366148E+02  0.47418390518E+01 -0.83063827152E-01  0.29575093888E+02  0.00000000000E+00 0. -1.
</event>
<event>
 5    1  0.6690694E-004  0.9118800E+02  0.7818608E-02  0.1130116E+00
         25   -1    0    0    0    0  0.00000000000E+00  0.00000000000E+00  0.99999998245E-14  0.12500000000E+03  0.12500000000E+03 0.  0.
        -11    1    3    3    0    0  0.19096140140E+02  0.24297342964E+02  0.28249468593E+02  0.41869510618E+02  0.51100000000E-03 0. -1.
         23    2    1    0    0    0 -0.16320781991E+02  0.21588149690E+02 -0.11865121012E+02  0.95450089197E+02  0.90760797150E+02 0.  0.
         11    1    3    3    0    0 -0.35416922131E+02 -0.27091932737E+01 -0.40114589605E+02  0.53580578579E+02  0.51100000000E-03 0.  1.
         22    1    1    0    0    0  0.16320781991E+02 -0.21588149690E+02  0.11865121012E+02  0.29549910803E+02  0.00000000000E+00 0.  1.
</event>
<event>
 5    1  0.6690694E-004  0.9118800E+02  0.7818608E-02  0.1130116E+00
         25   -1    0    0    0    0  0.00000000000E+00  0.00000000000E+00  0.99999998245E-14  0.12500000000E+03  0.12500000000E+03 0.  0.
        -11    1    3    3    0    0 -0.10104476666E+02 -0.41059763086E+00  0.46845002803E+02  0.47924141379E+02  0.51100000000E-03 0.  1.
         23    2    1    0    0    0 -0.13927878531E+02  0.23854126905E+02  0.43091040815E+01  0.97043363064E+02  0.92929224499E+02 0.  0.
         11    1    3    3    0    0 -0.38234018647E+01  0.24264724536E+02 -0.42535898721E+02  0.49119221685E+02  0.51100000000E-03 0. -1.
         22    1    1    0    0    0  0.13927878531E+02 -0.23854126905E+02 -0.43091040815E+01  0.27956636936E+02  0.00000000000E+00 0. -1.
</event>
<event>
 5    1  0.6690694E-004  0.9118800E+02  0.7818608E-02  0.1130116E+00
         25   -1    0    0    0    0  0.00000000000E+00  0.00000000000E+00  0.99999998245E-14  0.12500000000E+03  0.12500000000E+03 0.  0.
        -11    1    3    3    0    0  0.14147120331E+02  0.16524816831E+02 -0.36248980681E+02  0.42275278658E+02  0.51100000000E-03 0. -1.
         23    2    1    0    0    0  0.22245601120E+02 -0.21119993361E+02 -0.12661742917E+01  0.94299444857E+02  0.89161994225E+02 0.  0.
         11    1    3    3    0    0  0.80984807892E+01 -0.37644810192E+02  0.34982806390E+02  0.52024166198E+02  0.51100000000E-03 0.  1.
         22    1    1    0    0    0 -0.22245601120E+02  0.21119993361E+02  0.12661742917E+01  0.30700555143E+02  0.00000000000E+00 0.  1.
</event>
<event>
 5    1  0.6690694E-004  0.9118800E+02  0.7818608E-02  0.1130116E+00
         25   -1    0    0    0    0  0.00000000000E+00  0.00000000000E+00  0.99999998245E-14  0.12500000000E+03  0.12500000000E+03 0.  0.
        -11    1    3    3    0    0  0.36353191752E+02 -0.43946914281E+01  0.31147401485E+02  0.48073157612E+02  0.51100000000E-03 0.  1.
         23    2    1    0    0    0  0.10648903911E+02 -0.27330238409E+02 -0.16285337886E+01  0.95623253953E+02  0.90998975205E+02 0.  0.
         11    1    3    3    0    0 -0.25704287841E+02 -0.22935546981E+02 -0.32775935274E+02  0.47550096341E+02  0.51100000000E-03 0. -1.
         22    1    1    0    0    0 -0.10648903911E+02  0.27330238409E+02  0.16285337886E+01  0.29376746047E+02  0.00000000000E+00 0.  1.
</event>
<event>
 5    1  0.6690694E-004  0.9118800E+02  0.7818608E-02  0.1130116E+00
         25   -1    0    0    0    0  0.00000000000E+00  0.00000000000E+00  0.99999998245E-14  0.12500000000E+03  0.12500000000E+03 0.  0.
        -11    1    3    3    0    0 -0.24836749780E+02  0.15109138429E+02  0.14377107157E+02  0.32432258851E+02  0.51100000000E-03 0.  1.
         23    2    1    0    0    0  0.19528889973E+02 -0.20637794489E+02 -0.10643236343E+02  0.94659027952E+02  0.89664691981E+02 0.  0.
         11    1    3    3    0    0  0.44365639753E+02 -0.35746932918E+02 -0.25020343499E+02  0.62226769102E+02  0.51100000000E-03 0. -1.
         22    1    1    0    0    0 -0.19528889973E+02  0.20637794489E+02  0.10643236343E+02  0.30340972048E+02  0.00000000000E+00 0. -1.
</event>
<event>
 5    1  0.6690694E-004  0.9118800E+02  0.7818608E-02  0.1130116E+00
         25   -1    0    0    0    0  0.00000000000E+00  0.00000000000E+00  0.99999998245E-14  0.12500000000E+03  0.12500000000E+03 0.  0.
        -11    1    3    3    0    0  0.26904679727E+02  0.45303367867E+02  0.13072628045E+02  0.54287664672E+02  0.51100000000E-03 0.  1.
         23    2    1    0    0    0  0.10695994139E+02  0.88974404846E+01  0.25431788891E+02  0.96011301788E+02  0.91530461853E+02 0.  0.
         11    1    3    3    0    0 -0.16208685589E+02 -0.36405927382E+02  0.12359160846E+02  0.41723637116E+02  0.51100000000E-03 0. -1.
         22    1    1    0    0    0 -0.10695994139E+02 -0.88974404846E+01 -0.25431788891E+02  0.28988698212E+02  0.00000000000E+00 0.  1.
</event>
<event>
 5    1  0.6690694E-004  0.9118800E+02  0.7818608E-02  0.1130116E+00
         25   -1    0    0    0    0  0.00000000000E+00  0.00000000000E+00  0.99999998245E-14  0.12500000000E+03  0.12500000000E+03 0.  0.
        -11    1    3    3    0    0  0.53319932447E+02  0.14751389875E+02  0.17442497124E+02  0.58007408195E+02  0.51100000000E-03 0.  1.
         23    2    1    0    0    0  0.22436254465E+02  0.20117822589E+02 -0.18386193959E+01  0.94809060607E+02  0.89873606536E+02 0.  0.
         11    1    3    3    0    0 -0.30883677982E+02  0.53664327145E+01 -0.19281116519E+02  0.36801652412E+02  0.51100000000E-03 0. -1.
         22    1    1    0    0    0 -0.22436254465E+02 -0.20117822589E+02  0.18386193959E+01  0.30190939393E+02  0.00000000000E+00 0.  1.
</event>
<event>
 5    1  0.6690694E-004  0.9118800E+02  0.7818608E-02  0.1130116E+00
         25   -1    0    0    0    0  0.00000000000E+00  0.00000000000E+00  0.99999998245E-14  0.12500000000E+03  0.12500000000E+03 0.  0.
        -11    1    3    3    0    0 -0.35072062703E+02  0.16948145027E+02  0.89457302715E+01  0.39966427066E+02  0.51100000000E-03 0.  1.
         23    2    1    0    0    0  0.20845468033E+02  0.80848906374E+00  0.16159825088E+02  0.98611988727E+02  0.95015773331E+02 0.  0.
         11    1    3    3    0    0  0.55917530736E+02 -0.16139655963E+02  0.72140948160E+01  0.58645561661E+02  0.51100000000E-03 0. -1.
         22    1    1    0    0    0 -0.20845468033E+02 -0.80848906374E+00 -0.16159825088E+02  0.26388011273E+02  0.00000000000E+00 0. -1.
</event>
<event>
 5    1  0.6690694E-004  0.9118800E+02  0.7818608E-02  0.1130116E+00
         25   -1    0    0    0    0  0.00000000000E+00  0.00000000000E+00  0.99999998245E-14  0.12500000000E+03  0.12500000000E+03 0.  0.
        -11    1    3    3    0    0 -0.13649132929E+02 -0.42850586104E+02  0.42845252096E+02  0.62114307423E+02  0.51100000000E-03 0.  1.
         23    2    1    0    0    0 -0.83715176794E+01 -0.16730016192E+02  0.23067380186E+02  0.95300172076E+02  0.90554088914E+02 0.  0.
         11    1    3    3    0    0  0.52776152500E+01  0.26120569913E+02 -0.19777871909E+02  0.33185864654E+02  0.51100000000E-03 0. -1.
         22    1    1    0    0    0  0.83715176794E+01  0.16730016192E+02 -0.23067380186E+02  0.29699827924E+02  0.00000000000E+00 0.  1.
</event>
<event>
 5    1  0.6690694E-004  0.9118800E+02  0.7818608E-02  0.1130116E+00
         25   -1    0    0    0    0  0.00000000000E+00  0.00000000000E+00  0.99999998245E-14  0.12500000000E+03  0.12500000000E+03 0.  0.
        -11    1    3    3    0    0 -0.15859517899E+02  0.23732754018E+02  0.18388547582E+02  0.33954478404E+02  0.51100000000E-03 0.  1.
         23    2    1    0    0    0  0.73527494324E+01 -0.25071276836E+02 -0.12321047997E+02  0.96113323657E+02  0.91669683724E+02 0.  0.
         11    1    3    3    0    0  0.23212267332E+02 -0.48804030854E+02 -0.30709595579E+02  0.62158845253E+02  0.51100000000E-03 0. -1.
         22    1    1    0    0    0 -0.73527494324E+01  0.25071276836E+02  0.12321047997E+02  0.28886676343E+02  0.00000000000E+00 0. -1.
</event>
<event>
 5    1  0.6690694E-004  0.9118800E+02  0.7818608E-02  0.1130116E+00
         25   -1    0    0    0    0  0.00000000000E+00  0.00000000000E+00  0.99999998245E-14  0.12500000000E+03  0.12500000000E+03 0.  0.
        -11    1    3    3    0    0  0.12873190505E+02  0.20691205653E+02  0.20909605877E+02  0.32110070747E+02  0.51100000000E-03 0. -1.
         23    2    1    0    0    0 -0.12452223503E+02 -0.13182072469E+02 -0.24730416676E+02  0.94333757750E+02  0.89210085963E+02 0.  0.
         11    1    3    3    0    0 -0.25325414009E+02 -0.33873278122E+02 -0.45640022553E+02  0.62223687004E+02  0.51100000000E-03 0.  1.
         22    1    1    0    0    0  0.12452223503E+02  0.13182072469E+02  0.24730416676E+02  0.30666242250E+02  0.00000000000E+00 0.  1.
</event>
<event>
 5    1  0.6690694E-004  0.9118800E+02  0.7818608E-02  0.1130116E+00
         25   -1    0    0    0    0  0.00000000000E+00  0.00000000000E+00  0.99999998245E-14  0.12500000000E+03  0.12500000000E+03 0.  0.
        -11    1    3    3    0    0  0.32309873717E+02  0.29231731536E+02  0.13661898579E+02  0.45662561703E+02  0.51100000000E-03 0.  1.
         23    2    1    0    0    0  0.83555456754E+01 -0.14370631343E+02  0.23341070643E+02  0.96344533375E+02  0.91984419028E+02 0.  0.
         11    1    3    3    0    0 -0.23954328042E+02 -0.43602362879E+02  0.96791720635E+01  0.50681971673E+02  0.51100000000E-03 0. -1.
         22    1    1    0    0    0 -0.83555456754E+01  0.14370631343E+02 -0.23341070643E+02  0.28655466625E+02  0.00000000000E+00 0. -1.
</event>
<event>
 5    1  0.6690694E-004  0.9118800E+02  0.7818608E-02  0.1130116E+00
         25   -1    0    0    0    0  0.00000000000E+00  0.00000000000E+00  0.99999998245E-14  0.12500000000E+03  0.12500000000E+03 0.  0.
        -11    1    3    3    0    0  0.23618969100E+02 -0.30328271364E+02  0.39305236328E+02  0.54977825970E+02  0.51100000000E-03 0.  1.
         23    2    1    0    0    0 -0.97265805552E+01 -0.20501295210E+02  0.20059699265E+02  0.94713022449E+02  0.89739933208E+02 0.  0.
         11    1    3    3    0    0 -0.33345549655E+02  0.98269761546E+01 -0.19245537063E+02  0.39735196479E+02  0.51100000000E-03 0. -1.
         22    1    1    0    0    0  0.97265805552E+01  0.20501295210E+02 -0.20059699265E+02  0.30286977551E+02  0.00000000000E+00 0.  1.
</event>
<event>
 5    1  0.6690694E-004  0.9118800E+02  0.7818608E-02  0.1130116E+00
         25   -1    0    0    0    0  0.00000000000E+00  0.00000000000E+00  0.99999998245E-14  0.12500000000E+03  0.12500000000E+03 0.  0.
        -11    1    3    3    0    0  0.19586849169E+02  0.26425277160E+02 -0.72973976005E+01  0.33692609655E+02  0.51100000000E-03 0. -1.
         23    2    1    0    0    0 -0.15998742620E+02 -0.23240070493E+02  0.58404999561E+01  0.96187293052E+02  0.91770492333E+02 0.  0.
         11    1    3    3    0    0 -0.35585591790E+02 -0.49665347652E+02  0.13137897557E+02  0.62494683397E+02  0.51100000000E-03 0.  1.
         22    1    1    0    0    0  0.15998742620E+02  0.23240070493E+02 -0.58404999561E+01  0.28812706948E+02  0.00000000000E+00 0.  1.
</event>
<event>
 5    1  0.6690694E-004  0.9118800E+02  0.7818608E-02  0.1130116E+00
         25   -1    0    0    0    0  0.00000000000E+00  0.00000000000E+00  0.99999998245E-14  0.12500000000E+03  0.12500000000E+03 0.  0.
        -11    1    3    3    0    0 -0.14185393742E+02  0.27065514345E+02 -0.21305369796E+02  0.37251660966E+02  0.51100000000E-03 0.  1.
         23    2    1    0    0    0 -0.78344978821E+01 -0.24978760942E+02  0.83930189358E+01  0.97508899219E+02  0.93553325996E+02 0.  0.
         11    1    3    3    0    0  0.63508958598E+01 -0.52044275287E+02  0.29698388732E+02  0.60257238253E+02  0.51100000000E-03 0. -1.
         22    1    1    0    0    0  0.78344978821E+01  0.24978760942E+02 -0.83930189358E+01  0.27491100781E+02  0.00000000000E+00 0. -1.
</event>
<event>
 5    1  0.6690694E-004  0.9118800E+02  0.7818608E-02  0.1130116E+00
         25   -1    0    0    0    0  0.00000000000E+00  0.00000000000E+00  0.99999998245E-14  0.12500000000E+03  0.12500000000E+03 0.  0.
        -11    1    3    3    0    0 -0.24968172122E+02 -0.19160168169E+02 -0.24005542262E+02  0.39582669478E+02  0.51100000000E-03 0. -1.
         23    2    1    0    0    0 -0.16350054546E+02  0.11977709337E+02  0.21539869929E+02  0.95423729086E+02  0.90724485512E+02 0.  0.
         11    1    3    3    0    0  0.86181175765E+01  0.31137877507E+02  0.45545412192E+02  0.55841059608E+02  0.51100000000E-03 0.  1.
         22    1    1    0    0    0  0.16350054546E+02 -0.11977709337E+02 -0.21539869929E+02  0.29576270914E+02  0.00000000000E+00 0.  1.
</event>
<event>
 5    1  0.6690694E-004  0.9118800E+02  0.7818608E-02  0.1130116E+00
         25   -1    0    0    0    0  0.00000000000E+00  0.00000000000E+00  0.99999998245E-14  0.12500000000E+03  0.12500000000E+03 0.  0.
        -11    1    3    3    0    0  0.56429670143E+01  0.32398440358E+02 -0.23017298337E+02  0.40140977036E+02  0.51100000000E-03 0.  1.
         23    2    1    0    0    0  0.19772553631E+02 -0.19563227462E+02 -0.70889939177E+01  0.96295861263E+02  0.91918253442E+02 0.  0.
         11    1    3    3    0    0  0.14129586617E+02 -0.51961667821E+02  0.15928304420E+02  0.56154884228E+02  0.51100000000E-03 0. -1.
         22    1    1    0    0    0 -0.19772553631E+02  0.19563227462E+02  0.70889939177E+01  0.28704138737E+02  0.00000000000E+00 0. -1.
</event>
<event>
 5    1  0.6690694E-004  0.9118800E+02  0.7818608E-02  0.1130116E+00
         25   -1    0    0    0    0  0.00000000000E+00  0.00000000000E+00  0.99999998245E-14  0.12500000000E+03  0.12500000000E+03 0.  0.
        -11    1    3    3    0    0 -0.34674021713E+02  0.65872708460E+01 -0.39313887111E+02  0.52832391949E+02  0.51100000000E-03 0. -1.
         23    2    1    0    0    0  0.46887524642E+01 -0.65404816040E+01 -0.28035980243E+02  0.95831892631E+02  0.91285120134E+02 0.  0.
         11    1    3    3    0    0  0.39362774178E+02 -0.13127752450E+02  0.11277906868E+02  0.42999500682E+02  0.51100000000E-03 0.  1.
         22    1    1    0    0    0 -0.46887524642E+01  0.65404816040E+01  0.28035980243E+02  0.29168107369E+02  0.00000000000E+00 0. -1.
</event>
<event>
 5    1  0.6690694E-004  0.9118800E+02  0.7818608E-02  0.1130116E+00
         25   -1    0    0    0    0  0.00000000000E+00  0.00000000000E+00  0.99999998245E-14  0.12500000000E+03  0.12500000000E+03 0.  0.
        -11    1    3    3    0    0  0.38019770477E+02 -0.36750756062E+02  0.30725389011E+02  0.61156933771E+02  0.51100000000E-03 0. -1.
         23    2    1    0    0    0  0.20084299106E+02 -0.94669471596E+01  0.18762764388E+02  0.95930368310E+02  0.91419866974E+02 0.  0.
         11    1    3    3    0    0 -0.17935471370E+02  0.27283808902E+02 -0.11962624623E+02  0.34773434539E+02  0.51100000000E-03 0.  1.
         22    1    1    0    0    0 -0.20084299106E+02  0.94669471596E+01 -0.18762764388E+02  0.29069631690E+02  0.00000000000E+00 0. -1.
</event>
<event>
 5    1  0.6690694E-004  0.9118800E+02  0.7818608E-02  0.1130116E+00
         25   -1    0    0    0    0  0.00000000000E+00  0.00000000000E+00  0.99999998245E-14  0.12500000000E+03  0.12500000000E+03 0.  0.
        -11    1    3    3    0    0 -0.15386486872E+02 -0.14710671737E+02 -0.31563096978E+02  0.38070683370E+02  0.51100000000E-03 0.  1.
         23    2    1    0    0    0  0.12348898674E+01  0.28714243681E+02  0.31367502289E+01  0.96088549930E+02  0.91635896256E+02 0.  0.
         11    1    3    3    0    0  0.16621376739E+02  0.43424915418E+02  0.34699847206E+02  0.58017866560E+02  0.51100000000E-03 0. -1.
         22    1    1    0    0    0 -0.12348898674E+01 -0.28714243681E+02 -0.31367502289E+01  0.28911450070E+02  0.00000000000E+00 0. -1.
</event>
<event>
 5    1  0.6690694E-004  0.9118800E+02  0.7818608E-02  0.1130116E+00
         25   -1    0    0    0    0  0.00000000000E+00  0.00000000000E+00  0.99999998245E-14  0.12500000000E+03  0.12500000000E+03 0.  0.
        -11    1    3    3    0    0  0.66883049354E+01  0.34848337830E+01 -0.49433484492E+02  0.50005468488E+02  0.51100000000E-03 0. -1.
         23    2    1    0    0    0 -0.77007126220E+01  0.26919093688E+02 -0.18268104056E+02  0.91568544667E+02  0.85247499476E+02 0.  0.
         11    1    3    3    0    0 -0.14389017557E+02  0.23434259905E+02  0.31165380436E+02  0.41563076180E+02  0.51100000000E-03 0.  1.
         22    1    1    0    0    0  0.77007126220E+01 -0.26919093688E+02  0.18268104056E+02  0.33431455333E+02  0.00000000000E+00 0. -1.
</event>
<event>
 5    1  0.6690694E-004  0.9118800E+02  0.7818608E-02  0.1130116E+00
         25   -1    0    0    0    0  0.00000000000E+00  0.00000000000E+00  0.99999998245E-14  0.12500000000E+03  0.12500000000E+03 0.  0.
        -11    1    3    3    0    0 -0.87895871942E+01  0.50466883890E+02 -0.32831798972E+02  0.60844804516E+02  0.51100000000E-03 0.  1.
         23    2    1    0    0    0  0.58474112503E+01  0.24662328345E+02 -0.17103438884E+02  0.94423043326E+02  0.89335104140E+02 0.  0.
         11    1    3    3    0    0  0.14636998445E+02 -0.25804555544E+02  0.15728360088E+02  0.33578238811E+02  0.51100000000E-03 0. -1.
         22    1    1    0    0    0 -0.58474112503E+01 -0.24662328345E+02  0.17103438884E+02  0.30576956674E+02  0.00000000000E+00 0.  1.
</event>
<event>
 5    1  0.6690694E-004  0.9118800E+02  0.7818608E-02  0.1130116E+00
         25   -1    0    0    0    0  0.00000000000E+00  0.00000000000E+00  0.99999998245E-14  0.12500000000E+03  0.12500000000E+03 0.  0.
        -11    1    3    3    0    0  0.57384242047E+02 -0.11314417140E+02  0.91388158005E+01  0.59198692764E+02  0.51100000000E-03 0. -1.
         23    2    1    0    0    0  0.23775224012E+02 -0.16770317671E+02 -0.38717401004E+01  0.95648761474E+02  0.91034006660E+02 0.  0.
         11    1    3    3    0    0 -0.33609018035E+02 -0.54559005303E+01 -0.13010555901E+02  0.36450068710E+02  0.51100000000E-03 0.  1.
         22    1    1    0    0    0 -0.23775224012E+02  0.16770317671E+02  0.38717401004E+01  0.29351238526E+02  0.00000000000E+00 0. -1.
</event>
<event>
 5    1  0.6690694E-004  0.9118800E+02  0.7818608E-02  0.1130116E+00
         25   -1    0    0    0    0  0.00000000000E+00  0.00000000000E+00  0.99999998245E-14  0.12500000000E+03  0.12500000000E+03 0.  0.
        -11    1    3    3    0    0 -0.33784115817E+02  0.24392426494E+00  0.72796736454E+01  0.34560376578E+02  0.51100000000E-03 0. -1.
         23    2    1    0    0    0  0.26709947022E+02  0.74837089792E+01 -0.52701683119E+01  0.96765236958E+02  0.92554358295E+02 0.  0.
         11    1    3    3    0    0  0.60494062839E+02  0.72397847143E+01 -0.12549841957E+02  0.62204860380E+02  0.51100000000E-03 0.  1.
         22    1    1    0    0    0 -0.26709947022E+02 -0.74837089792E+01  0.52701683119E+01  0.28234763042E+02  0.00000000000E+00 0.  1.
</event>
<event>
 5    1  0.6690694E-004  0.9118800E+02  0.7818608E-02  0.1130116E+00
         25   -1    0    0    0    0  0.00000000000E+00  0.00000000000E+00  0.99999998245E-14  0.12500000000E+03  0.12500000000E+03 0.  0.
        -11    1    3    3    0    0  0.28175780503E+02  0.42146206279E+01 -0.53212792122E+02  0.60359248502E+02  0.51100000000E-03 0. -1.
         23    2    1    0    0    0  0.23050285878E+02  0.50691588105E+00 -0.19080559692E+02  0.95072748189E+02  0.90239609082E+02 0.  0.
         11    1    3    3    0    0 -0.51254946246E+01 -0.37077047469E+01  0.34132232430E+02  0.34713499688E+02  0.51100000000E-03 0.  1.
         22    1    1    0    0    0 -0.23050285878E+02 -0.50691588105E+00  0.19080559692E+02  0.29927251811E+02  0.00000000000E+00 0. -1.
</event>
<event>
 5    1  0.6690694E-004  0.9118800E+02  0.7818608E-02  0.1130116E+00
         25   -1    0    0    0    0  0.00000000000E+00  0.00000000000E+00  0.99999998245E-14  0.12500000000E+03  0.12500000000E+03 0.  0.
        -11    1    3    3    0    0 -0.39283869361E+02 -0.51553199008E+01  0.37222315284E+02  0.54362675345E+02  0.51100000000E-03 0. -1.
         23    2    1    0    0    0 -0.13809866407E+02 -0.23481029738E+02  0.97595372078E+01  0.96063522428E+02  0.91601750021E+02 0.  0.
         11    1    3    3    0    0  0.25474002954E+02 -0.18325709838E+02 -0.27462778076E+02  0.41700847083E+02  0.51100000000E-03 0.  1.
         22    1    1    0    0    0  0.13809866407E+02  0.23481029738E+02 -0.97595372078E+01  0.28936477572E+02  0.00000000000E+00 0.  1.
</event>
<event>
 5    1  0.6690694E-004  0.9118800E+02  0.7818608E-02  0.1130116E+00
         25   -1    0    0    0    0  0.00000000000E+00  0.00000000000E+00  0.99999998245E-14  0.12500000000E+03  0.12500000000E+03 0.  0.
        -11    1    3    3    0    0  0.43808189513E+01  0.20477797153E+02 -0.30530811667E+02  0.37022455514E+02  0.51100000000E-03 0.  1.
         23    2    1    0    0    0  0.29662441995E+02  0.17753174351E+02  0.13516207655E+02  0.87882301606E+02  0.79659120015E+02 0.  0.
         11    1    3    3    0    0  0.25281623044E+02 -0.27246228021E+01  0.44047019323E+02  0.50859846093E+02  0.51100000000E-03 0. -1.
         22    1    1    0    0    0 -0.29662441995E+02 -0.17753174351E+02 -0.13516207655E+02  0.37117698394E+02  0.00000000000E+00 0.  1.
</event>
<event>
 5    1  0.6690694E-004  0.9118800E+02  0.7818608E-02  0.1130116E+00
         25   -1    0    0    0    0  0.00000000000E+00  0.00000000000E+00  0.99999998245E-14  0.12500000000E+03  0.12500000000E+03 0.  0.
        -11    1    3    3    0    0  0.12921421824E+02  0.26203491288E+02 -0.54936958142E+02  0.62222628262E+02  0.51100000000E-03 0. -1.
         23    2    1    0    0    0  0.39692283081E+01  0.16486477559E+02 -0.27175377478E+02  0.92967830908E+02  0.87275183913E+02 0.  0.
         11    1    3    3    0    0 -0.89521935161E+01 -0.97170137290E+01  0.27761580664E+02  0.30745202646E+02  0.51100000000E-03 0.  1.
         22    1    1    0    0    0 -0.39692283081E+01 -0.16486477559E+02  0.27175377478E+02  0.32032169092E+02  0.00000000000E+00 0. -1.
</event>
<event>
 5    1  0.6690694E-004  0.9118800E+02  0.7818608E-02  0.1130116E+00
         25   -1    0    0    0    0  0.00000000000E+00  0.00000000000E+00  0.99999998245E-14  0.12500000000E+03  0.12500000000E+03 0.  0.
        -11    1    3    3    0    0  0.50196167633E+02 -0.11838617901E+02  0.20860397171E+02  0.55632403231E+02  0.51100000000E-03 0. -1.
         23    2    1    0    0    0  0.20251394568E+02 -0.24774932678E+02  0.28987195527E+01  0.92870280951E+02  0.87135355842E+02 0.  0.
         11    1    3    3    0    0 -0.29944773065E+02 -0.12936314777E+02 -0.17961677618E+02  0.37237877720E+02  0.51100000000E-03 0.  1.
         22    1    1    0    0    0 -0.20251394568E+02  0.24774932678E+02 -0.28987195527E+01  0.32129719049E+02  0.00000000000E+00 0. -1.
</event>
<event>
 5    1  0.6690694E-004  0.9118800E+02  0.7818608E-02  0.1130116E+00
         25   -1    0    0    0    0  0.00000000000E+00  0.00000000000E+00  0.99999998245E-14  0.12500000000E+03  0.12500000000E+03 0.  0.
        -11    1    3    3    0    0 -0.33882399846E+01  0.47903507142E+02  0.17283105318E+01  0.48054273735E+02  0.51100000000E-03 0.  1.
         23    2    1    0    0    0  0.25934074387E+02  0.94871829920E+01 -0.52706404703E+01  0.96886613395E+02  0.92718139265E+02 0.  0.
         11    1    3    3    0    0  0.29322314372E+02 -0.38416324150E+02 -0.69989510021E+01  0.48832339660E+02  0.51100000000E-03 0. -1.
         22    1    1    0    0    0 -0.25934074387E+02 -0.94871829920E+01  0.52706404703E+01  0.28113386605E+02  0.00000000000E+00 0.  1.
</event>
<event>
 5    1  0.6690694E-004  0.9118800E+02  0.7818608E-02  0.1130116E+00
         25   -1    0    0    0    0  0.00000000000E+00  0.00000000000E+00  0.99999998245E-14  0.12500000000E+03  0.12500000000E+03 0.  0.
        -11    1    3    3    0    0 -0.35090796275E+02  0.95440702985E+01 -0.26049750903E+02  0.44733016704E+02  0.51100000000E-03 0. -1.
         23    2    1    0    0    0  0.77750988667E+00 -0.24922438992E+02 -0.15675620762E+02  0.95547367296E+02  0.90894674343E+02 0.  0.
         11    1    3    3    0    0  0.35868306162E+02 -0.34466509291E+02  0.10374130141E+02  0.50814350592E+02  0.51100000000E-03 0.  1.
         22    1    1    0    0    0 -0.77750988667E+00  0.24922438992E+02  0.15675620762E+02  0.29452632704E+02  0.00000000000E+00 0.  1.
</event>
<event>
 5    1  0.6690694E-004  0.9118800E+02  0.7818608E-02  0.1130116E+00
         25   -1    0    0    0    0  0.00000000000E+00  0.00000000000E+00  0.99999998245E-14  0.12500000000E+03  0.12500000000E+03 0.  0.
        -11    1    3    3    0    0 -0.20708550488E+02 -0.12519705023E+02  0.96810648357E+01  0.26063577916E+02  0.51100000000E-03 0.  1.
         23    2    1    0    0    0  0.35989582389E+02  0.67640825459E+01 -0.58096123409E+01  0.87922318724E+02  0.79721889598E+02 0.  0.
         11    1    3    3    0    0  0.56698132877E+02  0.19283787569E+02 -0.15490677177E+02  0.61858740808E+02  0.51100000000E-03 0. -1.
         22    1    1    0    0    0 -0.35989582389E+02 -0.67640825459E+01  0.58096123409E+01  0.37077681276E+02  0.00000000000E+00 0. -1.
</event>
<event>
 5    1  0.6690694E-004  0.9118800E+02  0.7818608E-02  0.1130116E+00
         25   -1    0    0    0    0  0.00000000000E+00  0.00000000000E+00  0.99999998245E-14  0.12500000000E+03  0.12500000000E+03 0.  0.
        -11    1    3    3    0    0 -0.91717781633E+01  0.29582134091E+02  0.47503498321E+02  0.56708081656E+02  0.51100000000E-03 0. -1.
         23    2    1    0    0    0  0.14647307607E+02  0.10804966616E+02  0.22800532183E+02  0.95825435881E+02  0.91276278245E+02 0.  0.
         11    1    3    3    0    0  0.23819085770E+02 -0.18777167476E+02 -0.24702966138E+02  0.39117354226E+02  0.51100000000E-03 0.  1.
         22    1    1    0    0    0 -0.14647307607E+02 -0.10804966616E+02 -0.22800532183E+02  0.29174564119E+02  0.00000000000E+00 0. -1.
</event>
<event>
 5    1  0.6690694E-004  0.9118800E+02  0.7818608E-02  0.1130116E+00
         25   -1    0    0    0    0  0.00000000000E+00  0.00000000000E+00  0.99999998245E-14  0.12500000000E+03  0.12500000000E+03 0.  0.
        -11    1    3    3    0    0  0.30730251004E+02 -0.24708010888E+02 -0.20356255994E+01  0.39483894193E+02  0.51100000000E-03 0. -1.
         23    2    1    0    0    0 -0.24382607258E+02 -0.15713626779E+02  0.42670696372E+01  0.95680424858E+02  0.91077473694E+02 0.  0.
         11    1    3    3    0    0 -0.55112858261E+02  0.89943841088E+01  0.63026952366E+01  0.56196530665E+02  0.51100000000E-03 0.  1.
         22    1    1    0    0    0  0.24382607258E+02  0.15713626779E+02 -0.42670696372E+01  0.29319575142E+02  0.00000000000E+00 0.  1.
</event>
<event>
 5    1  0.6690694E-004  0.9118800E+02  0.7818608E-02  0.1130116E+00
         25   -1    0    0    0    0  0.00000000000E+00  0.00000000000E+00  0.99999998245E-14  0.12500000000E+03  0.12500000000E+03 0.  0.
        -11    1    3    3    0    0 -0.29435719994E+02  0.28078904771E+02 -0.16635439352E+02  0.43950248548E+02  0.51100000000E-03 0. -1.
         23    2    1    0    0    0  0.18945213301E+02  0.23059870074E+02 -0.12079896344E+02  0.92803686382E+02  0.87039770195E+02 0.  0.
         11    1    3    3    0    0  0.48380933296E+02 -0.50190346966E+01  0.45555430079E+01  0.48853437834E+02  0.51100000000E-03 0.  1.
         22    1    1    0    0    0 -0.18945213301E+02 -0.23059870074E+02  0.12079896344E+02  0.32196313618E+02  0.00000000000E+00 0. -1.
</event>
<event>
 5    1  0.6690694E-004  0.9118800E+02  0.7818608E-02  0.1130116E+00
         25   -1    0    0    0    0  0.00000000000E+00  0.00000000000E+00  0.99999998245E-14  0.12500000000E+03  0.12500000000E+03 0.  0.
        -11    1    3    3    0    0 -0.25622831180E+02  0.31358431650E+02 -0.49681059857E+01  0.40799053795E+02  0.51100000000E-03 0. -1.
         23    2    1    0    0    0  0.15480421361E+01 -0.82530972710E+01  0.25816751219E+02  0.97851985477E+02  0.94010618386E+02 0.  0.
         11    1    3    3    0    0  0.27170873316E+02 -0.39611528921E+02  0.30784857205E+02  0.57052931683E+02  0.51100000000E-03 0.  1.
         22    1    1    0    0    0 -0.15480421361E+01  0.82530972710E+01 -0.25816751219E+02  0.27148014523E+02  0.00000000000E+00 0.  1.
</event>
<event>
 5    1  0.6690694E-004  0.9118800E+02  0.7818608E-02  0.1130116E+00
         25   -1    0    0    0    0  0.00000000000E+00  0.00000000000E+00  0.99999998245E-14  0.12500000000E+03  0.12500000000E+03 0.  0.
        -11    1    3    3    0    0  0.32865826513E+02 -0.18247689800E+02  0.16560919287E+02  0.41078032856E+02  0.51100000000E-03 0.  1.
         23    2    1    0    0    0  0.67389995239E+01 -0.60952686237E+00 -0.28297368483E+02  0.95904868094E+02  0.91384993426E+02 0.  0.
         11    1    3    3    0    0 -0.26126826989E+02  0.17638162937E+02 -0.44858287770E+02  0.54826835238E+02  0.51100000000E-03 0. -1.
         22    1    1    0    0    0 -0.67389995239E+01  0.60952686237E+00  0.28297368483E+02  0.29095131906E+02  0.00000000000E+00 0. -1.
</event>
<event>
 5    1  0.6690694E-004  0.9118800E+02  0.7818608E-02  0.1130116E+00
         25   -1    0    0    0    0  0.00000000000E+00  0.00000000000E+00  0.99999998245E-14  0.12500000000E+03  0.12500000000E+03 0.  0.
        -11    1    3    3    0    0  0.18383497481E+02  0.10085433587E+02 -0.25292611122E+02  0.32853997138E+02  0.51100000000E-03 0. -1.
         23    2    1    0    0    0 -0.31111630387E+01 -0.19071842417E+02  0.24102245287E+02  0.94107723675E+02  0.88892805777E+02 0.  0.
         11    1    3    3    0    0 -0.21494660520E+02 -0.29157276004E+02  0.49394856409E+02  0.61253726538E+02  0.51100000000E-03 0.  1.
         22    1    1    0    0    0  0.31111630387E+01  0.19071842417E+02 -0.24102245287E+02  0.30892276325E+02  0.00000000000E+00 0.  1.
</event>
<event>
 5    1  0.6690694E-004  0.9118800E+02  0.7818608E-02  0.1130116E+00
         25   -1    0    0    0    0  0.00000000000E+00  0.00000000000E+00  0.99999998245E-14  0.12500000000E+03  0.12500000000E+03 0.  0.
        -11    1    3    3    0    0  0.51032615329E+02 -0.86521751930E+01  0.32402896144E+01  0.51862196636E+02  0.51100000000E-03 0. -1.
         23    2    1    0    0    0  0.96382443077E+01 -0.25112903223E+02 -0.61933229090E+01  0.97397266253E+02  0.93404050037E+02 0.  0.
         11    1    3    3    0    0 -0.41394371021E+02 -0.16460728030E+02 -0.94336125234E+01  0.45535069617E+02  0.51100000000E-03 0.  1.
         22    1    1    0    0    0 -0.96382443077E+01  0.25112903223E+02  0.61933229090E+01  0.27602733747E+02  0.00000000000E+00 0. -1.
</event>
<event>
 5    1  0.6690694E-004  0.9118800E+02  0.7818608E-02  0.1130116E+00
         25   -1    0    0    0    0  0.00000000000E+00  0.00000000000E+00  0.99999998245E-14  0.12500000000E+03  0.12500000000E+03 0.  0.
        -11    1    3    3    0    0 -0.18323164572E+01 -0.32529002156E+02  0.23822552218E+02  0.40360963310E+02  0.51100000000E-03 0. -1.
         23    2    1    0    0    0  0.32143029172E+02 -0.50603600713E+01 -0.40877729073E+01  0.92205313605E+02  0.86176147519E+02 0.  0.
         11    1    3    3    0    0  0.33975345630E+02  0.27468642084E+02 -0.27910325126E+02  0.51844350295E+02  0.51100000000E-03 0.  1.
         22    1    1    0    0    0 -0.32143029172E+02  0.50603600713E+01  0.40877729073E+01  0.32794686395E+02  0.00000000000E+00 0.  1.
</event>
<event>
 5    1  0.6690694E-004  0.9118800E+02  0.7818608E-02  0.1130116E+00
         25   -1    0    0    0    0  0.00000000000E+00  0.00000000000E+00  0.99999998245E-14  0.12500000000E+03  0.12500000000E+03 0.  0.
        -11    1    3    3    0    0 -0.13570040091E+02 -0.96829904132E+01  0.28911933247E+02  0.33373734818E+02  0.51100000000E-03 0.  1.
         23    2    1    0    0    0  0.49712407052E+01  0.20521827245E+02 -0.21413616989E+02  0.94926729141E+02  0.90037116154E+02 0.  0.
         11    1    3    3    0    0  0.18541280796E+02  0.30204817658E+02 -0.50325550235E+02  0.61552994323E+02  0.51100000000E-03 0. -1.
         22    1    1    0    0    0 -0.49712407052E+01 -0.20521827245E+02  0.21413616989E+02  0.30073270859E+02  0.00000000000E+00 0. -1.
</event>
<event>
 5    1  0.6690694E-004  0.9118800E+02  0.7818608E-02  0.1130116E+00
         25   -1    0    0    0    0  0.00000000000E+00  0.00000000000E+00  0.99999998245E-14  0.12500000000E+03  0.12500000000E+03 0.  0.
        -11    1    3    3    0    0 -0.11420959140E+02  0.37362550745E+02  0.10748738083E+02  0.40520783266E+02  0.51100000000E-03 0. -1.
         23    2    1    0    0    0  0.18833241801E+02 -0.23936234595E+00  0.27552984736E+02  0.91624630954E+02  0.85329700214E+02 0.  0.
         11    1    3    3    0    0  0.30254200941E+02 -0.37601913091E+02  0.16804246653E+02  0.51103847688E+02  0.51100000000E-03 0.  1.
         22    1    1    0    0    0 -0.18833241801E+02  0.23936234595E+00 -0.27552984736E+02  0.33375369046E+02  0.00000000000E+00 0.  1.
</event>
<event>
 5    1  0.6690694E-004  0.9118800E+02  0.7818608E-02  0.1130116E+00
         25   -1    0    0    0    0  0.00000000000E+00  0.00000000000E+00  0.99999998245E-14  0.12500000000E+03  0.12500000000E+03 0.  0.
        -11    1    3    3    0    0  0.14856442896E+02 -0.11569689237E+02 -0.54691554645E+02  0.57842352600E+02  0.51100000000E-03 0. -1.
         23    2    1    0    0    0 -0.18845871453E+01 -0.19968048145E+02 -0.24981653365E+02  0.92963183362E+02  0.87268527205E+02 0.  0.
         11    1    3    3    0    0 -0.16741030041E+02 -0.83983589080E+01  0.29709901279E+02  0.35120830763E+02  0.51100000000E-03 0.  1.
         22    1    1    0    0    0  0.18845871453E+01  0.19968048145E+02  0.24981653365E+02  0.32036816638E+02  0.00000000000E+00 0. -1.
</event>
<event>
 5    1  0.6690694E-004  0.9118800E+02  0.7818608E-02  0.1130116E+00
         25   -1    0    0    0    0  0.00000000000E+00  0.00000000000E+00  0.99999998245E-14  0.12500000000E+03  0.12500000000E+03 0.  0.
        -11    1    3    3    0    0  0.14921196679E+01  0.39619991397E+02 -0.24679051137E+02  0.46701452919E+02  0.51100000000E-03 0.  1.
         23    2    1    0    0    0  0.14096360034E+02 -0.68546767334E+01 -0.25735768275E+02  0.94866567934E+02  0.89953554591E+02 0.  0.
         11    1    3    3    0    0  0.12604240366E+02 -0.46474668131E+02 -0.10567171379E+01  0.48165115015E+02  0.51100000000E-03 0. -1.
         22    1    1    0    0    0 -0.14096360034E+02  0.68546767334E+01  0.25735768275E+02  0.30133432066E+02  0.00000000000E+00 0. -1.
</event>
<event>
 5    1  0.6690694E-004  0.9118800E+02  0.7818608E-02  0.1130116E+00
         25   -1    0    0    0    0  0.00000000000E+00  0.00000000000E+00  0.99999998245E-14  0.12500000000E+03  0.12500000000E+03 0.  0.
        -11    1    3    3    0    0 -0.32592413805E+02 -0.17773332960E+02 -0.90983205288E+01  0.38222195630E+02  0.51100000000E-03 0. -1.
         23    2    1    0    0    0  0.13057306901E+02  0.18998934473E+01 -0.30061485856E+02  0.92170199658E+02  0.86125199068E+02 0.  0.
         11    1    3    3    0    0  0.45649720706E+02  0.19673226407E+02 -0.20963165327E+02  0.53948004028E+02  0.51100000000E-03 0.  1.
         22    1    1    0    0    0 -0.13057306901E+02 -0.18998934473E+01  0.30061485856E+02  0.32829800342E+02  0.00000000000E+00 0.  1.
</event>
<event>
 5    1  0.6690694E-004  0.9118800E+02  0.7818608E-02  0.1130116E+00
         25   -1    0    0    0    0  0.00000000000E+00  0.00000000000E+00  0.99999998245E-14  0.12500000000E+03  0.12500000000E+03 0.  0.
        -11    1    3    3    0    0  0.39354469026E+02  0.94824351654E+01 -0.94773130594E+01  0.41575356548E+02  0.51100000000E-03 0. -1.
         23    2    1    0    0    0 -0.88057929530E+01 -0.16832944524E+02 -0.19956003354E+02  0.97447648362E+02  0.93471450671E+02 0.  0.
         11    1    3    3    0    0 -0.48160261979E+02 -0.26315379689E+02 -0.10478690295E+02  0.55872291815E+02  0.51100000000E-03 0.  1.
         22    1    1    0    0    0  0.88057929530E+01  0.16832944524E+02  0.19956003354E+02  0.27552351638E+02  0.00000000000E+00 0. -1.
</event>
<event>
 5    1  0.6690694E-004  0.9118800E+02  0.7818608E-02  0.1130116E+00
         25   -1    0    0    0    0  0.00000000000E+00  0.00000000000E+00  0.99999998245E-14  0.12500000000E+03  0.12500000000E+03 0.  0.
        -11    1    3    3    0    0  0.39887240484E+02 -0.43802250215E+02  0.18333625112E+02  0.62014118452E+02  0.51100000000E-03 0. -1.
         23    2    1    0    0    0  0.24177532473E+02 -0.22076182772E+02  0.52688207708E+01  0.91838706379E+02  0.85642726456E+02 0.  0.
         11    1    3    3    0    0 -0.15709708011E+02  0.21726067443E+02 -0.13064804341E+02  0.29824587928E+02  0.51100000000E-03 0.  1.
         22    1    1    0    0    0 -0.24177532473E+02  0.22076182772E+02 -0.52688207708E+01  0.33161293621E+02  0.00000000000E+00 0. -1.
</event>
<event>
 5    1  0.6690694E-004  0.9118800E+02  0.7818608E-02  0.1130116E+00
         25   -1    0    0    0    0  0.00000000000E+00  0.00000000000E+00  0.99999998245E-14  0.12500000000E+03  0.12500000000E+03 0.  0.
        -11    1    3    3    0    0 -0.22343713312E+02  0.26211706899E+01 -0.26094943836E+02  0.34453710314E+02  0.51100000000E-03 0.  1.
         23    2    1    0    0    0  0.21556132681E+02 -0.14069102333E+02  0.13545844494E+02  0.95912263758E+02  0.91395108948E+02 0.  0.
         11    1    3    3    0    0  0.43899845993E+02 -0.16690273023E+02  0.39640788330E+02  0.61458553444E+02  0.51100000000E-03 0. -1.
         22    1    1    0    0    0 -0.21556132681E+02  0.14069102333E+02 -0.13545844494E+02  0.29087736242E+02  0.00000000000E+00 0. -1.
</event>
<event>
 5    1  0.6690694E-004  0.9118800E+02  0.7818608E-02  0.1130116E+00
         25   -1    0    0    0    0  0.00000000000E+00  0.00000000000E+00  0.99999998245E-14  0.12500000000E+03  0.12500000000E+03 0.  0.
        -11    1    3    3    0    0 -0.80780507708E+01  0.52210832890E+02  0.15417055035E+02  0.55035548163E+02  0.51100000000E-03 0. -1.
         23    2    1    0    0    0 -0.20556291741E+02  0.91907964904E+01  0.10679110815E+02  0.10007861805E+03  0.96926025987E+02 0.  0.
         11    1    3    3    0    0 -0.12478240970E+02 -0.43020036400E+02 -0.47379442207E+01  0.45043069892E+02  0.51100000000E-03 0.  1.
         22    1    1    0    0    0  0.20556291741E+02 -0.91907964904E+01 -0.10679110815E+02  0.24921381945E+02  0.00000000000E+00 0. -1.
</event>
<event>
 5    1  0.6690694E-004  0.9118800E+02  0.7818608E-02  0.1130116E+00
         25   -1    0    0    0    0  0.00000000000E+00  0.00000000000E+00  0.99999998245E-14  0.12500000000E+03  0.12500000000E+03 0.  0.
        -11    1    3    3    0    0  0.31763056659E+02  0.32662286659E+02 -0.35450549825E+02  0.57727447729E+02  0.51100000000E-03 0.  1.
         23    2    1    0    0    0  0.82303841314E+01  0.16795535812E+01 -0.25875956631E+02  0.97794756851E+02  0.93934494265E+02 0.  0.
         11    1    3    3    0    0 -0.23532672527E+02 -0.30982733078E+02  0.95745931935E+01  0.40067309123E+02  0.51100000000E-03 0. -1.
         22    1    1    0    0    0 -0.82303841314E+01 -0.16795535812E+01  0.25875956631E+02  0.27205243149E+02  0.00000000000E+00 0.  1.
</event>
<event>
 5    1  0.6690694E-004  0.9118800E+02  0.7818608E-02  0.1130116E+00
         25   -1    0    0    0    0  0.00000000000E+00  0.00000000000E+00  0.99999998245E-14  0.12500000000E+03  0.12500000000E+03 0.  0.
        -11    1    3    3    0    0  0.49833301349E+02 -0.21856374564E+02 -0.27026471183E+02  0.60757626495E+02  0.51100000000E-03 0. -1.
         23    2    1    0    0    0  0.25660180465E+02 -0.14635578632E+02 -0.35014510470E+01  0.95252644104E+02  0.90488457971E+02 0.  0.
         11    1    3    3    0    0 -0.24173120885E+02  0.72207959317E+01  0.23525020135E+02  0.34495017609E+02  0.51100000000E-03 0.  1.
         22    1    1    0    0    0 -0.25660180465E+02  0.14635578632E+02  0.35014510470E+01  0.29747355896E+02  0.00000000000E+00 0. -1.
</event>
<event>
 5    1  0.6690694E-004  0.9118800E+02  0.7818608E-02  0.1130116E+00
         25   -1    0    0    0    0  0.00000000000E+00  0.00000000000E+00  0.99999998245E-14  0.12500000000E+03  0.12500000000E+03 0.  0.
        -11    1    3    3    0    0  0.38770311415E+02 -0.30427156317E+00 -0.91175656237E+01  0.39829130439E+02  0.51100000000E-03 0.  1.
         23    2    1    0    0    0 -0.12141180364E+02 -0.14736580178E+02 -0.23552428616E+02  0.94680172334E+02  0.89694164155E+02 0.  0.
         11    1    3    3    0    0 -0.50911491779E+02 -0.14432308614E+02 -0.14434862993E+02  0.54851041895E+02  0.51100000000E-03 0. -1.
         22    1    1    0    0    0  0.12141180364E+02  0.14736580178E+02  0.23552428616E+02  0.30319827666E+02  0.00000000000E+00 0. -1.
</event>
<event>
 5    1  0.6690694E-004  0.9118800E+02  0.7818608E-02  0.1130116E+00
         25   -1    0    0    0    0  0.00000000000E+00  0.00000000000E+00  0.99999998245E-14  0.12500000000E+03  0.12500000000E+03 0.  0.
        -11    1    3    3    0    0 -0.18213729146E+02 -0.37536422152E+02 -0.14869069295E+02  0.44292348541E+02  0.51100000000E-03 0.  1.
         23    2    1    0    0    0  0.96043389253E+01 -0.13839655415E+02  0.22719574441E+02  0.96716463252E+02  0.92488463134E+02 0.  0.
         11    1    3    3    0    0  0.27818068071E+02  0.23696766736E+02  0.37588643737E+02  0.52424114710E+02  0.51100000000E-03 0. -1.
         22    1    1    0    0    0 -0.96043389253E+01  0.13839655415E+02 -0.22719574441E+02  0.28283536748E+02  0.00000000000E+00 0. -1.
</event>
<event>
 5    1  0.6690694E-004  0.9118800E+02  0.7818608E-02  0.1130116E+00
         25   -1    0    0    0    0  0.00000000000E+00  0.00000000000E+00  0.99999998245E-14  0.12500000000E+03  0.12500000000E+03 0.  0.
        -11    1    3    3    0    0 -0.27142870438E+02 -0.20766526849E+02  0.82436578361E+01  0.35155966034E+02  0.51100000000E-03 0.  1.
         23    2    1    0    0    0  0.26177596158E+02  0.40806280445E+01 -0.99014532268E+01  0.96716491698E+02  0.92488501580E+02 0.  0.
         11    1    3    3    0    0  0.53320466596E+02  0.24847154894E+02 -0.18145111063E+02  0.61560525664E+02  0.51100000000E-03 0. -1.
         22    1    1    0    0    0 -0.26177596158E+02 -0.40806280445E+01  0.99014532268E+01  0.28283508302E+02  0.00000000000E+00 0. -1.
</event>
<event>
 5    1  0.6690694E-004  0.9118800E+02  0.7818608E-02  0.1130116E+00
         25   -1    0    0    0    0  0.00000000000E+00  0.00000000000E+00  0.99999998245E-14  0.12500000000E+03  0.12500000000E+03 0.  0.
        -11    1    3    3    0    0  0.37309345873E+02 -0.25552714578E+01  0.44985302851E+01  0.37666344085E+02  0.51100000000E-03 0. -1.
         23    2    1    0    0    0 -0.14198083908E+02 -0.21175408255E+02 -0.14539665330E+02  0.95650632556E+02  0.91036575831E+02 0.  0.
         11    1    3    3    0    0 -0.51507429781E+02 -0.18620136798E+02 -0.19038195615E+02  0.57984288472E+02  0.51100000000E-03 0.  1.
         22    1    1    0    0    0  0.14198083908E+02  0.21175408255E+02  0.14539665330E+02  0.29349367444E+02  0.00000000000E+00 0. -1.
</event>
<event>
 5    1  0.6690694E-004  0.9118800E+02  0.7818608E-02  0.1130116E+00
         25   -1    0    0    0    0  0.00000000000E+00  0.00000000000E+00  0.99999998245E-14  0.12500000000E+03  0.12500000000E+03 0.  0.
        -11    1    3    3    0    0  0.74102559698E+01 -0.27145475628E+02  0.20581081697E+02  0.34862152325E+02  0.51100000000E-03 0.  1.
         23    2    1    0    0    0 -0.21973302633E+02  0.93895322879E+01 -0.17596405784E+02  0.95324709914E+02  0.90587954378E+02 0.  0.
         11    1    3    3    0    0 -0.29383558603E+02  0.36535007916E+02 -0.38177487481E+02  0.60462557589E+02  0.51100000000E-03 0. -1.
         22    1    1    0    0    0  0.21973302633E+02 -0.93895322879E+01  0.17596405784E+02  0.29675290086E+02  0.00000000000E+00 0. -1.
</event>
<event>
 5    1  0.6690694E-004  0.9118800E+02  0.7818608E-02  0.1130116E+00
         25   -1    0    0    0    0  0.00000000000E+00  0.00000000000E+00  0.99999998245E-14  0.12500000000E+03  0.12500000000E+03 0.  0.
        -11    1    3    3    0    0 -0.30069505536E+02 -0.14412120941E+02  0.34169712822E+02  0.47743624368E+02  0.51100000000E-03 0.  1.
         23    2    1    0    0    0 -0.13608038145E+02  0.23946980590E+02  0.13972721630E+02  0.94115156933E+02  0.88903257720E+02 0.  0.
         11    1    3    3    0    0  0.16461467391E+02  0.38359101531E+02 -0.20196991192E+02  0.46371532565E+02  0.51100000000E-03 0. -1.
         22    1    1    0    0    0  0.13608038145E+02 -0.23946980590E+02 -0.13972721630E+02  0.30884843067E+02  0.00000000000E+00 0. -1.
</event>
<event>
 5    1  0.6690694E-004  0.9118800E+02  0.7818608E-02  0.1130116E+00
         25   -1    0    0    0    0  0.00000000000E+00  0.00000000000E+00  0.99999998245E-14  0.12500000000E+03  0.12500000000E+03 0.  0.
        -11    1    3    3    0    0  0.25791241831E+02 -0.87172095506E+01 -0.36453391100E+02  0.45497556204E+02  0.51100000000E-03 0.  1.
         23    2    1    0    0    0 -0.21768085093E+02 -0.25277387465E+01 -0.17049440635E+02  0.97234510310E+02  0.93185983804E+02 0.  0.
         11    1    3    3    0    0 -0.47559326924E+02  0.61894708041E+01  0.19403950465E+02  0.51736954106E+02  0.51100000000E-03 0. -1.
         22    1    1    0    0    0  0.21768085093E+02  0.25277387465E+01  0.17049440635E+02  0.27765489690E+02  0.00000000000E+00 0. -1.
</event>
<event>
 5    1  0.6690694E-004  0.9118800E+02  0.7818608E-02  0.1130116E+00
         25   -1    0    0    0    0  0.00000000000E+00  0.00000000000E+00  0.99999998245E-14  0.12500000000E+03  0.12500000000E+03 0.  0.
        -11    1    3    3    0    0 -0.24921542337E+02 -0.31791047549E+02 -0.12847784011E+02  0.42388908112E+02  0.51100000000E-03 0. -1.
         23    2    1    0    0    0 -0.21893812508E+02  0.19861005696E+02 -0.81186215700E+01  0.94345300693E+02  0.89226258317E+02 0.  0.
         11    1    3    3    0    0  0.30277298289E+01  0.51652053245E+02  0.47291624409E+01  0.51956392581E+02  0.51100000000E-03 0.  1.
         22    1    1    0    0    0  0.21893812508E+02 -0.19861005696E+02  0.81186215700E+01  0.30654699307E+02  0.00000000000E+00 0.  1.
</event>
<event>
 5    1  0.6690694E-004  0.9118800E+02  0.7818608E-02  0.1130116E+00
         25   -1    0    0    0    0  0.00000000000E+00  0.00000000000E+00  0.99999998245E-14  0.12500000000E+03  0.12500000000E+03 0.  0.
        -11    1    3    3    0    0 -0.50188872329E+01 -0.44511086156E+02 -0.25332234322E+02  0.51460160473E+02  0.51100000000E-03 0. -1.
         23    2    1    0    0    0  0.21046936590E+02 -0.51310876172E+01 -0.57323471518E+01  0.10259104188E+03  0.10011373767E+03 0.  0.
         11    1    3    3    0    0  0.26065823823E+02  0.39379998539E+02  0.19599887170E+02  0.51130881411E+02  0.51100000000E-03 0.  1.
         22    1    1    0    0    0 -0.21046936590E+02  0.51310876172E+01  0.57323471518E+01  0.22408958116E+02  0.00000000000E+00 0. -1.
</event>
<event>
 5    1  0.6690694E-004  0.9118800E+02  0.7818608E-02  0.1130116E+00
         25   -1    0    0    0    0  0.00000000000E+00  0.00000000000E+00  0.99999998245E-14  0.12500000000E+03  0.12500000000E+03 0.  0.
        -11    1    3    3    0    0 -0.16385792063E+02  0.19522313153E+02 -0.55231742803E+02  0.60828942994E+02  0.51100000000E-03 0.  1.
         23    2    1    0    0    0 -0.16546937271E+02  0.43332193976E+01 -0.24370997255E+02  0.95225456668E+02  0.90450893677E+02 0.  0.
         11    1    3    3    0    0 -0.16114520858E+00 -0.15189093756E+02  0.30860745548E+02  0.34396513674E+02  0.51100000000E-03 0. -1.
         22    1    1    0    0    0  0.16546937271E+02 -0.43332193976E+01  0.24370997255E+02  0.29774543332E+02  0.00000000000E+00 0.  1.
</event>
<event>
 5    1  0.6690694E-004  0.9118800E+02  0.7818608E-02  0.1130116E+00
         25   -1    0    0    0    0  0.00000000000E+00  0.00000000000E+00  0.99999998245E-14  0.12500000000E+03  0.12500000000E+03 0.  0.
        -11    1    3    3    0    0 -0.40156271547E+02 -0.31160959408E+02  0.14392594741E+02  0.52826871188E+02  0.51100000000E-03 0.  1.
         23    2    1    0    0    0 -0.28153151149E+02  0.80643233288E+01  0.21485565205E+01  0.95635914360E+02  0.91016364407E+02 0.  0.
         11    1    3    3    0    0  0.12003120398E+02  0.39225282737E+02 -0.12244038221E+02  0.42809043172E+02  0.51100000000E-03 0. -1.
         22    1    1    0    0    0  0.28153151149E+02 -0.80643233288E+01 -0.21485565205E+01  0.29364085640E+02  0.00000000000E+00 0.  1.
</event>
<event>
 5    1  0.6690694E-004  0.9118800E+02  0.7818608E-02  0.1130116E+00
         25   -1    0    0    0    0  0.00000000000E+00  0.00000000000E+00  0.99999998245E-14  0.12500000000E+03  0.12500000000E+03 0.  0.
        -11    1    3    3    0    0  0.31444152546E+02  0.55891322555E+01  0.23621631805E+02  0.39723476914E+02  0.51100000000E-03 0.  1.
         23    2    1    0    0    0 -0.22484913556E+02  0.14952006231E+02  0.10634188064E+02  0.95978976867E+02  0.91486306170E+02 0.  0.
         11    1    3    3    0    0 -0.53929066102E+02  0.93628739751E+01 -0.12987443741E+02  0.56255499953E+02  0.51100000000E-03 0. -1.
         22    1    1    0    0    0  0.22484913556E+02 -0.14952006231E+02 -0.10634188064E+02  0.29021023133E+02  0.00000000000E+00 0. -1.
</event>
<event>
 5    1  0.6690694E-004  0.9118800E+02  0.7818608E-02  0.1130116E+00
         25   -1    0    0    0    0  0.00000000000E+00  0.00000000000E+00  0.99999998245E-14  0.12500000000E+03  0.12500000000E+03 0.  0.
        -11    1    3    3    0    0 -0.14294012041E+02  0.33529143921E+02 -0.49970891084E+02  0.61851533759E+02  0.51100000000E-03 0. -1.
         23    2    1    0    0    0 -0.91741910551E+01  0.20167227323E+02 -0.19623280478E+02  0.95403446550E+02  0.90696535973E+02 0.  0.
         11    1    3    3    0    0  0.51198209859E+01 -0.13361916598E+02  0.30347610607E+02  0.33551912791E+02  0.51100000000E-03 0.  1.
         22    1    1    0    0    0  0.91741910551E+01 -0.20167227323E+02  0.19623280478E+02  0.29596553450E+02  0.00000000000E+00 0. -1.
</event>
<event>
 5    1  0.6690694E-004  0.9118800E+02  0.7818608E-02  0.1130116E+00
         25   -1    0    0    0    0  0.00000000000E+00  0.00000000000E+00  0.99999998245E-14  0.12500000000E+03  0.12500000000E+03 0.  0.
        -11    1    3    3    0    0 -0.29788436035E+02  0.17073266406E+02  0.14718349297E+02  0.37356085896E+02  0.51100000000E-03 0. -1.
         23    2    1    0    0    0  0.12978688338E+02  0.16991936659E+02 -0.22435250601E+02  0.94007860159E+02  0.88752267801E+02 0.  0.
         11    1    3    3    0    0  0.42767124372E+02 -0.81329746737E-01 -0.37153599898E+02  0.56651774264E+02  0.51100000000E-03 0.  1.
         22    1    1    0    0    0 -0.12978688338E+02 -0.16991936659E+02  0.22435250601E+02  0.30992139841E+02  0.00000000000E+00 0.  1.
</event>
<event>
 5    1  0.6690694E-004  0.9118800E+02  0.7818608E-02  0.1130116E+00
         25   -1    0    0    0    0  0.00000000000E+00  0.00000000000E+00  0.99999998245E-14  0.12500000000E+03  0.12500000000E+03 0.  0.
        -11    1    3    3    0    0  0.58542999342E+02 -0.12604888113E+02  0.16848737136E+02  0.62209693132E+02  0.51100000000E-03 0. -1.
         23    2    1    0    0    0  0.29409298719E+02 -0.10077928548E+02  0.10935352916E+02  0.92044675114E+02  0.85942822728E+02 0.  0.
         11    1    3    3    0    0 -0.29133700623E+02  0.25269595650E+01 -0.59133842206E+01  0.29834981981E+02  0.51100000000E-03 0.  1.
         22    1    1    0    0    0 -0.29409298719E+02  0.10077928548E+02 -0.10935352916E+02  0.32955324886E+02  0.00000000000E+00 0. -1.
</event>
<event>
 5    1  0.6690694E-004  0.9118800E+02  0.7818608E-02  0.1130116E+00
         25   -1    0    0    0    0  0.00000000000E+00  0.00000000000E+00  0.99999998245E-14  0.12500000000E+03  0.12500000000E+03 0.  0.
        -11    1    3    3    0    0  0.21953875721E+02  0.17758811489E+02  0.26046997036E+02  0.38416065643E+02  0.51100000000E-03 0. -1.
         23    2    1    0    0    0 -0.15961195124E+02  0.19011496293E+02 -0.16325689275E+02  0.95289313852E+02  0.90539099085E+02 0.  0.
         11    1    3    3    0    0 -0.37915070845E+02  0.12526848045E+01 -0.42372686311E+02  0.56873248209E+02  0.51100000000E-03 0.  1.
         22    1    1    0    0    0  0.15961195124E+02 -0.19011496293E+02  0.16325689275E+02  0.29710686148E+02  0.00000000000E+00 0.  1.
</event>
<event>
 5    1  0.6690694E-004  0.9118800E+02  0.7818608E-02  0.1130116E+00
         25   -1    0    0    0    0  0.00000000000E+00  0.00000000000E+00  0.99999998245E-14  0.12500000000E+03  0.12500000000E+03 0.  0.
        -11    1    3    3    0    0  0.28676306489E+01 -0.35939709241E+02 -0.21062993183E+02  0.41755666537E+02  0.51100000000E-03 0.  1.
         23    2    1    0    0    0 -0.16702098713E+02 -0.80781336355E+01  0.21721028882E+02  0.96433946017E+02  0.92105844029E+02 0.  0.
         11    1    3    3    0    0 -0.19569729362E+02  0.27861575606E+02  0.42784022065E+02  0.54678279480E+02  0.51100000000E-03 0. -1.
         22    1    1    0    0    0  0.16702098713E+02  0.80781336355E+01 -0.21721028882E+02  0.28566053983E+02  0.00000000000E+00 0. -1.
</event>
<event>
 5    1  0.6690694E-004  0.9118800E+02  0.7818608E-02  0.1130116E+00
         25   -1    0    0    0    0  0.00000000000E+00  0.00000000000E+00  0.99999998245E-14  0.12500000000E+03  0.12500000000E+03 0.  0.
        -11    1    3    3    0    0 -0.58390841965E+02 -0.54639863872E+01 -0.70546289350E+01  0.59068717290E+02  0.51100000000E-03 0. -1.
         23    2    1    0    0    0 -0.26428850839E+02 -0.93159225953E+01  0.96810559999E+01  0.95352176880E+02  0.90625847417E+02 0.  0.
         11    1    3    3    0    0  0.31961991126E+02 -0.38519362081E+01  0.16735684935E+02  0.36283459590E+02  0.51100000000E-03 0.  1.
         22    1    1    0    0    0  0.26428850839E+02  0.93159225953E+01 -0.96810559999E+01  0.29647823120E+02  0.00000000000E+00 0. -1.
</event>
<event>
 5    1  0.6690694E-004  0.9118800E+02  0.7818608E-02  0.1130116E+00
         25   -1    0    0    0    0  0.00000000000E+00  0.00000000000E+00  0.99999998245E-14  0.12500000000E+03  0.12500000000E+03 0.  0.
        -11    1    3    3    0    0  0.48432198513E+02  0.16123485644E+02 -0.20954987312E+02  0.55179308945E+02  0.51100000000E-03 0. -1.
         23    2    1    0    0    0  0.72324553339E+01  0.19206811812E+02 -0.19758004743E+02  0.96511602685E+02  0.92211174330E+02 0.  0.
         11    1    3    3    0    0 -0.41199743179E+02  0.30833261684E+01  0.11969825696E+01  0.41332293740E+02  0.51100000000E-03 0.  1.
         22    1    1    0    0    0 -0.72324553339E+01 -0.19206811812E+02  0.19758004743E+02  0.28488397315E+02  0.00000000000E+00 0. -1.
</event>
<event>
 5    1  0.6690694E-004  0.9118800E+02  0.7818608E-02  0.1130116E+00
         25   -1    0    0    0    0  0.00000000000E+00  0.00000000000E+00  0.99999998245E-14  0.12500000000E+03  0.12500000000E+03 0.  0.
        -11    1    3    3    0    0  0.67796049995E+01 -0.14647691745E+02 -0.34590198597E+02  0.38170666180E+02  0.51100000000E-03 0. -1.
         23    2    1    0    0    0  0.21027437146E+02 -0.34335959076E+02  0.47970254358E+01  0.84452217673E+02  0.74081403998E+02 0.  0.
         11    1    3    3    0    0  0.14247832146E+02 -0.19688267331E+02  0.39387224032E+02  0.46281551493E+02  0.51100000000E-03 0.  1.
         22    1    1    0    0    0 -0.21027437146E+02  0.34335959076E+02 -0.47970254358E+01  0.40547782327E+02  0.00000000000E+00 0. -1.
</event>
<event>
 5    1  0.6690694E-004  0.9118800E+02  0.7818608E-02  0.1130116E+00
         25   -1    0    0    0    0  0.00000000000E+00  0.00000000000E+00  0.99999998245E-14  0.12500000000E+03  0.12500000000E+03 0.  0.
        -11    1    3    3    0    0  0.46971080770E+02 -0.26949739988E+02  0.11666843564E+02  0.55395723239E+02  0.51100000000E-03 0.  1.
         23    2    1    0    0    0  0.17143621718E+02 -0.33864117066E+01  0.23958533673E+02  0.95345609336E+02  0.90616788368E+02 0.  0.
         11    1    3    3    0    0 -0.29827459052E+02  0.23563328281E+02  0.12291690109E+02  0.39949886098E+02  0.51100000000E-03 0. -1.
         22    1    1    0    0    0 -0.17143621718E+02  0.33864117066E+01 -0.23958533673E+02  0.29654390664E+02  0.00000000000E+00 0. -1.
</event>
<event>
 5    1  0.6690694E-004  0.9118800E+02  0.7818608E-02  0.1130116E+00
         25   -1    0    0    0    0  0.00000000000E+00  0.00000000000E+00  0.99999998245E-14  0.12500000000E+03  0.12500000000E+03 0.  0.
        -11    1    3    3    0    0 -0.10342459335E+02  0.32336307757E+02 -0.44274286141E+02  0.55792613113E+02  0.51100000000E-03 0.  1.
         23    2    1    0    0    0 -0.17503578742E+01  0.28864796836E+02 -0.56213571951E+01  0.95540877376E+02  0.90885748850E+02 0.  0.
         11    1    3    3    0    0  0.85921014605E+01 -0.34715109214E+01  0.38652928946E+02  0.39748264263E+02  0.51100000000E-03 0. -1.
         22    1    1    0    0    0  0.17503578742E+01 -0.28864796836E+02  0.56213571951E+01  0.29459122624E+02  0.00000000000E+00 0. -1.
</event>
<event>
 5    1  0.6690694E-004  0.9118800E+02  0.7818608E-02  0.1130116E+00
         25   -1    0    0    0    0  0.00000000000E+00  0.00000000000E+00  0.99999998245E-14  0.12500000000E+03  0.12500000000E+03 0.  0.
        -11    1    3    3    0    0 -0.28743928488E+02 -0.93903411984E+01 -0.20671915569E+02  0.36629496670E+02  0.51100000000E-03 0. -1.
         23    2    1    0    0    0 -0.15489748030E+02  0.42412115705E+01  0.30121417855E+02  0.90864681293E+02  0.84209086940E+02 0.  0.
         11    1    3    3    0    0  0.13254180458E+02  0.13631552769E+02  0.50793333424E+02  0.54235184623E+02  0.51100000000E-03 0.  1.
         22    1    1    0    0    0  0.15489748030E+02 -0.42412115705E+01 -0.30121417855E+02  0.34135318707E+02  0.00000000000E+00 0.  1.
</event>
<event>
 5    1  0.6690694E-004  0.9118800E+02  0.7818608E-02  0.1130116E+00
         25   -1    0    0    0    0  0.00000000000E+00  0.00000000000E+00  0.99999998245E-14  0.12500000000E+03  0.12500000000E+03 0.  0.
        -11    1    3    3    0    0  0.23193924369E+01  0.30605325007E+02  0.21279901685E+02  0.37348356270E+02  0.51100000000E-03 0. -1.
         23    2    1    0    0    0 -0.13929153942E+02  0.60838806487E+00 -0.25909205358E+02  0.95577586981E+02  0.90936223504E+02 0.  0.
         11    1    3    3    0    0 -0.16248546379E+02 -0.29996936942E+02 -0.47189107044E+02  0.58229230711E+02  0.51100000000E-03 0.  1.
         22    1    1    0    0    0  0.13929153942E+02 -0.60838806487E+00  0.25909205358E+02  0.29422413019E+02  0.00000000000E+00 0.  1.
</event>
<event>
 5    1  0.6690694E-004  0.9118800E+02  0.7818608E-02  0.1130116E+00
         25   -1    0    0    0    0  0.00000000000E+00  0.00000000000E+00  0.99999998245E-14  0.12500000000E+03  0.12500000000E+03 0.  0.
        -11    1    3    3    0    0 -0.30381273722E+01 -0.28813852033E+02 -0.35564029244E+02  0.45872306060E+02  0.51100000000E-03 0.  1.
         23    2    1    0    0    0  0.23991316264E+02  0.77523134644E+01 -0.12512789967E+02  0.96853036880E+02  0.92672861292E+02 0.  0.
         11    1    3    3    0    0  0.27029443636E+02  0.36566165498E+02  0.23051239277E+02  0.50980730820E+02  0.51100000000E-03 0. -1.
         22    1    1    0    0    0 -0.23991316264E+02 -0.77523134644E+01  0.12512789967E+02  0.28146963120E+02  0.00000000000E+00 0. -1.
</event>
<event>
 5    1  0.6690694E-004  0.9118800E+02  0.7818608E-02  0.1130116E+00
         25   -1    0    0    0    0  0.00000000000E+00  0.00000000000E+00  0.99999998245E-14  0.12500000000E+03  0.12500000000E+03 0.  0.
        -11    1    3    3    0    0 -0.30663737222E+02 -0.34908787807E+01  0.35121667893E+02  0.46754492522E+02  0.51100000000E-03 0.  1.
         23    2    1    0    0    0 -0.11257031997E+02 -0.26955133697E+02 -0.31023846363E+01  0.95624418433E+02  0.91000574768E+02 0.  0.
         11    1    3    3    0    0  0.19406705226E+02 -0.23464254916E+02 -0.38224052530E+02  0.48869925911E+02  0.51100000000E-03 0. -1.
         22    1    1    0    0    0  0.11257031997E+02  0.26955133697E+02  0.31023846363E+01  0.29375581567E+02  0.00000000000E+00 0.  1.
</event>
<event>
 5    1  0.6690694E-004  0.9118800E+02  0.7818608E-02  0.1130116E+00
         25   -1    0    0    0    0  0.00000000000E+00  0.00000000000E+00  0.99999998245E-14  0.12500000000E+03  0.12500000000E+03 0.  0.
        -11    1    3    3    0    0  0.52927830878E+02  0.16521087117E+01  0.13930229797E+02  0.54755237622E+02  0.51100000000E-03 0.  1.
         23    2    1    0    0    0  0.92763892688E+01 -0.12106273816E+02  0.18810804879E+02  0.10078307113E+03  0.97830300946E+02 0.  0.
         11    1    3    3    0    0 -0.43651441609E+02 -0.13758382528E+02  0.48805750815E+01  0.46027833511E+02  0.51100000000E-03 0. -1.
         22    1    1    0    0    0 -0.92763892688E+01  0.12106273816E+02 -0.18810804879E+02  0.24216928867E+02  0.00000000000E+00 0.  1.
</event>
<event>
 5    1  0.6690694E-004  0.9118800E+02  0.7818608E-02  0.1130116E+00
         25   -1    0    0    0    0  0.00000000000E+00  0.00000000000E+00  0.99999998245E-14  0.12500000000E+03  0.12500000000E+03 0.  0.
        -11    1    3    3    0    0 -0.53486695153E+01  0.29525129352E+02  0.30364236890E+02  0.42688738691E+02  0.51100000000E-03 0.  1.
         23    2    1    0    0    0  0.53292857055E+01 -0.22002758059E+02  0.16129931668E+02  0.97202565875E+02  0.93143123572E+02 0.  0.
         11    1    3    3    0    0  0.10677955221E+02 -0.51527887411E+02 -0.14234305223E+02  0.54513827184E+02  0.51100000000E-03 0. -1.
         22    1    1    0    0    0 -0.53292857055E+01  0.22002758059E+02 -0.16129931668E+02  0.27797434125E+02  0.00000000000E+00 0. -1.
</event>
<event>
 5    1  0.6690694E-004  0.9118800E+02  0.7818608E-02  0.1130116E+00
         25   -1    0    0    0    0  0.00000000000E+00  0.00000000000E+00  0.99999998245E-14  0.12500000000E+03  0.12500000000E+03 0.  0.
        -11    1    3    3    0    0  0.12858964597E+02  0.28766855556E+02  0.51315239630E+02  0.60217429102E+02  0.51100000000E-03 0. -1.
         23    2    1    0    0    0  0.11958164466E+02  0.22141261547E+02  0.18345094189E+02  0.93858779069E+02  0.88542050841E+02 0.  0.
         11    1    3    3    0    0 -0.90080013083E+00 -0.66255940090E+01 -0.32970145442E+02  0.33641349966E+02  0.51100000000E-03 0.  1.
         22    1    1    0    0    0 -0.11958164466E+02 -0.22141261547E+02 -0.18345094189E+02  0.31141220931E+02  0.00000000000E+00 0. -1.
</event>
<event>
 5    1  0.6690694E-004  0.9118800E+02  0.7818608E-02  0.1130116E+00
         25   -1    0    0    0    0  0.00000000000E+00  0.00000000000E+00  0.99999998245E-14  0.12500000000E+03  0.12500000000E+03 0.  0.
        -11    1    3    3    0    0 -0.16202346035E+02  0.43792425389E+02 -0.33762736906E+02  0.57621306321E+02  0.51100000000E-03 0. -1.
         23    2    1    0    0    0  0.96589549631E+01  0.10449003995E+02 -0.16497027411E+02  0.10321401806E+03  0.10088857476E+03 0.  0.
         11    1    3    3    0    0  0.25861300998E+02 -0.33343421394E+02  0.17265709495E+02  0.45592711744E+02  0.51100000000E-03 0.  1.
         22    1    1    0    0    0 -0.96589549631E+01 -0.10449003995E+02  0.16497027411E+02  0.21785981935E+02  0.00000000000E+00 0. -1.
</event>
<event>
 5    1  0.6690694E-004  0.9118800E+02  0.7818608E-02  0.1130116E+00
         25   -1    0    0    0    0  0.00000000000E+00  0.00000000000E+00  0.99999998245E-14  0.12500000000E+03  0.12500000000E+03 0.  0.
        -11    1    3    3    0    0 -0.39583314928E+02 -0.17034130328E+00 -0.12878514596E+02  0.41626001193E+02  0.51100000000E-03 0. -1.
         23    2    1    0    0    0  0.13087082099E+01 -0.17129685542E+02  0.21358409239E+02  0.97589774004E+02  0.93661323400E+02 0.  0.
         11    1    3    3    0    0  0.40892023138E+02 -0.16959344238E+02  0.34236923835E+02  0.55963772811E+02  0.51100000000E-03 0.  1.
         22    1    1    0    0    0 -0.13087082099E+01  0.17129685542E+02 -0.21358409239E+02  0.27410225996E+02  0.00000000000E+00 0.  1.
</event>
<event>
 5    1  0.6690694E-004  0.9118800E+02  0.7818608E-02  0.1130116E+00
         25   -1    0    0    0    0  0.00000000000E+00  0.00000000000E+00  0.99999998245E-14  0.12500000000E+03  0.12500000000E+03 0.  0.
        -11    1    3    3    0    0 -0.15468631833E+02 -0.60208909371E+02 -0.31945009415E+01  0.62246254305E+02  0.51100000000E-03 0.  1.
         23    2    1    0    0    0 -0.96483390449E+01 -0.23192820392E+02 -0.28544809861E+01  0.99718674367E+02  0.96460710093E+02 0.  0.
         11    1    3    3    0    0  0.58202927881E+01  0.37016088979E+02  0.34001995541E+00  0.37472420062E+02  0.51100000000E-03 0. -1.
         22    1    1    0    0    0  0.96483390449E+01  0.23192820392E+02  0.28544809861E+01  0.25281325633E+02  0.00000000000E+00 0.  1.
</event>
<event>
 5    1  0.6690694E-004  0.9118800E+02  0.7818608E-02  0.1130116E+00
         25   -1    0    0    0    0  0.00000000000E+00  0.00000000000E+00  0.99999998245E-14  0.12500000000E+03  0.12500000000E+03 0.  0.
        -11    1    3    3    0    0  0.39963123878E+02 -0.21078174402E+02  0.34006805949E+02  0.56549125169E+02  0.51100000000E-03 0.  1.
         23    2    1    0    0    0  0.93235307970E+01  0.29761965819E+01  0.27199547905E+02  0.96093229533E+02  0.91642279452E+02 0.  0.
         11    1    3    3    0    0 -0.30639593081E+02  0.24054370984E+02 -0.68072580439E+01  0.39544104364E+02  0.51100000000E-03 0. -1.
         22    1    1    0    0    0 -0.93235307970E+01 -0.29761965819E+01 -0.27199547905E+02  0.28906770467E+02  0.00000000000E+00 0.  1.
</event>
<event>
 5    1  0.6690694E-004  0.9118800E+02  0.7818608E-02  0.1130116E+00
         25   -1    0    0    0    0  0.00000000000E+00  0.00000000000E+00  0.99999998245E-14  0.12500000000E+03  0.12500000000E+03 0.  0.
        -11    1    3    3    0    0  0.45918694632E+02 -0.46364911347E+01 -0.10253294472E+02  0.47277411250E+02  0.51100000000E-03 0.  1.
         23    2    1    0    0    0  0.13278303719E+02  0.23022264862E+02  0.12382805367E+02  0.95679838033E+02  0.91076668298E+02 0.  0.
         11    1    3    3    0    0 -0.32640390913E+02  0.27658755997E+02  0.22636099839E+02  0.48402426783E+02  0.51100000000E-03 0. -1.
         22    1    1    0    0    0 -0.13278303719E+02 -0.23022264862E+02 -0.12382805367E+02  0.29320161967E+02  0.00000000000E+00 0.  1.
</event>
<event>
 5    1  0.6690694E-004  0.9118800E+02  0.7818608E-02  0.1130116E+00
         25   -1    0    0    0    0  0.00000000000E+00  0.00000000000E+00  0.99999998245E-14  0.12500000000E+03  0.12500000000E+03 0.  0.
        -11    1    3    3    0    0  0.13131635237E+02 -0.54477945964E+02  0.24702524300E+02  0.61241335285E+02  0.51100000000E-03 0.  1.
         23    2    1    0    0    0  0.36802732605E+01 -0.34832034351E+02  0.70998869881E+01  0.89261737261E+02  0.81795075129E+02 0.  0.
         11    1    3    3    0    0 -0.94513619770E+01  0.19645911613E+02 -0.17602637312E+02  0.28020401976E+02  0.51100000000E-03 0. -1.
         22    1    1    0    0    0 -0.36802732605E+01  0.34832034351E+02 -0.70998869881E+01  0.35738262739E+02  0.00000000000E+00 0.  1.
</event>
<event>
 5    1  0.6690694E-004  0.9118800E+02  0.7818608E-02  0.1130116E+00
         25   -1    0    0    0    0  0.00000000000E+00  0.00000000000E+00  0.99999998245E-14  0.12500000000E+03  0.12500000000E+03 0.  0.
        -11    1    3    3    0    0 -0.15767595988E+01 -0.27479805547E+02 -0.34332603409E+02  0.44004017326E+02  0.51100000000E-03 0.  1.
         23    2    1    0    0    0 -0.47460580116E+00 -0.21940179174E+02  0.17985520523E+02  0.96626144758E+02  0.92366315232E+02 0.  0.
         11    1    3    3    0    0  0.11021537977E+01  0.55396263736E+01  0.52318123932E+02  0.52622127431E+02  0.51100000000E-03 0. -1.
         22    1    1    0    0    0  0.47460580116E+00  0.21940179174E+02 -0.17985520523E+02  0.28373855242E+02  0.00000000000E+00 0.  1.
</event>
<event>
 5    1  0.6690694E-004  0.9118800E+02  0.7818608E-02  0.1130116E+00
         25   -1    0    0    0    0  0.00000000000E+00  0.00000000000E+00  0.99999998245E-14  0.12500000000E+03  0.12500000000E+03 0.  0.
        -11    1    3    3    0    0 -0.10595455581E+02  0.48167313951E+02  0.23994421073E+02  0.54846021324E+02  0.51100000000E-03 0.  1.
         23    2    1    0    0    0 -0.58295048308E+01  0.59298525595E+01  0.26302714609E+02  0.97414150842E+02  0.93426643473E+02 0.  0.
         11    1    3    3    0    0  0.47659507505E+01 -0.42237461391E+02  0.23082935361E+01  0.42568129518E+02  0.51100000000E-03 0. -1.
         22    1    1    0    0    0  0.58295048308E+01 -0.59298525595E+01 -0.26302714609E+02  0.27585849158E+02  0.00000000000E+00 0.  1.
</event>
<event>
 5    1  0.6690694E-004  0.9118800E+02  0.7818608E-02  0.1130116E+00
         25   -1    0    0    0    0  0.00000000000E+00  0.00000000000E+00  0.99999998245E-14  0.12500000000E+03  0.12500000000E+03 0.  0.
        -11    1    3    3    0    0 -0.24441318907E+02 -0.27520534675E+02 -0.43548836878E+01  0.37063768169E+02  0.51100000000E-03 0.  1.
         23    2    1    0    0    0 -0.31706098281E+01  0.21414385575E+02 -0.22838199629E+02  0.93532365222E+02  0.88080027847E+02 0.  0.
         11    1    3    3    0    0  0.21270709079E+02  0.48934920250E+02 -0.18483315941E+02  0.56468597052E+02  0.51100000000E-03 0. -1.
         22    1    1    0    0    0  0.31706098281E+01 -0.21414385575E+02  0.22838199629E+02  0.31467634778E+02  0.00000000000E+00 0. -1.
</event>
<event>
 5    1  0.6690694E-004  0.9118800E+02  0.7818608E-02  0.1130116E+00
         25   -1    0    0    0    0  0.00000000000E+00  0.00000000000E+00  0.99999998245E-14  0.12500000000E+03  0.12500000000E+03 0.  0.
        -11    1    3    3    0    0  0.26886862903E+02  0.23238400853E+02 -0.22662096570E+02  0.42148514709E+02  0.51100000000E-03 0.  1.
         23    2    1    0    0    0  0.78211541994E+01  0.83932047530E+01  0.26056151875E+02  0.96530026526E+02  0.92236146014E+02 0.  0.
         11    1    3    3    0    0 -0.19065708704E+02 -0.14845196100E+02  0.48718248446E+02  0.54381511817E+02  0.51100000000E-03 0. -1.
         22    1    1    0    0    0 -0.78211541994E+01 -0.83932047530E+01 -0.26056151875E+02  0.28469973474E+02  0.00000000000E+00 0. -1.
</event>
<event>
 5    1  0.6690694E-004  0.9118800E+02  0.7818608E-02  0.1130116E+00
         25   -1    0    0    0    0  0.00000000000E+00  0.00000000000E+00  0.99999998245E-14  0.12500000000E+03  0.12500000000E+03 0.  0.
        -11    1    3    3    0    0  0.20840446014E+02 -0.92827524032E+01 -0.57198674182E+02  0.61580695114E+02  0.51100000000E-03 0.  1.
         23    2    1    0    0    0  0.29171175221E+01 -0.35539410848E+01 -0.29975120489E+02  0.94674302643E+02  0.89685983636E+02 0.  0.
         11    1    3    3    0    0 -0.17923328492E+02  0.57288113185E+01  0.27223553693E+02  0.33093607529E+02  0.51100000000E-03 0. -1.
         22    1    1    0    0    0 -0.29171175221E+01  0.35539410848E+01  0.29975120489E+02  0.30325697357E+02  0.00000000000E+00 0.  1.
</event>
<event>
 5    1  0.6690694E-004  0.9118800E+02  0.7818608E-02  0.1130116E+00
         25   -1    0    0    0    0  0.00000000000E+00  0.00000000000E+00  0.99999998245E-14  0.12500000000E+03  0.12500000000E+03 0.  0.
        -11    1    3    3    0    0  0.29719448860E+02 -0.10633857784E+02  0.79119571776E+01  0.32541106904E+02  0.51100000000E-03 0.  1.
         23    2    1    0    0    0 -0.29358068966E+02  0.47764061076E+01 -0.47068010880E+01  0.94885813224E+02  0.89980293987E+02 0.  0.
         11    1    3    3    0    0 -0.59077517826E+02  0.15410263892E+02 -0.12618758266E+02  0.62344706320E+02  0.51100000000E-03 0. -1.
         22    1    1    0    0    0  0.29358068966E+02 -0.47764061076E+01  0.47068010880E+01  0.30114186776E+02  0.00000000000E+00 0. -1.
</event>
<event>
 5    1  0.6690694E-004  0.9118800E+02  0.7818608E-02  0.1130116E+00
         25   -1    0    0    0    0  0.00000000000E+00  0.00000000000E+00  0.99999998245E-14  0.12500000000E+03  0.12500000000E+03 0.  0.
        -11    1    3    3    0    0  0.12427736488E+02  0.31047981909E+02 -0.21043970138E+01  0.33509018217E+02  0.51100000000E-03 0.  1.
         23    2    1    0    0    0  0.60913968035E+00 -0.29609281521E+02  0.77956694953E+00  0.95374194898E+02  0.90656211726E+02 0.  0.
         11    1    3    3    0    0 -0.11818596808E+02 -0.60657263430E+02  0.28839639634E+01  0.61865176680E+02  0.51100000000E-03 0. -1.
         22    1    1    0    0    0 -0.60913968035E+00  0.29609281521E+02 -0.77956694953E+00  0.29625805102E+02  0.00000000000E+00 0. -1.
</event>
<event>
 5    1  0.6690694E-004  0.9118800E+02  0.7818608E-02  0.1130116E+00
         25   -1    0    0    0    0  0.00000000000E+00  0.00000000000E+00  0.99999998245E-14  0.12500000000E+03  0.12500000000E+03 0.  0.
        -11    1    3    3    0    0  0.89965440032E+01  0.33698586389E+02 -0.50999033754E+02  0.61785386401E+02  0.51100000000E-03 0.  1.
         23    2    1    0    0    0  0.48183930232E+01  0.21952508586E+02 -0.21129772250E+02  0.94152037022E+02  0.88955096849E+02 0.  0.
         11    1    3    3    0    0 -0.41781509800E+01 -0.11746077803E+02  0.29869261504E+02  0.32366650621E+02  0.51100000000E-03 0. -1.
         22    1    1    0    0    0 -0.48183930232E+01 -0.21952508586E+02  0.21129772250E+02  0.30847962978E+02  0.00000000000E+00 0.  1.
</event>
<event>
 5    1  0.6690694E-004  0.9118800E+02  0.7818608E-02  0.1130116E+00
         25   -1    0    0    0    0  0.00000000000E+00  0.00000000000E+00  0.99999998245E-14  0.12500000000E+03  0.12500000000E+03 0.  0.
        -11    1    3    3    0    0  0.14142464841E+01 -0.26949574282E+02 -0.53857102697E+02  0.60240079335E+02  0.51100000000E-03 0.  1.
         23    2    1    0    0    0  0.12403327908E+02 -0.13431114902E+02 -0.23695867853E+02  0.95071225484E+02  0.90237499804E+02 0.  0.
         11    1    3    3    0    0  0.10989081424E+02  0.13518459379E+02  0.30161234843E+02  0.34831146149E+02  0.51100000000E-03 0. -1.
         22    1    1    0    0    0 -0.12403327908E+02  0.13431114902E+02  0.23695867853E+02  0.29928774516E+02  0.00000000000E+00 0.  1.
</event>
<event>
 5    1  0.6690694E-004  0.9118800E+02  0.7818608E-02  0.1130116E+00
         25   -1    0    0    0    0  0.00000000000E+00  0.00000000000E+00  0.99999998245E-14  0.12500000000E+03  0.12500000000E+03 0.  0.
        -11    1    3    3    0    0 -0.23807508209E+02 -0.47185859460E+02  0.25125749267E+02  0.58520133771E+02  0.51100000000E-03 0.  1.
         23    2    1    0    0    0 -0.22019749632E+02 -0.12070125632E+02  0.17199037112E+02  0.94563768561E+02  0.89531794019E+02 0.  0.
         11    1    3    3    0    0  0.17877585769E+01  0.35115733828E+02 -0.79267121546E+01  0.36043634790E+02  0.51100000000E-03 0. -1.
         22    1    1    0    0    0  0.22019749632E+02  0.12070125632E+02 -0.17199037112E+02  0.30436231439E+02  0.00000000000E+00 0.  1.
</event>
<event>
 5    1  0.6690694E-004  0.9118800E+02  0.7818608E-02  0.1130116E+00
         25   -1    0    0    0    0  0.00000000000E+00  0.00000000000E+00  0.99999998245E-14  0.12500000000E+03  0.12500000000E+03 0.  0.
        -11    1    3    3    0    0 -0.28851217236E+02 -0.19097032248E+02  0.46642360748E+02  0.58074083661E+02  0.51100000000E-03 0.  1.
         23    2    1    0    0    0 -0.30658360289E+00 -0.18895456465E+02  0.23645619691E+02  0.94730417923E+02  0.89764160336E+02 0.  0.
         11    1    3    3    0    0  0.28544633633E+02  0.20157578338E+00 -0.22996741057E+02  0.36656334262E+02  0.51100000000E-03 0. -1.
         22    1    1    0    0    0  0.30658360289E+00  0.18895456465E+02 -0.23645619691E+02  0.30269582077E+02  0.00000000000E+00 0.  1.
</event>
<event>
 5    1  0.6690694E-004  0.9118800E+02  0.7818608E-02  0.1130116E+00
         25   -1    0    0    0    0  0.00000000000E+00  0.00000000000E+00  0.99999998245E-14  0.12500000000E+03  0.12500000000E+03 0.  0.
        -11    1    3    3    0    0  0.18807670798E+02  0.27561187809E+02 -0.48326379456E+02  0.58726369766E+02  0.51100000000E-03 0.  1.
         23    2    1    0    0    0  0.16272951239E+02  0.20713417060E+02 -0.11520155212E+02  0.96249894532E+02  0.91855721830E+02 0.  0.
         11    1    3    3    0    0 -0.25347195590E+01 -0.68477707495E+01  0.36806224244E+02  0.37523524766E+02  0.51100000000E-03 0. -1.
         22    1    1    0    0    0 -0.16272951239E+02 -0.20713417060E+02  0.11520155212E+02  0.28750105468E+02  0.00000000000E+00 0.  1.
</event>
<event>
 5    1  0.6690694E-004  0.9118800E+02  0.7818608E-02  0.1130116E+00
         25   -1    0    0    0    0  0.00000000000E+00  0.00000000000E+00  0.99999998245E-14  0.12500000000E+03  0.12500000000E+03 0.  0.
        -11    1    3    3    0    0  0.37041515221E+02 -0.18983238424E+02 -0.43263533754E+02  0.60034744474E+02  0.51100000000E-03 0.  1.
         23    2    1    0    0    0  0.79559348176E+01 -0.90944880929E+01 -0.28346526303E+02  0.94185520190E+02  0.89002135073E+02 0.  0.
         11    1    3    3    0    0 -0.29085580403E+02  0.98887503310E+01  0.14917007451E+02  0.34150775717E+02  0.51100000000E-03 0. -1.
         22    1    1    0    0    0 -0.79559348176E+01  0.90944880929E+01  0.28346526303E+02  0.30814479810E+02  0.00000000000E+00 0.  1.
</event>
<event>
 5    1  0.6690694E-004  0.9118800E+02  0.7818608E-02  0.1130116E+00
         25   -1    0    0    0    0  0.00000000000E+00  0.00000000000E+00  0.99999998245E-14  0.12500000000E+03  0.12500000000E+03 0.  0.
        -11    1    3    3    0    0 -0.75166076866E+01  0.30820822276E+02  0.13880984492E+02  0.34628084088E+02  0.51100000000E-03 0.  1.
         23    2    1    0    0    0  0.12033311180E+02 -0.24785139435E+02 -0.59420349971E+01  0.96814693639E+02  0.92621128311E+02 0.  0.
         11    1    3    3    0    0  0.19549918866E+02 -0.55605961711E+02 -0.19823019489E+02  0.62186609551E+02  0.51100000000E-03 0. -1.
         22    1    1    0    0    0 -0.12033311180E+02  0.24785139435E+02  0.59420349971E+01  0.28185306361E+02  0.00000000000E+00 0. -1.
</event>
<event>
 5    1  0.6690694E-004  0.9118800E+02  0.7818608E-02  0.1130116E+00
         25   -1    0    0    0    0  0.00000000000E+00  0.00000000000E+00  0.99999998245E-14  0.12500000000E+03  0.12500000000E+03 0.  0.
        -11    1    3    3    0    0  0.26621791800E+02 -0.21300404035E+02  0.59402114034E+01  0.34607992176E+02  0.51100000000E-03 0. -1.
         23    2    1    0    0    0 -0.67786238379E+01  0.28614990666E+02 -0.34290369757E+01  0.95393822831E+02  0.90683271378E+02 0.  0.
         11    1    3    3    0    0 -0.33400415638E+02  0.49915394701E+02 -0.93692483791E+01  0.60785830655E+02  0.51100000000E-03 0.  1.
         22    1    1    0    0    0  0.67786238379E+01 -0.28614990666E+02  0.34290369757E+01  0.29606177169E+02  0.00000000000E+00 0.  1.
</event>
<event>
 5    1  0.6690694E-004  0.9118800E+02  0.7818608E-02  0.1130116E+00
         25   -1    0    0    0    0  0.00000000000E+00  0.00000000000E+00  0.99999998245E-14  0.12500000000E+03  0.12500000000E+03 0.  0.
        -11    1    3    3    0    0 -0.22421850271E+02 -0.20492721969E+02 -0.19548259335E+02  0.36122367953E+02  0.51100000000E-03 0. -1.
         23    2    1    0    0    0  0.82271303482E+00  0.29366832871E+02  0.27751253802E+01  0.95490864965E+02  0.90816938075E+02 0.  0.
         11    1    3    3    0    0  0.23244563306E+02  0.49859554840E+02  0.22323384715E+02  0.59368497012E+02  0.51100000000E-03 0.  1.
         22    1    1    0    0    0 -0.82271303482E+00 -0.29366832871E+02 -0.27751253802E+01  0.29509135035E+02  0.00000000000E+00 0.  1.
</event>
<event>
 5    1  0.6690694E-004  0.9118800E+02  0.7818608E-02  0.1130116E+00
         25   -1    0    0    0    0  0.00000000000E+00  0.00000000000E+00  0.99999998245E-14  0.12500000000E+03  0.12500000000E+03 0.  0.
        -11    1    3    3    0    0  0.26461266581E+02  0.26314805593E+02  0.48817732106E+02  0.61447852613E+02  0.51100000000E-03 0. -1.
         23    2    1    0    0    0  0.84829398151E+01  0.75967390315E+01  0.28178700143E+02  0.94607404626E+02  0.89592695888E+02 0.  0.
         11    1    3    3    0    0 -0.17978326766E+02 -0.18718066561E+02 -0.20639031963E+02  0.33159552014E+02  0.51100000000E-03 0.  1.
         22    1    1    0    0    0 -0.84829398151E+01 -0.75967390315E+01 -0.28178700143E+02  0.30392595374E+02  0.00000000000E+00 0. -1.
</event>
<event>
 5    1  0.6690694E-004  0.9118800E+02  0.7818608E-02  0.1130116E+00
         25   -1    0    0    0    0  0.00000000000E+00  0.00000000000E+00  0.99999998245E-14  0.12500000000E+03  0.12500000000E+03 0.  0.
        -11    1    3    3    0    0  0.26354963794E+02 -0.24189950140E+02  0.59935620093E+01  0.36272035926E+02  0.51100000000E-03 0. -1.
         23    2    1    0    0    0 -0.17742314893E+02  0.32844919502E+01 -0.22997296582E+02  0.95768967257E+02  0.91198913449E+02 0.  0.
         11    1    3    3    0    0 -0.44097278687E+02  0.27474442090E+02 -0.28990858591E+02  0.59496931332E+02  0.51100000000E-03 0.  1.
         22    1    1    0    0    0  0.17742314893E+02 -0.32844919502E+01  0.22997296582E+02  0.29231032743E+02  0.00000000000E+00 0.  1.
</event>
<event>
 5    1  0.6690694E-004  0.9118800E+02  0.7818608E-02  0.1130116E+00
         25   -1    0    0    0    0  0.00000000000E+00  0.00000000000E+00  0.99999998245E-14  0.12500000000E+03  0.12500000000E+03 0.  0.
        -11    1    3    3    0    0 -0.14365780331E+01 -0.95427230968E+01 -0.45008471285E+02  0.46031400242E+02  0.51100000000E-03 0. -1.
         23    2    1    0    0    0  0.25630735689E+02  0.10854871480E+02 -0.83877066192E+01  0.95929113032E+02  0.91418150593E+02 0.  0.
         11    1    3    3    0    0  0.27067313722E+02  0.20397594577E+02  0.36620764666E+02  0.49897712790E+02  0.51100000000E-03 0.  1.
         22    1    1    0    0    0 -0.25630735689E+02 -0.10854871480E+02  0.83877066192E+01  0.29070886968E+02  0.00000000000E+00 0. -1.
</event>
<event>
 5    1  0.6690694E-004  0.9118800E+02  0.7818608E-02  0.1130116E+00
         25   -1    0    0    0    0  0.00000000000E+00  0.00000000000E+00  0.99999998245E-14  0.12500000000E+03  0.12500000000E+03 0.  0.
        -11    1    3    3    0    0 -0.15394944352E+02  0.16820303641E+02  0.25648904316E+02  0.34318992104E+02  0.51100000000E-03 0.  1.
         23    2    1    0    0    0 -0.10392388231E+01  0.19666037841E+01 -0.30640376464E+02  0.94278993870E+02  0.89133318504E+02 0.  0.
         11    1    3    3    0    0  0.14355705529E+02 -0.14853699856E+02 -0.56289280781E+02  0.59960001766E+02  0.51100000000E-03 0. -1.
         22    1    1    0    0    0  0.10392388231E+01 -0.19666037841E+01  0.30640376464E+02  0.30721006130E+02  0.00000000000E+00 0. -1.
</event>
<event>
 5    1  0.6690694E-004  0.9118800E+02  0.7818608E-02  0.1130116E+00
         25   -1    0    0    0    0  0.00000000000E+00  0.00000000000E+00  0.99999998245E-14  0.12500000000E+03  0.12500000000E+03 0.  0.
        -11    1    3    3    0    0  0.94004928400E+01  0.53619792492E+02 -0.94981351028E+01  0.55259985371E+02  0.51100000000E-03 0.  1.
         23    2    1    0    0    0 -0.14611543620E+02  0.25984768423E+02  0.52525151852E+01  0.94729646307E+02  0.89763085824E+02 0.  0.
         11    1    3    3    0    0 -0.24012036460E+02 -0.27635024069E+02  0.14750650288E+02  0.39469660936E+02  0.51100000000E-03 0. -1.
         22    1    1    0    0    0  0.14611543620E+02 -0.25984768423E+02 -0.52525151852E+01  0.30270353693E+02  0.00000000000E+00 0.  1.
</event>
<event>
 5    1  0.6690694E-004  0.9118800E+02  0.7818608E-02  0.1130116E+00
         25   -1    0    0    0    0  0.00000000000E+00  0.00000000000E+00  0.99999998245E-14  0.12500000000E+03  0.12500000000E+03 0.  0.
        -11    1    3    3    0    0  0.80360128355E+00  0.33504119438E+02  0.10259621040E+02  0.35048988837E+02  0.51100000000E-03 0.  1.
         23    2    1    0    0    0 -0.12243643359E+02 -0.25695845315E+02  0.66065475017E+01  0.95779634857E+02  0.91213533614E+02 0.  0.
         11    1    3    3    0    0 -0.13047244643E+02 -0.59199964753E+02 -0.36530735387E+01  0.60730646021E+02  0.51100000000E-03 0. -1.
         22    1    1    0    0    0  0.12243643359E+02  0.25695845315E+02 -0.66065475017E+01  0.29220365143E+02  0.00000000000E+00 0. -1.
</event>
<event>
 5    1  0.6690694E-004  0.9118800E+02  0.7818608E-02  0.1130116E+00
         25   -1    0    0    0    0  0.00000000000E+00  0.00000000000E+00  0.99999998245E-14  0.12500000000E+03  0.12500000000E+03 0.  0.
        -11    1    3    3    0    0 -0.39324932662E+02  0.53843679573E+01 -0.95848579884E+01  0.40832722785E+02  0.51100000000E-03 0.  1.
         23    2    1    0    0    0 -0.91198258066E+01  0.15251580051E+02 -0.37738693622E+02  0.83286801692E+02  0.72088143428E+02 0.  0.
         11    1    3    3    0    0  0.30205106855E+02  0.98672120932E+01 -0.28153835634E+02  0.42454078906E+02  0.51100000000E-03 0. -1.
         22    1    1    0    0    0  0.91198258066E+01 -0.15251580051E+02  0.37738693622E+02  0.41713198308E+02  0.00000000000E+00 0.  1.
</event>
<event>
 5    1  0.6690694E-004  0.9118800E+02  0.7818608E-02  0.1130116E+00
         25   -1    0    0    0    0  0.00000000000E+00  0.00000000000E+00  0.99999998245E-14  0.12500000000E+03  0.12500000000E+03 0.  0.
        -11    1    3    3    0    0 -0.42655704917E+02 -0.34994583487E+02  0.36755446688E+01  0.55295928099E+02  0.51100000000E-03 0.  1.
         23    2    1    0    0    0 -0.20632387117E+01 -0.27893918875E+02  0.52795513498E+01  0.96535964329E+02  0.92244192675E+02 0.  0.
         11    1    3    3    0    0  0.40592466206E+02  0.71006646119E+01  0.16040066809E+01  0.41240036230E+02  0.51100000000E-03 0. -1.
         22    1    1    0    0    0  0.20632387117E+01  0.27893918875E+02 -0.52795513498E+01  0.28464035671E+02  0.00000000000E+00 0.  1.
</event>
<event>
 5    1  0.6690694E-004  0.9118800E+02  0.7818608E-02  0.1130116E+00
         25   -1    0    0    0    0  0.00000000000E+00  0.00000000000E+00  0.99999998245E-14  0.12500000000E+03  0.12500000000E+03 0.  0.
        -11    1    3    3    0    0  0.28229342292E+02 -0.26334209440E+02 -0.23166790990E+02  0.45023178010E+02  0.51100000000E-03 0. -1.
         23    2    1    0    0    0  0.22868441546E+02  0.19527700415E+02 -0.12627097940E+02  0.92384968118E+02  0.86436346693E+02 0.  0.
         11    1    3    3    0    0 -0.53609007457E+01  0.45861909855E+02  0.10539693050E+02  0.47361790108E+02  0.51100000000E-03 0.  1.
         22    1    1    0    0    0 -0.22868441546E+02 -0.19527700415E+02  0.12627097940E+02  0.32615031882E+02  0.00000000000E+00 0.  1.
</event>
<event>
 5    1  0.6690694E-004  0.9118800E+02  0.7818608E-02  0.1130116E+00
         25   -1    0    0    0    0  0.00000000000E+00  0.00000000000E+00  0.99999998245E-14  0.12500000000E+03  0.12500000000E+03 0.  0.
        -11    1    3    3    0    0  0.38164468378E+01  0.19293622617E+02  0.51380717821E+02  0.55016245821E+02  0.51100000000E-03 0. -1.
         23    2    1    0    0    0 -0.88968461934E+01 -0.10041186033E+02  0.25641761783E+02  0.96060766484E+02  0.91597989175E+02 0.  0.
         11    1    3    3    0    0 -0.12713293031E+02 -0.29334808651E+02 -0.25738956038E+02  0.41044520663E+02  0.51100000000E-03 0.  1.
         22    1    1    0    0    0  0.88968461934E+01  0.10041186033E+02 -0.25641761783E+02  0.28939233516E+02  0.00000000000E+00 0. -1.
</event>
<event>
 5    1  0.6690694E-004  0.9118800E+02  0.7818608E-02  0.1130116E+00
         25   -1    0    0    0    0  0.00000000000E+00  0.00000000000E+00  0.99999998245E-14  0.12500000000E+03  0.12500000000E+03 0.  0.
        -11    1    3    3    0    0 -0.12631523543E+02  0.44350184692E+02 -0.29815979132E+02  0.54913449000E+02  0.51100000000E-03 0.  1.
         23    2    1    0    0    0 -0.26818907449E+02  0.18449458960E+02 -0.84345166876E+01  0.91372966167E+02  0.84960235062E+02 0.  0.
         11    1    3    3    0    0 -0.14187383906E+02 -0.25900725733E+02  0.21381462444E+02  0.36459517167E+02  0.51100000000E-03 0. -1.
         22    1    1    0    0    0  0.26818907449E+02 -0.18449458960E+02  0.84345166876E+01  0.33627033833E+02  0.00000000000E+00 0.  1.
</event>
<event>
 5    1  0.6690694E-004  0.9118800E+02  0.7818608E-02  0.1130116E+00
         25   -1    0    0    0    0  0.00000000000E+00  0.00000000000E+00  0.99999998245E-14  0.12500000000E+03  0.12500000000E+03 0.  0.
        -11    1    3    3    0    0  0.10205255789E+02  0.47327247662E+00 -0.35175460616E+02  0.36629008482E+02  0.51100000000E-03 0. -1.
         23    2    1    0    0    0 -0.26789225645E+02 -0.16158653556E+01  0.11139572365E+02  0.95942062978E+02  0.91435855902E+02 0.  0.
         11    1    3    3    0    0 -0.36994481434E+02 -0.20891378322E+01  0.46315032980E+02  0.59313054496E+02  0.51100000000E-03 0.  1.
         22    1    1    0    0    0  0.26789225645E+02  0.16158653556E+01 -0.11139572365E+02  0.29057937022E+02  0.00000000000E+00 0.  1.
</event>
<event>
 5    1  0.6690694E-004  0.9118800E+02  0.7818608E-02  0.1130116E+00
         25   -1    0    0    0    0  0.00000000000E+00  0.00000000000E+00  0.99999998245E-14  0.12500000000E+03  0.12500000000E+03 0.  0.
        -11    1    3    3    0    0  0.76026874664E+01  0.34024980476E+02 -0.19701688153E+02  0.40045682282E+02  0.51100000000E-03 0.  1.
         23    2    1    0    0    0  0.15579749873E+02 -0.19693419022E+02 -0.17490410016E+02  0.94398140556E+02  0.89300252738E+02 0.  0.
         11    1    3    3    0    0  0.79770624063E+01 -0.53718399498E+02  0.22112781363E+01  0.54352458275E+02  0.51100000000E-03 0. -1.
         22    1    1    0    0    0 -0.15579749873E+02  0.19693419022E+02  0.17490410016E+02  0.30601859444E+02  0.00000000000E+00 0. -1.
</event>
<event>
 5    1  0.6690694E-004  0.9118800E+02  0.7818608E-02  0.1130116E+00
         25   -1    0    0    0    0  0.00000000000E+00  0.00000000000E+00  0.99999998245E-14  0.12500000000E+03  0.12500000000E+03 0.  0.
        -11    1    3    3    0    0  0.66421859555E+01  0.26921813864E+01  0.34631732965E+02  0.35365568047E+02  0.51100000000E-03 0. -1.
         23    2    1    0    0    0 -0.15239955915E+02  0.86348189979E+01 -0.22298033995E+02  0.96644776928E+02  0.92391526841E+02 0.  0.
         11    1    3    3    0    0 -0.21882141871E+02  0.59426376115E+01 -0.56929766960E+02  0.61279208881E+02  0.51100000000E-03 0.  1.
         22    1    1    0    0    0  0.15239955915E+02 -0.86348189979E+01  0.22298033995E+02  0.28355223072E+02  0.00000000000E+00 0.  1.
</event>
<event>
 5    1  0.6690694E-004  0.9118800E+02  0.7818608E-02  0.1130116E+00
         25   -1    0    0    0    0  0.00000000000E+00  0.00000000000E+00  0.99999998245E-14  0.12500000000E+03  0.12500000000E+03 0.  0.
        -11    1    3    3    0    0  0.36094375045E+02  0.50471438320E+02 -0.50874302720E+01  0.62257946826E+02  0.51100000000E-03 0. -1.
         23    2    1    0    0    0  0.18281995639E+02  0.22366823326E+02 -0.57827154698E+01  0.95539077604E+02  0.90883273494E+02 0.  0.
         11    1    3    3    0    0 -0.17812379406E+02 -0.28104614994E+02 -0.69528519785E+00  0.33281130778E+02  0.51100000000E-03 0.  1.
         22    1    1    0    0    0 -0.18281995639E+02 -0.22366823326E+02  0.57827154698E+01  0.29460922396E+02  0.00000000000E+00 0. -1.
</event>
<event>
 5    1  0.6690694E-004  0.9118800E+02  0.7818608E-02  0.1130116E+00
         25   -1    0    0    0    0  0.00000000000E+00  0.00000000000E+00  0.99999998245E-14  0.12500000000E+03  0.12500000000E+03 0.  0.
        -11    1    3    3    0    0 -0.20949922252E+02  0.20914200198E+02  0.39104499445E+02  0.49045538935E+02  0.51100000000E-03 0. -1.
         23    2    1    0    0    0 -0.18434904722E+02 -0.15874514837E+02  0.28733576169E+02  0.87350772480E+02  0.78820638921E+02 0.  0.
         11    1    3    3    0    0  0.25150175302E+01 -0.36788715034E+02 -0.10370923277E+02  0.38305233545E+02  0.51100000000E-03 0.  1.
         22    1    1    0    0    0  0.18434904722E+02  0.15874514837E+02 -0.28733576169E+02  0.37649227520E+02  0.00000000000E+00 0. -1.
</event>
<event>
 5    1  0.6690694E-004  0.9118800E+02  0.7818608E-02  0.1130116E+00
         25   -1    0    0    0    0  0.00000000000E+00  0.00000000000E+00  0.99999998245E-14  0.12500000000E+03  0.12500000000E+03 0.  0.
        -11    1    3    3    0    0  0.14018157018E+02  0.14385373160E+02  0.58927337681E+02  0.62256556390E+02  0.51100000000E-03 0.  1.
         23    2    1    0    0    0  0.99518230484E+01  0.70318535116E+01  0.25292319818E+02  0.96925328363E+02  0.92770319018E+02 0.  0.
         11    1    3    3    0    0 -0.40663339698E+01 -0.73535196488E+01 -0.33635017863E+02  0.34668771973E+02  0.51100000000E-03 0. -1.
         22    1    1    0    0    0 -0.99518230484E+01 -0.70318535116E+01 -0.25292319818E+02  0.28074671637E+02  0.00000000000E+00 0.  1.
</event>
<event>
 5    1  0.6690694E-004  0.9118800E+02  0.7818608E-02  0.1130116E+00
         25   -1    0    0    0    0  0.00000000000E+00  0.00000000000E+00  0.99999998245E-14  0.12500000000E+03  0.12500000000E+03 0.  0.
        -11    1    3    3    0    0  0.18452588471E+02 -0.26744868127E+02 -0.26473780989E+02  0.41912373740E+02  0.51100000000E-03 0. -1.
         23    2    1    0    0    0  0.13170982360E+02  0.58091161308E+01  0.20892078259E+02  0.99628765491E+02  0.96344129934E+02 0.  0.
         11    1    3    3    0    0 -0.52816061114E+01  0.32553984258E+02  0.47365859248E+02  0.57716391751E+02  0.51100000000E-03 0.  1.
         22    1    1    0    0    0 -0.13170982360E+02 -0.58091161308E+01 -0.20892078259E+02  0.25371234509E+02  0.00000000000E+00 0.  1.
</event>
<event>
 5    1  0.6690694E-004  0.9118800E+02  0.7818608E-02  0.1130116E+00
         25   -1    0    0    0    0  0.00000000000E+00  0.00000000000E+00  0.99999998245E-14  0.12500000000E+03  0.12500000000E+03 0.  0.
        -11    1    3    3    0    0  0.72747982072E+01 -0.38248988387E+02 -0.41808242146E+02  0.57130000116E+02  0.51100000000E-03 0.  1.
         23    2    1    0    0    0 -0.30340892755E+01 -0.27402578681E+02 -0.48447578431E+01  0.97007524320E+02  0.92881004948E+02 0.  0.
         11    1    3    3    0    0 -0.10308887483E+02  0.10846409706E+02  0.36963484303E+02  0.39877524205E+02  0.51100000000E-03 0. -1.
         22    1    1    0    0    0  0.30340892755E+01  0.27402578681E+02  0.48447578431E+01  0.27992475680E+02  0.00000000000E+00 0.  1.
</event>
<event>
 5    1  0.6690694E-004  0.9118800E+02  0.7818608E-02  0.1130116E+00
         25   -1    0    0    0    0  0.00000000000E+00  0.00000000000E+00  0.99999998245E-14  0.12500000000E+03  0.12500000000E+03 0.  0.
        -11    1    3    3    0    0  0.20204417934E+02 -0.20891752952E+02  0.24242651193E+02  0.37846928311E+02  0.51100000000E-03 0. -1.
         23    2    1    0    0    0 -0.25354835388E+01 -0.83293780317E+01 -0.27721523673E+02  0.95943329683E+02  0.91437587570E+02 0.  0.
         11    1    3    3    0    0 -0.22739901472E+02  0.12562374920E+02 -0.51964174866E+02  0.58096401372E+02  0.51100000000E-03 0.  1.
         22    1    1    0    0    0  0.25354835388E+01  0.83293780317E+01  0.27721523673E+02  0.29056670317E+02  0.00000000000E+00 0. -1.
</event>
<event>
 5    1  0.6690694E-004  0.9118800E+02  0.7818608E-02  0.1130116E+00
         25   -1    0    0    0    0  0.00000000000E+00  0.00000000000E+00  0.99999998245E-14  0.12500000000E+03  0.12500000000E+03 0.  0.
        -11    1    3    3    0    0  0.16462870407E+02  0.48610247667E+02  0.12526720601E+02  0.52828978880E+02  0.51100000000E-03 0.  1.
         23    2    1    0    0    0  0.89442903719E+01  0.85996759295E+01  0.26392488131E+02  0.95836355061E+02  0.91291230495E+02 0.  0.
         11    1    3    3    0    0 -0.75185800349E+01 -0.40010571738E+02  0.13865767530E+02  0.43007376181E+02  0.51100000000E-03 0. -1.
         22    1    1    0    0    0 -0.89442903719E+01 -0.85996759295E+01 -0.26392488131E+02  0.29163644939E+02  0.00000000000E+00 0.  1.
</event>
<event>
 5    1  0.6690694E-004  0.9118800E+02  0.7818608E-02  0.1130116E+00
         25   -1    0    0    0    0  0.00000000000E+00  0.00000000000E+00  0.99999998245E-14  0.12500000000E+03  0.12500000000E+03 0.  0.
        -11    1    3    3    0    0  0.22247868623E+00  0.53417213489E+02 -0.70754045659E+01  0.53884223514E+02  0.51100000000E-03 0. -1.
         23    2    1    0    0    0  0.41968104516E+01  0.23024915594E+02  0.19565424264E+02  0.94494823673E+02  0.89435484671E+02 0.  0.
         11    1    3    3    0    0  0.39743317653E+01 -0.30392297894E+02  0.26640828830E+02  0.40610600159E+02  0.51100000000E-03 0.  1.
         22    1    1    0    0    0 -0.41968104516E+01 -0.23024915594E+02 -0.19565424264E+02  0.30505176327E+02  0.00000000000E+00 0. -1.
</event>
<event>
 5    1  0.6690694E-004  0.9118800E+02  0.7818608E-02  0.1130116E+00
         25   -1    0    0    0    0  0.00000000000E+00  0.00000000000E+00  0.99999998245E-14  0.12500000000E+03  0.12500000000E+03 0.  0.
        -11    1    3    3    0    0  0.38900386793E+02  0.28269587437E+02  0.28514731331E+02  0.55906167546E+02  0.51100000000E-03 0.  1.
         23    2    1    0    0    0  0.20218900342E+02  0.21471885416E+02 -0.52061991283E+01  0.95050871403E+02  0.90209300245E+02 0.  0.
         11    1    3    3    0    0 -0.18681486452E+02 -0.67977020205E+01 -0.33720930459E+02  0.39144703857E+02  0.51100000000E-03 0. -1.
         22    1    1    0    0    0 -0.20218900342E+02 -0.21471885416E+02  0.52061991283E+01  0.29949128597E+02  0.00000000000E+00 0.  1.
</event>
<event>
 5    1  0.6690694E-004  0.9118800E+02  0.7818608E-02  0.1130116E+00
         25   -1    0    0    0    0  0.00000000000E+00  0.00000000000E+00  0.99999998245E-14  0.12500000000E+03  0.12500000000E+03 0.  0.
        -11    1    3    3    0    0 -0.33829920499E+02 -0.75974347427E+01  0.10570458320E+02  0.36248022360E+02  0.51100000000E-03 0. -1.
         23    2    1    0    0    0  0.26401398220E+01  0.14139061008E+02 -0.27944431418E+02  0.93571117873E+02  0.88135007053E+02 0.  0.
         11    1    3    3    0    0  0.36470060321E+02  0.21736495751E+02 -0.38514889738E+02  0.57323095513E+02  0.51100000000E-03 0.  1.
         22    1    1    0    0    0 -0.26401398220E+01 -0.14139061008E+02  0.27944431418E+02  0.31428882127E+02  0.00000000000E+00 0.  1.
</event>
<event>
 5    1  0.6690694E-004  0.9118800E+02  0.7818608E-02  0.1130116E+00
         25   -1    0    0    0    0  0.00000000000E+00  0.00000000000E+00  0.99999998245E-14  0.12500000000E+03  0.12500000000E+03 0.  0.
        -11    1    3    3    0    0  0.32517336392E+02  0.15581557665E+02  0.38382250622E+01  0.36261468216E+02  0.51100000000E-03 0.  1.
         23    2    1    0    0    0 -0.11676539493E+02 -0.96204455006E+01 -0.25764395905E+02  0.95121937103E+02  0.90307719912E+02 0.  0.
         11    1    3    3    0    0 -0.44193875885E+02 -0.25202003165E+02 -0.29602620967E+02  0.58860468887E+02  0.51100000000E-03 0. -1.
         22    1    1    0    0    0  0.11676539493E+02  0.96204455006E+01  0.25764395905E+02  0.29878062897E+02  0.00000000000E+00 0. -1.
</event>
<event>
 5    1  0.6690694E-004  0.9118800E+02  0.7818608E-02  0.1130116E+00
         25   -1    0    0    0    0  0.00000000000E+00  0.00000000000E+00  0.99999998245E-14  0.12500000000E+03  0.12500000000E+03 0.  0.
        -11    1    3    3    0    0  0.39331980289E+02 -0.39483918801E+01  0.26622496414E+01  0.39619213083E+02  0.51100000000E-03 0.  1.
         23    2    1    0    0    0 -0.16003414538E+02 -0.19405907318E+02 -0.90746831897E+01  0.98259611246E+02  0.94551059283E+02 0.  0.
         11    1    3    3    0    0 -0.55335394827E+02 -0.15457515438E+02 -0.11736932831E+02  0.58640398163E+02  0.51100000000E-03 0. -1.
         22    1    1    0    0    0  0.16003414538E+02  0.19405907318E+02  0.90746831897E+01  0.26740388754E+02  0.00000000000E+00 0. -1.
</event>
<event>
 5    1  0.6690694E-004  0.9118800E+02  0.7818608E-02  0.1130116E+00
         25   -1    0    0    0    0  0.00000000000E+00  0.00000000000E+00  0.99999998245E-14  0.12500000000E+03  0.12500000000E+03 0.  0.
        -11    1    3    3    0    0 -0.38286231444E+02  0.40052235927E+01  0.17056271383E+02  0.42104557092E+02  0.51100000000E-03 0. -1.
         23    2    1    0    0    0  0.16655541434E+02  0.65669554004E+01  0.21187771865E+02  0.97260972615E+02  0.93221473672E+02 0.  0.
         11    1    3    3    0    0  0.54941772878E+02  0.25617318077E+01  0.41315004813E+01  0.55156415522E+02  0.51100000000E-03 0.  1.
         22    1    1    0    0    0 -0.16655541434E+02 -0.65669554004E+01 -0.21187771865E+02  0.27739027385E+02  0.00000000000E+00 0.  1.
</event>
<event>
 5    1  0.6690694E-004  0.9118800E+02  0.7818608E-02  0.1130116E+00
         25   -1    0    0    0    0  0.00000000000E+00  0.00000000000E+00  0.99999998245E-14  0.12500000000E+03  0.12500000000E+03 0.  0.
        -11    1    3    3    0    0  0.40017634092E+02  0.81145735790E+01  0.46644121086E+02  0.61991381456E+02  0.51100000000E-03 0.  1.
         23    2    1    0    0    0  0.19764078332E+02  0.83390600590E+01  0.18456650318E+02  0.96701472548E+02  0.92468200680E+02 0.  0.
         11    1    3    3    0    0 -0.20253555760E+02  0.22448648000E+00 -0.28187470767E+02  0.34710091092E+02  0.51100000000E-03 0. -1.
         22    1    1    0    0    0 -0.19764078332E+02 -0.83390600590E+01 -0.18456650318E+02  0.28298527452E+02  0.00000000000E+00 0.  1.
</event>
<event>
 5    1  0.6690694E-004  0.9118800E+02  0.7818608E-02  0.1130116E+00
         25   -1    0    0    0    0  0.00000000000E+00  0.00000000000E+00  0.99999998245E-14  0.12500000000E+03  0.12500000000E+03 0.  0.
        -11    1    3    3    0    0 -0.61950549967E+01 -0.13372661505E+02  0.22382792101E+02  0.26799182164E+02  0.51100000000E-03 0.  1.
         23    2    1    0    0    0 -0.10725374314E+02  0.21216929849E+02 -0.28118730805E+02  0.88178066475E+02  0.80121886016E+02 0.  0.
         11    1    3    3    0    0 -0.45303193172E+01  0.34589591354E+02 -0.50501522906E+02  0.61378884311E+02  0.51100000000E-03 0. -1.
         22    1    1    0    0    0  0.10725374314E+02 -0.21216929849E+02  0.28118730805E+02  0.36821933525E+02  0.00000000000E+00 0. -1.
</event>
<event>
 5    1  0.6690694E-004  0.9118800E+02  0.7818608E-02  0.1130116E+00
         25   -1    0    0    0    0  0.00000000000E+00  0.00000000000E+00  0.99999998245E-14  0.12500000000E+03  0.12500000000E+03 0.  0.
        -11    1    3    3    0    0 -0.97463249521E+01  0.44693525988E+02  0.16969342274E+02  0.48789965083E+02  0.51100000000E-03 0.  1.
         23    2    1    0    0    0  0.48541595857E+01  0.31805633625E+00  0.27827135647E+02  0.96750867209E+02  0.92534949086E+02 0.  0.
         11    1    3    3    0    0  0.14600484538E+02 -0.44375469652E+02  0.10857793372E+02  0.47960902126E+02  0.51100000000E-03 0. -1.
         22    1    1    0    0    0 -0.48541595857E+01 -0.31805633625E+00 -0.27827135647E+02  0.28249132791E+02  0.00000000000E+00 0. -1.
</event>
<event>
 5    1  0.6690694E-004  0.9118800E+02  0.7818608E-02  0.1130116E+00
         25   -1    0    0    0    0  0.00000000000E+00  0.00000000000E+00  0.99999998245E-14  0.12500000000E+03  0.12500000000E+03 0.  0.
        -11    1    3    3    0    0 -0.31128639554E+02 -0.27074211244E+02  0.46355428736E+02  0.62055063360E+02  0.51100000000E-03 0.  1.
         23    2    1    0    0    0 -0.12746064699E+02 -0.62869373761E+01  0.10841230301E+02  0.10712487703E+03  0.10562300534E+03 0.  0.
         11    1    3    3    0    0  0.18382574855E+02  0.20787273868E+02 -0.35514198436E+02  0.45069813666E+02  0.51100000000E-03 0. -1.
         22    1    1    0    0    0  0.12746064699E+02  0.62869373761E+01 -0.10841230301E+02  0.17875122974E+02  0.00000000000E+00 0.  1.
</event>
<event>
 5    1  0.6690694E-004  0.9118800E+02  0.7818608E-02  0.1130116E+00
         25   -1    0    0    0    0  0.00000000000E+00  0.00000000000E+00  0.99999998245E-14  0.12500000000E+03  0.12500000000E+03 0.  0.
        -11    1    3    3    0    0 -0.51877549989E+01 -0.18388803427E+02  0.38689477734E+02  0.43150163163E+02  0.51100000000E-03 0. -1.
         23    2    1    0    0    0  0.58692099469E+01  0.25489495248E+02  0.87051234865E+01  0.97432969541E+02  0.93451818523E+02 0.  0.
         11    1    3    3    0    0  0.11056964946E+02  0.43878298675E+02 -0.29984354247E+02  0.54282806378E+02  0.51100000000E-03 0.  1.
         22    1    1    0    0    0 -0.58692099469E+01 -0.25489495248E+02 -0.87051234865E+01  0.27567030459E+02  0.00000000000E+00 0.  1.
</event>
<event>
 5    1  0.6690694E-004  0.9118800E+02  0.7818608E-02  0.1130116E+00
         25   -1    0    0    0    0  0.00000000000E+00  0.00000000000E+00  0.99999998245E-14  0.12500000000E+03  0.12500000000E+03 0.  0.
        -11    1    3    3    0    0  0.36503350148E+02 -0.60795797024E+01 -0.27159942522E+02  0.45903358695E+02  0.51100000000E-03 0. -1.
         23    2    1    0    0    0  0.16229572038E+02 -0.22299817737E+02  0.13614313867E+02  0.94242392458E+02  0.89081974128E+02 0.  0.
         11    1    3    3    0    0 -0.20273778111E+02 -0.16220238034E+02  0.40774256390E+02  0.48339033763E+02  0.51100000000E-03 0.  1.
         22    1    1    0    0    0 -0.16229572038E+02  0.22299817737E+02 -0.13614313867E+02  0.30757607542E+02  0.00000000000E+00 0. -1.
</event>
<event>
 5    1  0.6690694E-004  0.9118800E+02  0.7818608E-02  0.1130116E+00
         25   -1    0    0    0    0  0.00000000000E+00  0.00000000000E+00  0.99999998245E-14  0.12500000000E+03  0.12500000000E+03 0.  0.
        -11    1    3    3    0    0  0.39267820238E+02  0.11901903413E+01  0.25814417308E+02  0.47008109944E+02  0.51100000000E-03 0.  1.
         23    2    1    0    0    0  0.17265417303E+02  0.10989836908E+02 -0.18478251171E+02  0.97426155215E+02  0.93442703319E+02 0.  0.
         11    1    3    3    0    0 -0.22002402934E+02  0.97996465668E+01 -0.44292668479E+02  0.50418045271E+02  0.51100000000E-03 0. -1.
         22    1    1    0    0    0 -0.17265417303E+02 -0.10989836908E+02  0.18478251171E+02  0.27573844785E+02  0.00000000000E+00 0. -1.
</event>
<event>
 5    1  0.6690694E-004  0.9118800E+02  0.7818608E-02  0.1130116E+00
         25   -1    0    0    0    0  0.00000000000E+00  0.00000000000E+00  0.99999998245E-14  0.12500000000E+03  0.12500000000E+03 0.  0.
        -11    1    3    3    0    0 -0.20635176957E+01 -0.43500612199E+02 -0.27052844169E+02  0.51268096755E+02  0.51100000000E-03 0. -1.
         23    2    1    0    0    0  0.22954931572E+02 -0.17929176465E+02 -0.41625863344E+00  0.95869989299E+02  0.91337272374E+02 0.  0.
         11    1    3    3    0    0  0.25018449268E+02  0.25571435734E+02  0.26636585536E+02  0.44601892544E+02  0.51100000000E-03 0.  1.
         22    1    1    0    0    0 -0.22954931572E+02  0.17929176465E+02  0.41625863344E+00  0.29130010701E+02  0.00000000000E+00 0. -1.
</event>
<event>
 5    1  0.6690694E-004  0.9118800E+02  0.7818608E-02  0.1130116E+00
         25   -1    0    0    0    0  0.00000000000E+00  0.00000000000E+00  0.99999998245E-14  0.12500000000E+03  0.12500000000E+03 0.  0.
        -11    1    3    3    0    0  0.20875147951E+02  0.22286908840E+01 -0.27483602188E+02  0.34584494424E+02  0.51100000000E-03 0.  1.
         23    2    1    0    0    0 -0.19799117988E+02  0.18684497313E+02  0.13489538483E+02  0.94617716323E+02  0.89607081644E+02 0.  0.
         11    1    3    3    0    0 -0.40674265939E+02  0.16455806429E+02  0.40973140671E+02  0.60033221899E+02  0.51100000000E-03 0. -1.
         22    1    1    0    0    0  0.19799117988E+02 -0.18684497313E+02 -0.13489538483E+02  0.30382283677E+02  0.00000000000E+00 0. -1.
</event>
<event>
 5    1  0.6690694E-004  0.9118800E+02  0.7818608E-02  0.1130116E+00
         25   -1    0    0    0    0  0.00000000000E+00  0.00000000000E+00  0.99999998245E-14  0.12500000000E+03  0.12500000000E+03 0.  0.
        -11    1    3    3    0    0  0.30131335392E+02 -0.30161669638E+02  0.91954988275E+01  0.43613998748E+02  0.51100000000E-03 0. -1.
         23    2    1    0    0    0 -0.20130501180E+02 -0.18729947674E+02  0.11464398473E+02  0.95209389903E+02  0.90428687239E+02 0.  0.
         11    1    3    3    0    0 -0.50261836572E+02  0.11431721964E+02  0.22688996454E+01  0.51595391155E+02  0.51100000000E-03 0.  1.
         22    1    1    0    0    0  0.20130501180E+02  0.18729947674E+02 -0.11464398473E+02  0.29790610097E+02  0.00000000000E+00 0. -1.
</event>
<event>
 5    1  0.6690694E-004  0.9118800E+02  0.7818608E-02  0.1130116E+00
         25   -1    0    0    0    0  0.00000000000E+00  0.00000000000E+00  0.99999998245E-14  0.12500000000E+03  0.12500000000E+03 0.  0.
        -11    1    3    3    0    0  0.44591951084E+02  0.56011608633E+01  0.40007716162E+02  0.60170029560E+02  0.51100000000E-03 0. -1.
         23    2    1    0    0    0  0.20218511473E+02 -0.94823029718E+01  0.18377238431E+02  0.96078983971E+02  0.91622846456E+02 0.  0.
         11    1    3    3    0    0 -0.24373439611E+02 -0.15083463835E+02 -0.21630477731E+02  0.35908954411E+02  0.51100000000E-03 0.  1.
         22    1    1    0    0    0 -0.20218511473E+02  0.94823029718E+01 -0.18377238431E+02  0.28921016029E+02  0.00000000000E+00 0. -1.
</event>
<event>
 5    1  0.6690694E-004  0.9118800E+02  0.7818608E-02  0.1130116E+00
         25   -1    0    0    0    0  0.00000000000E+00  0.00000000000E+00  0.99999998245E-14  0.12500000000E+03  0.12500000000E+03 0.  0.
        -11    1    3    3    0    0 -0.61921934575E-01  0.11242513056E+02 -0.38402648080E+02  0.40014513791E+02  0.51100000000E-03 0.  1.
         23    2    1    0    0    0 -0.19701681473E+02  0.27107037806E+02  0.58694706895E+01  0.90979440956E+02  0.84379264271E+02 0.  0.
         11    1    3    3    0    0 -0.19639759538E+02  0.15864524750E+02  0.44272118770E+02  0.50964927164E+02  0.51100000000E-03 0. -1.
         22    1    1    0    0    0  0.19701681473E+02 -0.27107037806E+02 -0.58694706895E+01  0.34020559044E+02  0.00000000000E+00 0. -1.
</event>
<event>
 5    1  0.6690694E-004  0.9118800E+02  0.7818608E-02  0.1130116E+00
         25   -1    0    0    0    0  0.00000000000E+00  0.00000000000E+00  0.99999998245E-14  0.12500000000E+03  0.12500000000E+03 0.  0.
        -11    1    3    3    0    0  0.45974184622E+02 -0.28203983511E+02  0.14268863717E+02  0.55791494061E+02  0.51100000000E-03 0.  1.
         23    2    1    0    0    0  0.11832530286E+02 -0.26027414758E+02 -0.63185222580E+01  0.95719309853E+02  0.91130826086E+02 0.  0.
         11    1    3    3    0    0 -0.34141654336E+02  0.21765687529E+01 -0.20587385975E+02  0.39927815791E+02  0.51100000000E-03 0. -1.
         22    1    1    0    0    0 -0.11832530286E+02  0.26027414758E+02  0.63185222580E+01  0.29280690147E+02  0.00000000000E+00 0.  1.
</event>
<event>
 5    1  0.6690694E-004  0.9118800E+02  0.7818608E-02  0.1130116E+00
         25   -1    0    0    0    0  0.00000000000E+00  0.00000000000E+00  0.99999998245E-14  0.12500000000E+03  0.12500000000E+03 0.  0.
        -11    1    3    3    0    0 -0.17594865322E+02  0.16422401173E+02 -0.25220032229E+02  0.34861505588E+02  0.51100000000E-03 0.  1.
         23    2    1    0    0    0  0.12066750791E+02 -0.22916015955E+02  0.11850997234E+02  0.96518490256E+02  0.92220510538E+02 0.  0.
         11    1    3    3    0    0  0.29661616113E+02 -0.39338417128E+02  0.37071029463E+02  0.61656984667E+02  0.51100000000E-03 0. -1.
         22    1    1    0    0    0 -0.12066750791E+02  0.22916015955E+02 -0.11850997234E+02  0.28481509744E+02  0.00000000000E+00 0. -1.
</event>
<event>
 5    1  0.6690694E-004  0.9118800E+02  0.7818608E-02  0.1130116E+00
         25   -1    0    0    0    0  0.00000000000E+00  0.00000000000E+00  0.99999998245E-14  0.12500000000E+03  0.12500000000E+03 0.  0.
        -11    1    3    3    0    0  0.22923621370E+01 -0.21569263314E+02 -0.25803183582E+02  0.33708935422E+02  0.51100000000E-03 0.  1.
         23    2    1    0    0    0  0.19752114450E+02  0.72939617071E+01  0.23499425346E+02  0.93447331424E+02  0.87959268165E+02 0.  0.
         11    1    3    3    0    0  0.17459752313E+02  0.28863225021E+02  0.49302608929E+02  0.59738396002E+02  0.51100000000E-03 0. -1.
         22    1    1    0    0    0 -0.19752114450E+02 -0.72939617071E+01 -0.23499425346E+02  0.31552668576E+02  0.00000000000E+00 0. -1.
</event>
<event>
 5    1  0.6690694E-004  0.9118800E+02  0.7818608E-02  0.1130116E+00
         25   -1    0    0    0    0  0.00000000000E+00  0.00000000000E+00  0.99999998245E-14  0.12500000000E+03  0.12500000000E+03 0.  0.
        -11    1    3    3    0    0 -0.58722082547E+01  0.10996237571E+01  0.31744597170E+02  0.32301880007E+02  0.51100000000E-03 0.  1.
         23    2    1    0    0    0  0.15846261436E+02  0.46265986542E+00 -0.26306514361E+02  0.94285984413E+02  0.89143121458E+02 0.  0.
         11    1    3    3    0    0  0.21718469690E+02 -0.63696389172E+00 -0.58051111532E+02  0.61984104406E+02  0.51100000000E-03 0. -1.
         22    1    1    0    0    0 -0.15846261436E+02 -0.46265986542E+00  0.26306514361E+02  0.30714015587E+02  0.00000000000E+00 0. -1.
</event>
<event>
 5    1  0.6690694E-004  0.9118800E+02  0.7818608E-02  0.1130116E+00
         25   -1    0    0    0    0  0.00000000000E+00  0.00000000000E+00  0.99999998245E-14  0.12500000000E+03  0.12500000000E+03 0.  0.
        -11    1    3    3    0    0  0.29572857421E+02 -0.51625367704E+02 -0.60919676894E+00  0.59498769799E+02  0.51100000000E-03 0.  1.
         23    2    1    0    0    0  0.68614087007E+01 -0.38555709765E+02 -0.24123805267E+01  0.85764285853E+02  0.76263172392E+02 0.  0.
         11    1    3    3    0    0 -0.22711448720E+02  0.13069657940E+02 -0.18031837578E+01  0.26265516054E+02  0.51100000000E-03 0. -1.
         22    1    1    0    0    0 -0.68614087007E+01  0.38555709765E+02  0.24123805267E+01  0.39235714147E+02  0.00000000000E+00 0.  1.
</event>
<event>
 5    1  0.6690694E-004  0.9118800E+02  0.7818608E-02  0.1130116E+00
         25   -1    0    0    0    0  0.00000000000E+00  0.00000000000E+00  0.99999998245E-14  0.12500000000E+03  0.12500000000E+03 0.  0.
        -11    1    3    3    0    0 -0.44900864869E+01 -0.35211495659E+02  0.29395309826E+02  0.46087900182E+02  0.51100000000E-03 0.  1.
         23    2    1    0    0    0 -0.35980656332E+01 -0.14583708730E+00  0.41612772348E+02  0.83231708590E+02  0.71992549251E+02 0.  0.
         11    1    3    3    0    0  0.89202085379E+00  0.35065658572E+02  0.12217462523E+02  0.37143808408E+02  0.51100000000E-03 0. -1.
         22    1    1    0    0    0  0.35980656332E+01  0.14583708730E+00 -0.41612772348E+02  0.41768291410E+02  0.00000000000E+00 0.  1.
</event>
<event>
 5    1  0.6690694E-004  0.9118800E+02  0.7818608E-02  0.1130116E+00
         25   -1    0    0    0    0  0.00000000000E+00  0.00000000000E+00  0.99999998245E-14  0.12500000000E+03  0.12500000000E+03 0.  0.
        -11    1    3    3    0    0  0.96450234327E+01  0.29341552417E+02 -0.46905911094E+02  0.56161531951E+02  0.51100000000E-03 0. -1.
         23    2    1    0    0    0 -0.15497731889E+02  0.93543047605E+01 -0.19605907899E+02  0.98315278982E+02  0.94624625471E+02 0.  0.
         11    1    3    3    0    0 -0.25142755322E+02 -0.19987247657E+02  0.27300003195E+02  0.42153747031E+02  0.51100000000E-03 0.  1.
         22    1    1    0    0    0  0.15497731889E+02 -0.93543047605E+01  0.19605907899E+02  0.26684721018E+02  0.00000000000E+00 0.  1.
</event>
<event>
 5    1  0.6690694E-004  0.9118800E+02  0.7818608E-02  0.1130116E+00
         25   -1    0    0    0    0  0.00000000000E+00  0.00000000000E+00  0.99999998245E-14  0.12500000000E+03  0.12500000000E+03 0.  0.
        -11    1    3    3    0    0 -0.29733256394E+02 -0.21230766211E+02  0.89242072182E+00  0.36545976313E+02  0.51100000000E-03 0.  1.
         23    2    1    0    0    0  0.49578162091E+01  0.97926058637E+01  0.31093586068E+02  0.92025977411E+02  0.85915623449E+02 0.  0.
         11    1    3    3    0    0  0.34691072603E+02  0.31023372074E+02  0.30201165346E+02  0.55480001097E+02  0.51100000000E-03 0. -1.
         22    1    1    0    0    0 -0.49578162091E+01 -0.97926058637E+01 -0.31093586068E+02  0.32974022589E+02  0.00000000000E+00 0. -1.
</event>
<event>
 5    1  0.6690694E-004  0.9118800E+02  0.7818608E-02  0.1130116E+00
         25   -1    0    0    0    0  0.00000000000E+00  0.00000000000E+00  0.99999998245E-14  0.12500000000E+03  0.12500000000E+03 0.  0.
        -11    1    3    3    0    0 -0.11101023968E+02  0.11449917652E+02  0.57974893315E+02  0.60128376017E+02  0.51100000000E-03 0.  1.
         23    2    1    0    0    0 -0.16744115788E+02  0.18767124258E+01  0.25641003620E+02  0.94318596354E+02  0.89188839484E+02 0.  0.
         11    1    3    3    0    0 -0.56430918201E+01 -0.95732052262E+01 -0.32333889695E+02  0.34190220337E+02  0.51100000000E-03 0. -1.
         22    1    1    0    0    0  0.16744115788E+02 -0.18767124258E+01 -0.25641003620E+02  0.30681403646E+02  0.00000000000E+00 0.  1.
</event>
<event>
 5    1  0.6690694E-004  0.9118800E+02  0.7818608E-02  0.1130116E+00
         25   -1    0    0    0    0  0.00000000000E+00  0.00000000000E+00  0.99999998245E-14  0.12500000000E+03  0.12500000000E+03 0.  0.
        -11    1    3    3    0    0 -0.37801088734E+02  0.11239296307E+02 -0.37498005277E+02  0.54418236750E+02  0.51100000000E-03 0. -1.
         23    2    1    0    0    0 -0.13110516603E+02 -0.17200681023E+02 -0.18182402992E+02  0.96744932281E+02  0.92526931594E+02 0.  0.
         11    1    3    3    0    0  0.24690572131E+02 -0.28439977330E+02  0.19315602285E+02  0.42326695531E+02  0.51100000000E-03 0.  1.
         22    1    1    0    0    0  0.13110516603E+02  0.17200681023E+02  0.18182402992E+02  0.28255067719E+02  0.00000000000E+00 0. -1.
</event>
<event>
 5    1  0.6690694E-004  0.9118800E+02  0.7818608E-02  0.1130116E+00
         25   -1    0    0    0    0  0.00000000000E+00  0.00000000000E+00  0.99999998245E-14  0.12500000000E+03  0.12500000000E+03 0.  0.
        -11    1    3    3    0    0  0.35211820315E+02 -0.22653311818E+02  0.30277169622E+02  0.51669641249E+02  0.51100000000E-03 0.  1.
         23    2    1    0    0    0  0.16065574975E+02  0.15716770256E+02  0.17801328093E+02  0.96329338193E+02  0.91963767584E+02 0.  0.
         11    1    3    3    0    0 -0.19146245340E+02  0.38370082074E+02 -0.12475841529E+02  0.44659696944E+02  0.51100000000E-03 0. -1.
         22    1    1    0    0    0 -0.16065574975E+02 -0.15716770256E+02 -0.17801328093E+02  0.28670661807E+02  0.00000000000E+00 0.  1.
</event>
<event>
 5    1  0.6690694E-004  0.9118800E+02  0.7818608E-02  0.1130116E+00
         25   -1    0    0    0    0  0.00000000000E+00  0.00000000000E+00  0.99999998245E-14  0.12500000000E+03  0.12500000000E+03 0.  0.
        -11    1    3    3    0    0  0.27458728791E+02  0.10490541326E+02 -0.22275138041E+02  0.36881092976E+02  0.51100000000E-03 0. -1.
         23    2    1    0    0    0 -0.10905835950E+02 -0.28524787923E+02 -0.81534537771E+01  0.93391779672E+02  0.87880287426E+02 0.  0.
         11    1    3    3    0    0 -0.38364564741E+02 -0.39015329249E+02  0.14121684264E+02  0.56510686696E+02  0.51100000000E-03 0.  1.
         22    1    1    0    0    0  0.10905835950E+02  0.28524787923E+02  0.81534537771E+01  0.31608220328E+02  0.00000000000E+00 0.  1.
</event>
<event>
 5    1  0.6690694E-004  0.9118800E+02  0.7818608E-02  0.1130116E+00
         25   -1    0    0    0    0  0.00000000000E+00  0.00000000000E+00  0.99999998245E-14  0.12500000000E+03  0.12500000000E+03 0.  0.
        -11    1    3    3    0    0 -0.19049439045E+02  0.44489413319E+02  0.91861061044E+01  0.49260263611E+02  0.51100000000E-03 0.  1.
         23    2    1    0    0    0  0.12512891049E+02  0.21497030848E+02 -0.15719373752E+02  0.95575631037E+02  0.90933534845E+02 0.  0.
         11    1    3    3    0    0  0.31562330094E+02 -0.22992382471E+02 -0.24905479856E+02  0.46315367426E+02  0.51100000000E-03 0. -1.
         22    1    1    0    0    0 -0.12512891049E+02 -0.21497030848E+02  0.15719373752E+02  0.29424368963E+02  0.00000000000E+00 0.  1.
</event>
<event>
 5    1  0.6690694E-004  0.9118800E+02  0.7818608E-02  0.1130116E+00
         25   -1    0    0    0    0  0.00000000000E+00  0.00000000000E+00  0.99999998245E-14  0.12500000000E+03  0.12500000000E+03 0.  0.
        -11    1    3    3    0    0 -0.47026844369E+02 -0.22059332829E+02  0.27538146685E+02  0.58791902327E+02  0.51100000000E-03 0. -1.
         23    2    1    0    0    0 -0.13340599231E+02 -0.93690982167E+01  0.25356553525E+02  0.94855242646E+02  0.89937815526E+02 0.  0.
         11    1    3    3    0    0  0.33686245138E+02  0.12690234612E+02 -0.21815931591E+01  0.36063340319E+02  0.51100000000E-03 0.  1.
         22    1    1    0    0    0  0.13340599231E+02  0.93690982167E+01 -0.25356553525E+02  0.30144757354E+02  0.00000000000E+00 0. -1.
</event>
<event>
 5    1  0.6690694E-004  0.9118800E+02  0.7818608E-02  0.1130116E+00
         25   -1    0    0    0    0  0.00000000000E+00  0.00000000000E+00  0.99999998245E-14  0.12500000000E+03  0.12500000000E+03 0.  0.
        -11    1    3    3    0    0  0.24262049556E+02 -0.24957711180E+02  0.40158433265E+01  0.35037999285E+02  0.51100000000E-03 0. -1.
         23    2    1    0    0    0 -0.27770611103E+02  0.47512650388E+01 -0.70243546304E+01  0.95963421027E+02  0.91465049372E+02 0.  0.
         11    1    3    3    0    0 -0.52032660659E+02  0.29708976219E+02 -0.11040197957E+02  0.60925421742E+02  0.51100000000E-03 0.  1.
         22    1    1    0    0    0  0.27770611103E+02 -0.47512650388E+01  0.70243546304E+01  0.29036578973E+02  0.00000000000E+00 0.  1.
</event>
<event>
 5    1  0.6690694E-004  0.9118800E+02  0.7818608E-02  0.1130116E+00
         25   -1    0    0    0    0  0.00000000000E+00  0.00000000000E+00  0.99999998245E-14  0.12500000000E+03  0.12500000000E+03 0.  0.
        -11    1    3    3    0    0  0.39672947927E+02 -0.35722802187E+02 -0.12966025645E+01  0.53401709446E+02  0.51100000000E-03 0.  1.
         23    2    1    0    0    0  0.20163637422E+02 -0.90157782972E+01  0.21975522348E+02  0.93842655523E+02  0.88519285360E+02 0.  0.
         11    1    3    3    0    0 -0.19509310504E+02  0.26707023889E+02  0.23272124913E+02  0.40440946077E+02  0.51100000000E-03 0. -1.
         22    1    1    0    0    0 -0.20163637422E+02  0.90157782972E+01 -0.21975522348E+02  0.31157344477E+02  0.00000000000E+00 0.  1.
</event>
<event>
 5    1  0.6690694E-004  0.9118800E+02  0.7818608E-02  0.1130116E+00
         25   -1    0    0    0    0  0.00000000000E+00  0.00000000000E+00  0.99999998245E-14  0.12500000000E+03  0.12500000000E+03 0.  0.
        -11    1    3    3    0    0  0.41158463999E+02  0.25792708851E+02  0.55833214748E+01  0.48892294562E+02  0.51100000000E-03 0. -1.
         23    2    1    0    0    0  0.20583965143E+01  0.14700947889E+02 -0.22321922919E+02  0.98192853418E+02  0.94462761734E+02 0.  0.
         11    1    3    3    0    0 -0.39100067484E+02 -0.11091760962E+02 -0.27905244394E+02  0.49300558856E+02  0.51100000000E-03 0.  1.
         22    1    1    0    0    0 -0.20583965143E+01 -0.14700947889E+02  0.22321922919E+02  0.26807146582E+02  0.00000000000E+00 0.  1.
</event>
<event>
 5    1  0.6690694E-004  0.9118800E+02  0.7818608E-02  0.1130116E+00
         25   -1    0    0    0    0  0.00000000000E+00  0.00000000000E+00  0.99999998245E-14  0.12500000000E+03  0.12500000000E+03 0.  0.
        -11    1    3    3    0    0  0.10122135950E+02  0.35025796163E+02  0.13614938963E+02  0.38918255309E+02  0.51100000000E-03 0. -1.
         23    2    1    0    0    0  0.13701323792E+02 -0.21964369690E+02  0.13017632994E+02  0.96023827404E+02  0.91547566057E+02 0.  0.
         11    1    3    3    0    0  0.35791878420E+01 -0.56990165853E+02 -0.59730596881E+00  0.57105572095E+02  0.51100000000E-03 0.  1.
         22    1    1    0    0    0 -0.13701323792E+02  0.21964369690E+02 -0.13017632994E+02  0.28976172596E+02  0.00000000000E+00 0.  1.
</event>
<event>
 5    1  0.6690694E-004  0.9118800E+02  0.7818608E-02  0.1130116E+00
         25   -1    0    0    0    0  0.00000000000E+00  0.00000000000E+00  0.99999998245E-14  0.12500000000E+03  0.12500000000E+03 0.  0.
        -11    1    3    3    0    0  0.77873171147E+01  0.43774674615E+02 -0.20419241418E+02  0.48926576273E+02  0.51100000000E-03 0.  1.
         23    2    1    0    0    0 -0.21105474441E+02  0.12320736665E+02  0.68747492206E+01  0.99612920999E+02  0.96323570583E+02 0.  0.
         11    1    3    3    0    0 -0.28892791556E+02 -0.31453937950E+02  0.27293990639E+02  0.50686344726E+02  0.51100000000E-03 0. -1.
         22    1    1    0    0    0  0.21105474441E+02 -0.12320736665E+02 -0.68747492206E+01  0.25387079001E+02  0.00000000000E+00 0. -1.
</event>
<event>
 5    1  0.6690694E-004  0.9118800E+02  0.7818608E-02  0.1130116E+00
         25   -1    0    0    0    0  0.00000000000E+00  0.00000000000E+00  0.99999998245E-14  0.12500000000E+03  0.12500000000E+03 0.  0.
        -11    1    3    3    0    0 -0.19219874009E+02 -0.34617126120E+02 -0.28883670047E+02  0.49010359858E+02  0.51100000000E-03 0.  1.
         23    2    1    0    0    0 -0.12787969264E+02 -0.28852252301E+02  0.12328711124E+02  0.91118120791E+02  0.84584456006E+02 0.  0.
         11    1    3    3    0    0  0.64319047450E+01  0.57648738190E+01  0.41212381171E+02  0.42107760934E+02  0.51100000000E-03 0. -1.
         22    1    1    0    0    0  0.12787969264E+02  0.28852252301E+02 -0.12328711124E+02  0.33881879209E+02  0.00000000000E+00 0.  1.
</event>
<event>
 5    1  0.6690694E-004  0.9118800E+02  0.7818608E-02  0.1130116E+00
         25   -1    0    0    0    0  0.00000000000E+00  0.00000000000E+00  0.99999998245E-14  0.12500000000E+03  0.12500000000E+03 0.  0.
        -11    1    3    3    0    0 -0.17769191634E+02  0.97213580655E+01  0.27647483833E+02  0.34272909659E+02  0.51100000000E-03 0.  1.
         23    2    1    0    0    0  0.18513117208E+02  0.48118427342E+01 -0.21927152135E+02  0.95902073270E+02  0.91381170475E+02 0.  0.
         11    1    3    3    0    0  0.36282308842E+02 -0.49095153313E+01 -0.49574635968E+02  0.61629163610E+02  0.51100000000E-03 0. -1.
         22    1    1    0    0    0 -0.18513117208E+02 -0.48118427342E+01  0.21927152135E+02  0.29097926730E+02  0.00000000000E+00 0. -1.
</event>
<event>
 5    1  0.6690694E-004  0.9118800E+02  0.7818608E-02  0.1130116E+00
         25   -1    0    0    0    0  0.00000000000E+00  0.00000000000E+00  0.99999998245E-14  0.12500000000E+03  0.12500000000E+03 0.  0.
        -11    1    3    3    0    0  0.31726442992E+02  0.11652748656E+02 -0.20959279114E+02  0.39769902155E+02  0.51100000000E-03 0. -1.
         23    2    1    0    0    0 -0.64860625309E+01 -0.19660319060E+02  0.13749890959E+02  0.10014730087E+03  0.97014561883E+02 0.  0.
         11    1    3    3    0    0 -0.38212505523E+02 -0.31313067716E+02  0.34709170073E+02  0.60377398715E+02  0.51100000000E-03 0.  1.
         22    1    1    0    0    0  0.64860625309E+01  0.19660319060E+02 -0.13749890959E+02  0.24852699131E+02  0.00000000000E+00 0.  1.
</event>
<event>
 4    1  0.6690694E-004  0.9118800E+02  0.7818608E-02  0.1130116E+00
         25   -1    0    0    0    0  0.00000000000E+00  0.00000000000E+00  0.99999998245E-14  0.12500000000E+03  0.12500000000E+03 0.  0.
        -11    1    1    0    0    0 -0.37200939111E+02 -0.16234648552E+02  0.35124763764E+02  0.53677022217E+02  0.51100000000E-03 0. -1.
         11    1    1    0    0    0  0.10077140556E+01  0.13763230161E+02  0.72107379695E+01  0.15570380034E+02  0.51100000000E-03 0.  1.
         22    1    1    0    0    0  0.36193225056E+02  0.24714183911E+01 -0.42335501733E+02  0.55752597749E+02  0.00000000000E+00 0. -1.
</event>
<event>
 5    1  0.6690694E-004  0.9118800E+02  0.7818608E-02  0.1130116E+00
         25   -1    0    0    0    0  0.00000000000E+00  0.00000000000E+00  0.99999998245E-14  0.12500000000E+03  0.12500000000E+03 0.  0.
        -11    1    3    3    0    0  0.46740249072E+02 -0.15802449227E+02  0.20386642577E+01  0.49381417933E+02  0.51100000000E-03 0. -1.
         23    2    1    0    0    0  0.10126450869E+02 -0.90209239866E+01 -0.25785749748E+02  0.95865364824E+02  0.91330943310E+02 0.  0.
         11    1    3    3    0    0 -0.36613798203E+02  0.67815252402E+01 -0.27824414006E+02  0.46483946890E+02  0.51100000000E-03 0.  1.
         22    1    1    0    0    0 -0.10126450869E+02  0.90209239866E+01  0.25785749748E+02  0.29134635176E+02  0.00000000000E+00 0. -1.
</event>
<event>
 5    1  0.6690694E-004  0.9118800E+02  0.7818608E-02  0.1130116E+00
         25   -1    0    0    0    0  0.00000000000E+00  0.00000000000E+00  0.99999998245E-14  0.12500000000E+03  0.12500000000E+03 0.  0.
        -11    1    3    3    0    0 -0.19990722679E+02  0.15847520920E+02  0.31696613171E+02  0.40687199453E+02  0.51100000000E-03 0.  1.
         23    2    1    0    0    0 -0.21240238388E+02 -0.10711314654E+02 -0.16719725056E+02  0.95923734863E+02  0.91410796494E+02 0.  0.
         11    1    3    3    0    0 -0.12495157087E+01 -0.26558835574E+02 -0.48416338227E+02  0.55236535410E+02  0.51100000000E-03 0. -1.
         22    1    1    0    0    0  0.21240238388E+02  0.10711314654E+02  0.16719725056E+02  0.29076265137E+02  0.00000000000E+00 0. -1.
</event>
<event>
 5    1  0.6690694E-004  0.9118800E+02  0.7818608E-02  0.1130116E+00
         25   -1    0    0    0    0  0.00000000000E+00  0.00000000000E+00  0.99999998245E-14  0.12500000000E+03  0.12500000000E+03 0.  0.
        -11    1    3    3    0    0 -0.58540927941E+02  0.26926659579E+01  0.96269918630E+01  0.59388295705E+02  0.51100000000E-03 0.  1.
         23    2    1    0    0    0 -0.22682186912E+02  0.41274913794E+00  0.17712963979E+02  0.96218042841E+02  0.91812366870E+02 0.  0.
         11    1    3    3    0    0  0.35858741028E+02 -0.22799168199E+01  0.80859721157E+01  0.36829747137E+02  0.51100000000E-03 0. -1.
         22    1    1    0    0    0  0.22682186912E+02 -0.41274913794E+00 -0.17712963979E+02  0.28781957159E+02  0.00000000000E+00 0.  1.
</event>
<event>
 5    1  0.6690694E-004  0.9118800E+02  0.7818608E-02  0.1130116E+00
         25   -1    0    0    0    0  0.00000000000E+00  0.00000000000E+00  0.99999998245E-14  0.12500000000E+03  0.12500000000E+03 0.  0.
        -11    1    3    3    0    0  0.88198838295E+01  0.25148886537E+02  0.28884627011E+02  0.39301126226E+02  0.51100000000E-03 0. -1.
         23    2    1    0    0    0  0.12103971728E+02  0.12396212860E+02 -0.24895017791E+02  0.94669583984E+02  0.89679406756E+02 0.  0.
         11    1    3    3    0    0  0.32840878985E+01 -0.12752673676E+02 -0.53779644802E+02  0.55368457758E+02  0.51100000000E-03 0.  1.
         22    1    1    0    0    0 -0.12103971728E+02 -0.12396212860E+02  0.24895017791E+02  0.30330416016E+02  0.00000000000E+00 0.  1.
</event>
<event>
 5    1  0.6690694E-004  0.9118800E+02  0.7818608E-02  0.1130116E+00
         25   -1    0    0    0    0  0.00000000000E+00  0.00000000000E+00  0.99999998245E-14  0.12500000000E+03  0.12500000000E+03 0.  0.
        -11    1    3    3    0    0 -0.12074977083E+02 -0.22820813420E+02 -0.23484878672E+02  0.34901778224E+02  0.51100000000E-03 0.  1.
         23    2    1    0    0    0  0.14841540483E+02 -0.26531875661E+01  0.26124110448E+02  0.94837442501E+02  0.89913072605E+02 0.  0.
         11    1    3    3    0    0  0.26916517566E+02  0.20167625853E+02  0.49608989121E+02  0.59935664277E+02  0.51100000000E-03 0. -1.
         22    1    1    0    0    0 -0.14841540483E+02  0.26531875661E+01 -0.26124110448E+02  0.30162557499E+02  0.00000000000E+00 0. -1.
</event>
<event>
 5    1  0.6690694E-004  0.9118800E+02  0.7818608E-02  0.1130116E+00
         25   -1    0    0    0    0  0.00000000000E+00  0.00000000000E+00  0.99999998245E-14  0.12500000000E+03  0.12500000000E+03 0.  0.
        -11    1    3    3    0    0  0.10309293834E+02 -0.41394770310E+02 -0.26061711168E+02  0.49990212418E+02  0.51100000000E-03 0. -1.
         23    2    1    0    0    0  0.26769459390E+02 -0.13268801369E+01 -0.12844082105E+02  0.95279047592E+02  0.90524924181E+02 0.  0.
         11    1    3    3    0    0  0.16460165556E+02  0.40067890173E+02  0.13217629063E+02  0.45288835174E+02  0.51100000000E-03 0.  1.
         22    1    1    0    0    0 -0.26769459390E+02  0.13268801369E+01  0.12844082105E+02  0.29720952408E+02  0.00000000000E+00 0.  1.
</event>
<event>
 5    1  0.6690694E-004  0.9118800E+02  0.7818608E-02  0.1130116E+00
         25   -1    0    0    0    0  0.00000000000E+00  0.00000000000E+00  0.99999998245E-14  0.12500000000E+03  0.12500000000E+03 0.  0.
        -11    1    3    3    0    0 -0.30842595845E+02 -0.78946998385E+01 -0.21086312223E+02  0.38186706685E+02  0.51100000000E-03 0.  1.
         23    2    1    0    0    0 -0.69579600542E+01  0.13698735588E+02  0.25744792968E+02  0.95018957160E+02  0.90165066905E+02 0.  0.
         11    1    3    3    0    0  0.23884635790E+02  0.21593435427E+02  0.46831105191E+02  0.56832250475E+02  0.51100000000E-03 0. -1.
         22    1    1    0    0    0  0.69579600542E+01 -0.13698735588E+02 -0.25744792968E+02  0.29981042840E+02  0.00000000000E+00 0. -1.
</event>
<event>
 5    1  0.6690694E-004  0.9118800E+02  0.7818608E-02  0.1130116E+00
         25   -1    0    0    0    0  0.00000000000E+00  0.00000000000E+00  0.99999998245E-14  0.12500000000E+03  0.12500000000E+03 0.  0.
        -11    1    3    3    0    0  0.49983403704E+02  0.38027118970E+01 -0.21866193447E+02  0.54689411039E+02  0.51100000000E-03 0.  1.
         23    2    1    0    0    0  0.17342859536E+02 -0.18919474401E+02 -0.15640229730E+02  0.94944416916E+02  0.90061669033E+02 0.  0.
         11    1    3    3    0    0 -0.32640544168E+02 -0.22722186298E+02  0.62259637172E+01  0.40255005878E+02  0.51100000000E-03 0. -1.
         22    1    1    0    0    0 -0.17342859536E+02  0.18919474401E+02  0.15640229730E+02  0.30055583084E+02  0.00000000000E+00 0. -1.
</event>
<event>
 5    1  0.6690694E-004  0.9118800E+02  0.7818608E-02  0.1130116E+00
         25   -1    0    0    0    0  0.00000000000E+00  0.00000000000E+00  0.99999998245E-14  0.12500000000E+03  0.12500000000E+03 0.  0.
        -11    1    3    3    0    0  0.47450538119E+01 -0.48017118253E+02 -0.15588723682E+02  0.50706680894E+02  0.51100000000E-03 0. -1.
         23    2    1    0    0    0  0.77638792655E+01 -0.19006533688E+02  0.19739106310E+02  0.96519156227E+02  0.92221413223E+02 0.  0.
         11    1    3    3    0    0  0.30188254536E+01  0.29010584565E+02  0.35327829992E+02  0.45812475333E+02  0.51100000000E-03 0.  1.
         22    1    1    0    0    0 -0.77638792655E+01  0.19006533688E+02 -0.19739106310E+02  0.28480843773E+02  0.00000000000E+00 0. -1.
</event>
<event>
 5    1  0.6690694E-004  0.9118800E+02  0.7818608E-02  0.1130116E+00
         25   -1    0    0    0    0  0.00000000000E+00  0.00000000000E+00  0.99999998245E-14  0.12500000000E+03  0.12500000000E+03 0.  0.
        -11    1    3    3    0    0  0.15423848425E+02  0.67021933178E+01  0.40326538593E+02  0.43692610481E+02  0.51100000000E-03 0.  1.
         23    2    1    0    0    0 -0.24133972745E+02 -0.11819026631E+02  0.13873923238E+02  0.94757252490E+02  0.89801520714E+02 0.  0.
         11    1    3    3    0    0 -0.39557821170E+02 -0.18521219948E+02 -0.26452615355E+02  0.51064642009E+02  0.51100000000E-03 0. -1.
         22    1    1    0    0    0  0.24133972745E+02  0.11819026631E+02 -0.13873923238E+02  0.30242747510E+02  0.00000000000E+00 0. -1.
</event>
<event>
 5    1  0.6690694E-004  0.9118800E+02  0.7818608E-02  0.1130116E+00
         25   -1    0    0    0    0  0.00000000000E+00  0.00000000000E+00  0.99999998245E-14  0.12500000000E+03  0.12500000000E+03 0.  0.
        -11    1    3    3    0    0 -0.10056382718E+02  0.30678097643E+02  0.21739980072E+02  0.38921757953E+02  0.51100000000E-03 0.  1.
         23    2    1    0    0    0  0.24165143290E+02 -0.12896517130E+02  0.11626301530E+02  0.95243568904E+02  0.90475920697E+02 0.  0.
         11    1    3    3    0    0  0.34221526008E+02 -0.43574614772E+02 -0.10113678542E+02  0.56321810951E+02  0.51100000000E-03 0. -1.
         22    1    1    0    0    0 -0.24165143290E+02  0.12896517130E+02 -0.11626301530E+02  0.29756431096E+02  0.00000000000E+00 0. -1.
</event>
<event>
 5    1  0.6690694E-004  0.9118800E+02  0.7818608E-02  0.1130116E+00
         25   -1    0    0    0    0  0.00000000000E+00  0.00000000000E+00  0.99999998245E-14  0.12500000000E+03  0.12500000000E+03 0.  0.
        -11    1    3    3    0    0 -0.39556395784E+02 -0.24652836852E+02  0.11318321380E+02  0.47964311852E+02  0.51100000000E-03 0.  1.
         23    2    1    0    0    0  0.65078853332E+01 -0.17312495659E+02  0.22442980628E+02  0.95918004592E+02  0.91402960280E+02 0.  0.
         11    1    3    3    0    0  0.46064281118E+02  0.73403411932E+01  0.11124659248E+02  0.47953692740E+02  0.51100000000E-03 0. -1.
         22    1    1    0    0    0 -0.65078853332E+01  0.17312495659E+02 -0.22442980628E+02  0.29081995408E+02  0.00000000000E+00 0.  1.
</event>
<event>
 5    1  0.6690694E-004  0.9118800E+02  0.7818608E-02  0.1130116E+00
         25   -1    0    0    0    0  0.00000000000E+00  0.00000000000E+00  0.99999998245E-14  0.12500000000E+03  0.12500000000E+03 0.  0.
        -11    1    3    3    0    0  0.62761055060E+01  0.35508246116E+02 -0.20685511748E+02  0.41570607875E+02  0.51100000000E-03 0. -1.
         23    2    1    0    0    0 -0.22708828652E+02  0.10115025015E+02  0.16533099204E+02  0.95144548252E+02  0.90339011855E+02 0.  0.
         11    1    3    3    0    0 -0.28984934158E+02 -0.25393221101E+02  0.37218610952E+02  0.53573940376E+02  0.51100000000E-03 0.  1.
         22    1    1    0    0    0  0.22708828652E+02 -0.10115025015E+02 -0.16533099204E+02  0.29855451748E+02  0.00000000000E+00 0.  1.
</event>
<event>
 5    1  0.6690694E-004  0.9118800E+02  0.7818608E-02  0.1130116E+00
         25   -1    0    0    0    0  0.00000000000E+00  0.00000000000E+00  0.99999998245E-14  0.12500000000E+03  0.12500000000E+03 0.  0.
        -11    1    3    3    0    0 -0.32970684112E+02 -0.20897029716E+02  0.21913345152E+01  0.39096723763E+02  0.51100000000E-03 0.  1.
         23    2    1    0    0    0  0.14854750003E+02  0.11296007904E+02 -0.16896298246E+02  0.99825642279E+02  0.96599226549E+02 0.  0.
         11    1    3    3    0    0  0.47825434115E+02  0.32193037620E+02 -0.19087632762E+02  0.60728918516E+02  0.51100000000E-03 0. -1.
         22    1    1    0    0    0 -0.14854750003E+02 -0.11296007904E+02  0.16896298246E+02  0.25174357721E+02  0.00000000000E+00 0. -1.
</event>
<event>
 5    1  0.6690694E-004  0.9118800E+02  0.7818608E-02  0.1130116E+00
         25   -1    0    0    0    0  0.00000000000E+00  0.00000000000E+00  0.99999998245E-14  0.12500000000E+03  0.12500000000E+03 0.  0.
        -11    1    3    3    0    0 -0.23727725156E+02 -0.27575296729E+02  0.26775629964E+01  0.36476996513E+02  0.51100000000E-03 0. -1.
         23    2    1    0    0    0  0.14069727803E+02  0.10997762455E+02 -0.22675374405E+02  0.96136863929E+02  0.91701777421E+02 0.  0.
         11    1    3    3    0    0  0.37797452958E+02  0.38573059184E+02 -0.25352937401E+02  0.59659867416E+02  0.51100000000E-03 0.  1.
         22    1    1    0    0    0 -0.14069727803E+02 -0.10997762455E+02  0.22675374405E+02  0.28863136071E+02  0.00000000000E+00 0.  1.
</event>
<event>
 5    1  0.6690694E-004  0.9118800E+02  0.7818608E-02  0.1130116E+00
         25   -1    0    0    0    0  0.00000000000E+00  0.00000000000E+00  0.99999998245E-14  0.12500000000E+03  0.12500000000E+03 0.  0.
        -11    1    3    3    0    0 -0.44648489716E+02  0.14150451582E+02 -0.83710672291E+01  0.47579382937E+02  0.51100000000E-03 0.  1.
         23    2    1    0    0    0 -0.19213177481E+02 -0.16140935731E+02 -0.24158213364E+02  0.90167611794E+02  0.83167920188E+02 0.  0.
         11    1    3    3    0    0  0.25435312235E+02 -0.30291387312E+02 -0.15787146135E+02  0.42588228857E+02  0.51100000000E-03 0. -1.
         22    1    1    0    0    0  0.19213177481E+02  0.16140935731E+02  0.24158213364E+02  0.34832388206E+02  0.00000000000E+00 0. -1.
</event>
<event>
 5    1  0.6690694E-004  0.9118800E+02  0.7818608E-02  0.1130116E+00
         25   -1    0    0    0    0  0.00000000000E+00  0.00000000000E+00  0.99999998245E-14  0.12500000000E+03  0.12500000000E+03 0.  0.
        -11    1    3    3    0    0  0.24014676714E+02 -0.10269851121E+02  0.31177199270E+02  0.40671762862E+02  0.51100000000E-03 0.  1.
         23    2    1    0    0    0  0.52650748443E+01 -0.13004575949E+02 -0.22995404469E+02  0.98062505027E+02  0.94290117492E+02 0.  0.
         11    1    3    3    0    0 -0.18749601869E+02 -0.27347248284E+01 -0.54172603739E+02  0.57390742165E+02  0.51100000000E-03 0. -1.
         22    1    1    0    0    0 -0.52650748443E+01  0.13004575949E+02  0.22995404469E+02  0.26937494973E+02  0.00000000000E+00 0. -1.
</event>
<event>
 5    1  0.6690694E-004  0.9118800E+02  0.7818608E-02  0.1130116E+00
         25   -1    0    0    0    0  0.00000000000E+00  0.00000000000E+00  0.99999998245E-14  0.12500000000E+03  0.12500000000E+03 0.  0.
        -11    1    3    3    0    0  0.18536399258E+02 -0.11300678664E+02  0.57092687134E+02  0.61080916498E+02  0.51100000000E-03 0. -1.
         23    2    1    0    0    0  0.16767882994E+02 -0.80349469875E+01  0.22775199585E+02  0.95598775717E+02  0.90965344661E+02 0.  0.
         11    1    3    3    0    0 -0.17685162636E+01  0.32657316765E+01 -0.34317487549E+02  0.34517859219E+02  0.51100000000E-03 0.  1.
         22    1    1    0    0    0 -0.16767882994E+02  0.80349469875E+01 -0.22775199585E+02  0.29401224283E+02  0.00000000000E+00 0. -1.
</event>
<event>
 5    1  0.6690694E-004  0.9118800E+02  0.7818608E-02  0.1130116E+00
         25   -1    0    0    0    0  0.00000000000E+00  0.00000000000E+00  0.99999998245E-14  0.12500000000E+03  0.12500000000E+03 0.  0.
        -11    1    3    3    0    0 -0.73318085498E+01 -0.11574398858E+02 -0.52793394801E+02  0.54542319903E+02  0.51100000000E-03 0. -1.
         23    2    1    0    0    0  0.97533091030E+01  0.12927971094E+02 -0.24118050986E+02  0.95949357005E+02  0.91445826866E+02 0.  0.
         11    1    3    3    0    0  0.17085117653E+02  0.24502369951E+02  0.28675343815E+02  0.41407037102E+02  0.51100000000E-03 0.  1.
         22    1    1    0    0    0 -0.97533091030E+01 -0.12927971094E+02  0.24118050986E+02  0.29050642995E+02  0.00000000000E+00 0. -1.
</event>
<event>
 5    1  0.6690694E-004  0.9118800E+02  0.7818608E-02  0.1130116E+00
         25   -1    0    0    0    0  0.00000000000E+00  0.00000000000E+00  0.99999998245E-14  0.12500000000E+03  0.12500000000E+03 0.  0.
        -11    1    3    3    0    0  0.28144928833E+01  0.13527739092E+02 -0.26126779537E+02  0.29555535934E+02  0.51100000000E-03 0. -1.
         23    2    1    0    0    0 -0.44266874763E+01 -0.18081552960E+02  0.27242652842E+02  0.92004541929E+02  0.85884430965E+02 0.  0.
         11    1    3    3    0    0 -0.72411803596E+01 -0.31609292052E+02  0.53369432379E+02  0.62449005995E+02  0.51100000000E-03 0.  1.
         22    1    1    0    0    0  0.44266874763E+01  0.18081552960E+02 -0.27242652842E+02  0.32995458071E+02  0.00000000000E+00 0.  1.
</event>
<event>
 5    1  0.6690694E-004  0.9118800E+02  0.7818608E-02  0.1130116E+00
         25   -1    0    0    0    0  0.00000000000E+00  0.00000000000E+00  0.99999998245E-14  0.12500000000E+03  0.12500000000E+03 0.  0.
        -11    1    3    3    0    0  0.75567155753E+01  0.43714799358E+02  0.97177478661E+01  0.45415000352E+02  0.51100000000E-03 0.  1.
         23    2    1    0    0    0  0.28751904202E+02 -0.50743479575E+00 -0.30312089700E+01  0.96084299885E+02  0.91630098610E+02 0.  0.
         11    1    3    3    0    0  0.21195188627E+02 -0.44222234153E+02 -0.12748956836E+02  0.50669299532E+02  0.51100000000E-03 0. -1.
         22    1    1    0    0    0 -0.28751904202E+02  0.50743479575E+00  0.30312089700E+01  0.28915700115E+02  0.00000000000E+00 0. -1.
</event>
<event>
 5    1  0.6690694E-004  0.9118800E+02  0.7818608E-02  0.1130116E+00
         25   -1    0    0    0    0  0.00000000000E+00  0.00000000000E+00  0.99999998245E-14  0.12500000000E+03  0.12500000000E+03 0.  0.
        -11    1    3    3    0    0  0.47189826353E+02  0.33915505390E+02  0.64855453911E+01  0.58473955881E+02  0.51100000000E-03 0.  1.
         23    2    1    0    0    0  0.43876223230E+01  0.19112547128E+02 -0.40581819598E+01  0.10497477770E+03  0.10304704957E+03 0.  0.
         11    1    3    3    0    0 -0.42802204030E+02 -0.14802958263E+02 -0.10543727351E+02  0.46500821819E+02  0.51100000000E-03 0. -1.
         22    1    1    0    0    0 -0.43876223230E+01 -0.19112547128E+02  0.40581819598E+01  0.20025222300E+02  0.00000000000E+00 0.  1.
</event>
<event>
 5    1  0.6690694E-004  0.9118800E+02  0.7818608E-02  0.1130116E+00
         25   -1    0    0    0    0  0.00000000000E+00  0.00000000000E+00  0.99999998245E-14  0.12500000000E+03  0.12500000000E+03 0.  0.
        -11    1    3    3    0    0  0.22233041791E+02  0.12132252019E+02  0.55065078143E+02  0.60610745891E+02  0.51100000000E-03 0. -1.
         23    2    1    0    0    0  0.94815669259E+01 -0.17550170501E+01  0.37151505908E+02  0.86617522391E+02  0.77649086264E+02 0.  0.
         11    1    3    3    0    0 -0.12751474865E+02 -0.13887269069E+02 -0.17913572235E+02  0.26006776500E+02  0.51100000000E-03 0.  1.
         22    1    1    0    0    0 -0.94815669259E+01  0.17550170501E+01 -0.37151505908E+02  0.38382477609E+02  0.00000000000E+00 0. -1.
</event>
<event>
 5    1  0.6690694E-004  0.9118800E+02  0.7818608E-02  0.1130116E+00
         25   -1    0    0    0    0  0.00000000000E+00  0.00000000000E+00  0.99999998245E-14  0.12500000000E+03  0.12500000000E+03 0.  0.
        -11    1    3    3    0    0  0.23145801275E+02 -0.12093481248E+02  0.41517437832E+02  0.49047711973E+02  0.51100000000E-03 0.  1.
         23    2    1    0    0    0  0.20572467589E+02 -0.19807870025E+02 -0.47716965076E+01  0.96045773621E+02  0.91577526748E+02 0.  0.
         11    1    3    3    0    0 -0.25733336860E+01 -0.77143887771E+01 -0.46289134340E+02  0.46998061648E+02  0.51100000000E-03 0. -1.
         22    1    1    0    0    0 -0.20572467589E+02  0.19807870025E+02  0.47716965076E+01  0.28954226379E+02  0.00000000000E+00 0. -1.
</event>
<event>
 5    1  0.6690694E-004  0.9118800E+02  0.7818608E-02  0.1130116E+00
         25   -1    0    0    0    0  0.00000000000E+00  0.00000000000E+00  0.99999998245E-14  0.12500000000E+03  0.12500000000E+03 0.  0.
        -11    1    3    3    0    0 -0.35800834068E+02 -0.47362361706E+02 -0.25204709575E+01  0.59424286285E+02  0.51100000000E-03 0.  1.
         23    2    1    0    0    0 -0.24932222950E+02 -0.12759173611E+02  0.52183917497E+01  0.96510635933E+02  0.92209863807E+02 0.  0.
         11    1    3    3    0    0  0.10868611118E+02  0.34603188095E+02  0.77388627072E+01  0.37086349648E+02  0.51100000000E-03 0. -1.
         22    1    1    0    0    0  0.24932222950E+02  0.12759173611E+02 -0.52183917497E+01  0.28489364067E+02  0.00000000000E+00 0.  1.
</event>
<event>
 5    1  0.6690694E-004  0.9118800E+02  0.7818608E-02  0.1130116E+00
         25   -1    0    0    0    0  0.00000000000E+00  0.00000000000E+00  0.99999998245E-14  0.12500000000E+03  0.12500000000E+03 0.  0.
        -11    1    3    3    0    0  0.39206365740E+02  0.18801853358E+02 -0.34760580515E+02  0.55668184470E+02  0.51100000000E-03 0.  1.
         23    2    1    0    0    0  0.41702894843E+01  0.24068997936E+02 -0.11949026828E+02  0.97806485733E+02  0.93950100762E+02 0.  0.
         11    1    3    3    0    0 -0.35036076256E+02  0.52671445787E+01  0.22811553687E+02  0.42138301263E+02  0.51100000000E-03 0. -1.
         22    1    1    0    0    0 -0.41702894843E+01 -0.24068997936E+02  0.11949026828E+02  0.27193514267E+02  0.00000000000E+00 0.  1.
</event>
<event>
 5    1  0.6690694E-004  0.9118800E+02  0.7818608E-02  0.1130116E+00
         25   -1    0    0    0    0  0.00000000000E+00  0.00000000000E+00  0.99999998245E-14  0.12500000000E+03  0.12500000000E+03 0.  0.
        -11    1    3    3    0    0 -0.22771075066E+02 -0.71705624798E+01 -0.26759457932E+02  0.35860945540E+02  0.51100000000E-03 0.  1.
         23    2    1    0    0    0  0.21193008527E+02  0.17461952307E+02  0.71776143629E+01  0.96617231693E+02  0.92354252329E+02 0.  0.
         11    1    3    3    0    0  0.43964083593E+02  0.24632514787E+02  0.33937072295E+02  0.60756286153E+02  0.51100000000E-03 0. -1.
         22    1    1    0    0    0 -0.21193008527E+02 -0.17461952307E+02 -0.71776143629E+01  0.28382768307E+02  0.00000000000E+00 0. -1.
</event>
<event>
 5    1  0.6690694E-004  0.9118800E+02  0.7818608E-02  0.1130116E+00
         25   -1    0    0    0    0  0.00000000000E+00  0.00000000000E+00  0.99999998245E-14  0.12500000000E+03  0.12500000000E+03 0.  0.
        -11    1    3    3    0    0 -0.52041381775E+02  0.70551602840E+01 -0.17014540047E+02  0.55204848310E+02  0.51100000000E-03 0.  1.
         23    2    1    0    0    0 -0.33612724435E+02 -0.61868389195E+01  0.89317931545E+01  0.89674808582E+02  0.82423917315E+02 0.  0.
         11    1    3    3    0    0  0.18428657340E+02 -0.13241999203E+02  0.25946333202E+02  0.34469960272E+02  0.51100000000E-03 0. -1.
         22    1    1    0    0    0  0.33612724435E+02  0.61868389195E+01 -0.89317931545E+01  0.35325191418E+02  0.00000000000E+00 0.  1.
</event>
<event>
 5    1  0.6690694E-004  0.9118800E+02  0.7818608E-02  0.1130116E+00
         25   -1    0    0    0    0  0.00000000000E+00  0.00000000000E+00  0.99999998245E-14  0.12500000000E+03  0.12500000000E+03 0.  0.
        -11    1    3    3    0    0  0.14078830449E+02  0.56847907677E+02  0.12635775354E+02  0.59912944287E+02  0.51100000000E-03 0.  1.
         23    2    1    0    0    0  0.10674777686E+02  0.24835982153E+02 -0.62743830261E+01  0.97248517688E+02  0.93204771455E+02 0.  0.
         11    1    3    3    0    0 -0.34040527633E+01 -0.32011925524E+02 -0.18910158380E+02  0.37335573401E+02  0.51100000000E-03 0. -1.
         22    1    1    0    0    0 -0.10674777686E+02 -0.24835982153E+02  0.62743830261E+01  0.27751482312E+02  0.00000000000E+00 0.  1.
</event>
<event>
 5    1  0.6690694E-004  0.9118800E+02  0.7818608E-02  0.1130116E+00
         25   -1    0    0    0    0  0.00000000000E+00  0.00000000000E+00  0.99999998245E-14  0.12500000000E+03  0.12500000000E+03 0.  0.
        -11    1    3    3    0    0  0.30661196591E+02  0.29381193929E+02 -0.31994559275E+02  0.53169684564E+02  0.51100000000E-03 0.  1.
         23    2    1    0    0    0  0.35539856104E+02  0.38944355054E+01 -0.83288286743E+01  0.88290091434E+02  0.80296468531E+02 0.  0.
         11    1    3    3    0    0  0.48786595132E+01 -0.25486758424E+02  0.23665730601E+02  0.35120406870E+02  0.51100000000E-03 0. -1.
         22    1    1    0    0    0 -0.35539856104E+02 -0.38944355054E+01  0.83288286743E+01  0.36709908566E+02  0.00000000000E+00 0.  1.
</event>
<event>
 5    1  0.6690694E-004  0.9118800E+02  0.7818608E-02  0.1130116E+00
         25   -1    0    0    0    0  0.00000000000E+00  0.00000000000E+00  0.99999998245E-14  0.12500000000E+03  0.12500000000E+03 0.  0.
        -11    1    3    3    0    0 -0.32764881178E+02  0.70670078087E+01  0.81596277915E+01  0.34497239946E+02  0.51100000000E-03 0.  1.
         23    2    1    0    0    0  0.22525832987E+02  0.98503835640E+01 -0.16798287465E+02  0.95223739827E+02  0.90448521031E+02 0.  0.
         11    1    3    3    0    0  0.55290714165E+02  0.27833757553E+01 -0.24957915257E+02  0.60726499880E+02  0.51100000000E-03 0. -1.
         22    1    1    0    0    0 -0.22525832987E+02 -0.98503835640E+01  0.16798287465E+02  0.29776260173E+02  0.00000000000E+00 0. -1.
</event>
<event>
 5    1  0.6690694E-004  0.9118800E+02  0.7818608E-02  0.1130116E+00
         25   -1    0    0    0    0  0.00000000000E+00  0.00000000000E+00  0.99999998245E-14  0.12500000000E+03  0.12500000000E+03 0.  0.
        -11    1    3    3    0    0 -0.35337519173E+00  0.84745542634E+01  0.34006141959E+02  0.35047976192E+02  0.51100000000E-03 0.  1.
         23    2    1    0    0    0 -0.15368448214E+02 -0.19100042369E+02 -0.17157297176E+02  0.95077204920E+02  0.90245782339E+02 0.  0.
         11    1    3    3    0    0 -0.15015073023E+02 -0.27574596633E+02 -0.51163439134E+02  0.60029228728E+02  0.51100000000E-03 0. -1.
         22    1    1    0    0    0  0.15368448214E+02  0.19100042369E+02  0.17157297176E+02  0.29922795080E+02  0.00000000000E+00 0. -1.
</event>
<event>
 5    1  0.6690694E-004  0.9118800E+02  0.7818608E-02  0.1130116E+00
         25   -1    0    0    0    0  0.00000000000E+00  0.00000000000E+00  0.99999998245E-14  0.12500000000E+03  0.12500000000E+03 0.  0.
        -11    1    3    3    0    0 -0.35692924565E+02  0.43005186268E+02 -0.11620935090E+02  0.57083071418E+02  0.51100000000E-03 0.  1.
         23    2    1    0    0    0 -0.35889312832E+01  0.22703280407E+02 -0.18261154859E+02  0.95643754569E+02  0.91027131353E+02 0.  0.
         11    1    3    3    0    0  0.32103993282E+02 -0.20301905860E+02 -0.66402197689E+01  0.38560683151E+02  0.51100000000E-03 0. -1.
         22    1    1    0    0    0  0.35889312832E+01 -0.22703280407E+02  0.18261154859E+02  0.29356245431E+02  0.00000000000E+00 0.  1.
</event>
<event>
 5    1  0.6690694E-004  0.9118800E+02  0.7818608E-02  0.1130116E+00
         25   -1    0    0    0    0  0.00000000000E+00  0.00000000000E+00  0.99999998245E-14  0.12500000000E+03  0.12500000000E+03 0.  0.
        -11    1    3    3    0    0 -0.19111172702E+02  0.33177286164E+02  0.43524628296E+02  0.57968633828E+02  0.51100000000E-03 0.  1.
         23    2    1    0    0    0 -0.11205017022E+02  0.26545047726E+02  0.78057830190E+01  0.95148329799E+02  0.90344244142E+02 0.  0.
         11    1    3    3    0    0  0.79061556794E+01 -0.66322384378E+01 -0.35718845277E+02  0.37179695971E+02  0.51100000000E-03 0. -1.
         22    1    1    0    0    0  0.11205017022E+02 -0.26545047726E+02 -0.78057830190E+01  0.29851670201E+02  0.00000000000E+00 0.  1.
</event>
<event>
 5    1  0.6690694E-004  0.9118800E+02  0.7818608E-02  0.1130116E+00
         25   -1    0    0    0    0  0.00000000000E+00  0.00000000000E+00  0.99999998245E-14  0.12500000000E+03  0.12500000000E+03 0.  0.
        -11    1    3    3    0    0  0.19481298084E+02 -0.40150334983E+02 -0.25162852201E+02  0.51232211601E+02  0.51100000000E-03 0.  1.
         23    2    1    0    0    0  0.16427955258E+02 -0.99936802349E+01  0.14331931523E+02  0.10101759771E+03  0.98129503344E+02 0.  0.
         11    1    3    3    0    0 -0.30533428257E+01  0.30156654748E+02  0.39494783724E+02  0.49785386106E+02  0.51100000000E-03 0. -1.
         22    1    1    0    0    0 -0.16427955258E+02  0.99936802349E+01 -0.14331931523E+02  0.23982402294E+02  0.00000000000E+00 0.  1.
</event>
<event>
 5    1  0.6690694E-004  0.9118800E+02  0.7818608E-02  0.1130116E+00
         25   -1    0    0    0    0  0.00000000000E+00  0.00000000000E+00  0.99999998245E-14  0.12500000000E+03  0.12500000000E+03 0.  0.
        -11    1    3    3    0    0 -0.55566363578E+02 -0.22539966515E+02 -0.10279173412E+02  0.60838575411E+02  0.51100000000E-03 0. -1.
         23    2    1    0    0    0 -0.21372097663E+02 -0.73933942983E+00 -0.10000863944E+02  0.10139215256E+03  0.98605467085E+02 0.  0.
         11    1    3    3    0    0  0.34194265915E+02  0.21800627086E+02  0.27830946716E+00  0.40553577145E+02  0.51100000000E-03 0.  1.
         22    1    1    0    0    0  0.21372097663E+02  0.73933942983E+00  0.10000863944E+02  0.23607847444E+02  0.00000000000E+00 0. -1.
</event>
<event>
 5    1  0.6690694E-004  0.9118800E+02  0.7818608E-02  0.1130116E+00
         25   -1    0    0    0    0  0.00000000000E+00  0.00000000000E+00  0.99999998245E-14  0.12500000000E+03  0.12500000000E+03 0.  0.
        -11    1    3    3    0    0  0.11966025074E+02 -0.23980607407E+02 -0.23446091727E+02  0.35608629645E+02  0.51100000000E-03 0.  1.
         23    2    1    0    0    0 -0.34062066804E+01  0.20229709881E+02  0.17681620111E+02  0.97917106958E+02  0.94097166479E+02 0.  0.
         11    1    3    3    0    0 -0.15372231755E+02  0.44210317287E+02  0.41127711838E+02  0.62308477313E+02  0.51100000000E-03 0. -1.
         22    1    1    0    0    0  0.34062066804E+01 -0.20229709881E+02 -0.17681620111E+02  0.27082893042E+02  0.00000000000E+00 0. -1.
</event>
<event>
 5    1  0.6690694E-004  0.9118800E+02  0.7818608E-02  0.1130116E+00
         25   -1    0    0    0    0  0.00000000000E+00  0.00000000000E+00  0.99999998245E-14  0.12500000000E+03  0.12500000000E+03 0.  0.
        -11    1    3    3    0    0 -0.38444792129E+02  0.41635095321E+02  0.83228105780E+01  0.57277852442E+02  0.51100000000E-03 0. -1.
         23    2    1    0    0    0 -0.19359481514E+02  0.16742110329E+02 -0.14046344788E+02  0.95804322501E+02  0.91247359552E+02 0.  0.
         11    1    3    3    0    0  0.19085310615E+02 -0.24892984992E+02 -0.22369155366E+02  0.38526470058E+02  0.51100000000E-03 0.  1.
         22    1    1    0    0    0  0.19359481514E+02 -0.16742110329E+02  0.14046344788E+02  0.29195677499E+02  0.00000000000E+00 0. -1.
</event>
<event>
 5    1  0.6690694E-004  0.9118800E+02  0.7818608E-02  0.1130116E+00
         25   -1    0    0    0    0  0.00000000000E+00  0.00000000000E+00  0.99999998245E-14  0.12500000000E+03  0.12500000000E+03 0.  0.
        -11    1    3    3    0    0 -0.19334230864E+02  0.20043438608E+02 -0.24069967443E+02  0.36809173413E+02  0.51100000000E-03 0.  1.
         23    2    1    0    0    0  0.27176096066E+02  0.85971440445E+01  0.91089170575E+01  0.95076372996E+02  0.90244630029E+02 0.  0.
         11    1    3    3    0    0  0.46510326930E+02 -0.11446294564E+02  0.33178884501E+02  0.58267199584E+02  0.51100000000E-03 0. -1.
         22    1    1    0    0    0 -0.27176096066E+02 -0.85971440445E+01 -0.91089170575E+01  0.29923627004E+02  0.00000000000E+00 0. -1.
</event>
<event>
 5    1  0.6690694E-004  0.9118800E+02  0.7818608E-02  0.1130116E+00
         25   -1    0    0    0    0  0.00000000000E+00  0.00000000000E+00  0.99999998245E-14  0.12500000000E+03  0.12500000000E+03 0.  0.
        -11    1    3    3    0    0 -0.45134374671E+02 -0.17705227214E+01  0.35019538915E+01  0.45304637831E+02  0.51100000000E-03 0. -1.
         23    2    1    0    0    0 -0.53576871907E+01  0.27837951816E+02  0.91477923481E+01  0.95211772826E+02  0.90431981104E+02 0.  0.
         11    1    3    3    0    0  0.39776687480E+02  0.29608474537E+02  0.56458384565E+01  0.49907134995E+02  0.51100000000E-03 0.  1.
         22    1    1    0    0    0  0.53576871907E+01 -0.27837951816E+02 -0.91477923481E+01  0.29788227174E+02  0.00000000000E+00 0.  1.
</event>
<event>
 5    1  0.6690694E-004  0.9118800E+02  0.7818608E-02  0.1130116E+00
         25   -1    0    0    0    0  0.00000000000E+00  0.00000000000E+00  0.99999998245E-14  0.12500000000E+03  0.12500000000E+03 0.  0.
        -11    1    3    3    0    0  0.13990602192E+02  0.53763805723E+02  0.56708106756E+01  0.55843010749E+02  0.51100000000E-03 0.  1.
         23    2    1    0    0    0  0.14965710414E+02  0.19191902834E+02 -0.15264930627E+02  0.96271621528E+02  0.91885283817E+02 0.  0.
         11    1    3    3    0    0  0.97510822197E+00 -0.34571902889E+02 -0.20935741303E+02  0.40428610780E+02  0.51100000000E-03 0. -1.
         22    1    1    0    0    0 -0.14965710414E+02 -0.19191902834E+02  0.15264930627E+02  0.28728378472E+02  0.00000000000E+00 0.  1.
</event>
<event>
 5    1  0.6690694E-004  0.9118800E+02  0.7818608E-02  0.1130116E+00
         25   -1    0    0    0    0  0.00000000000E+00  0.00000000000E+00  0.99999998245E-14  0.12500000000E+03  0.12500000000E+03 0.  0.
        -11    1    3    3    0    0  0.53426955615E+01  0.24088866665E+02 -0.20021634198E+02  0.31775520913E+02  0.51100000000E-03 0. -1.
         23    2    1    0    0    0  0.82860202844E+01 -0.28489663609E+02  0.11533692058E+02  0.93166917881E+02  0.87559862210E+02 0.  0.
         11    1    3    3    0    0  0.29433247229E+01 -0.52578530274E+02  0.31555326257E+02  0.61391396968E+02  0.51100000000E-03 0.  1.
         22    1    1    0    0    0 -0.82860202844E+01  0.28489663609E+02 -0.11533692058E+02  0.31833082119E+02  0.00000000000E+00 0.  1.
</event>
<event>
 5    1  0.6690694E-004  0.9118800E+02  0.7818608E-02  0.1130116E+00
         25   -1    0    0    0    0  0.00000000000E+00  0.00000000000E+00  0.99999998245E-14  0.12500000000E+03  0.12500000000E+03 0.  0.
        -11    1    3    3    0    0 -0.31918267767E+02  0.18750221314E+02  0.29205798745E+02  0.47152150504E+02  0.51100000000E-03 0. -1.
         23    2    1    0    0    0 -0.21953033773E+02 -0.20140363075E+02  0.30852582345E+01  0.95048560385E+02  0.90206097888E+02 0.  0.
         11    1    3    3    0    0  0.99652339932E+01 -0.38890584389E+02 -0.26120540511E+02  0.47896409881E+02  0.51100000000E-03 0.  1.
         22    1    1    0    0    0  0.21953033773E+02  0.20140363075E+02 -0.30852582345E+01  0.29951439615E+02  0.00000000000E+00 0.  1.
</event>
<event>
 5    1  0.6690694E-004  0.9118800E+02  0.7818608E-02  0.1130116E+00
         25   -1    0    0    0    0  0.00000000000E+00  0.00000000000E+00  0.99999998245E-14  0.12500000000E+03  0.12500000000E+03 0.  0.
        -11    1    3    3    0    0  0.34319873999E+02 -0.13722377270E+02  0.46496712469E+02  0.59397825381E+02  0.51100000000E-03 0. -1.
         23    2    1    0    0    0  0.84226171132E+01 -0.18127058461E+02  0.21075395840E+02  0.95953433296E+02  0.91451398699E+02 0.  0.
         11    1    3    3    0    0 -0.25897256886E+02 -0.44046811905E+01 -0.25421316629E+02  0.36555607915E+02  0.51100000000E-03 0.  1.
         22    1    1    0    0    0 -0.84226171132E+01  0.18127058461E+02 -0.21075395840E+02  0.29046566704E+02  0.00000000000E+00 0. -1.
</event>
<event>
 5    1  0.6690694E-004  0.9118800E+02  0.7818608E-02  0.1130116E+00
         25   -1    0    0    0    0  0.00000000000E+00  0.00000000000E+00  0.99999998245E-14  0.12500000000E+03  0.12500000000E+03 0.  0.
        -11    1    3    3    0    0 -0.34583682148E+02  0.26364534049E+02  0.63997391909E+01  0.43955390893E+02  0.51100000000E-03 0. -1.
         23    2    1    0    0    0  0.16212014452E+02  0.22810674099E+02 -0.60353789359E+01  0.96371656276E+02  0.92021269656E+02 0.  0.
         11    1    3    3    0    0  0.50795696601E+02 -0.35538599493E+01 -0.12435118127E+02  0.52416265384E+02  0.51100000000E-03 0.  1.
         22    1    1    0    0    0 -0.16212014452E+02 -0.22810674099E+02  0.60353789359E+01  0.28628343724E+02  0.00000000000E+00 0.  1.
</event>
<event>
 5    1  0.6690694E-004  0.9118800E+02  0.7818608E-02  0.1130116E+00
         25   -1    0    0    0    0  0.00000000000E+00  0.00000000000E+00  0.99999998245E-14  0.12500000000E+03  0.12500000000E+03 0.  0.
        -11    1    3    3    0    0  0.46917897353E+02  0.89351553916E+01  0.19875748946E+02  0.51731726149E+02  0.51100000000E-03 0. -1.
         23    2    1    0    0    0  0.20314984551E+02 -0.21344614945E+02  0.31681832766E+01  0.95363391393E+02  0.90641314246E+02 0.  0.
         11    1    3    3    0    0 -0.26602912801E+02 -0.30279770336E+02 -0.16707565670E+02  0.43631665245E+02  0.51100000000E-03 0.  1.
         22    1    1    0    0    0 -0.20314984551E+02  0.21344614945E+02 -0.31681832766E+01  0.29636608607E+02  0.00000000000E+00 0. -1.
</event>
<event>
 5    1  0.6690694E-004  0.9118800E+02  0.7818608E-02  0.1130116E+00
         25   -1    0    0    0    0  0.00000000000E+00  0.00000000000E+00  0.99999998245E-14  0.12500000000E+03  0.12500000000E+03 0.  0.
        -11    1    3    3    0    0  0.17147586270E+02 -0.12372143206E+02  0.52668198779E+02  0.56754284466E+02  0.51100000000E-03 0.  1.
         23    2    1    0    0    0 -0.27926993967E+01  0.95524225815E+01  0.27901403476E+02  0.95376761436E+02  0.90659750491E+02 0.  0.
         11    1    3    3    0    0 -0.19940285666E+02  0.21924565788E+02 -0.24766795303E+02  0.38622476970E+02  0.51100000000E-03 0. -1.
         22    1    1    0    0    0  0.27926993967E+01 -0.95524225815E+01 -0.27901403476E+02  0.29623238564E+02  0.00000000000E+00 0.  1.
</event>
<event>
 5    1  0.6690694E-004  0.9118800E+02  0.7818608E-02  0.1130116E+00
         25   -1    0    0    0    0  0.00000000000E+00  0.00000000000E+00  0.99999998245E-14  0.12500000000E+03  0.12500000000E+03 0.  0.
        -11    1    3    3    0    0 -0.24110911598E+02  0.28446711138E+02 -0.22562143144E+02  0.43584420797E+02  0.51100000000E-03 0. -1.
         23    2    1    0    0    0 -0.15976400433E+02  0.50549643849E+01  0.23650432058E+02  0.96014814607E+02  0.91535259063E+02 0.  0.
         11    1    3    3    0    0  0.81345111650E+01 -0.23391746753E+02  0.46212575202E+02  0.52430393810E+02  0.51100000000E-03 0.  1.
         22    1    1    0    0    0  0.15976400433E+02 -0.50549643849E+01 -0.23650432058E+02  0.28985185393E+02  0.00000000000E+00 0.  1.
</event>
<event>
 5    1  0.6690694E-004  0.9118800E+02  0.7818608E-02  0.1130116E+00
         25   -1    0    0    0    0  0.00000000000E+00  0.00000000000E+00  0.99999998245E-14  0.12500000000E+03  0.12500000000E+03 0.  0.
        -11    1    3    3    0    0 -0.36515922370E+02  0.24077550677E+02  0.22228799353E+02  0.49063841616E+02  0.51100000000E-03 0. -1.
         23    2    1    0    0    0 -0.85113835953E+01 -0.13903599439E+02  0.23651649095E+02  0.96274502041E+02  0.91889202360E+02 0.  0.
         11    1    3    3    0    0  0.28004538775E+02 -0.37981150116E+02  0.14228497418E+01  0.47210660425E+02  0.51100000000E-03 0.  1.
         22    1    1    0    0    0  0.85113835953E+01  0.13903599439E+02 -0.23651649095E+02  0.28725497959E+02  0.00000000000E+00 0. -1.
</event>
<event>
 5    1  0.6690694E-004  0.9118800E+02  0.7818608E-02  0.1130116E+00
         25   -1    0    0    0    0  0.00000000000E+00  0.00000000000E+00  0.99999998245E-14  0.12500000000E+03  0.12500000000E+03 0.  0.
        -11    1    3    3    0    0  0.29636002882E+02 -0.52751809912E+02 -0.31249314611E+01  0.60587220704E+02  0.51100000000E-03 0. -1.
         23    2    1    0    0    0  0.70281030849E+01 -0.34320346797E+02  0.37417699276E+00  0.89965439269E+02  0.82863501116E+02 0.  0.
         11    1    3    3    0    0 -0.22607899797E+02  0.18431463115E+02  0.34991084538E+01  0.29378218564E+02  0.51100000000E-03 0.  1.
         22    1    1    0    0    0 -0.70281030849E+01  0.34320346797E+02 -0.37417699276E+00  0.35034560731E+02  0.00000000000E+00 0. -1.
</event>
<event>
 5    1  0.6690694E-004  0.9118800E+02  0.7818608E-02  0.1130116E+00
         25   -1    0    0    0    0  0.00000000000E+00  0.00000000000E+00  0.99999998245E-14  0.12500000000E+03  0.12500000000E+03 0.  0.
        -11    1    3    3    0    0 -0.26407142265E+02 -0.26847138424E+02  0.31013582834E+01  0.37785240870E+02  0.51100000000E-03 0. -1.
         23    2    1    0    0    0  0.26129485807E+02 -0.59656259091E+01  0.13052653547E+02  0.95188752363E+02  0.90400155369E+02 0.  0.
         11    1    3    3    0    0  0.52536628072E+02  0.20881512515E+02  0.99512952641E+01  0.57403511493E+02  0.51100000000E-03 0.  1.
         22    1    1    0    0    0 -0.26129485807E+02  0.59656259091E+01 -0.13052653547E+02  0.29811247637E+02  0.00000000000E+00 0.  1.
</event>
<event>
 5    1  0.6690694E-004  0.9118800E+02  0.7818608E-02  0.1130116E+00
         25   -1    0    0    0    0  0.00000000000E+00  0.00000000000E+00  0.99999998245E-14  0.12500000000E+03  0.12500000000E+03 0.  0.
        -11    1    3    3    0    0  0.16048426103E+02  0.25857491353E+02  0.52932567365E+02  0.61057501813E+02  0.51100000000E-03 0. -1.
         23    2    1    0    0    0  0.36819050377E+01  0.91600120495E+01  0.35415020561E+02  0.88234718459E+02  0.80210221386E+02 0.  0.
         11    1    3    3    0    0 -0.12366521065E+02 -0.16697479303E+02 -0.17517546804E+02  0.27177216646E+02  0.51100000000E-03 0.  1.
         22    1    1    0    0    0 -0.36819050377E+01 -0.91600120495E+01 -0.35415020561E+02  0.36765281541E+02  0.00000000000E+00 0. -1.
</event>
<event>
 5    1  0.6690694E-004  0.9118800E+02  0.7818608E-02  0.1130116E+00
         25   -1    0    0    0    0  0.00000000000E+00  0.00000000000E+00  0.99999998245E-14  0.12500000000E+03  0.12500000000E+03 0.  0.
        -11    1    3    3    0    0 -0.14824618881E+02  0.28196634768E+02 -0.15955478770E+02  0.35628595822E+02  0.51100000000E-03 0.  1.
         23    2    1    0    0    0  0.25205044093E+02 -0.13946443607E+02 -0.11700384780E+02  0.93908256063E+02  0.88611872883E+02 0.  0.
         11    1    3    3    0    0  0.40029662974E+02 -0.42143078375E+02  0.42550939901E+01  0.58279660241E+02  0.51100000000E-03 0. -1.
         22    1    1    0    0    0 -0.25205044093E+02  0.13946443607E+02  0.11700384780E+02  0.31091743937E+02  0.00000000000E+00 0. -1.
</event>
<event>
 5    1  0.6690694E-004  0.9118800E+02  0.7818608E-02  0.1130116E+00
         25   -1    0    0    0    0  0.00000000000E+00  0.00000000000E+00  0.99999998245E-14  0.12500000000E+03  0.12500000000E+03 0.  0.
        -11    1    3    3    0    0  0.31699120423E+02 -0.97689140068E+00  0.51149003052E+01  0.32123990378E+02  0.51100000000E-03 0.  1.
         23    2    1    0    0    0 -0.24734501372E+02 -0.17623338627E+02  0.13874792037E+02  0.91610069234E+02  0.85308365993E+02 0.  0.
         11    1    3    3    0    0 -0.56433621795E+02 -0.16646447227E+02  0.87598917320E+01  0.59486078856E+02  0.51100000000E-03 0. -1.
         22    1    1    0    0    0  0.24734501372E+02  0.17623338627E+02 -0.13874792037E+02  0.33389930766E+02  0.00000000000E+00 0. -1.
</event>
<event>
 5    1  0.6690694E-004  0.9118800E+02  0.7818608E-02  0.1130116E+00
         25   -1    0    0    0    0  0.00000000000E+00  0.00000000000E+00  0.99999998245E-14  0.12500000000E+03  0.12500000000E+03 0.  0.
        -11    1    3    3    0    0  0.24156767041E+01 -0.22008868377E+02 -0.37507222326E+02  0.43554764470E+02  0.51100000000E-03 0.  1.
         23    2    1    0    0    0 -0.12151190179E+02 -0.26796185997E+02  0.10351344780E+02  0.93809659420E+02  0.88472678579E+02 0.  0.
         11    1    3    3    0    0 -0.14566866884E+02 -0.47873176195E+01  0.47858567106E+02  0.50254894950E+02  0.51100000000E-03 0. -1.
         22    1    1    0    0    0  0.12151190179E+02  0.26796185997E+02 -0.10351344780E+02  0.31190340580E+02  0.00000000000E+00 0. -1.
</event>
<event>
 5    1  0.6690694E-004  0.9118800E+02  0.7818608E-02  0.1130116E+00
         25   -1    0    0    0    0  0.00000000000E+00  0.00000000000E+00  0.99999998245E-14  0.12500000000E+03  0.12500000000E+03 0.  0.
        -11    1    3    3    0    0 -0.50908064181E+02  0.77225523089E+01 -0.22985423718E+02  0.56387928820E+02  0.51100000000E-03 0.  1.
         23    2    1    0    0    0 -0.12853935533E+02  0.14482131732E+00 -0.26700063940E+02  0.95366605893E+02  0.90645747132E+02 0.  0.
         11    1    3    3    0    0  0.38054128648E+02 -0.75777309915E+01 -0.37146402225E+01  0.38978677073E+02  0.51100000000E-03 0. -1.
         22    1    1    0    0    0  0.12853935533E+02 -0.14482131732E+00  0.26700063940E+02  0.29633394107E+02  0.00000000000E+00 0.  1.
</event>
<event>
 5    1  0.6690694E-004  0.9118800E+02  0.7818608E-02  0.1130116E+00
         25   -1    0    0    0    0  0.00000000000E+00  0.00000000000E+00  0.99999998245E-14  0.12500000000E+03  0.12500000000E+03 0.  0.
        -11    1    3    3    0    0 -0.32844809283E+02  0.45590185625E+02 -0.15878505506E+02  0.58389840380E+02  0.51100000000E-03 0. -1.
         23    2    1    0    0    0 -0.81360462106E+00  0.22726735995E+02 -0.15006901168E+02  0.97753466934E+02  0.93879533092E+02 0.  0.
         11    1    3    3    0    0  0.32031204662E+02 -0.22863449631E+02  0.87160433804E+00  0.39363626554E+02  0.51100000000E-03 0.  1.
         22    1    1    0    0    0  0.81360462106E+00 -0.22726735995E+02  0.15006901168E+02  0.27246533066E+02  0.00000000000E+00 0. -1.
</event>
<event>
 5    1  0.6690694E-004  0.9118800E+02  0.7818608E-02  0.1130116E+00
         25   -1    0    0    0    0  0.00000000000E+00  0.00000000000E+00  0.99999998245E-14  0.12500000000E+03  0.12500000000E+03 0.  0.
        -11    1    3    3    0    0 -0.39488003432E+02  0.38309277572E+02 -0.76892608465E+01  0.55552028728E+02  0.51100000000E-03 0. -1.
         23    2    1    0    0    0 -0.20864103470E+02  0.72646056846E+01 -0.21379317446E+02  0.94256536893E+02  0.89101819416E+02 0.  0.
         11    1    3    3    0    0  0.18623899962E+02 -0.31044671887E+02 -0.13690056599E+02  0.38704508166E+02  0.51100000000E-03 0.  1.
         22    1    1    0    0    0  0.20864103470E+02 -0.72646056846E+01  0.21379317446E+02  0.30743463107E+02  0.00000000000E+00 0. -1.
</event>
<event>
 5    1  0.6690694E-004  0.9118800E+02  0.7818608E-02  0.1130116E+00
         25   -1    0    0    0    0  0.00000000000E+00  0.00000000000E+00  0.99999998245E-14  0.12500000000E+03  0.12500000000E+03 0.  0.
        -11    1    3    3    0    0  0.15376055819E+02  0.22865121193E+02  0.36379955404E+02  0.45637024609E+02  0.51100000000E-03 0. -1.
         23    2    1    0    0    0 -0.92393974171E+01  0.35664394248E+02  0.45230078376E+01  0.87881634174E+02  0.79658072683E+02 0.  0.
         11    1    3    3    0    0 -0.24615453236E+02  0.12799273055E+02 -0.31856947567E+02  0.42244609565E+02  0.51100000000E-03 0.  1.
         22    1    1    0    0    0  0.92393974171E+01 -0.35664394248E+02 -0.45230078376E+01  0.37118365826E+02  0.00000000000E+00 0. -1.
</event>
<event>
 5    1  0.6690694E-004  0.9118800E+02  0.7818608E-02  0.1130116E+00
         25   -1    0    0    0    0  0.00000000000E+00  0.00000000000E+00  0.99999998245E-14  0.12500000000E+03  0.12500000000E+03 0.  0.
        -11    1    3    3    0    0  0.73580101563E+01  0.35650690526E+02 -0.19008172136E+02  0.41066076713E+02  0.51100000000E-03 0.  1.
         23    2    1    0    0    0  0.17225661692E+02 -0.12911371112E+01  0.21929881886E+02  0.97083872487E+02  0.92983698151E+02 0.  0.
         11    1    3    3    0    0  0.98676515355E+01 -0.36941827637E+02  0.40938054022E+02  0.56017795774E+02  0.51100000000E-03 0. -1.
         22    1    1    0    0    0 -0.17225661692E+02  0.12911371112E+01 -0.21929881886E+02  0.27916127513E+02  0.00000000000E+00 0. -1.
</event>
<event>
 5    1  0.6690694E-004  0.9118800E+02  0.7818608E-02  0.1130116E+00
         25   -1    0    0    0    0  0.00000000000E+00  0.00000000000E+00  0.99999998245E-14  0.12500000000E+03  0.12500000000E+03 0.  0.
        -11    1    3    3    0    0  0.24071736377E+02 -0.28221105297E+02  0.20024098044E+02  0.42152624818E+02  0.51100000000E-03 0.  1.
         23    2    1    0    0    0  0.57761776207E+01  0.21763573290E+02  0.19234253898E+02  0.95386255332E+02  0.90672839555E+02 0.  0.
         11    1    3    3    0    0 -0.18295558756E+02  0.49984678586E+02 -0.78984414573E+00  0.53233630513E+02  0.51100000000E-03 0. -1.
         22    1    1    0    0    0 -0.57761776207E+01 -0.21763573290E+02 -0.19234253898E+02  0.29613744668E+02  0.00000000000E+00 0.  1.
</event>
<event>
 5    1  0.6690694E-004  0.9118800E+02  0.7818608E-02  0.1130116E+00
         25   -1    0    0    0    0  0.00000000000E+00  0.00000000000E+00  0.99999998245E-14  0.12500000000E+03  0.12500000000E+03 0.  0.
        -11    1    3    3    0    0 -0.11926893521E+02 -0.23742796400E+02  0.41191555224E+02  0.49017500874E+02  0.51100000000E-03 0. -1.
         23    2    1    0    0    0 -0.17076322122E+02 -0.21697651476E+02 -0.61746134529E+01  0.96706631376E+02  0.92475174204E+02 0.  0.
         11    1    3    3    0    0 -0.51494286004E+01  0.20451449235E+01 -0.47366168676E+02  0.47689130502E+02  0.51100000000E-03 0.  1.
         22    1    1    0    0    0  0.17076322122E+02  0.21697651476E+02  0.61746134529E+01  0.28293368624E+02  0.00000000000E+00 0.  1.
</event>
<event>
 5    1  0.6690694E-004  0.9118800E+02  0.7818608E-02  0.1130116E+00
         25   -1    0    0    0    0  0.00000000000E+00  0.00000000000E+00  0.99999998245E-14  0.12500000000E+03  0.12500000000E+03 0.  0.
        -11    1    3    3    0    0  0.23942803860E+02 -0.60641708038E+01  0.22572827748E+02  0.33459895054E+02  0.51100000000E-03 0.  1.
         23    2    1    0    0    0 -0.17542741867E+02  0.43105467220E+01 -0.22867635364E+02  0.95857979610E+02  0.91320834985E+02 0.  0.
         11    1    3    3    0    0 -0.41485545727E+02  0.10374717526E+02 -0.45440463113E+02  0.62398084556E+02  0.51100000000E-03 0. -1.
         22    1    1    0    0    0  0.17542741867E+02 -0.43105467220E+01  0.22867635364E+02  0.29142020390E+02  0.00000000000E+00 0. -1.
</event>
<event>
 5    1  0.6690694E-004  0.9118800E+02  0.7818608E-02  0.1130116E+00
         25   -1    0    0    0    0  0.00000000000E+00  0.00000000000E+00  0.99999998245E-14  0.12500000000E+03  0.12500000000E+03 0.  0.
        -11    1    3    3    0    0 -0.35131885695E+02 -0.52726633472E+01 -0.40912327194E+02  0.54183658864E+02  0.51100000000E-03 0.  1.
         23    2    1    0    0    0 -0.18351261494E+02  0.18702656827E+02 -0.94661330855E+01  0.97140246836E+02  0.93059452550E+02 0.  0.
         11    1    3    3    0    0  0.16780624201E+02  0.23975320174E+02  0.31446194108E+02  0.42956587972E+02  0.51100000000E-03 0. -1.
         22    1    1    0    0    0  0.18351261494E+02 -0.18702656827E+02  0.94661330855E+01  0.27859753164E+02  0.00000000000E+00 0.  1.
</event>
<event>
 5    1  0.6690694E-004  0.9118800E+02  0.7818608E-02  0.1130116E+00
         25   -1    0    0    0    0  0.00000000000E+00  0.00000000000E+00  0.99999998245E-14  0.12500000000E+03  0.12500000000E+03 0.  0.
        -11    1    3    3    0    0 -0.28105759408E+02 -0.11435024830E+02 -0.20499018322E+02  0.36618345910E+02  0.51100000000E-03 0. -1.
         23    2    1    0    0    0  0.12254006315E+02  0.26288627146E+02  0.11976316740E+01  0.95970929922E+02  0.91475310770E+02 0.  0.
         11    1    3    3    0    0  0.40359765723E+02  0.37723651975E+02  0.21696649996E+02  0.59352584012E+02  0.51100000000E-03 0.  1.
         22    1    1    0    0    0 -0.12254006315E+02 -0.26288627146E+02 -0.11976316740E+01  0.29029070078E+02  0.00000000000E+00 0.  1.
</event>
<event>
 5    1  0.6690694E-004  0.9118800E+02  0.7818608E-02  0.1130116E+00
         25   -1    0    0    0    0  0.00000000000E+00  0.00000000000E+00  0.99999998245E-14  0.12500000000E+03  0.12500000000E+03 0.  0.
        -11    1    3    3    0    0 -0.24131021952E+02 -0.12500262174E+02 -0.28741554171E+02  0.39555526937E+02  0.51100000000E-03 0.  1.
         23    2    1    0    0    0  0.10469704112E+02  0.26394547747E+02 -0.94287417026E+01  0.95080307069E+02  0.90250079043E+02 0.  0.
         11    1    3    3    0    0  0.34600726065E+02  0.38894809921E+02  0.19312812468E+02  0.55524780132E+02  0.51100000000E-03 0. -1.
         22    1    1    0    0    0 -0.10469704112E+02 -0.26394547747E+02  0.94287417026E+01  0.29919692931E+02  0.00000000000E+00 0. -1.
</event>
<event>
 5    1  0.6690694E-004  0.9118800E+02  0.7818608E-02  0.1130116E+00
         25   -1    0    0    0    0  0.00000000000E+00  0.00000000000E+00  0.99999998245E-14  0.12500000000E+03  0.12500000000E+03 0.  0.
        -11    1    3    3    0    0  0.26251111127E+02 -0.29974455989E+02  0.17136925265E+02  0.43373529428E+02  0.51100000000E-03 0. -1.
         23    2    1    0    0    0 -0.23623477918E+02 -0.13814466347E+02  0.65998547358E+01  0.96849222534E+02  0.92667716242E+02 0.  0.
         11    1    3    3    0    0 -0.49874589045E+02  0.16159989642E+02 -0.10537070529E+02  0.53475693106E+02  0.51100000000E-03 0.  1.
         22    1    1    0    0    0  0.23623477918E+02  0.13814466347E+02 -0.65998547358E+01  0.28150777466E+02  0.00000000000E+00 0.  1.
</event>
<event>
 5    1  0.6690694E-004  0.9118800E+02  0.7818608E-02  0.1130116E+00
         25   -1    0    0    0    0  0.00000000000E+00  0.00000000000E+00  0.99999998245E-14  0.12500000000E+03  0.12500000000E+03 0.  0.
        -11    1    3    3    0    0 -0.12725260994E+02 -0.44281089918E+02 -0.36102079454E+02  0.58532959372E+02  0.51100000000E-03 0.  1.
         23    2    1    0    0    0 -0.10208135459E+02 -0.10350113428E+02 -0.27912286047E+02  0.93528956326E+02  0.88075189932E+02 0.  0.
         11    1    3    3    0    0  0.25171255342E+01  0.33930976490E+02  0.81897934068E+01  0.34995996954E+02  0.51100000000E-03 0. -1.
         22    1    1    0    0    0  0.10208135459E+02  0.10350113428E+02  0.27912286047E+02  0.31471043674E+02  0.00000000000E+00 0.  1.
</event>
<event>
 5    1  0.6690694E-004  0.9118800E+02  0.7818608E-02  0.1130116E+00
         25   -1    0    0    0    0  0.00000000000E+00  0.00000000000E+00  0.99999998245E-14  0.12500000000E+03  0.12500000000E+03 0.  0.
        -11    1    3    3    0    0  0.16553082447E+02 -0.12354306844E+02  0.37745633180E+02  0.43027505860E+02  0.51100000000E-03 0. -1.
         23    2    1    0    0    0  0.38225332423E+01 -0.24713819055E+02 -0.13020965943E+02  0.96805494032E+02  0.92608711837E+02 0.  0.
         11    1    3    3    0    0 -0.12730549205E+02 -0.12359512211E+02 -0.50766599122E+02  0.53777988173E+02  0.51100000000E-03 0.  1.
         22    1    1    0    0    0 -0.38225332423E+01  0.24713819055E+02  0.13020965943E+02  0.28194505968E+02  0.00000000000E+00 0.  1.
</event>
<event>
 5    1  0.6690694E-004  0.9118800E+02  0.7818608E-02  0.1130116E+00
         25   -1    0    0    0    0  0.00000000000E+00  0.00000000000E+00  0.99999998245E-14  0.12500000000E+03  0.12500000000E+03 0.  0.
        -11    1    3    3    0    0  0.28025403032E+02 -0.22541237719E+02 -0.50030339247E+02  0.61616275922E+02  0.51100000000E-03 0. -1.
         23    2    1    0    0    0  0.12558218615E+02 -0.17464746294E+02 -0.20781206703E+02  0.95090390007E+02  0.90264043238E+02 0.  0.
         11    1    3    3    0    0 -0.15467184417E+02  0.50764914252E+01  0.29249132544E+02  0.33474114085E+02  0.51100000000E-03 0.  1.
         22    1    1    0    0    0 -0.12558218615E+02  0.17464746294E+02  0.20781206703E+02  0.29909609993E+02  0.00000000000E+00 0. -1.
</event>
<event>
 5    1  0.6690694E-004  0.9118800E+02  0.7818608E-02  0.1130116E+00
         25   -1    0    0    0    0  0.00000000000E+00  0.00000000000E+00  0.99999998245E-14  0.12500000000E+03  0.12500000000E+03 0.  0.
        -11    1    3    3    0    0  0.15022402980E+02 -0.28909904584E+01 -0.48512407552E+02  0.50867318623E+02  0.51100000000E-03 0.  1.
         23    2    1    0    0    0  0.25166520812E+02  0.12137429198E+02 -0.69565945343E+01  0.96206508290E+02  0.91796661555E+02 0.  0.
         11    1    3    3    0    0  0.10144117831E+02  0.15028419657E+02  0.41555813017E+02  0.45339189668E+02  0.51100000000E-03 0. -1.
         22    1    1    0    0    0 -0.25166520812E+02 -0.12137429198E+02  0.69565945343E+01  0.28793491710E+02  0.00000000000E+00 0. -1.
</event>
<event>
 5    1  0.6690694E-004  0.9118800E+02  0.7818608E-02  0.1130116E+00
         25   -1    0    0    0    0  0.00000000000E+00  0.00000000000E+00  0.99999998245E-14  0.12500000000E+03  0.12500000000E+03 0.  0.
        -11    1    3    3    0    0 -0.51765697816E+01  0.34422984658E+02 -0.20114864959E+02  0.40203812506E+02  0.51100000000E-03 0. -1.
         23    2    1    0    0    0 -0.26675516994E+02 -0.13030299083E+02 -0.24597875283E+01  0.95210363282E+02  0.90430032736E+02 0.  0.
         11    1    3    3    0    0 -0.21498947212E+02 -0.47453283741E+02  0.17655077430E+02  0.55006550777E+02  0.51100000000E-03 0.  1.
         22    1    1    0    0    0  0.26675516994E+02  0.13030299083E+02  0.24597875283E+01  0.29789636718E+02  0.00000000000E+00 0.  1.
</event>
<event>
 5    1  0.6690694E-004  0.9118800E+02  0.7818608E-02  0.1130116E+00
         25   -1    0    0    0    0  0.00000000000E+00  0.00000000000E+00  0.99999998245E-14  0.12500000000E+03  0.12500000000E+03 0.  0.
        -11    1    3    3    0    0 -0.47231991782E+02  0.25605787204E+02  0.10063785320E+02  0.54660746073E+02  0.51100000000E-03 0. -1.
         23    2    1    0    0    0 -0.21367187606E+02 -0.19094174879E+01 -0.13948290417E+02  0.99411772494E+02  0.96062183629E+02 0.  0.
         11    1    3    3    0    0  0.25864804176E+02 -0.27515204692E+02 -0.24012075737E+02  0.44751026421E+02  0.51100000000E-03 0.  1.
         22    1    1    0    0    0  0.21367187606E+02  0.19094174879E+01  0.13948290417E+02  0.25588227506E+02  0.00000000000E+00 0. -1.
</event>
<event>
 5    1  0.6690694E-004  0.9118800E+02  0.7818608E-02  0.1130116E+00
         25   -1    0    0    0    0  0.00000000000E+00  0.00000000000E+00  0.99999998245E-14  0.12500000000E+03  0.12500000000E+03 0.  0.
        -11    1    3    3    0    0  0.22436151024E+02 -0.47555359767E+02  0.30554425888E+02  0.60815015062E+02  0.51100000000E-03 0.  1.
         23    2    1    0    0    0  0.21362139768E+02 -0.22862294551E+02  0.13069808363E+02  0.91090629344E+02  0.84543819030E+02 0.  0.
         11    1    3    3    0    0 -0.10740112555E+01  0.24693065216E+02 -0.17484617525E+02  0.30275614283E+02  0.51100000000E-03 0. -1.
         22    1    1    0    0    0 -0.21362139768E+02  0.22862294551E+02 -0.13069808363E+02  0.33909370656E+02  0.00000000000E+00 0.  1.
</event>
<event>
 5    1  0.6690694E-004  0.9118800E+02  0.7818608E-02  0.1130116E+00
         25   -1    0    0    0    0  0.00000000000E+00  0.00000000000E+00  0.99999998245E-14  0.12500000000E+03  0.12500000000E+03 0.  0.
        -11    1    3    3    0    0  0.24502654396E+02  0.18323328358E+02  0.22643162060E+02  0.38063594456E+02  0.51100000000E-03 0. -1.
         23    2    1    0    0    0 -0.14058418905E+02  0.13726387177E+02 -0.20836366116E+02  0.96360743726E+02  0.92006445054E+02 0.  0.
         11    1    3    3    0    0 -0.38561073301E+02 -0.45969411809E+01 -0.43479528176E+02  0.58297149270E+02  0.51100000000E-03 0.  1.
         22    1    1    0    0    0  0.14058418905E+02 -0.13726387177E+02  0.20836366116E+02  0.28639256274E+02  0.00000000000E+00 0.  1.
</event>
<event>
 5    1  0.6690694E-004  0.9118800E+02  0.7818608E-02  0.1130116E+00
         25   -1    0    0    0    0  0.00000000000E+00  0.00000000000E+00  0.99999998245E-14  0.12500000000E+03  0.12500000000E+03 0.  0.
        -11    1    3    3    0    0  0.48659260260E+00  0.22703489235E+02 -0.45308042076E+02  0.50680409162E+02  0.51100000000E-03 0.  1.
         23    2    1    0    0    0 -0.26248398401E+02  0.10258617710E+02 -0.14578899778E+02  0.93270487324E+02  0.87707592778E+02 0.  0.
         11    1    3    3    0    0 -0.26734991004E+02 -0.12444871525E+02  0.30729142298E+02  0.42590078162E+02  0.51100000000E-03 0. -1.
         22    1    1    0    0    0  0.26248398401E+02 -0.10258617710E+02  0.14578899778E+02  0.31729512676E+02  0.00000000000E+00 0. -1.
</event>
<event>
 5    1  0.6690694E-004  0.9118800E+02  0.7818608E-02  0.1130116E+00
         25   -1    0    0    0    0  0.00000000000E+00  0.00000000000E+00  0.99999998245E-14  0.12500000000E+03  0.12500000000E+03 0.  0.
        -11    1    3    3    0    0 -0.20442189835E+02  0.23417509096E+02 -0.42002974381E+02  0.52254308097E+02  0.51100000000E-03 0. -1.
         23    2    1    0    0    0 -0.28866112199E+02 -0.32488795519E+01 -0.11176175116E+02  0.93875820620E+02  0.88566106130E+02 0.  0.
         11    1    3    3    0    0 -0.84239223641E+01 -0.26666388648E+02  0.30826799266E+02  0.41621512524E+02  0.51100000000E-03 0.  1.
         22    1    1    0    0    0  0.28866112199E+02  0.32488795519E+01  0.11176175116E+02  0.31124179380E+02  0.00000000000E+00 0. -1.
</event>
<event>
 5    1  0.6690694E-004  0.9118800E+02  0.7818608E-02  0.1130116E+00
         25   -1    0    0    0    0  0.00000000000E+00  0.00000000000E+00  0.99999998245E-14  0.12500000000E+03  0.12500000000E+03 0.  0.
        -11    1    3    3    0    0 -0.25184530596E+02 -0.20861525347E+02  0.30709783674E+02  0.44861505043E+02  0.51100000000E-03 0. -1.
         23    2    1    0    0    0 -0.18692933107E+01 -0.25603446896E+02 -0.14184152453E+02  0.95670476798E+02  0.91063819377E+02 0.  0.
         11    1    3    3    0    0  0.23315237285E+02 -0.47419215487E+01 -0.44893936127E+02  0.50808971755E+02  0.51100000000E-03 0.  1.
         22    1    1    0    0    0  0.18692933107E+01  0.25603446896E+02  0.14184152453E+02  0.29329523202E+02  0.00000000000E+00 0.  1.
</event>
<event>
 5    1  0.6690694E-004  0.9118800E+02  0.7818608E-02  0.1130116E+00
         25   -1    0    0    0    0  0.00000000000E+00  0.00000000000E+00  0.99999998245E-14  0.12500000000E+03  0.12500000000E+03 0.  0.
        -11    1    3    3    0    0 -0.21269504535E+02 -0.59135393443E+00 -0.41857645367E+02  0.46955340469E+02  0.51100000000E-03 0. -1.
         23    2    1    0    0    0  0.12720057382E+02 -0.22021950090E+02 -0.12903207126E+02  0.96482305498E+02  0.92171450974E+02 0.  0.
         11    1    3    3    0    0  0.33989561917E+02 -0.21430596155E+02  0.28954438241E+02  0.49526965029E+02  0.51100000000E-03 0.  1.
         22    1    1    0    0    0 -0.12720057382E+02  0.22021950090E+02  0.12903207126E+02  0.28517694502E+02  0.00000000000E+00 0.  1.
</event>
<event>
 5    1  0.6690694E-004  0.9118800E+02  0.7818608E-02  0.1130116E+00
         25   -1    0    0    0    0  0.00000000000E+00  0.00000000000E+00  0.99999998245E-14  0.12500000000E+03  0.12500000000E+03 0.  0.
        -11    1    3    3    0    0 -0.25668842485E+02  0.28767306946E+02 -0.46404004390E+02  0.60330581359E+02  0.51100000000E-03 0. -1.
         23    2    1    0    0    0 -0.16694435170E+02  0.23653257244E+02 -0.17159978934E+02  0.91345199140E+02  0.84919372259E+02 0.  0.
         11    1    3    3    0    0  0.89744073144E+01 -0.51140497017E+01  0.29244025455E+02  0.31014617781E+02  0.51100000000E-03 0.  1.
         22    1    1    0    0    0  0.16694435170E+02 -0.23653257244E+02  0.17159978934E+02  0.33654800860E+02  0.00000000000E+00 0. -1.
</event>
<event>
 5    1  0.6690694E-004  0.9118800E+02  0.7818608E-02  0.1130116E+00
         25   -1    0    0    0    0  0.00000000000E+00  0.00000000000E+00  0.99999998245E-14  0.12500000000E+03  0.12500000000E+03 0.  0.
        -11    1    3    3    0    0 -0.70575220135E+01 -0.15584069231E+02 -0.54199983349E+02  0.56835816401E+02  0.51100000000E-03 0. -1.
         23    2    1    0    0    0  0.13661407016E+02 -0.10161939964E+01 -0.30681738304E+02  0.91398872679E+02  0.84998342158E+02 0.  0.
         11    1    3    3    0    0  0.20718929030E+02  0.14567875235E+02  0.23518245044E+02  0.34563056277E+02  0.51100000000E-03 0.  1.
         22    1    1    0    0    0 -0.13661407016E+02  0.10161939964E+01  0.30681738304E+02  0.33601127321E+02  0.00000000000E+00 0. -1.
</event>
<event>
 5    1  0.6690694E-004  0.9118800E+02  0.7818608E-02  0.1130116E+00
         25   -1    0    0    0    0  0.00000000000E+00  0.00000000000E+00  0.99999998245E-14  0.12500000000E+03  0.12500000000E+03 0.  0.
        -11    1    3    3    0    0  0.20518576728E+02  0.39589268611E+02 -0.41876369187E+02  0.61171500527E+02  0.51100000000E-03 0.  1.
         23    2    1    0    0    0  0.80820485860E+01  0.24704336541E+02 -0.13052422851E+02  0.95914101431E+02  0.91397622277E+02 0.  0.
         11    1    3    3    0    0 -0.12436528142E+02 -0.14884932070E+02  0.28823946336E+02  0.34742600905E+02  0.51100000000E-03 0. -1.
         22    1    1    0    0    0 -0.80820485860E+01 -0.24704336541E+02  0.13052422851E+02  0.29085898569E+02  0.00000000000E+00 0.  1.
</event>
<event>
 5    1  0.6690694E-004  0.9118800E+02  0.7818608E-02  0.1130116E+00
         25   -1    0    0    0    0  0.00000000000E+00  0.00000000000E+00  0.99999998245E-14  0.12500000000E+03  0.12500000000E+03 0.  0.
        -11    1    3    3    0    0 -0.58860226694E+02  0.33893627911E+01  0.17974656661E+02  0.61636858688E+02  0.51100000000E-03 0. -1.
         23    2    1    0    0    0 -0.27509703649E+02  0.88713784366E+01  0.75743375522E+01  0.95119308248E+02  0.90304081093E+02 0.  0.
         11    1    3    3    0    0  0.31350523045E+02  0.54820156455E+01 -0.10400319109E+02  0.33482449560E+02  0.51100000000E-03 0.  1.
         22    1    1    0    0    0  0.27509703649E+02 -0.88713784366E+01 -0.75743375522E+01  0.29880691752E+02  0.00000000000E+00 0. -1.
</event>
<event>
 5    1  0.6690694E-004  0.9118800E+02  0.7818608E-02  0.1130116E+00
         25   -1    0    0    0    0  0.00000000000E+00  0.00000000000E+00  0.99999998245E-14  0.12500000000E+03  0.12500000000E+03 0.  0.
        -11    1    3    3    0    0 -0.51479983966E+01 -0.21631326111E+02  0.49005386449E+02  0.53813976419E+02  0.51100000000E-03 0.  1.
         23    2    1    0    0    0 -0.21595405616E+02  0.31945427352E+01  0.19698645428E+02  0.95595862898E+02  0.90961341923E+02 0.  0.
         11    1    3    3    0    0 -0.16447407220E+02  0.24825868846E+02 -0.29306741020E+02  0.41781886479E+02  0.51100000000E-03 0. -1.
         22    1    1    0    0    0  0.21595405616E+02 -0.31945427352E+01 -0.19698645428E+02  0.29404137102E+02  0.00000000000E+00 0.  1.
</event>
<event>
 5    1  0.6690694E-004  0.9118800E+02  0.7818608E-02  0.1130116E+00
         25   -1    0    0    0    0  0.00000000000E+00  0.00000000000E+00  0.99999998245E-14  0.12500000000E+03  0.12500000000E+03 0.  0.
        -11    1    3    3    0    0  0.17080337723E+02 -0.25012182876E+02  0.41230379295E+02  0.51159470345E+02  0.51100000000E-03 0. -1.
         23    2    1    0    0    0  0.33809688143E+01  0.14728744493E+02  0.24104601459E+02  0.96550067206E+02  0.92263301488E+02 0.  0.
         11    1    3    3    0    0 -0.13699368909E+02  0.39740927369E+02 -0.17125777835E+02  0.45390596861E+02  0.51100000000E-03 0.  1.
         22    1    1    0    0    0 -0.33809688143E+01 -0.14728744493E+02 -0.24104601459E+02  0.28449932794E+02  0.00000000000E+00 0.  1.
</event>
<event>
 5    1  0.6690694E-004  0.9118800E+02  0.7818608E-02  0.1130116E+00
         25   -1    0    0    0    0  0.00000000000E+00  0.00000000000E+00  0.99999998245E-14  0.12500000000E+03  0.12500000000E+03 0.  0.
        -11    1    3    3    0    0 -0.18085220907E+02 -0.10514760704E+02  0.24046231201E+02  0.31872506069E+02  0.51100000000E-03 0. -1.
         23    2    1    0    0    0  0.20997744423E+02 -0.28232111493E+01 -0.23141621258E+02  0.93624684439E+02  0.88210946656E+02 0.  0.
         11    1    3    3    0    0  0.39082965330E+02  0.76915495548E+01 -0.47187852459E+02  0.61752178370E+02  0.51100000000E-03 0.  1.
         22    1    1    0    0    0 -0.20997744423E+02  0.28232111493E+01  0.23141621258E+02  0.31375315561E+02  0.00000000000E+00 0.  1.
</event>
<event>
 5    1  0.6690694E-004  0.9118800E+02  0.7818608E-02  0.1130116E+00
         25   -1    0    0    0    0  0.00000000000E+00  0.00000000000E+00  0.99999998245E-14  0.12500000000E+03  0.12500000000E+03 0.  0.
        -11    1    3    3    0    0 -0.30627134084E+02 -0.17636930371E+02 -0.20626477133E+02  0.40921072986E+02  0.51100000000E-03 0.  1.
         23    2    1    0    0    0 -0.21807525152E+02  0.17665960235E+02  0.16119378789E+02  0.92635070264E+02  0.86797278564E+02 0.  0.
         11    1    3    3    0    0  0.88196089319E+01  0.35302890606E+02  0.36745855922E+02  0.51713997278E+02  0.51100000000E-03 0. -1.
         22    1    1    0    0    0  0.21807525152E+02 -0.17665960235E+02 -0.16119378789E+02  0.32364929736E+02  0.00000000000E+00 0.  1.
</event>
<event>
 5    1  0.6690694E-004  0.9118800E+02  0.7818608E-02  0.1130116E+00
         25   -1    0    0    0    0  0.00000000000E+00  0.00000000000E+00  0.99999998245E-14  0.12500000000E+03  0.12500000000E+03 0.  0.
        -11    1    3    3    0    0 -0.16474746953E+02  0.28918826547E+02  0.50633444472E+02  0.60592586307E+02  0.51100000000E-03 0.  1.
         23    2    1    0    0    0 -0.14606420725E+02  0.21748330803E+02  0.20190298969E+02  0.91924546994E+02  0.85767923774E+02 0.  0.
         11    1    3    3    0    0  0.18683262278E+01 -0.71704957448E+01 -0.30443145503E+02  0.31331960687E+02  0.51100000000E-03 0. -1.
         22    1    1    0    0    0  0.14606420725E+02 -0.21748330803E+02 -0.20190298969E+02  0.33075453006E+02  0.00000000000E+00 0.  1.
</event>
<event>
 5    1  0.6690694E-004  0.9118800E+02  0.7818608E-02  0.1130116E+00
         25   -1    0    0    0    0  0.00000000000E+00  0.00000000000E+00  0.99999998245E-14  0.12500000000E+03  0.12500000000E+03 0.  0.
        -11    1    3    3    0    0  0.17317172087E+02  0.24493055525E+02  0.18570003521E+02  0.35279445135E+02  0.51100000000E-03 0.  1.
         23    2    1    0    0    0 -0.24631215431E+02 -0.16082145144E+02  0.61445516033E+01  0.94948582722E+02  0.90067450727E+02 0.  0.
         11    1    3    3    0    0 -0.41948387518E+02 -0.40575200669E+02 -0.12425451918E+02  0.59669137586E+02  0.51100000000E-03 0. -1.
         22    1    1    0    0    0  0.24631215431E+02  0.16082145144E+02 -0.61445516033E+01  0.30051417278E+02  0.00000000000E+00 0. -1.
</event>
<event>
 5    1  0.6690694E-004  0.9118800E+02  0.7818608E-02  0.1130116E+00
         25   -1    0    0    0    0  0.00000000000E+00  0.00000000000E+00  0.99999998245E-14  0.12500000000E+03  0.12500000000E+03 0.  0.
        -11    1    3    3    0    0 -0.26650404232E+02 -0.43253523811E+02 -0.23038522635E+02  0.55784271021E+02  0.51100000000E-03 0.  1.
         23    2    1    0    0    0  0.50690533608E+01 -0.28359038259E+02 -0.17585083375E+02  0.91248473957E+02  0.84776874731E+02 0.  0.
         11    1    3    3    0    0  0.31719457593E+02  0.14894485552E+02  0.54534392602E+01  0.35464202936E+02  0.51100000000E-03 0. -1.
         22    1    1    0    0    0 -0.50690533608E+01  0.28359038259E+02  0.17585083375E+02  0.33751526043E+02  0.00000000000E+00 0.  1.
</event>
<event>
 5    1  0.6690694E-004  0.9118800E+02  0.7818608E-02  0.1130116E+00
         25   -1    0    0    0    0  0.00000000000E+00  0.00000000000E+00  0.99999998245E-14  0.12500000000E+03  0.12500000000E+03 0.  0.
        -11    1    3    3    0    0 -0.29099745214E+02  0.41107279734E+02  0.34349986601E+02  0.60963310264E+02  0.51100000000E-03 0. -1.
         23    2    1    0    0    0 -0.20067598224E+02  0.12483703166E+02  0.19002378223E+02  0.94674404847E+02  0.89686126083E+02 0.  0.
         11    1    3    3    0    0  0.90321469892E+01 -0.28623576568E+02 -0.15347608378E+02  0.33711094583E+02  0.51100000000E-03 0.  1.
         22    1    1    0    0    0  0.20067598224E+02 -0.12483703166E+02 -0.19002378223E+02  0.30325595153E+02  0.00000000000E+00 0. -1.
</event>
<event>
 5    1  0.6690694E-004  0.9118800E+02  0.7818608E-02  0.1130116E+00
         25   -1    0    0    0    0  0.00000000000E+00  0.00000000000E+00  0.99999998245E-14  0.12500000000E+03  0.12500000000E+03 0.  0.
        -11    1    3    3    0    0  0.12442300146E+02  0.41868678835E+02 -0.11518050580E+02  0.45171479826E+02  0.51100000000E-03 0. -1.
         23    2    1    0    0    0  0.29880237487E+02 -0.23835135317E+01  0.29313040279E+01  0.94881861406E+02  0.89974803982E+02 0.  0.
         11    1    3    3    0    0  0.17437937342E+02 -0.44252192367E+02  0.14449354608E+02  0.49710381580E+02  0.51100000000E-03 0.  1.
         22    1    1    0    0    0 -0.29880237487E+02  0.23835135317E+01 -0.29313040279E+01  0.30118138594E+02  0.00000000000E+00 0.  1.
</event>
<event>
 5    1  0.6690694E-004  0.9118800E+02  0.7818608E-02  0.1130116E+00
         25   -1    0    0    0    0  0.00000000000E+00  0.00000000000E+00  0.99999998245E-14  0.12500000000E+03  0.12500000000E+03 0.  0.
        -11    1    3    3    0    0  0.52028500795E+02 -0.13274408374E+02 -0.64934862276E+01  0.54086413972E+02  0.51100000000E-03 0.  1.
         23    2    1    0    0    0  0.12392098054E+02 -0.25207158171E+02 -0.88588390135E+01  0.95547598640E+02  0.90894992491E+02 0.  0.
         11    1    3    3    0    0 -0.39636402742E+02 -0.11932749797E+02 -0.23653527858E+01  0.41461184668E+02  0.51100000000E-03 0. -1.
         22    1    1    0    0    0 -0.12392098054E+02  0.25207158171E+02  0.88588390135E+01  0.29452401360E+02  0.00000000000E+00 0.  1.
</event>
<event>
 5    1  0.6690694E-004  0.9118800E+02  0.7818608E-02  0.1130116E+00
         25   -1    0    0    0    0  0.00000000000E+00  0.00000000000E+00  0.99999998245E-14  0.12500000000E+03  0.12500000000E+03 0.  0.
        -11    1    3    3    0    0 -0.41580102771E+02  0.18548908456E+02  0.39807412929E+02  0.60478071032E+02  0.51100000000E-03 0. -1.
         23    2    1    0    0    0 -0.12212365257E+02  0.17210089290E+02  0.19992031028E+02  0.95930938385E+02  0.91420646444E+02 0.  0.
         11    1    3    3    0    0  0.29367737514E+02 -0.13388191660E+01 -0.19815381900E+02  0.35452867353E+02  0.51100000000E-03 0.  1.
         22    1    1    0    0    0  0.12212365257E+02 -0.17210089290E+02 -0.19992031028E+02  0.29069061615E+02  0.00000000000E+00 0. -1.
</event>
<event>
 5    1  0.6690694E-004  0.9118800E+02  0.7818608E-02  0.1130116E+00
         25   -1    0    0    0    0  0.00000000000E+00  0.00000000000E+00  0.99999998245E-14  0.12500000000E+03  0.12500000000E+03 0.  0.
        -11    1    3    3    0    0  0.25447066695E+02 -0.38493634172E+02  0.33533618372E+02  0.57042235550E+02  0.51100000000E-03 0.  1.
         23    2    1    0    0    0 -0.17411922433E+01 -0.14286357074E+02  0.27527017988E+02  0.93937668018E+02  0.88653353036E+02 0.  0.
         11    1    3    3    0    0 -0.27188258938E+02  0.24207277098E+02 -0.60066003845E+01  0.36895432468E+02  0.51100000000E-03 0. -1.
         22    1    1    0    0    0  0.17411922433E+01  0.14286357074E+02 -0.27527017988E+02  0.31062331982E+02  0.00000000000E+00 0.  1.
</event>
<event>
 5    1  0.6690694E-004  0.9118800E+02  0.7818608E-02  0.1130116E+00
         25   -1    0    0    0    0  0.00000000000E+00  0.00000000000E+00  0.99999998245E-14  0.12500000000E+03  0.12500000000E+03 0.  0.
        -11    1    3    3    0    0 -0.31272773922E+02  0.70662689439E+01  0.51583568172E+02  0.60735352565E+02  0.51100000000E-03 0. -1.
         23    2    1    0    0    0 -0.19710379110E+02  0.10911268900E+02  0.18979426138E+02  0.95542005327E+02  0.90887300167E+02 0.  0.
         11    1    3    3    0    0  0.11562394813E+02  0.38449999557E+01 -0.32604142034E+02  0.34806652762E+02  0.51100000000E-03 0.  1.
         22    1    1    0    0    0  0.19710379110E+02 -0.10911268900E+02 -0.18979426138E+02  0.29457994673E+02  0.00000000000E+00 0. -1.
</event>
<event>
 5    1  0.6690694E-004  0.9118800E+02  0.7818608E-02  0.1130116E+00
         25   -1    0    0    0    0  0.00000000000E+00  0.00000000000E+00  0.99999998245E-14  0.12500000000E+03  0.12500000000E+03 0.  0.
        -11    1    3    3    0    0  0.27998848655E+02  0.42208345122E+02  0.16298718452E+02  0.53208346595E+02  0.51100000000E-03 0. -1.
         23    2    1    0    0    0 -0.93290653267E+01  0.20608324736E+02  0.17574127976E+02  0.96354154186E+02  0.91997492066E+02 0.  0.
         11    1    3    3    0    0 -0.37327913982E+02 -0.21600020386E+02  0.12754095245E+01  0.43145807590E+02  0.51100000000E-03 0.  1.
         22    1    1    0    0    0  0.93290653267E+01 -0.20608324736E+02 -0.17574127976E+02  0.28645845814E+02  0.00000000000E+00 0. -1.
</event>
<event>
 5    1  0.6690694E-004  0.9118800E+02  0.7818608E-02  0.1130116E+00
         25   -1    0    0    0    0  0.00000000000E+00  0.00000000000E+00  0.99999998245E-14  0.12500000000E+03  0.12500000000E+03 0.  0.
        -11    1    3    3    0    0 -0.61371777545E+01 -0.63446229484E+00 -0.33212508138E+02  0.33780736970E+02  0.51100000000E-03 0. -1.
         23    2    1    0    0    0 -0.33764386467E+01  0.67460357526E+01  0.28257037512E+02  0.95753299241E+02  0.91177435862E+02 0.  0.
         11    1    3    3    0    0  0.27607391078E+01  0.73804980475E+01  0.61469545650E+02  0.61972562271E+02  0.51100000000E-03 0.  1.
         22    1    1    0    0    0  0.33764386467E+01 -0.67460357526E+01 -0.28257037512E+02  0.29246700759E+02  0.00000000000E+00 0.  1.
</event>
<event>
 5    1  0.6690694E-004  0.9118800E+02  0.7818608E-02  0.1130116E+00
         25   -1    0    0    0    0  0.00000000000E+00  0.00000000000E+00  0.99999998245E-14  0.12500000000E+03  0.12500000000E+03 0.  0.
        -11    1    3    3    0    0 -0.18323225449E+02 -0.16208178028E+02  0.38129928855E+02  0.45302727297E+02  0.51100000000E-03 0. -1.
         23    2    1    0    0    0 -0.12481982229E+02 -0.11297934876E+02 -0.17068129212E+02  0.10102575866E+03  0.98139898441E+02 0.  0.
         11    1    3    3    0    0  0.58412432198E+01  0.49102431522E+01 -0.55198058066E+02  0.55723031367E+02  0.51100000000E-03 0.  1.
         22    1    1    0    0    0  0.12481982229E+02  0.11297934876E+02  0.17068129212E+02  0.23974241336E+02  0.00000000000E+00 0.  1.
</event>
<event>
 5    1  0.6690694E-004  0.9118800E+02  0.7818608E-02  0.1130116E+00
         25   -1    0    0    0    0  0.00000000000E+00  0.00000000000E+00  0.99999998245E-14  0.12500000000E+03  0.12500000000E+03 0.  0.
        -11    1    3    3    0    0  0.87474895910E+01  0.36784885178E+02  0.29771110712E+02  0.48124478024E+02  0.51100000000E-03 0.  1.
         23    2    1    0    0    0 -0.17321400468E+02  0.23009267268E+02 -0.71023930337E+01  0.95336870003E+02  0.90604732221E+02 0.  0.
         11    1    3    3    0    0 -0.26068890059E+02 -0.13775617910E+02 -0.36873503746E+02  0.47212391980E+02  0.51100000000E-03 0. -1.
         22    1    1    0    0    0  0.17321400468E+02 -0.23009267268E+02  0.71023930337E+01  0.29663129997E+02  0.00000000000E+00 0. -1.
</event>
<event>
 5    1  0.6690694E-004  0.9118800E+02  0.7818608E-02  0.1130116E+00
         25   -1    0    0    0    0  0.00000000000E+00  0.00000000000E+00  0.99999998245E-14  0.12500000000E+03  0.12500000000E+03 0.  0.
        -11    1    3    3    0    0  0.17751868914E+02 -0.25358603676E+02  0.34852091251E+02  0.46613902381E+02  0.51100000000E-03 0.  1.
         23    2    1    0    0    0 -0.22422564069E+02 -0.17186115900E+02  0.79431940395E+01  0.95653308692E+02  0.91040250291E+02 0.  0.
         11    1    3    3    0    0 -0.40174432983E+02  0.81724877758E+01 -0.26908897212E+02  0.49039406311E+02  0.51100000000E-03 0. -1.
         22    1    1    0    0    0  0.22422564069E+02  0.17186115900E+02 -0.79431940395E+01  0.29346691308E+02  0.00000000000E+00 0.  1.
</event>
<event>
 5    1  0.6690694E-004  0.9118800E+02  0.7818608E-02  0.1130116E+00
         25   -1    0    0    0    0  0.00000000000E+00  0.00000000000E+00  0.99999998245E-14  0.12500000000E+03  0.12500000000E+03 0.  0.
        -11    1    3    3    0    0 -0.36600525137E+01  0.27948158516E+02  0.30372527558E+02  0.41436529528E+02  0.51100000000E-03 0. -1.
         23    2    1    0    0    0 -0.22434084809E+02  0.89901344700E+00 -0.15365613798E+02  0.97793411207E+02  0.93932703579E+02 0.  0.
         11    1    3    3    0    0 -0.18774032295E+02 -0.27049145069E+02 -0.45738141355E+02  0.56356881678E+02  0.51100000000E-03 0.  1.
         22    1    1    0    0    0  0.22434084809E+02 -0.89901344700E+00  0.15365613798E+02  0.27206588793E+02  0.00000000000E+00 0.  1.
</event>
<event>
 5    1  0.6690694E-004  0.9118800E+02  0.7818608E-02  0.1130116E+00
         25   -1    0    0    0    0  0.00000000000E+00  0.00000000000E+00  0.99999998245E-14  0.12500000000E+03  0.12500000000E+03 0.  0.
        -11    1    3    3    0    0  0.20968333535E+01 -0.20380363202E+02  0.30047575770E+02  0.36367742909E+02  0.51100000000E-03 0.  1.
         23    2    1    0    0    0  0.25815728849E+02 -0.66335746991E+01 -0.18800098463E+02  0.92382521993E+02  0.86432809155E+02 0.  0.
         11    1    3    3    0    0  0.23718895495E+02  0.13746788503E+02 -0.48847674233E+02  0.56014779085E+02  0.51100000000E-03 0. -1.
         22    1    1    0    0    0 -0.25815728849E+02  0.66335746991E+01  0.18800098463E+02  0.32617478007E+02  0.00000000000E+00 0. -1.
</event>
<event>
 5    1  0.6690694E-004  0.9118800E+02  0.7818608E-02  0.1130116E+00
         25   -1    0    0    0    0  0.00000000000E+00  0.00000000000E+00  0.99999998245E-14  0.12500000000E+03  0.12500000000E+03 0.  0.
        -11    1    3    3    0    0 -0.22119344722E+02 -0.86288904024E+01 -0.35959678366E+02  0.43090853194E+02  0.51100000000E-03 0.  1.
         23    2    1    0    0    0  0.13573654216E+02  0.22415835849E+02 -0.14696952201E+02  0.94954797562E+02  0.90076075572E+02 0.  0.
         11    1    3    3    0    0  0.35692998938E+02  0.31044726251E+02  0.21262726164E+02  0.51863944368E+02  0.51100000000E-03 0. -1.
         22    1    1    0    0    0 -0.13573654216E+02 -0.22415835849E+02  0.14696952201E+02  0.30045202438E+02  0.00000000000E+00 0. -1.
</event>
<event>
 5    1  0.6690694E-004  0.9118800E+02  0.7818608E-02  0.1130116E+00
         25   -1    0    0    0    0  0.00000000000E+00  0.00000000000E+00  0.99999998245E-14  0.12500000000E+03  0.12500000000E+03 0.  0.
        -11    1    3    3    0    0  0.13699674508E+02 -0.18176720870E+01 -0.36309952817E+02  0.38850967649E+02  0.51100000000E-03 0. -1.
         23    2    1    0    0    0  0.16575004893E+02  0.81462384926E+01  0.20966815965E+02  0.97059002156E+02  0.92950258413E+02 0.  0.
         11    1    3    3    0    0  0.28753303850E+01  0.99639105796E+01  0.57276768782E+02  0.58208034507E+02  0.51100000000E-03 0.  1.
         22    1    1    0    0    0 -0.16575004893E+02 -0.81462384926E+01 -0.20966815965E+02  0.27940997844E+02  0.00000000000E+00 0.  1.
</event>
<event>
 5    1  0.6690694E-004  0.9118800E+02  0.7818608E-02  0.1130116E+00
         25   -1    0    0    0    0  0.00000000000E+00  0.00000000000E+00  0.99999998245E-14  0.12500000000E+03  0.12500000000E+03 0.  0.
        -11    1    3    3    0    0 -0.15760493395E+02  0.31820460932E+02 -0.22382253940E+01  0.35580114378E+02  0.51100000000E-03 0. -1.
         23    2    1    0    0    0 -0.80703965540E+01 -0.27948414901E+02 -0.19826532079E+01  0.95842220425E+02  0.91299261257E+02 0.  0.
         11    1    3    3    0    0  0.76900968414E+01 -0.59768875833E+02  0.25557218609E+00  0.60262106047E+02  0.51100000000E-03 0.  1.
         22    1    1    0    0    0  0.80703965540E+01  0.27948414901E+02  0.19826532079E+01  0.29157779575E+02  0.00000000000E+00 0.  1.
</event>
<event>
 5    1  0.6690694E-004  0.9118800E+02  0.7818608E-02  0.1130116E+00
         25   -1    0    0    0    0  0.00000000000E+00  0.00000000000E+00  0.99999998245E-14  0.12500000000E+03  0.12500000000E+03 0.  0.
        -11    1    3    3    0    0  0.27913647825E+01  0.89386860829E+01 -0.36934344462E+02  0.38102987118E+02  0.51100000000E-03 0.  1.
         23    2    1    0    0    0  0.16590256482E+02  0.23321798071E+02  0.14247637223E+02  0.93029106333E+02  0.87362901642E+02 0.  0.
         11    1    3    3    0    0  0.13798891699E+02  0.14383111988E+02  0.51181981685E+02  0.54926119215E+02  0.51100000000E-03 0. -1.
         22    1    1    0    0    0 -0.16590256482E+02 -0.23321798071E+02 -0.14247637223E+02  0.31970893667E+02  0.00000000000E+00 0. -1.
</event>
<event>
 5    1  0.6690694E-004  0.9118800E+02  0.7818608E-02  0.1130116E+00
         25   -1    0    0    0    0  0.00000000000E+00  0.00000000000E+00  0.99999998245E-14  0.12500000000E+03  0.12500000000E+03 0.  0.
        -11    1    3    3    0    0 -0.15928171649E+02  0.11612972309E+02  0.46970115066E+02  0.50938781763E+02  0.51100000000E-03 0.  1.
         23    2    1    0    0    0 -0.21853968098E+02 -0.13802133754E+02  0.78091681423E+01  0.97998556986E+02  0.94205303706E+02 0.  0.
         11    1    3    3    0    0 -0.59257964491E+01 -0.25415106063E+02 -0.39160946924E+02  0.47059775222E+02  0.51100000000E-03 0. -1.
         22    1    1    0    0    0  0.21853968098E+02  0.13802133754E+02 -0.78091681423E+01  0.27001443014E+02  0.00000000000E+00 0. -1.
</event>
<event>
 5    1  0.6690694E-004  0.9118800E+02  0.7818608E-02  0.1130116E+00
         25   -1    0    0    0    0  0.00000000000E+00  0.00000000000E+00  0.99999998245E-14  0.12500000000E+03  0.12500000000E+03 0.  0.
        -11    1    3    3    0    0 -0.37622237581E+02 -0.17780092128E+02  0.18342666045E+01  0.41652478569E+02  0.51100000000E-03 0.  1.
         23    2    1    0    0    0  0.19874541903E+02 -0.12032700659E+02 -0.83214473954E+01  0.10032147112E+03  0.97238715436E+02 0.  0.
         11    1    3    3    0    0  0.57496779484E+02  0.57473914696E+01 -0.10155714000E+02  0.58668992550E+02  0.51100000000E-03 0. -1.
         22    1    1    0    0    0 -0.19874541903E+02  0.12032700659E+02  0.83214473954E+01  0.24678528881E+02  0.00000000000E+00 0. -1.
</event>
<event>
 5    1  0.6690694E-004  0.9118800E+02  0.7818608E-02  0.1130116E+00
         25   -1    0    0    0    0  0.00000000000E+00  0.00000000000E+00  0.99999998245E-14  0.12500000000E+03  0.12500000000E+03 0.  0.
        -11    1    3    3    0    0 -0.28213616388E+02  0.19346135160E+02 -0.26733461731E+02  0.43416115346E+02  0.51100000000E-03 0. -1.
         23    2    1    0    0    0 -0.55884637109E+01  0.16085536705E+02  0.21961807077E+02  0.97209778917E+02  0.93152803121E+02 0.  0.
         11    1    3    3    0    0  0.22625152678E+02 -0.32605984548E+01  0.48695268808E+02  0.53793663572E+02  0.51100000000E-03 0.  1.
         22    1    1    0    0    0  0.55884637109E+01 -0.16085536705E+02 -0.21961807077E+02  0.27790221083E+02  0.00000000000E+00 0.  1.
</event>
<event>
 5    1  0.6690694E-004  0.9118800E+02  0.7818608E-02  0.1130116E+00
         25   -1    0    0    0    0  0.00000000000E+00  0.00000000000E+00  0.99999998245E-14  0.12500000000E+03  0.12500000000E+03 0.  0.
        -11    1    3    3    0    0  0.25790345881E+02  0.26176804821E+02  0.45036369672E+02  0.58126084031E+02  0.51100000000E-03 0.  1.
         23    2    1    0    0    0  0.22869107259E+02 -0.48105819022E-01  0.18085845227E+02  0.95843591123E+02  0.91301137895E+02 0.  0.
         11    1    3    3    0    0 -0.29212386218E+01 -0.26224910640E+02 -0.26950524445E+02  0.37717507092E+02  0.51100000000E-03 0. -1.
         22    1    1    0    0    0 -0.22869107259E+02  0.48105819022E-01 -0.18085845227E+02  0.29156408877E+02  0.00000000000E+00 0.  1.
</event>
<event>
 5    1  0.6690694E-004  0.9118800E+02  0.7818608E-02  0.1130116E+00
         25   -1    0    0    0    0  0.00000000000E+00  0.00000000000E+00  0.99999998245E-14  0.12500000000E+03  0.12500000000E+03 0.  0.
        -11    1    3    3    0    0 -0.23166971812E+02 -0.25239864244E+02 -0.19983099018E+01  0.34318399915E+02  0.51100000000E-03 0. -1.
         23    2    1    0    0    0 -0.12370164946E+02  0.30870008044E+02  0.25995825487E+01  0.91642299137E+02  0.85355578519E+02 0.  0.
         11    1    3    3    0    0  0.10796806866E+02  0.56109872289E+02  0.45978924504E+01  0.57323899222E+02  0.51100000000E-03 0.  1.
         22    1    1    0    0    0  0.12370164946E+02 -0.30870008044E+02 -0.25995825487E+01  0.33357700863E+02  0.00000000000E+00 0.  1.
</event>
<event>
 5    1  0.6690694E-004  0.9118800E+02  0.7818608E-02  0.1130116E+00
         25   -1    0    0    0    0  0.00000000000E+00  0.00000000000E+00  0.99999998245E-14  0.12500000000E+03  0.12500000000E+03 0.  0.
        -11    1    3    3    0    0 -0.32597698122E+02  0.14975691282E+02  0.48702988718E+01  0.36202224567E+02  0.51100000000E-03 0.  1.
         23    2    1    0    0    0  0.22381780050E+02  0.84790704943E+01 -0.16910464393E+02  0.95694667368E+02  0.91097018843E+02 0.  0.
         11    1    3    3    0    0  0.54979478172E+02 -0.64966207880E+01 -0.21780763265E+02  0.59492442801E+02  0.51100000000E-03 0. -1.
         22    1    1    0    0    0 -0.22381780050E+02 -0.84790704943E+01  0.16910464393E+02  0.29305332632E+02  0.00000000000E+00 0. -1.
</event>
<event>
 5    1  0.6690694E-004  0.9118800E+02  0.7818608E-02  0.1130116E+00
         25   -1    0    0    0    0  0.00000000000E+00  0.00000000000E+00  0.99999998245E-14  0.12500000000E+03  0.12500000000E+03 0.  0.
        -11    1    3    3    0    0  0.37994680961E+02 -0.15282106741E+01 -0.15009343461E+02  0.40880454995E+02  0.51100000000E-03 0.  1.
         23    2    1    0    0    0 -0.12699262542E+02  0.14755123932E+02  0.13530772882E+02  0.10129205268E+03  0.98478490900E+02 0.  0.
         11    1    3    3    0    0 -0.50693943503E+02  0.16283334606E+02  0.28540116342E+02  0.60411597685E+02  0.51100000000E-03 0. -1.
         22    1    1    0    0    0  0.12699262542E+02 -0.14755123932E+02 -0.13530772882E+02  0.23707947320E+02  0.00000000000E+00 0. -1.
</event>
<event>
 5    1  0.6690694E-004  0.9118800E+02  0.7818608E-02  0.1130116E+00
         25   -1    0    0    0    0  0.00000000000E+00  0.00000000000E+00  0.99999998245E-14  0.12500000000E+03  0.12500000000E+03 0.  0.
        -11    1    3    3    0    0 -0.13756179529E+02  0.30090936739E+02  0.26025429673E+02  0.42095367191E+02  0.51100000000E-03 0. -1.
         23    2    1    0    0    0  0.25311042869E+02 -0.49094603097E+01  0.12923737704E+02  0.96159495707E+02  0.91732621933E+02 0.  0.
         11    1    3    3    0    0  0.39067222398E+02 -0.35000397048E+02 -0.13101691969E+02  0.54064128516E+02  0.51100000000E-03 0.  1.
         22    1    1    0    0    0 -0.25311042869E+02  0.49094603097E+01 -0.12923737704E+02  0.28840504293E+02  0.00000000000E+00 0.  1.
</event>
<event>
 5    1  0.6690694E-004  0.9118800E+02  0.7818608E-02  0.1130116E+00
         25   -1    0    0    0    0  0.00000000000E+00  0.00000000000E+00  0.99999998245E-14  0.12500000000E+03  0.12500000000E+03 0.  0.
        -11    1    3    3    0    0  0.17399949763E+02  0.30190461138E+02  0.12847180163E+02  0.37138554548E+02  0.51100000000E-03 0.  1.
         23    2    1    0    0    0 -0.14106741339E+02 -0.14306618737E+02  0.24928004336E+02  0.92983053065E+02  0.87296983145E+02 0.  0.
         11    1    3    3    0    0 -0.31506691102E+02 -0.44497079876E+02  0.12080824173E+02  0.55844498517E+02  0.51100000000E-03 0. -1.
         22    1    1    0    0    0  0.14106741339E+02  0.14306618737E+02 -0.24928004336E+02  0.32016946935E+02  0.00000000000E+00 0. -1.
</event>
<event>
 5    1  0.6690694E-004  0.9118800E+02  0.7818608E-02  0.1130116E+00
         25   -1    0    0    0    0  0.00000000000E+00  0.00000000000E+00  0.99999998245E-14  0.12500000000E+03  0.12500000000E+03 0.  0.
        -11    1    3    3    0    0 -0.89920975547E+01 -0.40576485309E+02 -0.84345680831E+01  0.42408146829E+02  0.51100000000E-03 0.  1.
         23    2    1    0    0    0  0.19475070018E+02 -0.58768870385E+01  0.20747566197E+02  0.95943543634E+02  0.91437880052E+02 0.  0.
         11    1    3    3    0    0  0.28467167572E+02  0.34699598270E+02  0.29182134280E+02  0.53535396805E+02  0.51100000000E-03 0. -1.
         22    1    1    0    0    0 -0.19475070018E+02  0.58768870385E+01 -0.20747566197E+02  0.29056456366E+02  0.00000000000E+00 0.  1.
</event>
<event>
 5    1  0.6690694E-004  0.9118800E+02  0.7818608E-02  0.1130116E+00
         25   -1    0    0    0    0  0.00000000000E+00  0.00000000000E+00  0.99999998245E-14  0.12500000000E+03  0.12500000000E+03 0.  0.
        -11    1    3    3    0    0 -0.12887584664E+02  0.86441791992E+01 -0.34878032594E+02  0.38174452588E+02  0.51100000000E-03 0. -1.
         23    2    1    0    0    0  0.56603467734E+01  0.23007214132E+02  0.17485837626E+02  0.95552997687E+02  0.90902417030E+02 0.  0.
         11    1    3    3    0    0  0.18547931437E+02  0.14363034933E+02  0.52363870220E+02  0.57378545099E+02  0.51100000000E-03 0.  1.
         22    1    1    0    0    0 -0.56603467734E+01 -0.23007214132E+02 -0.17485837626E+02  0.29447002313E+02  0.00000000000E+00 0.  1.
</event>
<event>
 5    1  0.6690694E-004  0.9118800E+02  0.7818608E-02  0.1130116E+00
         25   -1    0    0    0    0  0.00000000000E+00  0.00000000000E+00  0.99999998245E-14  0.12500000000E+03  0.12500000000E+03 0.  0.
        -11    1    3    3    0    0 -0.90250813396E+01 -0.31134155588E+02  0.26056653915E+02  0.41590106406E+02  0.51100000000E-03 0. -1.
         23    2    1    0    0    0  0.27436461258E+02 -0.18358145687E+02 -0.55729356966E+01  0.91521073319E+02  0.85177862909E+02 0.  0.
         11    1    3    3    0    0  0.36461542597E+02  0.12776009901E+02 -0.31629589612E+02  0.49930966913E+02  0.51100000000E-03 0.  1.
         22    1    1    0    0    0 -0.27436461258E+02  0.18358145687E+02  0.55729356966E+01  0.33478926681E+02  0.00000000000E+00 0.  1.
</event>
<event>
 5    1  0.6690694E-004  0.9118800E+02  0.7818608E-02  0.1130116E+00
         25   -1    0    0    0    0  0.00000000000E+00  0.00000000000E+00  0.99999998245E-14  0.12500000000E+03  0.12500000000E+03 0.  0.
        -11    1    3    3    0    0  0.15929733780E+02  0.43148058422E+02 -0.36064254057E+02  0.58447769717E+02  0.51100000000E-03 0.  1.
         23    2    1    0    0    0 -0.45834111621E+01  0.27639244210E+02 -0.95097908901E+01  0.95413320546E+02  0.90710143514E+02 0.  0.
         11    1    3    3    0    0 -0.20513144942E+02 -0.15508814212E+02  0.26554463167E+02  0.36965550829E+02  0.51100000000E-03 0. -1.
         22    1    1    0    0    0  0.45834111621E+01 -0.27639244210E+02  0.95097908901E+01  0.29586679454E+02  0.00000000000E+00 0.  1.
</event>
<event>
 5    1  0.6690694E-004  0.9118800E+02  0.7818608E-02  0.1130116E+00
         25   -1    0    0    0    0  0.00000000000E+00  0.00000000000E+00  0.99999998245E-14  0.12500000000E+03  0.12500000000E+03 0.  0.
        -11    1    3    3    0    0 -0.62016200253E+00 -0.35694293364E+02 -0.12869462885E+02  0.37948521116E+02  0.51100000000E-03 0. -1.
         23    2    1    0    0    0  0.20333457067E+02  0.11814471108E+02  0.15224068037E+02  0.96985656326E+02  0.92851570162E+02 0.  0.
         11    1    3    3    0    0  0.20953619070E+02  0.47508764473E+02  0.28093530923E+02  0.59037135210E+02  0.51100000000E-03 0.  1.
         22    1    1    0    0    0 -0.20333457067E+02 -0.11814471108E+02 -0.15224068037E+02  0.28014343674E+02  0.00000000000E+00 0.  1.
</event>
<event>
 5    1  0.6690694E-004  0.9118800E+02  0.7818608E-02  0.1130116E+00
         25   -1    0    0    0    0  0.00000000000E+00  0.00000000000E+00  0.99999998245E-14  0.12500000000E+03  0.12500000000E+03 0.  0.
        -11    1    3    3    0    0 -0.21963584681E+02  0.49628208105E+02  0.21311342653E+02  0.58305500750E+02  0.51100000000E-03 0.  1.
         23    2    1    0    0    0  0.39522846498E+01  0.22872885060E+02  0.17856841325E+02  0.95714232006E+02  0.91123860769E+02 0.  0.
         11    1    3    3    0    0  0.25915869331E+02 -0.26755323046E+02 -0.34545013280E+01  0.37408731256E+02  0.51100000000E-03 0. -1.
         22    1    1    0    0    0 -0.39522846498E+01 -0.22872885060E+02 -0.17856841325E+02  0.29285767994E+02  0.00000000000E+00 0.  1.
</event>
<event>
 5    1  0.6690694E-004  0.9118800E+02  0.7818608E-02  0.1130116E+00
         25   -1    0    0    0    0  0.00000000000E+00  0.00000000000E+00  0.99999998245E-14  0.12500000000E+03  0.12500000000E+03 0.  0.
        -11    1    3    3    0    0 -0.32025860268E+02 -0.11702926607E+02 -0.51418261536E+02  0.61696449142E+02  0.51100000000E-03 0.  1.
         23    2    1    0    0    0 -0.20629222589E+02 -0.24001799416E+01 -0.21109509212E+02  0.95386876768E+02  0.90673696253E+02 0.  0.
         11    1    3    3    0    0  0.11396637679E+02  0.93027466657E+01  0.30308752325E+02  0.33690427626E+02  0.51100000000E-03 0. -1.
         22    1    1    0    0    0  0.20629222589E+02  0.24001799416E+01  0.21109509212E+02  0.29613123232E+02  0.00000000000E+00 0.  1.
</event>
<event>
 5    1  0.6690694E-004  0.9118800E+02  0.7818608E-02  0.1130116E+00
         25   -1    0    0    0    0  0.00000000000E+00  0.00000000000E+00  0.99999998245E-14  0.12500000000E+03  0.12500000000E+03 0.  0.
        -11    1    3    3    0    0 -0.35308008472E+02 -0.43748830862E+02 -0.99846257261E+01  0.57099110459E+02  0.51100000000E-03 0. -1.
         23    2    1    0    0    0 -0.16341193627E+02 -0.19455509339E+02  0.13851853296E+02  0.96061698520E+02  0.91599261078E+02 0.  0.
         11    1    3    3    0    0  0.18966814845E+02  0.24293321524E+02  0.23836479022E+02  0.38962588061E+02  0.51100000000E-03 0.  1.
         22    1    1    0    0    0  0.16341193627E+02  0.19455509339E+02 -0.13851853296E+02  0.28938301480E+02  0.00000000000E+00 0. -1.
</event>
<event>
 5    1  0.6690694E-004  0.9118800E+02  0.7818608E-02  0.1130116E+00
         25   -1    0    0    0    0  0.00000000000E+00  0.00000000000E+00  0.99999998245E-14  0.12500000000E+03  0.12500000000E+03 0.  0.
        -11    1    3    3    0    0  0.55664928172E+01 -0.15489689662E+02  0.31503280863E+02  0.35543959170E+02  0.51100000000E-03 0. -1.
         23    2    1    0    0    0 -0.24710957699E+00 -0.57734097836E+01 -0.28150346467E+02  0.96262649219E+02  0.91873077149E+02 0.  0.
         11    1    3    3    0    0 -0.58136023942E+01  0.97162798785E+01 -0.59653627330E+02  0.60718690049E+02  0.51100000000E-03 0.  1.
         22    1    1    0    0    0  0.24710957699E+00  0.57734097836E+01  0.28150346467E+02  0.28737350781E+02  0.00000000000E+00 0.  1.
</event>
<event>
 5    1  0.6690694E-004  0.9118800E+02  0.7818608E-02  0.1130116E+00
         25   -1    0    0    0    0  0.00000000000E+00  0.00000000000E+00  0.99999998245E-14  0.12500000000E+03  0.12500000000E+03 0.  0.
        -11    1    3    3    0    0  0.12771409100E+02 -0.34166728683E+02 -0.41639678062E+02  0.55356454264E+02  0.51100000000E-03 0. -1.
         23    2    1    0    0    0 -0.11608268062E+01 -0.32960908831E+02 -0.90809741492E+01  0.90791329734E+02  0.84100133374E+02 0.  0.
         11    1    3    3    0    0 -0.13932235907E+02  0.12058198512E+01  0.32558703913E+02  0.35434875470E+02  0.51100000000E-03 0.  1.
         22    1    1    0    0    0  0.11608268062E+01  0.32960908831E+02  0.90809741492E+01  0.34208670266E+02  0.00000000000E+00 0. -1.
</event>
<event>
 5    1  0.6690694E-004  0.9118800E+02  0.7818608E-02  0.1130116E+00
         25   -1    0    0    0    0  0.00000000000E+00  0.00000000000E+00  0.99999998245E-14  0.12500000000E+03  0.12500000000E+03 0.  0.
        -11    1    3    3    0    0 -0.38426620558E+02  0.10439557857E+02 -0.31355682533E+02  0.50683018489E+02  0.51100000000E-03 0.  1.
         23    2    1    0    0    0  0.42513611262E+01  0.18485073580E+02 -0.23471318194E+02  0.94822611206E+02  0.89892451305E+02 0.  0.
         11    1    3    3    0    0  0.42677981685E+02  0.80455157222E+01  0.78843643398E+01  0.44139592717E+02  0.51100000000E-03 0. -1.
         22    1    1    0    0    0 -0.42513611262E+01 -0.18485073580E+02  0.23471318194E+02  0.30177388794E+02  0.00000000000E+00 0.  1.
</event>
<event>
 5    1  0.6690694E-004  0.9118800E+02  0.7818608E-02  0.1130116E+00
         25   -1    0    0    0    0  0.00000000000E+00  0.00000000000E+00  0.99999998245E-14  0.12500000000E+03  0.12500000000E+03 0.  0.
        -11    1    3    3    0    0 -0.10504159411E+02 -0.42600039873E+02  0.19035564620E+02  0.47827329873E+02  0.51100000000E-03 0.  1.
         23    2    1    0    0    0 -0.25571052486E+02  0.83362837341E+00  0.17828994720E+02  0.93815922104E+02  0.88481526467E+02 0.  0.
         11    1    3    3    0    0 -0.15066893074E+02  0.43433668246E+02 -0.12065698998E+01  0.45988592231E+02  0.51100000000E-03 0. -1.
         22    1    1    0    0    0  0.25571052486E+02 -0.83362837341E+00 -0.17828994720E+02  0.31184077896E+02  0.00000000000E+00 0.  1.
</event>
<event>
 5    1  0.6690694E-004  0.9118800E+02  0.7818608E-02  0.1130116E+00
         25   -1    0    0    0    0  0.00000000000E+00  0.00000000000E+00  0.99999998245E-14  0.12500000000E+03  0.12500000000E+03 0.  0.
        -11    1    3    3    0    0  0.70810620736E+01 -0.14471180463E+02  0.44980284585E+02  0.47778473245E+02  0.51100000000E-03 0.  1.
         23    2    1    0    0    0 -0.17804273833E+02  0.15598949073E+02  0.18707352074E+02  0.94829080218E+02  0.89901446342E+02 0.  0.
         11    1    3    3    0    0 -0.24885335906E+02  0.30070129536E+02 -0.26272932511E+02  0.47050606972E+02  0.51100000000E-03 0. -1.
         22    1    1    0    0    0  0.17804273833E+02 -0.15598949073E+02 -0.18707352074E+02  0.30170919782E+02  0.00000000000E+00 0.  1.
</event>
<event>
 5    1  0.6690694E-004  0.9118800E+02  0.7818608E-02  0.1130116E+00
         25   -1    0    0    0    0  0.00000000000E+00  0.00000000000E+00  0.99999998245E-14  0.12500000000E+03  0.12500000000E+03 0.  0.
        -11    1    3    3    0    0 -0.30504821053E+02 -0.75205131557E+01  0.17986764096E+02  0.36202567706E+02  0.51100000000E-03 0.  1.
         23    2    1    0    0    0  0.10167176724E+02 -0.13624320307E+02 -0.24399455618E+02  0.95262363564E+02  0.90501883356E+02 0.  0.
         11    1    3    3    0    0  0.40671997777E+02 -0.61038071509E+01 -0.42386219714E+02  0.59059795858E+02  0.51100000000E-03 0. -1.
         22    1    1    0    0    0 -0.10167176724E+02  0.13624320307E+02  0.24399455618E+02  0.29737636436E+02  0.00000000000E+00 0. -1.
</event>
<event>
 5    1  0.6690694E-004  0.9118800E+02  0.7818608E-02  0.1130116E+00
         25   -1    0    0    0    0  0.00000000000E+00  0.00000000000E+00  0.99999998245E-14  0.12500000000E+03  0.12500000000E+03 0.  0.
        -11    1    3    3    0    0 -0.32248336235E+02 -0.95633023700E+01 -0.10424908528E+02  0.35214920988E+02  0.51100000000E-03 0.  1.
         23    2    1    0    0    0  0.23482610131E+02  0.14537686589E+02  0.24134116403E+01  0.97276330227E+02  0.93242064310E+02 0.  0.
         11    1    3    3    0    0  0.55730946366E+02  0.24100988959E+02  0.12838320168E+02  0.62061409239E+02  0.51100000000E-03 0. -1.
         22    1    1    0    0    0 -0.23482610131E+02 -0.14537686589E+02 -0.24134116403E+01  0.27723669773E+02  0.00000000000E+00 0. -1.
</event>
<event>
 5    1  0.6690694E-004  0.9118800E+02  0.7818608E-02  0.1130116E+00
         25   -1    0    0    0    0  0.00000000000E+00  0.00000000000E+00  0.99999998245E-14  0.12500000000E+03  0.12500000000E+03 0.  0.
        -11    1    3    3    0    0 -0.42873172547E+02  0.30339076319E+01  0.16037431619E+02  0.45874968479E+02  0.51100000000E-03 0. -1.
         23    2    1    0    0    0  0.76917219872E+00 -0.15051610486E+02  0.26732465496E+02  0.94311772361E+02  0.89179275004E+02 0.  0.
         11    1    3    3    0    0  0.43642344745E+02 -0.18085518118E+02  0.10695033878E+02  0.48436803883E+02  0.51100000000E-03 0.  1.
         22    1    1    0    0    0 -0.76917219872E+00  0.15051610486E+02 -0.26732465496E+02  0.30688227639E+02  0.00000000000E+00 0.  1.
</event>
<event>
 5    1  0.6690694E-004  0.9118800E+02  0.7818608E-02  0.1130116E+00
         25   -1    0    0    0    0  0.00000000000E+00  0.00000000000E+00  0.99999998245E-14  0.12500000000E+03  0.12500000000E+03 0.  0.
        -11    1    3    3    0    0  0.19392661612E+02 -0.32101002660E+02  0.20276303716E+02  0.42634237284E+02  0.51100000000E-03 0. -1.
         23    2    1    0    0    0 -0.63293112577E+00 -0.92301987303E+01 -0.25662729630E+02  0.97720468067E+02  0.93835585024E+02 0.  0.
         11    1    3    3    0    0 -0.20025592738E+02  0.22870803930E+02 -0.45939033346E+02  0.55086230783E+02  0.51100000000E-03 0.  1.
         22    1    1    0    0    0  0.63293112577E+00  0.92301987303E+01  0.25662729630E+02  0.27279531933E+02  0.00000000000E+00 0.  1.
</event>
<event>
 5    1  0.6690694E-004  0.9118800E+02  0.7818608E-02  0.1130116E+00
         25   -1    0    0    0    0  0.00000000000E+00  0.00000000000E+00  0.99999998245E-14  0.12500000000E+03  0.12500000000E+03 0.  0.
        -11    1    3    3    0    0  0.86879245049E+01  0.49177457671E+02  0.36387761957E+02  0.61789736977E+02  0.51100000000E-03 0.  1.
         23    2    1    0    0    0 -0.21715198944E+01  0.22037377654E+02  0.19138134312E+02  0.95731762994E+02  0.91147905892E+02 0.  0.
         11    1    3    3    0    0 -0.10859444399E+02 -0.27140080017E+02 -0.17249627645E+02  0.33942026017E+02  0.51100000000E-03 0. -1.
         22    1    1    0    0    0  0.21715198944E+01 -0.22037377654E+02 -0.19138134312E+02  0.29268237006E+02  0.00000000000E+00 0.  1.
</event>
<event>
 5    1  0.6690694E-004  0.9118800E+02  0.7818608E-02  0.1130116E+00
         25   -1    0    0    0    0  0.00000000000E+00  0.00000000000E+00  0.99999998245E-14  0.12500000000E+03  0.12500000000E+03 0.  0.
        -11    1    3    3    0    0 -0.14985086316E+02 -0.50435985465E+02  0.35196260072E+01  0.52732619973E+02  0.51100000000E-03 0.  1.
         23    2    1    0    0    0  0.17805108968E+02 -0.23829233581E+02  0.41573189909E+01  0.94964394802E+02  0.90089392830E+02 0.  0.
         11    1    3    3    0    0  0.32790195284E+02  0.26606751884E+02  0.63769298364E+00  0.42231774829E+02  0.51100000000E-03 0. -1.
         22    1    1    0    0    0 -0.17805108968E+02  0.23829233581E+02 -0.41573189909E+01  0.30035605198E+02  0.00000000000E+00 0.  1.
</event>
<event>
 5    1  0.6690694E-004  0.9118800E+02  0.7818608E-02  0.1130116E+00
         25   -1    0    0    0    0  0.00000000000E+00  0.00000000000E+00  0.99999998245E-14  0.12500000000E+03  0.12500000000E+03 0.  0.
        -11    1    3    3    0    0 -0.18073184572E+02 -0.27849449799E+02 -0.28510851663E+02  0.43761861449E+02  0.51100000000E-03 0. -1.
         23    2    1    0    0    0  0.24170353865E+02 -0.31954830187E-01 -0.16459055589E+02  0.95757778163E+02  0.91183576047E+02 0.  0.
         11    1    3    3    0    0  0.42243538438E+02  0.27817494969E+02  0.12051796073E+02  0.51995916714E+02  0.51100000000E-03 0.  1.
         22    1    1    0    0    0 -0.24170353865E+02  0.31954830187E-01  0.16459055589E+02  0.29242221837E+02  0.00000000000E+00 0. -1.
</event>
<event>
 5    1  0.6690694E-004  0.9118800E+02  0.7818608E-02  0.1130116E+00
         25   -1    0    0    0    0  0.00000000000E+00  0.00000000000E+00  0.99999998245E-14  0.12500000000E+03  0.12500000000E+03 0.  0.
        -11    1    3    3    0    0  0.35170362802E+01  0.33371411222E+02  0.20981462841E+02  0.39575780654E+02  0.51100000000E-03 0. -1.
         23    2    1    0    0    0 -0.30398325681E+02 -0.57523612569E+01  0.98019587451E+01  0.92546552425E+02  0.86669706970E+02 0.  0.
         11    1    3    3    0    0 -0.33915361962E+02 -0.39123772479E+02 -0.11179504095E+02  0.52970771771E+02  0.51100000000E-03 0.  1.
         22    1    1    0    0    0  0.30398325681E+02  0.57523612569E+01 -0.98019587451E+01  0.32453447575E+02  0.00000000000E+00 0. -1.
</event>
<event>
 5    1  0.6690694E-004  0.9118800E+02  0.7818608E-02  0.1130116E+00
         25   -1    0    0    0    0  0.00000000000E+00  0.00000000000E+00  0.99999998245E-14  0.12500000000E+03  0.12500000000E+03 0.  0.
        -11    1    3    3    0    0  0.28820693742E+02  0.47869670256E+02  0.17122621694E+02  0.58440755404E+02  0.51100000000E-03 0. -1.
         23    2    1    0    0    0  0.24840972088E+02  0.15277417861E+02 -0.75646218985E+00  0.95827313702E+02  0.91278849826E+02 0.  0.
         11    1    3    3    0    0 -0.39797216543E+01 -0.32592252395E+02 -0.17879083884E+02  0.37386558299E+02  0.51100000000E-03 0.  1.
         22    1    1    0    0    0 -0.24840972088E+02 -0.15277417861E+02  0.75646218985E+00  0.29172686298E+02  0.00000000000E+00 0. -1.
</event>
<event>
 5    1  0.6690694E-004  0.9118800E+02  0.7818608E-02  0.1130116E+00
         25   -1    0    0    0    0  0.00000000000E+00  0.00000000000E+00  0.99999998245E-14  0.12500000000E+03  0.12500000000E+03 0.  0.
        -11    1    3    3    0    0 -0.31047892136E+02 -0.27276030467E+02  0.20383944658E+02  0.46081000903E+02  0.51100000000E-03 0.  1.
         23    2    1    0    0    0 -0.18710464874E+02 -0.13474978472E+02 -0.22496054531E+02  0.92786198454E+02  0.87014651717E+02 0.  0.
         11    1    3    3    0    0  0.12337427262E+02  0.13801051994E+02 -0.42879999189E+02  0.46705197551E+02  0.51100000000E-03 0. -1.
         22    1    1    0    0    0  0.18710464874E+02  0.13474978472E+02  0.22496054531E+02  0.32213801546E+02  0.00000000000E+00 0. -1.
</event>
<event>
 5    1  0.6690694E-004  0.9118800E+02  0.7818608E-02  0.1130116E+00
         25   -1    0    0    0    0  0.00000000000E+00  0.00000000000E+00  0.99999998245E-14  0.12500000000E+03  0.12500000000E+03 0.  0.
        -11    1    3    3    0    0  0.21594550318E+02  0.73727555670E+01  0.30900905288E+02  0.38412863417E+02  0.51100000000E-03 0. -1.
         23    2    1    0    0    0 -0.15460062601E+02  0.25290345158E+02 -0.71963613899E+01  0.94497496642E+02  0.89439220482E+02 0.  0.
         11    1    3    3    0    0 -0.37054612919E+02  0.17917589591E+02 -0.38097266677E+02  0.56084633224E+02  0.51100000000E-03 0.  1.
         22    1    1    0    0    0  0.15460062601E+02 -0.25290345158E+02  0.71963613899E+01  0.30502503358E+02  0.00000000000E+00 0.  1.
</event>
<event>
 5    1  0.6690694E-004  0.9118800E+02  0.7818608E-02  0.1130116E+00
         25   -1    0    0    0    0  0.00000000000E+00  0.00000000000E+00  0.99999998245E-14  0.12500000000E+03  0.12500000000E+03 0.  0.
        -11    1    3    3    0    0 -0.98026444799E+01  0.29613860822E+01 -0.57465221435E+02  0.58370483304E+02  0.51100000000E-03 0. -1.
         23    2    1    0    0    0  0.10901201171E+02 -0.32271777986E+01 -0.26836534616E+02  0.95854666691E+02  0.91316300148E+02 0.  0.
         11    1    3    3    0    0  0.20703845651E+02 -0.61885638809E+01  0.30628686819E+02  0.37484183387E+02  0.51100000000E-03 0.  1.
         22    1    1    0    0    0 -0.10901201171E+02  0.32271777986E+01  0.26836534616E+02  0.29145333309E+02  0.00000000000E+00 0. -1.
</event>
<event>
 5    1  0.6690694E-004  0.9118800E+02  0.7818608E-02  0.1130116E+00
         25   -1    0    0    0    0  0.00000000000E+00  0.00000000000E+00  0.99999998245E-14  0.12500000000E+03  0.12500000000E+03 0.  0.
        -11    1    3    3    0    0 -0.37772284318E+02 -0.24128761242E+02 -0.40587228507E+02  0.60467062933E+02  0.51100000000E-03 0.  1.
         23    2    1    0    0    0 -0.16611580585E+02 -0.21226075842E+02 -0.13824751031E+02  0.94707845137E+02  0.89732721368E+02 0.  0.
         11    1    3    3    0    0  0.21160703733E+02  0.29026853999E+01  0.26762477476E+02  0.34240782203E+02  0.51100000000E-03 0. -1.
         22    1    1    0    0    0  0.16611580585E+02  0.21226075842E+02  0.13824751031E+02  0.30292154863E+02  0.00000000000E+00 0.  1.
</event>
<event>
 5    1  0.6690694E-004  0.9118800E+02  0.7818608E-02  0.1130116E+00
         25   -1    0    0    0    0  0.00000000000E+00  0.00000000000E+00  0.99999998245E-14  0.12500000000E+03  0.12500000000E+03 0.  0.
        -11    1    3    3    0    0  0.55758473489E+02 -0.39915591386E+01 -0.13803269361E+02  0.57580119446E+02  0.51100000000E-03 0.  1.
         23    2    1    0    0    0  0.27824480095E+02  0.15574500133E+02 -0.65994322589E+01  0.92437456287E+02  0.86512219204E+02 0.  0.
         11    1    3    3    0    0 -0.27933993394E+02  0.19566059271E+02  0.72038371026E+01  0.34857336840E+02  0.51100000000E-03 0. -1.
         22    1    1    0    0    0 -0.27824480095E+02 -0.15574500133E+02  0.65994322589E+01  0.32562543713E+02  0.00000000000E+00 0.  1.
</event>
<event>
 5    1  0.6690694E-004  0.9118800E+02  0.7818608E-02  0.1130116E+00
         25   -1    0    0    0    0  0.00000000000E+00  0.00000000000E+00  0.99999998245E-14  0.12500000000E+03  0.12500000000E+03 0.  0.
        -11    1    3    3    0    0 -0.49665520536E+02 -0.32166681560E+02 -0.18053538283E+02  0.61865091752E+02  0.51100000000E-03 0.  1.
         23    2    1    0    0    0 -0.30105276585E+02 -0.13966909427E+02 -0.14368483940E+02  0.88835714193E+02  0.81141410810E+02 0.  0.
         11    1    3    3    0    0  0.19560243951E+02  0.18199772133E+02  0.36850543428E+01  0.26970622442E+02  0.51100000000E-03 0. -1.
         22    1    1    0    0    0  0.30105276585E+02  0.13966909427E+02  0.14368483940E+02  0.36164285807E+02  0.00000000000E+00 0.  1.
</event>
<event>
 5    1  0.6690694E-004  0.9118800E+02  0.7818608E-02  0.1130116E+00
         25   -1    0    0    0    0  0.00000000000E+00  0.00000000000E+00  0.99999998245E-14  0.12500000000E+03  0.12500000000E+03 0.  0.
        -11    1    3    3    0    0  0.10488457843E+02  0.10844074746E+02 -0.58420810945E+02  0.60337325569E+02  0.51100000000E-03 0. -1.
         23    2    1    0    0    0 -0.65671834219E+01  0.32612979567E+01 -0.28240220606E+02  0.95823399405E+02  0.91273489312E+02 0.  0.
         11    1    3    3    0    0 -0.17055641265E+02 -0.75827767892E+01  0.30180590340E+02  0.35486073836E+02  0.51100000000E-03 0.  1.
         22    1    1    0    0    0  0.65671834219E+01 -0.32612979567E+01  0.28240220606E+02  0.29176600595E+02  0.00000000000E+00 0. -1.
</event>
<event>
 5    1  0.6690694E-004  0.9118800E+02  0.7818608E-02  0.1130116E+00
         25   -1    0    0    0    0  0.00000000000E+00  0.00000000000E+00  0.99999998245E-14  0.12500000000E+03  0.12500000000E+03 0.  0.
        -11    1    3    3    0    0 -0.22157067625E+02 -0.93097965880E+01  0.36063798441E+02  0.43338268499E+02  0.51100000000E-03 0. -1.
         23    2    1    0    0    0  0.30778217887E-01 -0.28992229198E+02 -0.65685288674E+01  0.95272977400E+02  0.90516541859E+02 0.  0.
         11    1    3    3    0    0  0.22187845843E+02 -0.19682432610E+02 -0.42632327309E+02  0.51934708901E+02  0.51100000000E-03 0.  1.
         22    1    1    0    0    0 -0.30778217887E-01  0.28992229198E+02  0.65685288674E+01  0.29727022600E+02  0.00000000000E+00 0.  1.
</event>
<event>
 5    1  0.6690694E-004  0.9118800E+02  0.7818608E-02  0.1130116E+00
         25   -1    0    0    0    0  0.00000000000E+00  0.00000000000E+00  0.99999998245E-14  0.12500000000E+03  0.12500000000E+03 0.  0.
        -11    1    3    3    0    0 -0.16591339218E+02 -0.46098912052E+01 -0.32898536674E+02  0.37132699195E+02  0.51100000000E-03 0.  1.
         23    2    1    0    0    0 -0.99222158967E+01 -0.50676065156E+01  0.26158912891E+02  0.96567277166E+02  0.92286614910E+02 0.  0.
         11    1    3    3    0    0  0.66691233215E+01 -0.45771531043E+00  0.59057449565E+02  0.59434577971E+02  0.51100000000E-03 0. -1.
         22    1    1    0    0    0  0.99222158967E+01  0.50676065156E+01 -0.26158912891E+02  0.28432722834E+02  0.00000000000E+00 0. -1.
</event>
<event>
 5    1  0.6690694E-004  0.9118800E+02  0.7818608E-02  0.1130116E+00
         25   -1    0    0    0    0  0.00000000000E+00  0.00000000000E+00  0.99999998245E-14  0.12500000000E+03  0.12500000000E+03 0.  0.
        -11    1    3    3    0    0 -0.79176891659E+01  0.11080022909E+02 -0.41102230502E+02  0.43299538818E+02  0.51100000000E-03 0. -1.
         23    2    1    0    0    0  0.17639698127E+02  0.24017754850E+02  0.20897937086E+01  0.95127291120E+02  0.90315130405E+02 0.  0.
         11    1    3    3    0    0  0.25557387293E+02  0.12937731941E+02  0.43192024210E+02  0.51827752302E+02  0.51100000000E-03 0.  1.
         22    1    1    0    0    0 -0.17639698127E+02 -0.24017754850E+02 -0.20897937086E+01  0.29872708880E+02  0.00000000000E+00 0. -1.
</event>
<event>
 5    1  0.6690694E-004  0.9118800E+02  0.7818608E-02  0.1130116E+00
         25   -1    0    0    0    0  0.00000000000E+00  0.00000000000E+00  0.99999998245E-14  0.12500000000E+03  0.12500000000E+03 0.  0.
        -11    1    3    3    0    0  0.22614029541E+02  0.20348970554E+02 -0.18314617505E+02  0.35509155852E+02  0.51100000000E-03 0.  1.
         23    2    1    0    0    0 -0.58370741981E+01 -0.82794051837E+01  0.26982004285E+02  0.96179026029E+02  0.91759231182E+02 0.  0.
         11    1    3    3    0    0 -0.28451103739E+02 -0.28628375738E+02  0.45296621791E+02  0.60669870177E+02  0.51100000000E-03 0. -1.
         22    1    1    0    0    0  0.58370741981E+01  0.82794051837E+01 -0.26982004285E+02  0.28820973971E+02  0.00000000000E+00 0. -1.
</event>
<event>
 5    1  0.6690694E-004  0.9118800E+02  0.7818608E-02  0.1130116E+00
         25   -1    0    0    0    0  0.00000000000E+00  0.00000000000E+00  0.99999998245E-14  0.12500000000E+03  0.12500000000E+03 0.  0.
        -11    1    3    3    0    0 -0.18704938678E+02  0.32965409815E+01  0.14851740828E+01  0.19051185152E+02  0.51100000000E-03 0. -1.
         23    2    1    0    0    0  0.33986506779E+02  0.19971568652E+02 -0.22847186230E+02  0.79437514158E+02  0.65072102621E+02 0.  0.
         11    1    3    3    0    0  0.52691445456E+02  0.16675027671E+02 -0.24332360313E+02  0.60386329006E+02  0.51100000000E-03 0.  1.
         22    1    1    0    0    0 -0.33986506779E+02 -0.19971568652E+02  0.22847186230E+02  0.45562485842E+02  0.00000000000E+00 0.  1.
</event>
<event>
 5    1  0.6690694E-004  0.9118800E+02  0.7818608E-02  0.1130116E+00
         25   -1    0    0    0    0  0.00000000000E+00  0.00000000000E+00  0.99999998245E-14  0.12500000000E+03  0.12500000000E+03 0.  0.
        -11    1    3    3    0    0  0.30899526576E+02  0.32093732957E+01  0.23043501652E+02  0.38679242343E+02  0.51100000000E-03 0. -1.
         23    2    1    0    0    0  0.70409328985E+01 -0.67790206672E+01 -0.27695466703E+02  0.95630479521E+02  0.91008900006E+02 0.  0.
         11    1    3    3    0    0 -0.23858593677E+02 -0.99883939628E+01 -0.50738968354E+02  0.56951237178E+02  0.51100000000E-03 0.  1.
         22    1    1    0    0    0 -0.70409328985E+01  0.67790206672E+01  0.27695466703E+02  0.29369520479E+02  0.00000000000E+00 0.  1.
</event>
<event>
 5    1  0.6690694E-004  0.9118800E+02  0.7818608E-02  0.1130116E+00
         25   -1    0    0    0    0  0.00000000000E+00  0.00000000000E+00  0.99999998245E-14  0.12500000000E+03  0.12500000000E+03 0.  0.
        -11    1    3    3    0    0  0.24823829742E+02 -0.35777320124E+02  0.80853985670E+01  0.44290098539E+02  0.51100000000E-03 0.  1.
         23    2    1    0    0    0  0.21942950248E+02  0.90745816128E+01 -0.17033081187E+02  0.95777287057E+02  0.91210316106E+02 0.  0.
         11    1    3    3    0    0 -0.28808794942E+01  0.44851901737E+02 -0.25118479754E+02  0.51487188518E+02  0.51100000000E-03 0. -1.
         22    1    1    0    0    0 -0.21942950248E+02 -0.90745816128E+01  0.17033081187E+02  0.29222712943E+02  0.00000000000E+00 0.  1.
</event>
<event>
 5    1  0.6690694E-004  0.9118800E+02  0.7818608E-02  0.1130116E+00
         25   -1    0    0    0    0  0.00000000000E+00  0.00000000000E+00  0.99999998245E-14  0.12500000000E+03  0.12500000000E+03 0.  0.
        -11    1    3    3    0    0  0.35694186458E+02 -0.36346766371E+01 -0.44536754684E+01  0.36154129039E+02  0.51100000000E-03 0.  1.
         23    2    1    0    0    0 -0.23222271444E+02 -0.13079021081E+02 -0.10972124908E+02  0.96177748033E+02  0.91757490202E+02 0.  0.
         11    1    3    3    0    0 -0.58916457902E+02 -0.94443444441E+01 -0.65184494401E+01  0.60023618993E+02  0.51100000000E-03 0. -1.
         22    1    1    0    0    0  0.23222271444E+02  0.13079021081E+02  0.10972124908E+02  0.28822251967E+02  0.00000000000E+00 0. -1.
</event>
<event>
 5    1  0.6690694E-004  0.9118800E+02  0.7818608E-02  0.1130116E+00
         25   -1    0    0    0    0  0.00000000000E+00  0.00000000000E+00  0.99999998245E-14  0.12500000000E+03  0.12500000000E+03 0.  0.
        -11    1    3    3    0    0  0.21596281316E+02 -0.45698126857E+02 -0.51698854377E+01  0.50807931277E+02  0.51100000000E-03 0. -1.
         23    2    1    0    0    0  0.82018692748E+01 -0.16804524732E+02  0.24394906490E+02  0.94262820986E+02  0.89110634868E+02 0.  0.
         11    1    3    3    0    0 -0.13394412041E+02  0.28893602125E+02  0.29564791927E+02  0.43454889710E+02  0.51100000000E-03 0.  1.
         22    1    1    0    0    0 -0.82018692748E+01  0.16804524732E+02 -0.24394906490E+02  0.30737179014E+02  0.00000000000E+00 0. -1.
</event>
<event>
 5    1  0.6690694E-004  0.9118800E+02  0.7818608E-02  0.1130116E+00
         25   -1    0    0    0    0  0.00000000000E+00  0.00000000000E+00  0.99999998245E-14  0.12500000000E+03  0.12500000000E+03 0.  0.
        -11    1    3    3    0    0  0.34810632684E+02 -0.37605660006E+01 -0.43043261135E+02  0.55485532654E+02  0.51100000000E-03 0.  1.
         23    2    1    0    0    0  0.11545829918E+02 -0.21916396085E+02 -0.16021717293E+02  0.95498643576E+02  0.90827643886E+02 0.  0.
         11    1    3    3    0    0 -0.23264802765E+02 -0.18155830084E+02  0.27021543843E+02  0.40013110922E+02  0.51100000000E-03 0. -1.
         22    1    1    0    0    0 -0.11545829918E+02  0.21916396085E+02  0.16021717293E+02  0.29501356424E+02  0.00000000000E+00 0. -1.
</event>
<event>
 5    1  0.6690694E-004  0.9118800E+02  0.7818608E-02  0.1130116E+00
         25   -1    0    0    0    0  0.00000000000E+00  0.00000000000E+00  0.99999998245E-14  0.12500000000E+03  0.12500000000E+03 0.  0.
        -11    1    3    3    0    0 -0.52112908079E+02  0.23839245033E+02  0.82616167975E+01  0.57899215060E+02  0.51100000000E-03 0.  1.
         23    2    1    0    0    0 -0.25638700025E+02  0.13302045071E+02 -0.12874393025E+02  0.93376633041E+02  0.87858740375E+02 0.  0.
         11    1    3    3    0    0  0.26474208054E+02 -0.10537199961E+02 -0.21136009822E+02  0.35477417981E+02  0.51100000000E-03 0. -1.
         22    1    1    0    0    0  0.25638700025E+02 -0.13302045071E+02  0.12874393025E+02  0.31623366959E+02  0.00000000000E+00 0.  1.
</event>
<event>
 5    1  0.6690694E-004  0.9118800E+02  0.7818608E-02  0.1130116E+00
         25   -1    0    0    0    0  0.00000000000E+00  0.00000000000E+00  0.99999998245E-14  0.12500000000E+03  0.12500000000E+03 0.  0.
        -11    1    3    3    0    0 -0.26458673386E+02 -0.43568669589E+02  0.44534037027E+01  0.51167598848E+02  0.51100000000E-03 0.  1.
         23    2    1    0    0    0 -0.30374381338E+02 -0.43161660493E+00  0.23038832335E+01  0.94535312040E+02  0.89492055569E+02 0.  0.
         11    1    3    3    0    0 -0.39157079523E+01  0.43137052984E+02 -0.21495204692E+01  0.43367713191E+02  0.51100000000E-03 0. -1.
         22    1    1    0    0    0  0.30374381338E+02  0.43161660493E+00 -0.23038832335E+01  0.30464687960E+02  0.00000000000E+00 0.  1.
</event>
<event>
 5    1  0.6690694E-004  0.9118800E+02  0.7818608E-02  0.1130116E+00
         25   -1    0    0    0    0  0.00000000000E+00  0.00000000000E+00  0.99999998245E-14  0.12500000000E+03  0.12500000000E+03 0.  0.
        -11    1    3    3    0    0 -0.32897883022E+02 -0.59441239005E+01  0.43236153483E+02  0.54653163536E+02  0.51100000000E-03 0. -1.
         23    2    1    0    0    0 -0.20812352995E+02 -0.18496746060E+02  0.49480672705E+01  0.96719847565E+02  0.92493036988E+02 0.  0.
         11    1    3    3    0    0  0.12085530027E+02 -0.12552622160E+02 -0.38288086212E+02  0.42066684029E+02  0.51100000000E-03 0.  1.
         22    1    1    0    0    0  0.20812352995E+02  0.18496746060E+02 -0.49480672705E+01  0.28280152435E+02  0.00000000000E+00 0. -1.
</event>
<event>
 5    1  0.6690694E-004  0.9118800E+02  0.7818608E-02  0.1130116E+00
         25   -1    0    0    0    0  0.00000000000E+00  0.00000000000E+00  0.99999998245E-14  0.12500000000E+03  0.12500000000E+03 0.  0.
        -11    1    3    3    0    0  0.38862397586E+01 -0.32962765302E+02  0.77877984765E+01  0.34092470740E+02  0.51100000000E-03 0. -1.
         23    2    1    0    0    0  0.10385921355E+02  0.17699762032E+02 -0.23350352766E+02  0.93913219647E+02  0.88618874467E+02 0.  0.
         11    1    3    3    0    0  0.64996815966E+01  0.50662527334E+02 -0.31138151243E+02  0.59820748907E+02  0.51100000000E-03 0.  1.
         22    1    1    0    0    0 -0.10385921355E+02 -0.17699762032E+02  0.23350352766E+02  0.31086780353E+02  0.00000000000E+00 0.  1.
</event>
<event>
 5    1  0.6690694E-004  0.9118800E+02  0.7818608E-02  0.1130116E+00
         25   -1    0    0    0    0  0.00000000000E+00  0.00000000000E+00  0.99999998245E-14  0.12500000000E+03  0.12500000000E+03 0.  0.
        -11    1    3    3    0    0  0.89595511149E+01  0.23250020449E+02 -0.35733339583E+02  0.43562696945E+02  0.51100000000E-03 0.  1.
         23    2    1    0    0    0  0.29464682003E+02 -0.76818018788E+01 -0.78365075516E+00  0.94540327084E+02  0.89499060169E+02 0.  0.
         11    1    3    3    0    0  0.20505130888E+02 -0.30931822327E+02  0.34949688828E+02  0.50977630140E+02  0.51100000000E-03 0. -1.
         22    1    1    0    0    0 -0.29464682003E+02  0.76818018788E+01  0.78365075516E+00  0.30459672916E+02  0.00000000000E+00 0.  1.
</event>
<event>
 5    1  0.6690694E-004  0.9118800E+02  0.7818608E-02  0.1130116E+00
         25   -1    0    0    0    0  0.00000000000E+00  0.00000000000E+00  0.99999998245E-14  0.12500000000E+03  0.12500000000E+03 0.  0.
        -11    1    3    3    0    0  0.32613782621E+02 -0.96435735512E+01  0.22641248541E+02  0.40856865560E+02  0.51100000000E-03 0.  1.
         23    2    1    0    0    0 -0.97839320916E+01  0.24539501635E+02  0.49296607258E+01  0.98125960063E+02  0.94374202067E+02 0.  0.
         11    1    3    3    0    0 -0.42397714712E+02  0.34183075186E+02 -0.17711587815E+02  0.57269094503E+02  0.51100000000E-03 0. -1.
         22    1    1    0    0    0  0.97839320916E+01 -0.24539501635E+02 -0.49296607258E+01  0.26874039937E+02  0.00000000000E+00 0. -1.
</event>
<event>
 5    1  0.6690694E-004  0.9118800E+02  0.7818608E-02  0.1130116E+00
         25   -1    0    0    0    0  0.00000000000E+00  0.00000000000E+00  0.99999998245E-14  0.12500000000E+03  0.12500000000E+03 0.  0.
        -11    1    3    3    0    0 -0.46218230314E+02  0.54616532687E+01  0.67916716262E+00  0.46544771329E+02  0.51100000000E-03 0.  1.
         23    2    1    0    0    0 -0.95187902657E+01 -0.23055292048E+02 -0.15355201430E+02  0.95709454247E+02  0.91117306599E+02 0.  0.
         11    1    3    3    0    0  0.36699440048E+02 -0.28516945317E+02 -0.16034368592E+02  0.49164682918E+02  0.51100000000E-03 0. -1.
         22    1    1    0    0    0  0.95187902657E+01  0.23055292048E+02  0.15355201430E+02  0.29290545753E+02  0.00000000000E+00 0. -1.
</event>
<event>
 5    1  0.6690694E-004  0.9118800E+02  0.7818608E-02  0.1130116E+00
         25   -1    0    0    0    0  0.00000000000E+00  0.00000000000E+00  0.99999998245E-14  0.12500000000E+03  0.12500000000E+03 0.  0.
        -11    1    3    3    0    0  0.11006880108E+02 -0.26553603191E+02 -0.55252295712E+02  0.62282111668E+02  0.51100000000E-03 0.  1.
         23    2    1    0    0    0  0.60808338388E+01 -0.92410489692E+01 -0.27476371191E+02  0.95380335923E+02  0.90664678794E+02 0.  0.
         11    1    3    3    0    0 -0.49260462690E+01  0.17312554222E+02  0.27775924521E+02  0.33098224255E+02  0.51100000000E-03 0. -1.
         22    1    1    0    0    0 -0.60808338388E+01  0.92410489692E+01  0.27476371191E+02  0.29619664077E+02  0.00000000000E+00 0.  1.
</event>
<event>
 5    1  0.6690694E-004  0.9118800E+02  0.7818608E-02  0.1130116E+00
         25   -1    0    0    0    0  0.00000000000E+00  0.00000000000E+00  0.99999998245E-14  0.12500000000E+03  0.12500000000E+03 0.  0.
        -11    1    3    3    0    0 -0.56495167606E+02  0.77906205688E+01  0.57626747382E+01  0.57320207188E+02  0.51100000000E-03 0.  1.
         23    2    1    0    0    0 -0.22871386762E+02  0.89612099731E+01  0.19475869368E+02  0.93651744797E+02  0.88249284413E+02 0.  0.
         11    1    3    3    0    0  0.33623780844E+02  0.11705894043E+01  0.13713194630E+02  0.36331537609E+02  0.51100000000E-03 0. -1.
         22    1    1    0    0    0  0.22871386762E+02 -0.89612099731E+01 -0.19475869368E+02  0.31348255203E+02  0.00000000000E+00 0.  1.
</event>
<event>
 5    1  0.6690694E-004  0.9118800E+02  0.7818608E-02  0.1130116E+00
         25   -1    0    0    0    0  0.00000000000E+00  0.00000000000E+00  0.99999998245E-14  0.12500000000E+03  0.12500000000E+03 0.  0.
        -11    1    3    3    0    0 -0.35501567235E+02  0.47101428056E+02  0.17760950152E+02  0.61598353482E+02  0.51100000000E-03 0. -1.
         23    2    1    0    0    0 -0.21694830613E+02  0.17281598393E+02  0.11083061410E+02  0.95131060136E+02  0.90320346734E+02 0.  0.
         11    1    3    3    0    0  0.13806736622E+02 -0.29819829663E+02 -0.66778887417E+01  0.33532706655E+02  0.51100000000E-03 0.  1.
         22    1    1    0    0    0  0.21694830613E+02 -0.17281598393E+02 -0.11083061410E+02  0.29868939864E+02  0.00000000000E+00 0. -1.
</event>
<event>
 5    1  0.6690694E-004  0.9118800E+02  0.7818608E-02  0.1130116E+00
         25   -1    0    0    0    0  0.00000000000E+00  0.00000000000E+00  0.99999998245E-14  0.12500000000E+03  0.12500000000E+03 0.  0.
        -11    1    3    3    0    0 -0.57872006702E+01  0.43177664055E+02  0.37233687152E+02  0.57307502337E+02  0.51100000000E-03 0.  1.
         23    2    1    0    0    0 -0.17100990860E+02  0.12236790558E+02  0.50269421036E+01  0.10337933677E+03  0.10109319558E+03 0.  0.
         11    1    3    3    0    0 -0.11313790190E+02 -0.30940873497E+02 -0.32206745049E+02  0.46071834434E+02  0.51100000000E-03 0. -1.
         22    1    1    0    0    0  0.17100990860E+02 -0.12236790558E+02 -0.50269421036E+01  0.21620663229E+02  0.00000000000E+00 0.  1.
</event>
<event>
 5    1  0.6690694E-004  0.9118800E+02  0.7818608E-02  0.1130116E+00
         25   -1    0    0    0    0  0.00000000000E+00  0.00000000000E+00  0.99999998245E-14  0.12500000000E+03  0.12500000000E+03 0.  0.
        -11    1    3    3    0    0  0.18716097107E+02 -0.17092073603E+02 -0.35892404669E+02  0.43939685754E+02  0.51100000000E-03 0. -1.
         23    2    1    0    0    0 -0.17127861320E+02  0.16315142683E+02 -0.10639538884E+02  0.99062627315E+02  0.95606782336E+02 0.  0.
         11    1    3    3    0    0 -0.35843958427E+02  0.33407216286E+02  0.25252865786E+02  0.55122941561E+02  0.51100000000E-03 0.  1.
         22    1    1    0    0    0  0.17127861320E+02 -0.16315142683E+02  0.10639538884E+02  0.25937372685E+02  0.00000000000E+00 0.  1.
</event>
<event>
 5    1  0.6690694E-004  0.9118800E+02  0.7818608E-02  0.1130116E+00
         25   -1    0    0    0    0  0.00000000000E+00  0.00000000000E+00  0.99999998245E-14  0.12500000000E+03  0.12500000000E+03 0.  0.
        -11    1    3    3    0    0  0.61441901091E+00 -0.23387339595E+02  0.22838669256E+02  0.32694800469E+02  0.51100000000E-03 0.  1.
         23    2    1    0    0    0  0.91608027270E+01  0.32051497576E+02  0.90507695617E+01  0.90458210337E+02  0.83603544090E+02 0.  0.
         11    1    3    3    0    0  0.85463837160E+01  0.55438837170E+02 -0.13787899694E+02  0.57763409869E+02  0.51100000000E-03 0. -1.
         22    1    1    0    0    0 -0.91608027270E+01 -0.32051497576E+02 -0.90507695617E+01  0.34541789663E+02  0.00000000000E+00 0. -1.
</event>
<event>
 5    1  0.6690694E-004  0.9118800E+02  0.7818608E-02  0.1130116E+00
         25   -1    0    0    0    0  0.00000000000E+00  0.00000000000E+00  0.99999998245E-14  0.12500000000E+03  0.12500000000E+03 0.  0.
        -11    1    3    3    0    0 -0.37601505716E+02  0.36567431185E+02  0.12962753884E+02  0.54028541014E+02  0.51100000000E-03 0.  1.
         23    2    1    0    0    0 -0.32357010005E+02 -0.46449257512E+00  0.52595675911E+01  0.92215020191E+02  0.86190225941E+02 0.  0.
         11    1    3    3    0    0  0.52444957105E+01 -0.37031923760E+02 -0.77031862927E+01  0.38186479177E+02  0.51100000000E-03 0. -1.
         22    1    1    0    0    0  0.32357010005E+02  0.46449257512E+00 -0.52595675911E+01  0.32784979809E+02  0.00000000000E+00 0.  1.
</event>
<event>
 5    1  0.6690694E-004  0.9118800E+02  0.7818608E-02  0.1130116E+00
         25   -1    0    0    0    0  0.00000000000E+00  0.00000000000E+00  0.99999998245E-14  0.12500000000E+03  0.12500000000E+03 0.  0.
        -11    1    3    3    0    0 -0.15456472528E+02  0.40453018690E+02 -0.38585800731E+01  0.43476866315E+02  0.51100000000E-03 0.  1.
         23    2    1    0    0    0 -0.27997915541E+02 -0.38263009999E+01  0.14757235299E+02  0.93120541917E+02  0.87493631078E+02 0.  0.
         11    1    3    3    0    0 -0.12541443013E+02 -0.44279319690E+02  0.18615815372E+02  0.49643675602E+02  0.51100000000E-03 0. -1.
         22    1    1    0    0    0  0.27997915541E+02  0.38263009999E+01 -0.14757235299E+02  0.31879458083E+02  0.00000000000E+00 0. -1.
</event>
<event>
 5    1  0.6690694E-004  0.9118800E+02  0.7818608E-02  0.1130116E+00
         25   -1    0    0    0    0  0.00000000000E+00  0.00000000000E+00  0.99999998245E-14  0.12500000000E+03  0.12500000000E+03 0.  0.
        -11    1    3    3    0    0 -0.55479146772E+02  0.13316397261E+02  0.21931346223E+02  0.61124840368E+02  0.51100000000E-03 0.  1.
         23    2    1    0    0    0 -0.24285562541E+02  0.13993483331E+02  0.53244815083E+01  0.96470081896E+02  0.92154872221E+02 0.  0.
         11    1    3    3    0    0  0.31193584232E+02  0.67708607039E+00 -0.16606864715E+02  0.35345241528E+02  0.51100000000E-03 0. -1.
         22    1    1    0    0    0  0.24285562541E+02 -0.13993483331E+02 -0.53244815083E+01  0.28529918104E+02  0.00000000000E+00 0.  1.
</event>
<event>
 5    1  0.6690694E-004  0.9118800E+02  0.7818608E-02  0.1130116E+00
         25   -1    0    0    0    0  0.00000000000E+00  0.00000000000E+00  0.99999998245E-14  0.12500000000E+03  0.12500000000E+03 0.  0.
        -11    1    3    3    0    0 -0.31658866957E+02 -0.81792171263E+01  0.11963096004E+02  0.34818086048E+02  0.51100000000E-03 0.  1.
         23    2    1    0    0    0  0.15165468721E+02  0.12948595699E+02 -0.21146547570E+02  0.95933970924E+02  0.91424792760E+02 0.  0.
         11    1    3    3    0    0  0.46824335678E+02  0.21127812825E+02 -0.33109643574E+02  0.61115884877E+02  0.51100000000E-03 0. -1.
         22    1    1    0    0    0 -0.15165468721E+02 -0.12948595699E+02  0.21146547570E+02  0.29066029076E+02  0.00000000000E+00 0. -1.
</event>
<event>
 5    1  0.6690694E-004  0.9118800E+02  0.7818608E-02  0.1130116E+00
         25   -1    0    0    0    0  0.00000000000E+00  0.00000000000E+00  0.99999998245E-14  0.12500000000E+03  0.12500000000E+03 0.  0.
        -11    1    3    3    0    0  0.17414592600E+02 -0.23037215884E+02 -0.20695231192E+02  0.35528494838E+02  0.51100000000E-03 0. -1.
         23    2    1    0    0    0 -0.27533740307E+02  0.13810406533E+01  0.10564667016E+02  0.95476681797E+02  0.90797414331E+02 0.  0.
         11    1    3    3    0    0 -0.44948332906E+02  0.24418256537E+02  0.31259898208E+02  0.59948186959E+02  0.51100000000E-03 0.  1.
         22    1    1    0    0    0  0.27533740307E+02 -0.13810406533E+01 -0.10564667016E+02  0.29523318203E+02  0.00000000000E+00 0.  1.
</event>
<event>
 5    1  0.6690694E-004  0.9118800E+02  0.7818608E-02  0.1130116E+00
         25   -1    0    0    0    0  0.00000000000E+00  0.00000000000E+00  0.99999998245E-14  0.12500000000E+03  0.12500000000E+03 0.  0.
        -11    1    3    3    0    0 -0.10612970730E+02  0.21789234814E+02  0.43946169787E+02  0.50186370069E+02  0.51100000000E-03 0. -1.
         23    2    1    0    0    0 -0.71555118035E+01 -0.17713738786E+02  0.23222407141E+02  0.94929115670E+02  0.90040429350E+02 0.  0.
         11    1    3    3    0    0  0.34574589265E+01 -0.39502973600E+02 -0.20723762646E+02  0.44742745601E+02  0.51100000000E-03 0.  1.
         22    1    1    0    0    0  0.71555118035E+01  0.17713738786E+02 -0.23222407141E+02  0.30070884330E+02  0.00000000000E+00 0. -1.
</event>
<event>
 5    1  0.6690694E-004  0.9118800E+02  0.7818608E-02  0.1130116E+00
         25   -1    0    0    0    0  0.00000000000E+00  0.00000000000E+00  0.99999998245E-14  0.12500000000E+03  0.12500000000E+03 0.  0.
        -11    1    3    3    0    0 -0.42271850136E+02  0.37677540423E+02  0.15195574180E+01  0.56646406958E+02  0.51100000000E-03 0.  1.
         23    2    1    0    0    0 -0.62465865882E+01  0.26711662675E+02 -0.96411964644E+01  0.95922767736E+02  0.91409473984E+02 0.  0.
         11    1    3    3    0    0  0.36025263548E+02 -0.10965877749E+02 -0.11160753882E+02  0.39276360778E+02  0.51100000000E-03 0. -1.
         22    1    1    0    0    0  0.62465865882E+01 -0.26711662675E+02  0.96411964644E+01  0.29077232264E+02  0.00000000000E+00 0. -1.
</event>
<event>
 5    1  0.6690694E-004  0.9118800E+02  0.7818608E-02  0.1130116E+00
         25   -1    0    0    0    0  0.00000000000E+00  0.00000000000E+00  0.99999998245E-14  0.12500000000E+03  0.12500000000E+03 0.  0.
        -11    1    3    3    0    0 -0.26282459647E+02 -0.23199448108E+02  0.14404173479E+02  0.37900689855E+02  0.51100000000E-03 0.  1.
         23    2    1    0    0    0  0.27928060154E+02 -0.33170452711E+01  0.58709498390E+01  0.96269399844E+02  0.91882261405E+02 0.  0.
         11    1    3    3    0    0  0.54210519802E+02  0.19882402837E+02 -0.85332236401E+01  0.58368709988E+02  0.51100000000E-03 0. -1.
         22    1    1    0    0    0 -0.27928060154E+02  0.33170452711E+01 -0.58709498390E+01  0.28730600156E+02  0.00000000000E+00 0. -1.
</event>
<event>
 5    1  0.6690694E-004  0.9118800E+02  0.7818608E-02  0.1130116E+00
         25   -1    0    0    0    0  0.00000000000E+00  0.00000000000E+00  0.99999998245E-14  0.12500000000E+03  0.12500000000E+03 0.  0.
        -11    1    3    3    0    0 -0.35285273693E+02  0.27141133530E+01  0.28761633073E+02  0.45603163137E+02  0.51100000000E-03 0. -1.
         23    2    1    0    0    0 -0.69747520002E+01 -0.28947273363E+02  0.20440875306E+02  0.88883228495E+02  0.81214574578E+02 0.  0.
         11    1    3    3    0    0  0.28310521693E+02 -0.31661386716E+02 -0.83207577667E+01  0.43280065358E+02  0.51100000000E-03 0.  1.
         22    1    1    0    0    0  0.69747520002E+01  0.28947273363E+02 -0.20440875306E+02  0.36116771505E+02  0.00000000000E+00 0.  1.
</event>
<event>
 5    1  0.6690694E-004  0.9118800E+02  0.7818608E-02  0.1130116E+00
         25   -1    0    0    0    0  0.00000000000E+00  0.00000000000E+00  0.99999998245E-14  0.12500000000E+03  0.12500000000E+03 0.  0.
        -11    1    3    3    0    0 -0.95565104526E+01 -0.46823900367E+02 -0.16668217050E+02  0.50612587343E+02  0.51100000000E-03 0. -1.
         23    2    1    0    0    0  0.21781423435E+02 -0.13225817532E+02 -0.12121471179E+02  0.96781518117E+02  0.92576344328E+02 0.  0.
         11    1    3    3    0    0  0.31337933888E+02  0.33598082835E+02  0.45467458716E+01  0.46168930774E+02  0.51100000000E-03 0.  1.
         22    1    1    0    0    0 -0.21781423435E+02  0.13225817532E+02  0.12121471179E+02  0.28218481883E+02  0.00000000000E+00 0. -1.
</event>
<event>
 5    1  0.6690694E-004  0.9118800E+02  0.7818608E-02  0.1130116E+00
         25   -1    0    0    0    0  0.00000000000E+00  0.00000000000E+00  0.99999998245E-14  0.12500000000E+03  0.12500000000E+03 0.  0.
        -11    1    3    3    0    0 -0.13706716293E+02  0.20330813930E+02 -0.43281195453E+02  0.49744124746E+02  0.51100000000E-03 0.  1.
         23    2    1    0    0    0  0.80686572774E+01 -0.14820919654E+02 -0.24721340873E+02  0.95068284643E+02  0.90233425961E+02 0.  0.
         11    1    3    3    0    0  0.21775373570E+02 -0.35151733584E+02  0.18559854580E+02  0.45324159897E+02  0.51100000000E-03 0. -1.
         22    1    1    0    0    0 -0.80686572774E+01  0.14820919654E+02  0.24721340873E+02  0.29931715357E+02  0.00000000000E+00 0.  1.
</event>
<event>
 5    1  0.6690694E-004  0.9118800E+02  0.7818608E-02  0.1130116E+00
         25   -1    0    0    0    0  0.00000000000E+00  0.00000000000E+00  0.99999998245E-14  0.12500000000E+03  0.12500000000E+03 0.  0.
        -11    1    3    3    0    0 -0.47175052874E+02 -0.16510801610E+02 -0.30772222585E+02  0.58694308638E+02  0.51100000000E-03 0.  1.
         23    2    1    0    0    0 -0.27219436157E+02 -0.81990015353E+01  0.32925930859E+00  0.96570618322E+02  0.92291140315E+02 0.  0.
         11    1    3    3    0    0  0.19955616717E+02  0.83118000747E+01  0.31101481894E+02  0.37876309684E+02  0.51100000000E-03 0. -1.
         22    1    1    0    0    0  0.27219436157E+02  0.81990015353E+01 -0.32925930859E+00  0.28429381678E+02  0.00000000000E+00 0.  1.
</event>
<event>
 5    1  0.6690694E-004  0.9118800E+02  0.7818608E-02  0.1130116E+00
         25   -1    0    0    0    0  0.00000000000E+00  0.00000000000E+00  0.99999998245E-14  0.12500000000E+03  0.12500000000E+03 0.  0.
        -11    1    3    3    0    0  0.39087581384E+02 -0.76255401375E+01 -0.44079396808E+01  0.40067665434E+02  0.51100000000E-03 0.  1.
         23    2    1    0    0    0 -0.37024794237E+01  0.27617892158E+02 -0.90630052690E+01  0.95698218729E+02  0.91101891760E+02 0.  0.
         11    1    3    3    0    0 -0.42790060808E+02  0.35243432296E+02 -0.46550655881E+01  0.55630553294E+02  0.51100000000E-03 0. -1.
         22    1    1    0    0    0  0.37024794237E+01 -0.27617892158E+02  0.90630052690E+01  0.29301781271E+02  0.00000000000E+00 0. -1.
</event>
<event>
 5    1  0.6690694E-004  0.9118800E+02  0.7818608E-02  0.1130116E+00
         25   -1    0    0    0    0  0.00000000000E+00  0.00000000000E+00  0.99999998245E-14  0.12500000000E+03  0.12500000000E+03 0.  0.
        -11    1    3    3    0    0  0.56541181595E+02 -0.12969355913E+02  0.68690789031E+00  0.58013629879E+02  0.51100000000E-03 0. -1.
         23    2    1    0    0    0  0.25577038480E+02 -0.63940866107E+01 -0.16365772929E+02  0.93969244860E+02  0.88697864771E+02 0.  0.
         11    1    3    3    0    0 -0.30964143115E+02  0.65752693019E+01 -0.17052680820E+02  0.35955614981E+02  0.51100000000E-03 0.  1.
         22    1    1    0    0    0 -0.25577038480E+02  0.63940866107E+01  0.16365772929E+02  0.31030755140E+02  0.00000000000E+00 0. -1.
</event>
<event>
 5    1  0.6690694E-004  0.9118800E+02  0.7818608E-02  0.1130116E+00
         25   -1    0    0    0    0  0.00000000000E+00  0.00000000000E+00  0.99999998245E-14  0.12500000000E+03  0.12500000000E+03 0.  0.
        -11    1    3    3    0    0  0.16190461502E+02 -0.32011963399E+02 -0.11955841128E+01  0.35893262124E+02  0.51100000000E-03 0. -1.
         23    2    1    0    0    0 -0.15722240262E+02  0.18541445848E+02  0.13132313215E+02  0.97369732115E+02  0.93367194607E+02 0.  0.
         11    1    3    3    0    0 -0.31912701764E+02  0.50553409247E+02  0.14327897328E+02  0.61476469991E+02  0.51100000000E-03 0.  1.
         22    1    1    0    0    0  0.15722240262E+02 -0.18541445848E+02 -0.13132313215E+02  0.27630267885E+02  0.00000000000E+00 0.  1.
</event>
<event>
 5    1  0.6690694E-004  0.9118800E+02  0.7818608E-02  0.1130116E+00
         25   -1    0    0    0    0  0.00000000000E+00  0.00000000000E+00  0.99999998245E-14  0.12500000000E+03  0.12500000000E+03 0.  0.
        -11    1    3    3    0    0  0.40669981493E+01 -0.25169982602E+01  0.37240240815E+02  0.37546122175E+02  0.51100000000E-03 0.  1.
         23    2    1    0    0    0  0.18001607077E+02  0.14243805232E+02 -0.17283756370E+02  0.96265489754E+02  0.91876941821E+02 0.  0.
         11    1    3    3    0    0  0.13934608928E+02  0.16760803492E+02 -0.54523997184E+02  0.58719367579E+02  0.51100000000E-03 0. -1.
         22    1    1    0    0    0 -0.18001607077E+02 -0.14243805232E+02  0.17283756370E+02  0.28734510246E+02  0.00000000000E+00 0. -1.
</event>
<event>
 5    1  0.6690694E-004  0.9118800E+02  0.7818608E-02  0.1130116E+00
         25   -1    0    0    0    0  0.00000000000E+00  0.00000000000E+00  0.99999998245E-14  0.12500000000E+03  0.12500000000E+03 0.  0.
        -11    1    3    3    0    0 -0.43045902045E+02  0.44578510630E+02 -0.47110133547E+01  0.62148104879E+02  0.51100000000E-03 0.  1.
         23    2    1    0    0    0 -0.22464181998E+02  0.18757165017E+02  0.12749400340E+01  0.95706721174E+02  0.91113557133E+02 0.  0.
         11    1    3    3    0    0  0.20581720048E+02 -0.25821345614E+02  0.59859533887E+01  0.33558616295E+02  0.51100000000E-03 0. -1.
         22    1    1    0    0    0  0.22464181998E+02 -0.18757165017E+02 -0.12749400340E+01  0.29293278826E+02  0.00000000000E+00 0.  1.
</event>
<event>
 5    1  0.6690694E-004  0.9118800E+02  0.7818608E-02  0.1130116E+00
         25   -1    0    0    0    0  0.00000000000E+00  0.00000000000E+00  0.99999998245E-14  0.12500000000E+03  0.12500000000E+03 0.  0.
        -11    1    3    3    0    0 -0.14804736937E+02  0.49528997639E+02 -0.12387142533E+02  0.53157719508E+02  0.51100000000E-03 0.  1.
         23    2    1    0    0    0 -0.41415467831E+01  0.22897597143E+02  0.18471397979E+02  0.95290659583E+02  0.90540957008E+02 0.  0.
         11    1    3    3    0    0  0.10663190154E+02 -0.26631400496E+02  0.30858540511E+02  0.42132940075E+02  0.51100000000E-03 0. -1.
         22    1    1    0    0    0  0.41415467831E+01 -0.22897597143E+02 -0.18471397979E+02  0.29709340417E+02  0.00000000000E+00 0.  1.
</event>
<event>
 5    1  0.6690694E-004  0.9118800E+02  0.7818608E-02  0.1130116E+00
         25   -1    0    0    0    0  0.00000000000E+00  0.00000000000E+00  0.99999998245E-14  0.12500000000E+03  0.12500000000E+03 0.  0.
        -11    1    3    3    0    0  0.27349751892E+01 -0.40440371866E+02 -0.41430770518E+01  0.40743942540E+02  0.51100000000E-03 0.  1.
         23    2    1    0    0    0  0.28129156426E+02  0.65184391963E+01  0.70209836888E+01  0.95284116995E+02  0.90531923920E+02 0.  0.
         11    1    3    3    0    0  0.25394181237E+02  0.46958811063E+02  0.11164060741E+02  0.54540174455E+02  0.51100000000E-03 0. -1.
         22    1    1    0    0    0 -0.28129156426E+02 -0.65184391963E+01 -0.70209836888E+01  0.29715883005E+02  0.00000000000E+00 0. -1.
</event>
<event>
 5    1  0.6690694E-004  0.9118800E+02  0.7818608E-02  0.1130116E+00
         25   -1    0    0    0    0  0.00000000000E+00  0.00000000000E+00  0.99999998245E-14  0.12500000000E+03  0.12500000000E+03 0.  0.
        -11    1    3    3    0    0 -0.17428331012E+01 -0.36636775672E+02 -0.32520322708E+02  0.49018998237E+02  0.51100000000E-03 0.  1.
         23    2    1    0    0    0  0.24463554907E+02 -0.17493063224E+02 -0.52640244404E-01  0.94925499993E+02  0.90035409691E+02 0.  0.
         11    1    3    3    0    0  0.26206388008E+02  0.19143712447E+02  0.32467682463E+02  0.45906501756E+02  0.51100000000E-03 0. -1.
         22    1    1    0    0    0 -0.24463554907E+02  0.17493063224E+02  0.52640244404E-01  0.30074500007E+02  0.00000000000E+00 0.  1.
</event>
<event>
 5    1  0.6690694E-004  0.9118800E+02  0.7818608E-02  0.1130116E+00
         25   -1    0    0    0    0  0.00000000000E+00  0.00000000000E+00  0.99999998245E-14  0.12500000000E+03  0.12500000000E+03 0.  0.
        -11    1    3    3    0    0 -0.14802032257E+02  0.36795448817E+02 -0.21195781789E+02  0.44969616170E+02  0.51100000000E-03 0. -1.
         23    2    1    0    0    0 -0.14991360104E+02 -0.13758055392E+02 -0.21326756983E+02  0.95523644572E+02  0.90862044567E+02 0.  0.
         11    1    3    3    0    0 -0.18932784708E+00 -0.50553504209E+02 -0.13097519410E+00  0.50554028402E+02  0.51100000000E-03 0.  1.
         22    1    1    0    0    0  0.14991360104E+02  0.13758055392E+02  0.21326756983E+02  0.29476355428E+02  0.00000000000E+00 0. -1.
</event>
<event>
 5    1  0.6690694E-004  0.9118800E+02  0.7818608E-02  0.1130116E+00
         25   -1    0    0    0    0  0.00000000000E+00  0.00000000000E+00  0.99999998245E-14  0.12500000000E+03  0.12500000000E+03 0.  0.
        -11    1    3    3    0    0  0.31821495818E+02  0.40621443977E+01  0.53590468143E+02  0.62458361244E+02  0.51100000000E-03 0. -1.
         23    2    1    0    0    0  0.14650655230E+02  0.34541965036E+01  0.25704168343E+02  0.95212797339E+02  0.90433397231E+02 0.  0.
         11    1    3    3    0    0 -0.17170840587E+02 -0.60794789412E+00 -0.27886299800E+02  0.32754436095E+02  0.51100000000E-03 0.  1.
         22    1    1    0    0    0 -0.14650655230E+02 -0.34541965036E+01 -0.25704168343E+02  0.29787202661E+02  0.00000000000E+00 0. -1.
</event>
<event>
 5    1  0.6690694E-004  0.9118800E+02  0.7818608E-02  0.1130116E+00
         25   -1    0    0    0    0  0.00000000000E+00  0.00000000000E+00  0.99999998245E-14  0.12500000000E+03  0.12500000000E+03 0.  0.
        -11    1    3    3    0    0 -0.29818158045E+02 -0.77439771000E+01  0.15792868006E+02  0.34619451333E+02  0.51100000000E-03 0. -1.
         23    2    1    0    0    0  0.11015407948E+02  0.16081352060E+02 -0.22335576625E+02  0.95354982215E+02  0.90629716725E+02 0.  0.
         11    1    3    3    0    0  0.40833565992E+02  0.23825329160E+02 -0.38128444631E+02  0.60735530881E+02  0.51100000000E-03 0.  1.
         22    1    1    0    0    0 -0.11015407948E+02 -0.16081352060E+02  0.22335576625E+02  0.29645017785E+02  0.00000000000E+00 0.  1.
</event>
<event>
 5    1  0.6690694E-004  0.9118800E+02  0.7818608E-02  0.1130116E+00
         25   -1    0    0    0    0  0.00000000000E+00  0.00000000000E+00  0.99999998245E-14  0.12500000000E+03  0.12500000000E+03 0.  0.
        -11    1    3    3    0    0 -0.39641662240E+02 -0.43937341636E+02  0.94939323475E+01  0.59934014774E+02  0.51100000000E-03 0. -1.
         23    2    1    0    0    0 -0.20202712101E+02 -0.16538632534E+02 -0.78438671842E+01  0.97738265009E+02  0.93859289643E+02 0.  0.
         11    1    3    3    0    0  0.19438950139E+02  0.27398709103E+02 -0.17337799532E+02  0.37804250235E+02  0.51100000000E-03 0.  1.
         22    1    1    0    0    0  0.20202712101E+02  0.16538632534E+02  0.78438671842E+01  0.27261734991E+02  0.00000000000E+00 0. -1.
</event>
<event>
 5    1  0.6690694E-004  0.9118800E+02  0.7818608E-02  0.1130116E+00
         25   -1    0    0    0    0  0.00000000000E+00  0.00000000000E+00  0.99999998245E-14  0.12500000000E+03  0.12500000000E+03 0.  0.
        -11    1    3    3    0    0 -0.43925572184E+02  0.35858973771E+02  0.22985199809E+02  0.61185302991E+02  0.51100000000E-03 0.  1.
         23    2    1    0    0    0 -0.15582778383E+02  0.17458671156E+02  0.18284205927E+02  0.95302519180E+02  0.90557328776E+02 0.  0.
         11    1    3    3    0    0  0.28342793801E+02 -0.18400302616E+02 -0.47009938812E+01  0.34117216189E+02  0.51100000000E-03 0. -1.
         22    1    1    0    0    0  0.15582778383E+02 -0.17458671156E+02 -0.18284205927E+02  0.29697480820E+02  0.00000000000E+00 0.  1.
</event>
<event>
 5    1  0.6690694E-004  0.9118800E+02  0.7818608E-02  0.1130116E+00
         25   -1    0    0    0    0  0.00000000000E+00  0.00000000000E+00  0.99999998245E-14  0.12500000000E+03  0.12500000000E+03 0.  0.
        -11    1    3    3    0    0  0.12291926891E+02 -0.15559630105E+02 -0.54263782473E+02  0.57773277942E+02  0.51100000000E-03 0.  1.
         23    2    1    0    0    0 -0.10786801313E+02 -0.11318038924E+02 -0.27491707590E+02  0.93373317058E+02  0.87854022472E+02 0.  0.
         11    1    3    3    0    0 -0.23078728205E+02  0.42415911812E+01  0.26772074882E+02  0.35600039116E+02  0.51100000000E-03 0. -1.
         22    1    1    0    0    0  0.10786801313E+02  0.11318038924E+02  0.27491707590E+02  0.31626682942E+02  0.00000000000E+00 0.  1.
</event>
<event>
 5    1  0.6690694E-004  0.9118800E+02  0.7818608E-02  0.1130116E+00
         25   -1    0    0    0    0  0.00000000000E+00  0.00000000000E+00  0.99999998245E-14  0.12500000000E+03  0.12500000000E+03 0.  0.
        -11    1    3    3    0    0 -0.58397016501E+02  0.24914449129E+01 -0.16265269440E+02  0.60671062494E+02  0.51100000000E-03 0.  1.
         23    2    1    0    0    0 -0.24564626115E+02  0.10759086849E+02 -0.11489424062E+02  0.95824913517E+02  0.91275562881E+02 0.  0.
         11    1    3    3    0    0  0.33832390386E+02  0.82676419365E+01  0.47758453782E+01  0.35153851023E+02  0.51100000000E-03 0. -1.
         22    1    1    0    0    0  0.24564626115E+02 -0.10759086849E+02  0.11489424062E+02  0.29175086483E+02  0.00000000000E+00 0.  1.
</event>
<event>
 5    1  0.6690694E-004  0.9118800E+02  0.7818608E-02  0.1130116E+00
         25   -1    0    0    0    0  0.00000000000E+00  0.00000000000E+00  0.99999998245E-14  0.12500000000E+03  0.12500000000E+03 0.  0.
        -11    1    3    3    0    0  0.30445464507E+02 -0.19070884608E+02  0.40025560319E+02  0.53783551648E+02  0.51100000000E-03 0. -1.
         23    2    1    0    0    0  0.26096653376E+02  0.86897365194E+01  0.80720215383E+01  0.96334613732E+02  0.91970937980E+02 0.  0.
         11    1    3    3    0    0 -0.43488111314E+01  0.27760621127E+02 -0.31953538780E+02  0.42551062084E+02  0.51100000000E-03 0.  1.
         22    1    1    0    0    0 -0.26096653376E+02 -0.86897365194E+01 -0.80720215383E+01  0.28665386268E+02  0.00000000000E+00 0. -1.
</event>
<event>
 5    1  0.6690694E-004  0.9118800E+02  0.7818608E-02  0.1130116E+00
         25   -1    0    0    0    0  0.00000000000E+00  0.00000000000E+00  0.99999998245E-14  0.12500000000E+03  0.12500000000E+03 0.  0.
        -11    1    3    3    0    0  0.71923620475E+01  0.20606147224E+02 -0.49746788383E+02  0.54323902013E+02  0.51100000000E-03 0. -1.
         23    2    1    0    0    0  0.10223407648E+02 -0.12032815006E+02 -0.25145517727E+02  0.95308186941E+02  0.90565151882E+02 0.  0.
         11    1    3    3    0    0  0.30310456010E+01 -0.32638962231E+02  0.24601270656E+02  0.40984284928E+02  0.51100000000E-03 0.  1.
         22    1    1    0    0    0 -0.10223407648E+02  0.12032815006E+02  0.25145517727E+02  0.29691813059E+02  0.00000000000E+00 0. -1.
</event>
<event>
 5    1  0.6690694E-004  0.9118800E+02  0.7818608E-02  0.1130116E+00
         25   -1    0    0    0    0  0.00000000000E+00  0.00000000000E+00  0.99999998245E-14  0.12500000000E+03  0.12500000000E+03 0.  0.
        -11    1    3    3    0    0 -0.14675651379E+02  0.41590175220E+02  0.29618756454E+01  0.44202829387E+02  0.51100000000E-03 0.  1.
         23    2    1    0    0    0 -0.23827527994E+02 -0.84029248226E+01  0.13860408773E+02  0.96182103352E+02  0.91763423204E+02 0.  0.
         11    1    3    3    0    0 -0.91518766142E+01 -0.49993100042E+02  0.10898533127E+02  0.51979273965E+02  0.51100000000E-03 0. -1.
         22    1    1    0    0    0  0.23827527994E+02  0.84029248226E+01 -0.13860408773E+02  0.28817896648E+02  0.00000000000E+00 0. -1.
</event>
<event>
 5    1  0.6690694E-004  0.9118800E+02  0.7818608E-02  0.1130116E+00
         25   -1    0    0    0    0  0.00000000000E+00  0.00000000000E+00  0.99999998245E-14  0.12500000000E+03  0.12500000000E+03 0.  0.
        -11    1    3    3    0    0  0.74023379928E+01 -0.61434503607E+02  0.70628409664E+01  0.62280627518E+02  0.51100000000E-03 0.  1.
         23    2    1    0    0    0  0.62234882249E+01 -0.28385296324E+02  0.85875425417E+00  0.95927774217E+02  0.91416319956E+02 0.  0.
         11    1    3    3    0    0 -0.11788497678E+01  0.33049207283E+02 -0.62040867123E+01  0.33647146699E+02  0.51100000000E-03 0. -1.
         22    1    1    0    0    0 -0.62234882249E+01  0.28385296324E+02 -0.85875425417E+00  0.29072225783E+02  0.00000000000E+00 0.  1.
</event>
<event>
 5    1  0.6690694E-004  0.9118800E+02  0.7818608E-02  0.1130116E+00
         25   -1    0    0    0    0  0.00000000000E+00  0.00000000000E+00  0.99999998245E-14  0.12500000000E+03  0.12500000000E+03 0.  0.
        -11    1    3    3    0    0  0.52806796695E+00  0.16580619087E+02  0.37638498035E+02  0.41132132447E+02  0.51100000000E-03 0.  1.
         23    2    1    0    0    0 -0.47889262291E+01  0.24045223456E+02 -0.16114555324E+02  0.95660854158E+02  0.91050609769E+02 0.  0.
         11    1    3    3    0    0 -0.53169941961E+01  0.74646043682E+01 -0.53753053359E+02  0.54528721710E+02  0.51100000000E-03 0. -1.
         22    1    1    0    0    0  0.47889262291E+01 -0.24045223456E+02  0.16114555324E+02  0.29339145842E+02  0.00000000000E+00 0. -1.
</event>
<event>
 5    1  0.6690694E-004  0.9118800E+02  0.7818608E-02  0.1130116E+00
         25   -1    0    0    0    0  0.00000000000E+00  0.00000000000E+00  0.99999998245E-14  0.12500000000E+03  0.12500000000E+03 0.  0.
        -11    1    3    3    0    0 -0.34669327268E+02  0.17931284230E+02 -0.13202592909E+02  0.41204388931E+02  0.51100000000E-03 0.  1.
         23    2    1    0    0    0 -0.30765399510E+01 -0.24114029580E+02 -0.19043216926E+02  0.94119656227E+02  0.88909583605E+02 0.  0.
         11    1    3    3    0    0  0.31592787317E+02 -0.42045313810E+02 -0.58406240171E+01  0.52915267296E+02  0.51100000000E-03 0. -1.
         22    1    1    0    0    0  0.30765399510E+01  0.24114029580E+02  0.19043216926E+02  0.30880343773E+02  0.00000000000E+00 0. -1.
</event>
<event>
 5    1  0.6690694E-004  0.9118800E+02  0.7818608E-02  0.1130116E+00
         25   -1    0    0    0    0  0.00000000000E+00  0.00000000000E+00  0.99999998245E-14  0.12500000000E+03  0.12500000000E+03 0.  0.
        -11    1    3    3    0    0  0.24800877439E+02 -0.52545412386E+02  0.13398085936E+02  0.59628957659E+02  0.51100000000E-03 0.  1.
         23    2    1    0    0    0 -0.12002519529E+01 -0.27118029051E+02  0.96578897270E+01  0.96188492952E+02  0.91772126695E+02 0.  0.
         11    1    3    3    0    0 -0.26001129392E+02  0.25427383334E+02 -0.37401962088E+01  0.36559535293E+02  0.51100000000E-03 0. -1.
         22    1    1    0    0    0  0.12002519529E+01  0.27118029051E+02 -0.96578897270E+01  0.28811507048E+02  0.00000000000E+00 0.  1.
</event>
<event>
 5    1  0.6690694E-004  0.9118800E+02  0.7818608E-02  0.1130116E+00
         25   -1    0    0    0    0  0.00000000000E+00  0.00000000000E+00  0.99999998245E-14  0.12500000000E+03  0.12500000000E+03 0.  0.
        -11    1    3    3    0    0  0.30450383499E+02  0.36839145419E+02  0.76197526529E+00  0.47800931967E+02  0.51100000000E-03 0. -1.
         23    2    1    0    0    0  0.11859771803E+02  0.17664747710E+01 -0.26471167455E+02  0.95939763822E+02  0.91432712720E+02 0.  0.
         11    1    3    3    0    0 -0.18590611696E+02 -0.35072670648E+02 -0.27233142720E+02  0.48138831854E+02  0.51100000000E-03 0.  1.
         22    1    1    0    0    0 -0.11859771803E+02 -0.17664747710E+01  0.26471167455E+02  0.29060236178E+02  0.00000000000E+00 0. -1.
</event>
<event>
 5    1  0.6690694E-004  0.9118800E+02  0.7818608E-02  0.1130116E+00
         25   -1    0    0    0    0  0.00000000000E+00  0.00000000000E+00  0.99999998245E-14  0.12500000000E+03  0.12500000000E+03 0.  0.
        -11    1    3    3    0    0  0.22056682265E+02 -0.72673419675E+01  0.45108465118E+02  0.50735442418E+02  0.51100000000E-03 0.  1.
         23    2    1    0    0    0  0.28070144842E+02 -0.82791034633E+01  0.52945763150E+00  0.95729589839E+02  0.91144925585E+02 0.  0.
         11    1    3    3    0    0  0.60134625770E+01 -0.10117614958E+01 -0.44579007486E+02  0.44994147422E+02  0.51100000000E-03 0. -1.
         22    1    1    0    0    0 -0.28070144842E+02  0.82791034633E+01 -0.52945763150E+00  0.29270410161E+02  0.00000000000E+00 0.  1.
</event>
<event>
 5    1  0.6690694E-004  0.9118800E+02  0.7818608E-02  0.1130116E+00
         25   -1    0    0    0    0  0.00000000000E+00  0.00000000000E+00  0.99999998245E-14  0.12500000000E+03  0.12500000000E+03 0.  0.
        -11    1    3    3    0    0 -0.32203769563E+02  0.10507578348E+02  0.40344183529E+02  0.52679646180E+02  0.51100000000E-03 0.  1.
         23    2    1    0    0    0  0.61067586756E+01  0.17352704529E+02  0.23678890554E+02  0.95015025198E+02  0.90159615680E+02 0.  0.
         11    1    3    3    0    0  0.38310528239E+02  0.68451261811E+01 -0.16665292975E+02  0.42335379018E+02  0.51100000000E-03 0. -1.
         22    1    1    0    0    0 -0.61067586756E+01 -0.17352704529E+02 -0.23678890554E+02  0.29984974802E+02  0.00000000000E+00 0. -1.
</event>
<event>
 5    1  0.6690694E-004  0.9118800E+02  0.7818608E-02  0.1130116E+00
         25   -1    0    0    0    0  0.00000000000E+00  0.00000000000E+00  0.99999998245E-14  0.12500000000E+03  0.12500000000E+03 0.  0.
        -11    1    3    3    0    0 -0.13994610344E+02  0.13997309798E+02 -0.50739206424E+02  0.54463206562E+02  0.51100000000E-03 0. -1.
         23    2    1    0    0    0  0.13565562687E+02  0.16458197949E+02 -0.22367561955E+02  0.94093615570E+02  0.88872964913E+02 0.  0.
         11    1    3    3    0    0  0.27560173031E+02  0.24608881508E+01  0.28371644469E+02  0.39630409008E+02  0.51100000000E-03 0.  1.
         22    1    1    0    0    0 -0.13565562687E+02 -0.16458197949E+02  0.22367561955E+02  0.30906384430E+02  0.00000000000E+00 0.  1.
</event>
<event>
 5    1  0.6690694E-004  0.9118800E+02  0.7818608E-02  0.1130116E+00
         25   -1    0    0    0    0  0.00000000000E+00  0.00000000000E+00  0.99999998245E-14  0.12500000000E+03  0.12500000000E+03 0.  0.
        -11    1    3    3    0    0  0.31425432196E+02 -0.56599065694E+01 -0.41965579599E+02  0.52732363899E+02  0.51100000000E-03 0.  1.
         23    2    1    0    0    0 -0.80499762264E+01 -0.11985983079E+02 -0.24932342291E+02  0.96188759143E+02  0.91772489264E+02 0.  0.
         11    1    3    3    0    0 -0.39475408422E+02 -0.63260765099E+01  0.17033237308E+02  0.43456395243E+02  0.51100000000E-03 0. -1.
         22    1    1    0    0    0  0.80499762264E+01  0.11985983079E+02  0.24932342291E+02  0.28811240857E+02  0.00000000000E+00 0. -1.
</event>
<event>
 5    1  0.6690694E-004  0.9118800E+02  0.7818608E-02  0.1130116E+00
         25   -1    0    0    0    0  0.00000000000E+00  0.00000000000E+00  0.99999998245E-14  0.12500000000E+03  0.12500000000E+03 0.  0.
        -11    1    3    3    0    0 -0.33087382077E+02 -0.31514848399E+02  0.17021785952E+02  0.48761682903E+02  0.51100000000E-03 0.  1.
         23    2    1    0    0    0  0.11189757693E+02 -0.18978782035E+02  0.20493880194E+02  0.94910068625E+02  0.90013983115E+02 0.  0.
         11    1    3    3    0    0  0.44277139769E+02  0.12536066364E+02  0.34720942420E+01  0.46148385722E+02  0.51100000000E-03 0. -1.
         22    1    1    0    0    0 -0.11189757693E+02  0.18978782035E+02 -0.20493880194E+02  0.30089931375E+02  0.00000000000E+00 0.  1.
</event>
<event>
 5    1  0.6690694E-004  0.9118800E+02  0.7818608E-02  0.1130116E+00
         25   -1    0    0    0    0  0.00000000000E+00  0.00000000000E+00  0.99999998245E-14  0.12500000000E+03  0.12500000000E+03 0.  0.
        -11    1    3    3    0    0 -0.50581086667E+02 -0.12933193349E+02  0.12976713553E+02  0.53796922900E+02  0.51100000000E-03 0. -1.
         23    2    1    0    0    0 -0.16110057422E+02 -0.22858763812E+02 -0.87041322621E+01  0.95711453577E+02  0.91120049353E+02 0.  0.
         11    1    3    3    0    0  0.34471029246E+02 -0.99255704634E+01 -0.21680845816E+02  0.41914530676E+02  0.51100000000E-03 0.  1.
         22    1    1    0    0    0  0.16110057422E+02  0.22858763812E+02  0.87041322621E+01  0.29288546423E+02  0.00000000000E+00 0. -1.
</event>
<event>
 5    1  0.6690694E-004  0.9118800E+02  0.7818608E-02  0.1130116E+00
         25   -1    0    0    0    0  0.00000000000E+00  0.00000000000E+00  0.99999998245E-14  0.12500000000E+03  0.12500000000E+03 0.  0.
        -11    1    3    3    0    0 -0.96641395096E+01 -0.22992475578E+02 -0.29630901688E+02  0.38730348059E+02  0.51100000000E-03 0.  1.
         23    2    1    0    0    0  0.16867096646E+02 -0.14266586012E+02  0.19688120513E+02  0.95408506036E+02  0.90703508802E+02 0.  0.
         11    1    3    3    0    0  0.26531236155E+02  0.87258895654E+01  0.49319022200E+02  0.56678157977E+02  0.51100000000E-03 0. -1.
         22    1    1    0    0    0 -0.16867096646E+02  0.14266586012E+02 -0.19688120513E+02  0.29591493964E+02  0.00000000000E+00 0. -1.
</event>
<event>
 5    1  0.6690694E-004  0.9118800E+02  0.7818608E-02  0.1130116E+00
         25   -1    0    0    0    0  0.00000000000E+00  0.00000000000E+00  0.99999998245E-14  0.12500000000E+03  0.12500000000E+03 0.  0.
        -11    1    3    3    0    0  0.14655389947E+02 -0.58790281569E+02  0.12332104545E+02  0.61831694657E+02  0.51100000000E-03 0. -1.
         23    2    1    0    0    0  0.10197895100E+02 -0.42417378163E+02  0.14697757521E+02  0.78964631957E+02  0.64157291007E+02 0.  0.
         11    1    3    3    0    0 -0.44574948472E+01  0.16372903406E+02  0.23656529760E+01  0.17132937300E+02  0.51100000000E-03 0.  1.
         22    1    1    0    0    0 -0.10197895100E+02  0.42417378163E+02 -0.14697757521E+02  0.46035368043E+02  0.00000000000E+00 0. -1.
</event>
<event>
 5    1  0.6690694E-004  0.9118800E+02  0.7818608E-02  0.1130116E+00
         25   -1    0    0    0    0  0.00000000000E+00  0.00000000000E+00  0.99999998245E-14  0.12500000000E+03  0.12500000000E+03 0.  0.
        -11    1    3    3    0    0  0.12272037032E+00 -0.37168638843E+02 -0.47991188230E+02  0.60701539699E+02  0.51100000000E-03 0. -1.
         23    2    1    0    0    0  0.69529037993E+01 -0.21962067354E+02 -0.15455258753E+02  0.97259410662E+02  0.93219379238E+02 0.  0.
         11    1    3    3    0    0  0.68301834290E+01  0.15206571490E+02  0.32535929478E+02  0.36557870963E+02  0.51100000000E-03 0.  1.
         22    1    1    0    0    0 -0.69529037993E+01  0.21962067354E+02  0.15455258753E+02  0.27740589338E+02  0.00000000000E+00 0. -1.
</event>
<event>
 5    1  0.6690694E-004  0.9118800E+02  0.7818608E-02  0.1130116E+00
         25   -1    0    0    0    0  0.00000000000E+00  0.00000000000E+00  0.99999998245E-14  0.12500000000E+03  0.12500000000E+03 0.  0.
        -11    1    3    3    0    0  0.13033349704E+02 -0.37731601871E+02  0.26256860561E+02  0.47780379980E+02  0.51100000000E-03 0. -1.
         23    2    1    0    0    0 -0.17159782000E+02 -0.24968457042E+02 -0.63819911639E+01  0.94038543694E+02  0.88795472427E+02 0.  0.
         11    1    3    3    0    0 -0.30193131704E+02  0.12763144829E+02 -0.32638851725E+02  0.46258163714E+02  0.51100000000E-03 0.  1.
         22    1    1    0    0    0  0.17159782000E+02  0.24968457042E+02  0.63819911639E+01  0.30961456306E+02  0.00000000000E+00 0. -1.
</event>
<event>
 5    1  0.6690694E-004  0.9118800E+02  0.7818608E-02  0.1130116E+00
         25   -1    0    0    0    0  0.00000000000E+00  0.00000000000E+00  0.99999998245E-14  0.12500000000E+03  0.12500000000E+03 0.  0.
        -11    1    3    3    0    0  0.15012827278E+01  0.49731584784E+02 -0.14098796061E+02  0.51713251935E+02  0.51100000000E-03 0.  1.
         23    2    1    0    0    0  0.42732207016E+01  0.93460986697E+01 -0.28519336797E+02  0.94685604956E+02  0.89701734872E+02 0.  0.
         11    1    3    3    0    0  0.27719379738E+01 -0.40385486115E+02 -0.14420540736E+02  0.42972353022E+02  0.51100000000E-03 0. -1.
         22    1    1    0    0    0 -0.42732207016E+01 -0.93460986697E+01  0.28519336797E+02  0.30314395044E+02  0.00000000000E+00 0.  1.
</event>
<event>
 5    1  0.6690694E-004  0.9118800E+02  0.7818608E-02  0.1130116E+00
         25   -1    0    0    0    0  0.00000000000E+00  0.00000000000E+00  0.99999998245E-14  0.12500000000E+03  0.12500000000E+03 0.  0.
        -11    1    3    3    0    0 -0.91407076748E+01 -0.48297131602E+02  0.18136119130E+02  0.52393551847E+02  0.51100000000E-03 0.  1.
         23    2    1    0    0    0 -0.14940010086E+02 -0.57142488283E+01  0.24400789056E+02  0.95823724576E+02  0.91273934637E+02 0.  0.
         11    1    3    3    0    0 -0.57993024108E+01  0.42582882774E+02  0.62646699261E+01  0.43430172729E+02  0.51100000000E-03 0. -1.
         22    1    1    0    0    0  0.14940010086E+02  0.57142488283E+01 -0.24400789056E+02  0.29176275424E+02  0.00000000000E+00 0.  1.
</event>
<event>
 5    1  0.6690694E-004  0.9118800E+02  0.7818608E-02  0.1130116E+00
         25   -1    0    0    0    0  0.00000000000E+00  0.00000000000E+00  0.99999998245E-14  0.12500000000E+03  0.12500000000E+03 0.  0.
        -11    1    3    3    0    0 -0.82193072843E+01 -0.52735805885E+02 -0.16767545890E+02  0.55944372640E+02  0.51100000000E-03 0. -1.
         23    2    1    0    0    0 -0.19190403540E+02 -0.22066920440E+02  0.52884230620E+01  0.95281521166E+02  0.90528339715E+02 0.  0.
         11    1    3    3    0    0 -0.10971096255E+02  0.30668885446E+02  0.22055968952E+02  0.39337148527E+02  0.51100000000E-03 0.  1.
         22    1    1    0    0    0  0.19190403540E+02  0.22066920440E+02 -0.52884230620E+01  0.29718478834E+02  0.00000000000E+00 0. -1.
</event>
<event>
 5    1  0.6690694E-004  0.9118800E+02  0.7818608E-02  0.1130116E+00
         25   -1    0    0    0    0  0.00000000000E+00  0.00000000000E+00  0.99999998245E-14  0.12500000000E+03  0.12500000000E+03 0.  0.
        -11    1    3    3    0    0  0.35914456251E+02  0.10773864782E+01  0.12495359454E+02  0.38041331963E+02  0.51100000000E-03 0. -1.
         23    2    1    0    0    0 -0.62401263443E+01 -0.15476669069E+02 -0.23698469273E+02  0.96015798990E+02  0.91536603321E+02 0.  0.
         11    1    3    3    0    0 -0.42154582595E+02 -0.16554055548E+02 -0.36193828727E+02  0.57974467027E+02  0.51100000000E-03 0.  1.
         22    1    1    0    0    0  0.62401263443E+01  0.15476669069E+02  0.23698469273E+02  0.28984201010E+02  0.00000000000E+00 0.  1.
</event>
<event>
 5    1  0.6690694E-004  0.9118800E+02  0.7818608E-02  0.1130116E+00
         25   -1    0    0    0    0  0.00000000000E+00  0.00000000000E+00  0.99999998245E-14  0.12500000000E+03  0.12500000000E+03 0.  0.
        -11    1    3    3    0    0  0.20348036431E+02  0.21786801400E+02  0.17911920511E+02  0.34778501959E+02  0.51100000000E-03 0. -1.
         23    2    1    0    0    0 -0.24539346823E+02 -0.15576557935E+02 -0.22748511725E+00  0.95933516741E+02  0.91424171777E+02 0.  0.
         11    1    3    3    0    0 -0.44887383254E+02 -0.37363359335E+02 -0.18139405628E+02  0.61155014782E+02  0.51100000000E-03 0.  1.
         22    1    1    0    0    0  0.24539346823E+02  0.15576557935E+02  0.22748511725E+00  0.29066483259E+02  0.00000000000E+00 0.  1.
</event>
<event>
 5    1  0.6690694E-004  0.9118800E+02  0.7818608E-02  0.1130116E+00
         25   -1    0    0    0    0  0.00000000000E+00  0.00000000000E+00  0.99999998245E-14  0.12500000000E+03  0.12500000000E+03 0.  0.
        -11    1    3    3    0    0 -0.40578811294E+02 -0.37656454434E+02 -0.27651267792E+02  0.61880862125E+02  0.51100000000E-03 0.  1.
         23    2    1    0    0    0 -0.15496915451E+02 -0.22154291182E+02 -0.10471442632E+02  0.96006584936E+02  0.91524019984E+02 0.  0.
         11    1    3    3    0    0  0.25081895844E+02  0.15502163252E+02  0.17179825160E+02  0.34125722811E+02  0.51100000000E-03 0. -1.
         22    1    1    0    0    0  0.15496915451E+02  0.22154291182E+02  0.10471442632E+02  0.28993415064E+02  0.00000000000E+00 0.  1.
</event>
<event>
 5    1  0.6690694E-004  0.9118800E+02  0.7818608E-02  0.1130116E+00
         25   -1    0    0    0    0  0.00000000000E+00  0.00000000000E+00  0.99999998245E-14  0.12500000000E+03  0.12500000000E+03 0.  0.
        -11    1    3    3    0    0 -0.35409354813E+02  0.31547921221E+02  0.31546133857E+01  0.47529415392E+02  0.51100000000E-03 0.  1.
         23    2    1    0    0    0  0.12274949296E+01 -0.32504237128E+00  0.24423395278E+02  0.10054361774E+03  0.97523865976E+02 0.  0.
         11    1    3    3    0    0  0.36636849742E+02 -0.31872963592E+02  0.21268781892E+02  0.53014202348E+02  0.51100000000E-03 0. -1.
         22    1    1    0    0    0 -0.12274949296E+01  0.32504237128E+00 -0.24423395278E+02  0.24456382260E+02  0.00000000000E+00 0. -1.
</event>
<event>
 5    1  0.6690694E-004  0.9118800E+02  0.7818608E-02  0.1130116E+00
         25   -1    0    0    0    0  0.00000000000E+00  0.00000000000E+00  0.99999998245E-14  0.12500000000E+03  0.12500000000E+03 0.  0.
        -11    1    3    3    0    0 -0.37019613703E+02  0.30689015399E+02  0.27305291872E+02  0.55297797690E+02  0.51100000000E-03 0.  1.
         23    2    1    0    0    0 -0.26352916731E+01  0.28292307581E+02  0.55757481256E+01  0.96043335869E+02  0.91574199244E+02 0.  0.
         11    1    3    3    0    0  0.34384322030E+02 -0.23967078182E+01 -0.21729543746E+02  0.40745538179E+02  0.51100000000E-03 0. -1.
         22    1    1    0    0    0  0.26352916731E+01 -0.28292307581E+02 -0.55757481256E+01  0.28956664131E+02  0.00000000000E+00 0.  1.
</event>
<event>
 5    1  0.6690694E-004  0.9118800E+02  0.7818608E-02  0.1130116E+00
         25   -1    0    0    0    0  0.00000000000E+00  0.00000000000E+00  0.99999998245E-14  0.12500000000E+03  0.12500000000E+03 0.  0.
        -11    1    3    3    0    0 -0.47996397866E+01  0.14617074700E+02  0.30954201711E+02  0.34566718367E+02  0.51100000000E-03 0. -1.
         23    2    1    0    0    0 -0.18790509366E+01  0.25443163692E+01 -0.29017208784E+02  0.95810913275E+02  0.91256387825E+02 0.  0.
         11    1    3    3    0    0  0.29205888500E+01 -0.12072758330E+02 -0.59971410495E+02  0.61244194908E+02  0.51100000000E-03 0.  1.
         22    1    1    0    0    0  0.18790509366E+01 -0.25443163692E+01  0.29017208784E+02  0.29189086725E+02  0.00000000000E+00 0.  1.
</event>
<event>
 5    1  0.6690694E-004  0.9118800E+02  0.7818608E-02  0.1130116E+00
         25   -1    0    0    0    0  0.00000000000E+00  0.00000000000E+00  0.99999998245E-14  0.12500000000E+03  0.12500000000E+03 0.  0.
        -11    1    3    3    0    0 -0.39776449556E+02 -0.63841119451E+00 -0.48194993320E+01  0.40072447919E+02  0.51100000000E-03 0. -1.
         23    2    1    0    0    0  0.70125941193E+01  0.27773039998E+02 -0.90086274409E+01  0.94972119698E+02  0.90100110569E+02 0.  0.
         11    1    3    3    0    0  0.46789043675E+02  0.28411451193E+02 -0.41891281089E+01  0.54899671780E+02  0.51100000000E-03 0.  1.
         22    1    1    0    0    0 -0.70125941193E+01 -0.27773039998E+02  0.90086274409E+01  0.30027880302E+02  0.00000000000E+00 0.  1.
</event>
<event>
 5    1  0.6690694E-004  0.9118800E+02  0.7818608E-02  0.1130116E+00
         25   -1    0    0    0    0  0.00000000000E+00  0.00000000000E+00  0.99999998245E-14  0.12500000000E+03  0.12500000000E+03 0.  0.
        -11    1    3    3    0    0 -0.14257255925E+02 -0.36285111801E+01 -0.34194776433E+02  0.37225235734E+02  0.51100000000E-03 0.  1.
         23    2    1    0    0    0  0.29365766220E+02  0.88843079304E+00  0.39591856607E+01  0.95355224979E+02  0.90630051554E+02 0.  0.
         11    1    3    3    0    0  0.43623022145E+02  0.45169419732E+01  0.38153962094E+02  0.58129989245E+02  0.51100000000E-03 0. -1.
         22    1    1    0    0    0 -0.29365766220E+02 -0.88843079304E+00 -0.39591856607E+01  0.29644775021E+02  0.00000000000E+00 0. -1.
</event>
<event>
 5    1  0.6690694E-004  0.9118800E+02  0.7818608E-02  0.1130116E+00
         25   -1    0    0    0    0  0.00000000000E+00  0.00000000000E+00  0.99999998245E-14  0.12500000000E+03  0.12500000000E+03 0.  0.
        -11    1    3    3    0    0  0.77790079849E+01  0.21725044182E+02 -0.56614123162E+02  0.61136318597E+02  0.51100000000E-03 0.  1.
         23    2    1    0    0    0 -0.27419017400E+01  0.19950507860E+01 -0.24491610420E+02  0.10027476524E+03  0.97178656664E+02 0.  0.
         11    1    3    3    0    0 -0.10520909725E+02 -0.19729993396E+02  0.32122512742E+02  0.39138446647E+02  0.51100000000E-03 0. -1.
         22    1    1    0    0    0  0.27419017400E+01 -0.19950507860E+01  0.24491610420E+02  0.24725234756E+02  0.00000000000E+00 0.  1.
</event>
<event>
 5    1  0.6690694E-004  0.9118800E+02  0.7818608E-02  0.1130116E+00
         25   -1    0    0    0    0  0.00000000000E+00  0.00000000000E+00  0.99999998245E-14  0.12500000000E+03  0.12500000000E+03 0.  0.
        -11    1    3    3    0    0 -0.21980501076E+01 -0.18445237997E+02 -0.29376896917E+02  0.34757161878E+02  0.51100000000E-03 0.  1.
         23    2    1    0    0    0 -0.91801635148E+01  0.94831753703E+01  0.25251725277E+02  0.96506919319E+02  0.92204825414E+02 0.  0.
         11    1    3    3    0    0 -0.69821134072E+01  0.27928413368E+02  0.54628622194E+02  0.61749757441E+02  0.51100000000E-03 0. -1.
         22    1    1    0    0    0  0.91801635148E+01 -0.94831753703E+01 -0.25251725277E+02  0.28493080681E+02  0.00000000000E+00 0. -1.
</event>
<event>
 5    1  0.6690694E-004  0.9118800E+02  0.7818608E-02  0.1130116E+00
         25   -1    0    0    0    0  0.00000000000E+00  0.00000000000E+00  0.99999998245E-14  0.12500000000E+03  0.12500000000E+03 0.  0.
        -11    1    3    3    0    0  0.46157964758E+01 -0.38214465686E+02  0.17538848250E+01  0.38532156402E+02  0.51100000000E-03 0. -1.
         23    2    1    0    0    0  0.10367590988E+02  0.12742782006E+02 -0.23999627688E+02  0.95916541380E+02  0.91400959213E+02 0.  0.
         11    1    3    3    0    0  0.57517945120E+01  0.50957247691E+02 -0.25753512513E+02  0.57384384979E+02  0.51100000000E-03 0.  1.
         22    1    1    0    0    0 -0.10367590988E+02 -0.12742782006E+02  0.23999627688E+02  0.29083458620E+02  0.00000000000E+00 0.  1.
</event>
<event>
 5    1  0.6690694E-004  0.9118800E+02  0.7818608E-02  0.1130116E+00
         25   -1    0    0    0    0  0.00000000000E+00  0.00000000000E+00  0.99999998245E-14  0.12500000000E+03  0.12500000000E+03 0.  0.
        -11    1    3    3    0    0 -0.41005961262E+02 -0.98605643467E+01  0.40218593639E+01  0.42366200458E+02  0.51100000000E-03 0.  1.
         23    2    1    0    0    0  0.68359446657E+01 -0.29548498346E+02 -0.27707939591E+01  0.94544767393E+02  0.89505261567E+02 0.  0.
         11    1    3    3    0    0  0.47841905927E+02 -0.19687934000E+02 -0.67926533231E+01  0.52178566935E+02  0.51100000000E-03 0. -1.
         22    1    1    0    0    0 -0.68359446657E+01  0.29548498346E+02  0.27707939591E+01  0.30455232607E+02  0.00000000000E+00 0. -1.
</event>
<event>
 5    1  0.6690694E-004  0.9118800E+02  0.7818608E-02  0.1130116E+00
         25   -1    0    0    0    0  0.00000000000E+00  0.00000000000E+00  0.99999998245E-14  0.12500000000E+03  0.12500000000E+03 0.  0.
        -11    1    3    3    0    0 -0.15974027680E+02  0.22048987280E+02 -0.24818838351E+02  0.36841581640E+02  0.51100000000E-03 0. -1.
         23    2    1    0    0    0  0.12581227291E+02 -0.25879847259E+02 -0.74051100122E+01  0.95286544654E+02  0.90535275796E+02 0.  0.
         11    1    3    3    0    0  0.28555254971E+02 -0.47928834539E+02  0.17413728339E+02  0.58444963014E+02  0.51100000000E-03 0.  1.
         22    1    1    0    0    0 -0.12581227291E+02  0.25879847259E+02  0.74051100122E+01  0.29713455346E+02  0.00000000000E+00 0.  1.
</event>
<event>
 5    1  0.6690694E-004  0.9118800E+02  0.7818608E-02  0.1130116E+00
         25   -1    0    0    0    0  0.00000000000E+00  0.00000000000E+00  0.99999998245E-14  0.12500000000E+03  0.12500000000E+03 0.  0.
        -11    1    3    3    0    0  0.11286021941E+02  0.37568081728E+01 -0.39861893038E+02  0.41598779017E+02  0.51100000000E-03 0. -1.
         23    2    1    0    0    0  0.14093884782E+01  0.21768192255E+02  0.13888196684E+02  0.99140329139E+02  0.95708318785E+02 0.  0.
         11    1    3    3    0    0 -0.98766334624E+01  0.18011384082E+02  0.53750089721E+02  0.57541550122E+02  0.51100000000E-03 0.  1.
         22    1    1    0    0    0 -0.14093884782E+01 -0.21768192255E+02 -0.13888196684E+02  0.25859670861E+02  0.00000000000E+00 0.  1.
</event>
<event>
 5    1  0.6690694E-004  0.9118800E+02  0.7818608E-02  0.1130116E+00
         25   -1    0    0    0    0  0.00000000000E+00  0.00000000000E+00  0.99999998245E-14  0.12500000000E+03  0.12500000000E+03 0.  0.
        -11    1    3    3    0    0  0.62887824864E+01  0.88405004485E+01 -0.33039718163E+02  0.34775367861E+02  0.51100000000E-03 0. -1.
         23    2    1    0    0    0 -0.44720609699E+01  0.55699056447E+01  0.27621213734E+02  0.96470109948E+02  0.92154910271E+02 0.  0.
         11    1    3    3    0    0 -0.10760843456E+02 -0.32705948038E+01  0.60660931897E+02  0.61694742087E+02  0.51100000000E-03 0.  1.
         22    1    1    0    0    0  0.44720609699E+01 -0.55699056447E+01 -0.27621213734E+02  0.28529890052E+02  0.00000000000E+00 0.  1.
</event>
<event>
 5    1  0.6690694E-004  0.9118800E+02  0.7818608E-02  0.1130116E+00
         25   -1    0    0    0    0  0.00000000000E+00  0.00000000000E+00  0.99999998245E-14  0.12500000000E+03  0.12500000000E+03 0.  0.
        -11    1    3    3    0    0 -0.26459351442E+02 -0.19757484416E+02  0.28870797174E+02  0.43863178167E+02  0.51100000000E-03 0. -1.
         23    2    1    0    0    0 -0.24292923046E+02  0.41144292862E+01 -0.16617841901E+02  0.95280859570E+02  0.90527426189E+02 0.  0.
         11    1    3    3    0    0  0.21664283957E+01  0.23871913702E+02 -0.45488639074E+02  0.51417681403E+02  0.51100000000E-03 0.  1.
         22    1    1    0    0    0  0.24292923046E+02 -0.41144292862E+01  0.16617841901E+02  0.29719140430E+02  0.00000000000E+00 0. -1.
</event>
<event>
 5    1  0.6690694E-004  0.9118800E+02  0.7818608E-02  0.1130116E+00
         25   -1    0    0    0    0  0.00000000000E+00  0.00000000000E+00  0.99999998245E-14  0.12500000000E+03  0.12500000000E+03 0.  0.
        -11    1    3    3    0    0  0.11252261355E+02  0.36144632294E+02 -0.50343052688E+01  0.38188899684E+02  0.51100000000E-03 0. -1.
         23    2    1    0    0    0 -0.53548309996E+01 -0.38491623746E+01  0.30244479070E+02  0.94044890886E+02  0.88804407106E+02 0.  0.
         11    1    3    3    0    0 -0.16607092354E+02 -0.39993794669E+02  0.35278784339E+02  0.55855991202E+02  0.51100000000E-03 0.  1.
         22    1    1    0    0    0  0.53548309996E+01  0.38491623746E+01 -0.30244479070E+02  0.30955109114E+02  0.00000000000E+00 0.  1.
</event>
<event>
 5    1  0.6690694E-004  0.9118800E+02  0.7818608E-02  0.1130116E+00
         25   -1    0    0    0    0  0.00000000000E+00  0.00000000000E+00  0.99999998245E-14  0.12500000000E+03  0.12500000000E+03 0.  0.
        -11    1    3    3    0    0  0.96022064916E+01 -0.33100631310E+02  0.39248369647E+00  0.34467494924E+02  0.51100000000E-03 0.  1.
         23    2    1    0    0    0 -0.27471465358E+02  0.54148360513E+01 -0.18807188328E+02  0.91270010507E+02  0.84808623540E+02 0.  0.
         11    1    3    3    0    0 -0.37073671850E+02  0.38515467361E+02 -0.19199672024E+02  0.56802515583E+02  0.51100000000E-03 0. -1.
         22    1    1    0    0    0  0.27471465358E+02 -0.54148360513E+01  0.18807188328E+02  0.33729989493E+02  0.00000000000E+00 0. -1.
</event>
<event>
 5    1  0.6690694E-004  0.9118800E+02  0.7818608E-02  0.1130116E+00
         25   -1    0    0    0    0  0.00000000000E+00  0.00000000000E+00  0.99999998245E-14  0.12500000000E+03  0.12500000000E+03 0.  0.
        -11    1    3    3    0    0  0.43009364562E+02 -0.33402216854E+02 -0.16050898882E+02  0.56772747741E+02  0.51100000000E-03 0.  1.
         23    2    1    0    0    0  0.27754713928E+02  0.18498807214E+01 -0.84485593076E+01  0.95928977344E+02  0.91417965062E+02 0.  0.
         11    1    3    3    0    0 -0.15254650635E+02  0.35252097576E+02  0.76023395749E+01  0.39156229603E+02  0.51100000000E-03 0. -1.
         22    1    1    0    0    0 -0.27754713928E+02 -0.18498807214E+01  0.84485593076E+01  0.29071022656E+02  0.00000000000E+00 0.  1.
</event>
<event>
 5    1  0.6690694E-004  0.9118800E+02  0.7818608E-02  0.1130116E+00
         25   -1    0    0    0    0  0.00000000000E+00  0.00000000000E+00  0.99999998245E-14  0.12500000000E+03  0.12500000000E+03 0.  0.
        -11    1    3    3    0    0 -0.26387859613E+02  0.49707624372E+02 -0.21753523458E+01  0.56319616598E+02  0.51100000000E-03 0.  1.
         23    2    1    0    0    0 -0.25661773509E+02  0.98823699144E+01 -0.74769517295E+01  0.96502760451E+02  0.92199187159E+02 0.  0.
         11    1    3    3    0    0  0.72608610453E+00 -0.39825254457E+02 -0.53015993837E+01  0.40183143853E+02  0.51100000000E-03 0. -1.
         22    1    1    0    0    0  0.25661773509E+02 -0.98823699144E+01  0.74769517295E+01  0.28497239549E+02  0.00000000000E+00 0.  1.
</event>
<event>
 5    1  0.6690694E-004  0.9118800E+02  0.7818608E-02  0.1130116E+00
         25   -1    0    0    0    0  0.00000000000E+00  0.00000000000E+00  0.99999998245E-14  0.12500000000E+03  0.12500000000E+03 0.  0.
        -11    1    3    3    0    0  0.87016592959E+01  0.40541927216E+02 -0.83032737632E+01  0.42288427404E+02  0.51100000000E-03 0. -1.
         23    2    1    0    0    0 -0.18227510670E+02 -0.25098027025E+01 -0.23369461989E+02  0.95256546796E+02  0.90493848957E+02 0.  0.
         11    1    3    3    0    0 -0.26929169966E+02 -0.43051729918E+02 -0.15066188226E+02  0.52968119392E+02  0.51100000000E-03 0.  1.
         22    1    1    0    0    0  0.18227510670E+02  0.25098027025E+01  0.23369461989E+02  0.29743453204E+02  0.00000000000E+00 0.  1.
</event>
<event>
 5    1  0.6690694E-004  0.9118800E+02  0.7818608E-02  0.1130116E+00
         25   -1    0    0    0    0  0.00000000000E+00  0.00000000000E+00  0.99999998245E-14  0.12500000000E+03  0.12500000000E+03 0.  0.
        -11    1    3    3    0    0 -0.32532600811E+02  0.21832232195E+02  0.14824766925E+02  0.41890215955E+02  0.51100000000E-03 0.  1.
         23    2    1    0    0    0  0.85300848994E+01  0.36985353250E+02  0.54189439242E+01  0.86658851651E+02  0.77715589896E+02 0.  0.
         11    1    3    3    0    0  0.41062685711E+02  0.15153121056E+02 -0.94058230010E+01  0.44768635696E+02  0.51100000000E-03 0. -1.
         22    1    1    0    0    0 -0.85300848994E+01 -0.36985353250E+02 -0.54189439242E+01  0.38341148349E+02  0.00000000000E+00 0.  1.
</event>
<event>
 5    1  0.6690694E-004  0.9118800E+02  0.7818608E-02  0.1130116E+00
         25   -1    0    0    0    0  0.00000000000E+00  0.00000000000E+00  0.99999998245E-14  0.12500000000E+03  0.12500000000E+03 0.  0.
        -11    1    3    3    0    0 -0.11242747120E+02  0.12985859180E+02 -0.40359434115E+02  0.43862464862E+02  0.51100000000E-03 0.  1.
         23    2    1    0    0    0  0.18235316241E+02 -0.19124226665E+02 -0.11235518472E+02  0.96285897554E+02  0.91904702755E+02 0.  0.
         11    1    3    3    0    0  0.29478063361E+02 -0.32110085846E+02  0.29123915643E+02  0.52423432691E+02  0.51100000000E-03 0. -1.
         22    1    1    0    0    0 -0.18235316241E+02  0.19124226665E+02  0.11235518472E+02  0.28714102446E+02  0.00000000000E+00 0.  1.
</event>
<event>
 5    1  0.6690694E-004  0.9118800E+02  0.7818608E-02  0.1130116E+00
         25   -1    0    0    0    0  0.00000000000E+00  0.00000000000E+00  0.99999998245E-14  0.12500000000E+03  0.12500000000E+03 0.  0.
        -11    1    3    3    0    0  0.11830900689E+02  0.74432325323E+01 -0.27108890269E+02  0.30500227106E+02  0.51100000000E-03 0. -1.
         23    2    1    0    0    0 -0.18319953578E+02 -0.20427721788E+02  0.18529558487E+02  0.91890227209E+02  0.85717890795E+02 0.  0.
         11    1    3    3    0    0 -0.30150854266E+02 -0.27870954320E+02  0.45638448755E+02  0.61390000104E+02  0.51100000000E-03 0.  1.
         22    1    1    0    0    0  0.18319953578E+02  0.20427721788E+02 -0.18529558487E+02  0.33109772791E+02  0.00000000000E+00 0.  1.
</event>
<event>
 5    1  0.6690694E-004  0.9118800E+02  0.7818608E-02  0.1130116E+00
         25   -1    0    0    0    0  0.00000000000E+00  0.00000000000E+00  0.99999998245E-14  0.12500000000E+03  0.12500000000E+03 0.  0.
        -11    1    3    3    0    0 -0.35664100014E+01 -0.10236824071E+02  0.29707791395E+02  0.31623799854E+02  0.51100000000E-03 0.  1.
         23    2    1    0    0    0  0.21090680168E+02 -0.16613887400E+02 -0.22667054980E+02  0.89862649133E+02  0.82708296339E+02 0.  0.
         11    1    3    3    0    0  0.24657090169E+02 -0.63770633285E+01 -0.52374846375E+02  0.58238849279E+02  0.51100000000E-03 0. -1.
         22    1    1    0    0    0 -0.21090680168E+02  0.16613887400E+02  0.22667054980E+02  0.35137350867E+02  0.00000000000E+00 0. -1.
</event>
<event>
 5    1  0.6690694E-004  0.9118800E+02  0.7818608E-02  0.1130116E+00
         25   -1    0    0    0    0  0.00000000000E+00  0.00000000000E+00  0.99999998245E-14  0.12500000000E+03  0.12500000000E+03 0.  0.
        -11    1    3    3    0    0  0.74269508259E+01  0.11611398644E+01  0.32694679237E+02  0.33547725631E+02  0.51100000000E-03 0.  1.
         23    2    1    0    0    0 -0.87493007983E+01  0.17227340846E+02 -0.23726588300E+02  0.94401265885E+02  0.89304627378E+02 0.  0.
         11    1    3    3    0    0 -0.16176251624E+02  0.16066200982E+02 -0.56421267537E+02  0.60853540253E+02  0.51100000000E-03 0. -1.
         22    1    1    0    0    0  0.87493007983E+01 -0.17227340846E+02  0.23726588300E+02  0.30598734115E+02  0.00000000000E+00 0. -1.
</event>
<event>
 5    1  0.6690694E-004  0.9118800E+02  0.7818608E-02  0.1130116E+00
         25   -1    0    0    0    0  0.00000000000E+00  0.00000000000E+00  0.99999998245E-14  0.12500000000E+03  0.12500000000E+03 0.  0.
        -11    1    3    3    0    0 -0.31667189232E+02 -0.19275470941E+00 -0.14468920539E+02  0.34816629504E+02  0.51100000000E-03 0.  1.
         23    2    1    0    0    0  0.27317874382E+02  0.69053478785E+01  0.27946044336E+01  0.96684634843E+02  0.92445436397E+02 0.  0.
         11    1    3    3    0    0  0.58985063613E+02  0.70981025879E+01  0.17263524973E+02  0.61868005338E+02  0.51100000000E-03 0. -1.
         22    1    1    0    0    0 -0.27317874382E+02 -0.69053478785E+01 -0.27946044336E+01  0.28315365157E+02  0.00000000000E+00 0. -1.
</event>
<event>
 5    1  0.6690694E-004  0.9118800E+02  0.7818608E-02  0.1130116E+00
         25   -1    0    0    0    0  0.00000000000E+00  0.00000000000E+00  0.99999998245E-14  0.12500000000E+03  0.12500000000E+03 0.  0.
        -11    1    3    3    0    0 -0.31815731125E+02  0.37590317964E+02  0.30577078571E+02  0.57967495080E+02  0.51100000000E-03 0. -1.
         23    2    1    0    0    0 -0.12030927293E+02  0.27165470563E+02  0.70740354393E+00  0.95281210957E+02  0.90527911382E+02 0.  0.
         11    1    3    3    0    0  0.19784803832E+02 -0.10424847402E+02 -0.29869675027E+02  0.37313715877E+02  0.51100000000E-03 0.  1.
         22    1    1    0    0    0  0.12030927293E+02 -0.27165470563E+02 -0.70740354393E+00  0.29718789043E+02  0.00000000000E+00 0. -1.
</event>
<event>
 5    1  0.6690694E-004  0.9118800E+02  0.7818608E-02  0.1130116E+00
         25   -1    0    0    0    0  0.00000000000E+00  0.00000000000E+00  0.99999998245E-14  0.12500000000E+03  0.12500000000E+03 0.  0.
        -11    1    3    3    0    0  0.30905126994E+02  0.17814451232E+01  0.23488433911E+02  0.38858807870E+02  0.51100000000E-03 0.  1.
         23    2    1    0    0    0 -0.20809030280E+02 -0.17437893047E+02  0.12493558650E+02  0.95113801465E+02  0.90296458216E+02 0.  0.
         11    1    3    3    0    0 -0.51714157273E+02 -0.19219338170E+02 -0.10994875261E+02  0.56254993596E+02  0.51100000000E-03 0. -1.
         22    1    1    0    0    0  0.20809030280E+02  0.17437893047E+02 -0.12493558650E+02  0.29886198535E+02  0.00000000000E+00 0. -1.
</event>
<event>
 5    1  0.6690694E-004  0.9118800E+02  0.7818608E-02  0.1130116E+00
         25   -1    0    0    0    0  0.00000000000E+00  0.00000000000E+00  0.99999998245E-14  0.12500000000E+03  0.12500000000E+03 0.  0.
        -11    1    3    3    0    0 -0.21690452439E+02 -0.45015424120E+02  0.27142285223E+02  0.56864468547E+02  0.51100000000E-03 0.  1.
         23    2    1    0    0    0  0.82548890100E+01 -0.24999306745E+02  0.13802107357E+02  0.95274477333E+02  0.90518613187E+02 0.  0.
         11    1    3    3    0    0  0.29945341449E+02  0.20016117375E+02 -0.13340177866E+02  0.38410008787E+02  0.51100000000E-03 0. -1.
         22    1    1    0    0    0 -0.82548890100E+01  0.24999306745E+02 -0.13802107357E+02  0.29725522667E+02  0.00000000000E+00 0.  1.
</event>
<event>
 5    1  0.6690694E-004  0.9118800E+02  0.7818608E-02  0.1130116E+00
         25   -1    0    0    0    0  0.00000000000E+00  0.00000000000E+00  0.99999998245E-14  0.12500000000E+03  0.12500000000E+03 0.  0.
        -11    1    3    3    0    0  0.22206546381E+02 -0.12646365550E+02  0.45259623243E+02  0.51975905573E+02  0.51100000000E-03 0.  1.
         23    2    1    0    0    0  0.55744181130E+01  0.18888748900E+02  0.25637574837E+02  0.92671309711E+02  0.86849452662E+02 0.  0.
         11    1    3    3    0    0 -0.16632128268E+02  0.31535114449E+02 -0.19622048405E+02  0.40695404138E+02  0.51100000000E-03 0. -1.
         22    1    1    0    0    0 -0.55744181130E+01 -0.18888748900E+02 -0.25637574837E+02  0.32328690289E+02  0.00000000000E+00 0.  1.
</event>
<event>
 5    1  0.6690694E-004  0.9118800E+02  0.7818608E-02  0.1130116E+00
         25   -1    0    0    0    0  0.00000000000E+00  0.00000000000E+00  0.99999998245E-14  0.12500000000E+03  0.12500000000E+03 0.  0.
        -11    1    3    3    0    0  0.26424153800E+02 -0.50484518864E+02  0.11829531096E+02  0.58196738355E+02  0.51100000000E-03 0.  1.
         23    2    1    0    0    0 -0.28645868768E+01 -0.27302675759E+02 -0.53344849910E+00  0.97542277427E+02  0.93597913208E+02 0.  0.
         11    1    3    3    0    0 -0.29288740676E+02  0.23181843105E+02 -0.12362979595E+02  0.39345539072E+02  0.51100000000E-03 0. -1.
         22    1    1    0    0    0  0.28645868768E+01  0.27302675759E+02  0.53344849910E+00  0.27457722573E+02  0.00000000000E+00 0.  1.
</event>
<event>
 5    1  0.6690694E-004  0.9118800E+02  0.7818608E-02  0.1130116E+00
         25   -1    0    0    0    0  0.00000000000E+00  0.00000000000E+00  0.99999998245E-14  0.12500000000E+03  0.12500000000E+03 0.  0.
        -11    1    3    3    0    0  0.28165621448E+02 -0.49947561817E+02 -0.13899848350E+01  0.57358462506E+02  0.51100000000E-03 0. -1.
         23    2    1    0    0    0  0.44363805011E+01 -0.21129141490E+02 -0.16698444639E+02  0.97706041961E+02  0.93816365791E+02 0.  0.
         11    1    3    3    0    0 -0.23729240947E+02  0.28818420327E+02 -0.15308459804E+02  0.40347579455E+02  0.51100000000E-03 0.  1.
         22    1    1    0    0    0 -0.44363805011E+01  0.21129141490E+02  0.16698444639E+02  0.27293958039E+02  0.00000000000E+00 0. -1.
</event>
<event>
 5    1  0.6690694E-004  0.9118800E+02  0.7818608E-02  0.1130116E+00
         25   -1    0    0    0    0  0.00000000000E+00  0.00000000000E+00  0.99999998245E-14  0.12500000000E+03  0.12500000000E+03 0.  0.
        -11    1    3    3    0    0  0.54199535681E+02 -0.19983197508E+02  0.17469982564E+01  0.57792472294E+02  0.51100000000E-03 0.  1.
         23    2    1    0    0    0  0.23188675301E+02 -0.54227740563E+00 -0.14294171418E+02  0.97754228520E+02  0.93880547133E+02 0.  0.
         11    1    3    3    0    0 -0.31010860379E+02  0.19440920102E+02 -0.16041169675E+02  0.39961756226E+02  0.51100000000E-03 0. -1.
         22    1    1    0    0    0 -0.23188675301E+02  0.54227740563E+00  0.14294171418E+02  0.27245771480E+02  0.00000000000E+00 0.  1.
</event>
<event>
 5    1  0.6690694E-004  0.9118800E+02  0.7818608E-02  0.1130116E+00
         25   -1    0    0    0    0  0.00000000000E+00  0.00000000000E+00  0.99999998245E-14  0.12500000000E+03  0.12500000000E+03 0.  0.
        -11    1    3    3    0    0 -0.40597328846E+02  0.14083524078E+02 -0.13696250410E+02  0.45100732094E+02  0.51100000000E-03 0.  1.
         23    2    1    0    0    0  0.46217867806E+01 -0.49013473952E+01 -0.28011278183E+02  0.96190004777E+02  0.91774185882E+02 0.  0.
         11    1    3    3    0    0  0.45219115626E+02 -0.18984871473E+02 -0.14315027772E+02  0.51089272683E+02  0.51100000000E-03 0. -1.
         22    1    1    0    0    0 -0.46217867806E+01  0.49013473952E+01  0.28011278183E+02  0.28809995223E+02  0.00000000000E+00 0. -1.
</event>
<event>
 5    1  0.6690694E-004  0.9118800E+02  0.7818608E-02  0.1130116E+00
         25   -1    0    0    0    0  0.00000000000E+00  0.00000000000E+00  0.99999998245E-14  0.12500000000E+03  0.12500000000E+03 0.  0.
        -11    1    3    3    0    0 -0.26664123543E+02  0.24507063671E+02  0.31267722320E+01  0.36350355692E+02  0.51100000000E-03 0.  1.
         23    2    1    0    0    0  0.91390654671E+01 -0.24348169133E+02  0.96282234747E+01  0.97268095179E+02  0.93231023778E+02 0.  0.
         11    1    3    3    0    0  0.35803189010E+02 -0.48855232804E+02  0.65014512427E+01  0.60917739486E+02  0.51100000000E-03 0. -1.
         22    1    1    0    0    0 -0.91390654671E+01  0.24348169133E+02 -0.96282234747E+01  0.27731904821E+02  0.00000000000E+00 0. -1.
</event>
<event>
 5    1  0.6690694E-004  0.9118800E+02  0.7818608E-02  0.1130116E+00
         25   -1    0    0    0    0  0.00000000000E+00  0.00000000000E+00  0.99999998245E-14  0.12500000000E+03  0.12500000000E+03 0.  0.
        -11    1    3    3    0    0 -0.44090658079E+02 -0.15204343878E+02  0.34246187741E+01  0.46764155254E+02  0.51100000000E-03 0.  1.
         23    2    1    0    0    0 -0.71129146411E+01 -0.72267675339E+01  0.30221864950E+02  0.93122408424E+02  0.87496297670E+02 0.  0.
         11    1    3    3    0    0  0.36977743438E+02  0.79775763439E+01  0.26797246176E+02  0.46358253170E+02  0.51100000000E-03 0. -1.
         22    1    1    0    0    0  0.71129146411E+01  0.72267675339E+01 -0.30221864950E+02  0.31877591576E+02  0.00000000000E+00 0.  1.
</event>
<event>
 5    1  0.6690694E-004  0.9118800E+02  0.7818608E-02  0.1130116E+00
         25   -1    0    0    0    0  0.00000000000E+00  0.00000000000E+00  0.99999998245E-14  0.12500000000E+03  0.12500000000E+03 0.  0.
        -11    1    3    3    0    0 -0.86989533124E+01  0.26866235938E+01  0.32798924010E+02  0.34039082707E+02  0.51100000000E-03 0. -1.
         23    2    1    0    0    0  0.44205329127E-01 -0.12023765774E+02 -0.26575851938E+02  0.95830687294E+02  0.91283469607E+02 0.  0.
         11    1    3    3    0    0  0.87431586415E+01 -0.14710389368E+02 -0.59374775948E+02  0.61791604587E+02  0.51100000000E-03 0.  1.
         22    1    1    0    0    0 -0.44205329127E-01  0.12023765774E+02  0.26575851938E+02  0.29169312706E+02  0.00000000000E+00 0.  1.
</event>
<event>
 5    1  0.6690694E-004  0.9118800E+02  0.7818608E-02  0.1130116E+00
         25   -1    0    0    0    0  0.00000000000E+00  0.00000000000E+00  0.99999998245E-14  0.12500000000E+03  0.12500000000E+03 0.  0.
        -11    1    3    3    0    0  0.13846002939E+02 -0.69181409943E+01 -0.30012298808E+02  0.33768484601E+02  0.51100000000E-03 0. -1.
         23    2    1    0    0    0 -0.46464658239E+01  0.11951174041E+02  0.26172521859E+02  0.95855170166E+02  0.91316989337E+02 0.  0.
         11    1    3    3    0    0 -0.18492468763E+02  0.18869315035E+02  0.56184820667E+02  0.62086685565E+02  0.51100000000E-03 0.  1.
         22    1    1    0    0    0  0.46464658239E+01 -0.11951174041E+02 -0.26172521859E+02  0.29144829834E+02  0.00000000000E+00 0.  1.
</event>
<event>
 5    1  0.6690694E-004  0.9118800E+02  0.7818608E-02  0.1130116E+00
         25   -1    0    0    0    0  0.00000000000E+00  0.00000000000E+00  0.99999998245E-14  0.12500000000E+03  0.12500000000E+03 0.  0.
        -11    1    3    3    0    0 -0.55513872926E+02 -0.38559461395E+01  0.23037665149E+02  0.60227837614E+02  0.51100000000E-03 0.  1.
         23    2    1    0    0    0 -0.19070507156E+02 -0.12716779131E+02  0.10643183154E+02  0.99727919312E+02  0.96472689545E+02 0.  0.
         11    1    3    3    0    0  0.36443365770E+02 -0.88608329919E+01 -0.12394481995E+02  0.39500081698E+02  0.51100000000E-03 0. -1.
         22    1    1    0    0    0  0.19070507156E+02  0.12716779131E+02 -0.10643183154E+02  0.25272080688E+02  0.00000000000E+00 0.  1.
</event>
<event>
 5    1  0.6690694E-004  0.9118800E+02  0.7818608E-02  0.1130116E+00
         25   -1    0    0    0    0  0.00000000000E+00  0.00000000000E+00  0.99999998245E-14  0.12500000000E+03  0.12500000000E+03 0.  0.
        -11    1    3    3    0    0 -0.40626583363E+02 -0.17413651056E+01  0.29877887163E+02  0.50460279129E+02  0.51100000000E-03 0.  1.
         23    2    1    0    0    0 -0.31774606995E+02  0.87928709287E+00 -0.10222742229E+02  0.91609832972E+02  0.85308019804E+02 0.  0.
         11    1    3    3    0    0  0.88519763674E+01  0.26206521985E+01 -0.40100629392E+02  0.41149553843E+02  0.51100000000E-03 0. -1.
         22    1    1    0    0    0  0.31774606995E+02 -0.87928709287E+00  0.10222742229E+02  0.33390167028E+02  0.00000000000E+00 0.  1.
</event>
<event>
 5    1  0.6690694E-004  0.9118800E+02  0.7818608E-02  0.1130116E+00
         25   -1    0    0    0    0  0.00000000000E+00  0.00000000000E+00  0.99999998245E-14  0.12500000000E+03  0.12500000000E+03 0.  0.
        -11    1    3    3    0    0  0.32307205838E+02  0.72396649619E+01  0.37310547628E+02  0.49882314124E+02  0.51100000000E-03 0.  1.
         23    2    1    0    0    0  0.50493904513E+01 -0.22647981011E+02  0.21667588886E+02  0.93252373381E+02  0.87681773165E+02 0.  0.
         11    1    3    3    0    0 -0.27257815387E+02 -0.29887645973E+02 -0.15642958742E+02  0.43370059257E+02  0.51100000000E-03 0. -1.
         22    1    1    0    0    0 -0.50493904513E+01  0.22647981011E+02 -0.21667588886E+02  0.31747626619E+02  0.00000000000E+00 0.  1.
</event>
<event>
 5    1  0.6690694E-004  0.9118800E+02  0.7818608E-02  0.1130116E+00
         25   -1    0    0    0    0  0.00000000000E+00  0.00000000000E+00  0.99999998245E-14  0.12500000000E+03  0.12500000000E+03 0.  0.
        -11    1    3    3    0    0  0.12816332190E+02  0.58511346131E+02  0.76334366426E+01  0.60382988930E+02  0.51100000000E-03 0. -1.
         23    2    1    0    0    0  0.10067113161E+02  0.23786961620E+02  0.13733859016E+02  0.95746193513E+02  0.91167693720E+02 0.  0.
         11    1    3    3    0    0 -0.27492190295E+01 -0.34724384512E+02  0.61004223735E+01  0.35363204583E+02  0.51100000000E-03 0.  1.
         22    1    1    0    0    0 -0.10067113161E+02 -0.23786961620E+02 -0.13733859016E+02  0.29253806487E+02  0.00000000000E+00 0. -1.
</event>
<event>
 5    1  0.6690694E-004  0.9118800E+02  0.7818608E-02  0.1130116E+00
         25   -1    0    0    0    0  0.00000000000E+00  0.00000000000E+00  0.99999998245E-14  0.12500000000E+03  0.12500000000E+03 0.  0.
        -11    1    3    3    0    0 -0.10618813339E+02  0.19449361919E+02  0.28456814731E+02  0.36066981862E+02  0.51100000000E-03 0.  1.
         23    2    1    0    0    0  0.13114733553E+02  0.63089198296E+01 -0.25033618233E+02  0.96043467966E+02  0.91574379558E+02 0.  0.
         11    1    3    3    0    0  0.23733546892E+02 -0.13140442090E+02 -0.53490432964E+02  0.59976486104E+02  0.51100000000E-03 0. -1.
         22    1    1    0    0    0 -0.13114733553E+02 -0.63089198296E+01  0.25033618233E+02  0.28956532034E+02  0.00000000000E+00 0. -1.
</event>
<event>
 5    1  0.6690694E-004  0.9118800E+02  0.7818608E-02  0.1130116E+00
         25   -1    0    0    0    0  0.00000000000E+00  0.00000000000E+00  0.99999998245E-14  0.12500000000E+03  0.12500000000E+03 0.  0.
        -11    1    3    3    0    0  0.42257145774E+01 -0.27054475130E+02  0.33861101384E+02  0.43547393440E+02  0.51100000000E-03 0. -1.
         23    2    1    0    0    0 -0.21722144003E+02 -0.26513770105E+02 -0.50851301993E+01  0.90349024625E+02  0.83440135165E+02 0.  0.
         11    1    3    3    0    0 -0.25947858581E+02  0.54070502479E+00 -0.38946231583E+02  0.46801631185E+02  0.51100000000E-03 0.  1.
         22    1    1    0    0    0  0.21722144003E+02  0.26513770105E+02  0.50851301993E+01  0.34650975375E+02  0.00000000000E+00 0. -1.
</event>
<event>
 5    1  0.6690694E-004  0.9118800E+02  0.7818608E-02  0.1130116E+00
         25   -1    0    0    0    0  0.00000000000E+00  0.00000000000E+00  0.99999998245E-14  0.12500000000E+03  0.12500000000E+03 0.  0.
        -11    1    3    3    0    0  0.19612108934E+02  0.35271500618E+02  0.45637980494E+02  0.60922400121E+02  0.51100000000E-03 0.  1.
         23    2    1    0    0    0  0.12061552189E+00  0.20166663469E+02  0.23173586085E+02  0.94279909577E+02  0.89134602677E+02 0.  0.
         11    1    3    3    0    0 -0.19491493412E+02 -0.15104837149E+02 -0.22464394409E+02  0.33357509457E+02  0.51100000000E-03 0. -1.
         22    1    1    0    0    0 -0.12061552189E+00 -0.20166663469E+02 -0.23173586085E+02  0.30720090423E+02  0.00000000000E+00 0.  1.
</event>
<event>
 5    1  0.6690694E-004  0.9118800E+02  0.7818608E-02  0.1130116E+00
         25   -1    0    0    0    0  0.00000000000E+00  0.00000000000E+00  0.99999998245E-14  0.12500000000E+03  0.12500000000E+03 0.  0.
        -11    1    3    3    0    0  0.26710469152E+01 -0.55303088328E+02 -0.10295736333E+02  0.56316678321E+02  0.51100000000E-03 0. -1.
         23    2    1    0    0    0 -0.48223402437E+01 -0.17613031123E+02 -0.21925596087E+02  0.96465711950E+02  0.92148944582E+02 0.  0.
         11    1    3    3    0    0 -0.74933871589E+01  0.37690057205E+02 -0.11629859754E+02  0.40149033629E+02  0.51100000000E-03 0.  1.
         22    1    1    0    0    0  0.48223402437E+01  0.17613031123E+02  0.21925596087E+02  0.28534288050E+02  0.00000000000E+00 0. -1.
</event>
<event>
 5    1  0.6690694E-004  0.9118800E+02  0.7818608E-02  0.1130116E+00
         25   -1    0    0    0    0  0.00000000000E+00  0.00000000000E+00  0.99999998245E-14  0.12500000000E+03  0.12500000000E+03 0.  0.
        -11    1    3    3    0    0 -0.27533799320E+02 -0.27357808924E+02 -0.33744745205E+02  0.51432165455E+02  0.51100000000E-03 0. -1.
         23    2    1    0    0    0  0.38513286897E+01  0.30026861969E+01 -0.29267513639E+02  0.95327854616E+02  0.90592293568E+02 0.  0.
         11    1    3    3    0    0  0.31385128010E+02  0.30360495121E+02  0.44772315662E+01  0.43895689161E+02  0.51100000000E-03 0.  1.
         22    1    1    0    0    0 -0.38513286897E+01 -0.30026861969E+01  0.29267513639E+02  0.29672145384E+02  0.00000000000E+00 0. -1.
</event>
<event>
 5    1  0.6690694E-004  0.9118800E+02  0.7818608E-02  0.1130116E+00
         25   -1    0    0    0    0  0.00000000000E+00  0.00000000000E+00  0.99999998245E-14  0.12500000000E+03  0.12500000000E+03 0.  0.
        -11    1    3    3    0    0  0.15493914293E+02 -0.41322425184E+02  0.25541637699E+02  0.50989993723E+02  0.51100000000E-03 0.  1.
         23    2    1    0    0    0  0.25564154004E+02 -0.12829227004E+02 -0.71575148015E+01  0.95515342064E+02  0.90850621990E+02 0.  0.
         11    1    3    3    0    0  0.10070239712E+02  0.28493198180E+02 -0.32699152501E+02  0.44525348341E+02  0.51100000000E-03 0. -1.
         22    1    1    0    0    0 -0.25564154004E+02  0.12829227004E+02  0.71575148015E+01  0.29484657936E+02  0.00000000000E+00 0.  1.
</event>
<event>
 5    1  0.6690694E-004  0.9118800E+02  0.7818608E-02  0.1130116E+00
         25   -1    0    0    0    0  0.00000000000E+00  0.00000000000E+00  0.99999998245E-14  0.12500000000E+03  0.12500000000E+03 0.  0.
        -11    1    3    3    0    0  0.39553590713E+02  0.36643392969E+02  0.14869228223E+02  0.55931375227E+02  0.51100000000E-03 0. -1.
         23    2    1    0    0    0  0.26629200620E+02  0.66812840000E+01  0.22570613640E+02  0.89458665168E+02  0.82095470593E+02 0.  0.
         11    1    3    3    0    0 -0.12924390093E+02 -0.29962108969E+02  0.77013854177E+01  0.33527289940E+02  0.51100000000E-03 0.  1.
         22    1    1    0    0    0 -0.26629200620E+02 -0.66812840000E+01 -0.22570613640E+02  0.35541334832E+02  0.00000000000E+00 0. -1.
</event>
<event>
 5    1  0.6690694E-004  0.9118800E+02  0.7818608E-02  0.1130116E+00
         25   -1    0    0    0    0  0.00000000000E+00  0.00000000000E+00  0.99999998245E-14  0.12500000000E+03  0.12500000000E+03 0.  0.
        -11    1    3    3    0    0 -0.32989840140E+02  0.15311280943E+02  0.34623021284E+01  0.36534263547E+02  0.51100000000E-03 0.  1.
         23    2    1    0    0    0  0.14815259289E+01 -0.30753438316E+02 -0.51953109706E+00  0.94206513678E+02  0.89031614719E+02 0.  0.
         11    1    3    3    0    0  0.34471366069E+02 -0.46064719259E+02 -0.39818332255E+01  0.57672250131E+02  0.51100000000E-03 0. -1.
         22    1    1    0    0    0 -0.14815259289E+01  0.30753438316E+02  0.51953109706E+00  0.30793486322E+02  0.00000000000E+00 0. -1.
</event>
<event>
 5    1  0.6690694E-004  0.9118800E+02  0.7818608E-02  0.1130116E+00
         25   -1    0    0    0    0  0.00000000000E+00  0.00000000000E+00  0.99999998245E-14  0.12500000000E+03  0.12500000000E+03 0.  0.
        -11    1    3    3    0    0  0.34696624458E+02 -0.16112654641E+02 -0.76516612963E+01  0.39013091511E+02  0.51100000000E-03 0. -1.
         23    2    1    0    0    0  0.55596645547E+01  0.29983783367E+02  0.21883266034E+01  0.94426712504E+02  0.89340238001E+02 0.  0.
         11    1    3    3    0    0 -0.29136959904E+02  0.46096438008E+02  0.98399878998E+01  0.55413620993E+02  0.51100000000E-03 0.  1.
         22    1    1    0    0    0 -0.55596645547E+01 -0.29983783367E+02 -0.21883266034E+01  0.30573287496E+02  0.00000000000E+00 0.  1.
</event>
<event>
 5    1  0.6690694E-004  0.9118800E+02  0.7818608E-02  0.1130116E+00
         25   -1    0    0    0    0  0.00000000000E+00  0.00000000000E+00  0.99999998245E-14  0.12500000000E+03  0.12500000000E+03 0.  0.
        -11    1    3    3    0    0 -0.21850993628E+02  0.47101017688E+02  0.25845799898E+02  0.57999803124E+02  0.51100000000E-03 0. -1.
         23    2    1    0    0    0 -0.10406412246E+02  0.11461392718E+02  0.25184735642E+02  0.95437729312E+02  0.90743772943E+02 0.  0.
         11    1    3    3    0    0  0.11444581382E+02 -0.35639624971E+02 -0.66106425531E+00  0.37437926188E+02  0.51100000000E-03 0.  1.
         22    1    1    0    0    0  0.10406412246E+02 -0.11461392718E+02 -0.25184735642E+02  0.29562270688E+02  0.00000000000E+00 0. -1.
</event>
<event>
 5    1  0.6690694E-004  0.9118800E+02  0.7818608E-02  0.1130116E+00
         25   -1    0    0    0    0  0.00000000000E+00  0.00000000000E+00  0.99999998245E-14  0.12500000000E+03  0.12500000000E+03 0.  0.
        -11    1    3    3    0    0  0.67580534739E+01 -0.46979851173E+02 -0.95166597689E+01  0.48408103830E+02  0.51100000000E-03 0.  1.
         23    2    1    0    0    0 -0.50719648925E+01 -0.36608078215E+01 -0.27512677047E+02  0.96785221247E+02  0.92581344296E+02 0.  0.
         11    1    3    3    0    0 -0.11830018366E+02  0.43319043351E+02 -0.17996017279E+02  0.48377117417E+02  0.51100000000E-03 0. -1.
         22    1    1    0    0    0  0.50719648925E+01  0.36608078215E+01  0.27512677047E+02  0.28214778753E+02  0.00000000000E+00 0. -1.
</event>
<event>
 5    1  0.6690694E-004  0.9118800E+02  0.7818608E-02  0.1130116E+00
         25   -1    0    0    0    0  0.00000000000E+00  0.00000000000E+00  0.99999998245E-14  0.12500000000E+03  0.12500000000E+03 0.  0.
        -11    1    3    3    0    0 -0.22109638613E+02 -0.40596104899E+02  0.15925646397E+02  0.48892801781E+02  0.51100000000E-03 0.  1.
         23    2    1    0    0    0  0.21102848876E+01 -0.22461721962E+02 -0.19286900668E+02  0.95318915229E+02  0.90579958088E+02 0.  0.
         11    1    3    3    0    0  0.24219923500E+02  0.18134382937E+02 -0.35212547064E+02  0.46426113448E+02  0.51100000000E-03 0. -1.
         22    1    1    0    0    0 -0.21102848876E+01  0.22461721962E+02  0.19286900668E+02  0.29681084771E+02  0.00000000000E+00 0. -1.
</event>
<event>
 5    1  0.6690694E-004  0.9118800E+02  0.7818608E-02  0.1130116E+00
         25   -1    0    0    0    0  0.00000000000E+00  0.00000000000E+00  0.99999998245E-14  0.12500000000E+03  0.12500000000E+03 0.  0.
        -11    1    3    3    0    0  0.14637568786E+02 -0.23335253454E+02  0.31383239768E+02  0.41757636575E+02  0.51100000000E-03 0.  1.
         23    2    1    0    0    0 -0.17061439032E+02 -0.14341256887E+02 -0.14620458733E+02  0.98344378370E+02  0.94663058224E+02 0.  0.
         11    1    3    3    0    0 -0.31699007818E+02  0.89939965674E+01 -0.46003698501E+02  0.56586741795E+02  0.51100000000E-03 0. -1.
         22    1    1    0    0    0  0.17061439032E+02  0.14341256887E+02  0.14620458733E+02  0.26655621630E+02  0.00000000000E+00 0. -1.
</event>
<event>
 5    1  0.6690694E-004  0.9118800E+02  0.7818608E-02  0.1130116E+00
         25   -1    0    0    0    0  0.00000000000E+00  0.00000000000E+00  0.99999998245E-14  0.12500000000E+03  0.12500000000E+03 0.  0.
        -11    1    3    3    0    0  0.29163849975E+02  0.48134235826E+02 -0.71644443808E+01  0.56734152566E+02  0.51100000000E-03 0.  1.
         23    2    1    0    0    0  0.15942103428E+02  0.21912454292E+02  0.15457074952E+02  0.93803405941E+02  0.88463842813E+02 0.  0.
         11    1    3    3    0    0 -0.13221746547E+02 -0.26221781533E+02  0.22621519333E+02  0.37069253374E+02  0.51100000000E-03 0. -1.
         22    1    1    0    0    0 -0.15942103428E+02 -0.21912454292E+02 -0.15457074952E+02  0.31196594059E+02  0.00000000000E+00 0.  1.
</event>
<event>
 5    1  0.6690694E-004  0.9118800E+02  0.7818608E-02  0.1130116E+00
         25   -1    0    0    0    0  0.00000000000E+00  0.00000000000E+00  0.99999998245E-14  0.12500000000E+03  0.12500000000E+03 0.  0.
        -11    1    3    3    0    0 -0.55275393407E+02 -0.74729702654E+01  0.16500217485E+02  0.58167616233E+02  0.51100000000E-03 0.  1.
         23    2    1    0    0    0 -0.18867415886E+02 -0.11404780925E+02  0.20360297606E+02  0.94990166132E+02  0.90125143734E+02 0.  0.
         11    1    3    3    0    0  0.36407977521E+02 -0.39318106594E+01  0.38600801211E+01  0.36822549899E+02  0.51100000000E-03 0. -1.
         22    1    1    0    0    0  0.18867415886E+02  0.11404780925E+02 -0.20360297606E+02  0.30009833868E+02  0.00000000000E+00 0.  1.
</event>
<event>
 5    1  0.6690694E-004  0.9118800E+02  0.7818608E-02  0.1130116E+00
         25   -1    0    0    0    0  0.00000000000E+00  0.00000000000E+00  0.99999998245E-14  0.12500000000E+03  0.12500000000E+03 0.  0.
        -11    1    3    3    0    0  0.16231703729E+02  0.31314835681E+02 -0.29813497003E+02  0.46183673993E+02  0.51100000000E-03 0.  1.
         23    2    1    0    0    0 -0.14646997858E+02  0.25500065425E+02  0.71883795227E+01  0.94726898356E+02  0.89759259072E+02 0.  0.
         11    1    3    3    0    0 -0.30878701588E+02 -0.58147702556E+01  0.37001876526E+02  0.48543224363E+02  0.51100000000E-03 0. -1.
         22    1    1    0    0    0  0.14646997858E+02 -0.25500065425E+02 -0.71883795227E+01  0.30273101644E+02  0.00000000000E+00 0.  1.
</event>
<event>
 5    1  0.6690694E-004  0.9118800E+02  0.7818608E-02  0.1130116E+00
         25   -1    0    0    0    0  0.00000000000E+00  0.00000000000E+00  0.99999998245E-14  0.12500000000E+03  0.12500000000E+03 0.  0.
        -11    1    3    3    0    0  0.13278819129E+02  0.33854933786E+01  0.36618493604E+02  0.39098627559E+02  0.51100000000E-03 0. -1.
         23    2    1    0    0    0 -0.22095957322E+02  0.22572046672E+02  0.14199634091E+00  0.93412838306E+02  0.87910235903E+02 0.  0.
         11    1    3    3    0    0 -0.35374776451E+02  0.19186553293E+02 -0.36476497263E+02  0.54314210747E+02  0.51100000000E-03 0.  1.
         22    1    1    0    0    0  0.22095957322E+02 -0.22572046672E+02 -0.14199634091E+00  0.31587161694E+02  0.00000000000E+00 0.  1.
</event>
<event>
 5    1  0.6690694E-004  0.9118800E+02  0.7818608E-02  0.1130116E+00
         25   -1    0    0    0    0  0.00000000000E+00  0.00000000000E+00  0.99999998245E-14  0.12500000000E+03  0.12500000000E+03 0.  0.
        -11    1    3    3    0    0  0.34240246605E+01 -0.34566808526E+02  0.70615272856E+01  0.35446485925E+02  0.51100000000E-03 0.  1.
         23    2    1    0    0    0 -0.13754709880E+02  0.18424626645E+02 -0.17279073722E+02  0.96238475360E+02  0.91840180967E+02 0.  0.
         11    1    3    3    0    0 -0.17178734541E+02  0.52991435171E+02 -0.24340601008E+02  0.60791989436E+02  0.51100000000E-03 0. -1.
         22    1    1    0    0    0  0.13754709880E+02 -0.18424626645E+02  0.17279073722E+02  0.28761524640E+02  0.00000000000E+00 0. -1.
</event>
<event>
 5    1  0.6690694E-004  0.9118800E+02  0.7818608E-02  0.1130116E+00
         25   -1    0    0    0    0  0.00000000000E+00  0.00000000000E+00  0.99999998245E-14  0.12500000000E+03  0.12500000000E+03 0.  0.
        -11    1    3    3    0    0  0.61305824627E+01  0.11738673652E+02 -0.43073606461E+02  0.45063467180E+02  0.51100000000E-03 0. -1.
         23    2    1    0    0    0  0.20355323851E+00 -0.27123903081E+02 -0.11278321345E+02  0.95624021980E+02  0.91000030192E+02 0.  0.
         11    1    3    3    0    0 -0.59270292242E+01 -0.38862576733E+02  0.31795285116E+02  0.50560554800E+02  0.51100000000E-03 0.  1.
         22    1    1    0    0    0 -0.20355323851E+00  0.27123903081E+02  0.11278321345E+02  0.29375978020E+02  0.00000000000E+00 0.  1.
</event>
<event>
 5    1  0.6690694E-004  0.9118800E+02  0.7818608E-02  0.1130116E+00
         25   -1    0    0    0    0  0.00000000000E+00  0.00000000000E+00  0.99999998245E-14  0.12500000000E+03  0.12500000000E+03 0.  0.
        -11    1    3    3    0    0 -0.13777319009E+02  0.38067459534E+02 -0.95276287637E+01  0.41589923113E+02  0.51100000000E-03 0. -1.
         23    2    1    0    0    0 -0.26561234005E+02 -0.13318719049E+02 -0.66384212128E+00  0.95279163617E+02  0.90525084392E+02 0.  0.
         11    1    3    3    0    0 -0.12783914996E+02 -0.51386178582E+02  0.88637866424E+01  0.53689240504E+02  0.51100000000E-03 0.  1.
         22    1    1    0    0    0  0.26561234005E+02  0.13318719049E+02  0.66384212128E+00  0.29720836383E+02  0.00000000000E+00 0.  1.
</event>
<event>
 5    1  0.6690694E-004  0.9118800E+02  0.7818608E-02  0.1130116E+00
         25   -1    0    0    0    0  0.00000000000E+00  0.00000000000E+00  0.99999998245E-14  0.12500000000E+03  0.12500000000E+03 0.  0.
        -11    1    3    3    0    0  0.15574453091E+02 -0.34507034511E+02 -0.69012446968E+01  0.38482803932E+02  0.51100000000E-03 0.  1.
         23    2    1    0    0    0 -0.17345659742E+02  0.54181984686E+01 -0.25687578273E+02  0.93534455923E+02  0.88082994844E+02 0.  0.
         11    1    3    3    0    0 -0.32920112833E+02  0.39925232980E+02 -0.18786333577E+02  0.55051651991E+02  0.51100000000E-03 0. -1.
         22    1    1    0    0    0  0.17345659742E+02 -0.54181984686E+01  0.25687578273E+02  0.31465544077E+02  0.00000000000E+00 0. -1.
</event>
<event>
 5    1  0.6690694E-004  0.9118800E+02  0.7818608E-02  0.1130116E+00
         25   -1    0    0    0    0  0.00000000000E+00  0.00000000000E+00  0.99999998245E-14  0.12500000000E+03  0.12500000000E+03 0.  0.
        -11    1    3    3    0    0  0.58808544078E+01 -0.25579023925E+02  0.41529685649E+02  0.49128257692E+02  0.51100000000E-03 0.  1.
         23    2    1    0    0    0 -0.20331250772E+02  0.67199270054E+01  0.18659504172E+02  0.96597636140E+02  0.92327726253E+02 0.  0.
         11    1    3    3    0    0 -0.26212105180E+02  0.32298950930E+02 -0.22870181478E+02  0.47469378448E+02  0.51100000000E-03 0. -1.
         22    1    1    0    0    0  0.20331250772E+02 -0.67199270054E+01 -0.18659504172E+02  0.28402363860E+02  0.00000000000E+00 0.  1.
</event>
<event>
 5    1  0.6690694E-004  0.9118800E+02  0.7818608E-02  0.1130116E+00
         25   -1    0    0    0    0  0.00000000000E+00  0.00000000000E+00  0.99999998245E-14  0.12500000000E+03  0.12500000000E+03 0.  0.
        -11    1    3    3    0    0 -0.44175871027E+02  0.34338903467E+01 -0.40567396036E+01  0.44494452692E+02  0.51100000000E-03 0.  1.
         23    2    1    0    0    0 -0.39321239268E+01  0.19206832712E+02  0.22446482512E+02  0.95197171300E+02  0.90411795829E+02 0.  0.
         11    1    3    3    0    0  0.40243747100E+02  0.15772942365E+02  0.26503222115E+02  0.50702718608E+02  0.51100000000E-03 0. -1.
         22    1    1    0    0    0  0.39321239268E+01 -0.19206832712E+02 -0.22446482512E+02  0.29802828700E+02  0.00000000000E+00 0. -1.
</event>
<event>
 5    1  0.6690694E-004  0.9118800E+02  0.7818608E-02  0.1130116E+00
         25   -1    0    0    0    0  0.00000000000E+00  0.00000000000E+00  0.99999998245E-14  0.12500000000E+03  0.12500000000E+03 0.  0.
        -11    1    3    3    0    0  0.33402058942E+02 -0.22295408499E+02 -0.27457213519E+02  0.48648549374E+02  0.51100000000E-03 0.  1.
         23    2    1    0    0    0 -0.33663856125E+01  0.72268742009E+01 -0.28083762845E+02  0.95806541857E+02  0.91250399803E+02 0.  0.
         11    1    3    3    0    0 -0.36768444554E+02  0.29522282700E+02 -0.62654932643E+00  0.47157992483E+02  0.51100000000E-03 0. -1.
         22    1    1    0    0    0  0.33663856125E+01 -0.72268742009E+01  0.28083762845E+02  0.29193458143E+02  0.00000000000E+00 0.  1.
</event>
<event>
 5    1  0.6690694E-004  0.9118800E+02  0.7818608E-02  0.1130116E+00
         25   -1    0    0    0    0  0.00000000000E+00  0.00000000000E+00  0.99999998245E-14  0.12500000000E+03  0.12500000000E+03 0.  0.
        -11    1    3    3    0    0 -0.25089274194E+01  0.32003710858E+02  0.21384503662E+02  0.38572389382E+02  0.51100000000E-03 0.  1.
         23    2    1    0    0    0 -0.19802025917E+02 -0.26812946223E+01 -0.21004470905E+02  0.96008667342E+02  0.91526864010E+02 0.  0.
         11    1    3    3    0    0 -0.17293098498E+02 -0.34685005480E+02 -0.42388974567E+02  0.57436277960E+02  0.51100000000E-03 0. -1.
         22    1    1    0    0    0  0.19802025917E+02  0.26812946223E+01  0.21004470905E+02  0.28991332658E+02  0.00000000000E+00 0. -1.
</event>
<event>
 5    1  0.6690694E-004  0.9118800E+02  0.7818608E-02  0.1130116E+00
         25   -1    0    0    0    0  0.00000000000E+00  0.00000000000E+00  0.99999998245E-14  0.12500000000E+03  0.12500000000E+03 0.  0.
        -11    1    3    3    0    0 -0.32240153979E+02  0.14225542013E+02 -0.22128541869E+02  0.41610887273E+02  0.51100000000E-03 0. -1.
         23    2    1    0    0    0  0.18328913157E+02 -0.12348071760E+02 -0.12702105545E+02  0.99509464129E+02  0.96189219938E+02 0.  0.
         11    1    3    3    0    0  0.50569067136E+02 -0.26573613774E+02  0.94264363231E+01  0.57898576856E+02  0.51100000000E-03 0.  1.
         22    1    1    0    0    0 -0.18328913157E+02  0.12348071760E+02  0.12702105545E+02  0.25490535871E+02  0.00000000000E+00 0.  1.
</event>
<event>
 5    1  0.6690694E-004  0.9118800E+02  0.7818608E-02  0.1130116E+00
         25   -1    0    0    0    0  0.00000000000E+00  0.00000000000E+00  0.99999998245E-14  0.12500000000E+03  0.12500000000E+03 0.  0.
        -11    1    3    3    0    0  0.28912506884E+02 -0.38013701281E+02 -0.33249546458E+02  0.58193701372E+02  0.51100000000E-03 0. -1.
         23    2    1    0    0    0  0.23209653361E+02 -0.11335666460E+02 -0.28911998607E+01  0.99008763403E+02  0.95536332621E+02 0.  0.
         11    1    3    3    0    0 -0.57028535234E+01  0.26678034821E+02  0.30358346597E+02  0.40815062031E+02  0.51100000000E-03 0.  1.
         22    1    1    0    0    0 -0.23209653361E+02  0.11335666460E+02  0.28911998607E+01  0.25991236597E+02  0.00000000000E+00 0. -1.
</event>
<event>
 5    1  0.6690694E-004  0.9118800E+02  0.7818608E-02  0.1130116E+00
         25   -1    0    0    0    0  0.00000000000E+00  0.00000000000E+00  0.99999998245E-14  0.12500000000E+03  0.12500000000E+03 0.  0.
        -11    1    3    3    0    0 -0.41944294556E+02  0.30850842472E+01  0.13958212174E+02  0.44313353269E+02  0.51100000000E-03 0.  1.
         23    2    1    0    0    0  0.85285363174E+01  0.13123054804E+02  0.23611644077E+02  0.96672270915E+02  0.92428717013E+02 0.  0.
         11    1    3    3    0    0  0.50472830873E+02  0.10037970556E+02  0.96534319028E+01  0.52358917646E+02  0.51100000000E-03 0. -1.
         22    1    1    0    0    0 -0.85285363174E+01 -0.13123054804E+02 -0.23611644077E+02  0.28327729085E+02  0.00000000000E+00 0. -1.
</event>
<event>
 5    1  0.6690694E-004  0.9118800E+02  0.7818608E-02  0.1130116E+00
         25   -1    0    0    0    0  0.00000000000E+00  0.00000000000E+00  0.99999998245E-14  0.12500000000E+03  0.12500000000E+03 0.  0.
        -11    1    3    3    0    0 -0.34945171007E+02 -0.30127252471E+02  0.16461897790E+02  0.48987859693E+02  0.51100000000E-03 0.  1.
         23    2    1    0    0    0  0.66663590626E+01 -0.87810470531E+01  0.26036788344E+02  0.96725250173E+02  0.92500338071E+02 0.  0.
         11    1    3    3    0    0  0.41611530070E+02  0.21346205418E+02  0.95748905542E+01  0.47737390481E+02  0.51100000000E-03 0. -1.
         22    1    1    0    0    0 -0.66663590626E+01  0.87810470531E+01 -0.26036788344E+02  0.28274749827E+02  0.00000000000E+00 0. -1.
</event>
<event>
 5    1  0.6690694E-004  0.9118800E+02  0.7818608E-02  0.1130116E+00
         25   -1    0    0    0    0  0.00000000000E+00  0.00000000000E+00  0.99999998245E-14  0.12500000000E+03  0.12500000000E+03 0.  0.
        -11    1    3    3    0    0  0.36202876307E+02  0.10551742908E+02 -0.10225044155E+02  0.39070949048E+02  0.51100000000E-03 0.  1.
         23    2    1    0    0    0 -0.12297424701E+01 -0.11384231196E+02  0.26639355302E+02  0.96003996182E+02  0.91520484295E+02 0.  0.
         11    1    3    3    0    0 -0.37432618777E+02 -0.21935974103E+02  0.36864399458E+02  0.56933047134E+02  0.51100000000E-03 0. -1.
         22    1    1    0    0    0  0.12297424701E+01  0.11384231196E+02 -0.26639355302E+02  0.28996003818E+02  0.00000000000E+00 0. -1.
</event>
<event>
 5    1  0.6690694E-004  0.9118800E+02  0.7818608E-02  0.1130116E+00
         25   -1    0    0    0    0  0.00000000000E+00  0.00000000000E+00  0.99999998245E-14  0.12500000000E+03  0.12500000000E+03 0.  0.
        -11    1    3    3    0    0 -0.49921346924E+01 -0.54887400579E+02  0.39925801523E+01  0.55258382601E+02  0.51100000000E-03 0. -1.
         23    2    1    0    0    0  0.91078744544E+01 -0.18569687624E+02  0.18909984891E+02  0.96975471385E+02  0.92837857828E+02 0.  0.
         11    1    3    3    0    0  0.14100009147E+02  0.36317712955E+02  0.14917404739E+02  0.41717088784E+02  0.51100000000E-03 0.  1.
         22    1    1    0    0    0 -0.91078744544E+01  0.18569687624E+02 -0.18909984891E+02  0.28024528615E+02  0.00000000000E+00 0. -1.
</event>
<event>
 5    1  0.6690694E-004  0.9118800E+02  0.7818608E-02  0.1130116E+00
         25   -1    0    0    0    0  0.00000000000E+00  0.00000000000E+00  0.99999998245E-14  0.12500000000E+03  0.12500000000E+03 0.  0.
        -11    1    3    3    0    0  0.13184481517E+02 -0.36265159347E+02 -0.40332216075E+01  0.38797670190E+02  0.51100000000E-03 0. -1.
         23    2    1    0    0    0  0.13903007789E+01  0.76215403813E+01  0.29002585237E+02  0.94980493601E+02  0.90111727318E+02 0.  0.
         11    1    3    3    0    0 -0.11794180738E+02  0.43886699728E+02  0.33035806844E+02  0.56182823411E+02  0.51100000000E-03 0.  1.
         22    1    1    0    0    0 -0.13903007789E+01 -0.76215403813E+01 -0.29002585237E+02  0.30019506399E+02  0.00000000000E+00 0.  1.
</event>
<event>
 5    1  0.6690694E-004  0.9118800E+02  0.7818608E-02  0.1130116E+00
         25   -1    0    0    0    0  0.00000000000E+00  0.00000000000E+00  0.99999998245E-14  0.12500000000E+03  0.12500000000E+03 0.  0.
        -11    1    3    3    0    0  0.83738884460E+01 -0.48941039337E+02  0.27605019200E+02  0.56810073265E+02  0.51100000000E-03 0. -1.
         23    2    1    0    0    0  0.42551178678E+01 -0.97850372278E+01  0.26759963045E+02  0.96191171427E+02  0.91775774890E+02 0.  0.
         11    1    3    3    0    0 -0.41187705782E+01  0.39156002109E+02 -0.84505615586E+00  0.39381098162E+02  0.51100000000E-03 0.  1.
         22    1    1    0    0    0 -0.42551178678E+01  0.97850372278E+01 -0.26759963045E+02  0.28808828573E+02  0.00000000000E+00 0. -1.
</event>
<event>
 5    1  0.6690694E-004  0.9118800E+02  0.7818608E-02  0.1130116E+00
         25   -1    0    0    0    0  0.00000000000E+00  0.00000000000E+00  0.99999998245E-14  0.12500000000E+03  0.12500000000E+03 0.  0.
        -11    1    3    3    0    0 -0.14797438745E+02 -0.29622983385E+02  0.25971380227E+02  0.42083226222E+02  0.51100000000E-03 0.  1.
         23    2    1    0    0    0 -0.24617852222E+02  0.15500295117E+02 -0.15955720498E+01  0.95865078567E+02  0.91330551525E+02 0.  0.
         11    1    3    3    0    0 -0.98204134767E+01  0.45123278502E+02 -0.27566952277E+02  0.53781852345E+02  0.51100000000E-03 0. -1.
         22    1    1    0    0    0  0.24617852222E+02 -0.15500295117E+02  0.15955720498E+01  0.29134921433E+02  0.00000000000E+00 0. -1.
</event>
<event>
 5    1  0.6690694E-004  0.9118800E+02  0.7818608E-02  0.1130116E+00
         25   -1    0    0    0    0  0.00000000000E+00  0.00000000000E+00  0.99999998245E-14  0.12500000000E+03  0.12500000000E+03 0.  0.
        -11    1    3    3    0    0 -0.12524218383E+02 -0.23022493060E+02  0.21372582976E+02  0.33818316577E+02  0.51100000000E-03 0.  1.
         23    2    1    0    0    0  0.77673250073E+01  0.11275435508E+02 -0.25934322030E+02  0.95673291306E+02  0.91067682668E+02 0.  0.
         11    1    3    3    0    0  0.20291543390E+02  0.34297928568E+02 -0.47306905006E+02  0.61854974729E+02  0.51100000000E-03 0. -1.
         22    1    1    0    0    0 -0.77673250073E+01 -0.11275435508E+02  0.25934322030E+02  0.29326708694E+02  0.00000000000E+00 0. -1.
</event>
<event>
 5    1  0.6690694E-004  0.9118800E+02  0.7818608E-02  0.1130116E+00
         25   -1    0    0    0    0  0.00000000000E+00  0.00000000000E+00  0.99999998245E-14  0.12500000000E+03  0.12500000000E+03 0.  0.
        -11    1    3    3    0    0  0.30681267043E+02  0.17143753624E+02  0.32501575411E+02  0.47870667847E+02  0.51100000000E-03 0. -1.
         23    2    1    0    0    0 -0.53521499423E+01  0.27928348116E+02  0.16536427915E+01  0.96515395878E+02  0.92216316178E+02 0.  0.
         11    1    3    3    0    0 -0.36033416986E+02  0.10784594493E+02 -0.30847932619E+02  0.48644728031E+02  0.51100000000E-03 0.  1.
         22    1    1    0    0    0  0.53521499423E+01 -0.27928348116E+02 -0.16536427915E+01  0.28484604122E+02  0.00000000000E+00 0.  1.
</event>
<event>
 5    1  0.6690694E-004  0.9118800E+02  0.7818608E-02  0.1130116E+00
         25   -1    0    0    0    0  0.00000000000E+00  0.00000000000E+00  0.99999998245E-14  0.12500000000E+03  0.12500000000E+03 0.  0.
        -11    1    3    3    0    0  0.41772325108E+02 -0.36841699779E+00 -0.35307422669E+02  0.54696224475E+02  0.51100000000E-03 0.  1.
         23    2    1    0    0    0  0.25711400859E+02 -0.99317496468E+01  0.29535797592E+01  0.97279260137E+02  0.93245992054E+02 0.  0.
         11    1    3    3    0    0 -0.16060924249E+02 -0.95633326490E+01  0.38261002428E+02  0.42583035662E+02  0.51100000000E-03 0. -1.
         22    1    1    0    0    0 -0.25711400859E+02  0.99317496468E+01 -0.29535797592E+01  0.27720739863E+02  0.00000000000E+00 0.  1.
</event>
<event>
 5    1  0.6690694E-004  0.9118800E+02  0.7818608E-02  0.1130116E+00
         25   -1    0    0    0    0  0.00000000000E+00  0.00000000000E+00  0.99999998245E-14  0.12500000000E+03  0.12500000000E+03 0.  0.
        -11    1    3    3    0    0 -0.72885007182E+01  0.14757480051E+02 -0.60054191012E+02  0.62268863154E+02  0.51100000000E-03 0.  1.
         23    2    1    0    0    0 -0.71028291187E+01  0.64076245698E+01 -0.27243479328E+02  0.96125876637E+02  0.91686799263E+02 0.  0.
         11    1    3    3    0    0  0.18567159952E+00 -0.83498554816E+01  0.32810711684E+02  0.33857013483E+02  0.51100000000E-03 0. -1.
         22    1    1    0    0    0  0.71028291187E+01 -0.64076245698E+01  0.27243479328E+02  0.28874123363E+02  0.00000000000E+00 0.  1.
</event>
<event>
 5    1  0.6690694E-004  0.9118800E+02  0.7818608E-02  0.1130116E+00
         25   -1    0    0    0    0  0.00000000000E+00  0.00000000000E+00  0.99999998245E-14  0.12500000000E+03  0.12500000000E+03 0.  0.
        -11    1    3    3    0    0 -0.27357193786E+02 -0.13988941302E+02  0.30779618523E+02  0.43491280129E+02  0.51100000000E-03 0.  1.
         23    2    1    0    0    0 -0.14694321031E+02 -0.14781045646E+02 -0.20169471404E+02  0.95996380266E+02  0.91510081775E+02 0.  0.
         11    1    3    3    0    0  0.12662872755E+02 -0.79210434336E+00 -0.50949089927E+02  0.52505100137E+02  0.51100000000E-03 0. -1.
         22    1    1    0    0    0  0.14694321031E+02  0.14781045646E+02  0.20169471404E+02  0.29003619734E+02  0.00000000000E+00 0.  1.
</event>
<event>
 5    1  0.6690694E-004  0.9118800E+02  0.7818608E-02  0.1130116E+00
         25   -1    0    0    0    0  0.00000000000E+00  0.00000000000E+00  0.99999998245E-14  0.12500000000E+03  0.12500000000E+03 0.  0.
        -11    1    3    3    0    0  0.13462579381E+02 -0.46824824105E+01 -0.54354417319E+02  0.56192253626E+02  0.51100000000E-03 0.  1.
         23    2    1    0    0    0  0.68451259916E-01  0.16791318798E+02 -0.23916869239E+02  0.95777239919E+02  0.91210251506E+02 0.  0.
         11    1    3    3    0    0 -0.13394128122E+02  0.21473801208E+02  0.30437548080E+02  0.39584986294E+02  0.51100000000E-03 0. -1.
         22    1    1    0    0    0 -0.68451259916E-01 -0.16791318798E+02  0.23916869239E+02  0.29222760081E+02  0.00000000000E+00 0.  1.
</event>
<event>
 5    1  0.6690694E-004  0.9118800E+02  0.7818608E-02  0.1130116E+00
         25   -1    0    0    0    0  0.00000000000E+00  0.00000000000E+00  0.99999998245E-14  0.12500000000E+03  0.12500000000E+03 0.  0.
        -11    1    3    3    0    0  0.16052764567E+02 -0.11646288562E+02  0.38047803183E+02  0.42906440249E+02  0.51100000000E-03 0. -1.
         23    2    1    0    0    0  0.13427949027E+02  0.25354439315E+02 -0.36664186994E+00  0.96306937523E+02  0.91933314858E+02 0.  0.
         11    1    3    3    0    0 -0.26248155398E+01  0.37000727877E+02 -0.38414445053E+02  0.53400497274E+02  0.51100000000E-03 0.  1.
         22    1    1    0    0    0 -0.13427949027E+02 -0.25354439315E+02  0.36664186994E+00  0.28693062477E+02  0.00000000000E+00 0.  1.
</event>
<event>
 5    1  0.6690694E-004  0.9118800E+02  0.7818608E-02  0.1130116E+00
         25   -1    0    0    0    0  0.00000000000E+00  0.00000000000E+00  0.99999998245E-14  0.12500000000E+03  0.12500000000E+03 0.  0.
        -11    1    3    3    0    0 -0.80456450887E+01 -0.32834737685E+02  0.22895680057E+02  0.40829702047E+02  0.51100000000E-03 0. -1.
         23    2    1    0    0    0  0.12557366493E+02 -0.14968116349E+02 -0.23372552114E+02  0.94536773766E+02  0.89494097244E+02 0.  0.
         11    1    3    3    0    0  0.20603011582E+02  0.17866621336E+02 -0.46268232171E+02  0.53707071719E+02  0.51100000000E-03 0.  1.
         22    1    1    0    0    0 -0.12557366493E+02  0.14968116349E+02  0.23372552114E+02  0.30463226234E+02  0.00000000000E+00 0. -1.
</event>
<event>
 5    1  0.6690694E-004  0.9118800E+02  0.7818608E-02  0.1130116E+00
         25   -1    0    0    0    0  0.00000000000E+00  0.00000000000E+00  0.99999998245E-14  0.12500000000E+03  0.12500000000E+03 0.  0.
        -11    1    3    3    0    0 -0.44536608274E+02  0.25016274049E+02 -0.46367712508E+01  0.51291549905E+02  0.51100000000E-03 0. -1.
         23    2    1    0    0    0 -0.48235524945E+00  0.26721000624E+02 -0.11492042556E+02  0.95908565125E+02  0.91390050232E+02 0.  0.
         11    1    3    3    0    0  0.44054253024E+02  0.17047265758E+01 -0.68552713051E+01  0.44617015220E+02  0.51100000000E-03 0.  1.
         22    1    1    0    0    0  0.48235524945E+00 -0.26721000624E+02  0.11492042556E+02  0.29091434875E+02  0.00000000000E+00 0.  1.
</event>
<event>
 5    1  0.6690694E-004  0.9118800E+02  0.7818608E-02  0.1130116E+00
         25   -1    0    0    0    0  0.00000000000E+00  0.00000000000E+00  0.99999998245E-14  0.12500000000E+03  0.12500000000E+03 0.  0.
        -11    1    3    3    0    0 -0.29830539171E+01 -0.61009525693E+02  0.30868006060E+00  0.61083190156E+02  0.51100000000E-03 0. -1.
         23    2    1    0    0    0 -0.10726426905E+02 -0.33635643918E+02  0.24419790548E+01  0.89611074647E+02  0.82327204870E+02 0.  0.
         11    1    3    3    0    0 -0.77433729882E+01  0.27373881775E+02  0.21332989942E+01  0.28527884491E+02  0.51100000000E-03 0.  1.
         22    1    1    0    0    0  0.10726426905E+02  0.33635643918E+02 -0.24419790548E+01  0.35388925353E+02  0.00000000000E+00 0. -1.
</event>
<event>
 5    1  0.6690694E-004  0.9118800E+02  0.7818608E-02  0.1130116E+00
         25   -1    0    0    0    0  0.00000000000E+00  0.00000000000E+00  0.99999998245E-14  0.12500000000E+03  0.12500000000E+03 0.  0.
        -11    1    3    3    0    0  0.32152208289E+02 -0.55248801764E+01  0.79543768277E+01  0.33579173751E+02  0.51100000000E-03 0.  1.
         23    2    1    0    0    0 -0.26176485370E+02  0.31932433086E+01  0.17538908067E+02  0.93329532916E+02  0.87791703646E+02 0.  0.
         11    1    3    3    0    0 -0.58328693659E+02  0.87181234850E+01  0.95845312392E+01  0.59750359165E+02  0.51100000000E-03 0. -1.
         22    1    1    0    0    0  0.26176485370E+02 -0.31932433086E+01 -0.17538908067E+02  0.31670467084E+02  0.00000000000E+00 0. -1.
</event>
<event>
 5    1  0.6690694E-004  0.9118800E+02  0.7818608E-02  0.1130116E+00
         25   -1    0    0    0    0  0.00000000000E+00  0.00000000000E+00  0.99999998245E-14  0.12500000000E+03  0.12500000000E+03 0.  0.
        -11    1    3    3    0    0  0.11032040312E+02  0.21527130433E+02 -0.34175795490E+02  0.41870135607E+02  0.51100000000E-03 0.  1.
         23    2    1    0    0    0 -0.23612260285E+02 -0.12905473794E+02 -0.11101543056E+02  0.95890991981E+02  0.91366011160E+02 0.  0.
         11    1    3    3    0    0 -0.34644300597E+02 -0.34432604227E+02  0.23074252434E+02  0.54020856374E+02  0.51100000000E-03 0. -1.
         22    1    1    0    0    0  0.23612260285E+02  0.12905473794E+02  0.11101543056E+02  0.29109008019E+02  0.00000000000E+00 0. -1.
</event>
<event>
 5    1  0.6690694E-004  0.9118800E+02  0.7818608E-02  0.1130116E+00
         25   -1    0    0    0    0  0.00000000000E+00  0.00000000000E+00  0.99999998245E-14  0.12500000000E+03  0.12500000000E+03 0.  0.
        -11    1    3    3    0    0 -0.20839998247E+02  0.18391672992E+02 -0.55873197368E+02  0.62404914444E+02  0.51100000000E-03 0.  1.
         23    2    1    0    0    0 -0.90492785970E+01  0.10281881522E+02 -0.23506453760E+02  0.97794120137E+02  0.93933646977E+02 0.  0.
         11    1    3    3    0    0  0.11790719650E+02 -0.81097914707E+01  0.32366743608E+02  0.35389205694E+02  0.51100000000E-03 0. -1.
         22    1    1    0    0    0  0.90492785970E+01 -0.10281881522E+02  0.23506453760E+02  0.27205879863E+02  0.00000000000E+00 0.  1.
</event>
<event>
 5    1  0.6690694E-004  0.9118800E+02  0.7818608E-02  0.1130116E+00
         25   -1    0    0    0    0  0.00000000000E+00  0.00000000000E+00  0.99999998245E-14  0.12500000000E+03  0.12500000000E+03 0.  0.
        -11    1    3    3    0    0 -0.10866081179E+02  0.18653953269E+02 -0.27349830790E+02  0.34843291137E+02  0.51100000000E-03 0.  1.
         23    2    1    0    0    0 -0.11029856632E+02 -0.29982853337E+02  0.41417162890E+01  0.92785359766E+02  0.87013446901E+02 0.  0.
         11    1    3    3    0    0 -0.16377545228E+00 -0.48636806607E+02  0.31491547079E+02  0.57942068629E+02  0.51100000000E-03 0. -1.
         22    1    1    0    0    0  0.11029856632E+02  0.29982853337E+02 -0.41417162890E+01  0.32214640234E+02  0.00000000000E+00 0. -1.
</event>
<event>
 5    1  0.6690694E-004  0.9118800E+02  0.7818608E-02  0.1130116E+00
         25   -1    0    0    0    0  0.00000000000E+00  0.00000000000E+00  0.99999998245E-14  0.12500000000E+03  0.12500000000E+03 0.  0.
        -11    1    3    3    0    0  0.59706576775E+02  0.30294825584E+01  0.14639911354E+02  0.61549817867E+02  0.51100000000E-03 0. -1.
         23    2    1    0    0    0  0.25363716233E+02  0.41405488121E+01  0.13594227111E+02  0.95926554102E+02  0.91414651591E+02 0.  0.
         11    1    3    3    0    0 -0.34342860541E+02  0.11110662536E+01 -0.10456842431E+01  0.34376736235E+02  0.51100000000E-03 0.  1.
         22    1    1    0    0    0 -0.25363716233E+02 -0.41405488121E+01 -0.13594227111E+02  0.29073445898E+02  0.00000000000E+00 0. -1.
</event>
<event>
 5    1  0.6690694E-004  0.9118800E+02  0.7818608E-02  0.1130116E+00
         25   -1    0    0    0    0  0.00000000000E+00  0.00000000000E+00  0.99999998245E-14  0.12500000000E+03  0.12500000000E+03 0.  0.
        -11    1    3    3    0    0  0.51352783342E+02 -0.13617536320E+02  0.18929847779E+02  0.56399333237E+02  0.51100000000E-03 0. -1.
         23    2    1    0    0    0  0.20976206054E+02  0.11085368884E+02  0.17392314507E+02  0.95582671304E+02  0.90943212094E+02 0.  0.
         11    1    3    3    0    0 -0.30376577288E+02  0.24702905203E+02 -0.15375332723E+01  0.39183338067E+02  0.51100000000E-03 0.  1.
         22    1    1    0    0    0 -0.20976206054E+02 -0.11085368884E+02 -0.17392314507E+02  0.29417328696E+02  0.00000000000E+00 0.  1.
</event>
<event>
 5    1  0.6690694E-004  0.9118800E+02  0.7818608E-02  0.1130116E+00
         25   -1    0    0    0    0  0.00000000000E+00  0.00000000000E+00  0.99999998245E-14  0.12500000000E+03  0.12500000000E+03 0.  0.
        -11    1    3    3    0    0  0.35477993332E+02  0.17396815825E+02  0.19818363600E+02  0.44205257015E+02  0.51100000000E-03 0.  1.
         23    2    1    0    0    0 -0.11350312035E+02  0.27554877272E+02  0.27476918936E+01  0.95072576864E+02  0.90239371763E+02 0.  0.
         11    1    3    3    0    0 -0.46828305367E+02  0.10158061447E+02 -0.17070671707E+02  0.50867319850E+02  0.51100000000E-03 0. -1.
         22    1    1    0    0    0  0.11350312035E+02 -0.27554877272E+02 -0.27476918936E+01  0.29927423136E+02  0.00000000000E+00 0. -1.
</event>
<event>
 5    1  0.6690694E-004  0.9118800E+02  0.7818608E-02  0.1130116E+00
         25   -1    0    0    0    0  0.00000000000E+00  0.00000000000E+00  0.99999998245E-14  0.12500000000E+03  0.12500000000E+03 0.  0.
        -11    1    3    3    0    0 -0.46001139396E+01  0.26760459704E+02  0.24697189968E+02  0.36704692403E+02  0.51100000000E-03 0. -1.
         23    2    1    0    0    0 -0.43472621794E+01  0.41313867402E+01 -0.29215929071E+02  0.95174883800E+02  0.90380976704E+02 0.  0.
         11    1    3    3    0    0  0.25285176017E+00 -0.22629072964E+02 -0.53913119039E+02  0.58470191397E+02  0.51100000000E-03 0.  1.
         22    1    1    0    0    0  0.43472621794E+01 -0.41313867402E+01  0.29215929071E+02  0.29825116200E+02  0.00000000000E+00 0.  1.
</event>
<event>
 5    1  0.6690694E-004  0.9118800E+02  0.7818608E-02  0.1130116E+00
         25   -1    0    0    0    0  0.00000000000E+00  0.00000000000E+00  0.99999998245E-14  0.12500000000E+03  0.12500000000E+03 0.  0.
        -11    1    3    3    0    0  0.17920719437E+02 -0.19715834530E+02 -0.49964364297E+02  0.56624235237E+02  0.51100000000E-03 0.  1.
         23    2    1    0    0    0  0.17906578651E+02  0.75086730383E+01 -0.22131077273E+02  0.95558357535E+02  0.90909787062E+02 0.  0.
         11    1    3    3    0    0 -0.14140785521E-01  0.27224507568E+02  0.27833287024E+02  0.38934122298E+02  0.51100000000E-03 0. -1.
         22    1    1    0    0    0 -0.17906578651E+02 -0.75086730383E+01  0.22131077273E+02  0.29441642465E+02  0.00000000000E+00 0.  1.
</event>
<event>
 5    1  0.6690694E-004  0.9118800E+02  0.7818608E-02  0.1130116E+00
         25   -1    0    0    0    0  0.00000000000E+00  0.00000000000E+00  0.99999998245E-14  0.12500000000E+03  0.12500000000E+03 0.  0.
        -11    1    3    3    0    0 -0.15480474608E+02 -0.23957771921E+02 -0.24249359247E+02  0.37438634506E+02  0.51100000000E-03 0.  1.
         23    2    1    0    0    0  0.58651453184E+01  0.27588857443E+02 -0.10538098005E+02  0.94890259148E+02  0.89986470021E+02 0.  0.
         11    1    3    3    0    0  0.21345619927E+02  0.51546629364E+02  0.13711261242E+02  0.57451624642E+02  0.51100000000E-03 0. -1.
         22    1    1    0    0    0 -0.58651453184E+01 -0.27588857443E+02  0.10538098005E+02  0.30109740852E+02  0.00000000000E+00 0. -1.
</event>
<event>
 5    1  0.6690694E-004  0.9118800E+02  0.7818608E-02  0.1130116E+00
         25   -1    0    0    0    0  0.00000000000E+00  0.00000000000E+00  0.99999998245E-14  0.12500000000E+03  0.12500000000E+03 0.  0.
        -11    1    3    3    0    0  0.56782117993E+02  0.24415379787E+02  0.46478525368E+01  0.61983241505E+02  0.51100000000E-03 0. -1.
         23    2    1    0    0    0  0.27637129282E+02  0.14809519518E+02  0.73687861701E+01  0.92790811980E+02  0.87021278978E+02 0.  0.
         11    1    3    3    0    0 -0.29144988711E+02 -0.96058602685E+01  0.27209336333E+01  0.30807570475E+02  0.51100000000E-03 0.  1.
         22    1    1    0    0    0 -0.27637129282E+02 -0.14809519518E+02 -0.73687861701E+01  0.32209188020E+02  0.00000000000E+00 0. -1.
</event>
<event>
 5    1  0.6690694E-004  0.9118800E+02  0.7818608E-02  0.1130116E+00
         25   -1    0    0    0    0  0.00000000000E+00  0.00000000000E+00  0.99999998245E-14  0.12500000000E+03  0.12500000000E+03 0.  0.
        -11    1    3    3    0    0  0.34551307466E+02 -0.26541838250E+02  0.12676262850E+02  0.45375650578E+02  0.51100000000E-03 0.  1.
         23    2    1    0    0    0 -0.16378698755E+02 -0.21181075805E+02  0.91360841753E+01  0.96709228020E+02  0.92478684058E+02 0.  0.
         11    1    3    3    0    0 -0.50930006221E+02  0.53607624448E+01 -0.35401786744E+01  0.51333577442E+02  0.51100000000E-03 0. -1.
         22    1    1    0    0    0  0.16378698755E+02  0.21181075805E+02 -0.91360841753E+01  0.28290771980E+02  0.00000000000E+00 0. -1.
</event>
<event>
 5    1  0.6690694E-004  0.9118800E+02  0.7818608E-02  0.1130116E+00
         25   -1    0    0    0    0  0.00000000000E+00  0.00000000000E+00  0.99999998245E-14  0.12500000000E+03  0.12500000000E+03 0.  0.
        -11    1    3    3    0    0 -0.23973402593E+02  0.21505844156E+01 -0.27276845636E+02  0.36378226363E+02  0.51100000000E-03 0. -1.
         23    2    1    0    0    0  0.19614150142E+02 -0.22089410076E+02  0.39115049395E+01  0.95201396103E+02  0.90417636697E+02 0.  0.
         11    1    3    3    0    0  0.43587552735E+02 -0.24239994492E+02  0.31188350575E+02  0.58823169740E+02  0.51100000000E-03 0.  1.
         22    1    1    0    0    0 -0.19614150142E+02  0.22089410076E+02 -0.39115049395E+01  0.29798603897E+02  0.00000000000E+00 0.  1.
</event>
<event>
 5    1  0.6690694E-004  0.9118800E+02  0.7818608E-02  0.1130116E+00
         25   -1    0    0    0    0  0.00000000000E+00  0.00000000000E+00  0.99999998245E-14  0.12500000000E+03  0.12500000000E+03 0.  0.
        -11    1    3    3    0    0 -0.28891594389E+02  0.38131955821E+02  0.10874973002E+02  0.49061546236E+02  0.51100000000E-03 0. -1.
         23    2    1    0    0    0 -0.24987201752E+02 -0.64198698058E+00 -0.15009029080E+02  0.95844497044E+02  0.91302378178E+02 0.  0.
         11    1    3    3    0    0  0.39043926363E+01 -0.38773942801E+02 -0.25884002082E+02  0.46782950807E+02  0.51100000000E-03 0.  1.
         22    1    1    0    0    0  0.24987201752E+02  0.64198698058E+00  0.15009029080E+02  0.29155502956E+02  0.00000000000E+00 0. -1.
</event>
<event>
 5    1  0.6690694E-004  0.9118800E+02  0.7818608E-02  0.1130116E+00
         25   -1    0    0    0    0  0.00000000000E+00  0.00000000000E+00  0.99999998245E-14  0.12500000000E+03  0.12500000000E+03 0.  0.
        -11    1    3    3    0    0 -0.16319232521E+02  0.35411514830E+02 -0.21769840647E+02  0.44656675813E+02  0.51100000000E-03 0.  1.
         23    2    1    0    0    0  0.29382667826E+00  0.15204208943E+02  0.23539573817E+02  0.96975620628E+02  0.92838058774E+02 0.  0.
         11    1    3    3    0    0  0.16613059199E+02 -0.20207305887E+02  0.45309414464E+02  0.52318944815E+02  0.51100000000E-03 0. -1.
         22    1    1    0    0    0 -0.29382667826E+00 -0.15204208943E+02 -0.23539573817E+02  0.28024379372E+02  0.00000000000E+00 0.  1.
</event>
<event>
 5    1  0.6690694E-004  0.9118800E+02  0.7818608E-02  0.1130116E+00
         25   -1    0    0    0    0  0.00000000000E+00  0.00000000000E+00  0.99999998245E-14  0.12500000000E+03  0.12500000000E+03 0.  0.
        -11    1    3    3    0    0 -0.19642338290E+02 -0.18419069197E+02 -0.25765733110E+02  0.37268707605E+02  0.51100000000E-03 0.  1.
         23    2    1    0    0    0  0.56888052266E+01 -0.13688626357E+02  0.25987142843E+02  0.95082236220E+02  0.90252750956E+02 0.  0.
         11    1    3    3    0    0  0.25331143516E+02  0.47304428398E+01  0.51752875953E+02  0.57813528616E+02  0.51100000000E-03 0. -1.
         22    1    1    0    0    0 -0.56888052266E+01  0.13688626357E+02 -0.25987142843E+02  0.29917763780E+02  0.00000000000E+00 0. -1.
</event>
<event>
 5    1  0.6690694E-004  0.9118800E+02  0.7818608E-02  0.1130116E+00
         25   -1    0    0    0    0  0.00000000000E+00  0.00000000000E+00  0.99999998245E-14  0.12500000000E+03  0.12500000000E+03 0.  0.
        -11    1    3    3    0    0 -0.23117410121E+02  0.15682822768E+02  0.16536084157E+02  0.32462403795E+02  0.51100000000E-03 0.  1.
         23    2    1    0    0    0  0.23179059645E+02 -0.18815857805E+02 -0.61892250150E+01  0.94510463808E+02  0.89457341520E+02 0.  0.
         11    1    3    3    0    0  0.46296469766E+02 -0.34498680573E+02 -0.22725309172E+02  0.62048060012E+02  0.51100000000E-03 0. -1.
         22    1    1    0    0    0 -0.23179059645E+02  0.18815857805E+02  0.61892250150E+01  0.30489536192E+02  0.00000000000E+00 0. -1.
</event>
<event>
 5    1  0.6690694E-004  0.9118800E+02  0.7818608E-02  0.1130116E+00
         25   -1    0    0    0    0  0.00000000000E+00  0.00000000000E+00  0.99999998245E-14  0.12500000000E+03  0.12500000000E+03 0.  0.
        -11    1    3    3    0    0 -0.26005557087E+02 -0.44059733317E+02  0.19472403403E+02  0.54742338221E+02  0.51100000000E-03 0.  1.
         23    2    1    0    0    0 -0.48973025255E+01 -0.27730081911E+02 -0.10566266154E+02  0.94923647242E+02  0.90032837401E+02 0.  0.
         11    1    3    3    0    0  0.21108254562E+02  0.16329651406E+02 -0.30038669556E+02  0.40181309021E+02  0.51100000000E-03 0. -1.
         22    1    1    0    0    0  0.48973025255E+01  0.27730081911E+02  0.10566266154E+02  0.30076352758E+02  0.00000000000E+00 0.  1.
</event>
<event>
 5    1  0.6690694E-004  0.9118800E+02  0.7818608E-02  0.1130116E+00
         25   -1    0    0    0    0  0.00000000000E+00  0.00000000000E+00  0.99999998245E-14  0.12500000000E+03  0.12500000000E+03 0.  0.
        -11    1    3    3    0    0 -0.22949898045E+02  0.51627145702E+02 -0.20831595614E+02  0.60216404490E+02  0.51100000000E-03 0.  1.
         23    2    1    0    0    0 -0.96631653605E+01  0.26616169629E+02  0.20270513677E+01  0.96611513113E+02  0.92346511998E+02 0.  0.
         11    1    3    3    0    0  0.13286732685E+02 -0.25010976073E+02  0.22858646982E+02  0.36395108623E+02  0.51100000000E-03 0. -1.
         22    1    1    0    0    0  0.96631653605E+01 -0.26616169629E+02 -0.20270513677E+01  0.28388486887E+02  0.00000000000E+00 0.  1.
</event>
<event>
 5    1  0.6690694E-004  0.9118800E+02  0.7818608E-02  0.1130116E+00
         25   -1    0    0    0    0  0.00000000000E+00  0.00000000000E+00  0.99999998245E-14  0.12500000000E+03  0.12500000000E+03 0.  0.
        -11    1    3    3    0    0  0.79120538720E+01  0.60809128251E+01 -0.39319888776E+02  0.40566386959E+02  0.51100000000E-03 0.  1.
         23    2    1    0    0    0 -0.10805783428E+01  0.26551948293E+02  0.11467204958E+02  0.96057463876E+02  0.91593482132E+02 0.  0.
         11    1    3    3    0    0 -0.89926322148E+01  0.20471035468E+02  0.50787093734E+02  0.55491076918E+02  0.51100000000E-03 0. -1.
         22    1    1    0    0    0  0.10805783428E+01 -0.26551948293E+02 -0.11467204958E+02  0.28942536124E+02  0.00000000000E+00 0. -1.
</event>
<event>
 5    1  0.6690694E-004  0.9118800E+02  0.7818608E-02  0.1130116E+00
         25   -1    0    0    0    0  0.00000000000E+00  0.00000000000E+00  0.99999998245E-14  0.12500000000E+03  0.12500000000E+03 0.  0.
        -11    1    3    3    0    0  0.30092492615E+02  0.62145034404E+01 -0.16499918331E+02  0.34877291609E+02  0.51100000000E-03 0. -1.
         23    2    1    0    0    0 -0.22530078145E+02 -0.19449603733E+02 -0.21437684843E+01  0.95158967010E+02  0.90358960555E+02 0.  0.
         11    1    3    3    0    0 -0.52622570760E+02 -0.25664107174E+02  0.14356149847E+02  0.60281675401E+02  0.51100000000E-03 0.  1.
         22    1    1    0    0    0  0.22530078145E+02  0.19449603733E+02  0.21437684843E+01  0.29841032990E+02  0.00000000000E+00 0.  1.
</event>
<event>
 5    1  0.6690694E-004  0.9118800E+02  0.7818608E-02  0.1130116E+00
         25   -1    0    0    0    0  0.00000000000E+00  0.00000000000E+00  0.99999998245E-14  0.12500000000E+03  0.12500000000E+03 0.  0.
        -11    1    3    3    0    0 -0.20452211517E+02  0.12645891009E+02  0.25692730255E+02  0.35189883541E+02  0.51100000000E-03 0.  1.
         23    2    1    0    0    0  0.25387413281E+02  0.12281764230E+02 -0.11817658502E+02  0.94421910815E+02  0.89333519486E+02 0.  0.
         11    1    3    3    0    0  0.45839624799E+02 -0.36412677935E+00 -0.37510388758E+02  0.59232027274E+02  0.51100000000E-03 0. -1.
         22    1    1    0    0    0 -0.25387413281E+02 -0.12281764230E+02  0.11817658502E+02  0.30578089185E+02  0.00000000000E+00 0. -1.
</event>
<event>
 5    1  0.6690694E-004  0.9118800E+02  0.7818608E-02  0.1130116E+00
         25   -1    0    0    0    0  0.00000000000E+00  0.00000000000E+00  0.99999998245E-14  0.12500000000E+03  0.12500000000E+03 0.  0.
        -11    1    3    3    0    0  0.87620092216E+01  0.35360593499E+02  0.24607389946E+02  0.43962120267E+02  0.51100000000E-03 0.  1.
         23    2    1    0    0    0 -0.24519141593E+02  0.13628564889E+02 -0.84956524872E+01  0.95689554822E+02  0.91090003323E+02 0.  0.
         11    1    3    3    0    0 -0.33281150814E+02 -0.21732028610E+02 -0.33103042433E+02  0.51727434554E+02  0.51100000000E-03 0. -1.
         22    1    1    0    0    0  0.24519141593E+02 -0.13628564889E+02  0.84956524872E+01  0.29310445178E+02  0.00000000000E+00 0. -1.
</event>
<event>
 5    1  0.6690694E-004  0.9118800E+02  0.7818608E-02  0.1130116E+00
         25   -1    0    0    0    0  0.00000000000E+00  0.00000000000E+00  0.99999998245E-14  0.12500000000E+03  0.12500000000E+03 0.  0.
        -11    1    3    3    0    0 -0.61248710065E+01  0.53273379460E+02  0.16609118888E+02  0.56137597334E+02  0.51100000000E-03 0. -1.
         23    2    1    0    0    0  0.53798583780E+01  0.27482760809E+02 -0.10315482917E+02  0.95156169722E+02  0.90355090784E+02 0.  0.
         11    1    3    3    0    0  0.11504729385E+02 -0.25790618651E+02 -0.26924601805E+02  0.39018572388E+02  0.51100000000E-03 0.  1.
         22    1    1    0    0    0 -0.53798583780E+01 -0.27482760809E+02  0.10315482917E+02  0.29843830278E+02  0.00000000000E+00 0. -1.
</event>
<event>
 5    1  0.6690694E-004  0.9118800E+02  0.7818608E-02  0.1130116E+00
         25   -1    0    0    0    0  0.00000000000E+00  0.00000000000E+00  0.99999998245E-14  0.12500000000E+03  0.12500000000E+03 0.  0.
        -11    1    3    3    0    0 -0.28612064517E+02 -0.15059387420E+02  0.45544070466E+02  0.55854254451E+02  0.51100000000E-03 0.  1.
         23    2    1    0    0    0 -0.16008603543E+02  0.13346408005E+02  0.16109101734E+02  0.98657920494E+02  0.95076180632E+02 0.  0.
         11    1    3    3    0    0  0.12603460974E+02  0.28405795424E+02 -0.29434968733E+02  0.42803666043E+02  0.51100000000E-03 0. -1.
         22    1    1    0    0    0  0.16008603543E+02 -0.13346408005E+02 -0.16109101734E+02  0.26342079506E+02  0.00000000000E+00 0.  1.
</event>
<event>
 5    1  0.6690694E-004  0.9118800E+02  0.7818608E-02  0.1130116E+00
         25   -1    0    0    0    0  0.00000000000E+00  0.00000000000E+00  0.99999998245E-14  0.12500000000E+03  0.12500000000E+03 0.  0.
        -11    1    3    3    0    0  0.18999535980E+02  0.31140658401E+02 -0.13583533277E+02  0.38926024067E+02  0.51100000000E-03 0. -1.
         23    2    1    0    0    0  0.55096779824E+01 -0.76210558376E+01  0.26856814153E+02  0.96544323765E+02  0.92255519841E+02 0.  0.
         11    1    3    3    0    0 -0.13489857998E+02 -0.38761714239E+02  0.40440347430E+02  0.57618299698E+02  0.51100000000E-03 0.  1.
         22    1    1    0    0    0 -0.55096779824E+01  0.76210558376E+01 -0.26856814153E+02  0.28455676235E+02  0.00000000000E+00 0.  1.
</event>
<event>
 5    1  0.6690694E-004  0.9118800E+02  0.7818608E-02  0.1130116E+00
         25   -1    0    0    0    0  0.00000000000E+00  0.00000000000E+00  0.99999998245E-14  0.12500000000E+03  0.12500000000E+03 0.  0.
        -11    1    3    3    0    0 -0.24802603281E+02 -0.42765111883E+01 -0.25872701179E+02  0.36095073681E+02  0.51100000000E-03 0. -1.
         23    2    1    0    0    0  0.79489223488E+01 -0.11030310341E+02  0.24747472421E+02  0.96763666953E+02  0.92552237889E+02 0.  0.
         11    1    3    3    0    0  0.32751525630E+02 -0.67537991527E+01  0.50620173600E+02  0.60668593272E+02  0.51100000000E-03 0.  1.
         22    1    1    0    0    0 -0.79489223488E+01  0.11030310341E+02 -0.24747472421E+02  0.28236333047E+02  0.00000000000E+00 0.  1.
</event>
<event>
 5    1  0.6690694E-004  0.9118800E+02  0.7818608E-02  0.1130116E+00
         25   -1    0    0    0    0  0.00000000000E+00  0.00000000000E+00  0.99999998245E-14  0.12500000000E+03  0.12500000000E+03 0.  0.
        -11    1    3    3    0    0  0.27547663987E+02  0.82301629542E+01  0.20157891984E+02  0.35113387517E+02  0.51100000000E-03 0. -1.
         23    2    1    0    0    0 -0.29429292003E+02  0.48201720371E+01  0.15909045271E+01  0.95136171319E+02  0.90327420144E+02 0.  0.
         11    1    3    3    0    0 -0.56976955990E+02 -0.34099909171E+01 -0.18566987457E+02  0.60022783803E+02  0.51100000000E-03 0.  1.
         22    1    1    0    0    0  0.29429292003E+02 -0.48201720371E+01 -0.15909045271E+01  0.29863828681E+02  0.00000000000E+00 0.  1.
</event>
<event>
 5    1  0.6690694E-004  0.9118800E+02  0.7818608E-02  0.1130116E+00
         25   -1    0    0    0    0  0.00000000000E+00  0.00000000000E+00  0.99999998245E-14  0.12500000000E+03  0.12500000000E+03 0.  0.
        -11    1    3    3    0    0  0.35511713477E+02  0.28586061643E+02 -0.16491108453E+02  0.48478875529E+02  0.51100000000E-03 0.  1.
         23    2    1    0    0    0 -0.84478863871E+01  0.17375086573E+02 -0.23708941715E+02  0.94416109876E+02  0.89325402149E+02 0.  0.
         11    1    3    3    0    0 -0.43959599864E+02 -0.11210975070E+02 -0.72178332620E+01  0.45937234347E+02  0.51100000000E-03 0. -1.
         22    1    1    0    0    0  0.84478863871E+01 -0.17375086573E+02  0.23708941715E+02  0.30583890124E+02  0.00000000000E+00 0. -1.
</event>
<event>
 5    1  0.6690694E-004  0.9118800E+02  0.7818608E-02  0.1130116E+00
         25   -1    0    0    0    0  0.00000000000E+00  0.00000000000E+00  0.99999998245E-14  0.12500000000E+03  0.12500000000E+03 0.  0.
        -11    1    3    3    0    0  0.84754118813E+01 -0.34159353630E+02 -0.11166121296E+02  0.36923926011E+02  0.51100000000E-03 0. -1.
         23    2    1    0    0    0 -0.27353814217E+02  0.87263732881E+01  0.65544684750E+01  0.95549332775E+02  0.90897377266E+02 0.  0.
         11    1    3    3    0    0 -0.35829226099E+02  0.42885726919E+02  0.17720589771E+02  0.58625406764E+02  0.51100000000E-03 0.  1.
         22    1    1    0    0    0  0.27353814217E+02 -0.87263732881E+01 -0.65544684750E+01  0.29450667225E+02  0.00000000000E+00 0.  1.
</event>
<event>
 5    1  0.6690694E-004  0.9118800E+02  0.7818608E-02  0.1130116E+00
         25   -1    0    0    0    0  0.00000000000E+00  0.00000000000E+00  0.99999998245E-14  0.12500000000E+03  0.12500000000E+03 0.  0.
        -11    1    3    3    0    0 -0.22828345647E+02 -0.12696641336E+02 -0.27530364874E+02  0.37950745138E+02  0.51100000000E-03 0.  1.
         23    2    1    0    0    0  0.14315499954E+02  0.24118580437E+02 -0.21494768803E+00  0.96952082720E+02  0.92806361205E+02 0.  0.
         11    1    3    3    0    0  0.37143845601E+02  0.36815221773E+02  0.27315417186E+02  0.59001337582E+02  0.51100000000E-03 0. -1.
         22    1    1    0    0    0 -0.14315499954E+02 -0.24118580437E+02  0.21494768803E+00  0.28047917280E+02  0.00000000000E+00 0. -1.
</event>
<event>
 5    1  0.6690694E-004  0.9118800E+02  0.7818608E-02  0.1130116E+00
         25   -1    0    0    0    0  0.00000000000E+00  0.00000000000E+00  0.99999998245E-14  0.12500000000E+03  0.12500000000E+03 0.  0.
        -11    1    3    3    0    0  0.25977928875E+02  0.43823818367E+02 -0.30976358571E+02  0.59623104880E+02  0.51100000000E-03 0. -1.
         23    2    1    0    0    0  0.18137894819E+02  0.10232257114E+02 -0.20751332069E+02  0.95601018780E+02  0.90968426913E+02 0.  0.
         11    1    3    3    0    0 -0.78400340563E+01 -0.33591561253E+02  0.10225026502E+02  0.35977913901E+02  0.51100000000E-03 0.  1.
         22    1    1    0    0    0 -0.18137894819E+02 -0.10232257114E+02  0.20751332069E+02  0.29398981220E+02  0.00000000000E+00 0. -1.
</event>
<event>
 5    1  0.6690694E-004  0.9118800E+02  0.7818608E-02  0.1130116E+00
         25   -1    0    0    0    0  0.00000000000E+00  0.00000000000E+00  0.99999998245E-14  0.12500000000E+03  0.12500000000E+03 0.  0.
        -11    1    3    3    0    0  0.32312437654E+02  0.23678974093E+02  0.96473367744E+01  0.41205079157E+02  0.51100000000E-03 0.  1.
         23    2    1    0    0    0 -0.23146061378E+02  0.13122762165E+02  0.56413606128E+01  0.97801250144E+02  0.93943134587E+02 0.  0.
         11    1    3    3    0    0 -0.55458499032E+02 -0.10556211928E+02 -0.40059761616E+01  0.56596170987E+02  0.51100000000E-03 0. -1.
         22    1    1    0    0    0  0.23146061378E+02 -0.13122762165E+02 -0.56413606128E+01  0.27198749856E+02  0.00000000000E+00 0.  1.
</event>
<event>
 5    1  0.6690694E-004  0.9118800E+02  0.7818608E-02  0.1130116E+00
         25   -1    0    0    0    0  0.00000000000E+00  0.00000000000E+00  0.99999998245E-14  0.12500000000E+03  0.12500000000E+03 0.  0.
        -11    1    3    3    0    0 -0.19978051923E+01 -0.39301922579E+01  0.34558553047E+02  0.34838645578E+02  0.51100000000E-03 0.  1.
         23    2    1    0    0    0 -0.15980529908E+02 -0.34240486200E+01 -0.24509501865E+02  0.95541264000E+02  0.90886280592E+02 0.  0.
         11    1    3    3    0    0 -0.13982724715E+02  0.50614363786E+00 -0.59068054912E+02  0.60702618421E+02  0.51100000000E-03 0. -1.
         22    1    1    0    0    0  0.15980529908E+02  0.34240486200E+01  0.24509501865E+02  0.29458736000E+02  0.00000000000E+00 0. -1.
</event>
<event>
 5    1  0.6690694E-004  0.9118800E+02  0.7818608E-02  0.1130116E+00
         25   -1    0    0    0    0  0.00000000000E+00  0.00000000000E+00  0.99999998245E-14  0.12500000000E+03  0.12500000000E+03 0.  0.
        -11    1    3    3    0    0 -0.48956421286E+02 -0.27909505491E+02  0.25287958221E+02  0.61766920865E+02  0.51100000000E-03 0. -1.
         23    2    1    0    0    0 -0.26237059079E+02 -0.12765233921E+02  0.59595431855E+01  0.95219962707E+02  0.90443300895E+02 0.  0.
         11    1    3    3    0    0  0.22719362207E+02  0.15144271569E+02 -0.19328415035E+02  0.33453041842E+02  0.51100000000E-03 0.  1.
         22    1    1    0    0    0  0.26237059079E+02  0.12765233921E+02 -0.59595431855E+01  0.29780037293E+02  0.00000000000E+00 0. -1.
</event>
<event>
 5    1  0.6690694E-004  0.9118800E+02  0.7818608E-02  0.1130116E+00
         25   -1    0    0    0    0  0.00000000000E+00  0.00000000000E+00  0.99999998245E-14  0.12500000000E+03  0.12500000000E+03 0.  0.
        -11    1    3    3    0    0 -0.14142307196E+02  0.59326397550E+02  0.81365494766E+01  0.61529096667E+02  0.51100000000E-03 0.  1.
         23    2    1    0    0    0 -0.82967357252E+01  0.27099910914E+02 -0.38337720309E+01  0.96400370575E+02  0.92060266368E+02 0.  0.
         11    1    3    3    0    0  0.58455714712E+01 -0.32226486635E+02 -0.11970321507E+02  0.34871273907E+02  0.51100000000E-03 0. -1.
         22    1    1    0    0    0  0.82967357252E+01 -0.27099910914E+02  0.38337720309E+01  0.28599629425E+02  0.00000000000E+00 0.  1.
</event>
<event>
 5    1  0.6690694E-004  0.9118800E+02  0.7818608E-02  0.1130116E+00
         25   -1    0    0    0    0  0.00000000000E+00  0.00000000000E+00  0.99999998245E-14  0.12500000000E+03  0.12500000000E+03 0.  0.
        -11    1    3    3    0    0  0.47384206891E+02  0.25135243131E+02 -0.51163379268E+01  0.53881540661E+02  0.51100000000E-03 0.  1.
         23    2    1    0    0    0  0.85470856071E+01  0.28120520061E+02  0.72114027551E+01  0.94737471180E+02  0.89773981727E+02 0.  0.
         11    1    3    3    0    0 -0.38837121284E+02  0.29852769303E+01  0.12327740682E+02  0.40855930519E+02  0.51100000000E-03 0. -1.
         22    1    1    0    0    0 -0.85470856071E+01 -0.28120520061E+02 -0.72114027551E+01  0.30262528820E+02  0.00000000000E+00 0.  1.
</event>
<event>
 5    1  0.6690694E-004  0.9118800E+02  0.7818608E-02  0.1130116E+00
         25   -1    0    0    0    0  0.00000000000E+00  0.00000000000E+00  0.99999998245E-14  0.12500000000E+03  0.12500000000E+03 0.  0.
        -11    1    3    3    0    0  0.33040974414E+02 -0.41116382707E+02  0.18425282280E+02  0.55872658291E+02  0.51100000000E-03 0.  1.
         23    2    1    0    0    0  0.22220579641E+02 -0.25373925687E+02 -0.97298505447E+01  0.89896435281E+02  0.82759342798E+02 0.  0.
         11    1    3    3    0    0 -0.10820394773E+02  0.15742457020E+02 -0.28155132825E+02  0.34023776991E+02  0.51100000000E-03 0. -1.
         22    1    1    0    0    0 -0.22220579641E+02  0.25373925687E+02  0.97298505447E+01  0.35103564719E+02  0.00000000000E+00 0.  1.
</event>
<event>
 5    1  0.6690694E-004  0.9118800E+02  0.7818608E-02  0.1130116E+00
         25   -1    0    0    0    0  0.00000000000E+00  0.00000000000E+00  0.99999998245E-14  0.12500000000E+03  0.12500000000E+03 0.  0.
        -11    1    3    3    0    0 -0.19279415339E+02 -0.27538376888E+02 -0.82846628863E+01  0.34622156156E+02  0.51100000000E-03 0. -1.
         23    2    1    0    0    0  0.18961708160E+02  0.18926758187E+02  0.81366838626E+01  0.97000461145E+02  0.92871498783E+02 0.  0.
         11    1    3    3    0    0  0.38241123499E+02  0.46465135075E+02  0.16421346749E+02  0.62378304989E+02  0.51100000000E-03 0.  1.
         22    1    1    0    0    0 -0.18961708160E+02 -0.18926758187E+02 -0.81366838626E+01  0.27999538855E+02  0.00000000000E+00 0.  1.
</event>
<event>
 5    1  0.6690694E-004  0.9118800E+02  0.7818608E-02  0.1130116E+00
         25   -1    0    0    0    0  0.00000000000E+00  0.00000000000E+00  0.99999998245E-14  0.12500000000E+03  0.12500000000E+03 0.  0.
        -11    1    3    3    0    0 -0.22421169857E+02 -0.24503490774E+02  0.84603486958E+01  0.34274004992E+02  0.51100000000E-03 0.  1.
         23    2    1    0    0    0  0.55768872961E+01  0.29048224265E+02 -0.81072405631E+00  0.95410165962E+02  0.90705796345E+02 0.  0.
         11    1    3    3    0    0  0.27998057153E+02  0.53551715039E+02 -0.92710727522E+01  0.61136160971E+02  0.51100000000E-03 0. -1.
         22    1    1    0    0    0 -0.55768872961E+01 -0.29048224265E+02  0.81072405631E+00  0.29589834038E+02  0.00000000000E+00 0. -1.
</event>
<event>
 5    1  0.6690694E-004  0.9118800E+02  0.7818608E-02  0.1130116E+00
         25   -1    0    0    0    0  0.00000000000E+00  0.00000000000E+00  0.99999998245E-14  0.12500000000E+03  0.12500000000E+03 0.  0.
        -11    1    3    3    0    0  0.28113697857E+02 -0.39358881388E+02 -0.10494677599E+02  0.49493836076E+02  0.51100000000E-03 0.  1.
         23    2    1    0    0    0  0.12249840246E+02  0.12113513593E+01 -0.26402385991E+02  0.95869055213E+02  0.91335994018E+02 0.  0.
         11    1    3    3    0    0 -0.15863857611E+02  0.40570232748E+02 -0.15907708392E+02  0.46375219137E+02  0.51100000000E-03 0. -1.
         22    1    1    0    0    0 -0.12249840246E+02 -0.12113513593E+01  0.26402385991E+02  0.29130944787E+02  0.00000000000E+00 0. -1.
</event>
<event>
 5    1  0.6690694E-004  0.9118800E+02  0.7818608E-02  0.1130116E+00
         25   -1    0    0    0    0  0.00000000000E+00  0.00000000000E+00  0.99999998245E-14  0.12500000000E+03  0.12500000000E+03 0.  0.
        -11    1    3    3    0    0 -0.46966111173E+01 -0.38867439125E+02  0.11297190100E+02  0.40747545749E+02  0.51100000000E-03 0. -1.
         23    2    1    0    0    0  0.15907426147E+02  0.15746796470E+02  0.12946309553E+02  0.99142414329E+02  0.95711042113E+02 0.  0.
         11    1    3    3    0    0  0.20604037264E+02  0.54614235595E+02  0.16491194530E+01  0.58394868580E+02  0.51100000000E-03 0.  1.
         22    1    1    0    0    0 -0.15907426147E+02 -0.15746796470E+02 -0.12946309553E+02  0.25857585671E+02  0.00000000000E+00 0.  1.
</event>
<event>
 5    1  0.6690694E-004  0.9118800E+02  0.7818608E-02  0.1130116E+00
         25   -1    0    0    0    0  0.00000000000E+00  0.00000000000E+00  0.99999998245E-14  0.12500000000E+03  0.12500000000E+03 0.  0.
        -11    1    3    3    0    0  0.84095111531E+01 -0.86182072794E+01 -0.59459714415E+02  0.60666720804E+02  0.51100000000E-03 0. -1.
         23    2    1    0    0    0  0.12850595609E+02  0.16585738984E+01 -0.25989740343E+02  0.95959420151E+02  0.91459581443E+02 0.  0.
         11    1    3    3    0    0  0.44410844555E+01  0.10276781178E+02  0.33469974072E+02  0.35292699347E+02  0.51100000000E-03 0.  1.
         22    1    1    0    0    0 -0.12850595609E+02 -0.16585738984E+01  0.25989740343E+02  0.29040579849E+02  0.00000000000E+00 0. -1.
</event>
<event>
 5    1  0.6690694E-004  0.9118800E+02  0.7818608E-02  0.1130116E+00
         25   -1    0    0    0    0  0.00000000000E+00  0.00000000000E+00  0.99999998245E-14  0.12500000000E+03  0.12500000000E+03 0.  0.
        -11    1    3    3    0    0 -0.12226089924E+02 -0.30954995303E+02  0.19133445328E+02  0.38389812964E+02  0.51100000000E-03 0.  1.
         23    2    1    0    0    0  0.80555367383E+01  0.10998075808E+02  0.34859005105E+02  0.87570071059E+02  0.79167656052E+02 0.  0.
         11    1    3    3    0    0  0.20281626662E+02  0.41953071111E+02  0.15725559777E+02  0.49180258095E+02  0.51100000000E-03 0. -1.
         22    1    1    0    0    0 -0.80555367383E+01 -0.10998075808E+02 -0.34859005105E+02  0.37429928941E+02  0.00000000000E+00 0.  1.
</event>
<event>
 5    1  0.6690694E-004  0.9118800E+02  0.7818608E-02  0.1130116E+00
         25   -1    0    0    0    0  0.00000000000E+00  0.00000000000E+00  0.99999998245E-14  0.12500000000E+03  0.12500000000E+03 0.  0.
        -11    1    3    3    0    0 -0.13959426417E+02  0.33004768903E+01 -0.31606997797E+02  0.34709667870E+02  0.51100000000E-03 0. -1.
         23    2    1    0    0    0  0.74307552202E+01  0.13611857273E+02  0.24709166866E+02  0.95827380838E+02  0.91278941764E+02 0.  0.
         11    1    3    3    0    0  0.21390181638E+02  0.10311380383E+02  0.56316164663E+02  0.61117712968E+02  0.51100000000E-03 0.  1.
         22    1    1    0    0    0 -0.74307552202E+01 -0.13611857273E+02 -0.24709166866E+02  0.29172619162E+02  0.00000000000E+00 0.  1.
</event>
<event>
 5    1  0.6690694E-004  0.9118800E+02  0.7818608E-02  0.1130116E+00
         25   -1    0    0    0    0  0.00000000000E+00  0.00000000000E+00  0.99999998245E-14  0.12500000000E+03  0.12500000000E+03 0.  0.
        -11    1    3    3    0    0  0.23423502758E+02 -0.15616230662E+02 -0.27147725185E+02  0.39109156531E+02  0.51100000000E-03 0.  1.
         23    2    1    0    0    0 -0.85904670627E+00 -0.15754627545E+02  0.24315667194E+02  0.96013832240E+02  0.91533917539E+02 0.  0.
         11    1    3    3    0    0 -0.24282549464E+02 -0.13839688289E+00  0.51463392379E+02  0.56904675710E+02  0.51100000000E-03 0. -1.
         22    1    1    0    0    0  0.85904670627E+00  0.15754627545E+02 -0.24315667194E+02  0.28986167760E+02  0.00000000000E+00 0. -1.
</event>
<event>
 5    1  0.6690694E-004  0.9118800E+02  0.7818608E-02  0.1130116E+00
         25   -1    0    0    0    0  0.00000000000E+00  0.00000000000E+00  0.99999998245E-14  0.12500000000E+03  0.12500000000E+03 0.  0.
        -11    1    3    3    0    0 -0.21092923363E+02  0.43683510356E+02  0.35505943830E+02  0.60115160655E+02  0.51100000000E-03 0. -1.
         23    2    1    0    0    0 -0.16819856861E+02  0.11753140088E+02  0.21611982184E+02  0.95198629886E+02  0.90413812393E+02 0.  0.
         11    1    3    3    0    0  0.42730665017E+01 -0.31930370269E+02 -0.13893961646E+02  0.35083469231E+02  0.51100000000E-03 0.  1.
         22    1    1    0    0    0  0.16819856861E+02 -0.11753140088E+02 -0.21611982184E+02  0.29801370114E+02  0.00000000000E+00 0. -1.
</event>
<event>
 5    1  0.6690694E-004  0.9118800E+02  0.7818608E-02  0.1130116E+00
         25   -1    0    0    0    0  0.00000000000E+00  0.00000000000E+00  0.99999998245E-14  0.12500000000E+03  0.12500000000E+03 0.  0.
        -11    1    3    3    0    0  0.27913938966E+02  0.17875494939E+02 -0.93548213173E+01  0.34441747779E+02  0.51100000000E-03 0.  1.
         23    2    1    0    0    0 -0.23805492336E+02 -0.14144647090E+02  0.48007082484E+01  0.96896275935E+02  0.92731165116E+02 0.  0.
         11    1    3    3    0    0 -0.51719431301E+02 -0.32020142029E+02  0.14155529566E+02  0.62454528156E+02  0.51100000000E-03 0. -1.
         22    1    1    0    0    0  0.23805492336E+02  0.14144647090E+02 -0.48007082484E+01  0.28103724065E+02  0.00000000000E+00 0. -1.
</event>
<event>
 5    1  0.6690694E-004  0.9118800E+02  0.7818608E-02  0.1130116E+00
         25   -1    0    0    0    0  0.00000000000E+00  0.00000000000E+00  0.99999998245E-14  0.12500000000E+03  0.12500000000E+03 0.  0.
        -11    1    3    3    0    0 -0.25749573490E+02  0.16315282037E+02  0.23122970426E+02  0.38260955613E+02  0.51100000000E-03 0.  1.
         23    2    1    0    0    0  0.84445598490E+01  0.22385805863E+02 -0.20131210752E+02  0.93731796638E+02  0.88362600456E+02 0.  0.
         11    1    3    3    0    0  0.34194133339E+02  0.60705238259E+01 -0.43254181178E+02  0.55470841024E+02  0.51100000000E-03 0. -1.
         22    1    1    0    0    0 -0.84445598490E+01 -0.22385805863E+02  0.20131210752E+02  0.31268203362E+02  0.00000000000E+00 0. -1.
</event>
<event>
 5    1  0.6690694E-004  0.9118800E+02  0.7818608E-02  0.1130116E+00
         25   -1    0    0    0    0  0.00000000000E+00  0.00000000000E+00  0.99999998245E-14  0.12500000000E+03  0.12500000000E+03 0.  0.
        -11    1    3    3    0    0  0.45077766461E+02  0.16553579331E+02 -0.39618947757E+02  0.62255016179E+02  0.51100000000E-03 0. -1.
         23    2    1    0    0    0  0.24387848244E+02  0.65500233899E+01 -0.16611797606E+02  0.94773823132E+02  0.89824583400E+02 0.  0.
         11    1    3    3    0    0 -0.20689918217E+02 -0.10003555941E+02  0.23007150151E+02  0.32518806953E+02  0.51100000000E-03 0.  1.
         22    1    1    0    0    0 -0.24387848244E+02 -0.65500233899E+01  0.16611797606E+02  0.30226176868E+02  0.00000000000E+00 0. -1.
</event>
<event>
 5    1  0.6690694E-004  0.9118800E+02  0.7818608E-02  0.1130116E+00
         25   -1    0    0    0    0  0.00000000000E+00  0.00000000000E+00  0.99999998245E-14  0.12500000000E+03  0.12500000000E+03 0.  0.
        -11    1    3    3    0    0 -0.43537676304E+02 -0.61209616403E+01 -0.41746335853E+02  0.60627980230E+02  0.51100000000E-03 0. -1.
         23    2    1    0    0    0 -0.12086248467E+02 -0.10843668310E+02 -0.20378010882E+02  0.98943793984E+02  0.95451288604E+02 0.  0.
         11    1    3    3    0    0  0.31451427837E+02 -0.47227066694E+01  0.21368324971E+02  0.38315813754E+02  0.51100000000E-03 0.  1.
         22    1    1    0    0    0  0.12086248467E+02  0.10843668310E+02  0.20378010882E+02  0.26056206016E+02  0.00000000000E+00 0. -1.
</event>
<event>
 5    1  0.6690694E-004  0.9118800E+02  0.7818608E-02  0.1130116E+00
         25   -1    0    0    0    0  0.00000000000E+00  0.00000000000E+00  0.99999998245E-14  0.12500000000E+03  0.12500000000E+03 0.  0.
        -11    1    3    3    0    0 -0.73096242402E+01  0.20229501740E+02 -0.18512402639E+02  0.28379083828E+02  0.51100000000E-03 0. -1.
         23    2    1    0    0    0  0.33403698825E+02  0.63887347620E+01  0.19520543324E+02  0.85786805298E+02  0.76300074211E+02 0.  0.
         11    1    3    3    0    0  0.40713323065E+02 -0.13840766978E+02  0.38032945963E+02  0.57407721470E+02  0.51100000000E-03 0.  1.
         22    1    1    0    0    0 -0.33403698825E+02 -0.63887347620E+01 -0.19520543324E+02  0.39213194702E+02  0.00000000000E+00 0.  1.
</event>
<event>
 5    1  0.6690694E-004  0.9118800E+02  0.7818608E-02  0.1130116E+00
         25   -1    0    0    0    0  0.00000000000E+00  0.00000000000E+00  0.99999998245E-14  0.12500000000E+03  0.12500000000E+03 0.  0.
        -11    1    3    3    0    0  0.20875957111E+02 -0.36566599569E+02 -0.72220437576E+01  0.42720951600E+02  0.51100000000E-03 0.  1.
         23    2    1    0    0    0  0.64214437760E+01  0.84453710352E+01 -0.28518358362E+02  0.94572118119E+02  0.89543450513E+02 0.  0.
         11    1    3    3    0    0 -0.14454513335E+02  0.45011970604E+02 -0.21296314605E+02  0.51851166519E+02  0.51100000000E-03 0. -1.
         22    1    1    0    0    0 -0.64214437760E+01 -0.84453710352E+01  0.28518358362E+02  0.30427881881E+02  0.00000000000E+00 0. -1.
</event>
<event>
 5    1  0.6690694E-004  0.9118800E+02  0.7818608E-02  0.1130116E+00
         25   -1    0    0    0    0  0.00000000000E+00  0.00000000000E+00  0.99999998245E-14  0.12500000000E+03  0.12500000000E+03 0.  0.
        -11    1    3    3    0    0  0.20568501025E+02 -0.97230081654E+01  0.28656860086E+02  0.36589831271E+02  0.51100000000E-03 0. -1.
         23    2    1    0    0    0 -0.97357352952E+01  0.27806509177E+02 -0.46017318849E+01  0.95181173217E+02  0.90389674766E+02 0.  0.
         11    1    3    3    0    0 -0.30304236320E+02  0.37529517343E+02 -0.33258591971E+02  0.58591341946E+02  0.51100000000E-03 0.  1.
         22    1    1    0    0    0  0.97357352952E+01 -0.27806509177E+02  0.46017318849E+01  0.29818826783E+02  0.00000000000E+00 0.  1.
</event>
<event>
 5    1  0.6690694E-004  0.9118800E+02  0.7818608E-02  0.1130116E+00
         25   -1    0    0    0    0  0.00000000000E+00  0.00000000000E+00  0.99999998245E-14  0.12500000000E+03  0.12500000000E+03 0.  0.
        -11    1    3    3    0    0  0.52826940730E+02  0.13031834902E+02  0.80120698622E+01  0.54997342223E+02  0.51100000000E-03 0. -1.
         23    2    1    0    0    0  0.22304122840E+02  0.92420085707E+01  0.25092292761E+02  0.90178860241E+02  0.83184824700E+02 0.  0.
         11    1    3    3    0    0 -0.30522817890E+02 -0.37898263313E+01  0.17080222899E+02  0.35181518019E+02  0.51100000000E-03 0.  1.
         22    1    1    0    0    0 -0.22304122840E+02 -0.92420085707E+01 -0.25092292761E+02  0.34821139759E+02  0.00000000000E+00 0. -1.
</event>
<event>
 5    1  0.6690694E-004  0.9118800E+02  0.7818608E-02  0.1130116E+00
         25   -1    0    0    0    0  0.00000000000E+00  0.00000000000E+00  0.99999998245E-14  0.12500000000E+03  0.12500000000E+03 0.  0.
        -11    1    3    3    0    0 -0.87592185878E+01 -0.31025022735E+01 -0.33809080758E+02  0.35062848894E+02  0.51100000000E-03 0.  1.
         23    2    1    0    0    0  0.39756711017E+01  0.23629274481E+02  0.18200059791E+02  0.94910288310E+02  0.90014288185E+02 0.  0.
         11    1    3    3    0    0  0.12734889689E+02  0.26731776754E+02  0.52009140548E+02  0.59847439416E+02  0.51100000000E-03 0. -1.
         22    1    1    0    0    0 -0.39756711017E+01 -0.23629274481E+02 -0.18200059791E+02  0.30089711690E+02  0.00000000000E+00 0. -1.
</event>
<event>
 5    1  0.6690694E-004  0.9118800E+02  0.7818608E-02  0.1130116E+00
         25   -1    0    0    0    0  0.00000000000E+00  0.00000000000E+00  0.99999998245E-14  0.12500000000E+03  0.12500000000E+03 0.  0.
        -11    1    3    3    0    0  0.34423677414E+02 -0.18664783007E+02 -0.11834386191E+02  0.40907412387E+02  0.51100000000E-03 0. -1.
         23    2    1    0    0    0 -0.84932521617E+00  0.25372718844E+02 -0.10990653778E+02  0.97336112252E+02  0.93322173480E+02 0.  0.
         11    1    3    3    0    0 -0.35273002630E+02  0.44037501851E+02  0.84373241275E+00  0.56428699865E+02  0.51100000000E-03 0.  1.
         22    1    1    0    0    0  0.84932521617E+00 -0.25372718844E+02  0.10990653778E+02  0.27663887748E+02  0.00000000000E+00 0.  1.
</event>
<event>
 5    1  0.6690694E-004  0.9118800E+02  0.7818608E-02  0.1130116E+00
         25   -1    0    0    0    0  0.00000000000E+00  0.00000000000E+00  0.99999998245E-14  0.12500000000E+03  0.12500000000E+03 0.  0.
        -11    1    3    3    0    0 -0.84955441540E+01 -0.27115973598E+02 -0.22700896958E+02  0.36370056607E+02  0.51100000000E-03 0. -1.
         23    2    1    0    0    0  0.24339321998E+02 -0.73533140878E+01  0.19189182506E+02  0.93145666721E+02  0.87529518908E+02 0.  0.
         11    1    3    3    0    0  0.32834866152E+02  0.19762659510E+02  0.41890079463E+02  0.56775610114E+02  0.51100000000E-03 0.  1.
         22    1    1    0    0    0 -0.24339321998E+02  0.73533140878E+01 -0.19189182506E+02  0.31854333279E+02  0.00000000000E+00 0.  1.
</event>
<event>
 5    1  0.6690694E-004  0.9118800E+02  0.7818608E-02  0.1130116E+00
         25   -1    0    0    0    0  0.00000000000E+00  0.00000000000E+00  0.99999998245E-14  0.12500000000E+03  0.12500000000E+03 0.  0.
        -11    1    3    3    0    0 -0.35662696821E+02 -0.19697453186E+01  0.32387617247E+01  0.35863594618E+02  0.51100000000E-03 0.  1.
         23    2    1    0    0    0  0.21524993038E+02 -0.74122667195E+01  0.18905869149E+02  0.95407789683E+02  0.90702521579E+02 0.  0.
         11    1    3    3    0    0  0.57187689859E+02 -0.54425214010E+01  0.15667107424E+02  0.59544195064E+02  0.51100000000E-03 0. -1.
         22    1    1    0    0    0 -0.21524993038E+02  0.74122667195E+01 -0.18905869149E+02  0.29592210317E+02  0.00000000000E+00 0. -1.
</event>
<event>
 5    1  0.6690694E-004  0.9118800E+02  0.7818608E-02  0.1130116E+00
         25   -1    0    0    0    0  0.00000000000E+00  0.00000000000E+00  0.99999998245E-14  0.12500000000E+03  0.12500000000E+03 0.  0.
        -11    1    3    3    0    0  0.13985281604E+02  0.21331723359E+02  0.12404605389E+02  0.28363793084E+02  0.51100000000E-03 0.  1.
         23    2    1    0    0    0  0.11901416008E+01 -0.25037554466E+02 -0.25227152187E+02  0.89437311995E+02  0.82062951438E+02 0.  0.
         11    1    3    3    0    0 -0.12795140003E+02 -0.46369277824E+02 -0.37631757576E+02  0.61073518911E+02  0.51100000000E-03 0. -1.
         22    1    1    0    0    0 -0.11901416008E+01  0.25037554466E+02  0.25227152187E+02  0.35562688005E+02  0.00000000000E+00 0. -1.
</event>
<event>
 5    1  0.6690694E-004  0.9118800E+02  0.7818608E-02  0.1130116E+00
         25   -1    0    0    0    0  0.00000000000E+00  0.00000000000E+00  0.99999998245E-14  0.12500000000E+03  0.12500000000E+03 0.  0.
        -11    1    3    3    0    0  0.36454896824E+02 -0.61841958705E+01  0.13255474762E+02  0.39279910800E+02  0.51100000000E-03 0.  1.
         23    2    1    0    0    0 -0.30985700256E+01  0.26231301530E+02 -0.11613921798E+02  0.96145788943E+02  0.91713942429E+02 0.  0.
         11    1    3    3    0    0 -0.39553466849E+02  0.32415497401E+02 -0.24869396561E+02  0.56865878144E+02  0.51100000000E-03 0. -1.
         22    1    1    0    0    0  0.30985700256E+01 -0.26231301530E+02  0.11613921798E+02  0.28854211057E+02  0.00000000000E+00 0. -1.
</event>
<event>
 5    1  0.6690694E-004  0.9118800E+02  0.7818608E-02  0.1130116E+00
         25   -1    0    0    0    0  0.00000000000E+00  0.00000000000E+00  0.99999998245E-14  0.12500000000E+03  0.12500000000E+03 0.  0.
        -11    1    3    3    0    0  0.21724323568E+02 -0.68314834719E+01 -0.25261103682E+02  0.34010862388E+02  0.51100000000E-03 0. -1.
         23    2    1    0    0    0 -0.13216833451E+02 -0.12642129271E+02  0.24087532658E+02  0.94755705521E+02  0.89799367372E+02 0.  0.
         11    1    3    3    0    0 -0.34941157019E+02 -0.58106457992E+01  0.49348636339E+02  0.60744843133E+02  0.51100000000E-03 0.  1.
         22    1    1    0    0    0  0.13216833451E+02  0.12642129271E+02 -0.24087532658E+02  0.30244294479E+02  0.00000000000E+00 0.  1.
</event>
<event>
 5    1  0.6690694E-004  0.9118800E+02  0.7818608E-02  0.1130116E+00
         25   -1    0    0    0    0  0.00000000000E+00  0.00000000000E+00  0.99999998245E-14  0.12500000000E+03  0.12500000000E+03 0.  0.
        -11    1    3    3    0    0 -0.28926893937E+02  0.30150586353E+01  0.54758175595E+02  0.62002528708E+02  0.51100000000E-03 0. -1.
         23    2    1    0    0    0 -0.76564945220E+01  0.33969824639E+01  0.25373129359E+02  0.98280024482E+02  0.94578042486E+02 0.  0.
         11    1    3    3    0    0  0.21270399415E+02  0.38192382859E+00 -0.29385046236E+02  0.36277495774E+02  0.51100000000E-03 0.  1.
         22    1    1    0    0    0  0.76564945220E+01 -0.33969824639E+01 -0.25373129359E+02  0.26719975518E+02  0.00000000000E+00 0. -1.
</event>
<event>
 5    1  0.6690694E-004  0.9118800E+02  0.7818608E-02  0.1130116E+00
         25   -1    0    0    0    0  0.00000000000E+00  0.00000000000E+00  0.99999998245E-14  0.12500000000E+03  0.12500000000E+03 0.  0.
        -11    1    3    3    0    0 -0.10213629624E+02  0.43637194734E+02 -0.25657299400E+02  0.51641262641E+02  0.51100000000E-03 0.  1.
         23    2    1    0    0    0  0.10744382347E+02  0.57365264336E+01 -0.27430589419E+02  0.94986890807E+02  0.90120600873E+02 0.  0.
         11    1    3    3    0    0  0.20958011971E+02 -0.37900668300E+02 -0.17732900186E+01  0.43345628166E+02  0.51100000000E-03 0. -1.
         22    1    1    0    0    0 -0.10744382347E+02 -0.57365264336E+01  0.27430589419E+02  0.30013109193E+02  0.00000000000E+00 0. -1.
</event>
<event>
 5    1  0.6690694E-004  0.9118800E+02  0.7818608E-02  0.1130116E+00
         25   -1    0    0    0    0  0.00000000000E+00  0.00000000000E+00  0.99999998245E-14  0.12500000000E+03  0.12500000000E+03 0.  0.
        -11    1    3    3    0    0 -0.40548100485E+01  0.46308868142E+02 -0.96787373045E+01  0.47482951774E+02  0.51100000000E-03 0. -1.
         23    2    1    0    0    0 -0.23328473028E+02  0.88072645405E+01  0.14566820497E+02  0.96121325829E+02  0.91680594769E+02 0.  0.
         11    1    3    3    0    0 -0.19273662979E+02 -0.37501603601E+02  0.24245557802E+02  0.48638374055E+02  0.51100000000E-03 0.  1.
         22    1    1    0    0    0  0.23328473028E+02 -0.88072645405E+01 -0.14566820497E+02  0.28878674171E+02  0.00000000000E+00 0.  1.
</event>
<event>
 5    1  0.6690694E-004  0.9118800E+02  0.7818608E-02  0.1130116E+00
         25   -1    0    0    0    0  0.00000000000E+00  0.00000000000E+00  0.99999998245E-14  0.12500000000E+03  0.12500000000E+03 0.  0.
        -11    1    3    3    0    0  0.27998000945E+02 -0.29739076613E+02 -0.25878221464E+01  0.40926734031E+02  0.51100000000E-03 0.  1.
         23    2    1    0    0    0 -0.15224867380E+02  0.20615923976E-01  0.21489466840E+02  0.98663823421E+02  0.95083941101E+02 0.  0.
         11    1    3    3    0    0 -0.43222868324E+02  0.29759692537E+02  0.24077288986E+02  0.57737089390E+02  0.51100000000E-03 0. -1.
         22    1    1    0    0    0  0.15224867380E+02 -0.20615923976E-01 -0.21489466840E+02  0.26336176579E+02  0.00000000000E+00 0. -1.
</event>
<event>
 5    1  0.6690694E-004  0.9118800E+02  0.7818608E-02  0.1130116E+00
         25   -1    0    0    0    0  0.00000000000E+00  0.00000000000E+00  0.99999998245E-14  0.12500000000E+03  0.12500000000E+03 0.  0.
        -11    1    3    3    0    0 -0.42709973435E+02  0.32153023944E+02  0.11649321161E+01  0.53472570975E+02  0.51100000000E-03 0. -1.
         23    2    1    0    0    0 -0.19671593225E+02  0.51449246506E+01 -0.21355505189E+02  0.95512724243E+02  0.90847020098E+02 0.  0.
         11    1    3    3    0    0  0.23038380209E+02 -0.27008099294E+02 -0.22520437306E+02  0.42040153268E+02  0.51100000000E-03 0.  1.
         22    1    1    0    0    0  0.19671593225E+02 -0.51449246506E+01  0.21355505189E+02  0.29487275757E+02  0.00000000000E+00 0. -1.
</event>
<event>
 5    1  0.6690694E-004  0.9118800E+02  0.7818608E-02  0.1130116E+00
         25   -1    0    0    0    0  0.00000000000E+00  0.00000000000E+00  0.99999998245E-14  0.12500000000E+03  0.12500000000E+03 0.  0.
        -11    1    3    3    0    0 -0.11432149134E+02 -0.17371273743E+02  0.34772378988E+02  0.40516336532E+02  0.51100000000E-03 0. -1.
         23    2    1    0    0    0  0.27261968022E+02 -0.19428114197E+01 -0.39429823090E+01  0.97385936080E+02  0.93388885956E+02 0.  0.
         11    1    3    3    0    0  0.38694117157E+02  0.15428462323E+02 -0.38715361297E+02  0.56869599548E+02  0.51100000000E-03 0.  1.
         22    1    1    0    0    0 -0.27261968022E+02  0.19428114197E+01  0.39429823090E+01  0.27614063920E+02  0.00000000000E+00 0.  1.
</event>
<event>
 5    1  0.6690694E-004  0.9118800E+02  0.7818608E-02  0.1130116E+00
         25   -1    0    0    0    0  0.00000000000E+00  0.00000000000E+00  0.99999998245E-14  0.12500000000E+03  0.12500000000E+03 0.  0.
        -11    1    3    3    0    0 -0.81619319253E+01  0.21255513105E+02  0.21965455258E+02  0.31636927712E+02  0.51100000000E-03 0. -1.
         23    2    1    0    0    0 -0.80004057244E+00 -0.34119193792E+02  0.25516888901E+01  0.90776169617E+02  0.84077597516E+02 0.  0.
         11    1    3    3    0    0  0.73618913529E+01 -0.55374706897E+02 -0.19413766368E+02  0.59139241904E+02  0.51100000000E-03 0.  1.
         22    1    1    0    0    0  0.80004057244E+00  0.34119193792E+02 -0.25516888901E+01  0.34223830383E+02  0.00000000000E+00 0.  1.
</event>
<event>
 5    1  0.6690694E-004  0.9118800E+02  0.7818608E-02  0.1130116E+00
         25   -1    0    0    0    0  0.00000000000E+00  0.00000000000E+00  0.99999998245E-14  0.12500000000E+03  0.12500000000E+03 0.  0.
        -11    1    3    3    0    0  0.53351446294E+02 -0.11893350117E+02  0.51897467496E+01  0.54906849029E+02  0.51100000000E-03 0.  1.
         23    2    1    0    0    0  0.15550602338E+02 -0.16882450886E+02  0.18736686634E+02  0.95370592193E+02  0.90651244052E+02 0.  0.
         11    1    3    3    0    0 -0.37800843956E+02 -0.49891007689E+01  0.13546939885E+02  0.40463743163E+02  0.51100000000E-03 0. -1.
         22    1    1    0    0    0 -0.15550602338E+02  0.16882450886E+02 -0.18736686634E+02  0.29629407807E+02  0.00000000000E+00 0.  1.
</event>
<event>
 5    1  0.6690694E-004  0.9118800E+02  0.7818608E-02  0.1130116E+00
         25   -1    0    0    0    0  0.00000000000E+00  0.00000000000E+00  0.99999998245E-14  0.12500000000E+03  0.12500000000E+03 0.  0.
        -11    1    3    3    0    0 -0.22911912819E+02  0.12870952794E+02  0.33925114859E+02  0.42913058541E+02  0.51100000000E-03 0.  1.
         23    2    1    0    0    0 -0.16198045843E+02 -0.24484017136E+02 -0.25241307951E+01  0.95534511365E+02  0.90876992914E+02 0.  0.
         11    1    3    3    0    0  0.67138669759E+01 -0.37354969930E+02 -0.36449245654E+02  0.52621452824E+02  0.51100000000E-03 0. -1.
         22    1    1    0    0    0  0.16198045843E+02  0.24484017136E+02  0.25241307951E+01  0.29465488635E+02  0.00000000000E+00 0. -1.
</event>
<event>
 5    1  0.6690694E-004  0.9118800E+02  0.7818608E-02  0.1130116E+00
         25   -1    0    0    0    0  0.00000000000E+00  0.00000000000E+00  0.99999998245E-14  0.12500000000E+03  0.12500000000E+03 0.  0.
        -11    1    3    3    0    0 -0.20141513395E+02 -0.33932789355E+01  0.48345141067E+02  0.52482831181E+02  0.51100000000E-03 0. -1.
         23    2    1    0    0    0 -0.28766425949E+02  0.67137858875E+01  0.88345751298E+01  0.94167680909E+02  0.88977076976E+02 0.  0.
         11    1    3    3    0    0 -0.86249125541E+01  0.10107064823E+02 -0.39510565937E+02  0.41684849728E+02  0.51100000000E-03 0.  1.
         22    1    1    0    0    0  0.28766425949E+02 -0.67137858875E+01 -0.88345751298E+01  0.30832319091E+02  0.00000000000E+00 0. -1.
</event>
<event>
 5    1  0.6690694E-004  0.9118800E+02  0.7818608E-02  0.1130116E+00
         25   -1    0    0    0    0  0.00000000000E+00  0.00000000000E+00  0.99999998245E-14  0.12500000000E+03  0.12500000000E+03 0.  0.
        -11    1    3    3    0    0 -0.82193166676E+01  0.45336572331E+02  0.11859551666E+02  0.47577420309E+02  0.51100000000E-03 0. -1.
         23    2    1    0    0    0  0.97404039384E+00  0.14457716081E+02 -0.24734540869E+02  0.96333437231E+02  0.91969338955E+02 0.  0.
         11    1    3    3    0    0  0.91933570615E+01 -0.30878856250E+02 -0.36594092536E+02  0.48756016922E+02  0.51100000000E-03 0.  1.
         22    1    1    0    0    0 -0.97404039384E+00 -0.14457716081E+02  0.24734540869E+02  0.28666562769E+02  0.00000000000E+00 0. -1.
</event>
<event>
 5    1  0.6690694E-004  0.9118800E+02  0.7818608E-02  0.1130116E+00
         25   -1    0    0    0    0  0.00000000000E+00  0.00000000000E+00  0.99999998245E-14  0.12500000000E+03  0.12500000000E+03 0.  0.
        -11    1    3    3    0    0  0.12089847730E+02  0.31653986429E+02 -0.37757785140E+01  0.34093925832E+02  0.51100000000E-03 0.  1.
         23    2    1    0    0    0 -0.14747584090E+02 -0.20001332538E+02  0.15850986111E+02  0.95524615346E+02  0.90863380064E+02 0.  0.
         11    1    3    3    0    0 -0.26837431820E+02 -0.51655318967E+02  0.19626764625E+02  0.61430689514E+02  0.51100000000E-03 0. -1.
         22    1    1    0    0    0  0.14747584090E+02  0.20001332538E+02 -0.15850986111E+02  0.29475384654E+02  0.00000000000E+00 0. -1.
</event>
<event>
 5    1  0.6690694E-004  0.9118800E+02  0.7818608E-02  0.1130116E+00
         25   -1    0    0    0    0  0.00000000000E+00  0.00000000000E+00  0.99999998245E-14  0.12500000000E+03  0.12500000000E+03 0.  0.
        -11    1    3    3    0    0 -0.28266933976E+02  0.20410353030E+01  0.44412487570E+01  0.28686409191E+02  0.51100000000E-03 0. -1.
         23    2    1    0    0    0  0.26573461083E+02 -0.28977993114E+01  0.25897359376E+02  0.87781465674E+02  0.79500732188E+02 0.  0.
         11    1    3    3    0    0  0.54840395059E+02 -0.49388346145E+01  0.21456110619E+02  0.59095056483E+02  0.51100000000E-03 0.  1.
         22    1    1    0    0    0 -0.26573461083E+02  0.28977993114E+01 -0.25897359376E+02  0.37218534326E+02  0.00000000000E+00 0.  1.
</event>
<event>
 5    1  0.6690694E-004  0.9118800E+02  0.7818608E-02  0.1130116E+00
         25   -1    0    0    0    0  0.00000000000E+00  0.00000000000E+00  0.99999998245E-14  0.12500000000E+03  0.12500000000E+03 0.  0.
        -11    1    3    3    0    0 -0.23354617368E+02 -0.59093760918E+01 -0.27963593428E+02  0.36909638793E+02  0.51100000000E-03 0.  1.
         23    2    1    0    0    0  0.95282534558E+01 -0.13335051281E+02  0.22235156858E+02  0.97377302683E+02  0.93377329533E+02 0.  0.
         11    1    3    3    0    0  0.32882870824E+02 -0.74256751888E+01  0.50198750287E+02  0.60467663889E+02  0.51100000000E-03 0. -1.
         22    1    1    0    0    0 -0.95282534558E+01  0.13335051281E+02 -0.22235156858E+02  0.27622697317E+02  0.00000000000E+00 0. -1.
</event>
<event>
 5    1  0.6690694E-004  0.9118800E+02  0.7818608E-02  0.1130116E+00
         25   -1    0    0    0    0  0.00000000000E+00  0.00000000000E+00  0.99999998245E-14  0.12500000000E+03  0.12500000000E+03 0.  0.
        -11    1    3    3    0    0 -0.14445066016E+02  0.61829078255E+01  0.32388384755E+02  0.35998552035E+02  0.51100000000E-03 0. -1.
         23    2    1    0    0    0 -0.74232297385E+01  0.72176515743E+01 -0.27141846452E+02  0.95950410281E+02  0.91447266609E+02 0.  0.
         11    1    3    3    0    0  0.70218362774E+01  0.10347437488E+01 -0.59530231207E+02  0.59951858246E+02  0.51100000000E-03 0.  1.
         22    1    1    0    0    0  0.74232297385E+01 -0.72176515743E+01  0.27141846452E+02  0.29049589719E+02  0.00000000000E+00 0.  1.
</event>
<event>
 5    1  0.6690694E-004  0.9118800E+02  0.7818608E-02  0.1130116E+00
         25   -1    0    0    0    0  0.00000000000E+00  0.00000000000E+00  0.99999998245E-14  0.12500000000E+03  0.12500000000E+03 0.  0.
        -11    1    3    3    0    0  0.15063664020E+02 -0.26754941484E+02 -0.14825413016E+02  0.34095949010E+02  0.51100000000E-03 0.  1.
         23    2    1    0    0    0 -0.59166708315E+01  0.29270225519E+02 -0.48918135606E+01  0.94739746604E+02  0.89777149938E+02 0.  0.
         11    1    3    3    0    0 -0.20980334852E+02  0.56025167003E+02  0.99335994555E+01  0.60643797594E+02  0.51100000000E-03 0. -1.
         22    1    1    0    0    0  0.59166708315E+01 -0.29270225519E+02  0.48918135606E+01  0.30260253396E+02  0.00000000000E+00 0. -1.
</event>
<event>
 5    1  0.6690694E-004  0.9118800E+02  0.7818608E-02  0.1130116E+00
         25   -1    0    0    0    0  0.00000000000E+00  0.00000000000E+00  0.99999998245E-14  0.12500000000E+03  0.12500000000E+03 0.  0.
        -11    1    3    3    0    0 -0.28981218059E+02 -0.31495321780E+02 -0.39532345149E+02  0.58263819026E+02  0.51100000000E-03 0. -1.
         23    2    1    0    0    0 -0.14546347128E+01 -0.25335129343E+02 -0.15983094835E+02  0.95009267073E+02  0.90151632089E+02 0.  0.
         11    1    3    3    0    0  0.27526583347E+02  0.61601924370E+01  0.23549250314E+02  0.36745448047E+02  0.51100000000E-03 0.  1.
         22    1    1    0    0    0  0.14546347128E+01  0.25335129343E+02  0.15983094835E+02  0.29990732927E+02  0.00000000000E+00 0. -1.
</event>
<event>
 5    1  0.6690694E-004  0.9118800E+02  0.7818608E-02  0.1130116E+00
         25   -1    0    0    0    0  0.00000000000E+00  0.00000000000E+00  0.99999998245E-14  0.12500000000E+03  0.12500000000E+03 0.  0.
        -11    1    3    3    0    0  0.83458614067E+01 -0.42058133389E+02 -0.39934918401E+02  0.58594689987E+02  0.51100000000E-03 0.  1.
         23    2    1    0    0    0 -0.95679938173E+01 -0.13930376615E+02 -0.24237770968E+02  0.95452217684E+02  0.90763728553E+02 0.  0.
         11    1    3    3    0    0 -0.17913855224E+02  0.28127756773E+02  0.15697147433E+02  0.36857527696E+02  0.51100000000E-03 0. -1.
         22    1    1    0    0    0  0.95679938173E+01  0.13930376615E+02  0.24237770968E+02  0.29547782316E+02  0.00000000000E+00 0.  1.
</event>
<event>
 5    1  0.6690694E-004  0.9118800E+02  0.7818608E-02  0.1130116E+00
         25   -1    0    0    0    0  0.00000000000E+00  0.00000000000E+00  0.99999998245E-14  0.12500000000E+03  0.12500000000E+03 0.  0.
        -11    1    3    3    0    0  0.26661463798E+02  0.43587329462E+02  0.42398297605E+01  0.51270509049E+02  0.51100000000E-03 0.  1.
         23    2    1    0    0    0  0.21062662743E+02  0.56445684314E+01 -0.18967701890E+02  0.96098951064E+02  0.91650083284E+02 0.  0.
         11    1    3    3    0    0 -0.55988010550E+01 -0.37942761031E+02 -0.23207531651E+02  0.44828442015E+02  0.51100000000E-03 0. -1.
         22    1    1    0    0    0 -0.21062662743E+02 -0.56445684314E+01  0.18967701890E+02  0.28901048936E+02  0.00000000000E+00 0. -1.
</event>
<event>
 5    1  0.6690694E-004  0.9118800E+02  0.7818608E-02  0.1130116E+00
         25   -1    0    0    0    0  0.00000000000E+00  0.00000000000E+00  0.99999998245E-14  0.12500000000E+03  0.12500000000E+03 0.  0.
        -11    1    3    3    0    0  0.19966487420E+02  0.46668767139E+02 -0.93244817337E+01  0.51609886708E+02  0.51100000000E-03 0. -1.
         23    2    1    0    0    0 -0.11396076539E+02  0.24537775126E+02 -0.19887962551E+02  0.91421673314E+02  0.85031866547E+02 0.  0.
         11    1    3    3    0    0 -0.31362563958E+02 -0.22130992013E+02 -0.10563480817E+02  0.39811786606E+02  0.51100000000E-03 0.  1.
         22    1    1    0    0    0  0.11396076539E+02 -0.24537775126E+02  0.19887962551E+02  0.33578326686E+02  0.00000000000E+00 0. -1.
</event>
<event>
 5    1  0.6690694E-004  0.9118800E+02  0.7818608E-02  0.1130116E+00
         25   -1    0    0    0    0  0.00000000000E+00  0.00000000000E+00  0.99999998245E-14  0.12500000000E+03  0.12500000000E+03 0.  0.
        -11    1    3    3    0    0  0.19212039105E+02 -0.13871251789E+02  0.48540479980E+02  0.54015666891E+02  0.51100000000E-03 0.  1.
         23    2    1    0    0    0  0.51245593664E+01  0.15380904481E+02  0.28619696468E+02  0.92107442221E+02  0.86034066248E+02 0.  0.
         11    1    3    3    0    0 -0.14087479738E+02  0.29252156269E+02 -0.19920783512E+02  0.38091775330E+02  0.51100000000E-03 0. -1.
         22    1    1    0    0    0 -0.51245593664E+01 -0.15380904481E+02 -0.28619696468E+02  0.32892557779E+02  0.00000000000E+00 0.  1.
</event>
<event>
 5    1  0.6690694E-004  0.9118800E+02  0.7818608E-02  0.1130116E+00
         25   -1    0    0    0    0  0.00000000000E+00  0.00000000000E+00  0.99999998245E-14  0.12500000000E+03  0.12500000000E+03 0.  0.
        -11    1    3    3    0    0  0.22602624788E+02 -0.16756595658E+02 -0.21822341717E+02  0.35607256896E+02  0.51100000000E-03 0.  1.
         23    2    1    0    0    0 -0.17587001825E+02 -0.68789123774E+01  0.22083038417E+02  0.95943457632E+02  0.91437762483E+02 0.  0.
         11    1    3    3    0    0 -0.40189626613E+02  0.98776832811E+01  0.43905380134E+02  0.60336200736E+02  0.51100000000E-03 0. -1.
         22    1    1    0    0    0  0.17587001825E+02  0.68789123774E+01 -0.22083038417E+02  0.29056542368E+02  0.00000000000E+00 0. -1.
</event>
<event>
 5    1  0.6690694E-004  0.9118800E+02  0.7818608E-02  0.1130116E+00
         25   -1    0    0    0    0  0.00000000000E+00  0.00000000000E+00  0.99999998245E-14  0.12500000000E+03  0.12500000000E+03 0.  0.
        -11    1    3    3    0    0 -0.23909894257E+02 -0.20595154730E+02 -0.14020402482E+02  0.34531364406E+02  0.51100000000E-03 0. -1.
         23    2    1    0    0    0  0.32406360567E+01  0.25619213912E+02 -0.24791420893E+02  0.89202508560E+02  0.81704511136E+02 0.  0.
         11    1    3    3    0    0  0.27150530313E+02  0.46214368642E+02 -0.10771018411E+02  0.54671144154E+02  0.51100000000E-03 0.  1.
         22    1    1    0    0    0 -0.32406360567E+01 -0.25619213912E+02  0.24791420893E+02  0.35797491440E+02  0.00000000000E+00 0.  1.
</event>
<event>
 5    1  0.6690694E-004  0.9118800E+02  0.7818608E-02  0.1130116E+00
         25   -1    0    0    0    0  0.00000000000E+00  0.00000000000E+00  0.99999998245E-14  0.12500000000E+03  0.12500000000E+03 0.  0.
        -11    1    3    3    0    0 -0.78920384511E+01  0.17165471747E+01  0.43576553176E+02  0.44318695740E+02  0.51100000000E-03 0.  1.
         23    2    1    0    0    0  0.22532167161E+02  0.18352111679E+02  0.62326534059E+01  0.95278887496E+02  0.90524703114E+02 0.  0.
         11    1    3    3    0    0  0.30424205612E+02  0.16635564504E+02 -0.37343899770E+02  0.50960191756E+02  0.51100000000E-03 0. -1.
         22    1    1    0    0    0 -0.22532167161E+02 -0.18352111679E+02 -0.62326534059E+01  0.29721112504E+02  0.00000000000E+00 0. -1.
</event>
<event>
 5    1  0.6690694E-004  0.9118800E+02  0.7818608E-02  0.1130116E+00
         25   -1    0    0    0    0  0.00000000000E+00  0.00000000000E+00  0.99999998245E-14  0.12500000000E+03  0.12500000000E+03 0.  0.
        -11    1    3    3    0    0 -0.24940910406E+02 -0.18006324141E+02  0.34313380574E+02  0.46083454815E+02  0.51100000000E-03 0. -1.
         23    2    1    0    0    0 -0.23386903112E+02 -0.10824934431E+02 -0.14488782275E+02  0.95435642162E+02  0.90740897838E+02 0.  0.
         11    1    3    3    0    0  0.15540072943E+01  0.71813897108E+01 -0.48802162850E+02  0.49352187347E+02  0.51100000000E-03 0.  1.
         22    1    1    0    0    0  0.23386903112E+02  0.10824934431E+02  0.14488782275E+02  0.29564357838E+02  0.00000000000E+00 0. -1.
</event>
<event>
 5    1  0.6690694E-004  0.9118800E+02  0.7818608E-02  0.1130116E+00
         25   -1    0    0    0    0  0.00000000000E+00  0.00000000000E+00  0.99999998245E-14  0.12500000000E+03  0.12500000000E+03 0.  0.
        -11    1    3    3    0    0  0.50404023480E+02  0.13801394959E+01  0.15947016783E+02  0.52884569701E+02  0.51100000000E-03 0. -1.
         23    2    1    0    0    0  0.14649052321E+02  0.23919868967E+02  0.56454258684E+01  0.96388364281E+02  0.92043962704E+02 0.  0.
         11    1    3    3    0    0 -0.35754971159E+02  0.22539729471E+02 -0.10301590914E+02  0.43503794580E+02  0.51100000000E-03 0.  1.
         22    1    1    0    0    0 -0.14649052321E+02 -0.23919868967E+02 -0.56454258684E+01  0.28611635719E+02  0.00000000000E+00 0.  1.
</event>
<event>
 5    1  0.6690694E-004  0.9118800E+02  0.7818608E-02  0.1130116E+00
         25   -1    0    0    0    0  0.00000000000E+00  0.00000000000E+00  0.99999998245E-14  0.12500000000E+03  0.12500000000E+03 0.  0.
        -11    1    3    3    0    0  0.35267958169E+02  0.40441279233E+02  0.11693212574E+02  0.54918641279E+02  0.51100000000E-03 0.  1.
         23    2    1    0    0    0  0.38116176840E+01  0.30621910270E+02 -0.77541078741E+01  0.93182457561E+02  0.87582043766E+02 0.  0.
         11    1    3    3    0    0 -0.31456340485E+02 -0.98193689630E+01 -0.19447320448E+02  0.38263816281E+02  0.51100000000E-03 0. -1.
         22    1    1    0    0    0 -0.38116176840E+01 -0.30621910270E+02  0.77541078741E+01  0.31817542439E+02  0.00000000000E+00 0.  1.
</event>
<event>
 5    1  0.6690694E-004  0.9118800E+02  0.7818608E-02  0.1130116E+00
         25   -1    0    0    0    0  0.00000000000E+00  0.00000000000E+00  0.99999998245E-14  0.12500000000E+03  0.12500000000E+03 0.  0.
        -11    1    3    3    0    0  0.15994628709E+02  0.24782264205E+02 -0.26614191008E+02  0.39727873463E+02  0.51100000000E-03 0.  1.
         23    2    1    0    0    0 -0.15319900398E+02 -0.20469444157E+02 -0.44783061474E+01  0.99043252934E+02  0.95581448165E+02 0.  0.
         11    1    3    3    0    0 -0.31314529107E+02 -0.45251708362E+02  0.22135884861E+02  0.59315379470E+02  0.51100000000E-03 0. -1.
         22    1    1    0    0    0  0.15319900398E+02  0.20469444157E+02  0.44783061474E+01  0.25956747066E+02  0.00000000000E+00 0. -1.
</event>
<event>
 5    1  0.6690694E-004  0.9118800E+02  0.7818608E-02  0.1130116E+00
         25   -1    0    0    0    0  0.00000000000E+00  0.00000000000E+00  0.99999998245E-14  0.12500000000E+03  0.12500000000E+03 0.  0.
        -11    1    3    3    0    0 -0.29504100471E+02  0.86400690204E+01  0.21225050770E+02  0.37358339333E+02  0.51100000000E-03 0. -1.
         23    2    1    0    0    0  0.54247393529E+01  0.19146953089E+02 -0.22935341741E+02  0.94634501314E+02  0.89630493296E+02 0.  0.
         11    1    3    3    0    0  0.34928839823E+02  0.10506884069E+02 -0.44160392512E+02  0.57276161981E+02  0.51100000000E-03 0.  1.
         22    1    1    0    0    0 -0.54247393529E+01 -0.19146953089E+02  0.22935341741E+02  0.30365498686E+02  0.00000000000E+00 0.  1.
</event>
<event>
 5    1  0.6690694E-004  0.9118800E+02  0.7818608E-02  0.1130116E+00
         25   -1    0    0    0    0  0.00000000000E+00  0.00000000000E+00  0.99999998245E-14  0.12500000000E+03  0.12500000000E+03 0.  0.
        -11    1    3    3    0    0 -0.41650004583E+02 -0.51780278544E+01  0.34687164778E+02  0.54449373319E+02  0.51100000000E-03 0.  1.
         23    2    1    0    0    0 -0.25196370143E+01 -0.17159911199E+02  0.21353110326E+02  0.97490611719E+02  0.93528888209E+02 0.  0.
         11    1    3    3    0    0  0.39130367569E+02 -0.11981883344E+02 -0.13334054453E+02  0.43041238399E+02  0.51100000000E-03 0. -1.
         22    1    1    0    0    0  0.25196370143E+01  0.17159911199E+02 -0.21353110326E+02  0.27509388281E+02  0.00000000000E+00 0.  1.
</event>
<event>
 5    1  0.6690694E-004  0.9118800E+02  0.7818608E-02  0.1130116E+00
         25   -1    0    0    0    0  0.00000000000E+00  0.00000000000E+00  0.99999998245E-14  0.12500000000E+03  0.12500000000E+03 0.  0.
        -11    1    3    3    0    0 -0.11567905423E+02  0.33811236155E+01  0.40567065462E+02  0.42319442733E+02  0.51100000000E-03 0.  1.
         23    2    1    0    0    0  0.10945067817E+02  0.79866907418E+01 -0.16388460262E+02  0.10373586662E+03  0.10153308158E+03 0.  0.
         11    1    3    3    0    0  0.22512973240E+02  0.46055671263E+01 -0.56955525724E+02  0.61416423890E+02  0.51100000000E-03 0. -1.
         22    1    1    0    0    0 -0.10945067817E+02 -0.79866907418E+01  0.16388460262E+02  0.21264133377E+02  0.00000000000E+00 0. -1.
</event>
<event>
 5    1  0.6690694E-004  0.9118800E+02  0.7818608E-02  0.1130116E+00
         25   -1    0    0    0    0  0.00000000000E+00  0.00000000000E+00  0.99999998245E-14  0.12500000000E+03  0.12500000000E+03 0.  0.
        -11    1    3    3    0    0 -0.44507790129E+02 -0.30802688868E+02 -0.13365700808E+02  0.55752945949E+02  0.51100000000E-03 0. -1.
         23    2    1    0    0    0 -0.18116140791E+02 -0.17480089483E+02  0.14134048675E+02  0.96129263649E+02  0.91691416787E+02 0.  0.
         11    1    3    3    0    0  0.26391649338E+02  0.13322599385E+02  0.27499749483E+02  0.40376317700E+02  0.51100000000E-03 0.  1.
         22    1    1    0    0    0  0.18116140791E+02  0.17480089483E+02 -0.14134048675E+02  0.28870736351E+02  0.00000000000E+00 0. -1.
</event>
<event>
 5    1  0.6690694E-004  0.9118800E+02  0.7818608E-02  0.1130116E+00
         25   -1    0    0    0    0  0.00000000000E+00  0.00000000000E+00  0.99999998245E-14  0.12500000000E+03  0.12500000000E+03 0.  0.
        -11    1    3    3    0    0 -0.15782094871E+01  0.40628883561E+02 -0.33505589406E+02  0.52686065011E+02  0.51100000000E-03 0.  1.
         23    2    1    0    0    0 -0.19749081431E+02  0.42416864521E+01 -0.22380142306E+02  0.94852215820E+02  0.89933608596E+02 0.  0.
         11    1    3    3    0    0 -0.18170871944E+02 -0.36387197109E+02  0.11125447101E+02  0.42166150809E+02  0.51100000000E-03 0. -1.
         22    1    1    0    0    0  0.19749081431E+02 -0.42416864521E+01  0.22380142306E+02  0.30147784180E+02  0.00000000000E+00 0.  1.
</event>
<event>
 5    1  0.6690694E-004  0.9118800E+02  0.7818608E-02  0.1130116E+00
         25   -1    0    0    0    0  0.00000000000E+00  0.00000000000E+00  0.99999998245E-14  0.12500000000E+03  0.12500000000E+03 0.  0.
        -11    1    3    3    0    0  0.57781571514E+02 -0.10598741653E+02 -0.21314771459E+01  0.58784237057E+02  0.51100000000E-03 0. -1.
         23    2    1    0    0    0  0.26725398625E+02  0.98924896393E+01 -0.48586878559E+01  0.96091262037E+02  0.91639595750E+02 0.  0.
         11    1    3    3    0    0 -0.31056172889E+02  0.20491231292E+02 -0.27272107099E+01  0.37307024981E+02  0.51100000000E-03 0.  1.
         22    1    1    0    0    0 -0.26725398625E+02 -0.98924896393E+01  0.48586878559E+01  0.28908737963E+02  0.00000000000E+00 0. -1.
</event>
<event>
 5    1  0.6690694E-004  0.9118800E+02  0.7818608E-02  0.1130116E+00
         25   -1    0    0    0    0  0.00000000000E+00  0.00000000000E+00  0.99999998245E-14  0.12500000000E+03  0.12500000000E+03 0.  0.
        -11    1    3    3    0    0 -0.14119877084E+02  0.18508758012E+02 -0.53482577024E+02  0.58329504519E+02  0.51100000000E-03 0. -1.
         23    2    1    0    0    0 -0.18415423734E+02  0.15999068390E+02 -0.16724154889E+02  0.95423060040E+02  0.90723563698E+02 0.  0.
         11    1    3    3    0    0 -0.42955466498E+01 -0.25096896223E+01  0.36758422135E+02  0.37093555521E+02  0.51100000000E-03 0.  1.
         22    1    1    0    0    0  0.18415423734E+02 -0.15999068390E+02  0.16724154889E+02  0.29576939960E+02  0.00000000000E+00 0. -1.
</event>
<event>
 5    1  0.6690694E-004  0.9118800E+02  0.7818608E-02  0.1130116E+00
         25   -1    0    0    0    0  0.00000000000E+00  0.00000000000E+00  0.99999998245E-14  0.12500000000E+03  0.12500000000E+03 0.  0.
        -11    1    3    3    0    0 -0.19238589436E+02 -0.26049757026E+02  0.53101840938E+02  0.62197416955E+02  0.51100000000E-03 0. -1.
         23    2    1    0    0    0 -0.11745555305E+02 -0.92496745415E+01  0.27121208992E+02  0.94031071608E+02  0.88784953129E+02 0.  0.
         11    1    3    3    0    0  0.74930341309E+01  0.16800082484E+02 -0.25980631947E+02  0.31833654653E+02  0.51100000000E-03 0.  1.
         22    1    1    0    0    0  0.11745555305E+02  0.92496745415E+01 -0.27121208992E+02  0.30968928392E+02  0.00000000000E+00 0. -1.
</event>
<event>
 5    1  0.6690694E-004  0.9118800E+02  0.7818608E-02  0.1130116E+00
         25   -1    0    0    0    0  0.00000000000E+00  0.00000000000E+00  0.99999998245E-14  0.12500000000E+03  0.12500000000E+03 0.  0.
        -11    1    3    3    0    0  0.35283244814E+02 -0.45745717353E+02  0.20422023162E+01  0.57807859424E+02  0.51100000000E-03 0.  1.
         23    2    1    0    0    0  0.25622526310E+02 -0.81435666190E+01  0.76815669079E+01  0.97038633761E+02  0.92922862850E+02 0.  0.
         11    1    3    3    0    0 -0.96607185036E+01  0.37602150734E+02  0.56393645918E+01  0.39230774337E+02  0.51100000000E-03 0. -1.
         22    1    1    0    0    0 -0.25622526310E+02  0.81435666190E+01 -0.76815669079E+01  0.27961366239E+02  0.00000000000E+00 0.  1.
</event>
<event>
 5    1  0.6690694E-004  0.9118800E+02  0.7818608E-02  0.1130116E+00
         25   -1    0    0    0    0  0.00000000000E+00  0.00000000000E+00  0.99999998245E-14  0.12500000000E+03  0.12500000000E+03 0.  0.
        -11    1    3    3    0    0  0.32534617832E+02  0.38109309055E+01  0.31073943647E+02  0.45151019101E+02  0.51100000000E-03 0.  1.
         23    2    1    0    0    0  0.17055889582E+02  0.19255627664E+02 -0.14336243775E+02  0.95551562830E+02  0.90900443935E+02 0.  0.
         11    1    3    3    0    0 -0.15478728250E+02  0.15444696759E+02 -0.45410187422E+02  0.50400543729E+02  0.51100000000E-03 0. -1.
         22    1    1    0    0    0 -0.17055889582E+02 -0.19255627664E+02  0.14336243775E+02  0.29448437170E+02  0.00000000000E+00 0.  1.
</event>
<event>
 5    1  0.6690694E-004  0.9118800E+02  0.7818608E-02  0.1130116E+00
         25   -1    0    0    0    0  0.00000000000E+00  0.00000000000E+00  0.99999998245E-14  0.12500000000E+03  0.12500000000E+03 0.  0.
        -11    1    3    3    0    0  0.25311891076E+02 -0.54704002430E+02  0.80948009985E+01  0.60817312627E+02  0.51100000000E-03 0. -1.
         23    2    1    0    0    0  0.23400220264E+01 -0.28778035791E+02  0.14307289767E+01  0.96091557764E+02  0.91639999133E+02 0.  0.
         11    1    3    3    0    0 -0.22971869050E+02  0.25925966639E+02 -0.66640720218E+01  0.35274245137E+02  0.51100000000E-03 0.  1.
         22    1    1    0    0    0 -0.23400220264E+01  0.28778035791E+02 -0.14307289767E+01  0.28908442236E+02  0.00000000000E+00 0. -1.
</event>
<event>
 5    1  0.6690694E-004  0.9118800E+02  0.7818608E-02  0.1130116E+00
         25   -1    0    0    0    0  0.00000000000E+00  0.00000000000E+00  0.99999998245E-14  0.12500000000E+03  0.12500000000E+03 0.  0.
        -11    1    3    3    0    0 -0.29480067633E+02  0.11000699198E+02  0.17688401973E+02  0.36096666537E+02  0.51100000000E-03 0.  1.
         23    2    1    0    0    0  0.17864056677E+02 -0.22628702335E+02  0.28875949764E+01  0.96025513032E+02  0.91549867602E+02 0.  0.
         11    1    3    3    0    0  0.47344124310E+02 -0.33629401533E+02 -0.14800806996E+02  0.59928846494E+02  0.51100000000E-03 0. -1.
         22    1    1    0    0    0 -0.17864056677E+02  0.22628702335E+02 -0.28875949764E+01  0.28974486968E+02  0.00000000000E+00 0. -1.
</event>
<event>
 5    1  0.6690694E-004  0.9118800E+02  0.7818608E-02  0.1130116E+00
         25   -1    0    0    0    0  0.00000000000E+00  0.00000000000E+00  0.99999998245E-14  0.12500000000E+03  0.12500000000E+03 0.  0.
        -11    1    3    3    0    0  0.35170330726E+02 -0.25902935768E+02  0.50943051464E+01  0.43975745474E+02  0.51100000000E-03 0.  1.
         23    2    1    0    0    0  0.18622864698E+02  0.22784011932E+02  0.26112561967E+01  0.95457810707E+02  0.90771430950E+02 0.  0.
         11    1    3    3    0    0 -0.16547466028E+02  0.48686947701E+02 -0.24830489497E+01  0.51482065233E+02  0.51100000000E-03 0. -1.
         22    1    1    0    0    0 -0.18622864698E+02 -0.22784011932E+02 -0.26112561967E+01  0.29542189293E+02  0.00000000000E+00 0. -1.
</event>
<event>
 5    1  0.6690694E-004  0.9118800E+02  0.7818608E-02  0.1130116E+00
         25   -1    0    0    0    0  0.00000000000E+00  0.00000000000E+00  0.99999998245E-14  0.12500000000E+03  0.12500000000E+03 0.  0.
        -11    1    3    3    0    0 -0.30315692163E+02 -0.78389595144E+01  0.17793119939E+02  0.36015074552E+02  0.51100000000E-03 0. -1.
         23    2    1    0    0    0 -0.31772845294E+01  0.16235469721E+02 -0.26802625525E+02  0.93502915229E+02  0.88038223557E+02 0.  0.
         11    1    3    3    0    0  0.27138407633E+02  0.24074429236E+02 -0.44595745464E+02  0.57487840677E+02  0.51100000000E-03 0.  1.
         22    1    1    0    0    0  0.31772845294E+01 -0.16235469721E+02  0.26802625525E+02  0.31497084771E+02  0.00000000000E+00 0.  1.
</event>
<event>
 5    1  0.6690694E-004  0.9118800E+02  0.7818608E-02  0.1130116E+00
         25   -1    0    0    0    0  0.00000000000E+00  0.00000000000E+00  0.99999998245E-14  0.12500000000E+03  0.12500000000E+03 0.  0.
        -11    1    3    3    0    0 -0.15832562881E+02  0.30625508664E+02  0.33535185686E+02  0.48095743134E+02  0.51100000000E-03 0. -1.
         23    2    1    0    0    0 -0.89776330089E+01 -0.17311309883E+02  0.16582736669E+02  0.99401826242E+02  0.96049240291E+02 0.  0.
         11    1    3    3    0    0  0.68549298722E+01 -0.47936818547E+02 -0.16952449017E+02  0.51306083108E+02  0.51100000000E-03 0.  1.
         22    1    1    0    0    0  0.89776330089E+01  0.17311309883E+02 -0.16582736669E+02  0.25598173758E+02  0.00000000000E+00 0. -1.
</event>
<event>
 5    1  0.6690694E-004  0.9118800E+02  0.7818608E-02  0.1130116E+00
         25   -1    0    0    0    0  0.00000000000E+00  0.00000000000E+00  0.99999998245E-14  0.12500000000E+03  0.12500000000E+03 0.  0.
        -11    1    3    3    0    0 -0.37752527786E+02  0.34697997769E+02  0.20176811335E+02  0.55102705191E+02  0.51100000000E-03 0. -1.
         23    2    1    0    0    0  0.45032054268E+00  0.28152248879E+02  0.80134591199E+01  0.95725993909E+02  0.91139993841E+02 0.  0.
         11    1    3    3    0    0  0.38202848328E+02 -0.65457488906E+01 -0.12163352216E+02  0.40623288719E+02  0.51100000000E-03 0.  1.
         22    1    1    0    0    0 -0.45032054268E+00 -0.28152248879E+02 -0.80134591199E+01  0.29274006091E+02  0.00000000000E+00 0. -1.
</event>
<event>
 5    1  0.6690694E-004  0.9118800E+02  0.7818608E-02  0.1130116E+00
         25   -1    0    0    0    0  0.00000000000E+00  0.00000000000E+00  0.99999998245E-14  0.12500000000E+03  0.12500000000E+03 0.  0.
        -11    1    3    3    0    0  0.22354701377E+02  0.18879701746E+02 -0.16749432959E+02  0.33715268298E+02  0.51100000000E-03 0.  1.
         23    2    1    0    0    0 -0.30471743724E+02  0.12930825081E+02 -0.18831596541E+02  0.86916375814E+02  0.78128701215E+02 0.  0.
         11    1    3    3    0    0 -0.52826445101E+02 -0.59488766647E+01 -0.20821635812E+01  0.53201107516E+02  0.51100000000E-03 0. -1.
         22    1    1    0    0    0  0.30471743724E+02 -0.12930825081E+02  0.18831596541E+02  0.38083624186E+02  0.00000000000E+00 0. -1.
</event>
<event>
 5    1  0.6690694E-004  0.9118800E+02  0.7818608E-02  0.1130116E+00
         25   -1    0    0    0    0  0.00000000000E+00  0.00000000000E+00  0.99999998245E-14  0.12500000000E+03  0.12500000000E+03 0.  0.
        -11    1    3    3    0    0  0.25801083510E+02 -0.87024911921E+01 -0.31474976597E+02  0.41618546530E+02  0.51100000000E-03 0. -1.
         23    2    1    0    0    0  0.80841568068E+01 -0.21756689202E+02  0.17908837717E+02  0.95683902294E+02  0.91082246204E+02 0.  0.
         11    1    3    3    0    0 -0.17716926703E+02 -0.13054198010E+02  0.49383814314E+02  0.54065355764E+02  0.51100000000E-03 0.  1.
         22    1    1    0    0    0 -0.80841568068E+01  0.21756689202E+02 -0.17908837717E+02  0.29316097706E+02  0.00000000000E+00 0.  1.
</event>
<event>
 5    1  0.6690694E-004  0.9118800E+02  0.7818608E-02  0.1130116E+00
         25   -1    0    0    0    0  0.00000000000E+00  0.00000000000E+00  0.99999998245E-14  0.12500000000E+03  0.12500000000E+03 0.  0.
        -11    1    3    3    0    0 -0.50500834193E+01 -0.36657242275E+02 -0.13252093426E+02  0.39304894532E+02  0.51100000000E-03 0. -1.
         23    2    1    0    0    0 -0.16851758133E+02  0.15591559609E+02 -0.21553974261E+02  0.93509488895E+02  0.88047556603E+02 0.  0.
         11    1    3    3    0    0 -0.11801674713E+02  0.52248801884E+02 -0.83018808354E+01  0.54204594363E+02  0.51100000000E-03 0.  1.
         22    1    1    0    0    0  0.16851758133E+02 -0.15591559609E+02  0.21553974261E+02  0.31490511105E+02  0.00000000000E+00 0.  1.
</event>
<event>
 5    1  0.6690694E-004  0.9118800E+02  0.7818608E-02  0.1130116E+00
         25   -1    0    0    0    0  0.00000000000E+00  0.00000000000E+00  0.99999998245E-14  0.12500000000E+03  0.12500000000E+03 0.  0.
        -11    1    3    3    0    0 -0.37577497321E+02 -0.28678002382E+01 -0.36166515934E+01  0.37859909563E+02  0.51100000000E-03 0. -1.
         23    2    1    0    0    0  0.11300217849E+02  0.20440234014E+02  0.17326001425E+02  0.95919277599E+02  0.91404701190E+02 0.  0.
         11    1    3    3    0    0  0.48877715170E+02  0.23308034253E+02  0.20942653018E+02  0.58059368036E+02  0.51100000000E-03 0.  1.
         22    1    1    0    0    0 -0.11300217849E+02 -0.20440234014E+02 -0.17326001425E+02  0.29080722401E+02  0.00000000000E+00 0.  1.
</event>
<event>
 5    1  0.6690694E-004  0.9118800E+02  0.7818608E-02  0.1130116E+00
         25   -1    0    0    0    0  0.00000000000E+00  0.00000000000E+00  0.99999998245E-14  0.12500000000E+03  0.12500000000E+03 0.  0.
        -11    1    3    3    0    0 -0.53149220488E+02  0.15653120224E+01  0.19341203247E+02  0.56580667931E+02  0.51100000000E-03 0.  1.
         23    2    1    0    0    0 -0.21739592463E+02 -0.18324099752E+02  0.75605401371E+01  0.95579866089E+02  0.90939356289E+02 0.  0.
         11    1    3    3    0    0  0.31409628026E+02 -0.19889411774E+02 -0.11780663109E+02  0.38999198158E+02  0.51100000000E-03 0. -1.
         22    1    1    0    0    0  0.21739592463E+02  0.18324099752E+02 -0.75605401371E+01  0.29420133911E+02  0.00000000000E+00 0.  1.
</event>
<event>
 5    1  0.6690694E-004  0.9118800E+02  0.7818608E-02  0.1130116E+00
         25   -1    0    0    0    0  0.00000000000E+00  0.00000000000E+00  0.99999998245E-14  0.12500000000E+03  0.12500000000E+03 0.  0.
        -11    1    3    3    0    0  0.11959324595E+02 -0.28673821897E+02 -0.37982361890E+02  0.49070085816E+02  0.51100000000E-03 0.  1.
         23    2    1    0    0    0  0.72018769699E+01  0.15497246511E+02 -0.23789913119E+02  0.95708505543E+02  0.91116005102E+02 0.  0.
         11    1    3    3    0    0 -0.47574476254E+01  0.44171068408E+02  0.14192448771E+02  0.46638419727E+02  0.51100000000E-03 0. -1.
         22    1    1    0    0    0 -0.72018769699E+01 -0.15497246511E+02  0.23789913119E+02  0.29291494457E+02  0.00000000000E+00 0.  1.
</event>
<event>
 5    1  0.6690694E-004  0.9118800E+02  0.7818608E-02  0.1130116E+00
         25   -1    0    0    0    0  0.00000000000E+00  0.00000000000E+00  0.99999998245E-14  0.12500000000E+03  0.12500000000E+03 0.  0.
        -11    1    3    3    0    0 -0.33436544382E+02 -0.13753113339E+02  0.20202250891E+02  0.41415957891E+02  0.51100000000E-03 0.  1.
         23    2    1    0    0    0 -0.21160905738E+02  0.14647606184E+02 -0.20185110988E+02  0.92292584875E+02  0.86302643174E+02 0.  0.
         11    1    3    3    0    0  0.12275638644E+02  0.28400719523E+02 -0.40387361878E+02  0.50876626984E+02  0.51100000000E-03 0. -1.
         22    1    1    0    0    0  0.21160905738E+02 -0.14647606184E+02  0.20185110988E+02  0.32707415125E+02  0.00000000000E+00 0.  1.
</event>
<event>
 5    1  0.6690694E-004  0.9118800E+02  0.7818608E-02  0.1130116E+00
         25   -1    0    0    0    0  0.00000000000E+00  0.00000000000E+00  0.99999998245E-14  0.12500000000E+03  0.12500000000E+03 0.  0.
        -11    1    3    3    0    0  0.14024505596E+02 -0.10833258845E+02  0.33924760399E+02  0.38274477433E+02  0.51100000000E-03 0.  1.
         23    2    1    0    0    0 -0.21355195203E+02 -0.18591784334E+02 -0.97862860487E+01  0.95042192979E+02  0.90197274042E+02 0.  0.
         11    1    3    3    0    0 -0.35379700800E+02 -0.77585254889E+01 -0.43711046447E+02  0.56767715545E+02  0.51100000000E-03 0. -1.
         22    1    1    0    0    0  0.21355195203E+02  0.18591784334E+02  0.97862860487E+01  0.29957807021E+02  0.00000000000E+00 0. -1.
</event>
<event>
 5    1  0.6690694E-004  0.9118800E+02  0.7818608E-02  0.1130116E+00
         25   -1    0    0    0    0  0.00000000000E+00  0.00000000000E+00  0.99999998245E-14  0.12500000000E+03  0.12500000000E+03 0.  0.
        -11    1    3    3    0    0 -0.33697759463E+02 -0.25161929510E+02  0.40148313659E+02  0.58142486870E+02  0.51100000000E-03 0. -1.
         23    2    1    0    0    0 -0.26451350412E+02  0.45464332896E+00  0.16014698147E+02  0.94075071610E+02  0.88846878969E+02 0.  0.
         11    1    3    3    0    0  0.72464090513E+01  0.25616572838E+02 -0.24133615513E+02  0.35932584740E+02  0.51100000000E-03 0.  1.
         22    1    1    0    0    0  0.26451350412E+02 -0.45464332896E+00 -0.16014698147E+02  0.30924928390E+02  0.00000000000E+00 0. -1.
</event>
<event>
 5    1  0.6690694E-004  0.9118800E+02  0.7818608E-02  0.1130116E+00
         25   -1    0    0    0    0  0.00000000000E+00  0.00000000000E+00  0.99999998245E-14  0.12500000000E+03  0.12500000000E+03 0.  0.
        -11    1    3    3    0    0 -0.39048412206E+02 -0.43138311249E+02 -0.12871804078E+02  0.59593420221E+02  0.51100000000E-03 0. -1.
         23    2    1    0    0    0  0.17359692304E+01 -0.44068099023E+01 -0.75469774486E+01  0.11608986918E+03  0.11574742889E+03 0.  0.
         11    1    3    3    0    0  0.40784381436E+02  0.38731501346E+02  0.53248266291E+01  0.56496448955E+02  0.51100000000E-03 0.  1.
         22    1    1    0    0    0 -0.17359692304E+01  0.44068099023E+01  0.75469774486E+01  0.89101308236E+01  0.00000000000E+00 0. -1.
</event>
<event>
 5    1  0.6690694E-004  0.9118800E+02  0.7818608E-02  0.1130116E+00
         25   -1    0    0    0    0  0.00000000000E+00  0.00000000000E+00  0.99999998245E-14  0.12500000000E+03  0.12500000000E+03 0.  0.
        -11    1    3    3    0    0 -0.59258301567E+01 -0.35126278721E+02  0.49640787832E+02  0.61099744162E+02  0.51100000000E-03 0. -1.
         23    2    1    0    0    0 -0.11958312843E+02 -0.16061994940E+02  0.21527505682E+02  0.95598938312E+02  0.90965568090E+02 0.  0.
         11    1    3    3    0    0 -0.60324826865E+01  0.19064283780E+02 -0.28113282150E+02  0.34499194149E+02  0.51100000000E-03 0.  1.
         22    1    1    0    0    0  0.11958312843E+02  0.16061994940E+02 -0.21527505682E+02  0.29401061688E+02  0.00000000000E+00 0. -1.
</event>
<event>
 5    1  0.6690694E-004  0.9118800E+02  0.7818608E-02  0.1130116E+00
         25   -1    0    0    0    0  0.00000000000E+00  0.00000000000E+00  0.99999998245E-14  0.12500000000E+03  0.12500000000E+03 0.  0.
        -11    1    3    3    0    0  0.15708481350E+02  0.40270847697E+02 -0.19115771338E+02  0.47264260014E+02  0.51100000000E-03 0.  1.
         23    2    1    0    0    0  0.37518019772E+02  0.15017124818E+02 -0.18289199428E+02  0.80642242380E+02  0.67346570773E+02 0.  0.
         11    1    3    3    0    0  0.21809538421E+02 -0.25253722879E+02  0.82657190991E+00  0.33377982365E+02  0.51100000000E-03 0. -1.
         22    1    1    0    0    0 -0.37518019772E+02 -0.15017124818E+02  0.18289199428E+02  0.44357757620E+02  0.00000000000E+00 0.  1.
</event>
<event>
 5    1  0.6690694E-004  0.9118800E+02  0.7818608E-02  0.1130116E+00
         25   -1    0    0    0    0  0.00000000000E+00  0.00000000000E+00  0.99999998245E-14  0.12500000000E+03  0.12500000000E+03 0.  0.
        -11    1    3    3    0    0  0.17423684847E+02 -0.32069432261E+02 -0.61021988293E+01  0.37003649955E+02  0.51100000000E-03 0.  1.
         23    2    1    0    0    0 -0.28986806426E+02  0.36375303724E+01 -0.13075575188E+01  0.95756602785E+02  0.91181964754E+02 0.  0.
         11    1    3    3    0    0 -0.46410491273E+02  0.35706962633E+02  0.47946413105E+01  0.58752952830E+02  0.51100000000E-03 0. -1.
         22    1    1    0    0    0  0.28986806426E+02 -0.36375303724E+01  0.13075575188E+01  0.29243397215E+02  0.00000000000E+00 0. -1.
</event>
<event>
 5    1  0.6690694E-004  0.9118800E+02  0.7818608E-02  0.1130116E+00
         25   -1    0    0    0    0  0.00000000000E+00  0.00000000000E+00  0.99999998245E-14  0.12500000000E+03  0.12500000000E+03 0.  0.
        -11    1    3    3    0    0  0.39315966898E+02 -0.24383859729E+02  0.19176669822E+02  0.50080560442E+02  0.51100000000E-03 0. -1.
         23    2    1    0    0    0  0.22073080245E+02 -0.49830117682E+01 -0.18458135404E+02  0.95798047319E+02  0.91238762759E+02 0.  0.
         11    1    3    3    0    0 -0.17242886653E+02  0.19400847961E+02 -0.37634805226E+02  0.45717486877E+02  0.51100000000E-03 0.  1.
         22    1    1    0    0    0 -0.22073080245E+02  0.49830117682E+01  0.18458135404E+02  0.29201952681E+02  0.00000000000E+00 0. -1.
</event>
<event>
 5    1  0.6690694E-004  0.9118800E+02  0.7818608E-02  0.1130116E+00
         25   -1    0    0    0    0  0.00000000000E+00  0.00000000000E+00  0.99999998245E-14  0.12500000000E+03  0.12500000000E+03 0.  0.
        -11    1    3    3    0    0 -0.21227412190E+02  0.14344278205E+02 -0.27403379897E+02  0.37514085029E+02  0.51100000000E-03 0.  1.
         23    2    1    0    0    0  0.27975795398E+02 -0.77884225560E+01 -0.76379384027E+01  0.94972633198E+02  0.90100822967E+02 0.  0.
         11    1    3    3    0    0  0.49203207588E+02 -0.22132700761E+02  0.19765441494E+02  0.57458548169E+02  0.51100000000E-03 0. -1.
         22    1    1    0    0    0 -0.27975795398E+02  0.77884225560E+01  0.76379384027E+01  0.30027366802E+02  0.00000000000E+00 0. -1.
</event>
<event>
 5    1  0.6690694E-004  0.9118800E+02  0.7818608E-02  0.1130116E+00
         25   -1    0    0    0    0  0.00000000000E+00  0.00000000000E+00  0.99999998245E-14  0.12500000000E+03  0.12500000000E+03 0.  0.
        -11    1    3    3    0    0 -0.27644601971E+02  0.32678760209E+02  0.63228420966E+01  0.43267813896E+02  0.51100000000E-03 0.  1.
         23    2    1    0    0    0  0.20105045002E+02  0.12580610139E+02  0.16556550950E+02  0.96075893007E+02  0.91618629392E+02 0.  0.
         11    1    3    3    0    0  0.47749646972E+02 -0.20098150070E+02  0.10233708854E+02  0.52808079111E+02  0.51100000000E-03 0. -1.
         22    1    1    0    0    0 -0.20105045002E+02 -0.12580610139E+02 -0.16556550950E+02  0.28924106993E+02  0.00000000000E+00 0. -1.
</event>
<event>
 5    1  0.6690694E-004  0.9118800E+02  0.7818608E-02  0.1130116E+00
         25   -1    0    0    0    0  0.00000000000E+00  0.00000000000E+00  0.99999998245E-14  0.12500000000E+03  0.12500000000E+03 0.  0.
        -11    1    3    3    0    0  0.26528579666E+02  0.19705646793E+02 -0.48625980576E+01  0.33402438755E+02  0.51100000000E-03 0.  1.
         23    2    1    0    0    0 -0.22819750582E+02 -0.12369585990E+02  0.14382042870E+02  0.95325249262E+02  0.90588698609E+02 0.  0.
         11    1    3    3    0    0 -0.49348330249E+02 -0.32075232783E+02  0.19244640928E+02  0.61922810507E+02  0.51100000000E-03 0. -1.
         22    1    1    0    0    0  0.22819750582E+02  0.12369585990E+02 -0.14382042870E+02  0.29674750738E+02  0.00000000000E+00 0. -1.
</event>
<event>
 5    1  0.6690694E-004  0.9118800E+02  0.7818608E-02  0.1130116E+00
         25   -1    0    0    0    0  0.00000000000E+00  0.00000000000E+00  0.99999998245E-14  0.12500000000E+03  0.12500000000E+03 0.  0.
        -11    1    3    3    0    0  0.39483315403E+02 -0.32988869478E+02  0.14147201907E+02  0.53360481882E+02  0.51100000000E-03 0. -1.
         23    2    1    0    0    0  0.26768084663E+02  0.61686369777E+01 -0.17057866386E+01  0.97477424780E+02  0.93511262397E+02 0.  0.
         11    1    3    3    0    0 -0.12715230740E+02  0.39157506456E+02 -0.15852988546E+02  0.44116942898E+02  0.51100000000E-03 0.  1.
         22    1    1    0    0    0 -0.26768084663E+02 -0.61686369777E+01  0.17057866386E+01  0.27522575220E+02  0.00000000000E+00 0. -1.
</event>
<event>
 5    1  0.6690694E-004  0.9118800E+02  0.7818608E-02  0.1130116E+00
         25   -1    0    0    0    0  0.00000000000E+00  0.00000000000E+00  0.99999998245E-14  0.12500000000E+03  0.12500000000E+03 0.  0.
        -11    1    3    3    0    0  0.13560039923E+02  0.46801400532E+02 -0.38237516964E+02  0.61938303805E+02  0.51100000000E-03 0. -1.
         23    2    1    0    0    0  0.49049719528E+01  0.25360525730E+02 -0.13296941228E+02  0.95947914685E+02  0.91443855295E+02 0.  0.
         11    1    3    3    0    0 -0.86550679698E+01 -0.21440874803E+02  0.24940575736E+02  0.34009610879E+02  0.51100000000E-03 0.  1.
         22    1    1    0    0    0 -0.49049719528E+01 -0.25360525730E+02  0.13296941228E+02  0.29052085315E+02  0.00000000000E+00 0. -1.
</event>
<event>
 5    1  0.6690694E-004  0.9118800E+02  0.7818608E-02  0.1130116E+00
         25   -1    0    0    0    0  0.00000000000E+00  0.00000000000E+00  0.99999998245E-14  0.12500000000E+03  0.12500000000E+03 0.  0.
        -11    1    3    3    0    0  0.18608993240E+02  0.33260967864E+02 -0.53262552290E+01  0.38483186038E+02  0.51100000000E-03 0. -1.
         23    2    1    0    0    0 -0.81203274346E+01  0.43782720300E+01 -0.35657308796E+02  0.88168591472E+02  0.80107102481E+02 0.  0.
         11    1    3    3    0    0 -0.26729320675E+02 -0.28882695834E+02 -0.30331053567E+02  0.49685405433E+02  0.51100000000E-03 0.  1.
         22    1    1    0    0    0  0.81203274346E+01 -0.43782720300E+01  0.35657308796E+02  0.36831408528E+02  0.00000000000E+00 0.  1.
</event>
<event>
 5    1  0.6690694E-004  0.9118800E+02  0.7818608E-02  0.1130116E+00
         25   -1    0    0    0    0  0.00000000000E+00  0.00000000000E+00  0.99999998245E-14  0.12500000000E+03  0.12500000000E+03 0.  0.
        -11    1    3    3    0    0  0.68689356308E+01 -0.63627139509E+01 -0.38829601501E+02  0.39942513172E+02  0.51100000000E-03 0. -1.
         23    2    1    0    0    0 -0.16571974555E+02 -0.17803213847E+02  0.12599323462E+02  0.97607889537E+02  0.93685497192E+02 0.  0.
         11    1    3    3    0    0 -0.23440910186E+02 -0.11440499896E+02  0.51428924963E+02  0.57665376365E+02  0.51100000000E-03 0.  1.
         22    1    1    0    0    0  0.16571974555E+02  0.17803213847E+02 -0.12599323462E+02  0.27392110463E+02  0.00000000000E+00 0.  1.
</event>
<event>
 5    1  0.6690694E-004  0.9118800E+02  0.7818608E-02  0.1130116E+00
         25   -1    0    0    0    0  0.00000000000E+00  0.00000000000E+00  0.99999998245E-14  0.12500000000E+03  0.12500000000E+03 0.  0.
        -11    1    3    3    0    0 -0.15907708398E+02  0.21579548943E+02 -0.20872200734E+02  0.33976181110E+02  0.51100000000E-03 0.  1.
         23    2    1    0    0    0  0.68030293610E+01 -0.14760617292E+02  0.23994066653E+02  0.96019450214E+02  0.91541589201E+02 0.  0.
         11    1    3    3    0    0  0.22710737759E+02 -0.36340166235E+02  0.44866267387E+02  0.62043269104E+02  0.51100000000E-03 0. -1.
         22    1    1    0    0    0 -0.68030293610E+01  0.14760617292E+02 -0.23994066653E+02  0.28980549786E+02  0.00000000000E+00 0. -1.
</event>
<event>
 5    1  0.6690694E-004  0.9118800E+02  0.7818608E-02  0.1130116E+00
         25   -1    0    0    0    0  0.00000000000E+00  0.00000000000E+00  0.99999998245E-14  0.12500000000E+03  0.12500000000E+03 0.  0.
        -11    1    3    3    0    0 -0.23146042067E+01  0.31371015041E+02  0.35381981011E+02  0.47343241945E+02  0.51100000000E-03 0.  1.
         23    2    1    0    0    0  0.10002551157E+02  0.25700591492E+02 -0.10730087594E+02  0.95407666323E+02  0.90702351572E+02 0.  0.
         11    1    3    3    0    0  0.12317155363E+02 -0.56704235484E+01 -0.46112068605E+02  0.48064424378E+02  0.51100000000E-03 0. -1.
         22    1    1    0    0    0 -0.10002551157E+02 -0.25700591492E+02  0.10730087594E+02  0.29592333677E+02  0.00000000000E+00 0.  1.
</event>
<event>
 5    1  0.6690694E-004  0.9118800E+02  0.7818608E-02  0.1130116E+00
         25   -1    0    0    0    0  0.00000000000E+00  0.00000000000E+00  0.99999998245E-14  0.12500000000E+03  0.12500000000E+03 0.  0.
        -11    1    3    3    0    0 -0.55867104157E+02  0.13336271972E+02 -0.11663355143E+01  0.57448671140E+02  0.51100000000E-03 0. -1.
         23    2    1    0    0    0 -0.37937218530E+02 -0.74134166624E+01  0.62171889201E+01  0.85848438927E+02  0.76400979913E+02 0.  0.
         11    1    3    3    0    0  0.17929885627E+02 -0.20749688634E+02  0.73835244344E+01  0.28399767787E+02  0.51100000000E-03 0.  1.
         22    1    1    0    0    0  0.37937218530E+02  0.74134166624E+01 -0.62171889201E+01  0.39151561073E+02  0.00000000000E+00 0. -1.
</event>
<event>
 5    1  0.6690694E-004  0.9118800E+02  0.7818608E-02  0.1130116E+00
         25   -1    0    0    0    0  0.00000000000E+00  0.00000000000E+00  0.99999998245E-14  0.12500000000E+03  0.12500000000E+03 0.  0.
        -11    1    3    3    0    0  0.30882767988E+02 -0.14135934970E+02 -0.10493039204E+02  0.35548191066E+02  0.51100000000E-03 0. -1.
         23    2    1    0    0    0 -0.95648443897E+01  0.24549476224E+02  0.12228110069E+02  0.95953662762E+02  0.91451712343E+02 0.  0.
         11    1    3    3    0    0 -0.40447612378E+02  0.38685411194E+02  0.22721149273E+02  0.60405471696E+02  0.51100000000E-03 0.  1.
         22    1    1    0    0    0  0.95648443897E+01 -0.24549476224E+02 -0.12228110069E+02  0.29046337238E+02  0.00000000000E+00 0.  1.
</event>
<event>
 5    1  0.6690694E-004  0.9118800E+02  0.7818608E-02  0.1130116E+00
         25   -1    0    0    0    0  0.00000000000E+00  0.00000000000E+00  0.99999998245E-14  0.12500000000E+03  0.12500000000E+03 0.  0.
        -11    1    3    3    0    0  0.16367725950E+02 -0.13919587318E+02 -0.32284319686E+02  0.38780596459E+02  0.51100000000E-03 0.  1.
         23    2    1    0    0    0  0.21023802813E+02  0.18056111693E+02  0.12981986567E+02  0.94396806876E+02  0.89298385869E+02 0.  0.
         11    1    3    3    0    0  0.46560768629E+01  0.31975699011E+02  0.45266306253E+02  0.55616210416E+02  0.51100000000E-03 0. -1.
         22    1    1    0    0    0 -0.21023802813E+02 -0.18056111693E+02 -0.12981986567E+02  0.30603193124E+02  0.00000000000E+00 0. -1.
</event>
<event>
 5    1  0.6690694E-004  0.9118800E+02  0.7818608E-02  0.1130116E+00
         25   -1    0    0    0    0  0.00000000000E+00  0.00000000000E+00  0.99999998245E-14  0.12500000000E+03  0.12500000000E+03 0.  0.
        -11    1    3    3    0    0  0.18298807636E+01  0.29622028087E+02 -0.11732510198E+02  0.31913395423E+02  0.51100000000E-03 0. -1.
         23    2    1    0    0    0  0.11257147690E+02 -0.28440756492E+02  0.69513273378E+01  0.93632485663E+02  0.88222000747E+02 0.  0.
         11    1    3    3    0    0  0.94272669260E+01 -0.58062784579E+02  0.18683837536E+02  0.61719090240E+02  0.51100000000E-03 0.  1.
         22    1    1    0    0    0 -0.11257147690E+02  0.28440756492E+02 -0.69513273378E+01  0.31367514337E+02  0.00000000000E+00 0.  1.
</event>
<event>
 5    1  0.6690694E-004  0.9118800E+02  0.7818608E-02  0.1130116E+00
         25   -1    0    0    0    0  0.00000000000E+00  0.00000000000E+00  0.99999998245E-14  0.12500000000E+03  0.12500000000E+03 0.  0.
        -11    1    3    3    0    0  0.21709970304E+02 -0.55464050942E+02 -0.31925681221E+01  0.59647097574E+02  0.51100000000E-03 0.  1.
         23    2    1    0    0    0  0.44132322946E+00 -0.27641833614E+02  0.76644172028E+01  0.96311866167E+02  0.91940015998E+02 0.  0.
         11    1    3    3    0    0 -0.21268647075E+02  0.27822217327E+02  0.10856985325E+02  0.36664768593E+02  0.51100000000E-03 0. -1.
         22    1    1    0    0    0 -0.44132322946E+00  0.27641833614E+02 -0.76644172028E+01  0.28688133833E+02  0.00000000000E+00 0.  1.
</event>
<event>
 5    1  0.6690694E-004  0.9118800E+02  0.7818608E-02  0.1130116E+00
         25   -1    0    0    0    0  0.00000000000E+00  0.00000000000E+00  0.99999998245E-14  0.12500000000E+03  0.12500000000E+03 0.  0.
        -11    1    3    3    0    0 -0.16353276207E+02 -0.12221738233E+02 -0.41710355385E+02  0.46438715257E+02  0.51100000000E-03 0.  1.
         23    2    1    0    0    0  0.21941233136E+02 -0.16790656956E+02 -0.13317686652E+02  0.94329091140E+02  0.89203546930E+02 0.  0.
         11    1    3    3    0    0  0.38294509342E+02 -0.45689187234E+01  0.28392668733E+02  0.47890375882E+02  0.51100000000E-03 0. -1.
         22    1    1    0    0    0 -0.21941233136E+02  0.16790656956E+02  0.13317686652E+02  0.30670908860E+02  0.00000000000E+00 0. -1.
</event>
<event>
 5    1  0.6690694E-004  0.9118800E+02  0.7818608E-02  0.1130116E+00
         25   -1    0    0    0    0  0.00000000000E+00  0.00000000000E+00  0.99999998245E-14  0.12500000000E+03  0.12500000000E+03 0.  0.
        -11    1    3    3    0    0 -0.19895771038E+02 -0.41026928035E+02  0.25253952116E+02  0.52123052740E+02  0.51100000000E-03 0. -1.
         23    2    1    0    0    0 -0.27132696831E+02 -0.10586744544E+02 -0.47702579473E+01  0.95486990017E+02  0.90811604458E+02 0.  0.
         11    1    3    3    0    0 -0.72369257929E+01  0.30440183491E+02 -0.30024210064E+02  0.43363937277E+02  0.51100000000E-03 0.  1.
         22    1    1    0    0    0  0.27132696831E+02  0.10586744544E+02  0.47702579473E+01  0.29513009983E+02  0.00000000000E+00 0. -1.
</event>
<event>
 5    1  0.6690694E-004  0.9118800E+02  0.7818608E-02  0.1130116E+00
         25   -1    0    0    0    0  0.00000000000E+00  0.00000000000E+00  0.99999998245E-14  0.12500000000E+03  0.12500000000E+03 0.  0.
        -11    1    3    3    0    0  0.14023260433E+02  0.79006764102E+01 -0.37971240591E+02  0.41241818985E+02  0.51100000000E-03 0.  1.
         23    2    1    0    0    0  0.18696089892E+02 -0.21468135683E+02  0.74876926613E+01  0.95563794940E+02  0.90917263130E+02 0.  0.
         11    1    3    3    0    0  0.46728294595E+01 -0.29368812093E+02  0.45458933253E+02  0.54321975955E+02  0.51100000000E-03 0. -1.
         22    1    1    0    0    0 -0.18696089892E+02  0.21468135683E+02 -0.74876926613E+01  0.29436205060E+02  0.00000000000E+00 0. -1.
</event>
<event>
 5    1  0.6690694E-004  0.9118800E+02  0.7818608E-02  0.1130116E+00
         25   -1    0    0    0    0  0.00000000000E+00  0.00000000000E+00  0.99999998245E-14  0.12500000000E+03  0.12500000000E+03 0.  0.
        -11    1    3    3    0    0  0.19383473474E+02 -0.20107007453E+02 -0.25481358162E+02  0.37806221798E+02  0.51100000000E-03 0.  1.
         23    2    1    0    0    0 -0.36179028936E+01  0.81448196645E+01  0.24083914370E+02  0.99320003114E+02  0.95942695284E+02 0.  0.
         11    1    3    3    0    0 -0.23001376367E+02  0.28251827117E+02  0.49565272532E+02  0.61513781315E+02  0.51100000000E-03 0. -1.
         22    1    1    0    0    0  0.36179028936E+01 -0.81448196645E+01 -0.24083914370E+02  0.25679996886E+02  0.00000000000E+00 0. -1.
</event>
<event>
 5    1  0.6690694E-004  0.9118800E+02  0.7818608E-02  0.1130116E+00
         25   -1    0    0    0    0  0.00000000000E+00  0.00000000000E+00  0.99999998245E-14  0.12500000000E+03  0.12500000000E+03 0.  0.
        -11    1    3    3    0    0  0.16173124372E+02 -0.25657157053E+02 -0.30848464466E+02  0.43260691398E+02  0.51100000000E-03 0.  1.
         23    2    1    0    0    0 -0.25684499013E+02  0.12290032259E+01 -0.13574797586E+02  0.95922877241E+02  0.91409623728E+02 0.  0.
         11    1    3    3    0    0 -0.41857623385E+02  0.26886160279E+02  0.17273666880E+02  0.52662185843E+02  0.51100000000E-03 0. -1.
         22    1    1    0    0    0  0.25684499013E+02 -0.12290032259E+01  0.13574797586E+02  0.29077122759E+02  0.00000000000E+00 0. -1.
</event>
<event>
 5    1  0.6690694E-004  0.9118800E+02  0.7818608E-02  0.1130116E+00
         25   -1    0    0    0    0  0.00000000000E+00  0.00000000000E+00  0.99999998245E-14  0.12500000000E+03  0.12500000000E+03 0.  0.
        -11    1    3    3    0    0  0.29288487947E+02 -0.47079464759E+02 -0.20211330302E+02  0.59015162467E+02  0.51100000000E-03 0. -1.
         23    2    1    0    0    0  0.26498999241E+00 -0.27815347567E+02 -0.66282938005E+01  0.96404579761E+02  0.92065981449E+02 0.  0.
         11    1    3    3    0    0 -0.29023497954E+02  0.19264117192E+02  0.13583036501E+02  0.37389417293E+02  0.51100000000E-03 0.  1.
         22    1    1    0    0    0 -0.26498999241E+00  0.27815347567E+02  0.66282938005E+01  0.28595420239E+02  0.00000000000E+00 0. -1.
</event>
<event>
 5    1  0.6690694E-004  0.9118800E+02  0.7818608E-02  0.1130116E+00
         25   -1    0    0    0    0  0.00000000000E+00  0.00000000000E+00  0.99999998245E-14  0.12500000000E+03  0.12500000000E+03 0.  0.
        -11    1    3    3    0    0 -0.17108339617E+02  0.33434141046E+02 -0.46247270350E+02  0.59576397063E+02  0.51100000000E-03 0.  1.
         23    2    1    0    0    0 -0.40104897572E+01  0.47652501474E+01 -0.28661498602E+02  0.95669586789E+02  0.91062597685E+02 0.  0.
         11    1    3    3    0    0  0.13097849860E+02 -0.28668890898E+02  0.17585771749E+02  0.36093189725E+02  0.51100000000E-03 0. -1.
         22    1    1    0    0    0  0.40104897572E+01 -0.47652501474E+01  0.28661498602E+02  0.29330413211E+02  0.00000000000E+00 0.  1.
</event>
<event>
 5    1  0.6690694E-004  0.9118800E+02  0.7818608E-02  0.1130116E+00
         25   -1    0    0    0    0  0.00000000000E+00  0.00000000000E+00  0.99999998245E-14  0.12500000000E+03  0.12500000000E+03 0.  0.
        -11    1    3    3    0    0 -0.38658163286E+02  0.36630071966E+01  0.48597343866E+02  0.62205892337E+02  0.51100000000E-03 0.  1.
         23    2    1    0    0    0 -0.13966530258E+02 -0.18966178994E+01  0.21565063875E+02  0.99237369955E+02  0.95834975290E+02 0.  0.
         11    1    3    3    0    0  0.24691633028E+02 -0.55596250960E+01 -0.27032279991E+02  0.37031477618E+02  0.51100000000E-03 0. -1.
         22    1    1    0    0    0  0.13966530258E+02  0.18966178994E+01 -0.21565063875E+02  0.25762630045E+02  0.00000000000E+00 0.  1.
</event>
<event>
 5    1  0.6690694E-004  0.9118800E+02  0.7818608E-02  0.1130116E+00
         25   -1    0    0    0    0  0.00000000000E+00  0.00000000000E+00  0.99999998245E-14  0.12500000000E+03  0.12500000000E+03 0.  0.
        -11    1    3    3    0    0  0.32833676794E+02 -0.73870843192E+01 -0.24497296385E+02  0.41626156164E+02  0.51100000000E-03 0. -1.
         23    2    1    0    0    0 -0.21336784967E+02 -0.28671020001E+01 -0.19042953271E+02  0.96257823049E+02  0.91866510559E+02 0.  0.
         11    1    3    3    0    0 -0.54170461761E+02  0.45199823191E+01  0.54543431139E+01  0.54631666885E+02  0.51100000000E-03 0.  1.
         22    1    1    0    0    0  0.21336784967E+02  0.28671020001E+01  0.19042953271E+02  0.28742176951E+02  0.00000000000E+00 0.  1.
</event>
<event>
 5    1  0.6690694E-004  0.9118800E+02  0.7818608E-02  0.1130116E+00
         25   -1    0    0    0    0  0.00000000000E+00  0.00000000000E+00  0.99999998245E-14  0.12500000000E+03  0.12500000000E+03 0.  0.
        -11    1    3    3    0    0  0.37763876394E+02  0.29804971260E+02 -0.43427896723E+01  0.48304311345E+02  0.51100000000E-03 0.  1.
         23    2    1    0    0    0 -0.57047538911E+01  0.22621528283E+02 -0.19184654226E+02  0.94795220302E+02  0.89854354794E+02 0.  0.
         11    1    3    3    0    0 -0.43468630285E+02 -0.71834429776E+01 -0.14841864554E+02  0.46490908957E+02  0.51100000000E-03 0. -1.
         22    1    1    0    0    0  0.57047538911E+01 -0.22621528283E+02  0.19184654226E+02  0.30204779698E+02  0.00000000000E+00 0. -1.
</event>
<event>
 5    1  0.6690694E-004  0.9118800E+02  0.7818608E-02  0.1130116E+00
         25   -1    0    0    0    0  0.00000000000E+00  0.00000000000E+00  0.99999998245E-14  0.12500000000E+03  0.12500000000E+03 0.  0.
        -11    1    3    3    0    0  0.28339326669E+01  0.27610189574E+02  0.24764636090E+02  0.37197324415E+02  0.51100000000E-03 0. -1.
         23    2    1    0    0    0 -0.15836651042E+02 -0.22152735363E+02 -0.37473065314E+01  0.97512084355E+02  0.93557581674E+02 0.  0.
         11    1    3    3    0    0 -0.18670583708E+02 -0.49762924937E+02 -0.28511942621E+02  0.60314759940E+02  0.51100000000E-03 0.  1.
         22    1    1    0    0    0  0.15836651042E+02  0.22152735363E+02  0.37473065314E+01  0.27487915645E+02  0.00000000000E+00 0.  1.
</event>
<event>
 5    1  0.6690694E-004  0.9118800E+02  0.7818608E-02  0.1130116E+00
         25   -1    0    0    0    0  0.00000000000E+00  0.00000000000E+00  0.99999998245E-14  0.12500000000E+03  0.12500000000E+03 0.  0.
        -11    1    3    3    0    0  0.45582920402E+02  0.32969978764E+02  0.12646726560E+02  0.57660747697E+02  0.51100000000E-03 0. -1.
         23    2    1    0    0    0  0.89885700879E+01  0.27004244720E+02  0.10108479692E+01  0.96521140494E+02  0.92224102726E+02 0.  0.
         11    1    3    3    0    0 -0.36594350314E+02 -0.59657340435E+01 -0.11635878590E+02  0.38860392798E+02  0.51100000000E-03 0.  1.
         22    1    1    0    0    0 -0.89885700879E+01 -0.27004244720E+02 -0.10108479692E+01  0.28478859506E+02  0.00000000000E+00 0.  1.
</event>
<event>
 5    1  0.6690694E-004  0.9118800E+02  0.7818608E-02  0.1130116E+00
         25   -1    0    0    0    0  0.00000000000E+00  0.00000000000E+00  0.99999998245E-14  0.12500000000E+03  0.12500000000E+03 0.  0.
        -11    1    3    3    0    0 -0.24650849324E+02 -0.18597528556E+02  0.29459545802E+02  0.42677831246E+02  0.51100000000E-03 0. -1.
         23    2    1    0    0    0 -0.29080225014E+02  0.14376672995E+02 -0.67646497816E+01  0.91862276784E+02  0.85677121777E+02 0.  0.
         11    1    3    3    0    0 -0.44293756897E+01  0.32974201551E+02 -0.36224195584E+02  0.49184445538E+02  0.51100000000E-03 0.  1.
         22    1    1    0    0    0  0.29080225014E+02 -0.14376672995E+02  0.67646497816E+01  0.33137723216E+02  0.00000000000E+00 0.  1.
</event>
<event>
 5    1  0.6690694E-004  0.9118800E+02  0.7818608E-02  0.1130116E+00
         25   -1    0    0    0    0  0.00000000000E+00  0.00000000000E+00  0.99999998245E-14  0.12500000000E+03  0.12500000000E+03 0.  0.
        -11    1    3    3    0    0  0.47529765007E+02  0.12191629786E+02  0.97102703298E+01  0.50020033472E+02  0.51100000000E-03 0.  1.
         23    2    1    0    0    0  0.20058079057E+02 -0.22470108578E+02  0.38757914161E+01  0.94631363645E+02  0.89626117350E+02 0.  0.
         11    1    3    3    0    0 -0.27471685949E+02 -0.34661738364E+02 -0.58344789137E+01  0.44611330172E+02  0.51100000000E-03 0. -1.
         22    1    1    0    0    0 -0.20058079057E+02  0.22470108578E+02 -0.38757914161E+01  0.30368636355E+02  0.00000000000E+00 0.  1.
</event>
<event>
 5    1  0.6690694E-004  0.9118800E+02  0.7818608E-02  0.1130116E+00
         25   -1    0    0    0    0  0.00000000000E+00  0.00000000000E+00  0.99999998245E-14  0.12500000000E+03  0.12500000000E+03 0.  0.
        -11    1    3    3    0    0  0.11773956155E+01 -0.32138120087E+02  0.72954825616E+01  0.32976796225E+02  0.51100000000E-03 0. -1.
         23    2    1    0    0    0  0.25521502946E+01  0.29217619419E+02 -0.40656479333E+01  0.95390672944E+02  0.90678929393E+02 0.  0.
         11    1    3    3    0    0  0.13747546790E+01  0.61355739506E+02 -0.11361130495E+02  0.62413876719E+02  0.51100000000E-03 0.  1.
         22    1    1    0    0    0 -0.25521502946E+01 -0.29217619419E+02  0.40656479333E+01  0.29609327056E+02  0.00000000000E+00 0.  1.
</event>
<event>
 5    1  0.6690694E-004  0.9118800E+02  0.7818608E-02  0.1130116E+00
         25   -1    0    0    0    0  0.00000000000E+00  0.00000000000E+00  0.99999998245E-14  0.12500000000E+03  0.12500000000E+03 0.  0.
        -11    1    3    3    0    0  0.31506655286E+02  0.14780054567E+02  0.11497129976E+01  0.34820126085E+02  0.51100000000E-03 0.  1.
         23    2    1    0    0    0 -0.52363181890E+01 -0.20193839193E+02 -0.25445379309E+02  0.92095934936E+02  0.86017345542E+02 0.  0.
         11    1    3    3    0    0 -0.36742973475E+02 -0.34973893760E+02 -0.26595092306E+02  0.57275808852E+02  0.51100000000E-03 0. -1.
         22    1    1    0    0    0  0.52363181890E+01  0.20193839193E+02  0.25445379309E+02  0.32904065064E+02  0.00000000000E+00 0. -1.
</event>
<event>
 5    1  0.6690694E-004  0.9118800E+02  0.7818608E-02  0.1130116E+00
         25   -1    0    0    0    0  0.00000000000E+00  0.00000000000E+00  0.99999998245E-14  0.12500000000E+03  0.12500000000E+03 0.  0.
        -11    1    3    3    0    0 -0.11708975141E+02 -0.34394594971E+02  0.63806884287E+01  0.36889042372E+02  0.51100000000E-03 0. -1.
         23    2    1    0    0    0 -0.15960511975E+02  0.24009137217E+02  0.64944547496E+01  0.95447427271E+02  0.90757130947E+02 0.  0.
         11    1    3    3    0    0 -0.42515368346E+01  0.58403732188E+02  0.11376632092E+00  0.58558384899E+02  0.51100000000E-03 0.  1.
         22    1    1    0    0    0  0.15960511975E+02 -0.24009137217E+02 -0.64944547496E+01  0.29552572729E+02  0.00000000000E+00 0.  1.
</event>
<event>
 5    1  0.6690694E-004  0.9118800E+02  0.7818608E-02  0.1130116E+00
         25   -1    0    0    0    0  0.00000000000E+00  0.00000000000E+00  0.99999998245E-14  0.12500000000E+03  0.12500000000E+03 0.  0.
        -11    1    3    3    0    0 -0.50137358790E+02  0.31809595512E+02 -0.17823332556E+02  0.61994163408E+02  0.51100000000E-03 0. -1.
         23    2    1    0    0    0 -0.26480004756E+02  0.10157985051E+02 -0.81710915989E+01  0.95484884379E+02  0.90808706052E+02 0.  0.
         11    1    3    3    0    0  0.23657354034E+02 -0.21651610461E+02  0.96522409567E+01  0.33490720971E+02  0.51100000000E-03 0.  1.
         22    1    1    0    0    0  0.26480004756E+02 -0.10157985051E+02  0.81710915989E+01  0.29515115621E+02  0.00000000000E+00 0. -1.
</event>
<event>
 5    1  0.6690694E-004  0.9118800E+02  0.7818608E-02  0.1130116E+00
         25   -1    0    0    0    0  0.00000000000E+00  0.00000000000E+00  0.99999998245E-14  0.12500000000E+03  0.12500000000E+03 0.  0.
        -11    1    3    3    0    0 -0.48139220778E+02  0.96061084694E+01 -0.33854239447E+02  0.59630289499E+02  0.51100000000E-03 0. -1.
         23    2    1    0    0    0 -0.14539675740E+02  0.48137052262E+01 -0.26553266092E+02  0.94346291109E+02  0.89227645813E+02 0.  0.
         11    1    3    3    0    0  0.33599545038E+02 -0.47924032432E+01  0.73009733551E+01  0.34716001610E+02  0.51100000000E-03 0.  1.
         22    1    1    0    0    0  0.14539675740E+02 -0.48137052262E+01  0.26553266092E+02  0.30653708891E+02  0.00000000000E+00 0. -1.
</event>
<event>
 5    1  0.6690694E-004  0.9118800E+02  0.7818608E-02  0.1130116E+00
         25   -1    0    0    0    0  0.00000000000E+00  0.00000000000E+00  0.99999998245E-14  0.12500000000E+03  0.12500000000E+03 0.  0.
        -11    1    3    3    0    0  0.53063552332E+01  0.31716215351E+02 -0.23691596176E+02  0.39942051170E+02  0.51100000000E-03 0. -1.
         23    2    1    0    0    0 -0.30786413370E+02 -0.21741644233E+01 -0.17756741418E+01  0.94085872845E+02  0.88862074087E+02 0.  0.
         11    1    3    3    0    0 -0.36092768603E+02 -0.33890379774E+02  0.21915922034E+02  0.54143821675E+02  0.51100000000E-03 0.  1.
         22    1    1    0    0    0  0.30786413370E+02  0.21741644233E+01  0.17756741418E+01  0.30914127155E+02  0.00000000000E+00 0.  1.
</event>
<event>
 5    1  0.6690694E-004  0.9118800E+02  0.7818608E-02  0.1130116E+00
         25   -1    0    0    0    0  0.00000000000E+00  0.00000000000E+00  0.99999998245E-14  0.12500000000E+03  0.12500000000E+03 0.  0.
        -11    1    3    3    0    0 -0.15471518500E+02  0.28941454970E+02  0.10789603400E+02  0.34545495253E+02  0.51100000000E-03 0.  1.
         23    2    1    0    0    0  0.22684353491E+02 -0.18255313315E+02  0.35015838753E+01  0.95672581989E+02  0.91066709051E+02 0.  0.
         11    1    3    3    0    0  0.38155871991E+02 -0.47196768285E+02 -0.72880195250E+01  0.61127086736E+02  0.51100000000E-03 0. -1.
         22    1    1    0    0    0 -0.22684353491E+02  0.18255313315E+02 -0.35015838753E+01  0.29327418011E+02  0.00000000000E+00 0. -1.
</event>
<event>
 5    1  0.6690694E-004  0.9118800E+02  0.7818608E-02  0.1130116E+00
         25   -1    0    0    0    0  0.00000000000E+00  0.00000000000E+00  0.99999998245E-14  0.12500000000E+03  0.12500000000E+03 0.  0.
        -11    1    3    3    0    0 -0.53519945055E+02 -0.10950478679E+02  0.15905907481E+02  0.56897235390E+02  0.51100000000E-03 0. -1.
         23    2    1    0    0    0 -0.28897033300E+02  0.87525718572E+01 -0.45200469334E+01  0.94470065969E+02  0.89400875232E+02 0.  0.
         11    1    3    3    0    0  0.24622911755E+02  0.19703050536E+02 -0.20425954415E+02  0.37572830579E+02  0.51100000000E-03 0.  1.
         22    1    1    0    0    0  0.28897033300E+02 -0.87525718572E+01  0.45200469334E+01  0.30529934031E+02  0.00000000000E+00 0. -1.
</event>
<event>
 5    1  0.6690694E-004  0.9118800E+02  0.7818608E-02  0.1130116E+00
         25   -1    0    0    0    0  0.00000000000E+00  0.00000000000E+00  0.99999998245E-14  0.12500000000E+03  0.12500000000E+03 0.  0.
        -11    1    3    3    0    0 -0.23640523539E+01 -0.41583829245E+02  0.18670979545E+02  0.45644376167E+02  0.51100000000E-03 0.  1.
         23    2    1    0    0    0 -0.29151910242E+02 -0.21268175225E+01  0.42839745974E+01  0.95458340232E+02  0.90772160148E+02 0.  0.
         11    1    3    3    0    0 -0.26787857888E+02  0.39457011722E+02 -0.14387004948E+02  0.49813964065E+02  0.51100000000E-03 0. -1.
         22    1    1    0    0    0  0.29151910242E+02  0.21268175225E+01 -0.42839745974E+01  0.29541659768E+02  0.00000000000E+00 0. -1.
</event>
<event>
 5    1  0.6690694E-004  0.9118800E+02  0.7818608E-02  0.1130116E+00
         25   -1    0    0    0    0  0.00000000000E+00  0.00000000000E+00  0.99999998245E-14  0.12500000000E+03  0.12500000000E+03 0.  0.
        -11    1    3    3    0    0 -0.97030646293E+01  0.47861500815E+02 -0.26666922923E+02  0.55641688525E+02  0.51100000000E-03 0.  1.
         23    2    1    0    0    0 -0.13733086577E+02  0.24911070760E+02  0.61570224488E+01  0.95895566682E+02  0.91372269702E+02 0.  0.
         11    1    3    3    0    0 -0.40300219477E+01 -0.22950430055E+02  0.32823945372E+02  0.40253878157E+02  0.51100000000E-03 0. -1.
         22    1    1    0    0    0  0.13733086577E+02 -0.24911070760E+02 -0.61570224488E+01  0.29104433318E+02  0.00000000000E+00 0.  1.
</event>
<event>
 5    1  0.6690694E-004  0.9118800E+02  0.7818608E-02  0.1130116E+00
         25   -1    0    0    0    0  0.00000000000E+00  0.00000000000E+00  0.99999998245E-14  0.12500000000E+03  0.12500000000E+03 0.  0.
        -11    1    3    3    0    0 -0.46483017837E+02 -0.19531314752E+01 -0.40098258001E+01  0.46696513500E+02  0.51100000000E-03 0.  1.
         23    2    1    0    0    0 -0.49742710620E+01  0.15910106053E+02 -0.23729151139E+02  0.96000905859E+02  0.91516263389E+02 0.  0.
         11    1    3    3    0    0  0.41508746775E+02  0.17863237528E+02 -0.19719325339E+02  0.49304392359E+02  0.51100000000E-03 0. -1.
         22    1    1    0    0    0  0.49742710620E+01 -0.15910106053E+02  0.23729151139E+02  0.28999094141E+02  0.00000000000E+00 0. -1.
</event>
<event>
 5    1  0.6690694E-004  0.9118800E+02  0.7818608E-02  0.1130116E+00
         25   -1    0    0    0    0  0.00000000000E+00  0.00000000000E+00  0.99999998245E-14  0.12500000000E+03  0.12500000000E+03 0.  0.
        -11    1    3    3    0    0  0.11764678450E+02 -0.36911132408E+02 -0.86557806178E+01  0.39695867455E+02  0.51100000000E-03 0.  1.
         23    2    1    0    0    0  0.17853077329E+02  0.14393349329E+02  0.16095007382E+02  0.96983038394E+02  0.92848045743E+02 0.  0.
         11    1    3    3    0    0  0.60883988795E+01  0.51304481737E+02  0.24750787999E+02  0.57287170938E+02  0.51100000000E-03 0. -1.
         22    1    1    0    0    0 -0.17853077329E+02 -0.14393349329E+02 -0.16095007382E+02  0.28016961606E+02  0.00000000000E+00 0. -1.
</event>
<event>
 5    1  0.6690694E-004  0.9118800E+02  0.7818608E-02  0.1130116E+00
         25   -1    0    0    0    0  0.00000000000E+00  0.00000000000E+00  0.99999998245E-14  0.12500000000E+03  0.12500000000E+03 0.  0.
        -11    1    3    3    0    0  0.41663948293E+02 -0.15453087024E+02 -0.21202213829E+01  0.44487951458E+02  0.51100000000E-03 0.  1.
         23    2    1    0    0    0  0.49541582773E+01  0.10018441168E+02  0.25598023349E+02  0.97068447106E+02  0.92962959164E+02 0.  0.
         11    1    3    3    0    0 -0.36709790016E+02  0.25471528192E+02  0.27718244732E+02  0.52580495649E+02  0.51100000000E-03 0. -1.
         22    1    1    0    0    0 -0.49541582773E+01 -0.10018441168E+02 -0.25598023349E+02  0.27931552894E+02  0.00000000000E+00 0.  1.
</event>
<event>
 5    1  0.6690694E-004  0.9118800E+02  0.7818608E-02  0.1130116E+00
         25   -1    0    0    0    0  0.00000000000E+00  0.00000000000E+00  0.99999998245E-14  0.12500000000E+03  0.12500000000E+03 0.  0.
        -11    1    3    3    0    0  0.39914216707E+01 -0.57365610328E+02 -0.13993241297E+02  0.59182391786E+02  0.51100000000E-03 0.  1.
         23    2    1    0    0    0  0.23823487314E+01 -0.21356314618E+02 -0.19904481598E+02  0.95709111533E+02  0.91116836442E+02 0.  0.
         11    1    3    3    0    0 -0.16090729393E+01  0.36009295710E+02 -0.59112403005E+01  0.36526719746E+02  0.51100000000E-03 0. -1.
         22    1    1    0    0    0 -0.23823487314E+01  0.21356314618E+02  0.19904481598E+02  0.29290888467E+02  0.00000000000E+00 0.  1.
</event>
<event>
 5    1  0.6690694E-004  0.9118800E+02  0.7818608E-02  0.1130116E+00
         25   -1    0    0    0    0  0.00000000000E+00  0.00000000000E+00  0.99999998245E-14  0.12500000000E+03  0.12500000000E+03 0.  0.
        -11    1    3    3    0    0  0.37557382867E+02  0.29784319371E+02 -0.37734787735E+02  0.61004728455E+02  0.51100000000E-03 0.  1.
         23    2    1    0    0    0  0.14520646171E+02  0.70831437604E+01 -0.23830097603E+02  0.96209486936E+02  0.91800717502E+02 0.  0.
         11    1    3    3    0    0 -0.23036736696E+02 -0.22701175611E+02  0.13904690133E+02  0.35204758480E+02  0.51100000000E-03 0. -1.
         22    1    1    0    0    0 -0.14520646171E+02 -0.70831437604E+01  0.23830097603E+02  0.28790513064E+02  0.00000000000E+00 0.  1.
</event>
<event>
 5    1  0.6690694E-004  0.9118800E+02  0.7818608E-02  0.1130116E+00
         25   -1    0    0    0    0  0.00000000000E+00  0.00000000000E+00  0.99999998245E-14  0.12500000000E+03  0.12500000000E+03 0.  0.
        -11    1    3    3    0    0  0.45918510102E+02  0.39489876793E+02  0.10947254492E+02  0.61545124261E+02  0.51100000000E-03 0.  1.
         23    2    1    0    0    0  0.18531057559E+02  0.19680067860E+02  0.12140986831E+02  0.95367100606E+02  0.90646429337E+02 0.  0.
         11    1    3    3    0    0 -0.27387452543E+02 -0.19809808932E+02  0.11937323396E+01  0.33821976345E+02  0.51100000000E-03 0. -1.
         22    1    1    0    0    0 -0.18531057559E+02 -0.19680067860E+02 -0.12140986831E+02  0.29632899394E+02  0.00000000000E+00 0.  1.
</event>
<event>
 5    1  0.6690694E-004  0.9118800E+02  0.7818608E-02  0.1130116E+00
         25   -1    0    0    0    0  0.00000000000E+00  0.00000000000E+00  0.99999998245E-14  0.12500000000E+03  0.12500000000E+03 0.  0.
        -11    1    3    3    0    0  0.17645106151E+02 -0.41123938338E+02  0.70062077975E+01  0.45294757130E+02  0.51100000000E-03 0. -1.
         23    2    1    0    0    0  0.22365920308E+02  0.29288853277E+01 -0.17974814120E+02  0.96157207085E+02  0.91729503276E+02 0.  0.
         11    1    3    3    0    0  0.47208141567E+01  0.44052823665E+02 -0.24981021917E+02  0.50862449955E+02  0.51100000000E-03 0.  1.
         22    1    1    0    0    0 -0.22365920308E+02 -0.29288853277E+01  0.17974814120E+02  0.28842792915E+02  0.00000000000E+00 0.  1.
</event>
<event>
 5    1  0.6690694E-004  0.9118800E+02  0.7818608E-02  0.1130116E+00
         25   -1    0    0    0    0  0.00000000000E+00  0.00000000000E+00  0.99999998245E-14  0.12500000000E+03  0.12500000000E+03 0.  0.
        -11    1    3    3    0    0 -0.31591295570E+02 -0.11237903473E+02  0.10251459637E+02  0.35062698915E+02  0.51100000000E-03 0.  1.
         23    2    1    0    0    0 -0.96974309697E+01 -0.20558730933E+02 -0.33294464551E+02  0.84685945940E+02  0.74474737228E+02 0.  0.
         11    1    3    3    0    0  0.21893864601E+02 -0.93208274601E+01 -0.43545924188E+02  0.49623247025E+02  0.51100000000E-03 0. -1.
         22    1    1    0    0    0  0.96974309697E+01  0.20558730933E+02  0.33294464551E+02  0.40314054060E+02  0.00000000000E+00 0. -1.
</event>
<event>
 5    1  0.6690694E-004  0.9118800E+02  0.7818608E-02  0.1130116E+00
         25   -1    0    0    0    0  0.00000000000E+00  0.00000000000E+00  0.99999998245E-14  0.12500000000E+03  0.12500000000E+03 0.  0.
        -11    1    3    3    0    0 -0.34415089261E+02  0.36687432284E+02  0.86412803336E-01  0.50302818250E+02  0.51100000000E-03 0.  1.
         23    2    1    0    0    0  0.75086409557E+01  0.23597382923E+02  0.14224513628E+02  0.96442112162E+02  0.92116925917E+02 0.  0.
         11    1    3    3    0    0  0.41923730216E+02 -0.13090049361E+02  0.14138100825E+02  0.46139293912E+02  0.51100000000E-03 0. -1.
         22    1    1    0    0    0 -0.75086409557E+01 -0.23597382923E+02 -0.14224513628E+02  0.28557887838E+02  0.00000000000E+00 0.  1.
</event>
<event>
 5    1  0.6690694E-004  0.9118800E+02  0.7818608E-02  0.1130116E+00
         25   -1    0    0    0    0  0.00000000000E+00  0.00000000000E+00  0.99999998245E-14  0.12500000000E+03  0.12500000000E+03 0.  0.
        -11    1    3    3    0    0  0.38769375965E+02 -0.88216922591E+01  0.44080846439E+02  0.59363353932E+02  0.51100000000E-03 0.  1.
         23    2    1    0    0    0  0.14198783057E+02 -0.17244725364E+02  0.16657944616E+02  0.97134732874E+02  0.93052045751E+02 0.  0.
         11    1    3    3    0    0 -0.24570592907E+02 -0.84230331054E+01 -0.27422901823E+02  0.37771378942E+02  0.51100000000E-03 0. -1.
         22    1    1    0    0    0 -0.14198783057E+02  0.17244725364E+02 -0.16657944616E+02  0.27865267126E+02  0.00000000000E+00 0.  1.
</event>
<event>
 5    1  0.6690694E-004  0.9118800E+02  0.7818608E-02  0.1130116E+00
         25   -1    0    0    0    0  0.00000000000E+00  0.00000000000E+00  0.99999998245E-14  0.12500000000E+03  0.12500000000E+03 0.  0.
        -11    1    3    3    0    0  0.26992544262E+01  0.51847464009E+02  0.27517839388E+02  0.58759484200E+02  0.51100000000E-03 0. -1.
         23    2    1    0    0    0 -0.39197229472E+01  0.15204173962E+02  0.24212426081E+02  0.96142198445E+02  0.91709048688E+02 0.  0.
         11    1    3    3    0    0 -0.66189773734E+01 -0.36643290047E+02 -0.33054133072E+01  0.37382714245E+02  0.51100000000E-03 0.  1.
         22    1    1    0    0    0  0.39197229472E+01 -0.15204173962E+02 -0.24212426081E+02  0.28857801555E+02  0.00000000000E+00 0. -1.
</event>
<event>
 5    1  0.6690694E-004  0.9118800E+02  0.7818608E-02  0.1130116E+00
         25   -1    0    0    0    0  0.00000000000E+00  0.00000000000E+00  0.99999998245E-14  0.12500000000E+03  0.12500000000E+03 0.  0.
        -11    1    3    3    0    0  0.23824395686E+01  0.45094800424E+02 -0.32052521293E+02  0.55376720425E+02  0.51100000000E-03 0.  1.
         23    2    1    0    0    0  0.17124707946E+02  0.88478699707E+01 -0.21945888423E+02  0.95791055412E+02  0.91229183121E+02 0.  0.
         11    1    3    3    0    0  0.14742268378E+02 -0.36246930453E+02  0.10106632870E+02  0.40414334987E+02  0.51100000000E-03 0. -1.
         22    1    1    0    0    0 -0.17124707946E+02 -0.88478699707E+01  0.21945888423E+02  0.29208944588E+02  0.00000000000E+00 0.  1.
</event>
<event>
 5    1  0.6690694E-004  0.9118800E+02  0.7818608E-02  0.1130116E+00
         25   -1    0    0    0    0  0.00000000000E+00  0.00000000000E+00  0.99999998245E-14  0.12500000000E+03  0.12500000000E+03 0.  0.
        -11    1    3    3    0    0  0.15503001530E+02 -0.93566690824E+01  0.28999238751E+02  0.34188392199E+02  0.51100000000E-03 0.  1.
         23    2    1    0    0    0  0.10614497055E+01  0.62080252603E+01 -0.28672229180E+02  0.95644200245E+02  0.91027743360E+02 0.  0.
         11    1    3    3    0    0 -0.14441551824E+02  0.15564694343E+02 -0.57671467931E+02  0.61455808046E+02  0.51100000000E-03 0. -1.
         22    1    1    0    0    0 -0.10614497055E+01 -0.62080252603E+01  0.28672229180E+02  0.29355799755E+02  0.00000000000E+00 0. -1.
</event>
<event>
 5    1  0.6690694E-004  0.9118800E+02  0.7818608E-02  0.1130116E+00
         25   -1    0    0    0    0  0.00000000000E+00  0.00000000000E+00  0.99999998245E-14  0.12500000000E+03  0.12500000000E+03 0.  0.
        -11    1    3    3    0    0  0.91791613855E+00  0.21067066974E+01  0.31886320240E+02  0.31969019407E+02  0.51100000000E-03 0.  1.
         23    2    1    0    0    0 -0.52454068266E+01  0.37233562981E+01 -0.30068755322E+02  0.94250890720E+02  0.89093898107E+02 0.  0.
         11    1    3    3    0    0 -0.61633229652E+01  0.16166496007E+01 -0.61955075563E+02  0.62281871312E+02  0.51100000000E-03 0. -1.
         22    1    1    0    0    0  0.52454068266E+01 -0.37233562981E+01  0.30068755322E+02  0.30749109280E+02  0.00000000000E+00 0. -1.
</event>
<event>
 5    1  0.6690694E-004  0.9118800E+02  0.7818608E-02  0.1130116E+00
         25   -1    0    0    0    0  0.00000000000E+00  0.00000000000E+00  0.99999998245E-14  0.12500000000E+03  0.12500000000E+03 0.  0.
        -11    1    3    3    0    0  0.37767815643E+02 -0.15944100499E+02 -0.42760571406E+02  0.59237561617E+02  0.51100000000E-03 0.  1.
         23    2    1    0    0    0  0.59382117261E+01 -0.14642007850E+02 -0.24176514246E+02  0.96118265400E+02  0.91676421996E+02 0.  0.
         11    1    3    3    0    0 -0.31829603917E+02  0.13020926485E+01  0.18584057159E+02  0.36880703783E+02  0.51100000000E-03 0. -1.
         22    1    1    0    0    0 -0.59382117261E+01  0.14642007850E+02  0.24176514246E+02  0.28881734600E+02  0.00000000000E+00 0.  1.
</event>
<event>
 5    1  0.6690694E-004  0.9118800E+02  0.7818608E-02  0.1130116E+00
         25   -1    0    0    0    0  0.00000000000E+00  0.00000000000E+00  0.99999998245E-14  0.12500000000E+03  0.12500000000E+03 0.  0.
        -11    1    3    3    0    0  0.23641428026E+02 -0.12483958468E+02 -0.38197858088E+02  0.46624486066E+02  0.51100000000E-03 0. -1.
         23    2    1    0    0    0 -0.13941312406E+02 -0.22965020739E+02 -0.53954956497E+01  0.97598106955E+02  0.93672443861E+02 0.  0.
         11    1    3    3    0    0 -0.37582740432E+02 -0.10481062271E+02  0.32802362439E+02  0.50973620889E+02  0.51100000000E-03 0.  1.
         22    1    1    0    0    0  0.13941312406E+02  0.22965020739E+02  0.53954956497E+01  0.27401893045E+02  0.00000000000E+00 0.  1.
</event>
<event>
 5    1  0.6690694E-004  0.9118800E+02  0.7818608E-02  0.1130116E+00
         25   -1    0    0    0    0  0.00000000000E+00  0.00000000000E+00  0.99999998245E-14  0.12500000000E+03  0.12500000000E+03 0.  0.
        -11    1    3    3    0    0  0.54129465384E+01  0.34153833524E+02 -0.16376989027E+02  0.38262123627E+02  0.51100000000E-03 0.  1.
         23    2    1    0    0    0 -0.77773966715E+01 -0.22030722123E+02 -0.17213418589E+02  0.95980310205E+02  0.91488127926E+02 0.  0.
         11    1    3    3    0    0 -0.13190343210E+02 -0.56184555647E+02 -0.83642956210E+00  0.57718186578E+02  0.51100000000E-03 0. -1.
         22    1    1    0    0    0  0.77773966715E+01  0.22030722123E+02  0.17213418589E+02  0.29019689795E+02  0.00000000000E+00 0. -1.
</event>
<event>
 5    1  0.6690694E-004  0.9118800E+02  0.7818608E-02  0.1130116E+00
         25   -1    0    0    0    0  0.00000000000E+00  0.00000000000E+00  0.99999998245E-14  0.12500000000E+03  0.12500000000E+03 0.  0.
        -11    1    3    3    0    0  0.22409141916E+02  0.37177809000E+02 -0.17397420084E+02  0.46765685596E+02  0.51100000000E-03 0.  1.
         23    2    1    0    0    0  0.29734660074E+02 -0.31277394006E+01  0.67911762775E+01  0.94339718875E+02  0.89218438221E+02 0.  0.
         11    1    3    3    0    0  0.73255181581E+01 -0.40305548401E+02  0.24188596361E+02  0.47574033278E+02  0.51100000000E-03 0. -1.
         22    1    1    0    0    0 -0.29734660074E+02  0.31277394006E+01 -0.67911762775E+01  0.30660281125E+02  0.00000000000E+00 0. -1.
</event>
<event>
 5    1  0.6690694E-004  0.9118800E+02  0.7818608E-02  0.1130116E+00
         25   -1    0    0    0    0  0.00000000000E+00  0.00000000000E+00  0.99999998245E-14  0.12500000000E+03  0.12500000000E+03 0.  0.
        -11    1    3    3    0    0  0.35620303762E+02  0.79989876701E+01  0.20447538148E+02  0.41843657350E+02  0.51100000000E-03 0. -1.
         23    2    1    0    0    0  0.66170851854E+01 -0.18761239929E+02 -0.18891842929E+02  0.97565137702E+02  0.93628438124E+02 0.  0.
         11    1    3    3    0    0 -0.29003218576E+02 -0.26760227599E+02 -0.39339381077E+02  0.55721480353E+02  0.51100000000E-03 0.  1.
         22    1    1    0    0    0 -0.66170851854E+01  0.18761239929E+02  0.18891842929E+02  0.27434862298E+02  0.00000000000E+00 0.  1.
</event>
<event>
 5    1  0.6690694E-004  0.9118800E+02  0.7818608E-02  0.1130116E+00
         25   -1    0    0    0    0  0.00000000000E+00  0.00000000000E+00  0.99999998245E-14  0.12500000000E+03  0.12500000000E+03 0.  0.
        -11    1    3    3    0    0  0.28820572789E+02 -0.27146215749E+02 -0.18429800287E+02  0.43671500824E+02  0.51100000000E-03 0. -1.
         23    2    1    0    0    0  0.45452654051E+01  0.19365475318E+02 -0.20837640861E+02  0.96192217222E+02  0.91777199269E+02 0.  0.
         11    1    3    3    0    0 -0.24275307384E+02  0.46511691067E+02 -0.24078405736E+01  0.52520716398E+02  0.51100000000E-03 0.  1.
         22    1    1    0    0    0 -0.45452654051E+01 -0.19365475318E+02  0.20837640861E+02  0.28807782778E+02  0.00000000000E+00 0.  1.
</event>
<event>
 5    1  0.6690694E-004  0.9118800E+02  0.7818608E-02  0.1130116E+00
         25   -1    0    0    0    0  0.00000000000E+00  0.00000000000E+00  0.99999998245E-14  0.12500000000E+03  0.12500000000E+03 0.  0.
        -11    1    3    3    0    0  0.12246562256E+02  0.71903981350E+01 -0.11990795294E+02  0.18586535031E+02  0.51100000000E-03 0. -1.
         23    2    1    0    0    0 -0.46178924790E+02  0.84679694786E+01 -0.96298793757E+01  0.77073658823E+02  0.60360704980E+02 0.  0.
         11    1    3    3    0    0 -0.58425487046E+02  0.12775713435E+01  0.23609159180E+01  0.58487123791E+02  0.51100000000E-03 0.  1.
         22    1    1    0    0    0  0.46178924790E+02 -0.84679694786E+01  0.96298793757E+01  0.47926341177E+02  0.00000000000E+00 0.  1.
</event>
<event>
 5    1  0.6690694E-004  0.9118800E+02  0.7818608E-02  0.1130116E+00
         25   -1    0    0    0    0  0.00000000000E+00  0.00000000000E+00  0.99999998245E-14  0.12500000000E+03  0.12500000000E+03 0.  0.
        -11    1    3    3    0    0  0.34964827853E+02 -0.19153584244E+01 -0.24277518001E+02  0.42609924492E+02  0.51100000000E-03 0. -1.
         23    2    1    0    0    0  0.14867070869E+02 -0.10922558206E+02  0.23443717790E+02  0.95168138211E+02  0.90371646842E+02 0.  0.
         11    1    3    3    0    0 -0.20097756984E+02 -0.90071997814E+01  0.47721235791E+02  0.52558213719E+02  0.51100000000E-03 0.  1.
         22    1    1    0    0    0 -0.14867070869E+02  0.10922558206E+02 -0.23443717790E+02  0.29831861789E+02  0.00000000000E+00 0.  1.
</event>
<event>
 5    1  0.6690694E-004  0.9118800E+02  0.7818608E-02  0.1130116E+00
         25   -1    0    0    0    0  0.00000000000E+00  0.00000000000E+00  0.99999998245E-14  0.12500000000E+03  0.12500000000E+03 0.  0.
        -11    1    3    3    0    0  0.33614515023E+02  0.99338347909E+01 -0.94218212666E+01  0.36295831857E+02  0.51100000000E-03 0. -1.
         23    2    1    0    0    0 -0.26155568649E+02 -0.35649615974E+01 -0.73163961741E+01  0.97607439413E+02  0.93684896613E+02 0.  0.
         11    1    3    3    0    0 -0.59770083672E+02 -0.13498796388E+02  0.21054250925E+01  0.61311607557E+02  0.51100000000E-03 0.  1.
         22    1    1    0    0    0  0.26155568649E+02  0.35649615974E+01  0.73163961741E+01  0.27392560587E+02  0.00000000000E+00 0.  1.
</event>
<event>
 5    1  0.6690694E-004  0.9118800E+02  0.7818608E-02  0.1130116E+00
         25   -1    0    0    0    0  0.00000000000E+00  0.00000000000E+00  0.99999998245E-14  0.12500000000E+03  0.12500000000E+03 0.  0.
        -11    1    3    3    0    0  0.13810933597E+00 -0.14831661133E+02  0.42768072922E+02  0.45267044391E+02  0.51100000000E-03 0.  1.
         23    2    1    0    0    0 -0.22897423142E+02 -0.19636099516E+02 -0.84597098623E+00  0.94824114633E+02  0.89894541872E+02 0.  0.
         11    1    3    3    0    0 -0.23035532478E+02 -0.48044383832E+01 -0.43614043908E+02  0.49557070242E+02  0.51100000000E-03 0. -1.
         22    1    1    0    0    0  0.22897423142E+02  0.19636099516E+02  0.84597098623E+00  0.30175885367E+02  0.00000000000E+00 0. -1.
</event>
<event>
 5    1  0.6690694E-004  0.9118800E+02  0.7818608E-02  0.1130116E+00
         25   -1    0    0    0    0  0.00000000000E+00  0.00000000000E+00  0.99999998245E-14  0.12500000000E+03  0.12500000000E+03 0.  0.
        -11    1    3    3    0    0 -0.84868147619E+01  0.14407759965E+02 -0.42398718580E+02  0.45576977845E+02  0.51100000000E-03 0. -1.
         23    2    1    0    0    0 -0.18384035164E+02  0.21262194393E+02  0.66787704065E+01  0.96109523482E+02  0.91664501692E+02 0.  0.
         11    1    3    3    0    0 -0.98972204020E+01  0.68544344278E+01  0.49077488987E+02  0.50532545637E+02  0.51100000000E-03 0.  1.
         22    1    1    0    0    0  0.18384035164E+02 -0.21262194393E+02 -0.66787704065E+01  0.28890476518E+02  0.00000000000E+00 0. -1.
</event>
<event>
 5    1  0.6690694E-004  0.9118800E+02  0.7818608E-02  0.1130116E+00
         25   -1    0    0    0    0  0.00000000000E+00  0.00000000000E+00  0.99999998245E-14  0.12500000000E+03  0.12500000000E+03 0.  0.
        -11    1    3    3    0    0 -0.30468449729E+02 -0.13732298819E+02  0.51121811504E+01  0.33808828080E+02  0.51100000000E-03 0. -1.
         23    2    1    0    0    0  0.24522280428E+02  0.15097019255E+02 -0.90205770900E+00  0.96188961562E+02  0.91772764971E+02 0.  0.
         11    1    3    3    0    0  0.54990730158E+02  0.28829318074E+02 -0.60142388594E+01  0.62380133482E+02  0.51100000000E-03 0.  1.
         22    1    1    0    0    0 -0.24522280428E+02 -0.15097019255E+02  0.90205770900E+00  0.28811038438E+02  0.00000000000E+00 0.  1.
</event>
<event>
 5    1  0.6690694E-004  0.9118800E+02  0.7818608E-02  0.1130116E+00
         25   -1    0    0    0    0  0.00000000000E+00  0.00000000000E+00  0.99999998245E-14  0.12500000000E+03  0.12500000000E+03 0.  0.
        -11    1    3    3    0    0  0.26515382977E+02 -0.33095209768E+02 -0.30302490081E+02  0.52121006796E+02  0.51100000000E-03 0.  1.
         23    2    1    0    0    0 -0.85097710594E+01 -0.65135932167E+01 -0.26689962880E+02  0.96238963534E+02  0.91840845398E+02 0.  0.
         11    1    3    3    0    0 -0.35025154036E+02  0.26581616551E+02  0.36125272016E+01  0.44117956739E+02  0.51100000000E-03 0. -1.
         22    1    1    0    0    0  0.85097710594E+01  0.65135932167E+01  0.26689962880E+02  0.28761036466E+02  0.00000000000E+00 0.  1.
</event>
<event>
 5    1  0.6690694E-004  0.9118800E+02  0.7818608E-02  0.1130116E+00
         25   -1    0    0    0    0  0.00000000000E+00  0.00000000000E+00  0.99999998245E-14  0.12500000000E+03  0.12500000000E+03 0.  0.
        -11    1    3    3    0    0 -0.13538835844E+02  0.22348189524E+02  0.54555597864E+02  0.60490122413E+02  0.51100000000E-03 0.  1.
         23    2    1    0    0    0 -0.15825867237E+02  0.56621903429E+01  0.20439303250E+02  0.98537128073E+02  0.94917237730E+02 0.  0.
         11    1    3    3    0    0 -0.22870313929E+01 -0.16685999181E+02 -0.34116294614E+02  0.38047005660E+02  0.51100000000E-03 0. -1.
         22    1    1    0    0    0  0.15825867237E+02 -0.56621903429E+01 -0.20439303250E+02  0.26462871927E+02  0.00000000000E+00 0.  1.
</event>
<event>
 5    1  0.6690694E-004  0.9118800E+02  0.7818608E-02  0.1130116E+00
         25   -1    0    0    0    0  0.00000000000E+00  0.00000000000E+00  0.99999998245E-14  0.12500000000E+03  0.12500000000E+03 0.  0.
        -11    1    3    3    0    0  0.26958180414E+00  0.23311870063E+02  0.53040484923E+02  0.57937975468E+02  0.51100000000E-03 0.  1.
         23    2    1    0    0    0 -0.93014183007E+01 -0.26055755026E+01  0.28557073986E+02  0.94853493059E+02  0.89935383831E+02 0.  0.
         11    1    3    3    0    0 -0.95710001049E+01 -0.25917445566E+02 -0.24483410937E+02  0.36915517592E+02  0.51100000000E-03 0. -1.
         22    1    1    0    0    0  0.93014183007E+01  0.26055755026E+01 -0.28557073986E+02  0.30146506941E+02  0.00000000000E+00 0.  1.
</event>
<event>
 5    1  0.6690694E-004  0.9118800E+02  0.7818608E-02  0.1130116E+00
         25   -1    0    0    0    0  0.00000000000E+00  0.00000000000E+00  0.99999998245E-14  0.12500000000E+03  0.12500000000E+03 0.  0.
        -11    1    3    3    0    0  0.46929137936E+01 -0.41124821589E+02 -0.13555712361E+02  0.43554927718E+02  0.51100000000E-03 0.  1.
         23    2    1    0    0    0  0.75699039655E+01  0.98298453383E+01 -0.26092490400E+02  0.96108005249E+02  0.91662431303E+02 0.  0.
         11    1    3    3    0    0  0.28769901719E+01  0.50954666928E+02 -0.12536778038E+02  0.52553077531E+02  0.51100000000E-03 0. -1.
         22    1    1    0    0    0 -0.75699039655E+01 -0.98298453383E+01  0.26092490400E+02  0.28891994751E+02  0.00000000000E+00 0. -1.
</event>
<event>
 5    1  0.6690694E-004  0.9118800E+02  0.7818608E-02  0.1130116E+00
         25   -1    0    0    0    0  0.00000000000E+00  0.00000000000E+00  0.99999998245E-14  0.12500000000E+03  0.12500000000E+03 0.  0.
        -11    1    3    3    0    0 -0.12070183526E+02 -0.29578133687E+02  0.20439417373E+02  0.37925256829E+02  0.51100000000E-03 0.  1.
         23    2    1    0    0    0  0.24639772188E+02  0.13377116239E+02  0.87823904173E+01  0.95619802693E+02  0.90994234286E+02 0.  0.
         11    1    3    3    0    0  0.36709955715E+02  0.42955249926E+02 -0.11657026956E+02  0.57694545864E+02  0.51100000000E-03 0. -1.
         22    1    1    0    0    0 -0.24639772188E+02 -0.13377116239E+02 -0.87823904173E+01  0.29380197307E+02  0.00000000000E+00 0.  1.
</event>
<event>
 5    1  0.6690694E-004  0.9118800E+02  0.7818608E-02  0.1130116E+00
         25   -1    0    0    0    0  0.00000000000E+00  0.00000000000E+00  0.99999998245E-14  0.12500000000E+03  0.12500000000E+03 0.  0.
        -11    1    3    3    0    0 -0.49665303903E+02 -0.22462396176E+02 -0.31582057109E+01  0.54600145763E+02  0.51100000000E-03 0.  1.
         23    2    1    0    0    0 -0.96204115206E+01 -0.22629874424E+02  0.12275199546E+02  0.97516476606E+02  0.93563449869E+02 0.  0.
         11    1    3    3    0    0  0.40044892383E+02 -0.16747824724E+00  0.15433405257E+02  0.42916330843E+02  0.51100000000E-03 0. -1.
         22    1    1    0    0    0  0.96204115206E+01  0.22629874424E+02 -0.12275199546E+02  0.27483523394E+02  0.00000000000E+00 0. -1.
</event>
