<event>
 5    1  0.1751027E-003  0.9118800E+02  0.7818608E-02  0.1130116E+00
         25   -1    0    0    0    0  0.00000000000E+00  0.00000000000E+00  0.99999998245E-14  0.12500000000E+03  0.12500000000E+03 0.  0.
        -13    1    3    3    0    0  0.24326078842E+02 -0.18602265852E+02  0.30574892574E+02  0.43273983254E+02  0.10566000000E+00 0.  1.
         23    2    1    0    0    0  0.10844166591E+01  0.24812392276E+02  0.23022397235E+01  0.10005744444E+03  0.96898715734E+02 0.  0.
         13    1    3    3    0    0 -0.23241662183E+02  0.43414658128E+02 -0.28272652851E+02  0.56783461190E+02  0.10566000000E+00 0. -1.
         22    1    1    0    0    0 -0.10844166591E+01 -0.24812392276E+02 -0.23022397235E+01  0.24942555557E+02  0.00000000000E+00 0. -1.
</event>
<event>
 5    1  0.1751027E-003  0.9118800E+02  0.7818608E-02  0.1130116E+00
         25   -1    0    0    0    0  0.00000000000E+00  0.00000000000E+00  0.99999998245E-14  0.12500000000E+03  0.12500000000E+03 0.  0.
        -13    1    3    3    0    0  0.55241240887E+01  0.29770072871E+00 -0.42114855588E+02  0.42476779514E+02  0.10566000000E+00 0. -1.
         23    2    1    0    0    0  0.33942902045E+02  0.15422694769E+01 -0.29331533165E+01  0.90895710200E+02  0.84255133672E+02 0.  0.
         13    1    3    3    0    0  0.28418777956E+02  0.12445687482E+01  0.39181702271E+02  0.48418930686E+02  0.10566000000E+00 0.  1.
         22    1    1    0    0    0 -0.33942902045E+02 -0.15422694769E+01  0.29331533165E+01  0.34104289800E+02  0.00000000000E+00 0. -1.
</event>
<event>
 5    1  0.1751027E-003  0.9118800E+02  0.7818608E-02  0.1130116E+00
         25   -1    0    0    0    0  0.00000000000E+00  0.00000000000E+00  0.99999998245E-14  0.12500000000E+03  0.12500000000E+03 0.  0.
        -13    1    3    3    0    0  0.20902721900E+02 -0.50285048287E+02  0.14951068915E+02  0.56471722922E+02  0.10566000000E+00 0. -1.
         23    2    1    0    0    0 -0.86396797201E+01 -0.22486696687E+02  0.14186276435E+02  0.97043855190E+02  0.92929886460E+02 0.  0.
         13    1    3    3    0    0 -0.29542401620E+02  0.27798351600E+02 -0.76479247986E+00  0.40572132268E+02  0.10566000000E+00 0.  1.
         22    1    1    0    0    0  0.86396797201E+01  0.22486696687E+02 -0.14186276435E+02  0.27956144810E+02  0.00000000000E+00 0. -1.
</event>
<event>
 5    1  0.1751027E-003  0.9118800E+02  0.7818608E-02  0.1130116E+00
         25   -1    0    0    0    0  0.00000000000E+00  0.00000000000E+00  0.99999998245E-14  0.12500000000E+03  0.12500000000E+03 0.  0.
        -13    1    3    3    0    0 -0.50037996401E+02 -0.13069975807E+02  0.23585601557E+02  0.56841156887E+02  0.10566000000E+00 0. -1.
         23    2    1    0    0    0 -0.26618503468E+02  0.11453539343E+02  0.47375860037E+01  0.95637217239E+02  0.91018153737E+02 0.  0.
         13    1    3    3    0    0  0.23419492933E+02  0.24523515150E+02 -0.18848015553E+02  0.38796060352E+02  0.10566000000E+00 0.  1.
         22    1    1    0    0    0  0.26618503468E+02 -0.11453539343E+02 -0.47375860037E+01  0.29362782761E+02  0.00000000000E+00 0. -1.
</event>
<event>
 5    1  0.1751027E-003  0.9118800E+02  0.7818608E-02  0.1130116E+00
         25   -1    0    0    0    0  0.00000000000E+00  0.00000000000E+00  0.99999998245E-14  0.12500000000E+03  0.12500000000E+03 0.  0.
        -13    1    3    3    0    0  0.75498882940E+01  0.10102727602E+02 -0.30261966699E+02  0.32785114165E+02  0.10566000000E+00 0. -1.
         23    2    1    0    0    0 -0.12215864385E+02  0.31657361554E+02  0.15975205308E+02  0.87495026092E+02  0.79049076674E+02 0.  0.
         13    1    3    3    0    0 -0.19765752679E+02  0.21554633951E+02  0.46237172008E+02  0.54709911927E+02  0.10566000000E+00 0.  1.
         22    1    1    0    0    0  0.12215864385E+02 -0.31657361554E+02 -0.15975205308E+02  0.37504973908E+02  0.00000000000E+00 0.  1.
</event>
<event>
 5    1  0.1751027E-003  0.9118800E+02  0.7818608E-02  0.1130116E+00
         25   -1    0    0    0    0  0.00000000000E+00  0.00000000000E+00  0.99999998245E-14  0.12500000000E+03  0.12500000000E+03 0.  0.
        -13    1    3    3    0    0 -0.25491582727E+02 -0.21210246748E+01  0.51217486582E+02  0.57249992414E+02  0.10566000000E+00 0.  1.
         23    2    1    0    0    0 -0.25126091359E+02 -0.49342292991E+01  0.11737338126E+02  0.96832071570E+02  0.92644578322E+02 0.  0.
         13    1    3    3    0    0  0.36549136725E+00 -0.28132046243E+01 -0.39480148456E+02  0.39582079156E+02  0.10566000000E+00 0. -1.
         22    1    1    0    0    0  0.25126091359E+02  0.49342292991E+01 -0.11737338126E+02  0.28167928430E+02  0.00000000000E+00 0.  1.
</event>
<event>
 5    1  0.1751027E-003  0.9118800E+02  0.7818608E-02  0.1130116E+00
         25   -1    0    0    0    0  0.00000000000E+00  0.00000000000E+00  0.99999998245E-14  0.12500000000E+03  0.12500000000E+03 0.  0.
        -13    1    3    3    0    0  0.33568138196E+02  0.33670917841E+01  0.16007098112E+01  0.33774704217E+02  0.10566000000E+00 0.  1.
         23    2    1    0    0    0 -0.27764004433E+02 -0.38248742820E+01  0.79906677659E+01  0.95856898299E+02  0.91319354874E+02 0.  0.
         13    1    3    3    0    0 -0.61332142629E+02 -0.71919660661E+01  0.63899579547E+01  0.62082194082E+02  0.10566000000E+00 0. -1.
         22    1    1    0    0    0  0.27764004433E+02  0.38248742820E+01 -0.79906677659E+01  0.29143101701E+02  0.00000000000E+00 0. -1.
</event>
<event>
 5    1  0.1751027E-003  0.9118800E+02  0.7818608E-02  0.1130116E+00
         25   -1    0    0    0    0  0.00000000000E+00  0.00000000000E+00  0.99999998245E-14  0.12500000000E+03  0.12500000000E+03 0.  0.
        -13    1    3    3    0    0 -0.15851879770E+02  0.31336901807E+02  0.51549196327E+02  0.62374789082E+02  0.10566000000E+00 0.  1.
         23    2    1    0    0    0 -0.57413883350E+01  0.16190539130E+02  0.21958103542E+02  0.97120699283E+02  0.93033192037E+02 0.  0.
         13    1    3    3    0    0  0.10110491435E+02 -0.15146362678E+02 -0.29591092784E+02  0.34745910200E+02  0.10566000000E+00 0. -1.
         22    1    1    0    0    0  0.57413883350E+01 -0.16190539130E+02 -0.21958103542E+02  0.27879300717E+02  0.00000000000E+00 0.  1.
</event>
<event>
 5    1  0.1751027E-003  0.9118800E+02  0.7818608E-02  0.1130116E+00
         25   -1    0    0    0    0  0.00000000000E+00  0.00000000000E+00  0.99999998245E-14  0.12500000000E+03  0.12500000000E+03 0.  0.
        -13    1    3    3    0    0 -0.47999254753E+02  0.70746427009E+01 -0.39066469934E+02  0.62291084942E+02  0.10566000000E+00 0. -1.
         23    2    1    0    0    0 -0.24823581395E+02  0.20365872161E+01 -0.15866149632E+02  0.95468786261E+02  0.90786543965E+02 0.  0.
         13    1    3    3    0    0  0.23175673358E+02 -0.50380554847E+01  0.23200320301E+02  0.33177701318E+02  0.10566000000E+00 0.  1.
         22    1    1    0    0    0  0.24823581395E+02 -0.20365872161E+01  0.15866149632E+02  0.29531213739E+02  0.00000000000E+00 0. -1.
</event>
<event>
 5    1  0.1751027E-003  0.9118800E+02  0.7818608E-02  0.1130116E+00
         25   -1    0    0    0    0  0.00000000000E+00  0.00000000000E+00  0.99999998245E-14  0.12500000000E+03  0.12500000000E+03 0.  0.
        -13    1    3    3    0    0  0.33485777363E+02 -0.15157304322E+02  0.70511922727E+01  0.37426883873E+02  0.10566000000E+00 0.  1.
         23    2    1    0    0    0 -0.42498640079E+01  0.28570489476E+02 -0.26455698841E+01  0.95994254827E+02  0.91507178444E+02 0.  0.
         13    1    3    3    0    0 -0.37735641371E+02  0.43727793798E+02 -0.96967621568E+01  0.58567370954E+02  0.10566000000E+00 0. -1.
         22    1    1    0    0    0  0.42498640079E+01 -0.28570489476E+02  0.26455698841E+01  0.29005745173E+02  0.00000000000E+00 0. -1.
</event>
<event>
 5    1  0.1751027E-003  0.9118800E+02  0.7818608E-02  0.1130116E+00
         25   -1    0    0    0    0  0.00000000000E+00  0.00000000000E+00  0.99999998245E-14  0.12500000000E+03  0.12500000000E+03 0.  0.
        -13    1    3    3    0    0 -0.17100530258E+02  0.20227991727E+01 -0.57250078767E+02  0.59783798261E+02  0.10566000000E+00 0.  1.
         23    2    1    0    0    0 -0.71838585157E+01 -0.12043243096E+02 -0.25505744424E+02  0.95893462486E+02  0.91369391054E+02 0.  0.
         13    1    3    3    0    0  0.99166717422E+01 -0.14066042269E+02  0.31744334343E+02  0.36109664225E+02  0.10566000000E+00 0. -1.
         22    1    1    0    0    0  0.71838585157E+01  0.12043243096E+02  0.25505744424E+02  0.29106537514E+02  0.00000000000E+00 0.  1.
</event>
<event>
 5    1  0.1751027E-003  0.9118800E+02  0.7818608E-02  0.1130116E+00
         25   -1    0    0    0    0  0.00000000000E+00  0.00000000000E+00  0.99999998245E-14  0.12500000000E+03  0.12500000000E+03 0.  0.
        -13    1    3    3    0    0 -0.16224723028E+02 -0.53997353932E+02 -0.17655463809E+02  0.59081997557E+02  0.10566000000E+00 0.  1.
         23    2    1    0    0    0  0.30264483813E+01 -0.14975043083E+02 -0.16362255612E+02  0.10261396163E+03  0.10014235072E+03 0.  0.
         13    1    3    3    0    0  0.19251171409E+02  0.39022310849E+02  0.12932081968E+01  0.43531964074E+02  0.10566000000E+00 0. -1.
         22    1    1    0    0    0 -0.30264483813E+01  0.14975043083E+02  0.16362255612E+02  0.22386038369E+02  0.00000000000E+00 0. -1.
</event>
<event>
 5    1  0.1751027E-003  0.9118800E+02  0.7818608E-02  0.1130116E+00
         25   -1    0    0    0    0  0.00000000000E+00  0.00000000000E+00  0.99999998245E-14  0.12500000000E+03  0.12500000000E+03 0.  0.
        -13    1    3    3    0    0 -0.25007607493E+01 -0.14749601798E+02  0.53623807758E+02  0.55671612875E+02  0.10566000000E+00 0. -1.
         23    2    1    0    0    0 -0.20486459608E+02  0.24581498657E+00  0.23604286058E+02  0.93744316156E+02  0.88380309113E+02 0.  0.
         13    1    3    3    0    0 -0.17985698859E+02  0.14995416784E+02 -0.30019521700E+02  0.38072703281E+02  0.10566000000E+00 0.  1.
         22    1    1    0    0    0  0.20486459608E+02 -0.24581498657E+00 -0.23604286058E+02  0.31255683844E+02  0.00000000000E+00 0. -1.
</event>
<event>
 5    1  0.1751027E-003  0.9118800E+02  0.7818608E-02  0.1130116E+00
         25   -1    0    0    0    0  0.00000000000E+00  0.00000000000E+00  0.99999998245E-14  0.12500000000E+03  0.12500000000E+03 0.  0.
        -13    1    3    3    0    0 -0.33758687317E+02  0.19772475230E+02  0.11708511822E+02  0.40837484731E+02  0.10566000000E+00 0.  1.
         23    2    1    0    0    0  0.18064654371E+02  0.22632436402E+02 -0.55124024524E+01  0.95522118533E+02  0.90859945153E+02 0.  0.
         13    1    3    3    0    0  0.51823341687E+02  0.28599611719E+01 -0.17220914274E+02  0.54684633802E+02  0.10566000000E+00 0. -1.
         22    1    1    0    0    0 -0.18064654371E+02 -0.22632436402E+02  0.55124024524E+01  0.29477881467E+02  0.00000000000E+00 0. -1.
</event>
<event>
 5    1  0.1751027E-003  0.9118800E+02  0.7818608E-02  0.1130116E+00
         25   -1    0    0    0    0  0.00000000000E+00  0.00000000000E+00  0.99999998245E-14  0.12500000000E+03  0.12500000000E+03 0.  0.
        -13    1    3    3    0    0 -0.10287133794E+02 -0.45156717955E+01 -0.24903708853E+02  0.27320730081E+02  0.10566000000E+00 0. -1.
         23    2    1    0    0    0 -0.43860119388E+02  0.18972918687E+02  0.33550361444E+01  0.77094489005E+02  0.60403826461E+02 0.  0.
         13    1    3    3    0    0 -0.33572985594E+02  0.23488590482E+02  0.28258744998E+02  0.49773758924E+02  0.10566000000E+00 0.  1.
         22    1    1    0    0    0  0.43860119388E+02 -0.18972918687E+02 -0.33550361444E+01  0.47905510995E+02  0.00000000000E+00 0.  1.
</event>
<event>
 5    1  0.1751027E-003  0.9118800E+02  0.7818608E-02  0.1130116E+00
         25   -1    0    0    0    0  0.00000000000E+00  0.00000000000E+00  0.99999998245E-14  0.12500000000E+03  0.12500000000E+03 0.  0.
        -13    1    3    3    0    0  0.45224739945E+01  0.54543389734E+02 -0.21644612078E+02  0.58855199692E+02  0.10566000000E+00 0. -1.
         23    2    1    0    0    0 -0.46396715309E+01  0.18846774761E+02 -0.21935508383E+02  0.95710172435E+02  0.91118291844E+02 0.  0.
         13    1    3    3    0    0 -0.91621455254E+01 -0.35696614973E+02 -0.29089630412E+00  0.36854972743E+02  0.10566000000E+00 0.  1.
         22    1    1    0    0    0  0.46396715309E+01 -0.18846774761E+02  0.21935508383E+02  0.29289827565E+02  0.00000000000E+00 0. -1.
</event>
<event>
 5    1  0.1751027E-003  0.9118800E+02  0.7818608E-02  0.1130116E+00
         25   -1    0    0    0    0  0.00000000000E+00  0.00000000000E+00  0.99999998245E-14  0.12500000000E+03  0.12500000000E+03 0.  0.
        -13    1    3    3    0    0  0.29268519393E+02 -0.26167253930E+01 -0.41150352032E+02  0.50565364783E+02  0.10566000000E+00 0.  1.
         23    2    1    0    0    0  0.28948879650E+02  0.14648347399E+01  0.38569388506E+01  0.95758602101E+02  0.91184705544E+02 0.  0.
         13    1    3    3    0    0 -0.31963974297E+00  0.40815601329E+01  0.45007290882E+02  0.45193237318E+02  0.10566000000E+00 0. -1.
         22    1    1    0    0    0 -0.28948879650E+02 -0.14648347399E+01 -0.38569388506E+01  0.29241397899E+02  0.00000000000E+00 0.  1.
</event>
<event>
 5    1  0.1751027E-003  0.9118800E+02  0.7818608E-02  0.1130116E+00
         25   -1    0    0    0    0  0.00000000000E+00  0.00000000000E+00  0.99999998245E-14  0.12500000000E+03  0.12500000000E+03 0.  0.
        -13    1    3    3    0    0  0.17599241313E+02  0.37017878866E+02  0.30507719766E+02  0.51095878306E+02  0.10566000000E+00 0.  1.
         23    2    1    0    0    0 -0.93048701369E+01  0.27761818473E+02 -0.35855555346E+01  0.95501603744E+02  0.90831717675E+02 0.  0.
         13    1    3    3    0    0 -0.26904111449E+02 -0.92560603923E+01 -0.34093275301E+02  0.44405725438E+02  0.10566000000E+00 0. -1.
         22    1    1    0    0    0  0.93048701369E+01 -0.27761818473E+02  0.35855555346E+01  0.29498396256E+02  0.00000000000E+00 0. -1.
</event>
<event>
 5    1  0.1751027E-003  0.9118800E+02  0.7818608E-02  0.1130116E+00
         25   -1    0    0    0    0  0.00000000000E+00  0.00000000000E+00  0.99999998245E-14  0.12500000000E+03  0.12500000000E+03 0.  0.
        -13    1    3    3    0    0  0.40842713397E+02 -0.38260324821E+01  0.43661386509E+02  0.59909044377E+02  0.10566000000E+00 0. -1.
         23    2    1    0    0    0  0.17993992424E+02  0.10942269843E+02  0.18416120994E+02  0.97023750338E+02  0.92902839486E+02 0.  0.
         13    1    3    3    0    0 -0.22848720972E+02  0.14768302325E+02 -0.25245265516E+02  0.37114705962E+02  0.10566000000E+00 0.  1.
         22    1    1    0    0    0 -0.17993992424E+02 -0.10942269843E+02 -0.18416120994E+02  0.27976249662E+02  0.00000000000E+00 0. -1.
</event>
<event>
 5    1  0.1751027E-003  0.9118800E+02  0.7818608E-02  0.1130116E+00
         25   -1    0    0    0    0  0.00000000000E+00  0.00000000000E+00  0.99999998245E-14  0.12500000000E+03  0.12500000000E+03 0.  0.
        -13    1    3    3    0    0  0.46720064056E+02  0.25530602226E+02  0.28934516367E+02  0.60595325206E+02  0.10566000000E+00 0.  1.
         23    2    1    0    0    0  0.13943795821E+02  0.16625603923E+02  0.19451552224E+02  0.95858911626E+02  0.91322110721E+02 0.  0.
         13    1    3    3    0    0 -0.32776268235E+02 -0.89049983036E+01 -0.94829641431E+01  0.35263586420E+02  0.10566000000E+00 0. -1.
         22    1    1    0    0    0 -0.13943795821E+02 -0.16625603923E+02 -0.19451552224E+02  0.29141088374E+02  0.00000000000E+00 0.  1.
</event>
<event>
 5    1  0.1751027E-003  0.9118800E+02  0.7818608E-02  0.1130116E+00
         25   -1    0    0    0    0  0.00000000000E+00  0.00000000000E+00  0.99999998245E-14  0.12500000000E+03  0.12500000000E+03 0.  0.
        -13    1    3    3    0    0  0.24285583289E+02  0.11618214023E+02 -0.25295868769E+02  0.36941366970E+02  0.10566000000E+00 0.  1.
         23    2    1    0    0    0  0.65209552676E+01 -0.55816671738E+01  0.28010628882E+02  0.95703699954E+02  0.91109412184E+02 0.  0.
         13    1    3    3    0    0 -0.17764628022E+02 -0.17199881197E+02  0.53306497650E+02  0.58762332984E+02  0.10566000000E+00 0. -1.
         22    1    1    0    0    0 -0.65209552676E+01  0.55816671738E+01 -0.28010628882E+02  0.29296300046E+02  0.00000000000E+00 0. -1.
</event>
<event>
 5    1  0.1751027E-003  0.9118800E+02  0.7818608E-02  0.1130116E+00
         25   -1    0    0    0    0  0.00000000000E+00  0.00000000000E+00  0.99999998245E-14  0.12500000000E+03  0.12500000000E+03 0.  0.
        -13    1    3    3    0    0  0.83813267462E+01 -0.34692145793E+02 -0.40282638179E+02  0.53819083237E+02  0.10566000000E+00 0.  1.
         23    2    1    0    0    0 -0.18858793318E+01  0.26794666121E+01 -0.31203684398E+02  0.93624754946E+02  0.88211046567E+02 0.  0.
         13    1    3    3    0    0 -0.10267206078E+02  0.37371612405E+02  0.90789537806E+01  0.39805671709E+02  0.10566000000E+00 0. -1.
         22    1    1    0    0    0  0.18858793318E+01 -0.26794666121E+01  0.31203684398E+02  0.31375245054E+02  0.00000000000E+00 0.  1.
</event>
<event>
 5    1  0.1751027E-003  0.9118800E+02  0.7818608E-02  0.1130116E+00
         25   -1    0    0    0    0  0.00000000000E+00  0.00000000000E+00  0.99999998245E-14  0.12500000000E+03  0.12500000000E+03 0.  0.
        -13    1    3    3    0    0  0.50333193158E+02 -0.29728907847E+02  0.18422985014E+00  0.58457535014E+02  0.10566000000E+00 0. -1.
         23    2    1    0    0    0  0.15775183592E+02 -0.21411810267E+02  0.11872378464E+02  0.95874832075E+02  0.91343899735E+02 0.  0.
         13    1    3    3    0    0 -0.34558009566E+02  0.83170975808E+01  0.11688148614E+02  0.37417297061E+02  0.10566000000E+00 0.  1.
         22    1    1    0    0    0 -0.15775183592E+02  0.21411810267E+02 -0.11872378464E+02  0.29125167925E+02  0.00000000000E+00 0. -1.
</event>
<event>
 5    1  0.1751027E-003  0.9118800E+02  0.7818608E-02  0.1130116E+00
         25   -1    0    0    0    0  0.00000000000E+00  0.00000000000E+00  0.99999998245E-14  0.12500000000E+03  0.12500000000E+03 0.  0.
        -13    1    3    3    0    0 -0.18423259113E+02 -0.69973748917E+01 -0.54686005137E+02  0.58128736900E+02  0.10566000000E+00 0. -1.
         23    2    1    0    0    0  0.79334787113E+01 -0.81440010170E+01 -0.22869535768E+02  0.99460217243E+02  0.96125201226E+02 0.  0.
         13    1    3    3    0    0  0.26356737824E+02 -0.11466261253E+01  0.31816469369E+02  0.41331480343E+02  0.10566000000E+00 0.  1.
         22    1    1    0    0    0 -0.79334787113E+01  0.81440010170E+01  0.22869535768E+02  0.25539782757E+02  0.00000000000E+00 0. -1.
</event>
<event>
 5    1  0.1751027E-003  0.9118800E+02  0.7818608E-02  0.1130116E+00
         25   -1    0    0    0    0  0.00000000000E+00  0.00000000000E+00  0.99999998245E-14  0.12500000000E+03  0.12500000000E+03 0.  0.
        -13    1    3    3    0    0 -0.12182296434E+02 -0.35036145002E+02 -0.97333853376E+01  0.38349573102E+02  0.10566000000E+00 0.  1.
         23    2    1    0    0    0  0.31481088134E+01  0.18281261433E+02 -0.23059277064E+02  0.95405315217E+02  0.90699111375E+02 0.  0.
         13    1    3    3    0    0  0.15330405247E+02  0.53317406434E+02 -0.13325891727E+02  0.57055742115E+02  0.10566000000E+00 0. -1.
         22    1    1    0    0    0 -0.31481088134E+01 -0.18281261433E+02  0.23059277064E+02  0.29594684783E+02  0.00000000000E+00 0. -1.
</event>
<event>
 5    1  0.1751027E-003  0.9118800E+02  0.7818608E-02  0.1130116E+00
         25   -1    0    0    0    0  0.00000000000E+00  0.00000000000E+00  0.99999998245E-14  0.12500000000E+03  0.12500000000E+03 0.  0.
        -13    1    3    3    0    0 -0.46954841081E+02 -0.21186329678E+02  0.35597461507E+01  0.51636233624E+02  0.10566000000E+00 0. -1.
         23    2    1    0    0    0 -0.20189828603E+02 -0.24295172325E+01 -0.23396100349E+02  0.94001463833E+02  0.88743258663E+02 0.  0.
         13    1    3    3    0    0  0.26765012479E+02  0.18756812445E+02 -0.26955846499E+02  0.42365230209E+02  0.10566000000E+00 0.  1.
         22    1    1    0    0    0  0.20189828603E+02  0.24295172325E+01  0.23396100349E+02  0.30998536167E+02  0.00000000000E+00 0.  1.
</event>
<event>
 5    1  0.1751027E-003  0.9118800E+02  0.7818608E-02  0.1130116E+00
         25   -1    0    0    0    0  0.00000000000E+00  0.00000000000E+00  0.99999998245E-14  0.12500000000E+03  0.12500000000E+03 0.  0.
        -13    1    3    3    0    0  0.36383109326E+02  0.15766502598E+02 -0.52871563347E+00  0.39656070817E+02  0.10566000000E+00 0. -1.
         23    2    1    0    0    0 -0.56773748110E+01 -0.15190495839E+02  0.22935978341E+02  0.96910093431E+02  0.92749788990E+02 0.  0.
         13    1    3    3    0    0 -0.42060484137E+02 -0.30956998437E+02  0.23464693975E+02  0.57254022614E+02  0.10566000000E+00 0.  1.
         22    1    1    0    0    0  0.56773748110E+01  0.15190495839E+02 -0.22935978341E+02  0.28089906569E+02  0.00000000000E+00 0.  1.
</event>
<event>
 5    1  0.1751027E-003  0.9118800E+02  0.7818608E-02  0.1130116E+00
         25   -1    0    0    0    0  0.00000000000E+00  0.00000000000E+00  0.99999998245E-14  0.12500000000E+03  0.12500000000E+03 0.  0.
        -13    1    3    3    0    0 -0.31250568906E+02  0.11099227615E+02 -0.17495349415E+01  0.33209380409E+02  0.10566000000E+00 0.  1.
         23    2    1    0    0    0  0.25308003963E+02 -0.14978277989E+02 -0.24027480500E+01  0.95493779057E+02  0.90820948929E+02 0.  0.
         13    1    3    3    0    0  0.56558572870E+02 -0.26077505603E+02 -0.65321310847E+00  0.62284398648E+02  0.10566000000E+00 0. -1.
         22    1    1    0    0    0 -0.25308003963E+02  0.14978277989E+02  0.24027480500E+01  0.29506220943E+02  0.00000000000E+00 0. -1.
</event>
<event>
 5    1  0.1751027E-003  0.9118800E+02  0.7818608E-02  0.1130116E+00
         25   -1    0    0    0    0  0.00000000000E+00  0.00000000000E+00  0.99999998245E-14  0.12500000000E+03  0.12500000000E+03 0.  0.
        -13    1    3    3    0    0  0.46494162906E+01  0.29340511623E+02  0.41269361094E+02  0.50849326675E+02  0.10566000000E+00 0. -1.
         23    2    1    0    0    0  0.14610344821E+02 -0.10572964634E+02  0.22764267518E+02  0.95957589071E+02  0.91457078828E+02 0.  0.
         13    1    3    3    0    0  0.99609285309E+01 -0.39913476257E+02 -0.18505093576E+02  0.45108262396E+02  0.10566000000E+00 0.  1.
         22    1    1    0    0    0 -0.14610344821E+02  0.10572964634E+02 -0.22764267518E+02  0.29042410929E+02  0.00000000000E+00 0. -1.
</event>
<event>
 5    1  0.1751027E-003  0.9118800E+02  0.7818608E-02  0.1130116E+00
         25   -1    0    0    0    0  0.00000000000E+00  0.00000000000E+00  0.99999998245E-14  0.12500000000E+03  0.12500000000E+03 0.  0.
        -13    1    3    3    0    0 -0.53731606879E+02  0.17915492204E+02 -0.26198426745E+02  0.62405281561E+02  0.10566000000E+00 0.  1.
         23    2    1    0    0    0 -0.28522253072E+02  0.70144549241E+01 -0.14146879634E+02  0.92398532217E+02  0.86455960201E+02 0.  0.
         13    1    3    3    0    0  0.25209353807E+02 -0.10901037280E+02  0.12051547111E+02  0.29993250657E+02  0.10566000000E+00 0. -1.
         22    1    1    0    0    0  0.28522253072E+02 -0.70144549241E+01  0.14146879634E+02  0.32601467783E+02  0.00000000000E+00 0.  1.
</event>
<event>
 5    1  0.1751027E-003  0.9118800E+02  0.7818608E-02  0.1130116E+00
         25   -1    0    0    0    0  0.00000000000E+00  0.00000000000E+00  0.99999998245E-14  0.12500000000E+03  0.12500000000E+03 0.  0.
        -13    1    3    3    0    0 -0.33028741553E+02 -0.19670186345E+02 -0.11668180586E+02  0.40174265416E+02  0.10566000000E+00 0. -1.
         23    2    1    0    0    0 -0.11682127481E+02  0.87508675325E+01  0.27991449290E+02  0.93431486915E+02  0.87936748454E+02 0.  0.
         13    1    3    3    0    0  0.21346614073E+02  0.28421053878E+02  0.39659629876E+02  0.53257221499E+02  0.10566000000E+00 0.  1.
         22    1    1    0    0    0  0.11682127481E+02 -0.87508675325E+01 -0.27991449290E+02  0.31568513085E+02  0.00000000000E+00 0.  1.
</event>
<event>
 5    1  0.1751027E-003  0.9118800E+02  0.7818608E-02  0.1130116E+00
         25   -1    0    0    0    0  0.00000000000E+00  0.00000000000E+00  0.99999998245E-14  0.12500000000E+03  0.12500000000E+03 0.  0.
        -13    1    3    3    0    0 -0.12577792346E+02 -0.43781534831E+02 -0.40799910170E+02  0.61152820756E+02  0.10566000000E+00 0. -1.
         23    2    1    0    0    0 -0.14443040730E+02 -0.19060198411E+02 -0.15951334620E+02  0.96253910437E+02  0.91861186631E+02 0.  0.
         13    1    3    3    0    0 -0.18652483838E+01  0.24721336420E+02  0.24848575550E+02  0.35101089682E+02  0.10566000000E+00 0.  1.
         22    1    1    0    0    0  0.14443040730E+02  0.19060198411E+02  0.15951334620E+02  0.28746089563E+02  0.00000000000E+00 0. -1.
</event>
<event>
 5    1  0.1751027E-003  0.9118800E+02  0.7818608E-02  0.1130116E+00
         25   -1    0    0    0    0  0.00000000000E+00  0.00000000000E+00  0.99999998245E-14  0.12500000000E+03  0.12500000000E+03 0.  0.
        -13    1    3    3    0    0  0.14666257056E+02  0.28890684993E+02 -0.34588352787E+02  0.47393418192E+02  0.10566000000E+00 0. -1.
         23    2    1    0    0    0  0.23122422816E+02  0.13356495796E+02  0.10868533181E+02  0.96170025488E+02  0.91746969280E+02 0.  0.
         13    1    3    3    0    0  0.84561657599E+01 -0.15534189197E+02  0.45456885968E+02  0.48776607296E+02  0.10566000000E+00 0.  1.
         22    1    1    0    0    0 -0.23122422816E+02 -0.13356495796E+02 -0.10868533181E+02  0.28829974512E+02  0.00000000000E+00 0.  1.
</event>
<event>
 5    1  0.1751027E-003  0.9118800E+02  0.7818608E-02  0.1130116E+00
         25   -1    0    0    0    0  0.00000000000E+00  0.00000000000E+00  0.99999998245E-14  0.12500000000E+03  0.12500000000E+03 0.  0.
        -13    1    3    3    0    0 -0.20050133494E+02 -0.12490638461E+02  0.36631868610E+02  0.43588173444E+02  0.10566000000E+00 0. -1.
         23    2    1    0    0    0 -0.17518539092E+02 -0.15043062355E+02 -0.16359295411E+02  0.96701245906E+02  0.92467894301E+02 0.  0.
         13    1    3    3    0    0  0.25315944020E+01 -0.25524238945E+01 -0.52991164021E+02  0.53113072462E+02  0.10566000000E+00 0.  1.
         22    1    1    0    0    0  0.17518539092E+02  0.15043062355E+02  0.16359295411E+02  0.28298754094E+02  0.00000000000E+00 0.  1.
</event>
<event>
 5    1  0.1751027E-003  0.9118800E+02  0.7818608E-02  0.1130116E+00
         25   -1    0    0    0    0  0.00000000000E+00  0.00000000000E+00  0.99999998245E-14  0.12500000000E+03  0.12500000000E+03 0.  0.
        -13    1    3    3    0    0  0.48970180696E+01 -0.37119169674E+02 -0.16217307434E+02  0.40802276502E+02  0.10566000000E+00 0.  1.
         23    2    1    0    0    0  0.24424874868E+02  0.13801551331E+02 -0.44402591818E+01  0.96596246144E+02  0.92325844356E+02 0.  0.
         13    1    3    3    0    0  0.19527856799E+02  0.50920721006E+02  0.11777048252E+02  0.55793969642E+02  0.10566000000E+00 0. -1.
         22    1    1    0    0    0 -0.24424874868E+02 -0.13801551331E+02  0.44402591818E+01  0.28403753856E+02  0.00000000000E+00 0. -1.
</event>
<event>
 5    1  0.1751027E-003  0.9118800E+02  0.7818608E-02  0.1130116E+00
         25   -1    0    0    0    0  0.00000000000E+00  0.00000000000E+00  0.99999998245E-14  0.12500000000E+03  0.12500000000E+03 0.  0.
        -13    1    3    3    0    0 -0.35482812276E+02  0.31416105705E+01 -0.16856923813E+02  0.39408967615E+02  0.10566000000E+00 0.  1.
         23    2    1    0    0    0  0.20252283437E+02 -0.72108073069E+01 -0.19243351441E+02  0.96147663854E+02  0.91716497771E+02 0.  0.
         13    1    3    3    0    0  0.55735095713E+02 -0.10352417877E+02 -0.23864276272E+01  0.56738696239E+02  0.10566000000E+00 0. -1.
         22    1    1    0    0    0 -0.20252283437E+02  0.72108073069E+01  0.19243351441E+02  0.28852336146E+02  0.00000000000E+00 0. -1.
</event>
<event>
 5    1  0.1751027E-003  0.9118800E+02  0.7818608E-02  0.1130116E+00
         25   -1    0    0    0    0  0.00000000000E+00  0.00000000000E+00  0.99999998245E-14  0.12500000000E+03  0.12500000000E+03 0.  0.
        -13    1    3    3    0    0 -0.19912474908E+02 -0.30041594455E+02  0.23231786026E+02  0.42880427940E+02  0.10566000000E+00 0.  1.
         23    2    1    0    0    0  0.23998303226E+02 -0.42383685355E+01  0.19208561595E+02  0.93970156879E+02  0.88699150051E+02 0.  0.
         13    1    3    3    0    0  0.43910778134E+02  0.25803225920E+02 -0.40232244307E+01  0.51089728939E+02  0.10566000000E+00 0. -1.
         22    1    1    0    0    0 -0.23998303226E+02  0.42383685355E+01 -0.19208561595E+02  0.31029843121E+02  0.00000000000E+00 0. -1.
</event>
<event>
 5    1  0.1751027E-003  0.9118800E+02  0.7818608E-02  0.1130116E+00
         25   -1    0    0    0    0  0.00000000000E+00  0.00000000000E+00  0.99999998245E-14  0.12500000000E+03  0.12500000000E+03 0.  0.
        -13    1    3    3    0    0  0.35997794666E+02  0.80642249462E+01 -0.27992616875E+01  0.36996215683E+02  0.10566000000E+00 0. -1.
         23    2    1    0    0    0 -0.10745261391E+02 -0.21189270765E+02  0.17217245779E+02  0.95659253757E+02  0.91048412612E+02 0.  0.
         13    1    3    3    0    0 -0.46743056057E+02 -0.29253495711E+02  0.20016507466E+02  0.58663038074E+02  0.10566000000E+00 0.  1.
         22    1    1    0    0    0  0.10745261391E+02  0.21189270765E+02 -0.17217245779E+02  0.29340746243E+02  0.00000000000E+00 0.  1.
</event>
<event>
 5    1  0.1751027E-003  0.9118800E+02  0.7818608E-02  0.1130116E+00
         25   -1    0    0    0    0  0.00000000000E+00  0.00000000000E+00  0.99999998245E-14  0.12500000000E+03  0.12500000000E+03 0.  0.
        -13    1    3    3    0    0 -0.18095883456E+02  0.11313962475E+02  0.31580374719E+02  0.38115587052E+02  0.10566000000E+00 0.  1.
         23    2    1    0    0    0 -0.12047609629E+02 -0.24325307669E+02 -0.12493366287E+02  0.95117736161E+02  0.90301904964E+02 0.  0.
         13    1    3    3    0    0  0.60482738269E+01 -0.35639270144E+02 -0.44073741006E+02  0.57002149108E+02  0.10566000000E+00 0. -1.
         22    1    1    0    0    0  0.12047609629E+02  0.24325307669E+02  0.12493366287E+02  0.29882263839E+02  0.00000000000E+00 0. -1.
</event>
<event>
 5    1  0.1751027E-003  0.9118800E+02  0.7818608E-02  0.1130116E+00
         25   -1    0    0    0    0  0.00000000000E+00  0.00000000000E+00  0.99999998245E-14  0.12500000000E+03  0.12500000000E+03 0.  0.
        -13    1    3    3    0    0  0.33748988970E+02  0.16133132616E+02 -0.44654366820E+01  0.37672583045E+02  0.10566000000E+00 0.  1.
         23    2    1    0    0    0 -0.21487419437E+02  0.14683387312E+02  0.13377958904E+02  0.95737723235E+02  0.91156079385E+02 0.  0.
         13    1    3    3    0    0 -0.55236408407E+02 -0.14497453035E+01  0.17843395586E+02  0.58065140190E+02  0.10566000000E+00 0. -1.
         22    1    1    0    0    0  0.21487419437E+02 -0.14683387312E+02 -0.13377958904E+02  0.29262276765E+02  0.00000000000E+00 0. -1.
</event>
<event>
 5    1  0.1751027E-003  0.9118800E+02  0.7818608E-02  0.1130116E+00
         25   -1    0    0    0    0  0.00000000000E+00  0.00000000000E+00  0.99999998245E-14  0.12500000000E+03  0.12500000000E+03 0.  0.
        -13    1    3    3    0    0 -0.50449841540E+01 -0.42001360517E+02  0.26768951584E+02  0.50061503007E+02  0.10566000000E+00 0. -1.
         23    2    1    0    0    0 -0.22644436909E+02 -0.16184497373E+02 -0.72356274521E+01  0.96241300746E+02  0.91844026407E+02 0.  0.
         13    1    3    3    0    0 -0.17599452755E+02  0.25816863143E+02 -0.34004579036E+02  0.46179797739E+02  0.10566000000E+00 0.  1.
         22    1    1    0    0    0  0.22644436909E+02  0.16184497373E+02  0.72356274521E+01  0.28758699254E+02  0.00000000000E+00 0. -1.
</event>
<event>
 5    1  0.1751027E-003  0.9118800E+02  0.7818608E-02  0.1130116E+00
         25   -1    0    0    0    0  0.00000000000E+00  0.00000000000E+00  0.99999998245E-14  0.12500000000E+03  0.12500000000E+03 0.  0.
        -13    1    3    3    0    0  0.51938643541E+02  0.99814242215E+01  0.88702007182E+01  0.53627820645E+02  0.10566000000E+00 0. -1.
         23    2    1    0    0    0  0.12166624971E+02  0.11276450721E+01  0.24781392535E+02  0.97370020583E+02  0.93367580807E+02 0.  0.
         13    1    3    3    0    0 -0.39772018570E+02 -0.88537791494E+01  0.15911191817E+02  0.43742199938E+02  0.10566000000E+00 0.  1.
         22    1    1    0    0    0 -0.12166624971E+02 -0.11276450721E+01 -0.24781392535E+02  0.27629979417E+02  0.00000000000E+00 0.  1.
</event>
<event>
 5    1  0.1751027E-003  0.9118800E+02  0.7818608E-02  0.1130116E+00
         25   -1    0    0    0    0  0.00000000000E+00  0.00000000000E+00  0.99999998245E-14  0.12500000000E+03  0.12500000000E+03 0.  0.
        -13    1    3    3    0    0 -0.43570985926E+02 -0.28190868785E+02  0.22496733301E+02  0.56562090402E+02  0.10566000000E+00 0. -1.
         23    2    1    0    0    0 -0.63874790590E+01 -0.17146936055E+02  0.23317816305E+02  0.95359860627E+02  0.90636444969E+02 0.  0.
         13    1    3    3    0    0  0.37183506867E+02  0.11043932729E+02  0.82108300428E+00  0.38797770225E+02  0.10566000000E+00 0.  1.
         22    1    1    0    0    0  0.63874790590E+01  0.17146936055E+02 -0.23317816305E+02  0.29640139373E+02  0.00000000000E+00 0. -1.
</event>
<event>
 5    1  0.1751027E-003  0.9118800E+02  0.7818608E-02  0.1130116E+00
         25   -1    0    0    0    0  0.00000000000E+00  0.00000000000E+00  0.99999998245E-14  0.12500000000E+03  0.12500000000E+03 0.  0.
        -13    1    3    3    0    0  0.69513759460E+01 -0.37245154128E+02  0.29580766817E+01  0.38003743437E+02  0.10566000000E+00 0.  1.
         23    2    1    0    0    0 -0.36378960160E+01  0.22518426449E+02  0.11765592416E+02  0.99334011181E+02  0.95960944114E+02 0.  0.
         13    1    3    3    0    0 -0.10589271962E+02  0.59763580577E+02  0.88075157347E+01  0.61330267744E+02  0.10566000000E+00 0. -1.
         22    1    1    0    0    0  0.36378960160E+01 -0.22518426449E+02 -0.11765592416E+02  0.25665988819E+02  0.00000000000E+00 0. -1.
</event>
<event>
 5    1  0.1751027E-003  0.9118800E+02  0.7818608E-02  0.1130116E+00
         25   -1    0    0    0    0  0.00000000000E+00  0.00000000000E+00  0.99999998245E-14  0.12500000000E+03  0.12500000000E+03 0.  0.
        -13    1    3    3    0    0 -0.56500537884E+02 -0.62101432710E+01 -0.24156554939E+02  0.61761047361E+02  0.10566000000E+00 0.  1.
         23    2    1    0    0    0 -0.23370795555E+02 -0.90319510231E+01 -0.12540071816E+02  0.96981726939E+02  0.92846280134E+02 0.  0.
         13    1    3    3    0    0  0.33129742328E+02 -0.28218077521E+01  0.11616483123E+02  0.35220679578E+02  0.10566000000E+00 0. -1.
         22    1    1    0    0    0  0.23370795555E+02  0.90319510231E+01  0.12540071816E+02  0.28018273061E+02  0.00000000000E+00 0.  1.
</event>
<event>
 5    1  0.1751027E-003  0.9118800E+02  0.7818608E-02  0.1130116E+00
         25   -1    0    0    0    0  0.00000000000E+00  0.00000000000E+00  0.99999998245E-14  0.12500000000E+03  0.12500000000E+03 0.  0.
        -13    1    3    3    0    0  0.25932113615E+02  0.33006386882E+02 -0.41797267885E+02  0.59236127981E+02  0.10566000000E+00 0.  1.
         23    2    1    0    0    0 -0.76907806159E+00  0.21768857609E+02 -0.18868247485E+02  0.96181856309E+02  0.91763086681E+02 0.  0.
         13    1    3    3    0    0 -0.26701191677E+02 -0.11237529274E+02  0.22929020400E+02  0.36945728328E+02  0.10566000000E+00 0. -1.
         22    1    1    0    0    0  0.76907806159E+00 -0.21768857609E+02  0.18868247485E+02  0.28818143691E+02  0.00000000000E+00 0.  1.
</event>
<event>
 5    1  0.1751027E-003  0.9118800E+02  0.7818608E-02  0.1130116E+00
         25   -1    0    0    0    0  0.00000000000E+00  0.00000000000E+00  0.99999998245E-14  0.12500000000E+03  0.12500000000E+03 0.  0.
        -13    1    3    3    0    0 -0.25363109439E+02  0.27813197949E+02  0.54120629276E+01  0.38028448427E+02  0.10566000000E+00 0.  1.
         23    2    1    0    0    0  0.20432678699E+02  0.77329754420E+01 -0.21100420806E+02  0.94626968769E+02  0.89619987682E+02 0.  0.
         13    1    3    3    0    0  0.45795788138E+02 -0.20080222507E+02 -0.26512483734E+02  0.56598520342E+02  0.10566000000E+00 0. -1.
         22    1    1    0    0    0 -0.20432678699E+02 -0.77329754420E+01  0.21100420806E+02  0.30373031231E+02  0.00000000000E+00 0. -1.
</event>
<event>
 5    1  0.1751027E-003  0.9118800E+02  0.7818608E-02  0.1130116E+00
         25   -1    0    0    0    0  0.00000000000E+00  0.00000000000E+00  0.99999998245E-14  0.12500000000E+03  0.12500000000E+03 0.  0.
        -13    1    3    3    0    0 -0.25818552933E+02 -0.37954723150E+02  0.42312572439E+01  0.46098518272E+02  0.10566000000E+00 0. -1.
         23    2    1    0    0    0  0.14170625182E+02 -0.20160710823E+02 -0.17313518555E+02  0.94883247126E+02  0.89976729110E+02 0.  0.
         13    1    3    3    0    0  0.39989178115E+02  0.17794012328E+02 -0.21544775799E+02  0.48784728854E+02  0.10566000000E+00 0.  1.
         22    1    1    0    0    0 -0.14170625182E+02  0.20160710823E+02  0.17313518555E+02  0.30116752874E+02  0.00000000000E+00 0.  1.
</event>
<event>
 5    1  0.1751027E-003  0.9118800E+02  0.7818608E-02  0.1130116E+00
         25   -1    0    0    0    0  0.00000000000E+00  0.00000000000E+00  0.99999998245E-14  0.12500000000E+03  0.12500000000E+03 0.  0.
        -13    1    3    3    0    0 -0.43729162194E+01  0.19176957594E+01 -0.52131459455E+02  0.52349786840E+02  0.10566000000E+00 0.  1.
         23    2    1    0    0    0 -0.18810754095E+02  0.17755108681E+02 -0.15343475406E+02  0.94924917433E+02  0.90034600894E+02 0.  0.
         13    1    3    3    0    0 -0.14437837876E+02  0.15837412922E+02  0.36787984049E+02  0.42575130593E+02  0.10566000000E+00 0. -1.
         22    1    1    0    0    0  0.18810754095E+02 -0.17755108681E+02  0.15343475406E+02  0.30075082567E+02  0.00000000000E+00 0.  1.
</event>
<event>
 5    1  0.1751027E-003  0.9118800E+02  0.7818608E-02  0.1130116E+00
         25   -1    0    0    0    0  0.00000000000E+00  0.00000000000E+00  0.99999998245E-14  0.12500000000E+03  0.12500000000E+03 0.  0.
        -13    1    3    3    0    0 -0.29312999266E+02  0.12243685936E+02  0.38382192704E+01  0.31998482190E+02  0.10566000000E+00 0.  1.
         23    2    1    0    0    0  0.23192431481E+02 -0.18978077980E+02  0.10029793088E+02  0.93398527389E+02  0.87889884783E+02 0.  0.
         13    1    3    3    0    0  0.52505430747E+02 -0.31221763916E+02  0.61915738172E+01  0.61400045198E+02  0.10566000000E+00 0. -1.
         22    1    1    0    0    0 -0.23192431481E+02  0.18978077980E+02 -0.10029793088E+02  0.31601472611E+02  0.00000000000E+00 0. -1.
</event>
<event>
 5    1  0.1751027E-003  0.9118800E+02  0.7818608E-02  0.1130116E+00
         25   -1    0    0    0    0  0.00000000000E+00  0.00000000000E+00  0.99999998245E-14  0.12500000000E+03  0.12500000000E+03 0.  0.
        -13    1    3    3    0    0 -0.49728523124E+02  0.12933311727E+02 -0.68315714379E+01  0.51835104868E+02  0.10566000000E+00 0. -1.
         23    2    1    0    0    0 -0.15326071199E+02 -0.78102844980E+01 -0.23958260196E+02  0.95506149218E+02  0.90837972811E+02 0.  0.
         13    1    3    3    0    0  0.34402451924E+02 -0.20743596225E+02 -0.17126688758E+02  0.43671044350E+02  0.10566000000E+00 0.  1.
         22    1    1    0    0    0  0.15326071199E+02  0.78102844980E+01  0.23958260196E+02  0.29493850782E+02  0.00000000000E+00 0. -1.
</event>
<event>
 5    1  0.1751027E-003  0.9118800E+02  0.7818608E-02  0.1130116E+00
         25   -1    0    0    0    0  0.00000000000E+00  0.00000000000E+00  0.99999998245E-14  0.12500000000E+03  0.12500000000E+03 0.  0.
        -13    1    3    3    0    0  0.23877954510E+02 -0.57063876168E+02 -0.19068611288E+01  0.61887720577E+02  0.10566000000E+00 0. -1.
         23    2    1    0    0    0  0.16006106073E+02 -0.22911138326E+02  0.79682083431E+00  0.97040196452E+02  0.92924964961E+02 0.  0.
         13    1    3    3    0    0 -0.78718484367E+01  0.34152737842E+02  0.27036819632E+01  0.35152475875E+02  0.10566000000E+00 0.  1.
         22    1    1    0    0    0 -0.16006106073E+02  0.22911138326E+02 -0.79682083431E+00  0.27959803548E+02  0.00000000000E+00 0. -1.
</event>
<event>
 5    1  0.1751027E-003  0.9118800E+02  0.7818608E-02  0.1130116E+00
         25   -1    0    0    0    0  0.00000000000E+00  0.00000000000E+00  0.99999998245E-14  0.12500000000E+03  0.12500000000E+03 0.  0.
        -13    1    3    3    0    0  0.29430561294E+01 -0.36074373655E+02 -0.14208111941E+02  0.38883204896E+02  0.10566000000E+00 0.  1.
         23    2    1    0    0    0 -0.24181351088E+02  0.14014760495E+02 -0.56713248410E+01  0.96481318796E+02  0.92170112829E+02 0.  0.
         13    1    3    3    0    0 -0.27124407217E+02  0.50089134150E+02  0.85367871003E+01  0.57598113900E+02  0.10566000000E+00 0. -1.
         22    1    1    0    0    0  0.24181351088E+02 -0.14014760495E+02  0.56713248410E+01  0.28518681204E+02  0.00000000000E+00 0. -1.
</event>
<event>
 5    1  0.1751027E-003  0.9118800E+02  0.7818608E-02  0.1130116E+00
         25   -1    0    0    0    0  0.00000000000E+00  0.00000000000E+00  0.99999998245E-14  0.12500000000E+03  0.12500000000E+03 0.  0.
        -13    1    3    3    0    0 -0.98689315847E+01  0.17515706698E+02  0.47760082161E+02  0.51819228128E+02  0.10566000000E+00 0.  1.
         23    2    1    0    0    0 -0.15334471970E+01  0.27736036206E+02  0.47342974682E+01  0.96821058621E+02  0.92629717992E+02 0.  0.
         13    1    3    3    0    0  0.83354843877E+01  0.10220329507E+02 -0.43025784693E+02  0.45001830493E+02  0.10566000000E+00 0. -1.
         22    1    1    0    0    0  0.15334471970E+01 -0.27736036206E+02 -0.47342974682E+01  0.28178941379E+02  0.00000000000E+00 0.  1.
</event>
<event>
 5    1  0.1751027E-003  0.9118800E+02  0.7818608E-02  0.1130116E+00
         25   -1    0    0    0    0  0.00000000000E+00  0.00000000000E+00  0.99999998245E-14  0.12500000000E+03  0.12500000000E+03 0.  0.
        -13    1    3    3    0    0  0.28516728537E+02  0.29295529897E+01  0.46716469250E+02  0.54810817823E+02  0.10566000000E+00 0.  1.
         23    2    1    0    0    0  0.25228211863E+02 -0.11910358588E+02  0.86634233754E+01  0.95787430444E+02  0.91224216144E+02 0.  0.
         13    1    3    3    0    0 -0.32885166742E+01 -0.14839911577E+02 -0.38053045875E+02  0.40976612621E+02  0.10566000000E+00 0. -1.
         22    1    1    0    0    0 -0.25228211863E+02  0.11910358588E+02 -0.86634233754E+01  0.29212569556E+02  0.00000000000E+00 0.  1.
</event>
<event>
 5    1  0.1751027E-003  0.9118800E+02  0.7818608E-02  0.1130116E+00
         25   -1    0    0    0    0  0.00000000000E+00  0.00000000000E+00  0.99999998245E-14  0.12500000000E+03  0.12500000000E+03 0.  0.
        -13    1    3    3    0    0 -0.24343539774E+02 -0.30488488072E+02 -0.14259404613E+02  0.41539109495E+02  0.10566000000E+00 0. -1.
         23    2    1    0    0    0  0.37864323069E+01 -0.28124238575E+01  0.26389396794E+02  0.98192406659E+02  0.94462170549E+02 0.  0.
         13    1    3    3    0    0  0.28129972081E+02  0.27676064215E+02  0.40648801408E+02  0.56653297164E+02  0.10566000000E+00 0.  1.
         22    1    1    0    0    0 -0.37864323069E+01  0.28124238575E+01 -0.26389396794E+02  0.26807593341E+02  0.00000000000E+00 0.  1.
</event>
<event>
 5    1  0.1751027E-003  0.9118800E+02  0.7818608E-02  0.1130116E+00
         25   -1    0    0    0    0  0.00000000000E+00  0.00000000000E+00  0.99999998245E-14  0.12500000000E+03  0.12500000000E+03 0.  0.
        -13    1    3    3    0    0 -0.56055582245E+02 -0.13160662551E+02 -0.15292269741E+02  0.59575968456E+02  0.10566000000E+00 0.  1.
         23    2    1    0    0    0 -0.22824425673E+02 -0.53795883022E+00 -0.18974013655E+02  0.95314026861E+02  0.90573211907E+02 0.  0.
         13    1    3    3    0    0  0.33231156571E+02  0.12622703721E+02 -0.36817439147E+01  0.35738058405E+02  0.10566000000E+00 0. -1.
         22    1    1    0    0    0  0.22824425673E+02  0.53795883022E+00  0.18974013655E+02  0.29685973139E+02  0.00000000000E+00 0.  1.
</event>
<event>
 5    1  0.1751027E-003  0.9118800E+02  0.7818608E-02  0.1130116E+00
         25   -1    0    0    0    0  0.00000000000E+00  0.00000000000E+00  0.99999998245E-14  0.12500000000E+03  0.12500000000E+03 0.  0.
        -13    1    3    3    0    0  0.41616747205E+02 -0.31539431056E+02 -0.12393389996E+02  0.53668395159E+02  0.10566000000E+00 0.  1.
         23    2    1    0    0    0  0.12525340361E+02 -0.77666468891E+01 -0.27210841628E+02  0.94054324095E+02  0.88817684184E+02 0.  0.
         13    1    3    3    0    0 -0.29091406843E+02  0.23772784167E+02 -0.14817451632E+02  0.40385928937E+02  0.10566000000E+00 0. -1.
         22    1    1    0    0    0 -0.12525340361E+02  0.77666468891E+01  0.27210841628E+02  0.30945675905E+02  0.00000000000E+00 0.  1.
</event>
<event>
 5    1  0.1751027E-003  0.9118800E+02  0.7818608E-02  0.1130116E+00
         25   -1    0    0    0    0  0.00000000000E+00  0.00000000000E+00  0.99999998245E-14  0.12500000000E+03  0.12500000000E+03 0.  0.
        -13    1    3    3    0    0  0.36052917094E+01 -0.32768792196E+02 -0.20732438167E+02  0.38944024275E+02  0.10566000000E+00 0.  1.
         23    2    1    0    0    0  0.24637456114E+02  0.96243232989E+01  0.11453881448E+02  0.96175995369E+02  0.91755102541E+02 0.  0.
         13    1    3    3    0    0  0.21032164405E+02  0.42393115495E+02  0.32186319615E+02  0.57231971094E+02  0.10566000000E+00 0. -1.
         22    1    1    0    0    0 -0.24637456114E+02 -0.96243232989E+01 -0.11453881448E+02  0.28824004631E+02  0.00000000000E+00 0. -1.
</event>
<event>
 5    1  0.1751027E-003  0.9118800E+02  0.7818608E-02  0.1130116E+00
         25   -1    0    0    0    0  0.00000000000E+00  0.00000000000E+00  0.99999998245E-14  0.12500000000E+03  0.12500000000E+03 0.  0.
        -13    1    3    3    0    0  0.53533651415E+02 -0.18705439537E+02  0.86859504660E+01  0.57369000354E+02  0.10566000000E+00 0.  1.
         23    2    1    0    0    0  0.26645226292E+02  0.85256468967E+01  0.89119109510E+01  0.95638853974E+02  0.91020401524E+02 0.  0.
         13    1    3    3    0    0 -0.26888425123E+02  0.27231086434E+02  0.22596048497E+00  0.38269853621E+02  0.10566000000E+00 0. -1.
         22    1    1    0    0    0 -0.26645226292E+02 -0.85256468967E+01 -0.89119109510E+01  0.29361146026E+02  0.00000000000E+00 0.  1.
</event>
<event>
 5    1  0.1751027E-003  0.9118800E+02  0.7818608E-02  0.1130116E+00
         25   -1    0    0    0    0  0.00000000000E+00  0.00000000000E+00  0.99999998245E-14  0.12500000000E+03  0.12500000000E+03 0.  0.
        -13    1    3    3    0    0  0.52887179000E+02  0.25289114668E+02  0.63575204756E+01  0.58966280652E+02  0.10566000000E+00 0.  1.
         23    2    1    0    0    0  0.28128447276E+02  0.40771043071E+01 -0.92470007053E+01  0.95111217025E+02  0.90292880430E+02 0.  0.
         13    1    3    3    0    0 -0.24758731724E+02 -0.21212010361E+02 -0.15604521181E+02  0.36144936374E+02  0.10566000000E+00 0. -1.
         22    1    1    0    0    0 -0.28128447276E+02 -0.40771043071E+01  0.92470007053E+01  0.29888782975E+02  0.00000000000E+00 0.  1.
</event>
<event>
 5    1  0.1751027E-003  0.9118800E+02  0.7818608E-02  0.1130116E+00
         25   -1    0    0    0    0  0.00000000000E+00  0.00000000000E+00  0.99999998245E-14  0.12500000000E+03  0.12500000000E+03 0.  0.
        -13    1    3    3    0    0  0.17242793611E+02 -0.18094465438E+02 -0.41310601914E+02  0.48283543838E+02  0.10566000000E+00 0. -1.
         23    2    1    0    0    0  0.29614985670E+02  0.13939217776E+01 -0.29298123371E+00  0.95350780244E+02  0.90623921019E+02 0.  0.
         13    1    3    3    0    0  0.12372192059E+02  0.19488387216E+02  0.41017620680E+02  0.47067236406E+02  0.10566000000E+00 0.  1.
         22    1    1    0    0    0 -0.29614985670E+02 -0.13939217776E+01  0.29298123371E+00  0.29649219756E+02  0.00000000000E+00 0.  1.
</event>
<event>
 5    1  0.1751027E-003  0.9118800E+02  0.7818608E-02  0.1130116E+00
         25   -1    0    0    0    0  0.00000000000E+00  0.00000000000E+00  0.99999998245E-14  0.12500000000E+03  0.12500000000E+03 0.  0.
        -13    1    3    3    0    0 -0.27846635087E+02 -0.17947020428E+02 -0.50802965602E+01  0.33516431867E+02  0.10566000000E+00 0.  1.
         23    2    1    0    0    0  0.15357394051E+02  0.25632721957E+02  0.29379304134E+00  0.95117357859E+02  0.90301381301E+02 0.  0.
         13    1    3    3    0    0  0.43204029138E+02  0.43579742385E+02  0.53740896016E+01  0.61600925993E+02  0.10566000000E+00 0. -1.
         22    1    1    0    0    0 -0.15357394051E+02 -0.25632721957E+02 -0.29379304134E+00  0.29882642141E+02  0.00000000000E+00 0. -1.
</event>
<event>
 5    1  0.1751027E-003  0.9118800E+02  0.7818608E-02  0.1130116E+00
         25   -1    0    0    0    0  0.00000000000E+00  0.00000000000E+00  0.99999998245E-14  0.12500000000E+03  0.12500000000E+03 0.  0.
        -13    1    3    3    0    0 -0.77956338188E+01 -0.13111150732E+02  0.58511854094E+02  0.60467531897E+02  0.10566000000E+00 0. -1.
         23    2    1    0    0    0  0.60310138994E+01 -0.34697943441E+00  0.28313971988E+02  0.96048755931E+02  0.91581597402E+02 0.  0.
         13    1    3    3    0    0  0.13826647718E+02  0.12764171298E+02 -0.30197882106E+02  0.35581224034E+02  0.10566000000E+00 0.  1.
         22    1    1    0    0    0 -0.60310138994E+01  0.34697943441E+00 -0.28313971988E+02  0.28951244069E+02  0.00000000000E+00 0. -1.
</event>
<event>
 5    1  0.1751027E-003  0.9118800E+02  0.7818608E-02  0.1130116E+00
         25   -1    0    0    0    0  0.00000000000E+00  0.00000000000E+00  0.99999998245E-14  0.12500000000E+03  0.12500000000E+03 0.  0.
        -13    1    3    3    0    0  0.32965030378E+02  0.32504135521E+02 -0.19880863090E+02  0.50383250540E+02  0.10566000000E+00 0.  1.
         23    2    1    0    0    0 -0.61388142329E+01  0.10440262653E+02 -0.26590681508E+02  0.95781025557E+02  0.91215439424E+02 0.  0.
         13    1    3    3    0    0 -0.39103844611E+02 -0.22063872868E+02 -0.67098184182E+01  0.45397775017E+02  0.10566000000E+00 0. -1.
         22    1    1    0    0    0  0.61388142329E+01 -0.10440262653E+02  0.26590681508E+02  0.29218974443E+02  0.00000000000E+00 0.  1.
</event>
<event>
 5    1  0.1751027E-003  0.9118800E+02  0.7818608E-02  0.1130116E+00
         25   -1    0    0    0    0  0.00000000000E+00  0.00000000000E+00  0.99999998245E-14  0.12500000000E+03  0.12500000000E+03 0.  0.
        -13    1    3    3    0    0  0.46542043097E+01 -0.12213105818E+02 -0.32940765885E+02  0.35439057445E+02  0.10566000000E+00 0.  1.
         23    2    1    0    0    0  0.36448883476E+02 -0.61611208837E+01  0.75450958617E+01  0.87271907168E+02  0.78695468687E+02 0.  0.
         13    1    3    3    0    0  0.31794679167E+02  0.60519849344E+01  0.40485861747E+02  0.51832849722E+02  0.10566000000E+00 0. -1.
         22    1    1    0    0    0 -0.36448883476E+02  0.61611208837E+01 -0.75450958617E+01  0.37728092832E+02  0.00000000000E+00 0. -1.
</event>
<event>
 5    1  0.1751027E-003  0.9118800E+02  0.7818608E-02  0.1130116E+00
         25   -1    0    0    0    0  0.00000000000E+00  0.00000000000E+00  0.99999998245E-14  0.12500000000E+03  0.12500000000E+03 0.  0.
        -13    1    3    3    0    0 -0.15473637294E+02 -0.10002796513E+02  0.43034840486E+02  0.46813438763E+02  0.10566000000E+00 0.  1.
         23    2    1    0    0    0  0.24006821211E+02  0.17849468437E+01  0.15610869676E+02  0.96308315631E+02  0.91935188627E+02 0.  0.
         13    1    3    3    0    0  0.39480458504E+02  0.11787743357E+02 -0.27423970810E+02  0.49494876868E+02  0.10566000000E+00 0. -1.
         22    1    1    0    0    0 -0.24006821211E+02 -0.17849468437E+01 -0.15610869676E+02  0.28691684369E+02  0.00000000000E+00 0.  1.
</event>
<event>
 5    1  0.1751027E-003  0.9118800E+02  0.7818608E-02  0.1130116E+00
         25   -1    0    0    0    0  0.00000000000E+00  0.00000000000E+00  0.99999998245E-14  0.12500000000E+03  0.12500000000E+03 0.  0.
        -13    1    3    3    0    0  0.18658439401E+02  0.20414182405E+02  0.46214014666E+02  0.53857427712E+02  0.10566000000E+00 0.  1.
         23    2    1    0    0    0  0.21966907405E+02 -0.93999707082E+01  0.17493449006E+02  0.95387076666E+02  0.90673971825E+02 0.  0.
         13    1    3    3    0    0  0.33084680044E+01 -0.29814153113E+02 -0.28720565660E+02  0.41529648955E+02  0.10566000000E+00 0. -1.
         22    1    1    0    0    0 -0.21966907405E+02  0.93999707082E+01 -0.17493449006E+02  0.29612923334E+02  0.00000000000E+00 0.  1.
</event>
<event>
 5    1  0.1751027E-003  0.9118800E+02  0.7818608E-02  0.1130116E+00
         25   -1    0    0    0    0  0.00000000000E+00  0.00000000000E+00  0.99999998245E-14  0.12500000000E+03  0.12500000000E+03 0.  0.
        -13    1    3    3    0    0 -0.39033612295E+02  0.25912758188E+02  0.32899435108E+02  0.57249261307E+02  0.10566000000E+00 0. -1.
         23    2    1    0    0    0 -0.21999672908E+02 -0.57666090766E+01  0.17153224853E+02  0.96513643420E+02  0.92213940676E+02 0.  0.
         13    1    3    3    0    0  0.17033939387E+02 -0.31679367264E+02 -0.15746210255E+02  0.39264382113E+02  0.10566000000E+00 0.  1.
         22    1    1    0    0    0  0.21999672908E+02  0.57666090766E+01 -0.17153224853E+02  0.28486356580E+02  0.00000000000E+00 0. -1.
</event>
<event>
 5    1  0.1751027E-003  0.9118800E+02  0.7818608E-02  0.1130116E+00
         25   -1    0    0    0    0  0.00000000000E+00  0.00000000000E+00  0.99999998245E-14  0.12500000000E+03  0.12500000000E+03 0.  0.
        -13    1    3    3    0    0  0.58464749990E+02 -0.51916946479E+01 -0.17859789054E+02  0.61351967481E+02  0.10566000000E+00 0. -1.
         23    2    1    0    0    0  0.24588029783E+02 -0.10613973916E+02 -0.80672185462E+01  0.97030236576E+02  0.92911566256E+02 0.  0.
         13    1    3    3    0    0 -0.33876720207E+02 -0.54222792677E+01  0.97925705074E+01  0.35678269095E+02  0.10566000000E+00 0.  1.
         22    1    1    0    0    0 -0.24588029783E+02  0.10613973916E+02  0.80672185462E+01  0.27969763424E+02  0.00000000000E+00 0. -1.
</event>
<event>
 5    1  0.1751027E-003  0.9118800E+02  0.7818608E-02  0.1130116E+00
         25   -1    0    0    0    0  0.00000000000E+00  0.00000000000E+00  0.99999998245E-14  0.12500000000E+03  0.12500000000E+03 0.  0.
        -13    1    3    3    0    0  0.67088158552E+01 -0.37709713946E+02  0.37737839020E+02  0.53769753524E+02  0.10566000000E+00 0.  1.
         23    2    1    0    0    0  0.57895201216E+01  0.14081953989E+01  0.30948382352E+02  0.93483275428E+02  0.88010333808E+02 0.  0.
         13    1    3    3    0    0 -0.91929573364E+00  0.39117909345E+02 -0.67894566679E+01  0.39713521904E+02  0.10566000000E+00 0. -1.
         22    1    1    0    0    0 -0.57895201216E+01 -0.14081953989E+01 -0.30948382352E+02  0.31516724572E+02  0.00000000000E+00 0.  1.
</event>
<event>
 5    1  0.1751027E-003  0.9118800E+02  0.7818608E-02  0.1130116E+00
         25   -1    0    0    0    0  0.00000000000E+00  0.00000000000E+00  0.99999998245E-14  0.12500000000E+03  0.12500000000E+03 0.  0.
        -13    1    3    3    0    0 -0.20617527375E+02 -0.28593143864E+02  0.34562662325E+02  0.49368401859E+02  0.10566000000E+00 0. -1.
         23    2    1    0    0    0 -0.29950364001E+02  0.65030950818E+01  0.12230630155E+02  0.92001471799E+02  0.85879962446E+02 0.  0.
         13    1    3    3    0    0 -0.93328366258E+01  0.35096238946E+02 -0.22332032170E+02  0.42633069940E+02  0.10566000000E+00 0.  1.
         22    1    1    0    0    0  0.29950364001E+02 -0.65030950818E+01 -0.12230630155E+02  0.32998528201E+02  0.00000000000E+00 0. -1.
</event>
<event>
 5    1  0.1751027E-003  0.9118800E+02  0.7818608E-02  0.1130116E+00
         25   -1    0    0    0    0  0.00000000000E+00  0.00000000000E+00  0.99999998245E-14  0.12500000000E+03  0.12500000000E+03 0.  0.
        -13    1    3    3    0    0 -0.28106542062E+02 -0.94130087126E+01  0.54064932645E+02  0.61657201896E+02  0.10566000000E+00 0. -1.
         23    2    1    0    0    0 -0.17342478802E+02  0.13664346693E+01  0.24037421229E+02  0.95328021063E+02  0.90592523234E+02 0.  0.
         13    1    3    3    0    0  0.10764063261E+02  0.10779443382E+02 -0.30027511416E+02  0.33670819167E+02  0.10566000000E+00 0.  1.
         22    1    1    0    0    0  0.17342478802E+02 -0.13664346693E+01 -0.24037421229E+02  0.29671978937E+02  0.00000000000E+00 0. -1.
</event>
<event>
 5    1  0.1751027E-003  0.9118800E+02  0.7818608E-02  0.1130116E+00
         25   -1    0    0    0    0  0.00000000000E+00  0.00000000000E+00  0.99999998245E-14  0.12500000000E+03  0.12500000000E+03 0.  0.
        -13    1    3    3    0    0  0.29583213572E+02  0.13829467559E+02 -0.52924277444E+02  0.62188511842E+02  0.10566000000E+00 0. -1.
         23    2    1    0    0    0  0.16392148959E+02  0.28776642757E+01 -0.24551453611E+02  0.95339295800E+02  0.90608078835E+02 0.  0.
         13    1    3    3    0    0 -0.13191064612E+02 -0.10951803283E+02  0.28372823833E+02  0.33150783958E+02  0.10566000000E+00 0.  1.
         22    1    1    0    0    0 -0.16392148959E+02 -0.28776642757E+01  0.24551453611E+02  0.29660704200E+02  0.00000000000E+00 0. -1.
</event>
<event>
 5    1  0.1751027E-003  0.9118800E+02  0.7818608E-02  0.1130116E+00
         25   -1    0    0    0    0  0.00000000000E+00  0.00000000000E+00  0.99999998245E-14  0.12500000000E+03  0.12500000000E+03 0.  0.
        -13    1    3    3    0    0  0.54796899509E+02  0.19106630654E+02  0.18165415070E+02  0.60809185157E+02  0.10566000000E+00 0.  1.
         23    2    1    0    0    0  0.25114392492E+02  0.36609028153E+00  0.14227985438E+02  0.96133024025E+02  0.91696543044E+02 0.  0.
         13    1    3    3    0    0 -0.29682507017E+02 -0.18740540372E+02 -0.39374296327E+01  0.35323838868E+02  0.10566000000E+00 0. -1.
         22    1    1    0    0    0 -0.25114392492E+02 -0.36609028153E+00 -0.14227985438E+02  0.28866975975E+02  0.00000000000E+00 0.  1.
</event>
<event>
 5    1  0.1751027E-003  0.9118800E+02  0.7818608E-02  0.1130116E+00
         25   -1    0    0    0    0  0.00000000000E+00  0.00000000000E+00  0.99999998245E-14  0.12500000000E+03  0.12500000000E+03 0.  0.
        -13    1    3    3    0    0  0.23507853817E+01  0.38717812628E+02 -0.13545508014E+02  0.41086337851E+02  0.10566000000E+00 0.  1.
         23    2    1    0    0    0  0.20230071567E+02 -0.13360635951E+02 -0.15572244657E+02  0.96185816127E+02  0.91768480601E+02 0.  0.
         13    1    3    3    0    0  0.17879286185E+02 -0.52078448578E+02 -0.20267366427E+01  0.55099478276E+02  0.10566000000E+00 0. -1.
         22    1    1    0    0    0 -0.20230071567E+02  0.13360635951E+02  0.15572244657E+02  0.28814183873E+02  0.00000000000E+00 0. -1.
</event>
<event>
 5    1  0.1751027E-003  0.9118800E+02  0.7818608E-02  0.1130116E+00
         25   -1    0    0    0    0  0.00000000000E+00  0.00000000000E+00  0.99999998245E-14  0.12500000000E+03  0.12500000000E+03 0.  0.
        -13    1    3    3    0    0 -0.30947504546E+02 -0.53405930681E+01 -0.14714554960E+02  0.34681396506E+02  0.10566000000E+00 0.  1.
         23    2    1    0    0    0  0.14126923879E+02  0.12713032058E+02  0.22273408275E+02  0.95720384590E+02  0.91132300242E+02 0.  0.
         13    1    3    3    0    0  0.45074428425E+02  0.18053625126E+02  0.36987963235E+02  0.61038988084E+02  0.10566000000E+00 0. -1.
         22    1    1    0    0    0 -0.14126923879E+02 -0.12713032058E+02 -0.22273408275E+02  0.29279615410E+02  0.00000000000E+00 0. -1.
</event>
<event>
 5    1  0.1751027E-003  0.9118800E+02  0.7818608E-02  0.1130116E+00
         25   -1    0    0    0    0  0.00000000000E+00  0.00000000000E+00  0.99999998245E-14  0.12500000000E+03  0.12500000000E+03 0.  0.
        -13    1    3    3    0    0  0.20452283455E+02 -0.25185672570E+02  0.51286313248E+02  0.60686992773E+02  0.10566000000E+00 0. -1.
         23    2    1    0    0    0 -0.37209490234E+00 -0.88255555837E+01  0.26898599128E+02  0.96688102836E+02  0.92450125522E+02 0.  0.
         13    1    3    3    0    0 -0.20824378357E+02  0.16360116986E+02 -0.24387714120E+02  0.36001110063E+02  0.10566000000E+00 0.  1.
         22    1    1    0    0    0  0.37209490234E+00  0.88255555837E+01 -0.26898599128E+02  0.28311897164E+02  0.00000000000E+00 0. -1.
</event>
<event>
 5    1  0.1751027E-003  0.9118800E+02  0.7818608E-02  0.1130116E+00
         25   -1    0    0    0    0  0.00000000000E+00  0.00000000000E+00  0.99999998245E-14  0.12500000000E+03  0.12500000000E+03 0.  0.
        -13    1    3    3    0    0 -0.14009931662E+02  0.15312430057E+02  0.30811571830E+02  0.37149869745E+02  0.10566000000E+00 0. -1.
         23    2    1    0    0    0 -0.13911500580E+02 -0.25404634696E+02 -0.95697999781E+01  0.94495797272E+02  0.89436845416E+02 0.  0.
         13    1    3    3    0    0  0.98431081860E-01 -0.40717064753E+02 -0.40381371808E+02  0.57345927527E+02  0.10566000000E+00 0.  1.
         22    1    1    0    0    0  0.13911500580E+02  0.25404634696E+02  0.95697999781E+01  0.30504202728E+02  0.00000000000E+00 0.  1.
</event>
<event>
 4    1  0.1751027E-003  0.9118800E+02  0.7818608E-02  0.1130116E+00
         25   -1    0    0    0    0  0.00000000000E+00  0.00000000000E+00  0.99999998245E-14  0.12500000000E+03  0.12500000000E+03 0.  0.
        -13    1    1    0    0    0  0.38826230156E+02 -0.44944612750E+02 -0.12657328661E+02  0.60726546882E+02  0.10566000000E+00 0.  1.
         13    1    1    0    0    0 -0.12037823908E+02  0.17177917210E+01  0.24949094932E+01  0.12413530934E+02  0.10566000000E+00 0. -1.
         22    1    1    0    0    0 -0.26788406248E+02  0.43226821029E+02  0.10162419168E+02  0.51859922184E+02  0.00000000000E+00 0.  1.
</event>
<event>
 5    1  0.1751027E-003  0.9118800E+02  0.7818608E-02  0.1130116E+00
         25   -1    0    0    0    0  0.00000000000E+00  0.00000000000E+00  0.99999998245E-14  0.12500000000E+03  0.12500000000E+03 0.  0.
        -13    1    3    3    0    0  0.22415661395E+02 -0.19705548995E+02 -0.21985117560E+02  0.37069220321E+02  0.10566000000E+00 0.  1.
         23    2    1    0    0    0 -0.34538728774E+01 -0.45027957209E+01  0.28577212779E+02  0.95864772227E+02  0.91330132250E+02 0.  0.
         13    1    3    3    0    0 -0.25869534273E+02  0.15202753274E+02  0.50562330339E+02  0.58795551907E+02  0.10566000000E+00 0. -1.
         22    1    1    0    0    0  0.34538728774E+01  0.45027957209E+01 -0.28577212779E+02  0.29135227773E+02  0.00000000000E+00 0. -1.
</event>
<event>
 5    1  0.1751027E-003  0.9118800E+02  0.7818608E-02  0.1130116E+00
         25   -1    0    0    0    0  0.00000000000E+00  0.00000000000E+00  0.99999998245E-14  0.12500000000E+03  0.12500000000E+03 0.  0.
        -13    1    3    3    0    0  0.22881348156E+01 -0.58312733397E+02  0.20697067515E+01  0.58394394313E+02  0.10566000000E+00 0. -1.
         23    2    1    0    0    0  0.14531390901E+02 -0.39116645477E+02  0.92313755161E+01  0.82262527347E+02  0.70289628230E+02 0.  0.
         13    1    3    3    0    0  0.12243256085E+02  0.19196087920E+02  0.71616687646E+01  0.23868133034E+02  0.10566000000E+00 0.  1.
         22    1    1    0    0    0 -0.14531390901E+02  0.39116645477E+02 -0.92313755161E+01  0.42737472653E+02  0.00000000000E+00 0. -1.
</event>
<event>
 5    1  0.1751027E-003  0.9118800E+02  0.7818608E-02  0.1130116E+00
         25   -1    0    0    0    0  0.00000000000E+00  0.00000000000E+00  0.99999998245E-14  0.12500000000E+03  0.12500000000E+03 0.  0.
        -13    1    3    3    0    0 -0.18131709376E+02 -0.20201445949E+01  0.27779687469E+02  0.33234952520E+02  0.10566000000E+00 0. -1.
         23    2    1    0    0    0  0.19435082906E+02 -0.38655734833E+01 -0.21847349368E+02  0.95504715964E+02  0.90836000523E+02 0.  0.
         13    1    3    3    0    0  0.37566792282E+02 -0.18454288884E+01 -0.49627036837E+02  0.62269763445E+02  0.10566000000E+00 0.  1.
         22    1    1    0    0    0 -0.19435082906E+02  0.38655734833E+01  0.21847349368E+02  0.29495284036E+02  0.00000000000E+00 0.  1.
</event>
<event>
 5    1  0.1751027E-003  0.9118800E+02  0.7818608E-02  0.1130116E+00
         25   -1    0    0    0    0  0.00000000000E+00  0.00000000000E+00  0.99999998245E-14  0.12500000000E+03  0.12500000000E+03 0.  0.
        -13    1    3    3    0    0  0.61182065954E+01 -0.34312373423E+02 -0.13266765247E+02  0.37293292239E+02  0.10566000000E+00 0. -1.
         23    2    1    0    0    0 -0.16988117505E+02  0.13339403251E+02  0.16294433735E+02  0.97943681215E+02  0.94132461477E+02 0.  0.
         13    1    3    3    0    0 -0.23106324100E+02  0.47651776674E+02  0.29561198982E+02  0.60650388976E+02  0.10566000000E+00 0.  1.
         22    1    1    0    0    0  0.16988117505E+02 -0.13339403251E+02 -0.16294433735E+02  0.27056318785E+02  0.00000000000E+00 0.  1.
</event>
<event>
 5    1  0.1751027E-003  0.9118800E+02  0.7818608E-02  0.1130116E+00
         25   -1    0    0    0    0  0.00000000000E+00  0.00000000000E+00  0.99999998245E-14  0.12500000000E+03  0.12500000000E+03 0.  0.
        -13    1    3    3    0    0 -0.22125038168E+01  0.22126643008E+02  0.24762454124E+02  0.33281733763E+02  0.10566000000E+00 0.  1.
         23    2    1    0    0    0  0.17143261207E+01 -0.24456694255E+02 -0.16345793208E+02  0.95533853942E+02  0.90876088634E+02 0.  0.
         13    1    3    3    0    0  0.39268299375E+01 -0.46583337264E+02 -0.41108247332E+02  0.62252120179E+02  0.10566000000E+00 0. -1.
         22    1    1    0    0    0 -0.17143261207E+01  0.24456694255E+02  0.16345793208E+02  0.29466146058E+02  0.00000000000E+00 0. -1.
</event>
<event>
 5    1  0.1751027E-003  0.9118800E+02  0.7818608E-02  0.1130116E+00
         25   -1    0    0    0    0  0.00000000000E+00  0.00000000000E+00  0.99999998245E-14  0.12500000000E+03  0.12500000000E+03 0.  0.
        -13    1    3    3    0    0  0.27705970648E+02  0.43419826156E+02 -0.26795623149E+02  0.58059613304E+02  0.10566000000E+00 0.  1.
         23    2    1    0    0    0  0.13980141024E+02  0.24762944497E+02  0.36669214082E+01  0.96327817038E+02  0.91961699960E+02 0.  0.
         13    1    3    3    0    0 -0.13725829624E+02 -0.18656881660E+02  0.30462544557E+02  0.38268203734E+02  0.10566000000E+00 0. -1.
         22    1    1    0    0    0 -0.13980141024E+02 -0.24762944497E+02 -0.36669214082E+01  0.28672182962E+02  0.00000000000E+00 0.  1.
</event>
<event>
 5    1  0.1751027E-003  0.9118800E+02  0.7818608E-02  0.1130116E+00
         25   -1    0    0    0    0  0.00000000000E+00  0.00000000000E+00  0.99999998245E-14  0.12500000000E+03  0.12500000000E+03 0.  0.
        -13    1    3    3    0    0 -0.15569317140E+02 -0.41814571652E+01 -0.54089222949E+02  0.56440618561E+02  0.10566000000E+00 0.  1.
         23    2    1    0    0    0 -0.28998558669E+01  0.17035311586E+02 -0.24992870100E+02  0.94614895743E+02  0.89603146907E+02 0.  0.
         13    1    3    3    0    0  0.12669461273E+02  0.21216768751E+02  0.29096352849E+02  0.38174277182E+02  0.10566000000E+00 0. -1.
         22    1    1    0    0    0  0.28998558669E+01 -0.17035311586E+02  0.24992870100E+02  0.30385104257E+02  0.00000000000E+00 0.  1.
</event>
<event>
 5    1  0.1751027E-003  0.9118800E+02  0.7818608E-02  0.1130116E+00
         25   -1    0    0    0    0  0.00000000000E+00  0.00000000000E+00  0.99999998245E-14  0.12500000000E+03  0.12500000000E+03 0.  0.
        -13    1    3    3    0    0  0.50810241141E+02  0.94280956529E+01 -0.17549979226E+02  0.54576391667E+02  0.10566000000E+00 0. -1.
         23    2    1    0    0    0  0.26638062825E+02 -0.14799285273E+02  0.28086622080E+01  0.94397813492E+02  0.89299794921E+02 0.  0.
         13    1    3    3    0    0 -0.24172178316E+02 -0.24227380926E+02  0.20358641434E+02  0.39821421825E+02  0.10566000000E+00 0.  1.
         22    1    1    0    0    0 -0.26638062825E+02  0.14799285273E+02 -0.28086622080E+01  0.30602186508E+02  0.00000000000E+00 0. -1.
</event>
<event>
 5    1  0.1751027E-003  0.9118800E+02  0.7818608E-02  0.1130116E+00
         25   -1    0    0    0    0  0.00000000000E+00  0.00000000000E+00  0.99999998245E-14  0.12500000000E+03  0.12500000000E+03 0.  0.
        -13    1    3    3    0    0 -0.22974328159E+02 -0.25581912371E+02 -0.13470955081E+02  0.36928739347E+02  0.10566000000E+00 0.  1.
         23    2    1    0    0    0  0.54550972175E+01  0.15743849784E+01  0.29376195297E+02  0.95080146661E+02  0.90249856871E+02 0.  0.
         13    1    3    3    0    0  0.28429425377E+02  0.27156297350E+02  0.42847150378E+02  0.58151407314E+02  0.10566000000E+00 0. -1.
         22    1    1    0    0    0 -0.54550972175E+01 -0.15743849784E+01 -0.29376195297E+02  0.29919853339E+02  0.00000000000E+00 0. -1.
</event>
<event>
 5    1  0.1751027E-003  0.9118800E+02  0.7818608E-02  0.1130116E+00
         25   -1    0    0    0    0  0.00000000000E+00  0.00000000000E+00  0.99999998245E-14  0.12500000000E+03  0.12500000000E+03 0.  0.
        -13    1    3    3    0    0  0.37468410988E+02 -0.10648786732E+01 -0.11077334115E+02  0.39086241616E+02  0.10566000000E+00 0.  1.
         23    2    1    0    0    0 -0.37786489299E+01 -0.11350422186E+02  0.26564071963E+02  0.95866510837E+02  0.91332511787E+02 0.  0.
         13    1    3    3    0    0 -0.41247059918E+02 -0.10285543513E+02  0.37641406078E+02  0.56780269221E+02  0.10566000000E+00 0. -1.
         22    1    1    0    0    0  0.37786489299E+01  0.11350422186E+02 -0.26564071963E+02  0.29133489163E+02  0.00000000000E+00 0. -1.
</event>
<event>
 5    1  0.1751027E-003  0.9118800E+02  0.7818608E-02  0.1130116E+00
         25   -1    0    0    0    0  0.00000000000E+00  0.00000000000E+00  0.99999998245E-14  0.12500000000E+03  0.12500000000E+03 0.  0.
        -13    1    3    3    0    0  0.22482380343E+02  0.51702313137E+01  0.21326730904E+02  0.31417022978E+02  0.10566000000E+00 0. -1.
         23    2    1    0    0    0  0.49194786102E+01 -0.30486760972E+02 -0.19564378451E+02  0.88443074958E+02  0.80534270590E+02 0.  0.
         13    1    3    3    0    0 -0.17562901733E+02 -0.35656992286E+02 -0.40891109354E+02  0.57026051980E+02  0.10566000000E+00 0.  1.
         22    1    1    0    0    0 -0.49194786102E+01  0.30486760972E+02  0.19564378451E+02  0.36556925042E+02  0.00000000000E+00 0.  1.
</event>
<event>
 5    1  0.1751027E-003  0.9118800E+02  0.7818608E-02  0.1130116E+00
         25   -1    0    0    0    0  0.00000000000E+00  0.00000000000E+00  0.99999998245E-14  0.12500000000E+03  0.12500000000E+03 0.  0.
        -13    1    3    3    0    0 -0.37735087881E+02  0.68047362049E-01 -0.23837187871E+02  0.44633666413E+02  0.10566000000E+00 0.  1.
         23    2    1    0    0    0 -0.14402311878E+02 -0.20906810378E+02  0.15732926137E+02  0.95132856306E+02  0.90322832532E+02 0.  0.
         13    1    3    3    0    0  0.23332776003E+02 -0.20974857740E+02  0.39570114008E+02  0.50499189893E+02  0.10566000000E+00 0. -1.
         22    1    1    0    0    0  0.14402311878E+02  0.20906810378E+02 -0.15732926137E+02  0.29867143694E+02  0.00000000000E+00 0. -1.
</event>
<event>
 5    1  0.1751027E-003  0.9118800E+02  0.7818608E-02  0.1130116E+00
         25   -1    0    0    0    0  0.00000000000E+00  0.00000000000E+00  0.99999998245E-14  0.12500000000E+03  0.12500000000E+03 0.  0.
        -13    1    3    3    0    0 -0.36060466397E+02  0.46537695968E+02 -0.18949447513E+02  0.61848258730E+02  0.10566000000E+00 0.  1.
         23    2    1    0    0    0 -0.19301801064E+02  0.32766003600E+02 -0.16012680789E+02  0.83737711379E+02  0.72865820827E+02 0.  0.
         13    1    3    3    0    0  0.16758665334E+02 -0.13771692368E+02  0.29367667247E+01  0.21889452649E+02  0.10566000000E+00 0. -1.
         22    1    1    0    0    0  0.19301801064E+02 -0.32766003600E+02  0.16012680789E+02  0.41262288621E+02  0.00000000000E+00 0.  1.
</event>
<event>
 5    1  0.1751027E-003  0.9118800E+02  0.7818608E-02  0.1130116E+00
         25   -1    0    0    0    0  0.00000000000E+00  0.00000000000E+00  0.99999998245E-14  0.12500000000E+03  0.12500000000E+03 0.  0.
        -13    1    3    3    0    0 -0.13127402694E+02  0.14976626295E+01 -0.34549184577E+02  0.36989579800E+02  0.10566000000E+00 0. -1.
         23    2    1    0    0    0  0.31484157140E+02 -0.70450542727E+01 -0.23800122355E+01  0.92649584257E+02  0.86818178189E+02 0.  0.
         13    1    3    3    0    0  0.44611559834E+02 -0.85427169022E+01  0.32169172342E+02  0.55660004456E+02  0.10566000000E+00 0.  1.
         22    1    1    0    0    0 -0.31484157140E+02  0.70450542727E+01  0.23800122355E+01  0.32350415743E+02  0.00000000000E+00 0.  1.
</event>
<event>
 5    1  0.1751027E-003  0.9118800E+02  0.7818608E-02  0.1130116E+00
         25   -1    0    0    0    0  0.00000000000E+00  0.00000000000E+00  0.99999998245E-14  0.12500000000E+03  0.12500000000E+03 0.  0.
        -13    1    3    3    0    0 -0.28253789083E+02 -0.35065842639E+02  0.12590378739E+02  0.46759156519E+02  0.10566000000E+00 0. -1.
         23    2    1    0    0    0  0.18495460922E+02 -0.21647928633E+02  0.66803274092E+01  0.95753775233E+02  0.91178088422E+02 0.  0.
         13    1    3    3    0    0  0.46749250004E+02  0.13417914006E+02 -0.59100513298E+01  0.48994618715E+02  0.10566000000E+00 0.  1.
         22    1    1    0    0    0 -0.18495460922E+02  0.21647928633E+02 -0.66803274092E+01  0.29246224767E+02  0.00000000000E+00 0.  1.
</event>
<event>
 5    1  0.1751027E-003  0.9118800E+02  0.7818608E-02  0.1130116E+00
         25   -1    0    0    0    0  0.00000000000E+00  0.00000000000E+00  0.99999998245E-14  0.12500000000E+03  0.12500000000E+03 0.  0.
        -13    1    3    3    0    0  0.85616260185E+01  0.35732749309E+02  0.44640036192E+02  0.57817599471E+02  0.10566000000E+00 0.  1.
         23    2    1    0    0    0  0.10968902306E+02  0.22993351008E+01  0.27153161664E+02  0.95624875352E+02  0.91001202399E+02 0.  0.
         13    1    3    3    0    0  0.24072762872E+01 -0.33433414209E+02 -0.17486874528E+02  0.37807275881E+02  0.10566000000E+00 0. -1.
         22    1    1    0    0    0 -0.10968902306E+02 -0.22993351008E+01 -0.27153161664E+02  0.29375124648E+02  0.00000000000E+00 0.  1.
</event>
<event>
 5    1  0.1751027E-003  0.9118800E+02  0.7818608E-02  0.1130116E+00
         25   -1    0    0    0    0  0.00000000000E+00  0.00000000000E+00  0.99999998245E-14  0.12500000000E+03  0.12500000000E+03 0.  0.
        -13    1    3    3    0    0 -0.17500968173E+02 -0.16071718834E+02  0.22559109387E+02  0.32764441300E+02  0.10566000000E+00 0.  1.
         23    2    1    0    0    0  0.21886656334E+02  0.49650460960E+01 -0.20358714747E+02  0.94698932785E+02  0.89720305373E+02 0.  0.
         13    1    3    3    0    0  0.39387624508E+02  0.21036764930E+02 -0.42917824134E+02  0.61934491485E+02  0.10566000000E+00 0. -1.
         22    1    1    0    0    0 -0.21886656334E+02 -0.49650460960E+01  0.20358714747E+02  0.30301067215E+02  0.00000000000E+00 0. -1.
</event>
<event>
 5    1  0.1751027E-003  0.9118800E+02  0.7818608E-02  0.1130116E+00
         25   -1    0    0    0    0  0.00000000000E+00  0.00000000000E+00  0.99999998245E-14  0.12500000000E+03  0.12500000000E+03 0.  0.
        -13    1    3    3    0    0 -0.37150562591E+02 -0.29921842682E+01  0.27571665061E+02  0.46360816923E+02  0.10566000000E+00 0. -1.
         23    2    1    0    0    0 -0.14502728344E+02  0.22667592229E+02 -0.91671694913E+01  0.96571390056E+02  0.92292185552E+02 0.  0.
         13    1    3    3    0    0  0.22647834247E+02  0.25659776497E+02 -0.36738834552E+02  0.50210573132E+02  0.10566000000E+00 0.  1.
         22    1    1    0    0    0  0.14502728344E+02 -0.22667592229E+02  0.91671694913E+01  0.28428609944E+02  0.00000000000E+00 0.  1.
</event>
<event>
 5    1  0.1751027E-003  0.9118800E+02  0.7818608E-02  0.1130116E+00
         25   -1    0    0    0    0  0.00000000000E+00  0.00000000000E+00  0.99999998245E-14  0.12500000000E+03  0.12500000000E+03 0.  0.
        -13    1    3    3    0    0 -0.21041843084E+02  0.38962094750E+02  0.23708747923E+02  0.50228675871E+02  0.10566000000E+00 0.  1.
         23    2    1    0    0    0 -0.20223562750E+02 -0.63951669501E+01  0.20168320673E+02  0.95731385250E+02  0.91147387853E+02 0.  0.
         13    1    3    3    0    0  0.81828033345E+00 -0.45357261700E+02 -0.35404272502E+01  0.45502709378E+02  0.10566000000E+00 0. -1.
         22    1    1    0    0    0  0.20223562750E+02  0.63951669501E+01 -0.20168320673E+02  0.29268614750E+02  0.00000000000E+00 0.  1.
</event>
<event>
 5    1  0.1751027E-003  0.9118800E+02  0.7818608E-02  0.1130116E+00
         25   -1    0    0    0    0  0.00000000000E+00  0.00000000000E+00  0.99999998245E-14  0.12500000000E+03  0.12500000000E+03 0.  0.
        -13    1    3    3    0    0  0.37998086559E+02 -0.28414219551E+02  0.16312607319E+02  0.50173048307E+02  0.10566000000E+00 0.  1.
         23    2    1    0    0    0  0.29079784155E+02  0.11500948611E+02  0.14310361599E+01  0.93695790539E+02  0.88311650617E+02 0.  0.
         13    1    3    3    0    0 -0.89183024031E+01  0.39915168163E+02 -0.14881571159E+02  0.43522742232E+02  0.10566000000E+00 0. -1.
         22    1    1    0    0    0 -0.29079784155E+02 -0.11500948611E+02 -0.14310361599E+01  0.31304209461E+02  0.00000000000E+00 0.  1.
</event>
<event>
 5    1  0.1751027E-003  0.9118800E+02  0.7818608E-02  0.1130116E+00
         25   -1    0    0    0    0  0.00000000000E+00  0.00000000000E+00  0.99999998245E-14  0.12500000000E+03  0.12500000000E+03 0.  0.
        -13    1    3    3    0    0 -0.83907571100E+01 -0.75019669720E+00  0.37944323239E+02  0.38868373134E+02  0.10566000000E+00 0.  1.
         23    2    1    0    0    0 -0.28068870906E+01  0.26118340366E+02 -0.12204234170E+02  0.96034681940E+02  0.91562385755E+02 0.  0.
         13    1    3    3    0    0  0.55838700194E+01  0.26868537063E+02 -0.50148557409E+02  0.57166308806E+02  0.10566000000E+00 0. -1.
         22    1    1    0    0    0  0.28068870906E+01 -0.26118340366E+02  0.12204234170E+02  0.28965318060E+02  0.00000000000E+00 0. -1.
</event>
<event>
 5    1  0.1751027E-003  0.9118800E+02  0.7818608E-02  0.1130116E+00
         25   -1    0    0    0    0  0.00000000000E+00  0.00000000000E+00  0.99999998245E-14  0.12500000000E+03  0.12500000000E+03 0.  0.
        -13    1    3    3    0    0  0.14036673143E+02  0.23033381097E+02 -0.22546717821E+02  0.35155803023E+02  0.10566000000E+00 0.  1.
         23    2    1    0    0    0  0.27976679488E+01  0.17839855977E+01  0.30985331914E+02  0.93837517038E+02  0.88512028897E+02 0.  0.
         13    1    3    3    0    0 -0.11239005195E+02 -0.21249395499E+02  0.53532049735E+02  0.58681714014E+02  0.10566000000E+00 0. -1.
         22    1    1    0    0    0 -0.27976679488E+01 -0.17839855977E+01 -0.30985331914E+02  0.31162482962E+02  0.00000000000E+00 0. -1.
</event>
<event>
 5    1  0.1751027E-003  0.9118800E+02  0.7818608E-02  0.1130116E+00
         25   -1    0    0    0    0  0.00000000000E+00  0.00000000000E+00  0.99999998245E-14  0.12500000000E+03  0.12500000000E+03 0.  0.
        -13    1    3    3    0    0  0.14077703558E+01  0.41329802487E+02 -0.42129364640E+02  0.59034133517E+02  0.10566000000E+00 0. -1.
         23    2    1    0    0    0 -0.10708363734E+02  0.29286230005E+02 -0.36437415677E+02  0.77041292939E+02  0.60293641744E+02 0.  0.
         13    1    3    3    0    0 -0.12116134090E+02 -0.12043572483E+02  0.56919489635E+01  0.18007159423E+02  0.10566000000E+00 0.  1.
         22    1    1    0    0    0  0.10708363734E+02 -0.29286230005E+02  0.36437415677E+02  0.47958707061E+02  0.00000000000E+00 0. -1.
</event>
<event>
 5    1  0.1751027E-003  0.9118800E+02  0.7818608E-02  0.1130116E+00
         25   -1    0    0    0    0  0.00000000000E+00  0.00000000000E+00  0.99999998245E-14  0.12500000000E+03  0.12500000000E+03 0.  0.
        -13    1    3    3    0    0  0.20423652354E+01 -0.35858171512E+02 -0.33262145577E+02  0.48952642547E+02  0.10566000000E+00 0.  1.
         23    2    1    0    0    0 -0.23216601324E+02  0.36417438258E+00 -0.17806029040E+02  0.95739140987E+02  0.91158023490E+02 0.  0.
         13    1    3    3    0    0 -0.25258966559E+02  0.36222345895E+02  0.15456116537E+02  0.46786498439E+02  0.10566000000E+00 0. -1.
         22    1    1    0    0    0  0.23216601324E+02 -0.36417438258E+00  0.17806029040E+02  0.29260859013E+02  0.00000000000E+00 0.  1.
</event>
<event>
 5    1  0.1751027E-003  0.9118800E+02  0.7818608E-02  0.1130116E+00
         25   -1    0    0    0    0  0.00000000000E+00  0.00000000000E+00  0.99999998245E-14  0.12500000000E+03  0.12500000000E+03 0.  0.
        -13    1    3    3    0    0 -0.27055766981E+02  0.29412871643E+02  0.38426327149E+02  0.55441188005E+02  0.10566000000E+00 0.  1.
         23    2    1    0    0    0 -0.22522020425E+02  0.17886225092E+02 -0.44275846930E+00  0.96236229609E+02  0.91837124313E+02 0.  0.
         13    1    3    3    0    0  0.45337465563E+01 -0.11526646551E+02 -0.38869085618E+02  0.40795041603E+02  0.10566000000E+00 0. -1.
         22    1    1    0    0    0  0.22522020425E+02 -0.17886225092E+02  0.44275846930E+00  0.28763770391E+02  0.00000000000E+00 0.  1.
</event>
<event>
 5    1  0.1751027E-003  0.9118800E+02  0.7818608E-02  0.1130116E+00
         25   -1    0    0    0    0  0.00000000000E+00  0.00000000000E+00  0.99999998245E-14  0.12500000000E+03  0.12500000000E+03 0.  0.
        -13    1    3    3    0    0 -0.15804419916E+01 -0.55438450248E+02 -0.39103586762E+01  0.55598755667E+02  0.10566000000E+00 0. -1.
         23    2    1    0    0    0 -0.17198748990E+02 -0.20435790517E+02  0.10151535618E+02  0.96426022743E+02  0.92095090455E+02 0.  0.
         13    1    3    3    0    0 -0.15618306998E+02  0.35002659731E+02  0.14061894294E+02  0.40827267076E+02  0.10566000000E+00 0.  1.
         22    1    1    0    0    0  0.17198748990E+02  0.20435790517E+02 -0.10151535618E+02  0.28573977257E+02  0.00000000000E+00 0. -1.
</event>
<event>
 5    1  0.1751027E-003  0.9118800E+02  0.7818608E-02  0.1130116E+00
         25   -1    0    0    0    0  0.00000000000E+00  0.00000000000E+00  0.99999998245E-14  0.12500000000E+03  0.12500000000E+03 0.  0.
        -13    1    3    3    0    0  0.94080483996E+01 -0.55227675297E+02  0.21459576499E+02  0.59992766906E+02  0.10566000000E+00 0. -1.
         23    2    1    0    0    0  0.69950381477E+01 -0.17932813450E+02  0.19774689923E+02  0.97403719119E+02  0.93412685325E+02 0.  0.
         13    1    3    3    0    0 -0.24130102519E+01  0.37294861847E+02 -0.16848865764E+01  0.37410952213E+02  0.10566000000E+00 0.  1.
         22    1    1    0    0    0 -0.69950381477E+01  0.17932813450E+02 -0.19774689923E+02  0.27596280881E+02  0.00000000000E+00 0. -1.
</event>
<event>
 5    1  0.1751027E-003  0.9118800E+02  0.7818608E-02  0.1130116E+00
         25   -1    0    0    0    0  0.00000000000E+00  0.00000000000E+00  0.99999998245E-14  0.12500000000E+03  0.12500000000E+03 0.  0.
        -13    1    3    3    0    0 -0.16624331963E+02  0.20756295617E+02  0.23241471801E+02  0.35318117114E+02  0.10566000000E+00 0. -1.
         23    2    1    0    0    0  0.85707580589E+01 -0.26816418445E+02 -0.54576806491E+01  0.96323102155E+02  0.91955290978E+02 0.  0.
         13    1    3    3    0    0  0.25195090022E+02 -0.47572714063E+02 -0.28699152450E+02  0.61004985041E+02  0.10566000000E+00 0.  1.
         22    1    1    0    0    0 -0.85707580589E+01  0.26816418445E+02  0.54576806491E+01  0.28676897845E+02  0.00000000000E+00 0.  1.
</event>
<event>
 5    1  0.1751027E-003  0.9118800E+02  0.7818608E-02  0.1130116E+00
         25   -1    0    0    0    0  0.00000000000E+00  0.00000000000E+00  0.99999998245E-14  0.12500000000E+03  0.12500000000E+03 0.  0.
        -13    1    3    3    0    0  0.59053448554E+02  0.14246055595E+02 -0.57300475811E+01  0.61017247525E+02  0.10566000000E+00 0.  1.
         23    2    1    0    0    0  0.28883591163E+02 -0.28551168915E+01 -0.34403475133E+01  0.95772452687E+02  0.91203690560E+02 0.  0.
         13    1    3    3    0    0 -0.30169857392E+02 -0.17101172486E+02  0.22897000678E+01  0.34755205162E+02  0.10566000000E+00 0. -1.
         22    1    1    0    0    0 -0.28883591163E+02  0.28551168915E+01  0.34403475133E+01  0.29227547313E+02  0.00000000000E+00 0.  1.
</event>
<event>
 5    1  0.1751027E-003  0.9118800E+02  0.7818608E-02  0.1130116E+00
         25   -1    0    0    0    0  0.00000000000E+00  0.00000000000E+00  0.99999998245E-14  0.12500000000E+03  0.12500000000E+03 0.  0.
        -13    1    3    3    0    0  0.32732710565E+02  0.48690964526E+01 -0.41933551725E+02  0.53418839050E+02  0.10566000000E+00 0. -1.
         23    2    1    0    0    0  0.12736992979E+02  0.24747168905E+02 -0.11559243209E+02  0.94862490771E+02  0.89947888762E+02 0.  0.
         13    1    3    3    0    0 -0.19995717585E+02  0.19878072452E+02  0.30374308515E+02  0.41443651721E+02  0.10566000000E+00 0.  1.
         22    1    1    0    0    0 -0.12736992979E+02 -0.24747168905E+02  0.11559243209E+02  0.30137509229E+02  0.00000000000E+00 0.  1.
</event>
<event>
 5    1  0.1751027E-003  0.9118800E+02  0.7818608E-02  0.1130116E+00
         25   -1    0    0    0    0  0.00000000000E+00  0.00000000000E+00  0.99999998245E-14  0.12500000000E+03  0.12500000000E+03 0.  0.
        -13    1    3    3    0    0 -0.11289288580E+02  0.35395442953E+02 -0.49225702095E+02  0.61672249264E+02  0.10566000000E+00 0. -1.
         23    2    1    0    0    0  0.69749616243E+00  0.12403209212E+02 -0.24644944940E+02  0.97401097653E+02  0.93409177350E+02 0.  0.
         13    1    3    3    0    0  0.11986784743E+02 -0.22992233741E+02  0.24580757155E+02  0.35728848389E+02  0.10566000000E+00 0.  1.
         22    1    1    0    0    0 -0.69749616243E+00 -0.12403209212E+02  0.24644944940E+02  0.27598902347E+02  0.00000000000E+00 0. -1.
</event>
<event>
 5    1  0.1751027E-003  0.9118800E+02  0.7818608E-02  0.1130116E+00
         25   -1    0    0    0    0  0.00000000000E+00  0.00000000000E+00  0.99999998245E-14  0.12500000000E+03  0.12500000000E+03 0.  0.
        -13    1    3    3    0    0 -0.16718774395E+02  0.56554570073E+02  0.80969626317E+01  0.59527378418E+02  0.10566000000E+00 0.  1.
         23    2    1    0    0    0 -0.17748350087E+02  0.20566185569E+02  0.11096599973E+02  0.95655384640E+02  0.91043100562E+02 0.  0.
         13    1    3    3    0    0 -0.10295756929E+01 -0.35988384504E+02  0.29996373414E+01  0.36128006222E+02  0.10566000000E+00 0. -1.
         22    1    1    0    0    0  0.17748350087E+02 -0.20566185569E+02 -0.11096599973E+02  0.29344615360E+02  0.00000000000E+00 0.  1.
</event>
<event>
 5    1  0.1751027E-003  0.9118800E+02  0.7818608E-02  0.1130116E+00
         25   -1    0    0    0    0  0.00000000000E+00  0.00000000000E+00  0.99999998245E-14  0.12500000000E+03  0.12500000000E+03 0.  0.
        -13    1    3    3    0    0  0.64054791932E+01 -0.48999797289E+02 -0.14952390285E+02  0.51629404774E+02  0.10566000000E+00 0. -1.
         23    2    1    0    0    0  0.49663052936E+01 -0.69801930206E+01 -0.28053494172E+02  0.95667665996E+02  0.91059961009E+02 0.  0.
         13    1    3    3    0    0 -0.14391738996E+01  0.42019604268E+02 -0.13101103887E+02  0.44038261222E+02  0.10566000000E+00 0.  1.
         22    1    1    0    0    0 -0.49663052936E+01  0.69801930206E+01  0.28053494172E+02  0.29332334004E+02  0.00000000000E+00 0. -1.
</event>
<event>
 5    1  0.1751027E-003  0.9118800E+02  0.7818608E-02  0.1130116E+00
         25   -1    0    0    0    0  0.00000000000E+00  0.00000000000E+00  0.99999998245E-14  0.12500000000E+03  0.12500000000E+03 0.  0.
        -13    1    3    3    0    0  0.32818109120E+01  0.17484904790E+02  0.25379580976E+02  0.30993974784E+02  0.10566000000E+00 0. -1.
         23    2    1    0    0    0  0.10016334552E+02 -0.13728999142E+01 -0.31827973505E+02  0.91604914890E+02  0.85300813142E+02 0.  0.
         13    1    3    3    0    0  0.67345236396E+01 -0.18857804704E+02 -0.57207554481E+02  0.60610940107E+02  0.10566000000E+00 0.  1.
         22    1    1    0    0    0 -0.10016334552E+02  0.13728999142E+01  0.31827973505E+02  0.33395085110E+02  0.00000000000E+00 0.  1.
</event>
<event>
 5    1  0.1751027E-003  0.9118800E+02  0.7818608E-02  0.1130116E+00
         25   -1    0    0    0    0  0.00000000000E+00  0.00000000000E+00  0.99999998245E-14  0.12500000000E+03  0.12500000000E+03 0.  0.
        -13    1    3    3    0    0 -0.35307031237E+02  0.10715242251E+02  0.19410941380E+02  0.41691709974E+02  0.10566000000E+00 0.  1.
         23    2    1    0    0    0  0.19450903259E+02  0.13557012305E+02  0.15522972890E+02  0.96661106099E+02  0.92413616555E+02 0.  0.
         13    1    3    3    0    0  0.54757934496E+02  0.28417700538E+01 -0.38879684904E+01  0.54969396125E+02  0.10566000000E+00 0. -1.
         22    1    1    0    0    0 -0.19450903259E+02 -0.13557012305E+02 -0.15522972890E+02  0.28338893901E+02  0.00000000000E+00 0. -1.
</event>
<event>
 4    1  0.1751027E-003  0.9118800E+02  0.7818608E-02  0.1130116E+00
         25   -1    0    0    0    0  0.00000000000E+00  0.00000000000E+00  0.99999998245E-14  0.12500000000E+03  0.12500000000E+03 0.  0.
        -13    1    1    0    0    0  0.20068839670E+01 -0.42224643108E+01  0.22163812584E+01  0.51749684087E+01  0.10566000000E+00 0. -1.
         13    1    1    0    0    0 -0.52330284840E+01  0.58212990244E+02 -0.21685176444E+02  0.62340956536E+02  0.10566000000E+00 0.  1.
         22    1    1    0    0    0  0.32261445169E+01 -0.53990525934E+02  0.19468795186E+02  0.57484075056E+02  0.00000000000E+00 0.  1.
</event>
<event>
 5    1  0.1751027E-003  0.9118800E+02  0.7818608E-02  0.1130116E+00
         25   -1    0    0    0    0  0.00000000000E+00  0.00000000000E+00  0.99999998245E-14  0.12500000000E+03  0.12500000000E+03 0.  0.
        -13    1    3    3    0    0  0.40257372323E+02  0.23421588001E+01 -0.26703092966E+02  0.48365360251E+02  0.10566000000E+00 0. -1.
         23    2    1    0    0    0  0.22075982633E+02  0.13233760141E+02  0.15046014090E+02  0.95186178429E+02  0.90396596215E+02 0.  0.
         13    1    3    3    0    0 -0.18181389690E+02  0.10891601341E+02  0.41749107056E+02  0.46820818178E+02  0.10566000000E+00 0.  1.
         22    1    1    0    0    0 -0.22075982633E+02 -0.13233760141E+02 -0.15046014090E+02  0.29813821571E+02  0.00000000000E+00 0.  1.
</event>
<event>
 5    1  0.1751027E-003  0.9118800E+02  0.7818608E-02  0.1130116E+00
         25   -1    0    0    0    0  0.00000000000E+00  0.00000000000E+00  0.99999998245E-14  0.12500000000E+03  0.12500000000E+03 0.  0.
        -13    1    3    3    0    0 -0.21129871427E+02 -0.71298368673E+01  0.26126885244E+02  0.34350128630E+02  0.10566000000E+00 0. -1.
         23    2    1    0    0    0  0.29216011795E+02  0.51616047018E+01 -0.51593249145E+01  0.94886279840E+02  0.89980942205E+02 0.  0.
         13    1    3    3    0    0  0.50345883222E+02  0.12291441569E+02 -0.31286210159E+02  0.60536151210E+02  0.10566000000E+00 0.  1.
         22    1    1    0    0    0 -0.29216011795E+02 -0.51616047018E+01  0.51593249145E+01  0.30113720160E+02  0.00000000000E+00 0.  1.
</event>
<event>
 5    1  0.1751027E-003  0.9118800E+02  0.7818608E-02  0.1130116E+00
         25   -1    0    0    0    0  0.00000000000E+00  0.00000000000E+00  0.99999998245E-14  0.12500000000E+03  0.12500000000E+03 0.  0.
        -13    1    3    3    0    0 -0.21352066790E+02  0.39669141938E+02  0.70863579652E+01  0.45604596386E+02  0.10566000000E+00 0. -1.
         23    2    1    0    0    0  0.22274027229E+02  0.20385936713E+02  0.94501731434E+01  0.93361029139E+02  0.87836537300E+02 0.  0.
         13    1    3    3    0    0  0.43626094019E+02 -0.19283205224E+02  0.23638151782E+01  0.47756432753E+02  0.10566000000E+00 0.  1.
         22    1    1    0    0    0 -0.22274027229E+02 -0.20385936713E+02 -0.94501731434E+01  0.31638970861E+02  0.00000000000E+00 0.  1.
</event>
<event>
 5    1  0.1751027E-003  0.9118800E+02  0.7818608E-02  0.1130116E+00
         25   -1    0    0    0    0  0.00000000000E+00  0.00000000000E+00  0.99999998245E-14  0.12500000000E+03  0.12500000000E+03 0.  0.
        -13    1    3    3    0    0 -0.10342480797E+02 -0.21453147411E+02 -0.20644438617E+02  0.31518382774E+02  0.10566000000E+00 0.  1.
         23    2    1    0    0    0  0.11110604905E+02  0.23881746789E+02  0.16490174909E+02  0.93924137348E+02  0.88634272926E+02 0.  0.
         13    1    3    3    0    0  0.21453085702E+02  0.45334894200E+02  0.37134613525E+02  0.62405754574E+02  0.10566000000E+00 0. -1.
         22    1    1    0    0    0 -0.11110604905E+02 -0.23881746789E+02 -0.16490174909E+02  0.31075862652E+02  0.00000000000E+00 0. -1.
</event>
<event>
 5    1  0.1751027E-003  0.9118800E+02  0.7818608E-02  0.1130116E+00
         25   -1    0    0    0    0  0.00000000000E+00  0.00000000000E+00  0.99999998245E-14  0.12500000000E+03  0.12500000000E+03 0.  0.
        -13    1    3    3    0    0  0.10901528233E+02  0.12835790041E+02  0.28187248775E+02  0.32834935379E+02  0.10566000000E+00 0. -1.
         23    2    1    0    0    0 -0.10096832366E+02 -0.14118040162E+02 -0.24102466660E+02  0.95298249531E+02  0.90551435012E+02 0.  0.
         13    1    3    3    0    0 -0.20998360599E+02 -0.26953830203E+02 -0.52289715436E+02  0.62463314152E+02  0.10566000000E+00 0.  1.
         22    1    1    0    0    0  0.10096832366E+02  0.14118040162E+02  0.24102466660E+02  0.29701750469E+02  0.00000000000E+00 0.  1.
</event>
<event>
 5    1  0.1751027E-003  0.9118800E+02  0.7818608E-02  0.1130116E+00
         25   -1    0    0    0    0  0.00000000000E+00  0.00000000000E+00  0.99999998245E-14  0.12500000000E+03  0.12500000000E+03 0.  0.
        -13    1    3    3    0    0 -0.14633430629E+02 -0.28544836939E+02 -0.51146300578E+00  0.32081424006E+02  0.10566000000E+00 0. -1.
         23    2    1    0    0    0 -0.72984440802E+01  0.30475285296E+02  0.91932925311E+01  0.92342276144E+02  0.86374585591E+02 0.  0.
         13    1    3    3    0    0  0.73349865487E+01  0.59020122235E+02  0.97047555368E+01  0.60260852138E+02  0.10566000000E+00 0.  1.
         22    1    1    0    0    0  0.72984440802E+01 -0.30475285296E+02 -0.91932925311E+01  0.32657723856E+02  0.00000000000E+00 0.  1.
</event>
<event>
 5    1  0.1751027E-003  0.9118800E+02  0.7818608E-02  0.1130116E+00
         25   -1    0    0    0    0  0.00000000000E+00  0.00000000000E+00  0.99999998245E-14  0.12500000000E+03  0.12500000000E+03 0.  0.
        -13    1    3    3    0    0  0.37304170438E+02  0.32026993357E+00 -0.31864919805E+02  0.49062082947E+02  0.10566000000E+00 0.  1.
         23    2    1    0    0    0 -0.15773903875E+01  0.23328072907E+02 -0.14640749413E+02  0.97413070316E+02  0.93425197774E+02 0.  0.
         13    1    3    3    0    0 -0.38881560825E+02  0.23007802974E+02  0.17224170392E+02  0.48350987370E+02  0.10566000000E+00 0. -1.
         22    1    1    0    0    0  0.15773903875E+01 -0.23328072907E+02  0.14640749413E+02  0.27586929684E+02  0.00000000000E+00 0. -1.
</event>
<event>
 5    1  0.1751027E-003  0.9118800E+02  0.7818608E-02  0.1130116E+00
         25   -1    0    0    0    0  0.00000000000E+00  0.00000000000E+00  0.99999998245E-14  0.12500000000E+03  0.12500000000E+03 0.  0.
        -13    1    3    3    0    0  0.24656640322E+02  0.35042388224E+02 -0.15374292758E+02  0.45522510105E+02  0.10566000000E+00 0. -1.
         23    2    1    0    0    0  0.49360749452E+01  0.30634006080E+02  0.21277866033E+02  0.87376141250E+02  0.78860860459E+02 0.  0.
         13    1    3    3    0    0 -0.19720565377E+02 -0.44083821442E+01  0.36652158791E+02  0.41853631144E+02  0.10566000000E+00 0.  1.
         22    1    1    0    0    0 -0.49360749452E+01 -0.30634006080E+02 -0.21277866033E+02  0.37623858750E+02  0.00000000000E+00 0. -1.
</event>
<event>
 5    1  0.1751027E-003  0.9118800E+02  0.7818608E-02  0.1130116E+00
         25   -1    0    0    0    0  0.00000000000E+00  0.00000000000E+00  0.99999998245E-14  0.12500000000E+03  0.12500000000E+03 0.  0.
        -13    1    3    3    0    0  0.14207648681E+02  0.80968654168E+01  0.55362115522E+02  0.57726869911E+02  0.10566000000E+00 0.  1.
         23    2    1    0    0    0  0.21843735828E+02  0.20505727991E+00  0.17922394967E+02  0.96743972595E+02  0.92525635089E+02 0.  0.
         13    1    3    3    0    0  0.76360871464E+01 -0.78918081369E+01 -0.37439720555E+02  0.39017102684E+02  0.10566000000E+00 0. -1.
         22    1    1    0    0    0 -0.21843735828E+02 -0.20505727991E+00 -0.17922394967E+02  0.28256027405E+02  0.00000000000E+00 0.  1.
</event>
<event>
 5    1  0.1751027E-003  0.9118800E+02  0.7818608E-02  0.1130116E+00
         25   -1    0    0    0    0  0.00000000000E+00  0.00000000000E+00  0.99999998245E-14  0.12500000000E+03  0.12500000000E+03 0.  0.
        -13    1    3    3    0    0 -0.16417403554E+02  0.27848649381E+02 -0.77703233920E+01  0.33248571420E+02  0.10566000000E+00 0.  1.
         23    2    1    0    0    0  0.26860247761E+02 -0.69873926160E+01  0.15188065123E+02  0.93361828632E+02  0.87837675049E+02 0.  0.
         13    1    3    3    0    0  0.43277651315E+02 -0.34836041998E+02  0.22958388515E+02  0.60113257212E+02  0.10566000000E+00 0. -1.
         22    1    1    0    0    0 -0.26860247761E+02  0.69873926160E+01 -0.15188065123E+02  0.31638171368E+02  0.00000000000E+00 0. -1.
</event>
<event>
 5    1  0.1751027E-003  0.9118800E+02  0.7818608E-02  0.1130116E+00
         25   -1    0    0    0    0  0.00000000000E+00  0.00000000000E+00  0.99999998245E-14  0.12500000000E+03  0.12500000000E+03 0.  0.
        -13    1    3    3    0    0 -0.32493435103E+02 -0.23553571212E+02 -0.27702223246E+01  0.40227842814E+02  0.10566000000E+00 0.  1.
         23    2    1    0    0    0  0.11983012632E+01  0.24209066840E+02  0.76147264530E+01  0.99593329574E+02  0.96298143250E+02 0.  0.
         13    1    3    3    0    0  0.33691736367E+02  0.47762638053E+02  0.10384948778E+02  0.59365486760E+02  0.10566000000E+00 0. -1.
         22    1    1    0    0    0 -0.11983012632E+01 -0.24209066840E+02 -0.76147264530E+01  0.25406670426E+02  0.00000000000E+00 0. -1.
</event>
<event>
 5    1  0.1751027E-003  0.9118800E+02  0.7818608E-02  0.1130116E+00
         25   -1    0    0    0    0  0.00000000000E+00  0.00000000000E+00  0.99999998245E-14  0.12500000000E+03  0.12500000000E+03 0.  0.
        -13    1    3    3    0    0 -0.16308573861E+02 -0.10193825485E+02 -0.38952594712E+02  0.43441909007E+02  0.10566000000E+00 0.  1.
         23    2    1    0    0    0 -0.82517800524E+01 -0.23915657423E+02  0.12128237296E+02  0.96943901128E+02  0.92795340842E+02 0.  0.
         13    1    3    3    0    0  0.80567938082E+01 -0.13721831939E+02  0.51080832008E+02  0.53501992121E+02  0.10566000000E+00 0. -1.
         22    1    1    0    0    0  0.82517800524E+01  0.23915657423E+02 -0.12128237296E+02  0.28056098872E+02  0.00000000000E+00 0.  1.
</event>
<event>
 5    1  0.1751027E-003  0.9118800E+02  0.7818608E-02  0.1130116E+00
         25   -1    0    0    0    0  0.00000000000E+00  0.00000000000E+00  0.99999998245E-14  0.12500000000E+03  0.12500000000E+03 0.  0.
        -13    1    3    3    0    0  0.19958199488E+02  0.12037786616E+02 -0.41099942842E+02  0.47248857119E+02  0.10566000000E+00 0.  1.
         23    2    1    0    0    0 -0.21102254970E+01 -0.23567197359E+02 -0.19264588440E+02  0.94487867810E+02  0.89425762242E+02 0.  0.
         13    1    3    3    0    0 -0.22068424985E+02 -0.35604983975E+02  0.21835354402E+02  0.47239010691E+02  0.10566000000E+00 0. -1.
         22    1    1    0    0    0  0.21102254970E+01  0.23567197359E+02  0.19264588440E+02  0.30512132190E+02  0.00000000000E+00 0. -1.
</event>
<event>
 5    1  0.1751027E-003  0.9118800E+02  0.7818608E-02  0.1130116E+00
         25   -1    0    0    0    0  0.00000000000E+00  0.00000000000E+00  0.99999998245E-14  0.12500000000E+03  0.12500000000E+03 0.  0.
        -13    1    3    3    0    0  0.14115086022E+02 -0.17931378110E+02  0.34086762424E+02  0.41020586428E+02  0.10566000000E+00 0.  1.
         23    2    1    0    0    0 -0.21826514945E+02 -0.14907873330E+02 -0.88770803308E+01  0.97117317255E+02  0.93028647812E+02 0.  0.
         13    1    3    3    0    0 -0.35941600967E+02  0.30235047802E+01 -0.42963842755E+02  0.56096730827E+02  0.10566000000E+00 0. -1.
         22    1    1    0    0    0  0.21826514945E+02  0.14907873330E+02  0.88770803308E+01  0.27882682745E+02  0.00000000000E+00 0. -1.
</event>
<event>
 5    1  0.1751027E-003  0.9118800E+02  0.7818608E-02  0.1130116E+00
         25   -1    0    0    0    0  0.00000000000E+00  0.00000000000E+00  0.99999998245E-14  0.12500000000E+03  0.12500000000E+03 0.  0.
        -13    1    3    3    0    0  0.60740562743E+02  0.78431907205E+01 -0.45860712791E+01  0.61416405111E+02  0.10566000000E+00 0.  1.
         23    2    1    0    0    0  0.27789912261E+02  0.45353407454E+00  0.55159879557E+01  0.96664315082E+02  0.92417956970E+02 0.  0.
         13    1    3    3    0    0 -0.32950650481E+02 -0.73896566459E+01  0.10102059235E+02  0.35247909971E+02  0.10566000000E+00 0. -1.
         22    1    1    0    0    0 -0.27789912261E+02 -0.45353407454E+00 -0.55159879557E+01  0.28335684918E+02  0.00000000000E+00 0.  1.
</event>
<event>
 5    1  0.1751027E-003  0.9118800E+02  0.7818608E-02  0.1130116E+00
         25   -1    0    0    0    0  0.00000000000E+00  0.00000000000E+00  0.99999998245E-14  0.12500000000E+03  0.12500000000E+03 0.  0.
        -13    1    3    3    0    0 -0.27099724707E+02  0.28455093465E+02  0.35521443045E+02  0.52970477658E+02  0.10566000000E+00 0. -1.
         23    2    1    0    0    0 -0.29384882641E+02  0.32064514330E+01  0.14952269469E+01  0.95402899428E+02  0.90695781914E+02 0.  0.
         13    1    3    3    0    0 -0.22851579348E+01 -0.25248642032E+02 -0.34026216098E+02  0.42432421770E+02  0.10566000000E+00 0.  1.
         22    1    1    0    0    0  0.29384882641E+02 -0.32064514330E+01 -0.14952269469E+01  0.29597100572E+02  0.00000000000E+00 0. -1.
</event>
<event>
 5    1  0.1751027E-003  0.9118800E+02  0.7818608E-02  0.1130116E+00
         25   -1    0    0    0    0  0.00000000000E+00  0.00000000000E+00  0.99999998245E-14  0.12500000000E+03  0.12500000000E+03 0.  0.
        -13    1    3    3    0    0  0.38145316367E+02  0.38228238942E+02 -0.57280149061E+01  0.54307317483E+02  0.10566000000E+00 0.  1.
         23    2    1    0    0    0  0.12791466453E+02  0.24386731851E+02  0.18346340853E+02  0.91910386417E+02  0.85747283363E+02 0.  0.
         13    1    3    3    0    0 -0.25353849913E+02 -0.13841507092E+02  0.24074355759E+02  0.37603068934E+02  0.10566000000E+00 0. -1.
         22    1    1    0    0    0 -0.12791466453E+02 -0.24386731851E+02 -0.18346340853E+02  0.33089613583E+02  0.00000000000E+00 0.  1.
</event>
<event>
 5    1  0.1751027E-003  0.9118800E+02  0.7818608E-02  0.1130116E+00
         25   -1    0    0    0    0  0.00000000000E+00  0.00000000000E+00  0.99999998245E-14  0.12500000000E+03  0.12500000000E+03 0.  0.
        -13    1    3    3    0    0  0.11541363156E+02 -0.22846960552E+02 -0.49081440333E+02  0.55355086660E+02  0.10566000000E+00 0. -1.
         23    2    1    0    0    0 -0.15498391471E+02 -0.73187307489E+01 -0.24693587334E+02  0.94941104255E+02  0.90057071148E+02 0.  0.
         13    1    3    3    0    0 -0.27039754627E+02  0.15528229803E+02  0.24387852999E+02  0.39586017595E+02  0.10566000000E+00 0.  1.
         22    1    1    0    0    0  0.15498391471E+02  0.73187307489E+01  0.24693587334E+02  0.30058895745E+02  0.00000000000E+00 0.  1.
</event>
<event>
 5    1  0.1751027E-003  0.9118800E+02  0.7818608E-02  0.1130116E+00
         25   -1    0    0    0    0  0.00000000000E+00  0.00000000000E+00  0.99999998245E-14  0.12500000000E+03  0.12500000000E+03 0.  0.
        -13    1    3    3    0    0  0.16633227166E+02  0.52910546364E+01  0.35744288902E+01  0.17817048326E+02  0.10566000000E+00 0. -1.
         23    2    1    0    0    0 -0.42811906667E+02  0.11207892587E+02 -0.11188023353E+02  0.79353005847E+02  0.64909563715E+02 0.  0.
         13    1    3    3    0    0 -0.59445133833E+02  0.59168379509E+01 -0.14762452243E+02  0.61535957521E+02  0.10566000000E+00 0.  1.
         22    1    1    0    0    0  0.42811906667E+02 -0.11207892587E+02  0.11188023353E+02  0.45646994153E+02  0.00000000000E+00 0.  1.
</event>
<event>
 5    1  0.1751027E-003  0.9118800E+02  0.7818608E-02  0.1130116E+00
         25   -1    0    0    0    0  0.00000000000E+00  0.00000000000E+00  0.99999998245E-14  0.12500000000E+03  0.12500000000E+03 0.  0.
        -13    1    3    3    0    0  0.43557427520E+02  0.12911091088E+02  0.18269378343E+02  0.48966591818E+02  0.10566000000E+00 0. -1.
         23    2    1    0    0    0  0.19795820225E+02  0.12621966980E+02 -0.20096597336E+02  0.94095926267E+02  0.88876214854E+02 0.  0.
         13    1    3    3    0    0 -0.23761607295E+02 -0.28912410835E+00 -0.38365975679E+02  0.45129334449E+02  0.10566000000E+00 0.  1.
         22    1    1    0    0    0 -0.19795820225E+02 -0.12621966980E+02  0.20096597336E+02  0.30904073733E+02  0.00000000000E+00 0. -1.
</event>
<event>
 5    1  0.1751027E-003  0.9118800E+02  0.7818608E-02  0.1130116E+00
         25   -1    0    0    0    0  0.00000000000E+00  0.00000000000E+00  0.99999998245E-14  0.12500000000E+03  0.12500000000E+03 0.  0.
        -13    1    3    3    0    0 -0.37412738211E+02 -0.27108545150E+02  0.16459729916E+02  0.49046101512E+02  0.10566000000E+00 0. -1.
         23    2    1    0    0    0 -0.27384272385E+02  0.52702163638E+01 -0.13255266124E+02  0.94123218519E+02  0.88914591771E+02 0.  0.
         13    1    3    3    0    0  0.10028465826E+02  0.32378761513E+02 -0.29714996040E+02  0.45077117007E+02  0.10566000000E+00 0.  1.
         22    1    1    0    0    0  0.27384272385E+02 -0.52702163638E+01  0.13255266124E+02  0.30876781481E+02  0.00000000000E+00 0. -1.
</event>
<event>
 5    1  0.1751027E-003  0.9118800E+02  0.7818608E-02  0.1130116E+00
         25   -1    0    0    0    0  0.00000000000E+00  0.00000000000E+00  0.99999998245E-14  0.12500000000E+03  0.12500000000E+03 0.  0.
        -13    1    3    3    0    0 -0.38291697529E+02 -0.23474476666E+02 -0.37135613543E+02  0.58278384600E+02  0.10566000000E+00 0.  1.
         23    2    1    0    0    0 -0.13863616228E+02 -0.22375694310E+02 -0.57648856459E+01  0.98053655957E+02  0.94278385589E+02 0.  0.
         13    1    3    3    0    0  0.24428081301E+02  0.10987823559E+01  0.31370727897E+02  0.39775271357E+02  0.10566000000E+00 0. -1.
         22    1    1    0    0    0  0.13863616228E+02  0.22375694310E+02  0.57648856459E+01  0.26946344043E+02  0.00000000000E+00 0.  1.
</event>
<event>
 5    1  0.1751027E-003  0.9118800E+02  0.7818608E-02  0.1130116E+00
         25   -1    0    0    0    0  0.00000000000E+00  0.00000000000E+00  0.99999998245E-14  0.12500000000E+03  0.12500000000E+03 0.  0.
        -13    1    3    3    0    0  0.26183857513E+02 -0.48932593005E+02 -0.48326110601E+00  0.55499889710E+02  0.10566000000E+00 0. -1.
         23    2    1    0    0    0  0.87769439503E+01 -0.18733135930E+02  0.20245205320E+02  0.96054646913E+02  0.91589637669E+02 0.  0.
         13    1    3    3    0    0 -0.17406913563E+02  0.30199457075E+02  0.20728466426E+02  0.40554757204E+02  0.10566000000E+00 0.  1.
         22    1    1    0    0    0 -0.87769439503E+01  0.18733135930E+02 -0.20245205320E+02  0.28945353087E+02  0.00000000000E+00 0. -1.
</event>
<event>
 5    1  0.1751027E-003  0.9118800E+02  0.7818608E-02  0.1130116E+00
         25   -1    0    0    0    0  0.00000000000E+00  0.00000000000E+00  0.99999998245E-14  0.12500000000E+03  0.12500000000E+03 0.  0.
        -13    1    3    3    0    0  0.32824237074E+02  0.35316977572E+02  0.26857263836E+02  0.55190970539E+02  0.10566000000E+00 0.  1.
         23    2    1    0    0    0  0.18979725392E+02 -0.24360540417E+01  0.22230869145E+02  0.95667835433E+02  0.91060193599E+02 0.  0.
         13    1    3    3    0    0 -0.13844511681E+02 -0.37753031614E+02 -0.46263946915E+01  0.40476864893E+02  0.10566000000E+00 0. -1.
         22    1    1    0    0    0 -0.18979725392E+02  0.24360540417E+01 -0.22230869145E+02  0.29332164567E+02  0.00000000000E+00 0.  1.
</event>
<event>
 5    1  0.1751027E-003  0.9118800E+02  0.7818608E-02  0.1130116E+00
         25   -1    0    0    0    0  0.00000000000E+00  0.00000000000E+00  0.99999998245E-14  0.12500000000E+03  0.12500000000E+03 0.  0.
        -13    1    3    3    0    0 -0.21974891408E+02  0.58672831188E+01 -0.36571432101E+02  0.43067408484E+02  0.10566000000E+00 0. -1.
         23    2    1    0    0    0  0.35034760527E+01 -0.28130373462E+02 -0.45031482956E+01  0.96296853828E+02  0.91919603225E+02 0.  0.
         13    1    3    3    0    0  0.25478367461E+02 -0.33997656581E+02  0.32068283805E+02  0.53229445345E+02  0.10566000000E+00 0.  1.
         22    1    1    0    0    0 -0.35034760527E+01  0.28130373462E+02  0.45031482956E+01  0.28703146172E+02  0.00000000000E+00 0.  1.
</event>
<event>
 5    1  0.1751027E-003  0.9118800E+02  0.7818608E-02  0.1130116E+00
         25   -1    0    0    0    0  0.00000000000E+00  0.00000000000E+00  0.99999998245E-14  0.12500000000E+03  0.12500000000E+03 0.  0.
        -13    1    3    3    0    0  0.28857999568E+02 -0.20750838967E+02 -0.36003491436E+02  0.50592924570E+02  0.10566000000E+00 0. -1.
         23    2    1    0    0    0 -0.83510828086E+01 -0.25798585495E+02 -0.10827881324E+02  0.95801530663E+02  0.91243534926E+02 0.  0.
         13    1    3    3    0    0 -0.37209082377E+02 -0.50477465282E+01  0.25175610113E+02  0.45208606093E+02  0.10566000000E+00 0.  1.
         22    1    1    0    0    0  0.83510828086E+01  0.25798585495E+02  0.10827881324E+02  0.29198469337E+02  0.00000000000E+00 0. -1.
</event>
<event>
 5    1  0.1751027E-003  0.9118800E+02  0.7818608E-02  0.1130116E+00
         25   -1    0    0    0    0  0.00000000000E+00  0.00000000000E+00  0.99999998245E-14  0.12500000000E+03  0.12500000000E+03 0.  0.
        -13    1    3    3    0    0 -0.44628850997E+02  0.68061128766E+01  0.43219256378E+02  0.62497782358E+02  0.10566000000E+00 0.  1.
         23    2    1    0    0    0 -0.20029129697E+02  0.34150416914E+01  0.19325622654E+02  0.96958811774E+02  0.92815424061E+02 0.  0.
         13    1    3    3    0    0  0.24599721300E+02 -0.33910711852E+01 -0.23893633724E+02  0.34461029416E+02  0.10566000000E+00 0. -1.
         22    1    1    0    0    0  0.20029129697E+02 -0.34150416914E+01 -0.19325622654E+02  0.28041188226E+02  0.00000000000E+00 0.  1.
</event>
<event>
 5    1  0.1751027E-003  0.9118800E+02  0.7818608E-02  0.1130116E+00
         25   -1    0    0    0    0  0.00000000000E+00  0.00000000000E+00  0.99999998245E-14  0.12500000000E+03  0.12500000000E+03 0.  0.
        -13    1    3    3    0    0 -0.25291323863E+02 -0.32723696214E+02  0.12098700199E+01  0.41375914565E+02  0.10566000000E+00 0.  1.
         23    2    1    0    0    0  0.15419026653E+01  0.69831307751E+01 -0.27056403501E+02  0.97014458204E+02  0.92890336155E+02 0.  0.
         13    1    3    3    0    0  0.26833226528E+02  0.39706826989E+02 -0.28266273520E+02  0.55638543638E+02  0.10566000000E+00 0. -1.
         22    1    1    0    0    0 -0.15419026653E+01 -0.69831307751E+01  0.27056403501E+02  0.27985541796E+02  0.00000000000E+00 0. -1.
</event>
<event>
 5    1  0.1751027E-003  0.9118800E+02  0.7818608E-02  0.1130116E+00
         25   -1    0    0    0    0  0.00000000000E+00  0.00000000000E+00  0.99999998245E-14  0.12500000000E+03  0.12500000000E+03 0.  0.
        -13    1    3    3    0    0 -0.34015354489E+02  0.44285153428E+02  0.13122768663E+02  0.57362334127E+02  0.10566000000E+00 0. -1.
         23    2    1    0    0    0 -0.19292146336E+02  0.10610537399E+02  0.20577598285E+02  0.94863511065E+02  0.89949306647E+02 0.  0.
         13    1    3    3    0    0  0.14723208152E+02 -0.33674616029E+02  0.74548296222E+01  0.37501176938E+02  0.10566000000E+00 0.  1.
         22    1    1    0    0    0  0.19292146336E+02 -0.10610537399E+02 -0.20577598285E+02  0.30136488935E+02  0.00000000000E+00 0. -1.
</event>
<event>
 5    1  0.1751027E-003  0.9118800E+02  0.7818608E-02  0.1130116E+00
         25   -1    0    0    0    0  0.00000000000E+00  0.00000000000E+00  0.99999998245E-14  0.12500000000E+03  0.12500000000E+03 0.  0.
        -13    1    3    3    0    0 -0.13149629656E+02  0.58643149507E+02 -0.29750573392E+00  0.60100178185E+02  0.10566000000E+00 0. -1.
         23    2    1    0    0    0 -0.31274271551E+01  0.26597190185E+02  0.11726176483E+02  0.95764840666E+02  0.91193257243E+02 0.  0.
         13    1    3    3    0    0  0.10022202501E+02 -0.32045959322E+02  0.12023682217E+02  0.35664662481E+02  0.10566000000E+00 0.  1.
         22    1    1    0    0    0  0.31274271551E+01 -0.26597190185E+02 -0.11726176483E+02  0.29235159334E+02  0.00000000000E+00 0. -1.
</event>
<event>
 5    1  0.1751027E-003  0.9118800E+02  0.7818608E-02  0.1130116E+00
         25   -1    0    0    0    0  0.00000000000E+00  0.00000000000E+00  0.99999998245E-14  0.12500000000E+03  0.12500000000E+03 0.  0.
        -13    1    3    3    0    0  0.29297801046E+02 -0.36493804097E+02 -0.86835796619E+01  0.47598052516E+02  0.10566000000E+00 0. -1.
         23    2    1    0    0    0 -0.14622206795E+02 -0.24212576996E+02  0.70652344308E+01  0.95845663206E+02  0.91303974730E+02 0.  0.
         13    1    3    3    0    0 -0.43920007841E+02  0.12281227101E+02  0.15748814093E+02  0.48247610689E+02  0.10566000000E+00 0.  1.
         22    1    1    0    0    0  0.14622206795E+02  0.24212576996E+02 -0.70652344308E+01  0.29154336794E+02  0.00000000000E+00 0. -1.
</event>
<event>
 5    1  0.1751027E-003  0.9118800E+02  0.7818608E-02  0.1130116E+00
         25   -1    0    0    0    0  0.00000000000E+00  0.00000000000E+00  0.99999998245E-14  0.12500000000E+03  0.12500000000E+03 0.  0.
        -13    1    3    3    0    0 -0.33965928791E+02  0.20829099780E+01 -0.13313124811E+01  0.34055930314E+02  0.10566000000E+00 0.  1.
         23    2    1    0    0    0  0.25339010556E+02 -0.76625810744E+01  0.12496225805E+02  0.95726526273E+02  0.91140723983E+02 0.  0.
         13    1    3    3    0    0  0.59304939347E+02 -0.97454910525E+01  0.13827538287E+02  0.61670595959E+02  0.10566000000E+00 0. -1.
         22    1    1    0    0    0 -0.25339010556E+02  0.76625810744E+01 -0.12496225805E+02  0.29273473727E+02  0.00000000000E+00 0. -1.
</event>
<event>
 5    1  0.1751027E-003  0.9118800E+02  0.7818608E-02  0.1130116E+00
         25   -1    0    0    0    0  0.00000000000E+00  0.00000000000E+00  0.99999998245E-14  0.12500000000E+03  0.12500000000E+03 0.  0.
        -13    1    3    3    0    0  0.50711957610E+02 -0.10364986362E+01  0.18665309363E+02  0.54047959366E+02  0.10566000000E+00 0.  1.
         23    2    1    0    0    0  0.13155643242E+02 -0.40889091603E+01  0.28806206938E+02  0.93069016843E+02  0.87419987479E+02 0.  0.
         13    1    3    3    0    0 -0.37556314368E+02 -0.30524105241E+01  0.10140897575E+02  0.39021057477E+02  0.10566000000E+00 0. -1.
         22    1    1    0    0    0 -0.13155643242E+02  0.40889091603E+01 -0.28806206938E+02  0.31930983157E+02  0.00000000000E+00 0.  1.
</event>
<event>
 5    1  0.1751027E-003  0.9118800E+02  0.7818608E-02  0.1130116E+00
         25   -1    0    0    0    0  0.00000000000E+00  0.00000000000E+00  0.99999998245E-14  0.12500000000E+03  0.12500000000E+03 0.  0.
        -13    1    3    3    0    0  0.20821703852E+02  0.10711515018E+02  0.23728950531E+02  0.33336978906E+02  0.10566000000E+00 0. -1.
         23    2    1    0    0    0 -0.23919460067E+02 -0.15814759673E+02 -0.91852079450E+01  0.94889947884E+02  0.89986037645E+02 0.  0.
         13    1    3    3    0    0 -0.44741163919E+02 -0.26526274691E+02 -0.32914158476E+02  0.61552968978E+02  0.10566000000E+00 0.  1.
         22    1    1    0    0    0  0.23919460067E+02  0.15814759673E+02  0.91852079450E+01  0.30110052116E+02  0.00000000000E+00 0.  1.
</event>
<event>
 5    1  0.1751027E-003  0.9118800E+02  0.7818608E-02  0.1130116E+00
         25   -1    0    0    0    0  0.00000000000E+00  0.00000000000E+00  0.99999998245E-14  0.12500000000E+03  0.12500000000E+03 0.  0.
        -13    1    3    3    0    0 -0.17998302352E+02  0.31470451806E+02  0.31647957372E+02  0.48124137335E+02  0.10566000000E+00 0.  1.
         23    2    1    0    0    0 -0.20364927946E+02  0.15963813461E+02 -0.13424886045E+02  0.95848650190E+02  0.91308063978E+02 0.  0.
         13    1    3    3    0    0 -0.23666255933E+01 -0.15506638345E+02 -0.45072843417E+02  0.47724512854E+02  0.10566000000E+00 0. -1.
         22    1    1    0    0    0  0.20364927946E+02 -0.15963813461E+02  0.13424886045E+02  0.29151349810E+02  0.00000000000E+00 0. -1.
</event>
<event>
 5    1  0.1751027E-003  0.9118800E+02  0.7818608E-02  0.1130116E+00
         25   -1    0    0    0    0  0.00000000000E+00  0.00000000000E+00  0.99999998245E-14  0.12500000000E+03  0.12500000000E+03 0.  0.
        -13    1    3    3    0    0  0.12141147507E+02  0.11082123263E+02 -0.11318464847E+02  0.19958450073E+02  0.10566000000E+00 0.  1.
         23    2    1    0    0    0  0.29668119359E+02 -0.21009592812E+02  0.31945071543E+02  0.76604877392E+02  0.59381978309E+02 0.  0.
         13    1    3    3    0    0  0.17526971852E+02 -0.32091716075E+02  0.43263536390E+02  0.56646427318E+02  0.10566000000E+00 0. -1.
         22    1    1    0    0    0 -0.29668119359E+02  0.21009592812E+02 -0.31945071543E+02  0.48395122608E+02  0.00000000000E+00 0. -1.
</event>
<event>
 5    1  0.1751027E-003  0.9118800E+02  0.7818608E-02  0.1130116E+00
         25   -1    0    0    0    0  0.00000000000E+00  0.00000000000E+00  0.99999998245E-14  0.12500000000E+03  0.12500000000E+03 0.  0.
        -13    1    3    3    0    0  0.35591562788E+01  0.10868966077E+02 -0.56160341698E+02  0.57313149981E+02  0.10566000000E+00 0.  1.
         23    2    1    0    0    0  0.19247059562E+02  0.38621844510E+01 -0.22249980925E+02  0.95328002735E+02  0.90592497944E+02 0.  0.
         13    1    3    3    0    0  0.15687903283E+02 -0.70067816261E+01  0.33910360773E+02  0.38014852754E+02  0.10566000000E+00 0. -1.
         22    1    1    0    0    0 -0.19247059562E+02 -0.38621844510E+01  0.22249980925E+02  0.29671997265E+02  0.00000000000E+00 0.  1.
</event>
<event>
 5    1  0.1751027E-003  0.9118800E+02  0.7818608E-02  0.1130116E+00
         25   -1    0    0    0    0  0.00000000000E+00  0.00000000000E+00  0.99999998245E-14  0.12500000000E+03  0.12500000000E+03 0.  0.
        -13    1    3    3    0    0 -0.24766054848E+02  0.70260475102E+01  0.31727651443E+02  0.40858020589E+02  0.10566000000E+00 0. -1.
         23    2    1    0    0    0 -0.16690587207E+02 -0.18127991464E+02 -0.16147795771E+02  0.95538990444E+02  0.90883153615E+02 0.  0.
         13    1    3    3    0    0  0.80754676415E+01 -0.25154038974E+02 -0.47875447213E+02  0.54680969855E+02  0.10566000000E+00 0.  1.
         22    1    1    0    0    0  0.16690587207E+02  0.18127991464E+02  0.16147795771E+02  0.29461009556E+02  0.00000000000E+00 0. -1.
</event>
<event>
 5    1  0.1751027E-003  0.9118800E+02  0.7818608E-02  0.1130116E+00
         25   -1    0    0    0    0  0.00000000000E+00  0.00000000000E+00  0.99999998245E-14  0.12500000000E+03  0.12500000000E+03 0.  0.
        -13    1    3    3    0    0 -0.77307461203E+01 -0.24041377354E+02  0.34056716136E+02  0.42398388397E+02  0.10566000000E+00 0. -1.
         23    2    1    0    0    0 -0.25289050113E+02 -0.36109457952E+01 -0.12784754424E+02  0.96433849912E+02  0.92105713601E+02 0.  0.
         13    1    3    3    0    0 -0.17558303993E+02  0.20430431559E+02 -0.46841470561E+02  0.54035461515E+02  0.10566000000E+00 0.  1.
         22    1    1    0    0    0  0.25289050113E+02  0.36109457952E+01  0.12784754424E+02  0.28566150088E+02  0.00000000000E+00 0.  1.
</event>
<event>
 5    1  0.1751027E-003  0.9118800E+02  0.7818608E-02  0.1130116E+00
         25   -1    0    0    0    0  0.00000000000E+00  0.00000000000E+00  0.99999998245E-14  0.12500000000E+03  0.12500000000E+03 0.  0.
        -13    1    3    3    0    0  0.22323399731E+02 -0.53350668101E+02  0.28503212342E+01  0.57903052230E+02  0.10566000000E+00 0. -1.
         23    2    1    0    0    0 -0.33147104589E+01 -0.27423300253E+02 -0.85119321378E+01  0.96095369041E+02  0.91645197693E+02 0.  0.
         13    1    3    3    0    0 -0.25638110190E+02  0.25927367848E+02 -0.11362253372E+02  0.38192316811E+02  0.10566000000E+00 0.  1.
         22    1    1    0    0    0  0.33147104589E+01  0.27423300253E+02  0.85119321378E+01  0.28904630959E+02  0.00000000000E+00 0.  1.
</event>
<event>
 5    1  0.1751027E-003  0.9118800E+02  0.7818608E-02  0.1130116E+00
         25   -1    0    0    0    0  0.00000000000E+00  0.00000000000E+00  0.99999998245E-14  0.12500000000E+03  0.12500000000E+03 0.  0.
        -13    1    3    3    0    0 -0.42661427730E+02 -0.20087694061E+02 -0.33089760396E+02  0.57606043743E+02  0.10566000000E+00 0. -1.
         23    2    1    0    0    0 -0.11052503318E+02 -0.22641847625E+02 -0.23001955249E+02  0.90884006115E+02  0.84237767828E+02 0.  0.
         13    1    3    3    0    0  0.31608924411E+02 -0.25541535646E+01  0.10087805147E+02  0.33277962372E+02  0.10566000000E+00 0.  1.
         22    1    1    0    0    0  0.11052503318E+02  0.22641847625E+02  0.23001955249E+02  0.34115993885E+02  0.00000000000E+00 0. -1.
</event>
<event>
 5    1  0.1751027E-003  0.9118800E+02  0.7818608E-02  0.1130116E+00
         25   -1    0    0    0    0  0.00000000000E+00  0.00000000000E+00  0.99999998245E-14  0.12500000000E+03  0.12500000000E+03 0.  0.
        -13    1    3    3    0    0  0.18498458926E+02 -0.96305398585E+01 -0.52736052128E+02  0.56710163452E+02  0.10566000000E+00 0. -1.
         23    2    1    0    0    0  0.26853946209E+02  0.35957208576E+01 -0.38894440046E+02  0.77599144502E+02  0.61439288126E+02 0.  0.
         13    1    3    3    0    0  0.83554872824E+01  0.13226260716E+02  0.13841612082E+02  0.20888981050E+02  0.10566000000E+00 0.  1.
         22    1    1    0    0    0 -0.26853946209E+02 -0.35957208576E+01  0.38894440046E+02  0.47400855498E+02  0.00000000000E+00 0. -1.
</event>
<event>
 5    1  0.1751027E-003  0.9118800E+02  0.7818608E-02  0.1130116E+00
         25   -1    0    0    0    0  0.00000000000E+00  0.00000000000E+00  0.99999998245E-14  0.12500000000E+03  0.12500000000E+03 0.  0.
        -13    1    3    3    0    0 -0.40148233315E+02 -0.17141503973E+02  0.89159860463E+01  0.44555782655E+02  0.10566000000E+00 0.  1.
         23    2    1    0    0    0  0.80446094672E+01 -0.27515588852E+02 -0.52677356761E+01  0.95852574548E+02  0.91313436234E+02 0.  0.
         13    1    3    3    0    0  0.48192842782E+02 -0.10374084879E+02 -0.14183721722E+02  0.51296791893E+02  0.10566000000E+00 0. -1.
         22    1    1    0    0    0 -0.80446094672E+01  0.27515588852E+02  0.52677356761E+01  0.29147425452E+02  0.00000000000E+00 0. -1.
</event>
<event>
 5    1  0.1751027E-003  0.9118800E+02  0.7818608E-02  0.1130116E+00
         25   -1    0    0    0    0  0.00000000000E+00  0.00000000000E+00  0.99999998245E-14  0.12500000000E+03  0.12500000000E+03 0.  0.
        -13    1    3    3    0    0 -0.16717816486E+02  0.30801066871E+02 -0.50240654522E+01  0.35404004098E+02  0.10566000000E+00 0.  1.
         23    2    1    0    0    0 -0.49714256636E+00 -0.23868122454E+02  0.16088289454E+02  0.96211678101E+02  0.91803701043E+02 0.  0.
         13    1    3    3    0    0  0.16220673920E+02 -0.54669189325E+02  0.21112354906E+02  0.60807674003E+02  0.10566000000E+00 0. -1.
         22    1    1    0    0    0  0.49714256636E+00  0.23868122454E+02 -0.16088289454E+02  0.28788321899E+02  0.00000000000E+00 0. -1.
</event>
<event>
 5    1  0.1751027E-003  0.9118800E+02  0.7818608E-02  0.1130116E+00
         25   -1    0    0    0    0  0.00000000000E+00  0.00000000000E+00  0.99999998245E-14  0.12500000000E+03  0.12500000000E+03 0.  0.
        -13    1    3    3    0    0 -0.61945835285E+01  0.11449465846E+02 -0.37823991280E+02  0.40001607638E+02  0.10566000000E+00 0.  1.
         23    2    1    0    0    0 -0.19610469190E+02 -0.25431368999E+02 -0.25242367144E+01  0.92786698368E+02  0.87015369861E+02 0.  0.
         13    1    3    3    0    0 -0.13415885661E+02 -0.36880834846E+02  0.35299754565E+02  0.52785090730E+02  0.10566000000E+00 0. -1.
         22    1    1    0    0    0  0.19610469190E+02  0.25431368999E+02  0.25242367144E+01  0.32213301632E+02  0.00000000000E+00 0. -1.
</event>
<event>
 5    1  0.1751027E-003  0.9118800E+02  0.7818608E-02  0.1130116E+00
         25   -1    0    0    0    0  0.00000000000E+00  0.00000000000E+00  0.99999998245E-14  0.12500000000E+03  0.12500000000E+03 0.  0.
        -13    1    3    3    0    0 -0.15748029794E+02  0.14209062016E+02 -0.32797712406E+02  0.39058916893E+02  0.10566000000E+00 0. -1.
         23    2    1    0    0    0 -0.15676163593E+02 -0.22689048306E+02  0.10089467092E+02  0.95634503849E+02  0.91014427220E+02 0.  0.
         13    1    3    3    0    0  0.71866200974E-01 -0.36898110322E+02  0.42887179498E+02  0.56575586956E+02  0.10566000000E+00 0.  1.
         22    1    1    0    0    0  0.15676163593E+02  0.22689048306E+02 -0.10089467092E+02  0.29365496151E+02  0.00000000000E+00 0.  1.
</event>
<event>
 5    1  0.1751027E-003  0.9118800E+02  0.7818608E-02  0.1130116E+00
         25   -1    0    0    0    0  0.00000000000E+00  0.00000000000E+00  0.99999998245E-14  0.12500000000E+03  0.12500000000E+03 0.  0.
        -13    1    3    3    0    0 -0.28808500585E+02 -0.33913413253E+02 -0.43025139206E+02  0.61896874494E+02  0.10566000000E+00 0.  1.
         23    2    1    0    0    0 -0.16819282963E+02 -0.17077909506E+02 -0.14983275672E+02  0.96732672176E+02  0.92510367224E+02 0.  0.
         13    1    3    3    0    0  0.11989217622E+02  0.16835503747E+02  0.28041863534E+02  0.34835797682E+02  0.10566000000E+00 0. -1.
         22    1    1    0    0    0  0.16819282963E+02  0.17077909506E+02  0.14983275672E+02  0.28267327824E+02  0.00000000000E+00 0.  1.
</event>
<event>
 5    1  0.1751027E-003  0.9118800E+02  0.7818608E-02  0.1130116E+00
         25   -1    0    0    0    0  0.00000000000E+00  0.00000000000E+00  0.99999998245E-14  0.12500000000E+03  0.12500000000E+03 0.  0.
        -13    1    3    3    0    0 -0.30529534215E+02  0.20134272017E+02  0.32911884702E+02  0.49200047639E+02  0.10566000000E+00 0. -1.
         23    2    1    0    0    0  0.71111899572E+01  0.28193382008E+02  0.88042420647E+01  0.94619899770E+02  0.89610127455E+02 0.  0.
         13    1    3    3    0    0  0.37640724172E+02  0.80591099907E+01 -0.24107642637E+02  0.45419852131E+02  0.10566000000E+00 0.  1.
         22    1    1    0    0    0 -0.71111899572E+01 -0.28193382008E+02 -0.88042420647E+01  0.30380100230E+02  0.00000000000E+00 0. -1.
</event>
<event>
 5    1  0.1751027E-003  0.9118800E+02  0.7818608E-02  0.1130116E+00
         25   -1    0    0    0    0  0.00000000000E+00  0.00000000000E+00  0.99999998245E-14  0.12500000000E+03  0.12500000000E+03 0.  0.
        -13    1    3    3    0    0 -0.39472231248E+01 -0.31786075178E+02  0.34648490441E+02  0.47185423591E+02  0.10566000000E+00 0.  1.
         23    2    1    0    0    0 -0.24228286944E+02 -0.12946559727E+02 -0.64931178536E+01  0.96772639576E+02  0.92564355419E+02 0.  0.
         13    1    3    3    0    0 -0.20281063820E+02  0.18839515451E+02 -0.41141608294E+02  0.49587215985E+02  0.10566000000E+00 0. -1.
         22    1    1    0    0    0  0.24228286944E+02  0.12946559727E+02  0.64931178536E+01  0.28227360424E+02  0.00000000000E+00 0. -1.
</event>
<event>
 5    1  0.1751027E-003  0.9118800E+02  0.7818608E-02  0.1130116E+00
         25   -1    0    0    0    0  0.00000000000E+00  0.00000000000E+00  0.99999998245E-14  0.12500000000E+03  0.12500000000E+03 0.  0.
        -13    1    3    3    0    0 -0.43766006334E+02 -0.37971940850E+02 -0.22275871612E+02  0.62077026527E+02  0.10566000000E+00 0.  1.
         23    2    1    0    0    0 -0.17589653789E+02 -0.21893063538E+02 -0.11851033425E+02  0.94518052150E+02  0.89467944189E+02 0.  0.
         13    1    3    3    0    0  0.26176352545E+02  0.16078877312E+02  0.10424838186E+02  0.32441025623E+02  0.10566000000E+00 0. -1.
         22    1    1    0    0    0  0.17589653789E+02  0.21893063538E+02  0.11851033425E+02  0.30481947850E+02  0.00000000000E+00 0.  1.
</event>
<event>
 5    1  0.1751027E-003  0.9118800E+02  0.7818608E-02  0.1130116E+00
         25   -1    0    0    0    0  0.00000000000E+00  0.00000000000E+00  0.99999998245E-14  0.12500000000E+03  0.12500000000E+03 0.  0.
        -13    1    3    3    0    0 -0.20014243655E+02  0.21607242994E+02 -0.83740520744E+01  0.30619908737E+02  0.10566000000E+00 0. -1.
         23    2    1    0    0    0  0.18130118138E+02 -0.37548481955E+01  0.29577341158E+02  0.90105599609E+02  0.83074664623E+02 0.  0.
         13    1    3    3    0    0  0.38144361793E+02 -0.25362091190E+02  0.37951393233E+02  0.59485690872E+02  0.10566000000E+00 0.  1.
         22    1    1    0    0    0 -0.18130118138E+02  0.37548481955E+01 -0.29577341158E+02  0.34894400391E+02  0.00000000000E+00 0.  1.
</event>
<event>
 5    1  0.1751027E-003  0.9118800E+02  0.7818608E-02  0.1130116E+00
         25   -1    0    0    0    0  0.00000000000E+00  0.00000000000E+00  0.99999998245E-14  0.12500000000E+03  0.12500000000E+03 0.  0.
        -13    1    3    3    0    0  0.36503501788E+01 -0.53153893086E+02  0.25608358613E+02  0.59113962831E+02  0.10566000000E+00 0.  1.
         23    2    1    0    0    0 -0.95427434052E+01 -0.27929246830E+02  0.32583170737E+01  0.95306172185E+02  0.90562371028E+02 0.  0.
         13    1    3    3    0    0 -0.13193093584E+02  0.25224646257E+02 -0.22350041539E+02  0.36192209354E+02  0.10566000000E+00 0. -1.
         22    1    1    0    0    0  0.95427434052E+01  0.27929246830E+02 -0.32583170737E+01  0.29693827815E+02  0.00000000000E+00 0.  1.
</event>
<event>
 5    1  0.1751027E-003  0.9118800E+02  0.7818608E-02  0.1130116E+00
         25   -1    0    0    0    0  0.00000000000E+00  0.00000000000E+00  0.99999998245E-14  0.12500000000E+03  0.12500000000E+03 0.  0.
        -13    1    3    3    0    0  0.24509359220E+02  0.36034552976E+02  0.51004238784E+01  0.43877365296E+02  0.10566000000E+00 0. -1.
         23    2    1    0    0    0  0.12947162464E+02 -0.83961172361E+01  0.26347571379E+02  0.94466111972E+02  0.89395346596E+02 0.  0.
         13    1    3    3    0    0 -0.11562196756E+02 -0.44430670212E+02  0.21247147501E+02  0.50588746676E+02  0.10566000000E+00 0.  1.
         22    1    1    0    0    0 -0.12947162464E+02  0.83961172361E+01 -0.26347571379E+02  0.30533888028E+02  0.00000000000E+00 0.  1.
</event>
<event>
 5    1  0.1751027E-003  0.9118800E+02  0.7818608E-02  0.1130116E+00
         25   -1    0    0    0    0  0.00000000000E+00  0.00000000000E+00  0.99999998245E-14  0.12500000000E+03  0.12500000000E+03 0.  0.
        -13    1    3    3    0    0 -0.27682397314E+02  0.31570678333E+02  0.19125252970E+02  0.46139021626E+02  0.10566000000E+00 0.  1.
         23    2    1    0    0    0  0.19248289135E+02  0.15487155149E+02 -0.23200867229E+01  0.10018606416E+03  0.97064494236E+02 0.  0.
         13    1    3    3    0    0  0.46930686449E+02 -0.16083523184E+02 -0.21445339693E+02  0.54047042538E+02  0.10566000000E+00 0. -1.
         22    1    1    0    0    0 -0.19248289135E+02 -0.15487155149E+02  0.23200867229E+01  0.24813935835E+02  0.00000000000E+00 0. -1.
</event>
<event>
 5    1  0.1751027E-003  0.9118800E+02  0.7818608E-02  0.1130116E+00
         25   -1    0    0    0    0  0.00000000000E+00  0.00000000000E+00  0.99999998245E-14  0.12500000000E+03  0.12500000000E+03 0.  0.
        -13    1    3    3    0    0  0.23484128601E+02  0.53409601929E+00 -0.57080563385E+02  0.61725128068E+02  0.10566000000E+00 0. -1.
         23    2    1    0    0    0  0.11928164396E+02 -0.65908077328E+01 -0.25888969574E+02  0.95743229877E+02  0.91163630188E+02 0.  0.
         13    1    3    3    0    0 -0.11555964204E+02 -0.71249037521E+01  0.31191593810E+02  0.34018101808E+02  0.10566000000E+00 0.  1.
         22    1    1    0    0    0 -0.11928164396E+02  0.65908077328E+01  0.25888969574E+02  0.29256770123E+02  0.00000000000E+00 0. -1.
</event>
<event>
 5    1  0.1751027E-003  0.9118800E+02  0.7818608E-02  0.1130116E+00
         25   -1    0    0    0    0  0.00000000000E+00  0.00000000000E+00  0.99999998245E-14  0.12500000000E+03  0.12500000000E+03 0.  0.
        -13    1    3    3    0    0  0.22156201643E+02  0.17097603356E+02  0.22292988328E+02  0.35780075523E+02  0.10566000000E+00 0. -1.
         23    2    1    0    0    0  0.73253792681E+01 -0.11678585772E+02 -0.26959988021E+02  0.94719783668E+02  0.89749350510E+02 0.  0.
         13    1    3    3    0    0 -0.14830822375E+02 -0.28776189128E+02 -0.49252976349E+02  0.58939708145E+02  0.10566000000E+00 0.  1.
         22    1    1    0    0    0 -0.73253792681E+01  0.11678585772E+02  0.26959988021E+02  0.30280216332E+02  0.00000000000E+00 0.  1.
</event>
<event>
 5    1  0.1751027E-003  0.9118800E+02  0.7818608E-02  0.1130116E+00
         25   -1    0    0    0    0  0.00000000000E+00  0.00000000000E+00  0.99999998245E-14  0.12500000000E+03  0.12500000000E+03 0.  0.
        -13    1    3    3    0    0  0.26868983468E+02  0.31041995313E+02  0.80925118331E+01  0.41845521354E+02  0.10566000000E+00 0.  1.
         23    2    1    0    0    0  0.67484146611E+01 -0.18289289751E+02  0.20670307891E+02  0.96586959889E+02  0.92313270835E+02 0.  0.
         13    1    3    3    0    0 -0.20120568807E+02 -0.49331285064E+02  0.12577796058E+02  0.54741438535E+02  0.10566000000E+00 0. -1.
         22    1    1    0    0    0 -0.67484146611E+01  0.18289289751E+02 -0.20670307891E+02  0.28413040111E+02  0.00000000000E+00 0. -1.
</event>
<event>
 5    1  0.1751027E-003  0.9118800E+02  0.7818608E-02  0.1130116E+00
         25   -1    0    0    0    0  0.00000000000E+00  0.00000000000E+00  0.99999998245E-14  0.12500000000E+03  0.12500000000E+03 0.  0.
        -13    1    3    3    0    0 -0.16654641316E+02  0.34090921881E+02 -0.12492768358E+02  0.39945568683E+02  0.10566000000E+00 0.  1.
         23    2    1    0    0    0  0.26849214273E+02  0.55286123429E+01  0.88500499011E+01  0.96194284513E+02  0.91780014862E+02 0.  0.
         13    1    3    3    0    0  0.43503855589E+02 -0.28562309538E+02  0.21342818259E+02  0.56248715830E+02  0.10566000000E+00 0. -1.
         22    1    1    0    0    0 -0.26849214273E+02 -0.55286123429E+01 -0.88500499011E+01  0.28805715487E+02  0.00000000000E+00 0. -1.
</event>
<event>
 5    1  0.1751027E-003  0.9118800E+02  0.7818608E-02  0.1130116E+00
         25   -1    0    0    0    0  0.00000000000E+00  0.00000000000E+00  0.99999998245E-14  0.12500000000E+03  0.12500000000E+03 0.  0.
        -13    1    3    3    0    0  0.11473184497E+02 -0.37070305365E+02 -0.35305957855E+02  0.52462971003E+02  0.10566000000E+00 0.  1.
         23    2    1    0    0    0 -0.19005000190E+02 -0.19775446168E+02 -0.21588406205E+02  0.90095593604E+02  0.83059607518E+02 0.  0.
         13    1    3    3    0    0 -0.30478184688E+02  0.17294859196E+02  0.13717551651E+02  0.37632622601E+02  0.10566000000E+00 0. -1.
         22    1    1    0    0    0  0.19005000190E+02  0.19775446168E+02  0.21588406205E+02  0.34904406396E+02  0.00000000000E+00 0.  1.
</event>
<event>
 5    1  0.1751027E-003  0.9118800E+02  0.7818608E-02  0.1130116E+00
         25   -1    0    0    0    0  0.00000000000E+00  0.00000000000E+00  0.99999998245E-14  0.12500000000E+03  0.12500000000E+03 0.  0.
        -13    1    3    3    0    0 -0.35325764619E+02 -0.10877719004E+02 -0.37811529455E+01  0.37155654997E+02  0.10566000000E+00 0. -1.
         23    2    1    0    0    0  0.13342449257E+02  0.88405573690E+01  0.23683387425E+02  0.96415401932E+02  0.92080673776E+02 0.  0.
         13    1    3    3    0    0  0.48668213876E+02  0.19718276373E+02  0.27464540371E+02  0.59259746935E+02  0.10566000000E+00 0.  1.
         22    1    1    0    0    0 -0.13342449257E+02 -0.88405573690E+01 -0.23683387425E+02  0.28584598068E+02  0.00000000000E+00 0.  1.
</event>
<event>
 5    1  0.1751027E-003  0.9118800E+02  0.7818608E-02  0.1130116E+00
         25   -1    0    0    0    0  0.00000000000E+00  0.00000000000E+00  0.99999998245E-14  0.12500000000E+03  0.12500000000E+03 0.  0.
        -13    1    3    3    0    0  0.55143310575E+02  0.36124647567E+01  0.24583877297E+02  0.60483161209E+02  0.10566000000E+00 0. -1.
         23    2    1    0    0    0  0.17070231297E+02 -0.49461099147E+01  0.17333797147E+02  0.10017426087E+03  0.97049292721E+02 0.  0.
         13    1    3    3    0    0 -0.38073079278E+02 -0.85585746713E+01 -0.72500801506E+01  0.39691099662E+02  0.10566000000E+00 0.  1.
         22    1    1    0    0    0 -0.17070231297E+02  0.49461099147E+01 -0.17333797147E+02  0.24825739130E+02  0.00000000000E+00 0. -1.
</event>
<event>
 5    1  0.1751027E-003  0.9118800E+02  0.7818608E-02  0.1130116E+00
         25   -1    0    0    0    0  0.00000000000E+00  0.00000000000E+00  0.99999998245E-14  0.12500000000E+03  0.12500000000E+03 0.  0.
        -13    1    3    3    0    0 -0.37165917655E+02  0.10893978624E+02 -0.48386544117E+02  0.61977842984E+02  0.10566000000E+00 0. -1.
         23    2    1    0    0    0 -0.18154876639E+02 -0.17544036231E+00 -0.25210107114E+02  0.93932656602E+02  0.88646286727E+02 0.  0.
         13    1    3    3    0    0  0.19011041015E+02 -0.11069418986E+02  0.23176437003E+02  0.31954813618E+02  0.10566000000E+00 0.  1.
         22    1    1    0    0    0  0.18154876639E+02  0.17544036231E+00  0.25210107114E+02  0.31067343398E+02  0.00000000000E+00 0. -1.
</event>
<event>
 5    1  0.1751027E-003  0.9118800E+02  0.7818608E-02  0.1130116E+00
         25   -1    0    0    0    0  0.00000000000E+00  0.00000000000E+00  0.99999998245E-14  0.12500000000E+03  0.12500000000E+03 0.  0.
        -13    1    3    3    0    0  0.35198979278E+01 -0.86362758886E+01 -0.42159967663E+02  0.43179265627E+02  0.10566000000E+00 0.  1.
         23    2    1    0    0    0 -0.26253102598E+02 -0.11627020659E+02  0.16579467082E+01  0.96239579407E+02  0.91841683628E+02 0.  0.
         13    1    3    3    0    0 -0.29773000525E+02 -0.29907447705E+01  0.43817914371E+02  0.53060313780E+02  0.10566000000E+00 0. -1.
         22    1    1    0    0    0  0.26253102598E+02  0.11627020659E+02 -0.16579467082E+01  0.28760420593E+02  0.00000000000E+00 0.  1.
</event>
<event>
 5    1  0.1751027E-003  0.9118800E+02  0.7818608E-02  0.1130116E+00
         25   -1    0    0    0    0  0.00000000000E+00  0.00000000000E+00  0.99999998245E-14  0.12500000000E+03  0.12500000000E+03 0.  0.
        -13    1    3    3    0    0 -0.22278018101E+02 -0.54992438639E+02  0.39820490861E+01  0.59467186557E+02  0.10566000000E+00 0. -1.
         23    2    1    0    0    0 -0.33840473828E+01 -0.26097350290E+02 -0.10180796937E+02  0.96783478330E+02  0.92578991043E+02 0.  0.
         13    1    3    3    0    0  0.18893970718E+02  0.28895088349E+02 -0.14162846023E+02  0.37316291773E+02  0.10566000000E+00 0.  1.
         22    1    1    0    0    0  0.33840473828E+01  0.26097350290E+02  0.10180796937E+02  0.28216521670E+02  0.00000000000E+00 0. -1.
</event>
<event>
 5    1  0.1751027E-003  0.9118800E+02  0.7818608E-02  0.1130116E+00
         25   -1    0    0    0    0  0.00000000000E+00  0.00000000000E+00  0.99999998245E-14  0.12500000000E+03  0.12500000000E+03 0.  0.
        -13    1    3    3    0    0 -0.20661397469E+02 -0.14735642004E+02 -0.31144762950E+02  0.40175115605E+02  0.10566000000E+00 0.  1.
         23    2    1    0    0    0  0.22619117356E+02  0.14296727258E+02 -0.11592953953E+02  0.95838081997E+02  0.91293595061E+02 0.  0.
         13    1    3    3    0    0  0.43280514824E+02  0.29032369263E+02  0.19551808996E+02  0.55662966392E+02  0.10566000000E+00 0. -1.
         22    1    1    0    0    0 -0.22619117356E+02 -0.14296727258E+02  0.11592953953E+02  0.29161918003E+02  0.00000000000E+00 0. -1.
</event>
<event>
 5    1  0.1751027E-003  0.9118800E+02  0.7818608E-02  0.1130116E+00
         25   -1    0    0    0    0  0.00000000000E+00  0.00000000000E+00  0.99999998245E-14  0.12500000000E+03  0.12500000000E+03 0.  0.
        -13    1    3    3    0    0  0.96166926290E+00 -0.31140230030E+02  0.37410530225E+02  0.48684675924E+02  0.10566000000E+00 0. -1.
         23    2    1    0    0    0 -0.17447410152E+02 -0.23988222924E+02 -0.44837258703E+01  0.95000820716E+02  0.90139920007E+02 0.  0.
         13    1    3    3    0    0 -0.18409079415E+02  0.71520071069E+01 -0.41894256095E+02  0.46316144792E+02  0.10566000000E+00 0.  1.
         22    1    1    0    0    0  0.17447410152E+02  0.23988222924E+02  0.44837258703E+01  0.29999179284E+02  0.00000000000E+00 0.  1.
</event>
<event>
 5    1  0.1751027E-003  0.9118800E+02  0.7818608E-02  0.1130116E+00
         25   -1    0    0    0    0  0.00000000000E+00  0.00000000000E+00  0.99999998245E-14  0.12500000000E+03  0.12500000000E+03 0.  0.
        -13    1    3    3    0    0  0.36615940307E+02  0.72881090449E+01 -0.11184465905E+02  0.38973671365E+02  0.10566000000E+00 0.  1.
         23    2    1    0    0    0 -0.19650887370E+02  0.12824124314E+02  0.10190044343E+02  0.99417729918E+02  0.96069935357E+02 0.  0.
         13    1    3    3    0    0 -0.56266827678E+02  0.55360152688E+01  0.21374510248E+02  0.60444058553E+02  0.10566000000E+00 0. -1.
         22    1    1    0    0    0  0.19650887370E+02 -0.12824124314E+02 -0.10190044343E+02  0.25582270082E+02  0.00000000000E+00 0. -1.
</event>
<event>
 4    1  0.1751027E-003  0.9118800E+02  0.7818608E-02  0.1130116E+00
         25   -1    0    0    0    0  0.00000000000E+00  0.00000000000E+00  0.99999998245E-14  0.12500000000E+03  0.12500000000E+03 0.  0.
        -13    1    1    0    0    0  0.11958661782E+00  0.34534023703E+02  0.96497600352E+01  0.35857246504E+02  0.10566000000E+00 0. -1.
         13    1    1    0    0    0  0.35227458415E-01  0.11577254336E+02  0.27558249583E+02  0.29891509548E+02  0.10566000000E+00 0.  1.
         22    1    1    0    0    0 -0.15481407624E+00 -0.46111278038E+02 -0.37208009618E+02  0.59251243949E+02  0.00000000000E+00 0. -1.
</event>
<event>
 5    1  0.1751027E-003  0.9118800E+02  0.7818608E-02  0.1130116E+00
         25   -1    0    0    0    0  0.00000000000E+00  0.00000000000E+00  0.99999998245E-14  0.12500000000E+03  0.12500000000E+03 0.  0.
        -13    1    3    3    0    0  0.20090995798E+02  0.34709411128E+02 -0.29586249606E+02  0.49837221660E+02  0.10566000000E+00 0. -1.
         23    2    1    0    0    0  0.11185160695E+02  0.35660027448E+02  0.65415113165E+01  0.87058772454E+02  0.78356193843E+02 0.  0.
         13    1    3    3    0    0 -0.89058351026E+01  0.95061632026E+00  0.36127760922E+02  0.37221550794E+02  0.10566000000E+00 0.  1.
         22    1    1    0    0    0 -0.11185160695E+02 -0.35660027448E+02 -0.65415113165E+01  0.37941227546E+02  0.00000000000E+00 0. -1.
</event>
<event>
 5    1  0.1751027E-003  0.9118800E+02  0.7818608E-02  0.1130116E+00
         25   -1    0    0    0    0  0.00000000000E+00  0.00000000000E+00  0.99999998245E-14  0.12500000000E+03  0.12500000000E+03 0.  0.
        -13    1    3    3    0    0 -0.39372636743E+02 -0.97663435418E+01  0.39078237116E+02  0.56326776673E+02  0.10566000000E+00 0. -1.
         23    2    1    0    0    0 -0.22947048255E+02 -0.18840503856E+02  0.54836650716E+01  0.94807249351E+02  0.89871087329E+02 0.  0.
         13    1    3    3    0    0  0.16425588488E+02 -0.90741603138E+01 -0.33594572045E+02  0.38480472678E+02  0.10566000000E+00 0.  1.
         22    1    1    0    0    0  0.22947048255E+02  0.18840503856E+02 -0.54836650716E+01  0.30192750649E+02  0.00000000000E+00 0. -1.
</event>
<event>
 5    1  0.1751027E-003  0.9118800E+02  0.7818608E-02  0.1130116E+00
         25   -1    0    0    0    0  0.00000000000E+00  0.00000000000E+00  0.99999998245E-14  0.12500000000E+03  0.12500000000E+03 0.  0.
        -13    1    3    3    0    0  0.28563095450E+02  0.32759711035E+02 -0.29932024194E+02  0.52772969645E+02  0.10566000000E+00 0.  1.
         23    2    1    0    0    0  0.27499124129E+02 -0.10182796686E+01 -0.67339158997E+00  0.97473791078E+02  0.93506404966E+02 0.  0.
         13    1    3    3    0    0 -0.10639713208E+01 -0.33777990704E+02  0.29258632604E+02  0.44700821433E+02  0.10566000000E+00 0. -1.
         22    1    1    0    0    0 -0.27499124129E+02  0.10182796686E+01  0.67339158997E+00  0.27526208922E+02  0.00000000000E+00 0. -1.
</event>
<event>
 5    1  0.1751027E-003  0.9118800E+02  0.7818608E-02  0.1130116E+00
         25   -1    0    0    0    0  0.00000000000E+00  0.00000000000E+00  0.99999998245E-14  0.12500000000E+03  0.12500000000E+03 0.  0.
        -13    1    3    3    0    0 -0.29842515389E+02 -0.37921173555E+02  0.31208667194E+02  0.57468105943E+02  0.10566000000E+00 0.  1.
         23    2    1    0    0    0 -0.18169548812E+02 -0.27751087534E+01  0.23275496026E+02  0.95342244726E+02  0.90612146986E+02 0.  0.
         13    1    3    3    0    0  0.11672966577E+02  0.35146064802E+02 -0.79331711684E+01  0.37874138783E+02  0.10566000000E+00 0. -1.
         22    1    1    0    0    0  0.18169548812E+02  0.27751087534E+01 -0.23275496026E+02  0.29657755274E+02  0.00000000000E+00 0.  1.
</event>
<event>
 5    1  0.1751027E-003  0.9118800E+02  0.7818608E-02  0.1130116E+00
         25   -1    0    0    0    0  0.00000000000E+00  0.00000000000E+00  0.99999998245E-14  0.12500000000E+03  0.12500000000E+03 0.  0.
        -13    1    3    3    0    0  0.22382355131E+02  0.46801691013E+02 -0.27368902657E+02  0.58655230795E+02  0.10566000000E+00 0.  1.
         23    2    1    0    0    0  0.52825202407E+01  0.13865007356E+02 -0.25108615080E+02  0.95835192435E+02  0.91289638562E+02 0.  0.
         13    1    3    3    0    0 -0.17099834891E+02 -0.32936683657E+02  0.22602875770E+01  0.37179961641E+02  0.10566000000E+00 0. -1.
         22    1    1    0    0    0 -0.52825202407E+01 -0.13865007356E+02  0.25108615080E+02  0.29164807565E+02  0.00000000000E+00 0.  1.
</event>
<event>
 5    1  0.1751027E-003  0.9118800E+02  0.7818608E-02  0.1130116E+00
         25   -1    0    0    0    0  0.00000000000E+00  0.00000000000E+00  0.99999998245E-14  0.12500000000E+03  0.12500000000E+03 0.  0.
        -13    1    3    3    0    0  0.10086123966E+02 -0.28545673336E+02  0.93315938979E+01  0.31680832874E+02  0.10566000000E+00 0. -1.
         23    2    1    0    0    0 -0.12911532479E+02  0.26417265231E+02 -0.93898358459E+01  0.94133374164E+02  0.88928867873E+02 0.  0.
         13    1    3    3    0    0 -0.22997656445E+02  0.54962938567E+02 -0.18721429744E+02  0.62452541290E+02  0.10566000000E+00 0.  1.
         22    1    1    0    0    0  0.12911532479E+02 -0.26417265231E+02  0.93898358459E+01  0.30866625836E+02  0.00000000000E+00 0.  1.
</event>
<event>
 5    1  0.1751027E-003  0.9118800E+02  0.7818608E-02  0.1130116E+00
         25   -1    0    0    0    0  0.00000000000E+00  0.00000000000E+00  0.99999998245E-14  0.12500000000E+03  0.12500000000E+03 0.  0.
        -13    1    3    3    0    0  0.23371078661E+02  0.29566568300E+01 -0.48687136855E+02  0.54086944788E+02  0.10566000000E+00 0.  1.
         23    2    1    0    0    0 -0.95384201267E+01 -0.81329869284E+01 -0.27526206476E+02  0.94754025427E+02  0.89797028664E+02 0.  0.
         13    1    3    3    0    0 -0.32909498788E+02 -0.11089643758E+02  0.21160930379E+02  0.40667080639E+02  0.10566000000E+00 0. -1.
         22    1    1    0    0    0  0.95384201267E+01  0.81329869284E+01  0.27526206476E+02  0.30245974573E+02  0.00000000000E+00 0.  1.
</event>
<event>
 5    1  0.1751027E-003  0.9118800E+02  0.7818608E-02  0.1130116E+00
         25   -1    0    0    0    0  0.00000000000E+00  0.00000000000E+00  0.99999998245E-14  0.12500000000E+03  0.12500000000E+03 0.  0.
        -13    1    3    3    0    0 -0.31124672375E+02  0.42636091405E+02 -0.25575316546E+02  0.58657390848E+02  0.10566000000E+00 0. -1.
         23    2    1    0    0    0 -0.22492159899E+02  0.17817102912E+02  0.13420083184E+01  0.96274620987E+02  0.91889364166E+02 0.  0.
         13    1    3    3    0    0  0.86325124755E+01 -0.24818988493E+02  0.26917324864E+02  0.37617230139E+02  0.10566000000E+00 0.  1.
         22    1    1    0    0    0  0.22492159899E+02 -0.17817102912E+02 -0.13420083184E+01  0.28725379013E+02  0.00000000000E+00 0. -1.
</event>
<event>
 5    1  0.1751027E-003  0.9118800E+02  0.7818608E-02  0.1130116E+00
         25   -1    0    0    0    0  0.00000000000E+00  0.00000000000E+00  0.99999998245E-14  0.12500000000E+03  0.12500000000E+03 0.  0.
        -13    1    3    3    0    0  0.52292033966E+02  0.29989715211E+02  0.25933615546E+01  0.60337190214E+02  0.10566000000E+00 0.  1.
         23    2    1    0    0    0  0.16433825847E+02  0.11454818662E+02  0.11815928698E+02  0.10174275009E+03  0.99048914793E+02 0.  0.
         13    1    3    3    0    0 -0.35858208119E+02 -0.18534896549E+02  0.92225671434E+01  0.41405559873E+02  0.10566000000E+00 0. -1.
         22    1    1    0    0    0 -0.16433825847E+02 -0.11454818662E+02 -0.11815928698E+02  0.23257249913E+02  0.00000000000E+00 0.  1.
</event>
<event>
 5    1  0.1751027E-003  0.9118800E+02  0.7818608E-02  0.1130116E+00
         25   -1    0    0    0    0  0.00000000000E+00  0.00000000000E+00  0.99999998245E-14  0.12500000000E+03  0.12500000000E+03 0.  0.
        -13    1    3    3    0    0 -0.19258609157E+02 -0.30762283206E+02 -0.68270698299E+01  0.36930098039E+02  0.10566000000E+00 0. -1.
         23    2    1    0    0    0  0.27546562955E+02 -0.39988407211E+00  0.10754846705E+02  0.95425690785E+02  0.90727188297E+02 0.  0.
         13    1    3    3    0    0  0.46805172112E+02  0.30362399133E+02  0.17581916535E+02  0.58495592746E+02  0.10566000000E+00 0.  1.
         22    1    1    0    0    0 -0.27546562955E+02  0.39988407211E+00 -0.10754846705E+02  0.29574309215E+02  0.00000000000E+00 0.  1.
</event>
<event>
 5    1  0.1751027E-003  0.9118800E+02  0.7818608E-02  0.1130116E+00
         25   -1    0    0    0    0  0.00000000000E+00  0.00000000000E+00  0.99999998245E-14  0.12500000000E+03  0.12500000000E+03 0.  0.
        -13    1    3    3    0    0  0.43095566237E+02 -0.25249741129E+02  0.37536873218E+02  0.62480439110E+02  0.10566000000E+00 0.  1.
         23    2    1    0    0    0  0.20412559161E+02 -0.12758217832E+02  0.17005865426E+02  0.95527230320E+02  0.90866977390E+02 0.  0.
         13    1    3    3    0    0 -0.22683007076E+02  0.12491523297E+02 -0.20531007792E+02  0.33046791210E+02  0.10566000000E+00 0. -1.
         22    1    1    0    0    0 -0.20412559161E+02  0.12758217832E+02 -0.17005865426E+02  0.29472769680E+02  0.00000000000E+00 0.  1.
</event>
<event>
 5    1  0.1751027E-003  0.9118800E+02  0.7818608E-02  0.1130116E+00
         25   -1    0    0    0    0  0.00000000000E+00  0.00000000000E+00  0.99999998245E-14  0.12500000000E+03  0.12500000000E+03 0.  0.
        -13    1    3    3    0    0  0.29099352900E+02  0.13913991576E+02 -0.21278448600E+02  0.38641364361E+02  0.10566000000E+00 0.  1.
         23    2    1    0    0    0 -0.24153709024E+02  0.16427007902E+02 -0.71894267142E+00  0.95780740482E+02  0.91215048761E+02 0.  0.
         13    1    3    3    0    0 -0.53253061924E+02  0.25130163260E+01  0.20559505929E+02  0.57139376121E+02  0.10566000000E+00 0. -1.
         22    1    1    0    0    0  0.24153709024E+02 -0.16427007902E+02  0.71894267142E+00  0.29219259518E+02  0.00000000000E+00 0. -1.
</event>
<event>
 5    1  0.1751027E-003  0.9118800E+02  0.7818608E-02  0.1130116E+00
         25   -1    0    0    0    0  0.00000000000E+00  0.00000000000E+00  0.99999998245E-14  0.12500000000E+03  0.12500000000E+03 0.  0.
        -13    1    3    3    0    0  0.11953660705E+02  0.40127082931E+02  0.36029232596E+02  0.55237573755E+02  0.10566000000E+00 0. -1.
         23    2    1    0    0    0  0.25927023519E+01 -0.81956873335E+01 -0.27586655303E+00  0.11639956404E+03  0.11608139821E+03 0.  0.
         13    1    3    3    0    0 -0.93609583527E+01 -0.48322770265E+02 -0.36305099149E+02  0.61161990285E+02  0.10566000000E+00 0.  1.
         22    1    1    0    0    0 -0.25927023519E+01  0.81956873335E+01  0.27586655303E+00  0.86004359604E+01  0.00000000000E+00 0.  1.
</event>
<event>
 5    1  0.1751027E-003  0.9118800E+02  0.7818608E-02  0.1130116E+00
         25   -1    0    0    0    0  0.00000000000E+00  0.00000000000E+00  0.99999998245E-14  0.12500000000E+03  0.12500000000E+03 0.  0.
        -13    1    3    3    0    0 -0.23389768988E+02  0.22187513987E+02 -0.28355595015E+02  0.42935043995E+02  0.10566000000E+00 0.  1.
         23    2    1    0    0    0  0.22647884847E+02 -0.67961351885E+00 -0.19520382290E+02  0.95092912423E+02  0.90267536278E+02 0.  0.
         13    1    3    3    0    0  0.46037653835E+02 -0.22867127506E+02  0.88352127251E+01  0.52157868428E+02  0.10566000000E+00 0. -1.
         22    1    1    0    0    0 -0.22647884847E+02  0.67961351885E+00  0.19520382290E+02  0.29907087577E+02  0.00000000000E+00 0. -1.
</event>
<event>
 5    1  0.1751027E-003  0.9118800E+02  0.7818608E-02  0.1130116E+00
         25   -1    0    0    0    0  0.00000000000E+00  0.00000000000E+00  0.99999998245E-14  0.12500000000E+03  0.12500000000E+03 0.  0.
        -13    1    3    3    0    0  0.25291097333E+02 -0.10238502927E+02 -0.33948260590E+02  0.43554128479E+02  0.10566000000E+00 0.  1.
         23    2    1    0    0    0  0.25046555947E+02  0.10363966073E+02  0.13083740205E+02  0.94901395127E+02  0.90001937655E+02 0.  0.
         13    1    3    3    0    0 -0.24454138544E+00  0.20602469000E+02  0.47032000795E+02  0.51347266647E+02  0.10566000000E+00 0. -1.
         22    1    1    0    0    0 -0.25046555947E+02 -0.10363966073E+02 -0.13083740205E+02  0.30098604873E+02  0.00000000000E+00 0. -1.
</event>
<event>
 5    1  0.1751027E-003  0.9118800E+02  0.7818608E-02  0.1130116E+00
         25   -1    0    0    0    0  0.00000000000E+00  0.00000000000E+00  0.99999998245E-14  0.12500000000E+03  0.12500000000E+03 0.  0.
        -13    1    3    3    0    0 -0.45399592435E+02  0.16743508154E+01  0.20898387704E+02  0.50006801703E+02  0.10566000000E+00 0.  1.
         23    2    1    0    0    0 -0.75589132849E+01  0.25582926188E+02  0.12464141622E+02  0.95555508007E+02  0.90905868907E+02 0.  0.
         13    1    3    3    0    0  0.37840679150E+02  0.23908575372E+02 -0.84342460818E+01  0.45548706303E+02  0.10566000000E+00 0. -1.
         22    1    1    0    0    0  0.75589132849E+01 -0.25582926188E+02 -0.12464141622E+02  0.29444491993E+02  0.00000000000E+00 0.  1.
</event>
<event>
 5    1  0.1751027E-003  0.9118800E+02  0.7818608E-02  0.1130116E+00
         25   -1    0    0    0    0  0.00000000000E+00  0.00000000000E+00  0.99999998245E-14  0.12500000000E+03  0.12500000000E+03 0.  0.
        -13    1    3    3    0    0  0.54601071307E+00  0.34594446154E+02 -0.51536516894E+02  0.62073324142E+02  0.10566000000E+00 0.  1.
         23    2    1    0    0    0  0.24269497940E+01  0.21433739824E+02 -0.23507923882E+02  0.93095176330E+02  0.87457384380E+02 0.  0.
         13    1    3    3    0    0  0.18809390809E+01 -0.13160706330E+02  0.28028593012E+02  0.31021852188E+02  0.10566000000E+00 0. -1.
         22    1    1    0    0    0 -0.24269497940E+01 -0.21433739824E+02  0.23507923882E+02  0.31904823670E+02  0.00000000000E+00 0.  1.
</event>
<event>
 5    1  0.1751027E-003  0.9118800E+02  0.7818608E-02  0.1130116E+00
         25   -1    0    0    0    0  0.00000000000E+00  0.00000000000E+00  0.99999998245E-14  0.12500000000E+03  0.12500000000E+03 0.  0.
        -13    1    3    3    0    0  0.15477546946E+01 -0.20364266986E+02  0.56295727013E+02  0.59885882797E+02  0.10566000000E+00 0. -1.
         23    2    1    0    0    0 -0.96705823282E+01 -0.18181352938E+02  0.29441193964E+02  0.89071381056E+02  0.81503651844E+02 0.  0.
         13    1    3    3    0    0 -0.11218337023E+02  0.21829140482E+01 -0.26854533049E+02  0.29185498258E+02  0.10566000000E+00 0.  1.
         22    1    1    0    0    0  0.96705823282E+01  0.18181352938E+02 -0.29441193964E+02  0.35928618944E+02  0.00000000000E+00 0. -1.
</event>
<event>
 5    1  0.1751027E-003  0.9118800E+02  0.7818608E-02  0.1130116E+00
         25   -1    0    0    0    0  0.00000000000E+00  0.00000000000E+00  0.99999998245E-14  0.12500000000E+03  0.12500000000E+03 0.  0.
        -13    1    3    3    0    0  0.42360408616E+02  0.86520002446E+00 -0.32903182591E+02  0.53644975327E+02  0.10566000000E+00 0.  1.
         23    2    1    0    0    0  0.42217326205E+02 -0.87501040847E+01 -0.69420327252E+01  0.81330115964E+02  0.68611434841E+02 0.  0.
         13    1    3    3    0    0 -0.14308241146E+00 -0.96153041092E+01  0.25961149865E+02  0.27685140637E+02  0.10566000000E+00 0. -1.
         22    1    1    0    0    0 -0.42217326205E+02  0.87501040847E+01  0.69420327252E+01  0.43669884036E+02  0.00000000000E+00 0.  1.
</event>
<event>
 5    1  0.1751027E-003  0.9118800E+02  0.7818608E-02  0.1130116E+00
         25   -1    0    0    0    0  0.00000000000E+00  0.00000000000E+00  0.99999998245E-14  0.12500000000E+03  0.12500000000E+03 0.  0.
        -13    1    3    3    0    0  0.25160309384E+02 -0.26067445971E+02 -0.41026459400E+02  0.54733302866E+02  0.10566000000E+00 0. -1.
         23    2    1    0    0    0  0.13079954888E+02 -0.25344928074E+02 -0.10955857360E+01  0.96457909904E+02  0.92138360502E+02 0.  0.
         13    1    3    3    0    0 -0.12080354496E+02  0.72251789718E+00  0.39930873664E+02  0.41724607038E+02  0.10566000000E+00 0.  1.
         22    1    1    0    0    0 -0.13079954888E+02  0.25344928074E+02  0.10955857360E+01  0.28542090096E+02  0.00000000000E+00 0. -1.
</event>
<event>
 5    1  0.1751027E-003  0.9118800E+02  0.7818608E-02  0.1130116E+00
         25   -1    0    0    0    0  0.00000000000E+00  0.00000000000E+00  0.99999998245E-14  0.12500000000E+03  0.12500000000E+03 0.  0.
        -13    1    3    3    0    0 -0.91985602751E+01  0.24493964857E+02 -0.54018109397E+02  0.60021122386E+02  0.10566000000E+00 0.  1.
         23    2    1    0    0    0  0.68075781111E+01  0.17250707285E+02 -0.27933375457E+02  0.91470856170E+02  0.85104136459E+02 0.  0.
         13    1    3    3    0    0  0.16006138386E+02 -0.72432575727E+01  0.26084733940E+02  0.31449733784E+02  0.10566000000E+00 0. -1.
         22    1    1    0    0    0 -0.68075781111E+01 -0.17250707285E+02  0.27933375457E+02  0.33529143830E+02  0.00000000000E+00 0.  1.
</event>
<event>
 5    1  0.1751027E-003  0.9118800E+02  0.7818608E-02  0.1130116E+00
         25   -1    0    0    0    0  0.00000000000E+00  0.00000000000E+00  0.99999998245E-14  0.12500000000E+03  0.12500000000E+03 0.  0.
        -13    1    3    3    0    0  0.38988028000E+00 -0.20959524120E+02  0.31741286783E+02  0.38039112879E+02  0.10566000000E+00 0. -1.
         23    2    1    0    0    0 -0.10456711323E+02  0.26832204249E+02  0.42224687662E+00  0.96199161662E+02  0.91786657067E+02 0.  0.
         13    1    3    3    0    0 -0.10846591603E+02  0.47791728368E+02 -0.31319039906E+02  0.58160048783E+02  0.10566000000E+00 0.  1.
         22    1    1    0    0    0  0.10456711323E+02 -0.26832204249E+02 -0.42224687662E+00  0.28800838338E+02  0.00000000000E+00 0.  1.
</event>
<event>
 5    1  0.1751027E-003  0.9118800E+02  0.7818608E-02  0.1130116E+00
         25   -1    0    0    0    0  0.00000000000E+00  0.00000000000E+00  0.99999998245E-14  0.12500000000E+03  0.12500000000E+03 0.  0.
        -13    1    3    3    0    0  0.14210167648E+02  0.15202884455E+02 -0.58879605030E+02  0.62448984082E+02  0.10566000000E+00 0.  1.
         23    2    1    0    0    0  0.74062584636E+01  0.87252485617E+01 -0.27254778896E+02  0.95439797031E+02  0.90746621192E+02 0.  0.
         13    1    3    3    0    0 -0.68039091841E+01 -0.64776358935E+01  0.31624826134E+02  0.32990812949E+02  0.10566000000E+00 0. -1.
         22    1    1    0    0    0 -0.74062584636E+01 -0.87252485617E+01  0.27254778896E+02  0.29560202969E+02  0.00000000000E+00 0.  1.
</event>
<event>
 5    1  0.1751027E-003  0.9118800E+02  0.7818608E-02  0.1130116E+00
         25   -1    0    0    0    0  0.00000000000E+00  0.00000000000E+00  0.99999998245E-14  0.12500000000E+03  0.12500000000E+03 0.  0.
        -13    1    3    3    0    0 -0.54087132554E+02 -0.10520967633E+02  0.24248751905E+02  0.60200679405E+02  0.10566000000E+00 0. -1.
         23    2    1    0    0    0 -0.29500494970E+02  0.34390927153E+01  0.38797626523E+01  0.95047385416E+02  0.90204469701E+02 0.  0.
         13    1    3    3    0    0  0.24586637584E+02  0.13960060349E+02 -0.20368989252E+02  0.34846706011E+02  0.10566000000E+00 0.  1.
         22    1    1    0    0    0  0.29500494970E+02 -0.34390927153E+01 -0.38797626523E+01  0.29952614584E+02  0.00000000000E+00 0. -1.
</event>
<event>
 5    1  0.1751027E-003  0.9118800E+02  0.7818608E-02  0.1130116E+00
         25   -1    0    0    0    0  0.00000000000E+00  0.00000000000E+00  0.99999998245E-14  0.12500000000E+03  0.12500000000E+03 0.  0.
        -13    1    3    3    0    0  0.13423477050E+02  0.47117117269E+02  0.36143401683E+02  0.60881599233E+02  0.10566000000E+00 0. -1.
         23    2    1    0    0    0  0.14869227879E+02  0.19168591765E+02  0.11580557255E+02  0.98118070116E+02  0.94363751138E+02 0.  0.
         13    1    3    3    0    0  0.14457508290E+01 -0.27948525505E+02 -0.24562844428E+02  0.37236470882E+02  0.10566000000E+00 0.  1.
         22    1    1    0    0    0 -0.14869227879E+02 -0.19168591765E+02 -0.11580557255E+02  0.26881929884E+02  0.00000000000E+00 0. -1.
</event>
<event>
 5    1  0.1751027E-003  0.9118800E+02  0.7818608E-02  0.1130116E+00
         25   -1    0    0    0    0  0.00000000000E+00  0.00000000000E+00  0.99999998245E-14  0.12500000000E+03  0.12500000000E+03 0.  0.
        -13    1    3    3    0    0 -0.28646134674E+02 -0.50006456413E+02 -0.18624872853E+02  0.60565202613E+02  0.10566000000E+00 0. -1.
         23    2    1    0    0    0 -0.12058963904E+02 -0.25220041928E+02  0.22275511383E+01  0.96956620935E+02  0.92812473482E+02 0.  0.
         13    1    3    3    0    0  0.16587170769E+02  0.24786414485E+02  0.20852423991E+02  0.36391418322E+02  0.10566000000E+00 0.  1.
         22    1    1    0    0    0  0.12058963904E+02  0.25220041928E+02 -0.22275511383E+01  0.28043379065E+02  0.00000000000E+00 0. -1.
</event>
<event>
 5    1  0.1751027E-003  0.9118800E+02  0.7818608E-02  0.1130116E+00
         25   -1    0    0    0    0  0.00000000000E+00  0.00000000000E+00  0.99999998245E-14  0.12500000000E+03  0.12500000000E+03 0.  0.
        -13    1    3    3    0    0  0.21572679650E+02  0.34939150282E+01  0.35223151843E+02  0.41452014900E+02  0.10566000000E+00 0. -1.
         23    2    1    0    0    0  0.23641430609E+02 -0.46692792330E+01 -0.17737293963E+02  0.95077917737E+02  0.90246769662E+02 0.  0.
         13    1    3    3    0    0  0.20687509594E+01 -0.81631942612E+01 -0.52960445806E+02  0.53625902837E+02  0.10566000000E+00 0.  1.
         22    1    1    0    0    0 -0.23641430609E+02  0.46692792330E+01  0.17737293963E+02  0.29922082263E+02  0.00000000000E+00 0.  1.
</event>
<event>
 5    1  0.1751027E-003  0.9118800E+02  0.7818608E-02  0.1130116E+00
         25   -1    0    0    0    0  0.00000000000E+00  0.00000000000E+00  0.99999998245E-14  0.12500000000E+03  0.12500000000E+03 0.  0.
        -13    1    3    3    0    0  0.49290526753E+02  0.25171377811E+02 -0.13568580076E+02  0.56984838491E+02  0.10566000000E+00 0.  1.
         23    2    1    0    0    0  0.22201248701E+02 -0.62759238953E+00  0.94003764503E+01  0.10088244636E+03  0.97957192643E+02 0.  0.
         13    1    3    3    0    0 -0.27089278053E+02 -0.25798970201E+02  0.22968956526E+02  0.43897607871E+02  0.10566000000E+00 0. -1.
         22    1    1    0    0    0 -0.22201248701E+02  0.62759238953E+00 -0.94003764503E+01  0.24117553638E+02  0.00000000000E+00 0.  1.
</event>
<event>
 5    1  0.1751027E-003  0.9118800E+02  0.7818608E-02  0.1130116E+00
         25   -1    0    0    0    0  0.00000000000E+00  0.00000000000E+00  0.99999998245E-14  0.12500000000E+03  0.12500000000E+03 0.  0.
        -13    1    3    3    0    0 -0.34345705615E+02 -0.16039325206E+02 -0.48475393547E+02  0.61536675169E+02  0.10566000000E+00 0. -1.
         23    2    1    0    0    0 -0.91155829950E+01 -0.43844747425E+01 -0.25400598263E+02  0.97659409951E+02  0.93754213173E+02 0.  0.
         13    1    3    3    0    0  0.25230122620E+02  0.11654850464E+02  0.23074795284E+02  0.36122734783E+02  0.10566000000E+00 0.  1.
         22    1    1    0    0    0  0.91155829950E+01  0.43844747425E+01  0.25400598263E+02  0.27340590049E+02  0.00000000000E+00 0. -1.
</event>
<event>
 5    1  0.1751027E-003  0.9118800E+02  0.7818608E-02  0.1130116E+00
         25   -1    0    0    0    0  0.00000000000E+00  0.00000000000E+00  0.99999998245E-14  0.12500000000E+03  0.12500000000E+03 0.  0.
        -13    1    3    3    0    0 -0.30699373214E+02 -0.22006351171E+02  0.43710757521E+00  0.37774769816E+02  0.10566000000E+00 0.  1.
         23    2    1    0    0    0  0.32713036883E+01  0.23423763814E+02  0.15814555921E+02  0.96548737849E+02  0.92261500433E+02 0.  0.
         13    1    3    3    0    0  0.33970676902E+02  0.45430114985E+02  0.15377448346E+02  0.58773968033E+02  0.10566000000E+00 0. -1.
         22    1    1    0    0    0 -0.32713036883E+01 -0.23423763814E+02 -0.15814555921E+02  0.28451262151E+02  0.00000000000E+00 0. -1.
</event>
<event>
 5    1  0.1751027E-003  0.9118800E+02  0.7818608E-02  0.1130116E+00
         25   -1    0    0    0    0  0.00000000000E+00  0.00000000000E+00  0.99999998245E-14  0.12500000000E+03  0.12500000000E+03 0.  0.
        -13    1    3    3    0    0 -0.10715463358E+02  0.16065619423E+02  0.25342821252E+02  0.31862125407E+02  0.10566000000E+00 0.  1.
         23    2    1    0    0    0  0.10877164119E+02 -0.33283632751E+02  0.15871654457E+02  0.86554944095E+02  0.77548281887E+02 0.  0.
         13    1    3    3    0    0  0.21592627477E+02 -0.49349252173E+02 -0.94711667951E+01  0.54692818687E+02  0.10566000000E+00 0. -1.
         22    1    1    0    0    0 -0.10877164119E+02  0.33283632751E+02 -0.15871654457E+02  0.38445055905E+02  0.00000000000E+00 0. -1.
</event>
<event>
 5    1  0.1751027E-003  0.9118800E+02  0.7818608E-02  0.1130116E+00
         25   -1    0    0    0    0  0.00000000000E+00  0.00000000000E+00  0.99999998245E-14  0.12500000000E+03  0.12500000000E+03 0.  0.
        -13    1    3    3    0    0  0.37045985958E+02  0.10773574100E+02 -0.12634966294E+02  0.40597149060E+02  0.10566000000E+00 0. -1.
         23    2    1    0    0    0 -0.51247546536E+01  0.20935811178E+02  0.20555034346E+02  0.95216099367E+02  0.90437961287E+02 0.  0.
         13    1    3    3    0    0 -0.42170740611E+02  0.10162237078E+02  0.33190000640E+02  0.54618950307E+02  0.10566000000E+00 0.  1.
         22    1    1    0    0    0  0.51247546536E+01 -0.20935811178E+02 -0.20555034346E+02  0.29783900633E+02  0.00000000000E+00 0. -1.
</event>
<event>
 5    1  0.1751027E-003  0.9118800E+02  0.7818608E-02  0.1130116E+00
         25   -1    0    0    0    0  0.00000000000E+00  0.00000000000E+00  0.99999998245E-14  0.12500000000E+03  0.12500000000E+03 0.  0.
        -13    1    3    3    0    0 -0.41449985745E+02 -0.14143945070E+02  0.40217181026E+02  0.59460788038E+02  0.10566000000E+00 0.  1.
         23    2    1    0    0    0 -0.12305908953E+02  0.12555632539E+01  0.27598497372E+02  0.94756175978E+02  0.89800022241E+02 0.  0.
         13    1    3    3    0    0  0.29144076792E+02  0.15399508324E+02 -0.12618683653E+02  0.35295387940E+02  0.10566000000E+00 0. -1.
         22    1    1    0    0    0  0.12305908953E+02 -0.12555632539E+01 -0.27598497372E+02  0.30243824022E+02  0.00000000000E+00 0.  1.
</event>
<event>
 5    1  0.1751027E-003  0.9118800E+02  0.7818608E-02  0.1130116E+00
         25   -1    0    0    0    0  0.00000000000E+00  0.00000000000E+00  0.99999998245E-14  0.12500000000E+03  0.12500000000E+03 0.  0.
        -13    1    3    3    0    0 -0.48801619912E+01  0.32724903404E+01 -0.46145442046E+02  0.46518148714E+02  0.10566000000E+00 0.  1.
         23    2    1    0    0    0 -0.73674538603E+01 -0.27298442045E+02 -0.77089050528E+01  0.95692807511E+02  0.91094466779E+02 0.  0.
         13    1    3    3    0    0 -0.24872918692E+01 -0.30570932386E+02  0.38436536993E+02  0.49174658797E+02  0.10566000000E+00 0. -1.
         22    1    1    0    0    0  0.73674538603E+01  0.27298442045E+02  0.77089050528E+01  0.29307192489E+02  0.00000000000E+00 0.  1.
</event>
<event>
 5    1  0.1751027E-003  0.9118800E+02  0.7818608E-02  0.1130116E+00
         25   -1    0    0    0    0  0.00000000000E+00  0.00000000000E+00  0.99999998245E-14  0.12500000000E+03  0.12500000000E+03 0.  0.
        -13    1    3    3    0    0  0.41783712147E+02  0.63444035327E+01 -0.96886533110E+00  0.42273868063E+02  0.10566000000E+00 0.  1.
         23    2    1    0    0    0 -0.82639803099E+01  0.26954371858E+02 -0.42025932288E+01  0.96495731501E+02  0.92189657095E+02 0.  0.
         13    1    3    3    0    0 -0.50047692457E+02  0.20609968325E+02 -0.32337278977E+01  0.54221863438E+02  0.10566000000E+00 0. -1.
         22    1    1    0    0    0  0.82639803099E+01 -0.26954371858E+02  0.42025932288E+01  0.28504268499E+02  0.00000000000E+00 0. -1.
</event>
<event>
 5    1  0.1751027E-003  0.9118800E+02  0.7818608E-02  0.1130116E+00
         25   -1    0    0    0    0  0.00000000000E+00  0.00000000000E+00  0.99999998245E-14  0.12500000000E+03  0.12500000000E+03 0.  0.
        -13    1    3    3    0    0 -0.57542953447E+01 -0.52227954620E+01  0.33750610889E+02  0.34633862140E+02  0.10566000000E+00 0.  1.
         23    2    1    0    0    0  0.88029693463E+01  0.21574033480E+02 -0.18577504645E+02  0.95199750526E+02  0.90415361701E+02 0.  0.
         13    1    3    3    0    0  0.14557264691E+02  0.26796828942E+02 -0.52328115533E+02  0.60565888386E+02  0.10566000000E+00 0. -1.
         22    1    1    0    0    0 -0.88029693463E+01 -0.21574033480E+02  0.18577504645E+02  0.29800249474E+02  0.00000000000E+00 0. -1.
</event>
<event>
 5    1  0.1751027E-003  0.9118800E+02  0.7818608E-02  0.1130116E+00
         25   -1    0    0    0    0  0.00000000000E+00  0.00000000000E+00  0.99999998245E-14  0.12500000000E+03  0.12500000000E+03 0.  0.
        -13    1    3    3    0    0  0.50840813589E+02  0.88038570969E+01 -0.11160024868E+02  0.52790657746E+02  0.10566000000E+00 0. -1.
         23    2    1    0    0    0  0.17742358883E+02 -0.97758848030E+01 -0.24668687976E+02  0.93079733885E+02  0.87435310208E+02 0.  0.
         13    1    3    3    0    0 -0.33098454707E+02 -0.18579741900E+02 -0.13508663109E+02  0.40289076138E+02  0.10566000000E+00 0.  1.
         22    1    1    0    0    0 -0.17742358883E+02  0.97758848030E+01  0.24668687976E+02  0.31920266115E+02  0.00000000000E+00 0. -1.
</event>
<event>
 5    1  0.1751027E-003  0.9118800E+02  0.7818608E-02  0.1130116E+00
         25   -1    0    0    0    0  0.00000000000E+00  0.00000000000E+00  0.99999998245E-14  0.12500000000E+03  0.12500000000E+03 0.  0.
        -13    1    3    3    0    0 -0.31854652040E+02 -0.41368655220E+02  0.71446985120E+01  0.52698599338E+02  0.10566000000E+00 0. -1.
         23    2    1    0    0    0  0.73563633608E+01 -0.25226976164E+02  0.13302644682E+02  0.95547041510E+02  0.90894226315E+02 0.  0.
         13    1    3    3    0    0  0.39211015401E+02  0.16141679056E+02  0.61579461703E+01  0.42848442172E+02  0.10566000000E+00 0.  1.
         22    1    1    0    0    0 -0.73563633608E+01  0.25226976164E+02 -0.13302644682E+02  0.29452958490E+02  0.00000000000E+00 0. -1.
</event>
<event>
 5    1  0.1751027E-003  0.9118800E+02  0.7818608E-02  0.1130116E+00
         25   -1    0    0    0    0  0.00000000000E+00  0.00000000000E+00  0.99999998245E-14  0.12500000000E+03  0.12500000000E+03 0.  0.
        -13    1    3    3    0    0 -0.23112661596E+02 -0.23867795447E+02  0.31212151216E+02  0.45585922532E+02  0.10566000000E+00 0.  1.
         23    2    1    0    0    0  0.15947105284E+02  0.99327629509E-01  0.29524506884E+02  0.91443830080E+02  0.85064431581E+02 0.  0.
         13    1    3    3    0    0  0.39059766880E+02  0.23967123077E+02 -0.16876443319E+01  0.45857907548E+02  0.10566000000E+00 0. -1.
         22    1    1    0    0    0 -0.15947105284E+02 -0.99327629509E-01 -0.29524506884E+02  0.33556169920E+02  0.00000000000E+00 0.  1.
</event>
<event>
 5    1  0.1751027E-003  0.9118800E+02  0.7818608E-02  0.1130116E+00
         25   -1    0    0    0    0  0.00000000000E+00  0.00000000000E+00  0.99999998245E-14  0.12500000000E+03  0.12500000000E+03 0.  0.
        -13    1    3    3    0    0 -0.11280484225E+02  0.40830462522E+01  0.43463453396E+02  0.45088840484E+02  0.10566000000E+00 0. -1.
         23    2    1    0    0    0 -0.22937139898E+02  0.25922852848E+01 -0.10011018065E+02  0.99839459219E+02  0.96617104100E+02 0.  0.
         13    1    3    3    0    0 -0.11656655673E+02 -0.14907609674E+01 -0.53474471461E+02  0.54750618735E+02  0.10566000000E+00 0.  1.
         22    1    1    0    0    0  0.22937139898E+02 -0.25922852848E+01  0.10011018065E+02  0.25160540781E+02  0.00000000000E+00 0.  1.
</event>
<event>
 5    1  0.1751027E-003  0.9118800E+02  0.7818608E-02  0.1130116E+00
         25   -1    0    0    0    0  0.00000000000E+00  0.00000000000E+00  0.99999998245E-14  0.12500000000E+03  0.12500000000E+03 0.  0.
        -13    1    3    3    0    0 -0.16773692997E+02 -0.37183155736E+02  0.11397466071E+02  0.42353951930E+02  0.10566000000E+00 0.  1.
         23    2    1    0    0    0  0.13930742332E+02  0.50726944657E+01  0.24643407474E+02  0.96240734658E+02  0.91843255956E+02 0.  0.
         13    1    3    3    0    0  0.30704435329E+02  0.42255850201E+02  0.13245941403E+02  0.53886782728E+02  0.10566000000E+00 0. -1.
         22    1    1    0    0    0 -0.13930742332E+02 -0.50726944657E+01 -0.24643407474E+02  0.28759265342E+02  0.00000000000E+00 0. -1.
</event>
<event>
 5    1  0.1751027E-003  0.9118800E+02  0.7818608E-02  0.1130116E+00
         25   -1    0    0    0    0  0.00000000000E+00  0.00000000000E+00  0.99999998245E-14  0.12500000000E+03  0.12500000000E+03 0.  0.
        -13    1    3    3    0    0 -0.33024998177E+02 -0.28843340240E+02  0.22270437720E+02  0.49178982716E+02  0.10566000000E+00 0.  1.
         23    2    1    0    0    0  0.13243998790E+02 -0.21819376163E+02  0.10227621700E+02  0.97502856044E+02  0.93545251141E+02 0.  0.
         13    1    3    3    0    0  0.46268996967E+02  0.70239640769E+01 -0.12042816019E+02  0.48323873328E+02  0.10566000000E+00 0. -1.
         22    1    1    0    0    0 -0.13243998790E+02  0.21819376163E+02 -0.10227621700E+02  0.27497143956E+02  0.00000000000E+00 0.  1.
</event>
<event>
 5    1  0.1751027E-003  0.9118800E+02  0.7818608E-02  0.1130116E+00
         25   -1    0    0    0    0  0.00000000000E+00  0.00000000000E+00  0.99999998245E-14  0.12500000000E+03  0.12500000000E+03 0.  0.
        -13    1    3    3    0    0 -0.46634415244E+02 -0.23177186368E+01 -0.35050605078E+02  0.58384043927E+02  0.10566000000E+00 0.  1.
         23    2    1    0    0    0 -0.29064592689E+02  0.28516537446E+01 -0.25565009690E+01  0.95684165124E+02  0.91082606908E+02 0.  0.
         13    1    3    3    0    0  0.17569822556E+02  0.51693723815E+01  0.32494104109E+02  0.37300121198E+02  0.10566000000E+00 0. -1.
         22    1    1    0    0    0  0.29064592689E+02 -0.28516537446E+01  0.25565009690E+01  0.29315834876E+02  0.00000000000E+00 0.  1.
</event>
<event>
 5    1  0.1751027E-003  0.9118800E+02  0.7818608E-02  0.1130116E+00
         25   -1    0    0    0    0  0.00000000000E+00  0.00000000000E+00  0.99999998245E-14  0.12500000000E+03  0.12500000000E+03 0.  0.
        -13    1    3    3    0    0  0.12685406789E+02  0.42962210484E+02  0.39479246820E+02  0.59710075939E+02  0.10566000000E+00 0.  1.
         23    2    1    0    0    0  0.45289630119E+01  0.27763393212E+02  0.77555786890E+01  0.95820100936E+02  0.91268971912E+02 0.  0.
         13    1    3    3    0    0 -0.81564437775E+01 -0.15198817272E+02 -0.31723668131E+02  0.36110024997E+02  0.10566000000E+00 0. -1.
         22    1    1    0    0    0 -0.45289630119E+01 -0.27763393212E+02 -0.77555786890E+01  0.29179899064E+02  0.00000000000E+00 0.  1.
</event>
<event>
 5    1  0.1751027E-003  0.9118800E+02  0.7818608E-02  0.1130116E+00
         25   -1    0    0    0    0  0.00000000000E+00  0.00000000000E+00  0.99999998245E-14  0.12500000000E+03  0.12500000000E+03 0.  0.
        -13    1    3    3    0    0 -0.32596723409E+02 -0.18087624721E+02 -0.18793340382E+02  0.41748165850E+02  0.10566000000E+00 0. -1.
         23    2    1    0    0    0  0.15682738998E+02 -0.23488371927E+02  0.57518761130E+01  0.96177508833E+02  0.91757164342E+02 0.  0.
         13    1    3    3    0    0  0.48279462407E+02 -0.54007472068E+01  0.24545216495E+02  0.54429342983E+02  0.10566000000E+00 0.  1.
         22    1    1    0    0    0 -0.15682738998E+02  0.23488371927E+02 -0.57518761130E+01  0.28822491167E+02  0.00000000000E+00 0.  1.
</event>
<event>
 5    1  0.1751027E-003  0.9118800E+02  0.7818608E-02  0.1130116E+00
         25   -1    0    0    0    0  0.00000000000E+00  0.00000000000E+00  0.99999998245E-14  0.12500000000E+03  0.12500000000E+03 0.  0.
        -13    1    3    3    0    0 -0.11094052446E+02  0.14518862066E+02  0.32289172805E+02  0.37100905647E+02  0.10566000000E+00 0. -1.
         23    2    1    0    0    0  0.46907970535E+01 -0.29018393337E+02 -0.31794469206E+01  0.95433471432E+02  0.90737907502E+02 0.  0.
         13    1    3    3    0    0  0.15784849499E+02 -0.43537255403E+02 -0.35468619725E+02  0.58332565785E+02  0.10566000000E+00 0.  1.
         22    1    1    0    0    0 -0.46907970535E+01  0.29018393337E+02  0.31794469206E+01  0.29566528568E+02  0.00000000000E+00 0.  1.
</event>
<event>
 5    1  0.1751027E-003  0.9118800E+02  0.7818608E-02  0.1130116E+00
         25   -1    0    0    0    0  0.00000000000E+00  0.00000000000E+00  0.99999998245E-14  0.12500000000E+03  0.12500000000E+03 0.  0.
        -13    1    3    3    0    0 -0.95165109733E+01 -0.10253872702E+02 -0.37816880661E+02  0.40321625878E+02  0.10566000000E+00 0. -1.
         23    2    1    0    0    0  0.88869937516E+01 -0.21268565287E+02  0.15116207151E+02  0.97434981482E+02  0.93454509631E+02 0.  0.
         13    1    3    3    0    0  0.18403504725E+02 -0.11014692585E+02  0.52933087812E+02  0.57113355603E+02  0.10566000000E+00 0.  1.
         22    1    1    0    0    0 -0.88869937516E+01  0.21268565287E+02 -0.15116207151E+02  0.27565018518E+02  0.00000000000E+00 0.  1.
</event>
<event>
 5    1  0.1751027E-003  0.9118800E+02  0.7818608E-02  0.1130116E+00
         25   -1    0    0    0    0  0.00000000000E+00  0.00000000000E+00  0.99999998245E-14  0.12500000000E+03  0.12500000000E+03 0.  0.
        -13    1    3    3    0    0 -0.16492867320E+02 -0.41499125584E+02 -0.12563768751E+02  0.46390209591E+02  0.10566000000E+00 0.  1.
         23    2    1    0    0    0 -0.26300991126E+02  0.47912358059E+01 -0.16018759062E+02  0.93834334330E+02  0.88507534044E+02 0.  0.
         13    1    3    3    0    0 -0.98081238057E+01  0.46290361390E+02 -0.34549903109E+01  0.47444124739E+02  0.10566000000E+00 0. -1.
         22    1    1    0    0    0  0.26300991126E+02 -0.47912358059E+01  0.16018759062E+02  0.31165665670E+02  0.00000000000E+00 0. -1.
</event>
<event>
 5    1  0.1751027E-003  0.9118800E+02  0.7818608E-02  0.1130116E+00
         25   -1    0    0    0    0  0.00000000000E+00  0.00000000000E+00  0.99999998245E-14  0.12500000000E+03  0.12500000000E+03 0.  0.
        -13    1    3    3    0    0  0.46835310382E+01 -0.13673748789E+02 -0.42814227052E+02  0.45188229342E+02  0.10566000000E+00 0. -1.
         23    2    1    0    0    0  0.17532682762E+02  0.21087851809E+02 -0.70662434400E+01  0.96679967247E+02  0.92439124897E+02 0.  0.
         13    1    3    3    0    0  0.12849151724E+02  0.34761600598E+02  0.35747983612E+02  0.51491737906E+02  0.10566000000E+00 0.  1.
         22    1    1    0    0    0 -0.17532682762E+02 -0.21087851809E+02  0.70662434400E+01  0.28320032753E+02  0.00000000000E+00 0.  1.
</event>
<event>
 5    1  0.1751027E-003  0.9118800E+02  0.7818608E-02  0.1130116E+00
         25   -1    0    0    0    0  0.00000000000E+00  0.00000000000E+00  0.99999998245E-14  0.12500000000E+03  0.12500000000E+03 0.  0.
        -13    1    3    3    0    0  0.43705238825E+02 -0.31361539671E+02  0.19641394530E+02  0.57266828220E+02  0.10566000000E+00 0.  1.
         23    2    1    0    0    0  0.99063093227E+01 -0.27470647833E+02  0.16551668860E+01  0.95750879771E+02  0.91174118820E+02 0.  0.
         13    1    3    3    0    0 -0.33798929503E+02  0.38908918376E+01 -0.17986227644E+02  0.38484051550E+02  0.10566000000E+00 0. -1.
         22    1    1    0    0    0 -0.99063093227E+01  0.27470647833E+02 -0.16551668860E+01  0.29249120229E+02  0.00000000000E+00 0.  1.
</event>
<event>
 5    1  0.1751027E-003  0.9118800E+02  0.7818608E-02  0.1130116E+00
         25   -1    0    0    0    0  0.00000000000E+00  0.00000000000E+00  0.99999998245E-14  0.12500000000E+03  0.12500000000E+03 0.  0.
        -13    1    3    3    0    0  0.21328728304E+02  0.22354196626E+02 -0.24536640948E+02  0.39454818095E+02  0.10566000000E+00 0.  1.
         23    2    1    0    0    0 -0.22208390698E+02 -0.29631212120E+01 -0.27044199254E+02  0.89880469565E+02  0.82735224609E+02 0.  0.
         13    1    3    3    0    0 -0.43537119002E+02 -0.25317317838E+02 -0.25075583061E+01  0.50425651470E+02  0.10566000000E+00 0. -1.
         22    1    1    0    0    0  0.22208390698E+02  0.29631212120E+01  0.27044199254E+02  0.35119530435E+02  0.00000000000E+00 0. -1.
</event>
<event>
 5    1  0.1751027E-003  0.9118800E+02  0.7818608E-02  0.1130116E+00
         25   -1    0    0    0    0  0.00000000000E+00  0.00000000000E+00  0.99999998245E-14  0.12500000000E+03  0.12500000000E+03 0.  0.
        -13    1    3    3    0    0  0.14122457041E+02 -0.28415312730E+02  0.25103429792E+02  0.40460686373E+02  0.10566000000E+00 0. -1.
         23    2    1    0    0    0  0.20283171489E+02  0.21312246771E+02  0.23731944703E+01  0.95483039451E+02  0.90806166435E+02 0.  0.
         13    1    3    3    0    0  0.61607144480E+01  0.49727559501E+02 -0.22730235322E+02  0.55022353078E+02  0.10566000000E+00 0.  1.
         22    1    1    0    0    0 -0.20283171489E+02 -0.21312246771E+02 -0.23731944703E+01  0.29516960549E+02  0.00000000000E+00 0.  1.
</event>
<event>
 5    1  0.1751027E-003  0.9118800E+02  0.7818608E-02  0.1130116E+00
         25   -1    0    0    0    0  0.00000000000E+00  0.00000000000E+00  0.99999998245E-14  0.12500000000E+03  0.12500000000E+03 0.  0.
        -13    1    3    3    0    0  0.34841358906E+02 -0.10454520179E+01  0.78288297871E+01  0.35725551083E+02  0.10566000000E+00 0. -1.
         23    2    1    0    0    0 -0.26268263516E+02 -0.51647805203E+01  0.82865650666E+01  0.96975657250E+02  0.92838108083E+02 0.  0.
         13    1    3    3    0    0 -0.61109622422E+02 -0.41193285024E+01  0.45773527948E+00  0.61250106167E+02  0.10566000000E+00 0.  1.
         22    1    1    0    0    0  0.26268263516E+02  0.51647805203E+01 -0.82865650666E+01  0.28024342750E+02  0.00000000000E+00 0.  1.
</event>
<event>
 5    1  0.1751027E-003  0.9118800E+02  0.7818608E-02  0.1130116E+00
         25   -1    0    0    0    0  0.00000000000E+00  0.00000000000E+00  0.99999998245E-14  0.12500000000E+03  0.12500000000E+03 0.  0.
        -13    1    3    3    0    0  0.37838072093E+01 -0.59543328087E+02  0.10150593319E+02  0.60520829682E+02  0.10566000000E+00 0.  1.
         23    2    1    0    0    0 -0.91603572694E+01 -0.29692450597E+02  0.64159969937E+01  0.93271167920E+02  0.87708562751E+02 0.  0.
         13    1    3    3    0    0 -0.12944164479E+02  0.29850877489E+02 -0.37345963250E+01  0.32750338238E+02  0.10566000000E+00 0. -1.
         22    1    1    0    0    0  0.91603572694E+01  0.29692450597E+02 -0.64159969937E+01  0.31728832080E+02  0.00000000000E+00 0.  1.
</event>
<event>
 5    1  0.1751027E-003  0.9118800E+02  0.7818608E-02  0.1130116E+00
         25   -1    0    0    0    0  0.00000000000E+00  0.00000000000E+00  0.99999998245E-14  0.12500000000E+03  0.12500000000E+03 0.  0.
        -13    1    3    3    0    0  0.22823084569E+01 -0.32360490925E+02 -0.19641604543E+02  0.37923793295E+02  0.10566000000E+00 0. -1.
         23    2    1    0    0    0 -0.15209540508E+02  0.22242221020E+02 -0.10949256286E+02  0.95915077246E+02  0.91398956840E+02 0.  0.
         13    1    3    3    0    0 -0.17491848965E+02  0.54602711946E+02  0.86923482568E+01  0.57991283951E+02  0.10566000000E+00 0.  1.
         22    1    1    0    0    0  0.15209540508E+02 -0.22242221020E+02  0.10949256286E+02  0.29084922754E+02  0.00000000000E+00 0.  1.
</event>
<event>
 5    1  0.1751027E-003  0.9118800E+02  0.7818608E-02  0.1130116E+00
         25   -1    0    0    0    0  0.00000000000E+00  0.00000000000E+00  0.99999998245E-14  0.12500000000E+03  0.12500000000E+03 0.  0.
        -13    1    3    3    0    0  0.30447760690E+02  0.23928698478E+02 -0.12846169201E+02  0.40800538833E+02  0.10566000000E+00 0.  1.
         23    2    1    0    0    0  0.13871493169E+02 -0.15864459452E+02  0.20728336558E+02  0.95440511965E+02  0.90747605981E+02 0.  0.
         13    1    3    3    0    0 -0.16576267521E+02 -0.39793157930E+02  0.33574505758E+02  0.54639973133E+02  0.10566000000E+00 0. -1.
         22    1    1    0    0    0 -0.13871493169E+02  0.15864459452E+02 -0.20728336558E+02  0.29559488035E+02  0.00000000000E+00 0. -1.
</event>
<event>
 5    1  0.1751027E-003  0.9118800E+02  0.7818608E-02  0.1130116E+00
         25   -1    0    0    0    0  0.00000000000E+00  0.00000000000E+00  0.99999998245E-14  0.12500000000E+03  0.12500000000E+03 0.  0.
        -13    1    3    3    0    0  0.49343835616E+02 -0.23657186774E+02 -0.18358910646E+01  0.54752700933E+02  0.10566000000E+00 0. -1.
         23    2    1    0    0    0  0.48074617717E+01 -0.13248607418E+02 -0.16981412818E+02  0.10293179508E+03  0.10053829504E+03 0.  0.
         13    1    3    3    0    0 -0.44536373845E+02  0.10408579356E+02 -0.15145521753E+02  0.48179094145E+02  0.10566000000E+00 0.  1.
         22    1    1    0    0    0 -0.48074617717E+01  0.13248607418E+02  0.16981412818E+02  0.22068204922E+02  0.00000000000E+00 0. -1.
</event>
<event>
 5    1  0.1751027E-003  0.9118800E+02  0.7818608E-02  0.1130116E+00
         25   -1    0    0    0    0  0.00000000000E+00  0.00000000000E+00  0.99999998245E-14  0.12500000000E+03  0.12500000000E+03 0.  0.
        -13    1    3    3    0    0  0.19864202038E+02 -0.32534633053E+02  0.24661379220E+02  0.45401361869E+02  0.10566000000E+00 0. -1.
         23    2    1    0    0    0  0.25689555167E+02  0.13498404606E+02  0.62903454300E+01  0.95306084509E+02  0.90562250012E+02 0.  0.
         13    1    3    3    0    0  0.58253531287E+01  0.46033037659E+02 -0.18371033790E+02  0.49904722640E+02  0.10566000000E+00 0.  1.
         22    1    1    0    0    0 -0.25689555167E+02 -0.13498404606E+02 -0.62903454300E+01  0.29693915491E+02  0.00000000000E+00 0. -1.
</event>
<event>
 5    1  0.1751027E-003  0.9118800E+02  0.7818608E-02  0.1130116E+00
         25   -1    0    0    0    0  0.00000000000E+00  0.00000000000E+00  0.99999998245E-14  0.12500000000E+03  0.12500000000E+03 0.  0.
        -13    1    3    3    0    0 -0.18844595392E+02  0.95406524400E+01  0.29564013340E+02  0.36334348395E+02  0.10566000000E+00 0. -1.
         23    2    1    0    0    0  0.27511608639E+02 -0.12138296077E+02  0.10627461227E+01  0.94910861247E+02  0.90015083802E+02 0.  0.
         13    1    3    3    0    0  0.46356204031E+02 -0.21678948517E+02 -0.28501267217E+02  0.58576512853E+02  0.10566000000E+00 0.  1.
         22    1    1    0    0    0 -0.27511608639E+02  0.12138296077E+02 -0.10627461227E+01  0.30089138753E+02  0.00000000000E+00 0.  1.
</event>
<event>
 5    1  0.1751027E-003  0.9118800E+02  0.7818608E-02  0.1130116E+00
         25   -1    0    0    0    0  0.00000000000E+00  0.00000000000E+00  0.99999998245E-14  0.12500000000E+03  0.12500000000E+03 0.  0.
        -13    1    3    3    0    0 -0.12316264838E+02  0.11216254752E+02  0.37554388658E+02  0.41083305877E+02  0.10566000000E+00 0. -1.
         23    2    1    0    0    0 -0.16162799033E+02  0.21098837201E+02 -0.14853134032E+02  0.94553118479E+02  0.89516923650E+02 0.  0.
         13    1    3    3    0    0 -0.38465341946E+01  0.98825824484E+01 -0.52407522690E+02  0.53469812602E+02  0.10566000000E+00 0.  1.
         22    1    1    0    0    0  0.16162799033E+02 -0.21098837201E+02  0.14853134032E+02  0.30446881521E+02  0.00000000000E+00 0.  1.
</event>
<event>
 5    1  0.1751027E-003  0.9118800E+02  0.7818608E-02  0.1130116E+00
         25   -1    0    0    0    0  0.00000000000E+00  0.00000000000E+00  0.99999998245E-14  0.12500000000E+03  0.12500000000E+03 0.  0.
        -13    1    3    3    0    0  0.37058626668E+02 -0.21261106610E+02  0.10741468619E+02  0.44054134618E+02  0.10566000000E+00 0. -1.
         23    2    1    0    0    0 -0.12287215792E+02 -0.15637190770E+02 -0.15090362619E+02  0.10003569646E+03  0.96870656629E+02 0.  0.
         13    1    3    3    0    0 -0.49345842460E+02  0.56239158395E+01 -0.25831831238E+02  0.55981561845E+02  0.10566000000E+00 0.  1.
         22    1    1    0    0    0  0.12287215792E+02  0.15637190770E+02  0.15090362619E+02  0.24964303537E+02  0.00000000000E+00 0.  1.
</event>
<event>
 5    1  0.1751027E-003  0.9118800E+02  0.7818608E-02  0.1130116E+00
         25   -1    0    0    0    0  0.00000000000E+00  0.00000000000E+00  0.99999998245E-14  0.12500000000E+03  0.12500000000E+03 0.  0.
        -13    1    3    3    0    0  0.64725199695E+01  0.37686689626E+02 -0.28223796825E+02  0.47526560584E+02  0.10566000000E+00 0. -1.
         23    2    1    0    0    0  0.14058555752E+02  0.10298472294E+02 -0.42307058129E+02  0.79244249662E+02  0.64699786828E+02 0.  0.
         13    1    3    3    0    0  0.75860357829E+01 -0.27388217331E+02 -0.14083261303E+02  0.31717689078E+02  0.10566000000E+00 0.  1.
         22    1    1    0    0    0 -0.14058555752E+02 -0.10298472294E+02  0.42307058129E+02  0.45755750338E+02  0.00000000000E+00 0. -1.
</event>
<event>
 5    1  0.1751027E-003  0.9118800E+02  0.7818608E-02  0.1130116E+00
         25   -1    0    0    0    0  0.00000000000E+00  0.00000000000E+00  0.99999998245E-14  0.12500000000E+03  0.12500000000E+03 0.  0.
        -13    1    3    3    0    0  0.20783864155E+02 -0.24871204131E+02 -0.29957930703E+02  0.44136544723E+02  0.10566000000E+00 0. -1.
         23    2    1    0    0    0 -0.41074882590E+01 -0.23996028891E+02  0.15619195538E+02  0.96075267822E+02  0.91617776416E+02 0.  0.
         13    1    3    3    0    0 -0.24891352414E+02  0.87517523950E+00  0.45577126241E+02  0.51938723098E+02  0.10566000000E+00 0.  1.
         22    1    1    0    0    0  0.41074882590E+01  0.23996028891E+02 -0.15619195538E+02  0.28924732178E+02  0.00000000000E+00 0.  1.
</event>
<event>
 5    1  0.1751027E-003  0.9118800E+02  0.7818608E-02  0.1130116E+00
         25   -1    0    0    0    0  0.00000000000E+00  0.00000000000E+00  0.99999998245E-14  0.12500000000E+03  0.12500000000E+03 0.  0.
        -13    1    3    3    0    0  0.43066873893E+00 -0.32377185590E+02 -0.18301537851E+02  0.37194422620E+02  0.10566000000E+00 0.  1.
         23    2    1    0    0    0 -0.78805882559E+01  0.29734460943E+01  0.27840787211E+02  0.95912984246E+02  0.91396094345E+02 0.  0.
         13    1    3    3    0    0 -0.83112569948E+01  0.35350631684E+02  0.46142325062E+02  0.58718561626E+02  0.10566000000E+00 0. -1.
         22    1    1    0    0    0  0.78805882559E+01 -0.29734460943E+01 -0.27840787211E+02  0.29087015754E+02  0.00000000000E+00 0. -1.
</event>
<event>
 5    1  0.1751027E-003  0.9118800E+02  0.7818608E-02  0.1130116E+00
         25   -1    0    0    0    0  0.00000000000E+00  0.00000000000E+00  0.99999998245E-14  0.12500000000E+03  0.12500000000E+03 0.  0.
        -13    1    3    3    0    0  0.76593463599E+01 -0.47946396731E+02 -0.38366156637E+01  0.48705783332E+02  0.10566000000E+00 0.  1.
         23    2    1    0    0    0 -0.10561920714E+02 -0.99648043440E+01 -0.25182036392E+02  0.95931349333E+02  0.91421208334E+02 0.  0.
         13    1    3    3    0    0 -0.18221267074E+02  0.37981592387E+02 -0.21345420728E+02  0.47225566001E+02  0.10566000000E+00 0. -1.
         22    1    1    0    0    0  0.10561920714E+02  0.99648043440E+01  0.25182036392E+02  0.29068650667E+02  0.00000000000E+00 0. -1.
</event>
<event>
 5    1  0.1751027E-003  0.9118800E+02  0.7818608E-02  0.1130116E+00
         25   -1    0    0    0    0  0.00000000000E+00  0.00000000000E+00  0.99999998245E-14  0.12500000000E+03  0.12500000000E+03 0.  0.
        -13    1    3    3    0    0 -0.17237871752E+02 -0.37274710812E+02  0.99981895106E+01  0.42267283402E+02  0.10566000000E+00 0.  1.
         23    2    1    0    0    0 -0.26056656784E+02  0.11232056610E+02 -0.91940997597E+01  0.95173167637E+02  0.90378603160E+02 0.  0.
         13    1    3    3    0    0 -0.88187850318E+01  0.48506767422E+02 -0.19192289270E+02  0.52905884235E+02  0.10566000000E+00 0. -1.
         22    1    1    0    0    0  0.26056656784E+02 -0.11232056610E+02  0.91940997597E+01  0.29826832363E+02  0.00000000000E+00 0. -1.
</event>
<event>
 5    1  0.1751027E-003  0.9118800E+02  0.7818608E-02  0.1130116E+00
         25   -1    0    0    0    0  0.00000000000E+00  0.00000000000E+00  0.99999998245E-14  0.12500000000E+03  0.12500000000E+03 0.  0.
        -13    1    3    3    0    0  0.12463111399E+02 -0.83842174167E+01  0.34449341036E+02  0.37581810884E+02  0.10566000000E+00 0.  1.
         23    2    1    0    0    0 -0.33591956876E+02 -0.21462929451E+01  0.17587106247E+02  0.87021947834E+02  0.78297426257E+02 0.  0.
         13    1    3    3    0    0 -0.46055068275E+02  0.62379244716E+01 -0.16862234789E+02  0.49440136950E+02  0.10566000000E+00 0. -1.
         22    1    1    0    0    0  0.33591956876E+02  0.21462929451E+01 -0.17587106247E+02  0.37978052166E+02  0.00000000000E+00 0. -1.
</event>
<event>
 5    1  0.1751027E-003  0.9118800E+02  0.7818608E-02  0.1130116E+00
         25   -1    0    0    0    0  0.00000000000E+00  0.00000000000E+00  0.99999998245E-14  0.12500000000E+03  0.12500000000E+03 0.  0.
        -13    1    3    3    0    0  0.35203592071E+02 -0.29967388768E+02 -0.22462831172E+02  0.51399681249E+02  0.10566000000E+00 0. -1.
         23    2    1    0    0    0  0.27337808166E+02  0.16334283818E+01  0.84894441433E+01  0.96327809545E+02  0.91961689775E+02 0.  0.
         13    1    3    3    0    0 -0.78657839045E+01  0.31600817149E+02  0.30952275315E+02  0.44928128296E+02  0.10566000000E+00 0.  1.
         22    1    1    0    0    0 -0.27337808166E+02 -0.16334283818E+01 -0.84894441433E+01  0.28672190455E+02  0.00000000000E+00 0.  1.
</event>
<event>
 5    1  0.1751027E-003  0.9118800E+02  0.7818608E-02  0.1130116E+00
         25   -1    0    0    0    0  0.00000000000E+00  0.00000000000E+00  0.99999998245E-14  0.12500000000E+03  0.12500000000E+03 0.  0.
        -13    1    3    3    0    0  0.45380578005E+02 -0.14698311620E+02 -0.36238874169E+02  0.59905795960E+02  0.10566000000E+00 0.  1.
         23    2    1    0    0    0  0.28392983484E+02  0.10938785390E+01 -0.10118260353E+02  0.94838148699E+02  0.89914054378E+02 0.  0.
         13    1    3    3    0    0 -0.16987594522E+02  0.15792190159E+02  0.26120613816E+02  0.34932352738E+02  0.10566000000E+00 0. -1.
         22    1    1    0    0    0 -0.28392983484E+02 -0.10938785390E+01  0.10118260353E+02  0.30161851301E+02  0.00000000000E+00 0.  1.
</event>
<event>
 5    1  0.1751027E-003  0.9118800E+02  0.7818608E-02  0.1130116E+00
         25   -1    0    0    0    0  0.00000000000E+00  0.00000000000E+00  0.99999998245E-14  0.12500000000E+03  0.12500000000E+03 0.  0.
        -13    1    3    3    0    0  0.26552853220E+02  0.48192508151E+02  0.21556234428E+02  0.59095298145E+02  0.10566000000E+00 0.  1.
         23    2    1    0    0    0  0.70442777886E+01  0.33665644022E+02  0.15822008749E+01  0.90568897831E+02  0.83768875233E+02 0.  0.
         13    1    3    3    0    0 -0.19508575432E+02 -0.14526864130E+02 -0.19974033553E+02  0.31473599686E+02  0.10566000000E+00 0. -1.
         22    1    1    0    0    0 -0.70442777886E+01 -0.33665644022E+02 -0.15822008749E+01  0.34431102169E+02  0.00000000000E+00 0.  1.
</event>
<event>
 5    1  0.1751027E-003  0.9118800E+02  0.7818608E-02  0.1130116E+00
         25   -1    0    0    0    0  0.00000000000E+00  0.00000000000E+00  0.99999998245E-14  0.12500000000E+03  0.12500000000E+03 0.  0.
        -13    1    3    3    0    0 -0.39136238397E+02  0.79600593325E+00  0.11270246484E+01  0.39160696239E+02  0.10566000000E+00 0. -1.
         23    2    1    0    0    0  0.11632048357E+02  0.17849736323E+02  0.19835503803E+02  0.95890468109E+02  0.91365294435E+02 0.  0.
         13    1    3    3    0    0  0.50768286754E+02  0.17053730390E+02  0.18708479154E+02  0.56729771870E+02  0.10566000000E+00 0.  1.
         22    1    1    0    0    0 -0.11632048357E+02 -0.17849736323E+02 -0.19835503803E+02  0.29109531891E+02  0.00000000000E+00 0.  1.
</event>
<event>
 5    1  0.1751027E-003  0.9118800E+02  0.7818608E-02  0.1130116E+00
         25   -1    0    0    0    0  0.00000000000E+00  0.00000000000E+00  0.99999998245E-14  0.12500000000E+03  0.12500000000E+03 0.  0.
        -13    1    3    3    0    0 -0.17621725601E+02 -0.57390596003E+02 -0.75009671763E+00  0.60039816221E+02  0.10566000000E+00 0. -1.
         23    2    1    0    0    0 -0.78587199267E+01 -0.24301649661E+02 -0.12603650184E+02  0.96518749095E+02  0.92220861381E+02 0.  0.
         13    1    3    3    0    0  0.97630056745E+01  0.33088946342E+02 -0.11853553466E+02  0.36478932874E+02  0.10566000000E+00 0.  1.
         22    1    1    0    0    0  0.78587199267E+01  0.24301649661E+02  0.12603650184E+02  0.28481250905E+02  0.00000000000E+00 0. -1.
</event>
<event>
 5    1  0.1751027E-003  0.9118800E+02  0.7818608E-02  0.1130116E+00
         25   -1    0    0    0    0  0.00000000000E+00  0.00000000000E+00  0.99999998245E-14  0.12500000000E+03  0.12500000000E+03 0.  0.
        -13    1    3    3    0    0  0.26831129952E+02 -0.10063778655E+02 -0.53210061999E+02  0.60436007788E+02  0.10566000000E+00 0.  1.
         23    2    1    0    0    0  0.23055678308E+01  0.18033967567E+01 -0.25625718515E+02  0.99207649733E+02  0.95796202603E+02 0.  0.
         13    1    3    3    0    0 -0.24525562121E+02  0.11867175412E+02  0.27584343484E+02  0.38771641945E+02  0.10566000000E+00 0. -1.
         22    1    1    0    0    0 -0.23055678308E+01 -0.18033967567E+01  0.25625718515E+02  0.25792350267E+02  0.00000000000E+00 0.  1.
</event>
<event>
 5    1  0.1751027E-003  0.9118800E+02  0.7818608E-02  0.1130116E+00
         25   -1    0    0    0    0  0.00000000000E+00  0.00000000000E+00  0.99999998245E-14  0.12500000000E+03  0.12500000000E+03 0.  0.
        -13    1    3    3    0    0  0.15572413409E+02 -0.10368323091E+02  0.45229756031E+02  0.48946339779E+02  0.10566000000E+00 0.  1.
         23    2    1    0    0    0  0.22724195076E+02 -0.20757798120E+02  0.18012652781E+01  0.94169499173E+02  0.88979631338E+02 0.  0.
         13    1    3    3    0    0  0.71517816669E+01 -0.10389475030E+02 -0.43428490753E+02  0.45223159393E+02  0.10566000000E+00 0. -1.
         22    1    1    0    0    0 -0.22724195076E+02  0.20757798120E+02 -0.18012652781E+01  0.30830500827E+02  0.00000000000E+00 0.  1.
</event>
<event>
 5    1  0.1751027E-003  0.9118800E+02  0.7818608E-02  0.1130116E+00
         25   -1    0    0    0    0  0.00000000000E+00  0.00000000000E+00  0.99999998245E-14  0.12500000000E+03  0.12500000000E+03 0.  0.
        -13    1    3    3    0    0 -0.35220686447E+02  0.15726346917E+02 -0.22144247377E+02  0.44476888348E+02  0.10566000000E+00 0. -1.
         23    2    1    0    0    0  0.23702438611E+01  0.26915426040E+02  0.11000173249E+02  0.95827032610E+02  0.91278464889E+02 0.  0.
         13    1    3    3    0    0  0.37590930308E+02  0.11189079123E+02  0.33144420626E+02  0.51350144262E+02  0.10566000000E+00 0.  1.
         22    1    1    0    0    0 -0.23702438611E+01 -0.26915426040E+02 -0.11000173249E+02  0.29172967390E+02  0.00000000000E+00 0. -1.
</event>
<event>
 5    1  0.1751027E-003  0.9118800E+02  0.7818608E-02  0.1130116E+00
         25   -1    0    0    0    0  0.00000000000E+00  0.00000000000E+00  0.99999998245E-14  0.12500000000E+03  0.12500000000E+03 0.  0.
        -13    1    3    3    0    0  0.32034407629E+02  0.19576348986E+02  0.42789119878E+02  0.56924130698E+02  0.10566000000E+00 0.  1.
         23    2    1    0    0    0  0.52040120126E+01  0.25015720965E+02  0.19732057238E+02  0.92716534894E+02  0.86914519636E+02 0.  0.
         13    1    3    3    0    0 -0.26830395616E+02  0.54393719785E+01 -0.23057062641E+02  0.35792404195E+02  0.10566000000E+00 0. -1.
         22    1    1    0    0    0 -0.52040120126E+01 -0.25015720965E+02 -0.19732057238E+02  0.32283465106E+02  0.00000000000E+00 0.  1.
</event>
<event>
 5    1  0.1751027E-003  0.9118800E+02  0.7818608E-02  0.1130116E+00
         25   -1    0    0    0    0  0.00000000000E+00  0.00000000000E+00  0.99999998245E-14  0.12500000000E+03  0.12500000000E+03 0.  0.
        -13    1    3    3    0    0  0.77579736786E+01 -0.87250964260E+01 -0.37070579757E+02  0.38865827031E+02  0.10566000000E+00 0.  1.
         23    2    1    0    0    0  0.20499805911E+02  0.10515028030E+02  0.16143171736E+02  0.96867992419E+02  0.92693031587E+02 0.  0.
         13    1    3    3    0    0  0.12741832232E+02  0.19240124456E+02  0.53213751493E+02  0.58002165388E+02  0.10566000000E+00 0. -1.
         22    1    1    0    0    0 -0.20499805911E+02 -0.10515028030E+02 -0.16143171736E+02  0.28132007581E+02  0.00000000000E+00 0. -1.
</event>
<event>
 5    1  0.1751027E-003  0.9118800E+02  0.7818608E-02  0.1130116E+00
         25   -1    0    0    0    0  0.00000000000E+00  0.00000000000E+00  0.99999998245E-14  0.12500000000E+03  0.12500000000E+03 0.  0.
        -13    1    3    3    0    0 -0.54460302555E+02  0.18395094311E+02  0.11331774541E+02  0.58589455770E+02  0.10566000000E+00 0.  1.
         23    2    1    0    0    0 -0.20070536147E+02  0.21643673471E+02  0.11994132031E+02  0.93138828871E+02  0.87519753300E+02 0.  0.
         13    1    3    3    0    0  0.34389766409E+02  0.32485791607E+01  0.66235748984E+00  0.34549373101E+02  0.10566000000E+00 0. -1.
         22    1    1    0    0    0  0.20070536147E+02 -0.21643673471E+02 -0.11994132031E+02  0.31861171129E+02  0.00000000000E+00 0.  1.
</event>
<event>
 5    1  0.1751027E-003  0.9118800E+02  0.7818608E-02  0.1130116E+00
         25   -1    0    0    0    0  0.00000000000E+00  0.00000000000E+00  0.99999998245E-14  0.12500000000E+03  0.12500000000E+03 0.  0.
        -13    1    3    3    0    0  0.28492493238E+02  0.10990465014E+02  0.33209064724E+02  0.45116134986E+02  0.10566000000E+00 0. -1.
         23    2    1    0    0    0 -0.13129901287E+02  0.25247234854E+02  0.10168859756E+02  0.94780422168E+02  0.89833766157E+02 0.  0.
         13    1    3    3    0    0 -0.41622394526E+02  0.14256769841E+02 -0.23040204968E+02  0.49664287182E+02  0.10566000000E+00 0.  1.
         22    1    1    0    0    0  0.13129901287E+02 -0.25247234854E+02 -0.10168859756E+02  0.30219577832E+02  0.00000000000E+00 0.  1.
</event>
<event>
 5    1  0.1751027E-003  0.9118800E+02  0.7818608E-02  0.1130116E+00
         25   -1    0    0    0    0  0.00000000000E+00  0.00000000000E+00  0.99999998245E-14  0.12500000000E+03  0.12500000000E+03 0.  0.
        -13    1    3    3    0    0 -0.36018885929E+02  0.32724953852E+01 -0.42162793110E+02  0.55549812389E+02  0.10566000000E+00 0.  1.
         23    2    1    0    0    0 -0.21868021704E+02  0.18076390830E+02 -0.77614672492E+01  0.95585604672E+02  0.90947243872E+02 0.  0.
         13    1    3    3    0    0  0.14150864225E+02  0.14803895445E+02  0.34401325861E+02  0.40035792282E+02  0.10566000000E+00 0. -1.
         22    1    1    0    0    0  0.21868021704E+02 -0.18076390830E+02  0.77614672492E+01  0.29414395328E+02  0.00000000000E+00 0.  1.
</event>
<event>
 5    1  0.1751027E-003  0.9118800E+02  0.7818608E-02  0.1130116E+00
         25   -1    0    0    0    0  0.00000000000E+00  0.00000000000E+00  0.99999998245E-14  0.12500000000E+03  0.12500000000E+03 0.  0.
        -13    1    3    3    0    0  0.27343173425E+02  0.18693337189E+02 -0.18175056477E+02  0.37781395292E+02  0.10566000000E+00 0.  1.
         23    2    1    0    0    0 -0.27645473284E+02  0.15433465437E+01 -0.66487164646E+01  0.96524404444E+02  0.92228526557E+02 0.  0.
         13    1    3    3    0    0 -0.54988646709E+02 -0.17149990646E+02  0.11526340013E+02  0.58743009152E+02  0.10566000000E+00 0. -1.
         22    1    1    0    0    0  0.27645473284E+02 -0.15433465437E+01  0.66487164646E+01  0.28475595556E+02  0.00000000000E+00 0. -1.
</event>
<event>
 5    1  0.1751027E-003  0.9118800E+02  0.7818608E-02  0.1130116E+00
         25   -1    0    0    0    0  0.00000000000E+00  0.00000000000E+00  0.99999998245E-14  0.12500000000E+03  0.12500000000E+03 0.  0.
        -13    1    3    3    0    0  0.11824704557E+02  0.19301980305E+02  0.36529058225E+02  0.42974100810E+02  0.10566000000E+00 0. -1.
         23    2    1    0    0    0  0.25640865524E+02 -0.92794572617E+01 -0.69979796479E+01  0.96848019057E+02  0.92666092851E+02 0.  0.
         13    1    3    3    0    0  0.13816160967E+02 -0.28581437567E+02 -0.43527037873E+02  0.53873918247E+02  0.10566000000E+00 0.  1.
         22    1    1    0    0    0 -0.25640865524E+02  0.92794572617E+01  0.69979796479E+01  0.28151980943E+02  0.00000000000E+00 0.  1.
</event>
<event>
 5    1  0.1751027E-003  0.9118800E+02  0.7818608E-02  0.1130116E+00
         25   -1    0    0    0    0  0.00000000000E+00  0.00000000000E+00  0.99999998245E-14  0.12500000000E+03  0.12500000000E+03 0.  0.
        -13    1    3    3    0    0 -0.18764266300E+02 -0.21487249880E+02  0.95787705654E+01  0.30092583916E+02  0.10566000000E+00 0.  1.
         23    2    1    0    0    0  0.19668096426E+02  0.26288828900E+02 -0.10280415791E+00  0.92167895123E+02  0.86121854258E+02 0.  0.
         13    1    3    3    0    0  0.38432362726E+02  0.47776078780E+02 -0.96815747233E+01  0.62075311207E+02  0.10566000000E+00 0. -1.
         22    1    1    0    0    0 -0.19668096426E+02 -0.26288828900E+02  0.10280415791E+00  0.32832104877E+02  0.00000000000E+00 0. -1.
</event>
<event>
 5    1  0.1751027E-003  0.9118800E+02  0.7818608E-02  0.1130116E+00
         25   -1    0    0    0    0  0.00000000000E+00  0.00000000000E+00  0.99999998245E-14  0.12500000000E+03  0.12500000000E+03 0.  0.
        -13    1    3    3    0    0  0.28938259517E+02  0.68102595624E+01 -0.32050943194E+02  0.43715862371E+02  0.10566000000E+00 0. -1.
         23    2    1    0    0    0 -0.19530340795E+02 -0.88647467327E+01 -0.19108144336E+02  0.96274764994E+02  0.91889560062E+02 0.  0.
         13    1    3    3    0    0 -0.48468600312E+02 -0.15675006295E+02  0.12942798858E+02  0.52558902623E+02  0.10566000000E+00 0.  1.
         22    1    1    0    0    0  0.19530340795E+02  0.88647467327E+01  0.19108144336E+02  0.28725235006E+02  0.00000000000E+00 0.  1.
</event>
<event>
 5    1  0.1751027E-003  0.9118800E+02  0.7818608E-02  0.1130116E+00
         25   -1    0    0    0    0  0.00000000000E+00  0.00000000000E+00  0.99999998245E-14  0.12500000000E+03  0.12500000000E+03 0.  0.
        -13    1    3    3    0    0 -0.54860882794E+02 -0.15353571836E+02 -0.11469491239E+02  0.58112038532E+02  0.10566000000E+00 0.  1.
         23    2    1    0    0    0 -0.24342511836E+02 -0.12098407607E+02  0.10503096887E+02  0.95858201954E+02  0.91321139330E+02 0.  0.
         13    1    3    3    0    0  0.30518370958E+02  0.32551642281E+01  0.21972588126E+02  0.37746163422E+02  0.10566000000E+00 0. -1.
         22    1    1    0    0    0  0.24342511836E+02  0.12098407607E+02 -0.10503096887E+02  0.29141798046E+02  0.00000000000E+00 0.  1.
</event>
<event>
 5    1  0.1751027E-003  0.9118800E+02  0.7818608E-02  0.1130116E+00
         25   -1    0    0    0    0  0.00000000000E+00  0.00000000000E+00  0.99999998245E-14  0.12500000000E+03  0.12500000000E+03 0.  0.
        -13    1    3    3    0    0 -0.40387855139E+02  0.18680216016E+02  0.29317666833E+02  0.53288517203E+02  0.10566000000E+00 0.  1.
         23    2    1    0    0    0 -0.26200908205E+02  0.88122314082E+01 -0.94924663023E+01  0.95772445712E+02  0.91203681000E+02 0.  0.
         13    1    3    3    0    0  0.14186946934E+02 -0.98679846078E+01 -0.38810133136E+02  0.42483928509E+02  0.10566000000E+00 0. -1.
         22    1    1    0    0    0  0.26200908205E+02 -0.88122314082E+01  0.94924663023E+01  0.29227554288E+02  0.00000000000E+00 0.  1.
</event>
<event>
 5    1  0.1751027E-003  0.9118800E+02  0.7818608E-02  0.1130116E+00
         25   -1    0    0    0    0  0.00000000000E+00  0.00000000000E+00  0.99999998245E-14  0.12500000000E+03  0.12500000000E+03 0.  0.
        -13    1    3    3    0    0  0.32218815765E+02  0.41764719479E+01 -0.28313059657E+02  0.43094495222E+02  0.10566000000E+00 0.  1.
         23    2    1    0    0    0  0.23244253578E+02 -0.64397445910E+01  0.20186743321E+02  0.93547333329E+02  0.88101267483E+02 0.  0.
         13    1    3    3    0    0 -0.89745621868E+01 -0.10616216539E+02  0.48499802979E+02  0.50452838107E+02  0.10566000000E+00 0. -1.
         22    1    1    0    0    0 -0.23244253578E+02  0.64397445910E+01 -0.20186743321E+02  0.31452666671E+02  0.00000000000E+00 0. -1.
</event>
<event>
 5    1  0.1751027E-003  0.9118800E+02  0.7818608E-02  0.1130116E+00
         25   -1    0    0    0    0  0.00000000000E+00  0.00000000000E+00  0.99999998245E-14  0.12500000000E+03  0.12500000000E+03 0.  0.
        -13    1    3    3    0    0  0.20660729525E+02 -0.30719988594E+02  0.31861325631E+02  0.48844023982E+02  0.10566000000E+00 0. -1.
         23    2    1    0    0    0  0.26929815192E+02  0.64764063067E+01  0.15074871215E+01  0.97261375262E+02  0.93222013578E+02 0.  0.
         13    1    3    3    0    0  0.62690856666E+01  0.37196394901E+02 -0.30353838509E+02  0.48417351280E+02  0.10566000000E+00 0.  1.
         22    1    1    0    0    0 -0.26929815192E+02 -0.64764063067E+01 -0.15074871215E+01  0.27738624738E+02  0.00000000000E+00 0.  1.
</event>
<event>
 5    1  0.1751027E-003  0.9118800E+02  0.7818608E-02  0.1130116E+00
         25   -1    0    0    0    0  0.00000000000E+00  0.00000000000E+00  0.99999998245E-14  0.12500000000E+03  0.12500000000E+03 0.  0.
        -13    1    3    3    0    0 -0.16231139673E+02  0.34533865813E+02 -0.40863920036E+02  0.55909828365E+02  0.10566000000E+00 0. -1.
         23    2    1    0    0    0  0.78645457841E+01  0.66848396673E+01 -0.28390708490E+02  0.94791218325E+02  0.89848787310E+02 0.  0.
         13    1    3    3    0    0  0.24095685457E+02 -0.27849026145E+02  0.12473211546E+02  0.38881389960E+02  0.10566000000E+00 0.  1.
         22    1    1    0    0    0 -0.78645457841E+01 -0.66848396673E+01  0.28390708490E+02  0.30208781675E+02  0.00000000000E+00 0. -1.
</event>
<event>
 5    1  0.1751027E-003  0.9118800E+02  0.7818608E-02  0.1130116E+00
         25   -1    0    0    0    0  0.00000000000E+00  0.00000000000E+00  0.99999998245E-14  0.12500000000E+03  0.12500000000E+03 0.  0.
        -13    1    3    3    0    0 -0.24191537146E+02  0.42399101073E+02 -0.11393570999E+00  0.48815349908E+02  0.10566000000E+00 0.  1.
         23    2    1    0    0    0 -0.22899549782E+02 -0.12028750143E+01  0.17799403920E+02  0.95971478363E+02  0.91476060206E+02 0.  0.
         13    1    3    3    0    0  0.12919873640E+01 -0.43601976088E+02  0.17913339630E+02  0.47156128455E+02  0.10566000000E+00 0. -1.
         22    1    1    0    0    0  0.22899549782E+02  0.12028750143E+01 -0.17799403920E+02  0.29028521637E+02  0.00000000000E+00 0. -1.
</event>
<event>
 5    1  0.1751027E-003  0.9118800E+02  0.7818608E-02  0.1130116E+00
         25   -1    0    0    0    0  0.00000000000E+00  0.00000000000E+00  0.99999998245E-14  0.12500000000E+03  0.12500000000E+03 0.  0.
        -13    1    3    3    0    0 -0.76528689981E+01  0.26465054201E+02 -0.29646936958E+02  0.40471193864E+02  0.10566000000E+00 0.  1.
         23    2    1    0    0    0 -0.47444436426E+01  0.12163358930E+02  0.24871831893E+02  0.96909697979E+02  0.92749256033E+02 0.  0.
         13    1    3    3    0    0  0.29084253555E+01 -0.14301695271E+02  0.54518768851E+02  0.56438504115E+02  0.10566000000E+00 0. -1.
         22    1    1    0    0    0  0.47444436426E+01 -0.12163358930E+02 -0.24871831893E+02  0.28090302021E+02  0.00000000000E+00 0. -1.
</event>
<event>
 5    1  0.1751027E-003  0.9118800E+02  0.7818608E-02  0.1130116E+00
         25   -1    0    0    0    0  0.00000000000E+00  0.00000000000E+00  0.99999998245E-14  0.12500000000E+03  0.12500000000E+03 0.  0.
        -13    1    3    3    0    0  0.11436981494E+01  0.36522011521E+02  0.14610087161E+02  0.39352651523E+02  0.10566000000E+00 0.  1.
         23    2    1    0    0    0 -0.15302295159E+02  0.21465051601E+01 -0.25818925115E+02  0.94910390238E+02  0.90014429729E+02 0.  0.
         13    1    3    3    0    0 -0.16445993309E+02 -0.34375506360E+02 -0.40429012276E+02  0.55557738715E+02  0.10566000000E+00 0. -1.
         22    1    1    0    0    0  0.15302295159E+02 -0.21465051601E+01  0.25818925115E+02  0.30089609762E+02  0.00000000000E+00 0. -1.
</event>
<event>
 5    1  0.1751027E-003  0.9118800E+02  0.7818608E-02  0.1130116E+00
         25   -1    0    0    0    0  0.00000000000E+00  0.00000000000E+00  0.99999998245E-14  0.12500000000E+03  0.12500000000E+03 0.  0.
        -13    1    3    3    0    0  0.12494159070E+02  0.48852414756E+02  0.14135356781E+02  0.52368711209E+02  0.10566000000E+00 0.  1.
         23    2    1    0    0    0 -0.19605501094E+02  0.16484129071E+02  0.62812365244E+01  0.98626602103E+02  0.95034996321E+02 0.  0.
         13    1    3    3    0    0 -0.32099660165E+02 -0.32368285685E+02 -0.78541202566E+01  0.46257890894E+02  0.10566000000E+00 0. -1.
         22    1    1    0    0    0  0.19605501094E+02 -0.16484129071E+02 -0.62812365244E+01  0.26373397897E+02  0.00000000000E+00 0.  1.
</event>
<event>
 5    1  0.1751027E-003  0.9118800E+02  0.7818608E-02  0.1130116E+00
         25   -1    0    0    0    0  0.00000000000E+00  0.00000000000E+00  0.99999998245E-14  0.12500000000E+03  0.12500000000E+03 0.  0.
        -13    1    3    3    0    0  0.26612120768E+02  0.53859907110E+02  0.10579180645E+02  0.61000203219E+02  0.10566000000E+00 0.  1.
         23    2    1    0    0    0  0.20465726969E+02  0.21034072701E+02  0.14748591870E+01  0.95615422338E+02  0.90988216735E+02 0.  0.
         13    1    3    3    0    0 -0.61463937993E+01 -0.32825834409E+02 -0.91043214581E+01  0.34615219119E+02  0.10566000000E+00 0. -1.
         22    1    1    0    0    0 -0.20465726969E+02 -0.21034072701E+02 -0.14748591870E+01  0.29384577662E+02  0.00000000000E+00 0.  1.
</event>
<event>
 5    1  0.1751027E-003  0.9118800E+02  0.7818608E-02  0.1130116E+00
         25   -1    0    0    0    0  0.00000000000E+00  0.00000000000E+00  0.99999998245E-14  0.12500000000E+03  0.12500000000E+03 0.  0.
        -13    1    3    3    0    0  0.30484890663E+00 -0.46128875228E+02  0.19866465810E+02  0.50226026027E+02  0.10566000000E+00 0. -1.
         23    2    1    0    0    0  0.25786590534E+02 -0.10769772148E+02  0.32668551524E+01  0.96864460445E+02  0.92688268466E+02 0.  0.
         13    1    3    3    0    0  0.25481741627E+02  0.35359103079E+02 -0.16599610657E+02  0.46638434418E+02  0.10566000000E+00 0.  1.
         22    1    1    0    0    0 -0.25786590534E+02  0.10769772148E+02 -0.32668551524E+01  0.28135539555E+02  0.00000000000E+00 0.  1.
</event>
<event>
 5    1  0.1751027E-003  0.9118800E+02  0.7818608E-02  0.1130116E+00
         25   -1    0    0    0    0  0.00000000000E+00  0.00000000000E+00  0.99999998245E-14  0.12500000000E+03  0.12500000000E+03 0.  0.
        -13    1    3    3    0    0 -0.12067972844E+02 -0.18533000053E+02  0.37870020974E+02  0.43854962229E+02  0.10566000000E+00 0.  1.
         23    2    1    0    0    0 -0.21711911196E+02  0.19349984166E+02  0.38759687782E+01  0.95659718662E+02  0.91049050877E+02 0.  0.
         13    1    3    3    0    0 -0.96439383522E+01  0.37882984220E+02 -0.33994052196E+02  0.51804756433E+02  0.10566000000E+00 0. -1.
         22    1    1    0    0    0  0.21711911196E+02 -0.19349984166E+02 -0.38759687782E+01  0.29340281338E+02  0.00000000000E+00 0. -1.
</event>
<event>
 5    1  0.1751027E-003  0.9118800E+02  0.7818608E-02  0.1130116E+00
         25   -1    0    0    0    0  0.00000000000E+00  0.00000000000E+00  0.99999998245E-14  0.12500000000E+03  0.12500000000E+03 0.  0.
        -13    1    3    3    0    0 -0.48132348274E+02  0.32388735725E+01  0.32386765938E+01  0.48349906334E+02  0.10566000000E+00 0.  1.
         23    2    1    0    0    0 -0.15330627778E+02 -0.83078841933E+01 -0.25939580916E+02  0.93744425362E+02  0.88380463568E+02 0.  0.
         13    1    3    3    0    0  0.32801720496E+02 -0.11546757766E+02 -0.29178257510E+02  0.45394519028E+02  0.10566000000E+00 0. -1.
         22    1    1    0    0    0  0.15330627778E+02  0.83078841933E+01  0.25939580916E+02  0.31255574638E+02  0.00000000000E+00 0. -1.
</event>
<event>
 5    1  0.1751027E-003  0.9118800E+02  0.7818608E-02  0.1130116E+00
         25   -1    0    0    0    0  0.00000000000E+00  0.00000000000E+00  0.99999998245E-14  0.12500000000E+03  0.12500000000E+03 0.  0.
        -13    1    3    3    0    0  0.23938786177E+02  0.31422903725E+02 -0.29862016014E+02  0.49519849824E+02  0.10566000000E+00 0. -1.
         23    2    1    0    0    0  0.26450768081E+02  0.10507566768E+02  0.10186263513E+02  0.94770675565E+02  0.89820203135E+02 0.  0.
         13    1    3    3    0    0  0.25119819034E+01 -0.20915336957E+02  0.40048279527E+02  0.45250825741E+02  0.10566000000E+00 0.  1.
         22    1    1    0    0    0 -0.26450768081E+02 -0.10507566768E+02 -0.10186263513E+02  0.30229324435E+02  0.00000000000E+00 0. -1.
</event>
<event>
 5    1  0.1751027E-003  0.9118800E+02  0.7818608E-02  0.1130116E+00
         25   -1    0    0    0    0  0.00000000000E+00  0.00000000000E+00  0.99999998245E-14  0.12500000000E+03  0.12500000000E+03 0.  0.
        -13    1    3    3    0    0  0.36092032113E+02 -0.48131326743E+02 -0.76704303128E+01  0.60647391216E+02  0.10566000000E+00 0.  1.
         23    2    1    0    0    0  0.24098884855E+02 -0.14931555559E+02 -0.62143682970E+01  0.95977147349E+02  0.91483806421E+02 0.  0.
         13    1    3    3    0    0 -0.11993147258E+02  0.33199771184E+02  0.14560620158E+01  0.35329756133E+02  0.10566000000E+00 0. -1.
         22    1    1    0    0    0 -0.24098884855E+02  0.14931555559E+02  0.62143682970E+01  0.29022852651E+02  0.00000000000E+00 0.  1.
</event>
<event>
 5    1  0.1751027E-003  0.9118800E+02  0.7818608E-02  0.1130116E+00
         25   -1    0    0    0    0  0.00000000000E+00  0.00000000000E+00  0.99999998245E-14  0.12500000000E+03  0.12500000000E+03 0.  0.
        -13    1    3    3    0    0  0.32741374124E+02 -0.52033344366E+02  0.77241433405E+01  0.61960794539E+02  0.10566000000E+00 0.  1.
         23    2    1    0    0    0  0.10763032170E+02 -0.26794484565E+02  0.62226796908E+01  0.95461736559E+02  0.90776837022E+02 0.  0.
         13    1    3    3    0    0 -0.21978341954E+02  0.25238859802E+02 -0.15014636496E+01  0.33500942020E+02  0.10566000000E+00 0. -1.
         22    1    1    0    0    0 -0.10763032170E+02  0.26794484565E+02 -0.62226796908E+01  0.29538263441E+02  0.00000000000E+00 0.  1.
</event>
<event>
 5    1  0.1751027E-003  0.9118800E+02  0.7818608E-02  0.1130116E+00
         25   -1    0    0    0    0  0.00000000000E+00  0.00000000000E+00  0.99999998245E-14  0.12500000000E+03  0.12500000000E+03 0.  0.
        -13    1    3    3    0    0  0.58111554706E+02 -0.19638378536E+01 -0.67006324356E+01  0.58529642819E+02  0.10566000000E+00 0. -1.
         23    2    1    0    0    0  0.27122431834E+02  0.75419019397E+01  0.10165287802E+02  0.95069419158E+02  0.90234997587E+02 0.  0.
         13    1    3    3    0    0 -0.30989122872E+02  0.95057397933E+01  0.16865920238E+02  0.36539776339E+02  0.10566000000E+00 0.  1.
         22    1    1    0    0    0 -0.27122431834E+02 -0.75419019397E+01 -0.10165287802E+02  0.29930580842E+02  0.00000000000E+00 0. -1.
</event>
<event>
 5    1  0.1751027E-003  0.9118800E+02  0.7818608E-02  0.1130116E+00
         25   -1    0    0    0    0  0.00000000000E+00  0.00000000000E+00  0.99999998245E-14  0.12500000000E+03  0.12500000000E+03 0.  0.
        -13    1    3    3    0    0  0.40857765212E+02  0.30710221338E+02  0.28994961105E+02  0.58763880115E+02  0.10566000000E+00 0.  1.
         23    2    1    0    0    0  0.16430297523E+02  0.15995235483E+01  0.22146412001E+02  0.97377966824E+02  0.93378218584E+02 0.  0.
         13    1    3    3    0    0 -0.24427467689E+02 -0.29110697789E+02 -0.68485491040E+01  0.38614086708E+02  0.10566000000E+00 0. -1.
         22    1    1    0    0    0 -0.16430297523E+02 -0.15995235483E+01 -0.22146412001E+02  0.27622033176E+02  0.00000000000E+00 0.  1.
</event>
<event>
 5    1  0.1751027E-003  0.9118800E+02  0.7818608E-02  0.1130116E+00
         25   -1    0    0    0    0  0.00000000000E+00  0.00000000000E+00  0.99999998245E-14  0.12500000000E+03  0.12500000000E+03 0.  0.
        -13    1    3    3    0    0  0.35652062089E+02  0.17761003717E+02  0.94382837399E+00  0.39842499423E+02  0.10566000000E+00 0. -1.
         23    2    1    0    0    0  0.20989482295E+01 -0.24901045535E+02  0.14928524494E+02  0.95891092498E+02  0.91366148679E+02 0.  0.
         13    1    3    3    0    0 -0.33553113860E+02 -0.42662049252E+02  0.13984696120E+02  0.56048593075E+02  0.10566000000E+00 0.  1.
         22    1    1    0    0    0 -0.20989482295E+01  0.24901045535E+02 -0.14928524494E+02  0.29108907502E+02  0.00000000000E+00 0.  1.
</event>
<event>
 5    1  0.1751027E-003  0.9118800E+02  0.7818608E-02  0.1130116E+00
         25   -1    0    0    0    0  0.00000000000E+00  0.00000000000E+00  0.99999998245E-14  0.12500000000E+03  0.12500000000E+03 0.  0.
        -13    1    3    3    0    0 -0.23594835668E+02  0.11922748541E+02 -0.28570074572E+02  0.38924651933E+02  0.10566000000E+00 0. -1.
         23    2    1    0    0    0  0.21376147853E+02 -0.17329540242E+02 -0.10786484827E+02  0.95443259365E+02  0.90751390300E+02 0.  0.
         13    1    3    3    0    0  0.44970983521E+02 -0.29252288783E+02  0.17783589745E+02  0.56518607433E+02  0.10566000000E+00 0.  1.
         22    1    1    0    0    0 -0.21376147853E+02  0.17329540242E+02  0.10786484827E+02  0.29556740635E+02  0.00000000000E+00 0.  1.
</event>
<event>
 5    1  0.1751027E-003  0.9118800E+02  0.7818608E-02  0.1130116E+00
         25   -1    0    0    0    0  0.00000000000E+00  0.00000000000E+00  0.99999998245E-14  0.12500000000E+03  0.12500000000E+03 0.  0.
        -13    1    3    3    0    0  0.19972135144E+02 -0.28139153257E+02  0.40657403600E+02  0.53326670248E+02  0.10566000000E+00 0. -1.
         23    2    1    0    0    0  0.80915410893E+01  0.92980917196E+01  0.27692191404E+02  0.94688533332E+02  0.89705815492E+02 0.  0.
         13    1    3    3    0    0 -0.11880594054E+02  0.37437244976E+02 -0.12965212196E+02  0.41361863084E+02  0.10566000000E+00 0.  1.
         22    1    1    0    0    0 -0.80915410893E+01 -0.92980917196E+01 -0.27692191404E+02  0.30311466668E+02  0.00000000000E+00 0. -1.
</event>
<event>
 5    1  0.1751027E-003  0.9118800E+02  0.7818608E-02  0.1130116E+00
         25   -1    0    0    0    0  0.00000000000E+00  0.00000000000E+00  0.99999998245E-14  0.12500000000E+03  0.12500000000E+03 0.  0.
        -13    1    3    3    0    0  0.42203824387E+02 -0.36797807013E+00  0.16418882120E+02  0.45286742595E+02  0.10566000000E+00 0. -1.
         23    2    1    0    0    0 -0.32136469278E+01 -0.25770969504E+01  0.31529140734E+02  0.93202898391E+02  0.87611212740E+02 0.  0.
         13    1    3    3    0    0 -0.45417471315E+02 -0.22091188803E+01  0.15110258614E+02  0.47916155796E+02  0.10566000000E+00 0.  1.
         22    1    1    0    0    0  0.32136469278E+01  0.25770969504E+01 -0.31529140734E+02  0.31797101609E+02  0.00000000000E+00 0.  1.
</event>
<event>
 5    1  0.1751027E-003  0.9118800E+02  0.7818608E-02  0.1130116E+00
         25   -1    0    0    0    0  0.00000000000E+00  0.00000000000E+00  0.99999998245E-14  0.12500000000E+03  0.12500000000E+03 0.  0.
        -13    1    3    3    0    0 -0.25161485608E+02 -0.13114494633E+02  0.24518398498E+02  0.37500044753E+02  0.10566000000E+00 0. -1.
         23    2    1    0    0    0 -0.13652141988E+02  0.19277785774E+02 -0.20209713211E+02  0.93912277129E+02  0.88617545003E+02 0.  0.
         13    1    3    3    0    0  0.11509343620E+02  0.32392280407E+02 -0.44728111710E+02  0.56412232376E+02  0.10566000000E+00 0.  1.
         22    1    1    0    0    0  0.13652141988E+02 -0.19277785774E+02  0.20209713211E+02  0.31087722871E+02  0.00000000000E+00 0.  1.
</event>
<event>
 5    1  0.1751027E-003  0.9118800E+02  0.7818608E-02  0.1130116E+00
         25   -1    0    0    0    0  0.00000000000E+00  0.00000000000E+00  0.99999998245E-14  0.12500000000E+03  0.12500000000E+03 0.  0.
        -13    1    3    3    0    0  0.92736801413E+01  0.24686255321E+02  0.18945433810E+02  0.32470801829E+02  0.10566000000E+00 0.  1.
         23    2    1    0    0    0 -0.18759590805E+02 -0.17912335245E+02 -0.16213453799E+02  0.94411602115E+02  0.89319093864E+02 0.  0.
         13    1    3    3    0    0 -0.28033270946E+02 -0.42598590566E+02 -0.35158887609E+02  0.61940800286E+02  0.10566000000E+00 0. -1.
         22    1    1    0    0    0  0.18759590805E+02  0.17912335245E+02  0.16213453799E+02  0.30588397885E+02  0.00000000000E+00 0. -1.
</event>
<event>
 5    1  0.1751027E-003  0.9118800E+02  0.7818608E-02  0.1130116E+00
         25   -1    0    0    0    0  0.00000000000E+00  0.00000000000E+00  0.99999998245E-14  0.12500000000E+03  0.12500000000E+03 0.  0.
        -13    1    3    3    0    0 -0.26624044456E+02  0.12401858386E+02 -0.27829822225E+02  0.40461784485E+02  0.10566000000E+00 0. -1.
         23    2    1    0    0    0  0.25740733544E+02  0.91788072353E+01 -0.83669954664E+01  0.96419543762E+02  0.92086296160E+02 0.  0.
         13    1    3    3    0    0  0.52364778000E+02 -0.32230511504E+01  0.19462826759E+02  0.55957759276E+02  0.10566000000E+00 0.  1.
         22    1    1    0    0    0 -0.25740733544E+02 -0.91788072353E+01  0.83669954664E+01  0.28580456238E+02  0.00000000000E+00 0.  1.
</event>
<event>
 5    1  0.1751027E-003  0.9118800E+02  0.7818608E-02  0.1130116E+00
         25   -1    0    0    0    0  0.00000000000E+00  0.00000000000E+00  0.99999998245E-14  0.12500000000E+03  0.12500000000E+03 0.  0.
        -13    1    3    3    0    0 -0.54955124466E+02  0.88326853463E+01 -0.58640534431E+01  0.55968565484E+02  0.10566000000E+00 0.  1.
         23    2    1    0    0    0 -0.17502922219E+02 -0.13844923778E+02  0.70153905320E+01  0.10160662690E+03  0.98876977732E+02 0.  0.
         13    1    3    3    0    0  0.37452202248E+02 -0.22677609124E+02  0.12879443975E+02  0.45638061417E+02  0.10566000000E+00 0. -1.
         22    1    1    0    0    0  0.17502922219E+02  0.13844923778E+02 -0.70153905320E+01  0.23393373098E+02  0.00000000000E+00 0.  1.
</event>
<event>
 5    1  0.1751027E-003  0.9118800E+02  0.7818608E-02  0.1130116E+00
         25   -1    0    0    0    0  0.00000000000E+00  0.00000000000E+00  0.99999998245E-14  0.12500000000E+03  0.12500000000E+03 0.  0.
        -13    1    3    3    0    0 -0.27680948568E+01  0.51787900949E+02  0.36790819105E-01  0.51861947047E+02  0.10566000000E+00 0.  1.
         23    2    1    0    0    0  0.17724365897E+02  0.17926851292E+02 -0.16621463463E+02  0.94804003720E+02  0.89866572929E+02 0.  0.
         13    1    3    3    0    0  0.20492460753E+02 -0.33861049657E+02 -0.16658254282E+02  0.42942056673E+02  0.10566000000E+00 0. -1.
         22    1    1    0    0    0 -0.17724365897E+02 -0.17926851292E+02  0.16621463463E+02  0.30195996280E+02  0.00000000000E+00 0. -1.
</event>
<event>
 5    1  0.1751027E-003  0.9118800E+02  0.7818608E-02  0.1130116E+00
         25   -1    0    0    0    0  0.00000000000E+00  0.00000000000E+00  0.99999998245E-14  0.12500000000E+03  0.12500000000E+03 0.  0.
        -13    1    3    3    0    0 -0.50763842654E+02  0.32953428903E+02  0.67295879807E+01  0.60894948197E+02  0.10566000000E+00 0. -1.
         23    2    1    0    0    0 -0.21897950012E+02  0.16153687972E+02  0.12943673995E+02  0.94866952588E+02  0.89954089107E+02 0.  0.
         13    1    3    3    0    0  0.28865892642E+02 -0.16799740931E+02  0.62140860147E+01  0.33972004392E+02  0.10566000000E+00 0.  1.
         22    1    1    0    0    0  0.21897950012E+02 -0.16153687972E+02 -0.12943673995E+02  0.30133047412E+02  0.00000000000E+00 0. -1.
</event>
<event>
 5    1  0.1751027E-003  0.9118800E+02  0.7818608E-02  0.1130116E+00
         25   -1    0    0    0    0  0.00000000000E+00  0.00000000000E+00  0.99999998245E-14  0.12500000000E+03  0.12500000000E+03 0.  0.
        -13    1    3    3    0    0 -0.46583029002E+02 -0.23299748307E+02  0.10451313137E+02  0.53123422070E+02  0.10566000000E+00 0.  1.
         23    2    1    0    0    0 -0.94426679640E+01 -0.28876516042E+02  0.15285699907E+02  0.90990151740E+02  0.84395129806E+02 0.  0.
         13    1    3    3    0    0  0.37140361038E+02 -0.55767677350E+01  0.48343867705E+01  0.37866729669E+02  0.10566000000E+00 0. -1.
         22    1    1    0    0    0  0.94426679640E+01  0.28876516042E+02 -0.15285699907E+02  0.34009848260E+02  0.00000000000E+00 0.  1.
</event>
<event>
 5    1  0.1751027E-003  0.9118800E+02  0.7818608E-02  0.1130116E+00
         25   -1    0    0    0    0  0.00000000000E+00  0.00000000000E+00  0.99999998245E-14  0.12500000000E+03  0.12500000000E+03 0.  0.
        -13    1    3    3    0    0  0.30696027489E+02 -0.17332862151E+02 -0.24741458387E+01  0.35338460289E+02  0.10566000000E+00 0.  1.
         23    2    1    0    0    0  0.33889002113E+01  0.27875060771E+02  0.17622544267E+02  0.91847960484E+02  0.85656232236E+02 0.  0.
         13    1    3    3    0    0 -0.27307127277E+02  0.45207922922E+02  0.20096690106E+02  0.56509500195E+02  0.10566000000E+00 0. -1.
         22    1    1    0    0    0 -0.33889002113E+01 -0.27875060771E+02 -0.17622544267E+02  0.33152039516E+02  0.00000000000E+00 0. -1.
</event>
<event>
 5    1  0.1751027E-003  0.9118800E+02  0.7818608E-02  0.1130116E+00
         25   -1    0    0    0    0  0.00000000000E+00  0.00000000000E+00  0.99999998245E-14  0.12500000000E+03  0.12500000000E+03 0.  0.
        -13    1    3    3    0    0 -0.67454592571E+01 -0.25622470598E+02 -0.19305885754E+02  0.32783236706E+02  0.10566000000E+00 0.  1.
         23    2    1    0    0    0 -0.69190130198E+01  0.26570046439E+02  0.13473673849E+02  0.94416017330E+02  0.89325272642E+02 0.  0.
         13    1    3    3    0    0 -0.17355376277E+00  0.52192517038E+02  0.32779559603E+02  0.61632780624E+02  0.10566000000E+00 0. -1.
         22    1    1    0    0    0  0.69190130198E+01 -0.26570046439E+02 -0.13473673849E+02  0.30583982670E+02  0.00000000000E+00 0. -1.
</event>
<event>
 5    1  0.1751027E-003  0.9118800E+02  0.7818608E-02  0.1130116E+00
         25   -1    0    0    0    0  0.00000000000E+00  0.00000000000E+00  0.99999998245E-14  0.12500000000E+03  0.12500000000E+03 0.  0.
        -13    1    3    3    0    0 -0.36468751369E+02  0.95431302243E+01 -0.46517734593E+01  0.37982776640E+02  0.10566000000E+00 0. -1.
         23    2    1    0    0    0  0.13217736750E+02  0.73292486731E+01  0.24926585671E+02  0.95849337502E+02  0.91309004898E+02 0.  0.
         13    1    3    3    0    0  0.49686488119E+02 -0.22138815512E+01  0.29578359130E+02  0.57866560862E+02  0.10566000000E+00 0.  1.
         22    1    1    0    0    0 -0.13217736750E+02 -0.73292486731E+01 -0.24926585671E+02  0.29150662498E+02  0.00000000000E+00 0.  1.
</event>
<event>
 5    1  0.1751027E-003  0.9118800E+02  0.7818608E-02  0.1130116E+00
         25   -1    0    0    0    0  0.00000000000E+00  0.00000000000E+00  0.99999998245E-14  0.12500000000E+03  0.12500000000E+03 0.  0.
        -13    1    3    3    0    0  0.34854904126E+02  0.17527304055E+02 -0.15366204323E+02  0.41930920911E+02  0.10566000000E+00 0. -1.
         23    2    1    0    0    0  0.12016629306E+02 -0.26746062836E+02  0.40544080927E+01  0.95399501996E+02  0.90691099337E+02 0.  0.
         13    1    3    3    0    0 -0.22838274820E+02 -0.44273366891E+02  0.19420612416E+02  0.53468581085E+02  0.10566000000E+00 0.  1.
         22    1    1    0    0    0 -0.12016629306E+02  0.26746062836E+02 -0.40544080927E+01  0.29600498004E+02  0.00000000000E+00 0.  1.
</event>
<event>
 5    1  0.1751027E-003  0.9118800E+02  0.7818608E-02  0.1130116E+00
         25   -1    0    0    0    0  0.00000000000E+00  0.00000000000E+00  0.99999998245E-14  0.12500000000E+03  0.12500000000E+03 0.  0.
        -13    1    3    3    0    0  0.33673002447E+02 -0.42060197147E+01 -0.21062764946E+02  0.39940116760E+02  0.10566000000E+00 0.  1.
         23    2    1    0    0    0  0.55389374080E+01  0.30147727856E+02  0.83851996743E+01  0.93221439679E+02  0.87637662679E+02 0.  0.
         13    1    3    3    0    0 -0.28134065038E+02  0.34353747571E+02  0.29447964620E+02  0.53281322919E+02  0.10566000000E+00 0. -1.
         22    1    1    0    0    0 -0.55389374080E+01 -0.30147727856E+02 -0.83851996743E+01  0.31778560321E+02  0.00000000000E+00 0. -1.
</event>
<event>
 5    1  0.1751027E-003  0.9118800E+02  0.7818608E-02  0.1130116E+00
         25   -1    0    0    0    0  0.00000000000E+00  0.00000000000E+00  0.99999998245E-14  0.12500000000E+03  0.12500000000E+03 0.  0.
        -13    1    3    3    0    0  0.39082008334E+01 -0.54999998779E+02 -0.22066351452E+02  0.59390310067E+02  0.10566000000E+00 0.  1.
         23    2    1    0    0    0 -0.96176159759E+01 -0.20741945876E+02 -0.16869574483E+02  0.96586809419E+02  0.92313067085E+02 0.  0.
         13    1    3    3    0    0 -0.13525816809E+02  0.34258052903E+02  0.51967769694E+01  0.37196499351E+02  0.10566000000E+00 0. -1.
         22    1    1    0    0    0  0.96176159759E+01  0.20741945876E+02  0.16869574483E+02  0.28413190581E+02  0.00000000000E+00 0.  1.
</event>
<event>
 5    1  0.1751027E-003  0.9118800E+02  0.7818608E-02  0.1130116E+00
         25   -1    0    0    0    0  0.00000000000E+00  0.00000000000E+00  0.99999998245E-14  0.12500000000E+03  0.12500000000E+03 0.  0.
        -13    1    3    3    0    0 -0.18111278232E+02  0.57573031268E+01  0.42647290227E+02  0.46690121720E+02  0.10566000000E+00 0.  1.
         23    2    1    0    0    0 -0.27464901115E+02  0.61647858412E+01 -0.59908319888E+01  0.96221267477E+02  0.91816757017E+02 0.  0.
         13    1    3    3    0    0 -0.93536228827E+01  0.40748271437E+00 -0.48638122216E+02  0.49531145756E+02  0.10566000000E+00 0. -1.
         22    1    1    0    0    0  0.27464901115E+02 -0.61647858412E+01  0.59908319888E+01  0.28778732523E+02  0.00000000000E+00 0. -1.
</event>
<event>
 5    1  0.1751027E-003  0.9118800E+02  0.7818608E-02  0.1130116E+00
         25   -1    0    0    0    0  0.00000000000E+00  0.00000000000E+00  0.99999998245E-14  0.12500000000E+03  0.12500000000E+03 0.  0.
        -13    1    3    3    0    0 -0.17319793302E+02 -0.30030107493E+02 -0.49509558291E+02  0.60439971230E+02  0.10566000000E+00 0. -1.
         23    2    1    0    0    0 -0.15765231091E+02 -0.20875181352E+02 -0.18111260331E+02  0.93182811900E+02  0.87582549489E+02 0.  0.
         13    1    3    3    0    0  0.15545622109E+01  0.91549261412E+01  0.31398297960E+02  0.32742840670E+02  0.10566000000E+00 0.  1.
         22    1    1    0    0    0  0.15765231091E+02  0.20875181352E+02  0.18111260331E+02  0.31817188100E+02  0.00000000000E+00 0. -1.
</event>
<event>
 5    1  0.1751027E-003  0.9118800E+02  0.7818608E-02  0.1130116E+00
         25   -1    0    0    0    0  0.00000000000E+00  0.00000000000E+00  0.99999998245E-14  0.12500000000E+03  0.12500000000E+03 0.  0.
        -13    1    3    3    0    0 -0.32227009059E+02  0.17887460478E+02 -0.13104998091E+02  0.39118965915E+02  0.10566000000E+00 0.  1.
         23    2    1    0    0    0  0.17994493557E+02  0.57573617173E+01  0.17565760122E+02  0.99202617555E+02  0.95789636124E+02 0.  0.
         13    1    3    3    0    0  0.50221502617E+02 -0.12130098760E+02  0.30670758214E+02  0.60083651640E+02  0.10566000000E+00 0. -1.
         22    1    1    0    0    0 -0.17994493557E+02 -0.57573617173E+01 -0.17565760122E+02  0.25797382445E+02  0.00000000000E+00 0. -1.
</event>
<event>
 5    1  0.1751027E-003  0.9118800E+02  0.7818608E-02  0.1130116E+00
         25   -1    0    0    0    0  0.00000000000E+00  0.00000000000E+00  0.99999998245E-14  0.12500000000E+03  0.12500000000E+03 0.  0.
        -13    1    3    3    0    0  0.32940644906E+02  0.97494730132E+01  0.14066977070E+02  0.37121817289E+02  0.10566000000E+00 0. -1.
         23    2    1    0    0    0 -0.13602677637E+02  0.21205548040E+02 -0.17329719143E+02  0.94421784353E+02  0.89333342534E+02 0.  0.
         13    1    3    3    0    0 -0.46543322544E+02  0.11456075027E+02 -0.31396696213E+02  0.57299967064E+02  0.10566000000E+00 0.  1.
         22    1    1    0    0    0  0.13602677637E+02 -0.21205548040E+02  0.17329719143E+02  0.30578215647E+02  0.00000000000E+00 0.  1.
</event>
<event>
 5    1  0.1751027E-003  0.9118800E+02  0.7818608E-02  0.1130116E+00
         25   -1    0    0    0    0  0.00000000000E+00  0.00000000000E+00  0.99999998245E-14  0.12500000000E+03  0.12500000000E+03 0.  0.
        -13    1    3    3    0    0  0.13516510762E+02 -0.39894398138E+02  0.13263110008E+02  0.44160845973E+02  0.10566000000E+00 0.  1.
         23    2    1    0    0    0  0.11138307510E+02  0.11704635194E+02  0.23166518436E+02  0.96755567705E+02  0.92541298490E+02 0.  0.
         13    1    3    3    0    0 -0.23782032522E+01  0.51599033332E+02  0.99034084279E+01  0.52594721731E+02  0.10566000000E+00 0. -1.
         22    1    1    0    0    0 -0.11138307510E+02 -0.11704635194E+02 -0.23166518436E+02  0.28244432295E+02  0.00000000000E+00 0. -1.
</event>
<event>
 5    1  0.1751027E-003  0.9118800E+02  0.7818608E-02  0.1130116E+00
         25   -1    0    0    0    0  0.00000000000E+00  0.00000000000E+00  0.99999998245E-14  0.12500000000E+03  0.12500000000E+03 0.  0.
        -13    1    3    3    0    0 -0.39442140691E+02  0.20335633749E+01  0.23050034300E+02  0.45728908663E+02  0.10566000000E+00 0. -1.
         23    2    1    0    0    0  0.10144478484E+02  0.20547796471E+02  0.69373989404E+01  0.10105736256E+03  0.98180143817E+02 0.  0.
         13    1    3    3    0    0  0.49586619175E+02  0.18514233096E+02 -0.16112635360E+02  0.55328453897E+02  0.10566000000E+00 0.  1.
         22    1    1    0    0    0 -0.10144478484E+02 -0.20547796471E+02 -0.69373989404E+01  0.23942637440E+02  0.00000000000E+00 0.  1.
</event>
<event>
 5    1  0.1751027E-003  0.9118800E+02  0.7818608E-02  0.1130116E+00
         25   -1    0    0    0    0  0.00000000000E+00  0.00000000000E+00  0.99999998245E-14  0.12500000000E+03  0.12500000000E+03 0.  0.
        -13    1    3    3    0    0  0.27326532528E+02  0.32895947390E+01  0.42278625782E+02  0.50448529965E+02  0.10566000000E+00 0. -1.
         23    2    1    0    0    0 -0.13918453187E+02 -0.53195161229E+01  0.24808251621E+02  0.96060927116E+02  0.91598208383E+02 0.  0.
         13    1    3    3    0    0 -0.41244985715E+02 -0.86091108619E+01 -0.17470374162E+02  0.45612397151E+02  0.10566000000E+00 0.  1.
         22    1    1    0    0    0  0.13918453187E+02  0.53195161229E+01 -0.24808251621E+02  0.28939072884E+02  0.00000000000E+00 0. -1.
</event>
<event>
 5    1  0.1751027E-003  0.9118800E+02  0.7818608E-02  0.1130116E+00
         25   -1    0    0    0    0  0.00000000000E+00  0.00000000000E+00  0.99999998245E-14  0.12500000000E+03  0.12500000000E+03 0.  0.
        -13    1    3    3    0    0  0.44970095342E+02  0.33802221680E+02 -0.26543220319E+02  0.62204930467E+02  0.10566000000E+00 0. -1.
         23    2    1    0    0    0  0.18614440478E+02  0.19346467060E+02 -0.12787303260E+02  0.95262846359E+02  0.90502550183E+02 0.  0.
         13    1    3    3    0    0 -0.26355654863E+02 -0.14455754620E+02  0.13755917059E+02  0.33057915891E+02  0.10566000000E+00 0.  1.
         22    1    1    0    0    0 -0.18614440478E+02 -0.19346467060E+02  0.12787303260E+02  0.29737153641E+02  0.00000000000E+00 0. -1.
</event>
<event>
 5    1  0.1751027E-003  0.9118800E+02  0.7818608E-02  0.1130116E+00
         25   -1    0    0    0    0  0.00000000000E+00  0.00000000000E+00  0.99999998245E-14  0.12500000000E+03  0.12500000000E+03 0.  0.
        -13    1    3    3    0    0  0.30343199408E+02 -0.31735477826E+02  0.11214566069E+02  0.45316972089E+02  0.10566000000E+00 0.  1.
         23    2    1    0    0    0 -0.17280475024E+02 -0.25256935325E+02  0.73005314276E+01  0.93538509918E+02  0.88088747746E+02 0.  0.
         13    1    3    3    0    0 -0.47623674432E+02  0.64785425017E+01 -0.39140346412E+01  0.48221537829E+02  0.10566000000E+00 0. -1.
         22    1    1    0    0    0  0.17280475024E+02  0.25256935325E+02 -0.73005314276E+01  0.31461490082E+02  0.00000000000E+00 0. -1.
</event>
<event>
 5    1  0.1751027E-003  0.9118800E+02  0.7818608E-02  0.1130116E+00
         25   -1    0    0    0    0  0.00000000000E+00  0.00000000000E+00  0.99999998245E-14  0.12500000000E+03  0.12500000000E+03 0.  0.
        -13    1    3    3    0    0  0.38877536956E+02 -0.22873261592E+02  0.16357636502E+02  0.47981584087E+02  0.10566000000E+00 0. -1.
         23    2    1    0    0    0  0.21252072499E+02  0.39114402302E+01 -0.19364967070E+02  0.95983592576E+02  0.91492612510E+02 0.  0.
         13    1    3    3    0    0 -0.17625464456E+02  0.26784701822E+02 -0.35722603571E+02  0.48002008488E+02  0.10566000000E+00 0.  1.
         22    1    1    0    0    0 -0.21252072499E+02 -0.39114402302E+01  0.19364967070E+02  0.29016407424E+02  0.00000000000E+00 0.  1.
</event>
<event>
 5    1  0.1751027E-003  0.9118800E+02  0.7818608E-02  0.1130116E+00
         25   -1    0    0    0    0  0.00000000000E+00  0.00000000000E+00  0.99999998245E-14  0.12500000000E+03  0.12500000000E+03 0.  0.
        -13    1    3    3    0    0  0.41108053981E+02  0.23047024080E+02  0.28223822700E+02  0.54932984198E+02  0.10566000000E+00 0. -1.
         23    2    1    0    0    0  0.47610774411E+01  0.27125917469E+02  0.12881380463E+02  0.94595835490E+02  0.89576553140E+02 0.  0.
         13    1    3    3    0    0 -0.36346976540E+02  0.40788933882E+01 -0.15342442236E+02  0.39662851292E+02  0.10566000000E+00 0.  1.
         22    1    1    0    0    0 -0.47610774411E+01 -0.27125917469E+02 -0.12881380463E+02  0.30404164510E+02  0.00000000000E+00 0. -1.
</event>
<event>
 5    1  0.1751027E-003  0.9118800E+02  0.7818608E-02  0.1130116E+00
         25   -1    0    0    0    0  0.00000000000E+00  0.00000000000E+00  0.99999998245E-14  0.12500000000E+03  0.12500000000E+03 0.  0.
        -13    1    3    3    0    0  0.32909152166E+02 -0.17900892487E+02 -0.26902579798E+02  0.46121732534E+02  0.10566000000E+00 0. -1.
         23    2    1    0    0    0 -0.11878159190E+02 -0.24655717239E+02 -0.17890205485E+02  0.92303600953E+02  0.86318597291E+02 0.  0.
         13    1    3    3    0    0 -0.44787311356E+02 -0.67548247527E+01  0.90123743136E+01  0.46181868419E+02  0.10566000000E+00 0.  1.
         22    1    1    0    0    0  0.11878159190E+02  0.24655717239E+02  0.17890205485E+02  0.32696399047E+02  0.00000000000E+00 0.  1.
</event>
<event>
 5    1  0.1751027E-003  0.9118800E+02  0.7818608E-02  0.1130116E+00
         25   -1    0    0    0    0  0.00000000000E+00  0.00000000000E+00  0.99999998245E-14  0.12500000000E+03  0.12500000000E+03 0.  0.
        -13    1    3    3    0    0 -0.41611037425E+01 -0.28434907179E+02 -0.27886330542E+02  0.40043942436E+02  0.10566000000E+00 0.  1.
         23    2    1    0    0    0  0.30174161532E+01 -0.18185425140E+02  0.24745523871E+02  0.94142983952E+02  0.88942374535E+02 0.  0.
         13    1    3    3    0    0  0.71785198958E+01  0.10249482040E+02  0.52631854413E+02  0.54099041516E+02  0.10566000000E+00 0. -1.
         22    1    1    0    0    0 -0.30174161532E+01  0.18185425140E+02 -0.24745523871E+02  0.30857016048E+02  0.00000000000E+00 0. -1.
</event>
<event>
 5    1  0.1751027E-003  0.9118800E+02  0.7818608E-02  0.1130116E+00
         25   -1    0    0    0    0  0.00000000000E+00  0.00000000000E+00  0.99999998245E-14  0.12500000000E+03  0.12500000000E+03 0.  0.
        -13    1    3    3    0    0 -0.37015362434E+02  0.14409914161E+02  0.22418531315E+02  0.45611230992E+02  0.10566000000E+00 0.  1.
         23    2    1    0    0    0 -0.35475009854E+01  0.26620073858E+02 -0.12394541435E+02  0.95422343689E+02  0.90722576695E+02 0.  0.
         13    1    3    3    0    0  0.33467861449E+02  0.12210159697E+02 -0.34813072750E+02  0.49811112697E+02  0.10566000000E+00 0. -1.
         22    1    1    0    0    0  0.35475009854E+01 -0.26620073858E+02  0.12394541435E+02  0.29577656311E+02  0.00000000000E+00 0. -1.
</event>
<event>
 5    1  0.1751027E-003  0.9118800E+02  0.7818608E-02  0.1130116E+00
         25   -1    0    0    0    0  0.00000000000E+00  0.00000000000E+00  0.99999998245E-14  0.12500000000E+03  0.12500000000E+03 0.  0.
        -13    1    3    3    0    0 -0.31632076333E+02  0.26889789272E+02  0.42597794404E+02  0.59483041888E+02  0.10566000000E+00 0.  1.
         23    2    1    0    0    0 -0.19696294577E+02 -0.62848668079E+00  0.18681711108E+02  0.97845896341E+02  0.94002521696E+02 0.  0.
         13    1    3    3    0    0  0.11935781756E+02 -0.27518275953E+02 -0.23916083295E+02  0.38362854453E+02  0.10566000000E+00 0. -1.
         22    1    1    0    0    0  0.19696294577E+02  0.62848668079E+00 -0.18681711108E+02  0.27154103659E+02  0.00000000000E+00 0.  1.
</event>
<event>
 5    1  0.1751027E-003  0.9118800E+02  0.7818608E-02  0.1130116E+00
         25   -1    0    0    0    0  0.00000000000E+00  0.00000000000E+00  0.99999998245E-14  0.12500000000E+03  0.12500000000E+03 0.  0.
        -13    1    3    3    0    0  0.16200853984E+02  0.14143088858E+02 -0.51455858349E+02  0.55769267117E+02  0.10566000000E+00 0.  1.
         23    2    1    0    0    0  0.14678682828E+02  0.21166079720E+02 -0.10776347102E+02  0.97078747930E+02  0.92976808842E+02 0.  0.
         13    1    3    3    0    0 -0.15221711557E+01  0.70229908624E+01  0.40679511247E+02  0.41309480813E+02  0.10566000000E+00 0. -1.
         22    1    1    0    0    0 -0.14678682828E+02 -0.21166079720E+02  0.10776347102E+02  0.27921252070E+02  0.00000000000E+00 0.  1.
</event>
<event>
 5    1  0.1751027E-003  0.9118800E+02  0.7818608E-02  0.1130116E+00
         25   -1    0    0    0    0  0.00000000000E+00  0.00000000000E+00  0.99999998245E-14  0.12500000000E+03  0.12500000000E+03 0.  0.
        -13    1    3    3    0    0 -0.14437895165E+02  0.14806235109E+02  0.57085343332E+02  0.60715936971E+02  0.10566000000E+00 0.  1.
         23    2    1    0    0    0 -0.14268542492E+02 -0.44835557452E+00  0.26223951564E+02  0.95142204315E+02  0.90335768545E+02 0.  0.
         13    1    3    3    0    0  0.16935267315E+00 -0.15254590684E+02 -0.30861391769E+02  0.34426267343E+02  0.10566000000E+00 0. -1.
         22    1    1    0    0    0  0.14268542492E+02  0.44835557452E+00 -0.26223951564E+02  0.29857795685E+02  0.00000000000E+00 0.  1.
</event>
<event>
 5    1  0.1751027E-003  0.9118800E+02  0.7818608E-02  0.1130116E+00
         25   -1    0    0    0    0  0.00000000000E+00  0.00000000000E+00  0.99999998245E-14  0.12500000000E+03  0.12500000000E+03 0.  0.
        -13    1    3    3    0    0 -0.19213565674E+02 -0.29980444663E+02 -0.40974341550E+00  0.35611335580E+02  0.10566000000E+00 0. -1.
         23    2    1    0    0    0  0.12790019211E+02  0.15368554667E+02  0.21822239800E+02  0.95402918829E+02  0.90695808653E+02 0.  0.
         13    1    3    3    0    0  0.32003584885E+02  0.45348999329E+02  0.22231983216E+02  0.59791583249E+02  0.10566000000E+00 0.  1.
         22    1    1    0    0    0 -0.12790019211E+02 -0.15368554667E+02 -0.21822239800E+02  0.29597081171E+02  0.00000000000E+00 0.  1.
</event>
<event>
 5    1  0.1751027E-003  0.9118800E+02  0.7818608E-02  0.1130116E+00
         25   -1    0    0    0    0  0.00000000000E+00  0.00000000000E+00  0.99999998245E-14  0.12500000000E+03  0.12500000000E+03 0.  0.
        -13    1    3    3    0    0 -0.32113529268E+02  0.28449224709E+02 -0.55834469871E+01  0.43264572029E+02  0.10566000000E+00 0. -1.
         23    2    1    0    0    0  0.16068793602E+02  0.11803840926E+02 -0.20524287826E+02  0.96385612374E+02  0.92040225410E+02 0.  0.
         13    1    3    3    0    0  0.48182322869E+02 -0.16645383783E+02 -0.14940840839E+02  0.53121040345E+02  0.10566000000E+00 0.  1.
         22    1    1    0    0    0 -0.16068793602E+02 -0.11803840926E+02  0.20524287826E+02  0.28614387626E+02  0.00000000000E+00 0.  1.
</event>
<event>
 5    1  0.1751027E-003  0.9118800E+02  0.7818608E-02  0.1130116E+00
         25   -1    0    0    0    0  0.00000000000E+00  0.00000000000E+00  0.99999998245E-14  0.12500000000E+03  0.12500000000E+03 0.  0.
        -13    1    3    3    0    0  0.12658656104E+02 -0.11769358597E+02 -0.43905971832E+02  0.47185854900E+02  0.10566000000E+00 0. -1.
         23    2    1    0    0    0 -0.23895442240E+02  0.43469308379E+01 -0.17166343815E+02  0.95258256145E+02  0.90496210066E+02 0.  0.
         13    1    3    3    0    0 -0.36554098344E+02  0.16116289435E+02  0.26739628017E+02  0.48072401245E+02  0.10566000000E+00 0.  1.
         22    1    1    0    0    0  0.23895442240E+02 -0.43469308379E+01  0.17166343815E+02  0.29741743855E+02  0.00000000000E+00 0.  1.
</event>
<event>
 5    1  0.1751027E-003  0.9118800E+02  0.7818608E-02  0.1130116E+00
         25   -1    0    0    0    0  0.00000000000E+00  0.00000000000E+00  0.99999998245E-14  0.12500000000E+03  0.12500000000E+03 0.  0.
        -13    1    3    3    0    0  0.10949947808E+02  0.30572062623E+02 -0.27515904254E+02  0.42563934510E+02  0.10566000000E+00 0. -1.
         23    2    1    0    0    0 -0.23953343519E+02  0.19429209486E+02  0.75152813642E+01  0.93255137408E+02  0.87685713500E+02 0.  0.
         13    1    3    3    0    0 -0.34903291327E+02 -0.11142853137E+02  0.35031185618E+02  0.50691202899E+02  0.10566000000E+00 0.  1.
         22    1    1    0    0    0  0.23953343519E+02 -0.19429209486E+02 -0.75152813642E+01  0.31744862592E+02  0.00000000000E+00 0.  1.
</event>
<event>
 5    1  0.1751027E-003  0.9118800E+02  0.7818608E-02  0.1130116E+00
         25   -1    0    0    0    0  0.00000000000E+00  0.00000000000E+00  0.99999998245E-14  0.12500000000E+03  0.12500000000E+03 0.  0.
        -13    1    3    3    0    0 -0.19027107850E+02  0.48519256780E+02  0.78913068140E+00  0.52122768565E+02  0.10566000000E+00 0.  1.
         23    2    1    0    0    0  0.14868379937E+02  0.22466724924E+02 -0.10081817901E+02  0.96234299888E+02  0.91834497722E+02 0.  0.
         13    1    3    3    0    0  0.33895487787E+02 -0.26052531856E+02 -0.10870948582E+02  0.44111531322E+02  0.10566000000E+00 0. -1.
         22    1    1    0    0    0 -0.14868379937E+02 -0.22466724924E+02  0.10081817901E+02  0.28765700112E+02  0.00000000000E+00 0.  1.
</event>
<event>
 5    1  0.1751027E-003  0.9118800E+02  0.7818608E-02  0.1130116E+00
         25   -1    0    0    0    0  0.00000000000E+00  0.00000000000E+00  0.99999998245E-14  0.12500000000E+03  0.12500000000E+03 0.  0.
        -13    1    3    3    0    0 -0.16399384494E+02 -0.25080697808E+02  0.51923983892E+02  0.59950750467E+02  0.10566000000E+00 0.  1.
         23    2    1    0    0    0 -0.19941522930E+02 -0.94047572668E+01  0.22376294573E+02  0.93586430403E+02  0.88156721813E+02 0.  0.
         13    1    3    3    0    0 -0.35421384363E+01  0.15675940542E+02 -0.29547689320E+02  0.33635679936E+02  0.10566000000E+00 0. -1.
         22    1    1    0    0    0  0.19941522930E+02  0.94047572668E+01 -0.22376294573E+02  0.31413569597E+02  0.00000000000E+00 0.  1.
</event>
<event>
 5    1  0.1751027E-003  0.9118800E+02  0.7818608E-02  0.1130116E+00
         25   -1    0    0    0    0  0.00000000000E+00  0.00000000000E+00  0.99999998245E-14  0.12500000000E+03  0.12500000000E+03 0.  0.
        -13    1    3    3    0    0  0.43540334422E+02  0.26565753251E+01 -0.22588769483E+02  0.49123128817E+02  0.10566000000E+00 0. -1.
         23    2    1    0    0    0 -0.16096067038E+01  0.91836207560E+01 -0.28397695341E+02  0.95110891204E+02  0.90292429367E+02 0.  0.
         13    1    3    3    0    0 -0.45149941126E+02  0.65270454309E+01 -0.58089258582E+01  0.45987762387E+02  0.10566000000E+00 0.  1.
         22    1    1    0    0    0  0.16096067038E+01 -0.91836207560E+01  0.28397695341E+02  0.29889108796E+02  0.00000000000E+00 0. -1.
</event>
<event>
 5    1  0.1751027E-003  0.9118800E+02  0.7818608E-02  0.1130116E+00
         25   -1    0    0    0    0  0.00000000000E+00  0.00000000000E+00  0.99999998245E-14  0.12500000000E+03  0.12500000000E+03 0.  0.
        -13    1    3    3    0    0  0.10897331584E+02 -0.49938065875E+02 -0.40458394254E+01  0.51273211716E+02  0.10566000000E+00 0.  1.
         23    2    1    0    0    0  0.61917359452E+01 -0.11723675241E+02 -0.26157801675E+02  0.95674026126E+02  0.91068691281E+02 0.  0.
         13    1    3    3    0    0 -0.47055956383E+01  0.38214390633E+02 -0.22111962249E+02  0.44400814411E+02  0.10566000000E+00 0. -1.
         22    1    1    0    0    0 -0.61917359452E+01  0.11723675241E+02  0.26157801675E+02  0.29325973874E+02  0.00000000000E+00 0. -1.
</event>
<event>
 5    1  0.1751027E-003  0.9118800E+02  0.7818608E-02  0.1130116E+00
         25   -1    0    0    0    0  0.00000000000E+00  0.00000000000E+00  0.99999998245E-14  0.12500000000E+03  0.12500000000E+03 0.  0.
        -13    1    3    3    0    0 -0.36197071383E+02 -0.56458689456E+01  0.11657304454E+02  0.38444866029E+02  0.10566000000E+00 0.  1.
         23    2    1    0    0    0  0.21662621209E+02 -0.11454107431E+02  0.14250370514E+02  0.96653240141E+02  0.92402976334E+02 0.  0.
         13    1    3    3    0    0  0.57859692592E+02 -0.58082384859E+01  0.25930660604E+01  0.58208374112E+02  0.10566000000E+00 0. -1.
         22    1    1    0    0    0 -0.21662621209E+02  0.11454107431E+02 -0.14250370514E+02  0.28346759859E+02  0.00000000000E+00 0. -1.
</event>
<event>
 5    1  0.1751027E-003  0.9118800E+02  0.7818608E-02  0.1130116E+00
         25   -1    0    0    0    0  0.00000000000E+00  0.00000000000E+00  0.99999998245E-14  0.12500000000E+03  0.12500000000E+03 0.  0.
        -13    1    3    3    0    0 -0.35464225849E+02  0.48328379746E+01  0.20916833818E+02  0.41455913197E+02  0.10566000000E+00 0.  1.
         23    2    1    0    0    0 -0.69284623262E+01 -0.19179444983E+02 -0.19733782179E+02  0.96622599500E+02  0.92361517284E+02 0.  0.
         13    1    3    3    0    0  0.28535763523E+02 -0.24012282958E+02 -0.40650615997E+02  0.55166686303E+02  0.10566000000E+00 0. -1.
         22    1    1    0    0    0  0.69284623262E+01  0.19179444983E+02  0.19733782179E+02  0.28377400500E+02  0.00000000000E+00 0. -1.
</event>
<event>
 5    1  0.1751027E-003  0.9118800E+02  0.7818608E-02  0.1130116E+00
         25   -1    0    0    0    0  0.00000000000E+00  0.00000000000E+00  0.99999998245E-14  0.12500000000E+03  0.12500000000E+03 0.  0.
        -13    1    3    3    0    0 -0.38738884909E+02  0.88061007285E+01 -0.17316098231E+02  0.43337132300E+02  0.10566000000E+00 0. -1.
         23    2    1    0    0    0 -0.12819255823E+02 -0.25039209988E+02  0.11304214046E+02  0.94683657677E+02  0.89699021283E+02 0.  0.
         13    1    3    3    0    0  0.25919629085E+02 -0.33845310716E+02  0.28620312277E+02  0.51346525377E+02  0.10566000000E+00 0.  1.
         22    1    1    0    0    0  0.12819255823E+02  0.25039209988E+02 -0.11304214046E+02  0.30316342323E+02  0.00000000000E+00 0. -1.
</event>
<event>
 5    1  0.1751027E-003  0.9118800E+02  0.7818608E-02  0.1130116E+00
         25   -1    0    0    0    0  0.00000000000E+00  0.00000000000E+00  0.99999998245E-14  0.12500000000E+03  0.12500000000E+03 0.  0.
        -13    1    3    3    0    0 -0.91305594688E+01  0.31960336817E+02 -0.18810641282E+02  0.38192690860E+02  0.10566000000E+00 0.  1.
         23    2    1    0    0    0 -0.22437504928E+02 -0.19979999459E+02 -0.17927206132E+00  0.94955463986E+02  0.90077000375E+02 0.  0.
         13    1    3    3    0    0 -0.13306945459E+02 -0.51940336276E+02  0.18631369220E+02  0.56762773127E+02  0.10566000000E+00 0. -1.
         22    1    1    0    0    0  0.22437504928E+02  0.19979999459E+02  0.17927206132E+00  0.30044536014E+02  0.00000000000E+00 0. -1.
</event>
<event>
 5    1  0.1751027E-003  0.9118800E+02  0.7818608E-02  0.1130116E+00
         25   -1    0    0    0    0  0.00000000000E+00  0.00000000000E+00  0.99999998245E-14  0.12500000000E+03  0.12500000000E+03 0.  0.
        -13    1    3    3    0    0 -0.19484954497E+01 -0.81718055374E+01  0.34007872948E+02  0.35030295842E+02  0.10566000000E+00 0.  1.
         23    2    1    0    0    0  0.80101697619E+00  0.23552119113E+02 -0.17541938800E+02  0.95622056577E+02  0.90997330424E+02 0.  0.
         13    1    3    3    0    0  0.27495124259E+01  0.31723924650E+02 -0.51549811748E+02  0.60591760736E+02  0.10566000000E+00 0. -1.
         22    1    1    0    0    0 -0.80101697619E+00 -0.23552119113E+02  0.17541938800E+02  0.29377943423E+02  0.00000000000E+00 0. -1.
</event>
<event>
 5    1  0.1751027E-003  0.9118800E+02  0.7818608E-02  0.1130116E+00
         25   -1    0    0    0    0  0.00000000000E+00  0.00000000000E+00  0.99999998245E-14  0.12500000000E+03  0.12500000000E+03 0.  0.
        -13    1    3    3    0    0  0.47199889221E+02  0.80890609122E+01  0.15188802750E+02  0.50239161437E+02  0.10566000000E+00 0. -1.
         23    2    1    0    0    0  0.71426961994E+01  0.27638378326E+02  0.42066755604E+01  0.96145291810E+02  0.91713264866E+02 0.  0.
         13    1    3    3    0    0 -0.40057193021E+02  0.19549317414E+02 -0.10982127190E+02  0.45906130372E+02  0.10566000000E+00 0.  1.
         22    1    1    0    0    0 -0.71426961994E+01 -0.27638378326E+02 -0.42066755604E+01  0.28854708190E+02  0.00000000000E+00 0. -1.
</event>
<event>
 5    1  0.1751027E-003  0.9118800E+02  0.7818608E-02  0.1130116E+00
         25   -1    0    0    0    0  0.00000000000E+00  0.00000000000E+00  0.99999998245E-14  0.12500000000E+03  0.12500000000E+03 0.  0.
        -13    1    3    3    0    0 -0.30141183284E+02  0.41071627463E+02  0.18201243259E+02  0.54098668490E+02  0.10566000000E+00 0.  1.
         23    2    1    0    0    0  0.84763899980E+01  0.24498074794E+02  0.11447573991E+02  0.96661831282E+02  0.92414597443E+02 0.  0.
         13    1    3    3    0    0  0.38617573282E+02 -0.16573552669E+02 -0.67536692681E+01  0.42563162792E+02  0.10566000000E+00 0. -1.
         22    1    1    0    0    0 -0.84763899980E+01 -0.24498074794E+02 -0.11447573991E+02  0.28338168718E+02  0.00000000000E+00 0. -1.
</event>
<event>
 5    1  0.1751027E-003  0.9118800E+02  0.7818608E-02  0.1130116E+00
         25   -1    0    0    0    0  0.00000000000E+00  0.00000000000E+00  0.99999998245E-14  0.12500000000E+03  0.12500000000E+03 0.  0.
        -13    1    3    3    0    0 -0.32547703099E+02  0.11479676096E+02  0.22399505149E+02  0.41144682952E+02  0.10566000000E+00 0.  1.
         23    2    1    0    0    0 -0.19053284279E+01  0.29894500656E+02 -0.13797495514E+02  0.92019970765E+02  0.85906883841E+02 0.  0.
         13    1    3    3    0    0  0.30642374671E+02  0.18414824559E+02 -0.36197000663E+02  0.50875287813E+02  0.10566000000E+00 0. -1.
         22    1    1    0    0    0  0.19053284279E+01 -0.29894500656E+02  0.13797495514E+02  0.32980029235E+02  0.00000000000E+00 0.  1.
</event>
<event>
 5    1  0.1751027E-003  0.9118800E+02  0.7818608E-02  0.1130116E+00
         25   -1    0    0    0    0  0.00000000000E+00  0.00000000000E+00  0.99999998245E-14  0.12500000000E+03  0.12500000000E+03 0.  0.
        -13    1    3    3    0    0  0.40752476046E+02 -0.25824111002E+02 -0.22503875457E+02  0.53236121079E+02  0.10566000000E+00 0. -1.
         23    2    1    0    0    0  0.27048720231E+02 -0.34831699315E+00  0.94563151834E+01  0.96343822870E+02  0.91983453498E+02 0.  0.
         13    1    3    3    0    0 -0.13703755815E+02  0.25475794009E+02  0.31960190641E+02  0.43107701790E+02  0.10566000000E+00 0.  1.
         22    1    1    0    0    0 -0.27048720231E+02  0.34831699315E+00 -0.94563151834E+01  0.28656177130E+02  0.00000000000E+00 0. -1.
</event>
<event>
 5    1  0.1751027E-003  0.9118800E+02  0.7818608E-02  0.1130116E+00
         25   -1    0    0    0    0  0.00000000000E+00  0.00000000000E+00  0.99999998245E-14  0.12500000000E+03  0.12500000000E+03 0.  0.
        -13    1    3    3    0    0  0.47342514888E+02 -0.11480301636E+02  0.13593457540E+02  0.50575728304E+02  0.10566000000E+00 0.  1.
         23    2    1    0    0    0  0.58533270606E+01  0.20161557241E+02  0.39286699701E+01  0.10364152918E+03  0.10141687382E+03 0.  0.
         13    1    3    3    0    0 -0.41489187827E+02  0.31641858877E+02 -0.96647875701E+01  0.53065800876E+02  0.10566000000E+00 0. -1.
         22    1    1    0    0    0 -0.58533270606E+01 -0.20161557241E+02 -0.39286699701E+01  0.21358470820E+02  0.00000000000E+00 0.  1.
</event>
<event>
 5    1  0.1751027E-003  0.9118800E+02  0.7818608E-02  0.1130116E+00
         25   -1    0    0    0    0  0.00000000000E+00  0.00000000000E+00  0.99999998245E-14  0.12500000000E+03  0.12500000000E+03 0.  0.
        -13    1    3    3    0    0 -0.22328817477E+02  0.29269819470E+01 -0.25110743671E+02  0.33729866958E+02  0.10566000000E+00 0. -1.
         23    2    1    0    0    0  0.18123868549E+02  0.82499999616E+01  0.21512717881E+02  0.95685598400E+02  0.91084573886E+02 0.  0.
         13    1    3    3    0    0  0.40452686026E+02  0.53230180146E+01  0.46623461551E+02  0.61955731443E+02  0.10566000000E+00 0.  1.
         22    1    1    0    0    0 -0.18123868549E+02 -0.82499999616E+01 -0.21512717881E+02  0.29314401600E+02  0.00000000000E+00 0.  1.
</event>
<event>
 5    1  0.1751027E-003  0.9118800E+02  0.7818608E-02  0.1130116E+00
         25   -1    0    0    0    0  0.00000000000E+00  0.00000000000E+00  0.99999998245E-14  0.12500000000E+03  0.12500000000E+03 0.  0.
        -13    1    3    3    0    0 -0.35043488465E+02  0.13752365043E+02 -0.28657752412E+01  0.37754436293E+02  0.10566000000E+00 0.  1.
         23    2    1    0    0    0  0.85516624395E+01 -0.26316955953E+02 -0.43682336420E+01  0.96985814910E+02  0.92851783652E+02 0.  0.
         13    1    3    3    0    0  0.43595150904E+02 -0.40069320997E+02 -0.15024584008E+01  0.59231378616E+02  0.10566000000E+00 0. -1.
         22    1    1    0    0    0 -0.85516624395E+01  0.26316955953E+02  0.43682336420E+01  0.28014185090E+02  0.00000000000E+00 0. -1.
</event>
<event>
 5    1  0.1751027E-003  0.9118800E+02  0.7818608E-02  0.1130116E+00
         25   -1    0    0    0    0  0.00000000000E+00  0.00000000000E+00  0.99999998245E-14  0.12500000000E+03  0.12500000000E+03 0.  0.
        -13    1    3    3    0    0  0.18173373792E+02  0.21293832702E+02  0.22411016647E+02  0.35860335432E+02  0.10566000000E+00 0.  1.
         23    2    1    0    0    0 -0.13848168246E+02  0.94945451518E+01 -0.25370078168E+02  0.94576998543E+02  0.89550263180E+02 0.  0.
         13    1    3    3    0    0 -0.32021542038E+02 -0.11799287550E+02 -0.47781094815E+02  0.58716663111E+02  0.10566000000E+00 0. -1.
         22    1    1    0    0    0  0.13848168246E+02 -0.94945451518E+01  0.25370078168E+02  0.30423001457E+02  0.00000000000E+00 0. -1.
</event>
<event>
 5    1  0.1751027E-003  0.9118800E+02  0.7818608E-02  0.1130116E+00
         25   -1    0    0    0    0  0.00000000000E+00  0.00000000000E+00  0.99999998245E-14  0.12500000000E+03  0.12500000000E+03 0.  0.
        -13    1    3    3    0    0  0.53351166989E+02 -0.12644246925E+02 -0.19862758447E+02  0.58316072712E+02  0.10566000000E+00 0. -1.
         23    2    1    0    0    0  0.26239045795E+02 -0.14978530584E+02 -0.24724647426E+02  0.85959609466E+02  0.76582650558E+02 0.  0.
         13    1    3    3    0    0 -0.27112121193E+02 -0.23342836592E+01 -0.48618889787E+01  0.27643536754E+02  0.10566000000E+00 0.  1.
         22    1    1    0    0    0 -0.26239045795E+02  0.14978530584E+02  0.24724647426E+02  0.39040390534E+02  0.00000000000E+00 0. -1.
</event>
<event>
 5    1  0.1751027E-003  0.9118800E+02  0.7818608E-02  0.1130116E+00
         25   -1    0    0    0    0  0.00000000000E+00  0.00000000000E+00  0.99999998245E-14  0.12500000000E+03  0.12500000000E+03 0.  0.
        -13    1    3    3    0    0 -0.29006311354E+02 -0.34736316893E+02  0.30176034898E+02  0.54392849308E+02  0.10566000000E+00 0.  1.
         23    2    1    0    0    0 -0.11234310771E+02 -0.26611855439E+02 -0.59889997244E+01  0.95499682949E+02  0.90829074295E+02 0.  0.
         13    1    3    3    0    0  0.17772000584E+02  0.81244614538E+01 -0.36165034623E+02  0.41106833641E+02  0.10566000000E+00 0. -1.
         22    1    1    0    0    0  0.11234310771E+02  0.26611855439E+02  0.59889997244E+01  0.29500317051E+02  0.00000000000E+00 0.  1.
</event>
<event>
 5    1  0.1751027E-003  0.9118800E+02  0.7818608E-02  0.1130116E+00
         25   -1    0    0    0    0  0.00000000000E+00  0.00000000000E+00  0.99999998245E-14  0.12500000000E+03  0.12500000000E+03 0.  0.
        -13    1    3    3    0    0 -0.29330824811E+01  0.32939787704E+02 -0.28592917591E+02  0.43717258460E+02  0.10566000000E+00 0.  1.
         23    2    1    0    0    0  0.55374263637E+01  0.20397670094E+02  0.20781229583E+02  0.95359022638E+02  0.90635289261E+02 0.  0.
         13    1    3    3    0    0  0.84705088448E+01 -0.12542117610E+02  0.49374147174E+02  0.51641764178E+02  0.10566000000E+00 0. -1.
         22    1    1    0    0    0 -0.55374263637E+01 -0.20397670094E+02 -0.20781229583E+02  0.29640977362E+02  0.00000000000E+00 0.  1.
</event>
<event>
 5    1  0.1751027E-003  0.9118800E+02  0.7818608E-02  0.1130116E+00
         25   -1    0    0    0    0  0.00000000000E+00  0.00000000000E+00  0.99999998245E-14  0.12500000000E+03  0.12500000000E+03 0.  0.
        -13    1    3    3    0    0  0.16111013267E+02  0.49347699695E+02  0.18481741201E+02  0.55103050147E+02  0.10566000000E+00 0.  1.
         23    2    1    0    0    0  0.24624283061E+02  0.15952527006E+02 -0.26684348419E+01  0.95538856460E+02  0.90882969335E+02 0.  0.
         13    1    3    3    0    0  0.85132697940E+01 -0.33395172689E+02 -0.21150176042E+02  0.40435806313E+02  0.10566000000E+00 0. -1.
         22    1    1    0    0    0 -0.24624283061E+02 -0.15952527006E+02  0.26684348419E+01  0.29461143540E+02  0.00000000000E+00 0.  1.
</event>
<event>
 5    1  0.1751027E-003  0.9118800E+02  0.7818608E-02  0.1130116E+00
         25   -1    0    0    0    0  0.00000000000E+00  0.00000000000E+00  0.99999998245E-14  0.12500000000E+03  0.12500000000E+03 0.  0.
        -13    1    3    3    0    0 -0.14431423719E+02  0.17550551489E+02  0.27847429966E+02  0.35941318394E+02  0.10566000000E+00 0.  1.
         23    2    1    0    0    0  0.19059458022E+02 -0.23579696842E+02  0.29428293241E+01  0.94538133877E+02  0.89495996946E+02 0.  0.
         13    1    3    3    0    0  0.33490881742E+02 -0.41130248331E+02 -0.24904600642E+02  0.58596815483E+02  0.10566000000E+00 0. -1.
         22    1    1    0    0    0 -0.19059458022E+02  0.23579696842E+02 -0.29428293241E+01  0.30461866123E+02  0.00000000000E+00 0.  1.
</event>
<event>
 5    1  0.1751027E-003  0.9118800E+02  0.7818608E-02  0.1130116E+00
         25   -1    0    0    0    0  0.00000000000E+00  0.00000000000E+00  0.99999998245E-14  0.12500000000E+03  0.12500000000E+03 0.  0.
        -13    1    3    3    0    0  0.35856992790E+02 -0.30919362221E+02  0.11788083145E+02  0.48792427285E+02  0.10566000000E+00 0. -1.
         23    2    1    0    0    0 -0.59987161405E+01 -0.13423618641E+02  0.24960080361E+02  0.96031331677E+02  0.91557811897E+02 0.  0.
         13    1    3    3    0    0 -0.41855708930E+02  0.17495743580E+02  0.13171997216E+02  0.47238904392E+02  0.10566000000E+00 0.  1.
         22    1    1    0    0    0  0.59987161405E+01  0.13423618641E+02 -0.24960080361E+02  0.28968668323E+02  0.00000000000E+00 0.  1.
</event>
<event>
 5    1  0.1751027E-003  0.9118800E+02  0.7818608E-02  0.1130116E+00
         25   -1    0    0    0    0  0.00000000000E+00  0.00000000000E+00  0.99999998245E-14  0.12500000000E+03  0.12500000000E+03 0.  0.
        -13    1    3    3    0    0  0.30801595354E+01 -0.22321800067E+02  0.39570949266E+02  0.45537032522E+02  0.10566000000E+00 0.  1.
         23    2    1    0    0    0  0.29160578155E+02 -0.75427034808E+00  0.25153865753E+01  0.95721417184E+02  0.91133716571E+02 0.  0.
         13    1    3    3    0    0  0.26080418619E+02  0.21567529719E+02 -0.37055562691E+02  0.50184384662E+02  0.10566000000E+00 0. -1.
         22    1    1    0    0    0 -0.29160578155E+02  0.75427034808E+00 -0.25153865753E+01  0.29278582816E+02  0.00000000000E+00 0. -1.
</event>
<event>
 5    1  0.1751027E-003  0.9118800E+02  0.7818608E-02  0.1130116E+00
         25   -1    0    0    0    0  0.00000000000E+00  0.00000000000E+00  0.99999998245E-14  0.12500000000E+03  0.12500000000E+03 0.  0.
        -13    1    3    3    0    0 -0.63596924915E+01  0.40762140354E+02  0.16338825805E+02  0.44373034239E+02  0.10566000000E+00 0.  1.
         23    2    1    0    0    0 -0.16282321650E+01 -0.74058302267E+01 -0.19158962778E+02  0.10439506574E+03  0.10234142091E+03 0.  0.
         13    1    3    3    0    0  0.47314603265E+01 -0.48167970581E+02 -0.35497788583E+02  0.60022031497E+02  0.10566000000E+00 0. -1.
         22    1    1    0    0    0  0.16282321650E+01  0.74058302267E+01  0.19158962778E+02  0.20604934265E+02  0.00000000000E+00 0. -1.
</event>
<event>
 5    1  0.1751027E-003  0.9118800E+02  0.7818608E-02  0.1130116E+00
         25   -1    0    0    0    0  0.00000000000E+00  0.00000000000E+00  0.99999998245E-14  0.12500000000E+03  0.12500000000E+03 0.  0.
        -13    1    3    3    0    0  0.13969558803E+02  0.42111574837E+02 -0.34788689520E+02  0.56380824674E+02  0.10566000000E+00 0. -1.
         23    2    1    0    0    0 -0.12844896874E+02  0.21282001167E+02 -0.18334797941E+02  0.94111818361E+02  0.88898563489E+02 0.  0.
         13    1    3    3    0    0 -0.26814455677E+02 -0.20829573670E+02  0.16453891579E+02  0.37730993687E+02  0.10566000000E+00 0.  1.
         22    1    1    0    0    0  0.12844896874E+02 -0.21282001167E+02  0.18334797941E+02  0.30888181639E+02  0.00000000000E+00 0. -1.
</event>
<event>
 5    1  0.1751027E-003  0.9118800E+02  0.7818608E-02  0.1130116E+00
         25   -1    0    0    0    0  0.00000000000E+00  0.00000000000E+00  0.99999998245E-14  0.12500000000E+03  0.12500000000E+03 0.  0.
        -13    1    3    3    0    0 -0.44667641504E+02  0.82797553743E+01 -0.29209865243E+02  0.54009072739E+02  0.10566000000E+00 0.  1.
         23    2    1    0    0    0 -0.56295708466E+01  0.19543606245E+02 -0.21573236235E+02  0.95351237216E+02  0.90624551332E+02 0.  0.
         13    1    3    3    0    0  0.39038070657E+02  0.11263850870E+02  0.76366290080E+01  0.41342164478E+02  0.10566000000E+00 0. -1.
         22    1    1    0    0    0  0.56295708466E+01 -0.19543606245E+02  0.21573236235E+02  0.29648762784E+02  0.00000000000E+00 0.  1.
</event>
<event>
 5    1  0.1751027E-003  0.9118800E+02  0.7818608E-02  0.1130116E+00
         25   -1    0    0    0    0  0.00000000000E+00  0.00000000000E+00  0.99999998245E-14  0.12500000000E+03  0.12500000000E+03 0.  0.
        -13    1    3    3    0    0  0.25685295474E+02 -0.32709686481E+01  0.19858832132E+02  0.32631549415E+02  0.10566000000E+00 0.  1.
         23    2    1    0    0    0 -0.26870272882E+02 -0.16271734350E+01 -0.13482754771E+02  0.94892792651E+02  0.89989989236E+02 0.  0.
         13    1    3    3    0    0 -0.52555568357E+02  0.16437952131E+01 -0.33341586904E+02  0.62261243236E+02  0.10566000000E+00 0. -1.
         22    1    1    0    0    0  0.26870272882E+02  0.16271734350E+01  0.13482754771E+02  0.30107207349E+02  0.00000000000E+00 0. -1.
</event>
<event>
 5    1  0.1751027E-003  0.9118800E+02  0.7818608E-02  0.1130116E+00
         25   -1    0    0    0    0  0.00000000000E+00  0.00000000000E+00  0.99999998245E-14  0.12500000000E+03  0.12500000000E+03 0.  0.
        -13    1    3    3    0    0  0.31143828193E+02 -0.17756833399E+02  0.83101429377E+01  0.36800989207E+02  0.10566000000E+00 0.  1.
         23    2    1    0    0    0 -0.14982667445E+02  0.17924397349E+02 -0.12232103784E+02  0.98629776127E+02  0.95039171039E+02 0.  0.
         13    1    3    3    0    0 -0.46126495639E+02  0.35681230749E+02 -0.20542246722E+02  0.61828786921E+02  0.10566000000E+00 0. -1.
         22    1    1    0    0    0  0.14982667445E+02 -0.17924397349E+02  0.12232103784E+02  0.26370223873E+02  0.00000000000E+00 0. -1.
</event>
<event>
 5    1  0.1751027E-003  0.9118800E+02  0.7818608E-02  0.1130116E+00
         25   -1    0    0    0    0  0.00000000000E+00  0.00000000000E+00  0.99999998245E-14  0.12500000000E+03  0.12500000000E+03 0.  0.
        -13    1    3    3    0    0  0.20978929028E+02  0.44603807462E+01  0.39896886566E+02  0.45296613354E+02  0.10566000000E+00 0. -1.
         23    2    1    0    0    0  0.18382829370E+02  0.19242294389E+02 -0.93605462095E+01  0.96789822149E+02  0.92587556061E+02 0.  0.
         13    1    3    3    0    0 -0.25960996581E+01  0.14781913643E+02 -0.49257432776E+02  0.51493208796E+02  0.10566000000E+00 0.  1.
         22    1    1    0    0    0 -0.18382829370E+02 -0.19242294389E+02  0.93605462095E+01  0.28210177851E+02  0.00000000000E+00 0. -1.
</event>
<event>
 5    1  0.1751027E-003  0.9118800E+02  0.7818608E-02  0.1130116E+00
         25   -1    0    0    0    0  0.00000000000E+00  0.00000000000E+00  0.99999998245E-14  0.12500000000E+03  0.12500000000E+03 0.  0.
        -13    1    3    3    0    0  0.11672213173E+02  0.11000526539E+02  0.31938014132E+02  0.35739334845E+02  0.10566000000E+00 0.  1.
         23    2    1    0    0    0  0.64551766994E+01  0.49948054194E+01 -0.27811173909E+02  0.96015887428E+02  0.91536724089E+02 0.  0.
         13    1    3    3    0    0 -0.52170364735E+01 -0.60057211193E+01 -0.59749188040E+02  0.60276552583E+02  0.10566000000E+00 0. -1.
         22    1    1    0    0    0 -0.64551766994E+01 -0.49948054194E+01  0.27811173909E+02  0.28984112572E+02  0.00000000000E+00 0. -1.
</event>
<event>
 5    1  0.1751027E-003  0.9118800E+02  0.7818608E-02  0.1130116E+00
         25   -1    0    0    0    0  0.00000000000E+00  0.00000000000E+00  0.99999998245E-14  0.12500000000E+03  0.12500000000E+03 0.  0.
        -13    1    3    3    0    0 -0.35558821950E+02 -0.15509859131E+01  0.21419365366E+01  0.35657179248E+02  0.10566000000E+00 0.  1.
         23    2    1    0    0    0  0.25014602069E+02 -0.12112532047E+02 -0.52188442567E+00  0.97202228280E+02  0.93142670511E+02 0.  0.
         13    1    3    3    0    0  0.60573424019E+02 -0.10561546134E+02 -0.26638209623E+01  0.61545049031E+02  0.10566000000E+00 0. -1.
         22    1    1    0    0    0 -0.25014602069E+02  0.12112532047E+02  0.52188442567E+00  0.27797771720E+02  0.00000000000E+00 0. -1.
</event>
<event>
 5    1  0.1751027E-003  0.9118800E+02  0.7818608E-02  0.1130116E+00
         25   -1    0    0    0    0  0.00000000000E+00  0.00000000000E+00  0.99999998245E-14  0.12500000000E+03  0.12500000000E+03 0.  0.
        -13    1    3    3    0    0  0.13295355467E+02  0.35799308613E+02  0.31498296623E+02  0.49502634560E+02  0.10566000000E+00 0.  1.
         23    2    1    0    0    0  0.42755758554E+01  0.29553341990E+02 -0.10834527971E+02  0.93234176100E+02  0.87655827103E+02 0.  0.
         13    1    3    3    0    0 -0.90197796116E+01 -0.62459666228E+01 -0.42332824595E+02  0.43731541540E+02  0.10566000000E+00 0. -1.
         22    1    1    0    0    0 -0.42755758554E+01 -0.29553341990E+02  0.10834527971E+02  0.31765823900E+02  0.00000000000E+00 0. -1.
</event>
<event>
 5    1  0.1751027E-003  0.9118800E+02  0.7818608E-02  0.1130116E+00
         25   -1    0    0    0    0  0.00000000000E+00  0.00000000000E+00  0.99999998245E-14  0.12500000000E+03  0.12500000000E+03 0.  0.
        -13    1    3    3    0    0 -0.70077690584E+00 -0.42226037360E+02 -0.43986186087E+02  0.60978070238E+02  0.10566000000E+00 0.  1.
         23    2    1    0    0    0  0.84417294522E+01 -0.17654334067E+02 -0.24499767614E+02  0.93644347868E+02  0.88238806468E+02 0.  0.
         13    1    3    3    0    0  0.91425063581E+01  0.24571703293E+02  0.19486418473E+02  0.32666277630E+02  0.10566000000E+00 0. -1.
         22    1    1    0    0    0 -0.84417294522E+01  0.17654334067E+02  0.24499767614E+02  0.31355652132E+02  0.00000000000E+00 0.  1.
</event>
<event>
 4    1  0.1751027E-003  0.9118800E+02  0.7818608E-02  0.1130116E+00
         25   -1    0    0    0    0  0.00000000000E+00  0.00000000000E+00  0.99999998245E-14  0.12500000000E+03  0.12500000000E+03 0.  0.
        -13    1    1    0    0    0 -0.60142397690E+00 -0.25345347127E+01  0.13377295875E+02  0.13628968632E+02  0.10566000000E+00 0. -1.
         13    1    1    0    0    0  0.10592908207E+02 -0.36460477105E+02 -0.45936872534E+02  0.59596841504E+02  0.10566000000E+00 0.  1.
         22    1    1    0    0    0 -0.99914842303E+01  0.38995011818E+02  0.32559576659E+02  0.51774189864E+02  0.00000000000E+00 0.  1.
</event>
<event>
 5    1  0.1751027E-003  0.9118800E+02  0.7818608E-02  0.1130116E+00
         25   -1    0    0    0    0  0.00000000000E+00  0.00000000000E+00  0.99999998245E-14  0.12500000000E+03  0.12500000000E+03 0.  0.
        -13    1    3    3    0    0 -0.42434426114E+00  0.20091072994E+02  0.42196463887E+02  0.46737394137E+02  0.10566000000E+00 0.  1.
         23    2    1    0    0    0 -0.20962608046E+02 -0.14634678590E+02  0.16056020940E+02  0.94810588579E+02  0.89875731678E+02 0.  0.
         13    1    3    3    0    0 -0.20538263785E+02 -0.34725751584E+02 -0.26140442947E+02  0.48073194442E+02  0.10566000000E+00 0. -1.
         22    1    1    0    0    0  0.20962608046E+02  0.14634678590E+02 -0.16056020940E+02  0.30189411421E+02  0.00000000000E+00 0. -1.
</event>
<event>
 5    1  0.1751027E-003  0.9118800E+02  0.7818608E-02  0.1130116E+00
         25   -1    0    0    0    0  0.00000000000E+00  0.00000000000E+00  0.99999998245E-14  0.12500000000E+03  0.12500000000E+03 0.  0.
        -13    1    3    3    0    0 -0.15315548861E+02  0.25235498413E+01  0.39318395630E+02  0.42271523981E+02  0.10566000000E+00 0.  1.
         23    2    1    0    0    0  0.27040861769E+02 -0.78774124027E+01  0.88402056049E+01  0.95480327467E+02  0.90802433154E+02 0.  0.
         13    1    3    3    0    0  0.42356410630E+02 -0.10400962244E+02 -0.30478190026E+02  0.53208803485E+02  0.10566000000E+00 0. -1.
         22    1    1    0    0    0 -0.27040861769E+02  0.78774124027E+01 -0.88402056049E+01  0.29519672533E+02  0.00000000000E+00 0. -1.
</event>
<event>
 5    1  0.1751027E-003  0.9118800E+02  0.7818608E-02  0.1130116E+00
         25   -1    0    0    0    0  0.00000000000E+00  0.00000000000E+00  0.99999998245E-14  0.12500000000E+03  0.12500000000E+03 0.  0.
        -13    1    3    3    0    0  0.88883054055E+01 -0.23357876268E+02 -0.14655277890E+02  0.28972067423E+02  0.10566000000E+00 0. -1.
         23    2    1    0    0    0 -0.35018560173E+02 -0.10985115540E+02  0.17056808366E+02  0.84528935871E+02  0.74210740246E+02 0.  0.
         13    1    3    3    0    0 -0.43906865579E+02  0.12372760728E+02  0.31712086256E+02  0.55556868448E+02  0.10566000000E+00 0.  1.
         22    1    1    0    0    0  0.35018560173E+02  0.10985115540E+02 -0.17056808366E+02  0.40471064129E+02  0.00000000000E+00 0.  1.
</event>
<event>
 5    1  0.1751027E-003  0.9118800E+02  0.7818608E-02  0.1130116E+00
         25   -1    0    0    0    0  0.00000000000E+00  0.00000000000E+00  0.99999998245E-14  0.12500000000E+03  0.12500000000E+03 0.  0.
        -13    1    3    3    0    0 -0.12777634475E+02 -0.10014759975E+02 -0.27746305031E+02  0.32147036676E+02  0.10566000000E+00 0. -1.
         23    2    1    0    0    0  0.44525225544E+01  0.99400673197E+01  0.28621711986E+02  0.94375952383E+02  0.89269188950E+02 0.  0.
         13    1    3    3    0    0  0.17230157030E+02  0.19954827295E+02  0.56368017017E+02  0.62228915707E+02  0.10566000000E+00 0.  1.
         22    1    1    0    0    0 -0.44525225544E+01 -0.99400673197E+01 -0.28621711986E+02  0.30624047617E+02  0.00000000000E+00 0.  1.
</event>
<event>
 5    1  0.1751027E-003  0.9118800E+02  0.7818608E-02  0.1130116E+00
         25   -1    0    0    0    0  0.00000000000E+00  0.00000000000E+00  0.99999998245E-14  0.12500000000E+03  0.12500000000E+03 0.  0.
        -13    1    3    3    0    0 -0.21111596111E+02 -0.30427910487E+02 -0.71361953710E+01  0.37715960486E+02  0.10566000000E+00 0.  1.
         23    2    1    0    0    0  0.37494433716E+01  0.23454723240E+02 -0.13960501886E+02  0.97448630147E+02  0.93472763610E+02 0.  0.
         13    1    3    3    0    0  0.24861039482E+02  0.53882633727E+02 -0.68243065154E+01  0.59732669662E+02  0.10566000000E+00 0. -1.
         22    1    1    0    0    0 -0.37494433716E+01 -0.23454723240E+02  0.13960501886E+02  0.27551369853E+02  0.00000000000E+00 0. -1.
</event>
<event>
 5    1  0.1751027E-003  0.9118800E+02  0.7818608E-02  0.1130116E+00
         25   -1    0    0    0    0  0.00000000000E+00  0.00000000000E+00  0.99999998245E-14  0.12500000000E+03  0.12500000000E+03 0.  0.
        -13    1    3    3    0    0  0.24864736256E+02 -0.36413768642E+02 -0.99851644886E+01  0.45209869826E+02  0.10566000000E+00 0.  1.
         23    2    1    0    0    0  0.25450209431E+02  0.12587854635E+02  0.43658745332E+01  0.96273216246E+02  0.91887453233E+02 0.  0.
         13    1    3    3    0    0  0.58547317498E+00  0.49001623277E+02  0.14351039022E+02  0.51063346421E+02  0.10566000000E+00 0. -1.
         22    1    1    0    0    0 -0.25450209431E+02 -0.12587854635E+02 -0.43658745332E+01  0.28726783754E+02  0.00000000000E+00 0. -1.
</event>
<event>
 5    1  0.1751027E-003  0.9118800E+02  0.7818608E-02  0.1130116E+00
         25   -1    0    0    0    0  0.00000000000E+00  0.00000000000E+00  0.99999998245E-14  0.12500000000E+03  0.12500000000E+03 0.  0.
        -13    1    3    3    0    0 -0.16674044421E+02  0.34749737570E+02  0.17964115157E+02  0.42523976954E+02  0.10566000000E+00 0. -1.
         23    2    1    0    0    0  0.91596426337E+01 -0.10096433379E+02  0.26709691513E+02  0.95012591962E+02  0.90156242105E+02 0.  0.
         13    1    3    3    0    0  0.25833687055E+02 -0.44846170949E+02  0.87455763561E+01  0.52488615008E+02  0.10566000000E+00 0.  1.
         22    1    1    0    0    0 -0.91596426337E+01  0.10096433379E+02 -0.26709691513E+02  0.29987408038E+02  0.00000000000E+00 0.  1.
</event>
<event>
 5    1  0.1751027E-003  0.9118800E+02  0.7818608E-02  0.1130116E+00
         25   -1    0    0    0    0  0.00000000000E+00  0.00000000000E+00  0.99999998245E-14  0.12500000000E+03  0.12500000000E+03 0.  0.
        -13    1    3    3    0    0  0.20890869244E+02  0.31373065175E+02  0.45703203740E+02  0.59240962453E+02  0.10566000000E+00 0.  1.
         23    2    1    0    0    0  0.13054720059E+02  0.23331694744E+02  0.10356015395E+02  0.96328746970E+02  0.91962963972E+02 0.  0.
         13    1    3    3    0    0 -0.78361491850E+01 -0.80413704315E+01 -0.35347188345E+02  0.37087784517E+02  0.10566000000E+00 0. -1.
         22    1    1    0    0    0 -0.13054720059E+02 -0.23331694744E+02 -0.10356015395E+02  0.28671253030E+02  0.00000000000E+00 0.  1.
</event>
<event>
 5    1  0.1751027E-003  0.9118800E+02  0.7818608E-02  0.1130116E+00
         25   -1    0    0    0    0  0.00000000000E+00  0.00000000000E+00  0.99999998245E-14  0.12500000000E+03  0.12500000000E+03 0.  0.
        -13    1    3    3    0    0 -0.32864622377E+02  0.26623824182E+01  0.11783454746E+00  0.32972666455E+02  0.10566000000E+00 0. -1.
         23    2    1    0    0    0  0.29075289096E+02 -0.49788995889E+01 -0.21484441043E+01  0.95423359062E+02  0.90723975692E+02 0.  0.
         13    1    3    3    0    0  0.61939911473E+02 -0.76412820070E+01 -0.22662786518E+01  0.62450692606E+02  0.10566000000E+00 0.  1.
         22    1    1    0    0    0 -0.29075289096E+02  0.49788995889E+01  0.21484441043E+01  0.29576640938E+02  0.00000000000E+00 0.  1.
</event>
<event>
 5    1  0.1751027E-003  0.9118800E+02  0.7818608E-02  0.1130116E+00
         25   -1    0    0    0    0  0.00000000000E+00  0.00000000000E+00  0.99999998245E-14  0.12500000000E+03  0.12500000000E+03 0.  0.
        -13    1    3    3    0    0  0.46377236150E+02 -0.10610007162E+02 -0.12738256379E+02  0.49251341348E+02  0.10566000000E+00 0. -1.
         23    2    1    0    0    0  0.62440965059E+01  0.16973388967E+02 -0.19485534967E+02  0.98414839719E+02  0.94756054845E+02 0.  0.
         13    1    3    3    0    0 -0.40133139644E+02  0.27583396130E+02 -0.67472785877E+01  0.49163498372E+02  0.10566000000E+00 0.  1.
         22    1    1    0    0    0 -0.62440965059E+01 -0.16973388967E+02  0.19485534967E+02  0.26585160281E+02  0.00000000000E+00 0.  1.
</event>
<event>
 5    1  0.1751027E-003  0.9118800E+02  0.7818608E-02  0.1130116E+00
         25   -1    0    0    0    0  0.00000000000E+00  0.00000000000E+00  0.99999998245E-14  0.12500000000E+03  0.12500000000E+03 0.  0.
        -13    1    3    3    0    0 -0.44455432893E+00  0.55103270170E+02 -0.51654222400E+01  0.55346732179E+02  0.10566000000E+00 0.  1.
         23    2    1    0    0    0 -0.13192080880E+02  0.17801854176E+02 -0.17624227752E+02  0.96688334314E+02  0.92450438499E+02 0.  0.
         13    1    3    3    0    0 -0.12747526551E+02 -0.37301415994E+02 -0.12458805512E+02  0.41341602135E+02  0.10566000000E+00 0. -1.
         22    1    1    0    0    0  0.13192080880E+02 -0.17801854176E+02  0.17624227752E+02  0.28311665686E+02  0.00000000000E+00 0.  1.
</event>
<event>
 5    1  0.1751027E-003  0.9118800E+02  0.7818608E-02  0.1130116E+00
         25   -1    0    0    0    0  0.00000000000E+00  0.00000000000E+00  0.99999998245E-14  0.12500000000E+03  0.12500000000E+03 0.  0.
        -13    1    3    3    0    0 -0.33709552570E+02  0.13264331910E+02  0.37278192841E+02  0.51980296854E+02  0.10566000000E+00 0.  1.
         23    2    1    0    0    0 -0.11162885447E+02 -0.19784675896E+02  0.15082580223E+02  0.97732296797E+02  0.93851340956E+02 0.  0.
         13    1    3    3    0    0  0.22546667123E+02 -0.33049007805E+02 -0.22195612618E+02  0.45751999943E+02  0.10566000000E+00 0. -1.
         22    1    1    0    0    0  0.11162885447E+02  0.19784675896E+02 -0.15082580223E+02  0.27267703203E+02  0.00000000000E+00 0.  1.
</event>
<event>
 5    1  0.1751027E-003  0.9118800E+02  0.7818608E-02  0.1130116E+00
         25   -1    0    0    0    0  0.00000000000E+00  0.00000000000E+00  0.99999998245E-14  0.12500000000E+03  0.12500000000E+03 0.  0.
        -13    1    3    3    0    0 -0.43021027181E+02  0.20333180545E+02 -0.36773170400E+02  0.60137544314E+02  0.10566000000E+00 0.  1.
         23    2    1    0    0    0 -0.21348377982E+02 -0.24798253771E+01 -0.19212115763E+02  0.96172787709E+02  0.91750732571E+02 0.  0.
         13    1    3    3    0    0  0.21672649199E+02 -0.22813005922E+02  0.17561054637E+02  0.36035243395E+02  0.10566000000E+00 0. -1.
         22    1    1    0    0    0  0.21348377982E+02  0.24798253771E+01  0.19212115763E+02  0.28827212291E+02  0.00000000000E+00 0.  1.
</event>
<event>
 5    1  0.1751027E-003  0.9118800E+02  0.7818608E-02  0.1130116E+00
         25   -1    0    0    0    0  0.00000000000E+00  0.00000000000E+00  0.99999998245E-14  0.12500000000E+03  0.12500000000E+03 0.  0.
        -13    1    3    3    0    0  0.84471142962E+01  0.15590592563E+02 -0.48534737069E+02  0.51672547670E+02  0.10566000000E+00 0. -1.
         23    2    1    0    0    0 -0.67330758854E+01  0.26509894127E+02 -0.77001157961E+01  0.96585204896E+02  0.92310894395E+02 0.  0.
         13    1    3    3    0    0 -0.15180190182E+02  0.10919301565E+02  0.40834621272E+02  0.44912657226E+02  0.10566000000E+00 0.  1.
         22    1    1    0    0    0  0.67330758854E+01 -0.26509894127E+02  0.77001157961E+01  0.28414795104E+02  0.00000000000E+00 0. -1.
</event>
<event>
 5    1  0.1751027E-003  0.9118800E+02  0.7818608E-02  0.1130116E+00
         25   -1    0    0    0    0  0.00000000000E+00  0.00000000000E+00  0.99999998245E-14  0.12500000000E+03  0.12500000000E+03 0.  0.
        -13    1    3    3    0    0 -0.30457106537E+02 -0.36402244139E+02 -0.15031172337E+02  0.49786604853E+02  0.10566000000E+00 0. -1.
         23    2    1    0    0    0  0.14605498838E+02 -0.21345526795E+02 -0.86659148749E+01  0.97722716574E+02  0.93838580251E+02 0.  0.
         13    1    3    3    0    0  0.45062605375E+02  0.15056717343E+02  0.63652574621E+01  0.47936111721E+02  0.10566000000E+00 0.  1.
         22    1    1    0    0    0 -0.14605498838E+02  0.21345526795E+02  0.86659148749E+01  0.27277283426E+02  0.00000000000E+00 0.  1.
</event>
<event>
 5    1  0.1751027E-003  0.9118800E+02  0.7818608E-02  0.1130116E+00
         25   -1    0    0    0    0  0.00000000000E+00  0.00000000000E+00  0.99999998245E-14  0.12500000000E+03  0.12500000000E+03 0.  0.
        -13    1    3    3    0    0 -0.10142556062E+02 -0.16465259168E+02  0.47867014089E+02  0.51625947011E+02  0.10566000000E+00 0.  1.
         23    2    1    0    0    0  0.65896511102E+01  0.16043704241E+02  0.24371669403E+02  0.95086755157E+02  0.90259009464E+02 0.  0.
         13    1    3    3    0    0  0.16732207172E+02  0.32508963409E+02 -0.23495344687E+02  0.43460808147E+02  0.10566000000E+00 0. -1.
         22    1    1    0    0    0 -0.65896511102E+01 -0.16043704241E+02 -0.24371669403E+02  0.29913244843E+02  0.00000000000E+00 0. -1.
</event>
<event>
 5    1  0.1751027E-003  0.9118800E+02  0.7818608E-02  0.1130116E+00
         25   -1    0    0    0    0  0.00000000000E+00  0.00000000000E+00  0.99999998245E-14  0.12500000000E+03  0.12500000000E+03 0.  0.
        -13    1    3    3    0    0 -0.14489454115E+02  0.42424224465E+02  0.14881042771E+02  0.47235745998E+02  0.10566000000E+00 0.  1.
         23    2    1    0    0    0 -0.60928448964E+01 -0.26511439832E+01  0.29029359679E+02  0.95219888404E+02  0.90443198201E+02 0.  0.
         13    1    3    3    0    0  0.83966092183E+01 -0.45075368448E+02  0.14148316907E+02  0.47984142406E+02  0.10566000000E+00 0. -1.
         22    1    1    0    0    0  0.60928448964E+01  0.26511439832E+01 -0.29029359679E+02  0.29780111596E+02  0.00000000000E+00 0. -1.
</event>
<event>
 5    1  0.1751027E-003  0.9118800E+02  0.7818608E-02  0.1130116E+00
         25   -1    0    0    0    0  0.00000000000E+00  0.00000000000E+00  0.99999998245E-14  0.12500000000E+03  0.12500000000E+03 0.  0.
        -13    1    3    3    0    0  0.31076710108E+02  0.29723935249E+02 -0.12573702711E+02  0.44803832444E+02  0.10566000000E+00 0.  1.
         23    2    1    0    0    0  0.18768986976E+01 -0.71740317444E+01 -0.29325824056E+02  0.94751141563E+02  0.89793014153E+02 0.  0.
         13    1    3    3    0    0 -0.29199811410E+02 -0.36897966993E+02 -0.16752121345E+02  0.49947309119E+02  0.10566000000E+00 0. -1.
         22    1    1    0    0    0 -0.18768986976E+01  0.71740317444E+01  0.29325824056E+02  0.30248858437E+02  0.00000000000E+00 0. -1.
</event>
<event>
 5    1  0.1751027E-003  0.9118800E+02  0.7818608E-02  0.1130116E+00
         25   -1    0    0    0    0  0.00000000000E+00  0.00000000000E+00  0.99999998245E-14  0.12500000000E+03  0.12500000000E+03 0.  0.
        -13    1    3    3    0    0 -0.29686967949E+02 -0.23479035714E+02 -0.76471157356E+01  0.38614384977E+02  0.10566000000E+00 0.  1.
         23    2    1    0    0    0  0.16893965640E+02  0.54975407417E+01 -0.23334893020E+02  0.95671749771E+02  0.91065566724E+02 0.  0.
         13    1    3    3    0    0  0.46580933589E+02  0.28976576455E+02 -0.15687777284E+02  0.57057364794E+02  0.10566000000E+00 0. -1.
         22    1    1    0    0    0 -0.16893965640E+02 -0.54975407417E+01  0.23334893020E+02  0.29328250229E+02  0.00000000000E+00 0.  1.
</event>
<event>
 5    1  0.1751027E-003  0.9118800E+02  0.7818608E-02  0.1130116E+00
         25   -1    0    0    0    0  0.00000000000E+00  0.00000000000E+00  0.99999998245E-14  0.12500000000E+03  0.12500000000E+03 0.  0.
        -13    1    3    3    0    0 -0.39621860460E+02 -0.12179508912E+02 -0.18667564777E+02  0.45461207665E+02  0.10566000000E+00 0. -1.
         23    2    1    0    0    0 -0.59225033483E+01  0.23997728859E+02 -0.17130366635E+02  0.94926481793E+02  0.90036772756E+02 0.  0.
         13    1    3    3    0    0  0.33699357111E+02  0.36177237771E+02  0.15371981418E+01  0.49465274128E+02  0.10566000000E+00 0.  1.
         22    1    1    0    0    0  0.59225033483E+01 -0.23997728859E+02  0.17130366635E+02  0.30073518207E+02  0.00000000000E+00 0.  1.
</event>
<event>
 5    1  0.1751027E-003  0.9118800E+02  0.7818608E-02  0.1130116E+00
         25   -1    0    0    0    0  0.00000000000E+00  0.00000000000E+00  0.99999998245E-14  0.12500000000E+03  0.12500000000E+03 0.  0.
        -13    1    3    3    0    0  0.46022936332E+02 -0.24502682824E+02 -0.30365110778E+02  0.60336914495E+02  0.10566000000E+00 0.  1.
         23    2    1    0    0    0  0.27078368085E+02 -0.19705245400E+02 -0.30236771212E+02  0.79880192291E+02  0.65916978637E+02 0.  0.
         13    1    3    3    0    0 -0.18944568247E+02  0.47974374242E+01  0.12833956646E+00  0.19543277795E+02  0.10566000000E+00 0. -1.
         22    1    1    0    0    0 -0.27078368085E+02  0.19705245400E+02  0.30236771212E+02  0.45119807709E+02  0.00000000000E+00 0.  1.
</event>
<event>
 5    1  0.1751027E-003  0.9118800E+02  0.7818608E-02  0.1130116E+00
         25   -1    0    0    0    0  0.00000000000E+00  0.00000000000E+00  0.99999998245E-14  0.12500000000E+03  0.12500000000E+03 0.  0.
        -13    1    3    3    0    0  0.15182244530E+02 -0.21132957943E+02 -0.26005860813E+02  0.36788835549E+02  0.10566000000E+00 0. -1.
         23    2    1    0    0    0 -0.28897859328E+02  0.91792735906E+01 -0.49608511775E+01  0.94276143116E+02  0.89129320535E+02 0.  0.
         13    1    3    3    0    0 -0.44080103859E+02  0.30312231533E+02  0.21045009635E+02  0.57487307567E+02  0.10566000000E+00 0.  1.
         22    1    1    0    0    0  0.28897859328E+02 -0.91792735906E+01  0.49608511775E+01  0.30723856884E+02  0.00000000000E+00 0.  1.
</event>
<event>
 5    1  0.1751027E-003  0.9118800E+02  0.7818608E-02  0.1130116E+00
         25   -1    0    0    0    0  0.00000000000E+00  0.00000000000E+00  0.99999998245E-14  0.12500000000E+03  0.12500000000E+03 0.  0.
        -13    1    3    3    0    0  0.22264717439E+02  0.19769814319E+02 -0.49157603054E+02  0.57472117613E+02  0.10566000000E+00 0.  1.
         23    2    1    0    0    0  0.22754582948E+02  0.15188693161E+02 -0.11645181669E+02  0.95266555847E+02  0.90507673497E+02 0.  0.
         13    1    3    3    0    0  0.48986550842E+00 -0.45811211581E+01  0.37512421385E+02  0.37794438234E+02  0.10566000000E+00 0. -1.
         22    1    1    0    0    0 -0.22754582948E+02 -0.15188693161E+02  0.11645181669E+02  0.29733444153E+02  0.00000000000E+00 0.  1.
</event>
<event>
 5    1  0.1751027E-003  0.9118800E+02  0.7818608E-02  0.1130116E+00
         25   -1    0    0    0    0  0.00000000000E+00  0.00000000000E+00  0.99999998245E-14  0.12500000000E+03  0.12500000000E+03 0.  0.
        -13    1    3    3    0    0 -0.36349672858E+02 -0.15403882940E+01  0.11611084917E+00  0.36382635401E+02  0.10566000000E+00 0. -1.
         23    2    1    0    0    0  0.19280453234E+02 -0.79065283295E+01  0.20305191324E+02  0.95904470071E+02  0.91384448993E+02 0.  0.
         13    1    3    3    0    0  0.55630126092E+02 -0.63661400355E+01  0.20189080475E+02  0.59521834670E+02  0.10566000000E+00 0.  1.
         22    1    1    0    0    0 -0.19280453234E+02  0.79065283295E+01 -0.20305191324E+02  0.29095529929E+02  0.00000000000E+00 0.  1.
</event>
<event>
 5    1  0.1751027E-003  0.9118800E+02  0.7818608E-02  0.1130116E+00
         25   -1    0    0    0    0  0.00000000000E+00  0.00000000000E+00  0.99999998245E-14  0.12500000000E+03  0.12500000000E+03 0.  0.
        -13    1    3    3    0    0  0.31627862717E+02 -0.79218459157E+01  0.18865698236E+02  0.37669657242E+02  0.10566000000E+00 0. -1.
         23    2    1    0    0    0 -0.93929486056E+01  0.28019883429E+02 -0.20491776623E+00  0.95446940223E+02  0.90756460132E+02 0.  0.
         13    1    3    3    0    0 -0.41020811323E+02  0.35941729345E+02 -0.19070616002E+02  0.57777282981E+02  0.10566000000E+00 0.  1.
         22    1    1    0    0    0  0.93929486056E+01 -0.28019883429E+02  0.20491776623E+00  0.29553059777E+02  0.00000000000E+00 0.  1.
</event>
<event>
 5    1  0.1751027E-003  0.9118800E+02  0.7818608E-02  0.1130116E+00
         25   -1    0    0    0    0  0.00000000000E+00  0.00000000000E+00  0.99999998245E-14  0.12500000000E+03  0.12500000000E+03 0.  0.
        -13    1    3    3    0    0 -0.49574998040E+02  0.25277353511E+02  0.12184173547E+02  0.56965693889E+02  0.10566000000E+00 0. -1.
         23    2    1    0    0    0 -0.12085446266E+02  0.26357026473E+02  0.91562421498E+01  0.94592967487E+02  0.89572550884E+02 0.  0.
         13    1    3    3    0    0  0.37489551774E+02  0.10796729618E+01 -0.30279313974E+01  0.37627273599E+02  0.10566000000E+00 0.  1.
         22    1    1    0    0    0  0.12085446266E+02 -0.26357026473E+02 -0.91562421498E+01  0.30407032513E+02  0.00000000000E+00 0. -1.
</event>
<event>
 5    1  0.1751027E-003  0.9118800E+02  0.7818608E-02  0.1130116E+00
         25   -1    0    0    0    0  0.00000000000E+00  0.00000000000E+00  0.99999998245E-14  0.12500000000E+03  0.12500000000E+03 0.  0.
        -13    1    3    3    0    0  0.92756103992E+01 -0.41134246911E+02 -0.16326658532E+02  0.45217631075E+02  0.10566000000E+00 0. -1.
         23    2    1    0    0    0  0.44932088976E+01 -0.17250389103E+02  0.25658488123E+02  0.93757034982E+02  0.88398296055E+02 0.  0.
         13    1    3    3    0    0 -0.47824015016E+01  0.23883857808E+02  0.41985146655E+02  0.48539403906E+02  0.10566000000E+00 0.  1.
         22    1    1    0    0    0 -0.44932088976E+01  0.17250389103E+02 -0.25658488123E+02  0.31242965018E+02  0.00000000000E+00 0. -1.
</event>
<event>
 5    1  0.1751027E-003  0.9118800E+02  0.7818608E-02  0.1130116E+00
         25   -1    0    0    0    0  0.00000000000E+00  0.00000000000E+00  0.99999998245E-14  0.12500000000E+03  0.12500000000E+03 0.  0.
        -13    1    3    3    0    0 -0.30267761406E+02 -0.15193309914E+02  0.25259603154E+02  0.42249648072E+02  0.10566000000E+00 0. -1.
         23    2    1    0    0    0  0.93246892236E+01 -0.27143122535E+02 -0.78707871964E+01  0.95240157575E+02  0.90471207540E+02 0.  0.
         13    1    3    3    0    0  0.39592450630E+02 -0.11949812621E+02 -0.33130390351E+02  0.52990509503E+02  0.10566000000E+00 0.  1.
         22    1    1    0    0    0 -0.93246892236E+01  0.27143122535E+02  0.78707871964E+01  0.29759842425E+02  0.00000000000E+00 0.  1.
</event>
<event>
 5    1  0.1751027E-003  0.9118800E+02  0.7818608E-02  0.1130116E+00
         25   -1    0    0    0    0  0.00000000000E+00  0.00000000000E+00  0.99999998245E-14  0.12500000000E+03  0.12500000000E+03 0.  0.
        -13    1    3    3    0    0 -0.61291750642E+02 -0.99247101512E+01  0.38359865775E+01  0.62208556689E+02  0.10566000000E+00 0.  1.
         23    2    1    0    0    0 -0.34963607965E+02 -0.97041980429E+01  0.87145160846E+00  0.88704204520E+02  0.80938563924E+02 0.  0.
         13    1    3    3    0    0  0.26328142676E+02  0.22051210827E+00 -0.29645349690E+01  0.26495647831E+02  0.10566000000E+00 0. -1.
         22    1    1    0    0    0  0.34963607965E+02  0.97041980429E+01 -0.87145160846E+00  0.36295795480E+02  0.00000000000E+00 0.  1.
</event>
<event>
 5    1  0.1751027E-003  0.9118800E+02  0.7818608E-02  0.1130116E+00
         25   -1    0    0    0    0  0.00000000000E+00  0.00000000000E+00  0.99999998245E-14  0.12500000000E+03  0.12500000000E+03 0.  0.
        -13    1    3    3    0    0 -0.32107527910E+02  0.97066994751E+01 -0.25129183185E+02  0.41911816649E+02  0.10566000000E+00 0. -1.
         23    2    1    0    0    0 -0.11040483398E+02 -0.27867275176E+02  0.51770889261E+01  0.94581591936E+02  0.89556674704E+02 0.  0.
         13    1    3    3    0    0  0.21067044512E+02 -0.37573974651E+02  0.30306272112E+02  0.52669775288E+02  0.10566000000E+00 0.  1.
         22    1    1    0    0    0  0.11040483398E+02  0.27867275176E+02 -0.51770889261E+01  0.30418408064E+02  0.00000000000E+00 0.  1.
</event>
<event>
 5    1  0.1751027E-003  0.9118800E+02  0.7818608E-02  0.1130116E+00
         25   -1    0    0    0    0  0.00000000000E+00  0.00000000000E+00  0.99999998245E-14  0.12500000000E+03  0.12500000000E+03 0.  0.
        -13    1    3    3    0    0  0.10049248713E+02 -0.58300740880E+02  0.50008879491E+01  0.59371574269E+02  0.10566000000E+00 0. -1.
         23    2    1    0    0    0  0.84850355829E+01 -0.27263823992E+02 -0.11091862857E+02  0.94367642123E+02  0.89257551673E+02 0.  0.
         13    1    3    3    0    0 -0.15642131297E+01  0.31036916889E+02 -0.16092750806E+02  0.34996067854E+02  0.10566000000E+00 0.  1.
         22    1    1    0    0    0 -0.84850355829E+01  0.27263823992E+02  0.11091862857E+02  0.30632357877E+02  0.00000000000E+00 0. -1.
</event>
<event>
 5    1  0.1751027E-003  0.9118800E+02  0.7818608E-02  0.1130116E+00
         25   -1    0    0    0    0  0.00000000000E+00  0.00000000000E+00  0.99999998245E-14  0.12500000000E+03  0.12500000000E+03 0.  0.
        -13    1    3    3    0    0 -0.51058917372E+02  0.11576932600E+02 -0.34860002118E+01  0.52470961237E+02  0.10566000000E+00 0.  1.
         23    2    1    0    0    0 -0.20204332933E+02 -0.18782142152E+02 -0.87111451306E+01  0.96071329402E+02  0.91612402820E+02 0.  0.
         13    1    3    3    0    0  0.30854584439E+02 -0.30359074752E+02 -0.52251449188E+01  0.43600368165E+02  0.10566000000E+00 0. -1.
         22    1    1    0    0    0  0.20204332933E+02  0.18782142152E+02  0.87111451306E+01  0.28928670598E+02  0.00000000000E+00 0. -1.
</event>
<event>
 5    1  0.1751027E-003  0.9118800E+02  0.7818608E-02  0.1130116E+00
         25   -1    0    0    0    0  0.00000000000E+00  0.00000000000E+00  0.99999998245E-14  0.12500000000E+03  0.12500000000E+03 0.  0.
        -13    1    3    3    0    0  0.27478434514E+02  0.83040164390E+01  0.20508721965E+02  0.35279454262E+02  0.10566000000E+00 0. -1.
         23    2    1    0    0    0 -0.24536062361E+02  0.11906568830E+02 -0.10307659327E+02  0.95844681818E+02  0.91302631148E+02 0.  0.
         13    1    3    3    0    0 -0.52014496875E+02  0.36025523906E+01 -0.30816381292E+02  0.60565227556E+02  0.10566000000E+00 0.  1.
         22    1    1    0    0    0  0.24536062361E+02 -0.11906568830E+02  0.10307659327E+02  0.29155318182E+02  0.00000000000E+00 0.  1.
</event>
<event>
 5    1  0.1751027E-003  0.9118800E+02  0.7818608E-02  0.1130116E+00
         25   -1    0    0    0    0  0.00000000000E+00  0.00000000000E+00  0.99999998245E-14  0.12500000000E+03  0.12500000000E+03 0.  0.
        -13    1    3    3    0    0  0.22754105388E+02 -0.24930997013E+02  0.15415199418E+02  0.37107188807E+02  0.10566000000E+00 0.  1.
         23    2    1    0    0    0 -0.27971396116E+02  0.50473574663E+00  0.13628793244E+02  0.93880909972E+02  0.88573288824E+02 0.  0.
         13    1    3    3    0    0 -0.50725501504E+02  0.25435732759E+02 -0.17864061735E+01  0.56773721165E+02  0.10566000000E+00 0. -1.
         22    1    1    0    0    0  0.27971396116E+02 -0.50473574663E+00 -0.13628793244E+02  0.31119090028E+02  0.00000000000E+00 0. -1.
</event>
<event>
 5    1  0.1751027E-003  0.9118800E+02  0.7818608E-02  0.1130116E+00
         25   -1    0    0    0    0  0.00000000000E+00  0.00000000000E+00  0.99999998245E-14  0.12500000000E+03  0.12500000000E+03 0.  0.
        -13    1    3    3    0    0 -0.11544079777E+02  0.10529004248E+02 -0.67552948378E+01  0.17022657863E+02  0.10566000000E+00 0.  1.
         23    2    1    0    0    0  0.11086577490E+02 -0.42557706150E+02 -0.20701576311E+02  0.76393150535E+02  0.58934604722E+02 0.  0.
         13    1    3    3    0    0  0.22630657267E+02 -0.53086710397E+02 -0.13946281473E+02  0.59370492672E+02  0.10566000000E+00 0. -1.
         22    1    1    0    0    0 -0.11086577490E+02  0.42557706150E+02  0.20701576311E+02  0.48606849465E+02  0.00000000000E+00 0. -1.
</event>
<event>
 5    1  0.1751027E-003  0.9118800E+02  0.7818608E-02  0.1130116E+00
         25   -1    0    0    0    0  0.00000000000E+00  0.00000000000E+00  0.99999998245E-14  0.12500000000E+03  0.12500000000E+03 0.  0.
        -13    1    3    3    0    0 -0.26888805835E+02  0.29143985886E+02  0.27245503544E+02  0.48111416732E+02  0.10566000000E+00 0. -1.
         23    2    1    0    0    0  0.14684500530E+02  0.12547091774E+02  0.25633309726E+02  0.92904351769E+02  0.87184218425E+02 0.  0.
         13    1    3    3    0    0  0.41573306366E+02 -0.16596894111E+02 -0.16121938174E+01  0.44792935037E+02  0.10566000000E+00 0.  1.
         22    1    1    0    0    0 -0.14684500530E+02 -0.12547091774E+02 -0.25633309726E+02  0.32095648231E+02  0.00000000000E+00 0.  1.
</event>
<event>
 5    1  0.1751027E-003  0.9118800E+02  0.7818608E-02  0.1130116E+00
         25   -1    0    0    0    0  0.00000000000E+00  0.00000000000E+00  0.99999998245E-14  0.12500000000E+03  0.12500000000E+03 0.  0.
        -13    1    3    3    0    0 -0.16662703670E+02  0.27415834896E+02 -0.34899381302E+02  0.47405186171E+02  0.10566000000E+00 0.  1.
         23    2    1    0    0    0 -0.17232507776E+01 -0.18343113816E+02 -0.20029477366E+02  0.97785676910E+02  0.93922410677E+02 0.  0.
         13    1    3    3    0    0  0.14939452892E+02 -0.45758948712E+02  0.14869903935E+02  0.50380490739E+02  0.10566000000E+00 0. -1.
         22    1    1    0    0    0  0.17232507776E+01  0.18343113816E+02  0.20029477366E+02  0.27214323090E+02  0.00000000000E+00 0. -1.
</event>
<event>
 5    1  0.1751027E-003  0.9118800E+02  0.7818608E-02  0.1130116E+00
         25   -1    0    0    0    0  0.00000000000E+00  0.00000000000E+00  0.99999998245E-14  0.12500000000E+03  0.12500000000E+03 0.  0.
        -13    1    3    3    0    0  0.36039315437E+02  0.29624559053E+01  0.11374100753E+02  0.37907647436E+02  0.10566000000E+00 0. -1.
         23    2    1    0    0    0 -0.84330575084E+01 -0.66838019252E+01 -0.26042727371E+02  0.96821758110E+02  0.92630661919E+02 0.  0.
         13    1    3    3    0    0 -0.44472372946E+02 -0.96462578306E+01 -0.37416828124E+02  0.58914110673E+02  0.10566000000E+00 0.  1.
         22    1    1    0    0    0  0.84330575084E+01  0.66838019252E+01  0.26042727371E+02  0.28178241890E+02  0.00000000000E+00 0.  1.
</event>
<event>
 5    1  0.1751027E-003  0.9118800E+02  0.7818608E-02  0.1130116E+00
         25   -1    0    0    0    0  0.00000000000E+00  0.00000000000E+00  0.99999998245E-14  0.12500000000E+03  0.12500000000E+03 0.  0.
        -13    1    3    3    0    0 -0.19846337114E+02 -0.40938432070E+02  0.17784020050E+01  0.45530277782E+02  0.10566000000E+00 0. -1.
         23    2    1    0    0    0  0.10764586512E+02 -0.11108238256E+02  0.26065212283E+02  0.94690520109E+02  0.89708583910E+02 0.  0.
         13    1    3    3    0    0  0.30610923626E+02  0.29830193813E+02  0.24286810278E+02  0.49160242327E+02  0.10566000000E+00 0.  1.
         22    1    1    0    0    0 -0.10764586512E+02  0.11108238256E+02 -0.26065212283E+02  0.30309479891E+02  0.00000000000E+00 0.  1.
</event>
<event>
 5    1  0.1751027E-003  0.9118800E+02  0.7818608E-02  0.1130116E+00
         25   -1    0    0    0    0  0.00000000000E+00  0.00000000000E+00  0.99999998245E-14  0.12500000000E+03  0.12500000000E+03 0.  0.
        -13    1    3    3    0    0 -0.28255180622E+02 -0.24023140918E+02 -0.27280131940E+02  0.46040018400E+02  0.10566000000E+00 0. -1.
         23    2    1    0    0    0  0.19973248276E+02 -0.10349800645E+02 -0.15921670868E+02  0.97440090289E+02  0.93461342662E+02 0.  0.
         13    1    3    3    0    0  0.48228428898E+02  0.13673340274E+02  0.11358461072E+02  0.51400071889E+02  0.10566000000E+00 0.  1.
         22    1    1    0    0    0 -0.19973248276E+02  0.10349800645E+02  0.15921670868E+02  0.27559909711E+02  0.00000000000E+00 0.  1.
</event>
<event>
 5    1  0.1751027E-003  0.9118800E+02  0.7818608E-02  0.1130116E+00
         25   -1    0    0    0    0  0.00000000000E+00  0.00000000000E+00  0.99999998245E-14  0.12500000000E+03  0.12500000000E+03 0.  0.
        -13    1    3    3    0    0 -0.27001917791E+02 -0.38851414016E+02 -0.16635102692E+02  0.50152504833E+02  0.10566000000E+00 0.  1.
         23    2    1    0    0    0 -0.30899502973E+01 -0.19440445606E+02  0.19267284753E+02  0.97455363863E+02  0.93481768092E+02 0.  0.
         13    1    3    3    0    0  0.23911967494E+02  0.19410968410E+02  0.35902387445E+02  0.47302859029E+02  0.10566000000E+00 0. -1.
         22    1    1    0    0    0  0.30899502973E+01  0.19440445606E+02 -0.19267284753E+02  0.27544636137E+02  0.00000000000E+00 0. -1.
</event>
<event>
 5    1  0.1751027E-003  0.9118800E+02  0.7818608E-02  0.1130116E+00
         25   -1    0    0    0    0  0.00000000000E+00  0.00000000000E+00  0.99999998245E-14  0.12500000000E+03  0.12500000000E+03 0.  0.
        -13    1    3    3    0    0 -0.29520821504E+02 -0.20170790880E+02 -0.35664412651E+02  0.50500506936E+02  0.10566000000E+00 0.  1.
         23    2    1    0    0    0 -0.26192107817E+02 -0.11056748265E+02  0.81884038285E+01  0.95414054834E+02  0.90711155370E+02 0.  0.
         13    1    3    3    0    0  0.33287136864E+01  0.91140426159E+01  0.43852816479E+02  0.44913547898E+02  0.10566000000E+00 0. -1.
         22    1    1    0    0    0  0.26192107817E+02  0.11056748265E+02 -0.81884038285E+01  0.29585945166E+02  0.00000000000E+00 0.  1.
</event>
<event>
 5    1  0.1751027E-003  0.9118800E+02  0.7818608E-02  0.1130116E+00
         25   -1    0    0    0    0  0.00000000000E+00  0.00000000000E+00  0.99999998245E-14  0.12500000000E+03  0.12500000000E+03 0.  0.
        -13    1    3    3    0    0 -0.13461996759E+02 -0.20876584274E+02  0.33592921436E+02  0.41779811660E+02  0.10566000000E+00 0. -1.
         23    2    1    0    0    0 -0.14077158043E+01 -0.22720847235E+02 -0.18739670659E+02  0.95514515109E+02  0.90849484188E+02 0.  0.
         13    1    3    3    0    0  0.12054280955E+02 -0.18442629605E+01 -0.52332592096E+02  0.53734703449E+02  0.10566000000E+00 0.  1.
         22    1    1    0    0    0  0.14077158043E+01  0.22720847235E+02  0.18739670659E+02  0.29485484891E+02  0.00000000000E+00 0.  1.
</event>
<event>
 5    1  0.1751027E-003  0.9118800E+02  0.7818608E-02  0.1130116E+00
         25   -1    0    0    0    0  0.00000000000E+00  0.00000000000E+00  0.99999998245E-14  0.12500000000E+03  0.12500000000E+03 0.  0.
        -13    1    3    3    0    0 -0.19967783305E+02  0.54041177920E+02 -0.47592574699E+00  0.57614225244E+02  0.10566000000E+00 0.  1.
         23    2    1    0    0    0  0.49906062237E+01  0.30660326562E+02 -0.86048250433E+01  0.92766402785E+02  0.86986209806E+02 0.  0.
         13    1    3    3    0    0  0.24958389529E+02 -0.23380851358E+02 -0.81288992963E+01  0.35152177542E+02  0.10566000000E+00 0. -1.
         22    1    1    0    0    0 -0.49906062237E+01 -0.30660326562E+02  0.86048250433E+01  0.32233597215E+02  0.00000000000E+00 0.  1.
</event>
<event>
 5    1  0.1751027E-003  0.9118800E+02  0.7818608E-02  0.1130116E+00
         25   -1    0    0    0    0  0.00000000000E+00  0.00000000000E+00  0.99999998245E-14  0.12500000000E+03  0.12500000000E+03 0.  0.
        -13    1    3    3    0    0  0.30572092731E+02  0.35646517733E+02 -0.10973139856E+02  0.48226010023E+02  0.10566000000E+00 0.  1.
         23    2    1    0    0    0  0.12523415207E+02 -0.89834945747E+01 -0.22499287318E+02  0.97728090770E+02  0.93845738808E+02 0.  0.
         13    1    3    3    0    0 -0.18048677524E+02 -0.44630012307E+02 -0.11526147462E+02  0.49502080747E+02  0.10566000000E+00 0. -1.
         22    1    1    0    0    0 -0.12523415207E+02  0.89834945747E+01  0.22499287318E+02  0.27271909230E+02  0.00000000000E+00 0. -1.
</event>
<event>
 5    1  0.1751027E-003  0.9118800E+02  0.7818608E-02  0.1130116E+00
         25   -1    0    0    0    0  0.00000000000E+00  0.00000000000E+00  0.99999998245E-14  0.12500000000E+03  0.12500000000E+03 0.  0.
        -13    1    3    3    0    0  0.30199737246E+02 -0.13139456838E+02  0.30535934656E+02  0.44912402798E+02  0.10566000000E+00 0. -1.
         23    2    1    0    0    0 -0.48191667551E+01 -0.28837862002E+02 -0.26427269764E+01  0.95643047520E+02  0.91026160415E+02 0.  0.
         13    1    3    3    0    0 -0.35018904001E+02 -0.15698405164E+02 -0.33178661633E+02  0.50730644722E+02  0.10566000000E+00 0.  1.
         22    1    1    0    0    0  0.48191667551E+01  0.28837862002E+02  0.26427269764E+01  0.29356952480E+02  0.00000000000E+00 0.  1.
</event>
<event>
 5    1  0.1751027E-003  0.9118800E+02  0.7818608E-02  0.1130116E+00
         25   -1    0    0    0    0  0.00000000000E+00  0.00000000000E+00  0.99999998245E-14  0.12500000000E+03  0.12500000000E+03 0.  0.
        -13    1    3    3    0    0  0.50717237663E+02 -0.90925903138E+01  0.88432715444E+01  0.52279326798E+02  0.10566000000E+00 0. -1.
         23    2    1    0    0    0  0.87989078033E+01 -0.24968891051E+02  0.87944284776E+01  0.97103615448E+02  0.93010235254E+02 0.  0.
         13    1    3    3    0    0 -0.41918329860E+02 -0.15876300737E+02 -0.48843066793E-01  0.44824288650E+02  0.10566000000E+00 0.  1.
         22    1    1    0    0    0 -0.87989078033E+01  0.24968891051E+02 -0.87944284776E+01  0.27896384552E+02  0.00000000000E+00 0.  1.
</event>
<event>
 5    1  0.1751027E-003  0.9118800E+02  0.7818608E-02  0.1130116E+00
         25   -1    0    0    0    0  0.00000000000E+00  0.00000000000E+00  0.99999998245E-14  0.12500000000E+03  0.12500000000E+03 0.  0.
        -13    1    3    3    0    0  0.14007361320E+02 -0.10689433506E+02  0.57548024022E+02  0.60185184163E+02  0.10566000000E+00 0.  1.
         23    2    1    0    0    0  0.15531497102E+02 -0.10282216336E+02  0.20366700891E+02  0.97400110867E+02  0.93407856825E+02 0.  0.
         13    1    3    3    0    0  0.15241357819E+01  0.40721717055E+00 -0.37181323132E+02  0.37214926704E+02  0.10566000000E+00 0. -1.
         22    1    1    0    0    0 -0.15531497102E+02  0.10282216336E+02 -0.20366700891E+02  0.27599889133E+02  0.00000000000E+00 0.  1.
</event>
<event>
 5    1  0.1751027E-003  0.9118800E+02  0.7818608E-02  0.1130116E+00
         25   -1    0    0    0    0  0.00000000000E+00  0.00000000000E+00  0.99999998245E-14  0.12500000000E+03  0.12500000000E+03 0.  0.
        -13    1    3    3    0    0 -0.17626839564E+02 -0.42743835501E+02 -0.39603327543E+02  0.60878367775E+02  0.10566000000E+00 0. -1.
         23    2    1    0    0    0 -0.10073406554E+01 -0.27258316342E+02 -0.17383876821E+02  0.92654525536E+02  0.86825292306E+02 0.  0.
         13    1    3    3    0    0  0.16619498909E+02  0.15485519160E+02  0.22219450722E+02  0.31776157761E+02  0.10566000000E+00 0.  1.
         22    1    1    0    0    0  0.10073406554E+01  0.27258316342E+02  0.17383876821E+02  0.32345474464E+02  0.00000000000E+00 0. -1.
</event>
<event>
 5    1  0.1751027E-003  0.9118800E+02  0.7818608E-02  0.1130116E+00
         25   -1    0    0    0    0  0.00000000000E+00  0.00000000000E+00  0.99999998245E-14  0.12500000000E+03  0.12500000000E+03 0.  0.
        -13    1    3    3    0    0  0.42446589477E+02  0.64680831390E+01  0.47812663990E+01  0.43202091733E+02  0.10566000000E+00 0. -1.
         23    2    1    0    0    0  0.46839877851E+01 -0.29102588545E+02 -0.16489142079E+01  0.95476800314E+02  0.90797577493E+02 0.  0.
         13    1    3    3    0    0 -0.37762601692E+02 -0.35570671684E+02 -0.64301806069E+01  0.52274708581E+02  0.10566000000E+00 0.  1.
         22    1    1    0    0    0 -0.46839877851E+01  0.29102588545E+02  0.16489142079E+01  0.29523199686E+02  0.00000000000E+00 0.  1.
</event>
<event>
 5    1  0.1751027E-003  0.9118800E+02  0.7818608E-02  0.1130116E+00
         25   -1    0    0    0    0  0.00000000000E+00  0.00000000000E+00  0.99999998245E-14  0.12500000000E+03  0.12500000000E+03 0.  0.
        -13    1    3    3    0    0  0.21014549656E+01 -0.25740807605E+02  0.30608418829E+02  0.40048617409E+02  0.10566000000E+00 0.  1.
         23    2    1    0    0    0  0.22505274927E+01  0.26523960294E+02  0.65409652860E+01  0.97588878707E+02  0.93660128533E+02 0.  0.
         13    1    3    3    0    0  0.14907252710E+00  0.52264767899E+02 -0.24067453543E+02  0.57540261298E+02  0.10566000000E+00 0. -1.
         22    1    1    0    0    0 -0.22505274927E+01 -0.26523960294E+02 -0.65409652860E+01  0.27411121293E+02  0.00000000000E+00 0. -1.
</event>
<event>
 5    1  0.1751027E-003  0.9118800E+02  0.7818608E-02  0.1130116E+00
         25   -1    0    0    0    0  0.00000000000E+00  0.00000000000E+00  0.99999998245E-14  0.12500000000E+03  0.12500000000E+03 0.  0.
        -13    1    3    3    0    0 -0.19259424736E+02  0.53412747530E+02 -0.68511378371E+01  0.57190875964E+02  0.10566000000E+00 0. -1.
         23    2    1    0    0    0 -0.11217416911E+02  0.15440380670E+02 -0.19205568530E+02  0.97924371476E+02  0.94106816273E+02 0.  0.
         13    1    3    3    0    0  0.80420078251E+01 -0.37972366860E+02 -0.12354430693E+02  0.40733495511E+02  0.10566000000E+00 0.  1.
         22    1    1    0    0    0  0.11217416911E+02 -0.15440380670E+02  0.19205568530E+02  0.27075628524E+02  0.00000000000E+00 0. -1.
</event>
<event>
 5    1  0.1751027E-003  0.9118800E+02  0.7818608E-02  0.1130116E+00
         25   -1    0    0    0    0  0.00000000000E+00  0.00000000000E+00  0.99999998245E-14  0.12500000000E+03  0.12500000000E+03 0.  0.
        -13    1    3    3    0    0  0.46831112606E+02  0.23798478952E+02 -0.23209108796E+02  0.57429910356E+02  0.10566000000E+00 0.  1.
         23    2    1    0    0    0  0.10768554100E+02  0.25155429541E+02 -0.94978699154E+01  0.96035074215E+02  0.91562921282E+02 0.  0.
         13    1    3    3    0    0 -0.36062558506E+02  0.13569505889E+01  0.13711238880E+02  0.38605163859E+02  0.10566000000E+00 0. -1.
         22    1    1    0    0    0 -0.10768554100E+02 -0.25155429541E+02  0.94978699154E+01  0.28964925785E+02  0.00000000000E+00 0.  1.
</event>
<event>
 5    1  0.1751027E-003  0.9118800E+02  0.7818608E-02  0.1130116E+00
         25   -1    0    0    0    0  0.00000000000E+00  0.00000000000E+00  0.99999998245E-14  0.12500000000E+03  0.12500000000E+03 0.  0.
        -13    1    3    3    0    0 -0.26856951526E+02  0.21426167314E+02 -0.33606076626E+02  0.48059921361E+02  0.10566000000E+00 0.  1.
         23    2    1    0    0    0 -0.24414687705E+02 -0.14897318061E+02 -0.19009425973E+01  0.96336074171E+02  0.91972922879E+02 0.  0.
         13    1    3    3    0    0  0.24422638208E+01 -0.36323485375E+02  0.31705134028E+02  0.48276152811E+02  0.10566000000E+00 0. -1.
         22    1    1    0    0    0  0.24414687705E+02  0.14897318061E+02  0.19009425973E+01  0.28663925829E+02  0.00000000000E+00 0.  1.
</event>
<event>
 5    1  0.1751027E-003  0.9118800E+02  0.7818608E-02  0.1130116E+00
         25   -1    0    0    0    0  0.00000000000E+00  0.00000000000E+00  0.99999998245E-14  0.12500000000E+03  0.12500000000E+03 0.  0.
        -13    1    3    3    0    0 -0.45983284372E+02  0.43146562446E+01  0.19355822618E+02  0.50077317554E+02  0.10566000000E+00 0. -1.
         23    2    1    0    0    0 -0.74631310598E+01 -0.12978563716E+02  0.28066148210E+02  0.93190408417E+02  0.87593390757E+02 0.  0.
         13    1    3    3    0    0  0.38520153312E+02 -0.17293219960E+02  0.87103255915E+01  0.43113090863E+02  0.10566000000E+00 0.  1.
         22    1    1    0    0    0  0.74631310598E+01  0.12978563716E+02 -0.28066148210E+02  0.31809591583E+02  0.00000000000E+00 0. -1.
</event>
<event>
 5    1  0.1751027E-003  0.9118800E+02  0.7818608E-02  0.1130116E+00
         25   -1    0    0    0    0  0.00000000000E+00  0.00000000000E+00  0.99999998245E-14  0.12500000000E+03  0.12500000000E+03 0.  0.
        -13    1    3    3    0    0  0.85240391980E+01 -0.34082003596E+02 -0.48798315963E+02  0.60129269231E+02  0.10566000000E+00 0. -1.
         23    2    1    0    0    0 -0.79906309068E+01 -0.17947977424E+02 -0.21795123746E+02  0.95657070783E+02  0.91045415567E+02 0.  0.
         13    1    3    3    0    0 -0.16514670105E+02  0.16134026172E+02  0.27003192217E+02  0.35527801552E+02  0.10566000000E+00 0.  1.
         22    1    1    0    0    0  0.79906309068E+01  0.17947977424E+02  0.21795123746E+02  0.29342929217E+02  0.00000000000E+00 0. -1.
</event>
<event>
 5    1  0.1751027E-003  0.9118800E+02  0.7818608E-02  0.1130116E+00
         25   -1    0    0    0    0  0.00000000000E+00  0.00000000000E+00  0.99999998245E-14  0.12500000000E+03  0.12500000000E+03 0.  0.
        -13    1    3    3    0    0  0.10588903972E+02  0.25842692205E+02  0.39579115527E+02  0.48440553028E+02  0.10566000000E+00 0.  1.
         23    2    1    0    0    0  0.20545577209E+02 -0.13706777302E+02  0.16432219126E+02  0.95334964819E+02  0.90602103755E+02 0.  0.
         13    1    3    3    0    0  0.99566732375E+01 -0.39549469507E+02 -0.23146896401E+02  0.46894411791E+02  0.10566000000E+00 0. -1.
         22    1    1    0    0    0 -0.20545577209E+02  0.13706777302E+02 -0.16432219126E+02  0.29665035181E+02  0.00000000000E+00 0.  1.
</event>
<event>
 5    1  0.1751027E-003  0.9118800E+02  0.7818608E-02  0.1130116E+00
         25   -1    0    0    0    0  0.00000000000E+00  0.00000000000E+00  0.99999998245E-14  0.12500000000E+03  0.12500000000E+03 0.  0.
        -13    1    3    3    0    0 -0.71278091004E+01  0.28896755265E+02 -0.14115188753E+02  0.32940519804E+02  0.10566000000E+00 0.  1.
         23    2    1    0    0    0 -0.68796536355E+01 -0.24182339901E+02  0.17170494304E+02  0.94554293047E+02  0.89518563783E+02 0.  0.
         13    1    3    3    0    0  0.24815546482E+00 -0.53079095166E+02  0.31285683057E+02  0.61613773242E+02  0.10566000000E+00 0. -1.
         22    1    1    0    0    0  0.68796536355E+01  0.24182339901E+02 -0.17170494304E+02  0.30445706953E+02  0.00000000000E+00 0. -1.
</event>
<event>
 5    1  0.1751027E-003  0.9118800E+02  0.7818608E-02  0.1130116E+00
         25   -1    0    0    0    0  0.00000000000E+00  0.00000000000E+00  0.99999998245E-14  0.12500000000E+03  0.12500000000E+03 0.  0.
        -13    1    3    3    0    0 -0.22782265256E+02 -0.23339247111E+02  0.19972346545E+02  0.38244710176E+02  0.10566000000E+00 0.  1.
         23    2    1    0    0    0  0.19724025760E+02  0.15076461286E+02  0.15543829659E+02  0.95709258842E+02  0.91117038531E+02 0.  0.
         13    1    3    3    0    0  0.42506291016E+02  0.38415708398E+02 -0.44285168859E+01  0.57464548666E+02  0.10566000000E+00 0. -1.
         22    1    1    0    0    0 -0.19724025760E+02 -0.15076461286E+02 -0.15543829659E+02  0.29290741158E+02  0.00000000000E+00 0. -1.
</event>
<event>
 5    1  0.1751027E-003  0.9118800E+02  0.7818608E-02  0.1130116E+00
         25   -1    0    0    0    0  0.00000000000E+00  0.00000000000E+00  0.99999998245E-14  0.12500000000E+03  0.12500000000E+03 0.  0.
        -13    1    3    3    0    0 -0.24877058065E+00  0.25790703816E+02 -0.19078143416E+02  0.32081287542E+02  0.10566000000E+00 0.  1.
         23    2    1    0    0    0  0.20633749370E+02  0.27334594539E+02  0.26142275647E+02  0.81914616774E+02  0.69668172027E+02 0.  0.
         13    1    3    3    0    0  0.20882519951E+02  0.15438907230E+01  0.45220419063E+02  0.49833329232E+02  0.10566000000E+00 0. -1.
         22    1    1    0    0    0 -0.20633749370E+02 -0.27334594539E+02 -0.26142275647E+02  0.43085383226E+02  0.00000000000E+00 0. -1.
</event>
<event>
 5    1  0.1751027E-003  0.9118800E+02  0.7818608E-02  0.1130116E+00
         25   -1    0    0    0    0  0.00000000000E+00  0.00000000000E+00  0.99999998245E-14  0.12500000000E+03  0.12500000000E+03 0.  0.
        -13    1    3    3    0    0 -0.21490320259E+02 -0.10785968251E+02 -0.44355112904E+02  0.50453524959E+02  0.10566000000E+00 0. -1.
         23    2    1    0    0    0  0.17606364492E+02 -0.10890176318E+02 -0.13177405151E+02  0.10045974700E+03  0.97416306384E+02 0.  0.
         13    1    3    3    0    0  0.39096684751E+02 -0.10420806791E+00  0.31177707753E+02  0.50006222040E+02  0.10566000000E+00 0.  1.
         22    1    1    0    0    0 -0.17606364492E+02  0.10890176318E+02  0.13177405151E+02  0.24540253002E+02  0.00000000000E+00 0.  1.
</event>
<event>
 5    1  0.1751027E-003  0.9118800E+02  0.7818608E-02  0.1130116E+00
         25   -1    0    0    0    0  0.00000000000E+00  0.00000000000E+00  0.99999998245E-14  0.12500000000E+03  0.12500000000E+03 0.  0.
        -13    1    3    3    0    0  0.32713776036E+02 -0.98845529153E+01 -0.11112244421E+02  0.35935896663E+02  0.10566000000E+00 0. -1.
         23    2    1    0    0    0 -0.17115313648E+02  0.20262008697E+02  0.81092572109E+01  0.97264769511E+02  0.93226564765E+02 0.  0.
         13    1    3    3    0    0 -0.49829089685E+02  0.30146561613E+02  0.19221501631E+02  0.61328872848E+02  0.10566000000E+00 0.  1.
         22    1    1    0    0    0  0.17115313648E+02 -0.20262008697E+02 -0.81092572109E+01  0.27735230489E+02  0.00000000000E+00 0.  1.
</event>
<event>
 5    1  0.1751027E-003  0.9118800E+02  0.7818608E-02  0.1130116E+00
         25   -1    0    0    0    0  0.00000000000E+00  0.00000000000E+00  0.99999998245E-14  0.12500000000E+03  0.12500000000E+03 0.  0.
        -13    1    3    3    0    0  0.30908724853E+02 -0.13300347973E+01 -0.38896054309E+02  0.49699421219E+02  0.10566000000E+00 0.  1.
         23    2    1    0    0    0  0.10794059164E+02 -0.23692682624E+02  0.12069804449E+00  0.98964073069E+02  0.95477841760E+02 0.  0.
         13    1    3    3    0    0 -0.20114665689E+02 -0.22362647827E+02  0.39016752354E+02  0.49264651850E+02  0.10566000000E+00 0. -1.
         22    1    1    0    0    0 -0.10794059164E+02  0.23692682624E+02 -0.12069804449E+00  0.26035926931E+02  0.00000000000E+00 0.  1.
</event>
<event>
 5    1  0.1751027E-003  0.9118800E+02  0.7818608E-02  0.1130116E+00
         25   -1    0    0    0    0  0.00000000000E+00  0.00000000000E+00  0.99999998245E-14  0.12500000000E+03  0.12500000000E+03 0.  0.
        -13    1    3    3    0    0  0.11680593941E+02 -0.25089593396E+02  0.50560928194E+02  0.57639765747E+02  0.10566000000E+00 0.  1.
         23    2    1    0    0    0  0.24686474506E+01  0.46458044558E+01  0.29047018570E+02  0.95480396224E+02  0.90802527806E+02 0.  0.
         13    1    3    3    0    0 -0.92119464900E+01  0.29735397852E+02 -0.21513909623E+02  0.37840630476E+02  0.10566000000E+00 0. -1.
         22    1    1    0    0    0 -0.24686474506E+01 -0.46458044558E+01 -0.29047018570E+02  0.29519603776E+02  0.00000000000E+00 0.  1.
</event>
<event>
 5    1  0.1751027E-003  0.9118800E+02  0.7818608E-02  0.1130116E+00
         25   -1    0    0    0    0  0.00000000000E+00  0.00000000000E+00  0.99999998245E-14  0.12500000000E+03  0.12500000000E+03 0.  0.
        -13    1    3    3    0    0 -0.91152109834E+01 -0.54236379866E+02  0.44189194762E+00  0.54998894578E+02  0.10566000000E+00 0. -1.
         23    2    1    0    0    0 -0.19927620087E+02 -0.14841117312E+02  0.11932494967E+02  0.97436378294E+02  0.93456377918E+02 0.  0.
         13    1    3    3    0    0 -0.10812409104E+02  0.39395262554E+02  0.11490603020E+02  0.42437483716E+02  0.10566000000E+00 0.  1.
         22    1    1    0    0    0  0.19927620087E+02  0.14841117312E+02 -0.11932494967E+02  0.27563621706E+02  0.00000000000E+00 0. -1.
</event>
<event>
 5    1  0.1751027E-003  0.9118800E+02  0.7818608E-02  0.1130116E+00
         25   -1    0    0    0    0  0.00000000000E+00  0.00000000000E+00  0.99999998245E-14  0.12500000000E+03  0.12500000000E+03 0.  0.
        -13    1    3    3    0    0  0.28682107676E+02 -0.50727677842E+02 -0.18610587681E+01  0.58304676517E+02  0.10566000000E+00 0. -1.
         23    2    1    0    0    0  0.13256074254E+02 -0.21569036094E+02 -0.16901741161E+02  0.94559637372E+02  0.89526026065E+02 0.  0.
         13    1    3    3    0    0 -0.15426033422E+02  0.29158641748E+02 -0.15040682393E+02  0.36254960855E+02  0.10566000000E+00 0.  1.
         22    1    1    0    0    0 -0.13256074254E+02  0.21569036094E+02  0.16901741161E+02  0.30440362628E+02  0.00000000000E+00 0. -1.
</event>
<event>
 5    1  0.1751027E-003  0.9118800E+02  0.7818608E-02  0.1130116E+00
         25   -1    0    0    0    0  0.00000000000E+00  0.00000000000E+00  0.99999998245E-14  0.12500000000E+03  0.12500000000E+03 0.  0.
        -13    1    3    3    0    0  0.15233353867E+02  0.20648289787E+01 -0.31962672050E+02  0.35467480279E+02  0.10566000000E+00 0. -1.
         23    2    1    0    0    0 -0.25630339574E+02 -0.16223919717E+01  0.12897843112E+02  0.96261509794E+02  0.91871526865E+02 0.  0.
         13    1    3    3    0    0 -0.40863693441E+02 -0.36872209504E+01  0.44860515162E+02  0.60794029515E+02  0.10566000000E+00 0.  1.
         22    1    1    0    0    0  0.25630339574E+02  0.16223919717E+01 -0.12897843112E+02  0.28738490206E+02  0.00000000000E+00 0.  1.
</event>
<event>
 5    1  0.1751027E-003  0.9118800E+02  0.7818608E-02  0.1130116E+00
         25   -1    0    0    0    0  0.00000000000E+00  0.00000000000E+00  0.99999998245E-14  0.12500000000E+03  0.12500000000E+03 0.  0.
        -13    1    3    3    0    0 -0.29976906166E+02 -0.11161559214E+02  0.10119264460E+02  0.33550051932E+02  0.10566000000E+00 0. -1.
         23    2    1    0    0    0  0.19470028173E+02  0.14452185578E+02 -0.16897954148E+02  0.95445160812E+02  0.90754009294E+02 0.  0.
         13    1    3    3    0    0  0.49446934340E+02  0.25613744792E+02 -0.27017218608E+02  0.61895108880E+02  0.10566000000E+00 0.  1.
         22    1    1    0    0    0 -0.19470028173E+02 -0.14452185578E+02  0.16897954148E+02  0.29554839188E+02  0.00000000000E+00 0.  1.
</event>
<event>
 5    1  0.1751027E-003  0.9118800E+02  0.7818608E-02  0.1130116E+00
         25   -1    0    0    0    0  0.00000000000E+00  0.00000000000E+00  0.99999998245E-14  0.12500000000E+03  0.12500000000E+03 0.  0.
        -13    1    3    3    0    0  0.14704937549E+02 -0.46230221631E+02  0.14258409743E+02  0.50564631837E+02  0.10566000000E+00 0.  1.
         23    2    1    0    0    0 -0.17953083800E+02 -0.26586481263E+02  0.16850264085E+02  0.88763476938E+02  0.81030051429E+02 0.  0.
         13    1    3    3    0    0 -0.32658021350E+02  0.19643740368E+02  0.25918543415E+01  0.38198845101E+02  0.10566000000E+00 0. -1.
         22    1    1    0    0    0  0.17953083800E+02  0.26586481263E+02 -0.16850264085E+02  0.36236523062E+02  0.00000000000E+00 0. -1.
</event>
<event>
 5    1  0.1751027E-003  0.9118800E+02  0.7818608E-02  0.1130116E+00
         25   -1    0    0    0    0  0.00000000000E+00  0.00000000000E+00  0.99999998245E-14  0.12500000000E+03  0.12500000000E+03 0.  0.
        -13    1    3    3    0    0  0.50279270851E+02 -0.32094666211E+02  0.14500549535E+01  0.59667298413E+02  0.10566000000E+00 0. -1.
         23    2    1    0    0    0  0.17848982604E+02 -0.16089336967E+02 -0.11858179907E+02  0.98203183496E+02  0.94476430256E+02 0.  0.
         13    1    3    3    0    0 -0.32430288246E+02  0.16005329245E+02 -0.13308234861E+02  0.38535885083E+02  0.10566000000E+00 0.  1.
         22    1    1    0    0    0 -0.17848982604E+02  0.16089336967E+02  0.11858179907E+02  0.26796816504E+02  0.00000000000E+00 0. -1.
</event>
<event>
 5    1  0.1751027E-003  0.9118800E+02  0.7818608E-02  0.1130116E+00
         25   -1    0    0    0    0  0.00000000000E+00  0.00000000000E+00  0.99999998245E-14  0.12500000000E+03  0.12500000000E+03 0.  0.
        -13    1    3    3    0    0 -0.14022447051E+01  0.42709374204E+02 -0.35689930755E+02  0.55676200090E+02  0.10566000000E+00 0. -1.
         23    2    1    0    0    0 -0.14478441177E+02  0.67020630484E+01 -0.24815934113E+02  0.95497906957E+02  0.90826630121E+02 0.  0.
         13    1    3    3    0    0 -0.13076196472E+02 -0.36007311156E+02  0.10873996641E+02  0.39821706867E+02  0.10566000000E+00 0.  1.
         22    1    1    0    0    0  0.14478441177E+02 -0.67020630484E+01  0.24815934113E+02  0.29502093043E+02  0.00000000000E+00 0. -1.
</event>
<event>
 5    1  0.1751027E-003  0.9118800E+02  0.7818608E-02  0.1130116E+00
         25   -1    0    0    0    0  0.00000000000E+00  0.00000000000E+00  0.99999998245E-14  0.12500000000E+03  0.12500000000E+03 0.  0.
        -13    1    3    3    0    0  0.38369995992E+02  0.28776334786E+02  0.32204022082E+02  0.57770617431E+02  0.10566000000E+00 0.  1.
         23    2    1    0    0    0  0.39090817886E+01  0.15072730971E+02  0.24996315679E+02  0.95550315165E+02  0.90898728215E+02 0.  0.
         13    1    3    3    0    0 -0.34460914203E+02 -0.13703603814E+02 -0.72077064026E+01  0.37779697734E+02  0.10566000000E+00 0. -1.
         22    1    1    0    0    0 -0.39090817886E+01 -0.15072730971E+02 -0.24996315679E+02  0.29449684835E+02  0.00000000000E+00 0.  1.
</event>
<event>
 5    1  0.1751027E-003  0.9118800E+02  0.7818608E-02  0.1130116E+00
         25   -1    0    0    0    0  0.00000000000E+00  0.00000000000E+00  0.99999998245E-14  0.12500000000E+03  0.12500000000E+03 0.  0.
        -13    1    3    3    0    0  0.19211029218E+02  0.25708655018E+02  0.38592818804E+02  0.50193778635E+02  0.10566000000E+00 0. -1.
         23    2    1    0    0    0  0.28126511642E+02  0.40037222238E+01 -0.13926788003E+01  0.96555844132E+02  0.92271127841E+02 0.  0.
         13    1    3    3    0    0  0.89154824241E+01 -0.21704932794E+02 -0.39985497604E+02  0.46362065497E+02  0.10566000000E+00 0.  1.
         22    1    1    0    0    0 -0.28126511642E+02 -0.40037222238E+01  0.13926788003E+01  0.28444155868E+02  0.00000000000E+00 0.  1.
</event>
<event>
 5    1  0.1751027E-003  0.9118800E+02  0.7818608E-02  0.1130116E+00
         25   -1    0    0    0    0  0.00000000000E+00  0.00000000000E+00  0.99999998245E-14  0.12500000000E+03  0.12500000000E+03 0.  0.
        -13    1    3    3    0    0  0.36938098023E+02  0.42702309964E+02  0.21044279628E+02  0.60255980873E+02  0.10566000000E+00 0. -1.
         23    2    1    0    0    0  0.16151865922E+02  0.16019271697E+02  0.20941296506E+02  0.94080140074E+02  0.88854009580E+02 0.  0.
         13    1    3    3    0    0 -0.20786232100E+02 -0.26683038267E+02 -0.10298312172E+00  0.33824159201E+02  0.10566000000E+00 0.  1.
         22    1    1    0    0    0 -0.16151865922E+02 -0.16019271697E+02 -0.20941296506E+02  0.30919859926E+02  0.00000000000E+00 0. -1.
</event>
<event>
 5    1  0.1751027E-003  0.9118800E+02  0.7818608E-02  0.1130116E+00
         25   -1    0    0    0    0  0.00000000000E+00  0.00000000000E+00  0.99999998245E-14  0.12500000000E+03  0.12500000000E+03 0.  0.
        -13    1    3    3    0    0  0.34993035979E+02  0.10401224270E+02  0.28782202779E+02  0.46487895136E+02  0.10566000000E+00 0.  1.
         23    2    1    0    0    0  0.23696242076E+02 -0.12767368815E+02 -0.12630367454E+02  0.95267126324E+02  0.90508461378E+02 0.  0.
         13    1    3    3    0    0 -0.11296793902E+02 -0.23168593085E+02 -0.41412570233E+02  0.48779231188E+02  0.10566000000E+00 0. -1.
         22    1    1    0    0    0 -0.23696242076E+02  0.12767368815E+02  0.12630367454E+02  0.29732873676E+02  0.00000000000E+00 0.  1.
</event>
<event>
 5    1  0.1751027E-003  0.9118800E+02  0.7818608E-02  0.1130116E+00
         25   -1    0    0    0    0  0.00000000000E+00  0.00000000000E+00  0.99999998245E-14  0.12500000000E+03  0.12500000000E+03 0.  0.
        -13    1    3    3    0    0 -0.98154341195E+01  0.24453464157E+02  0.23823433742E+02  0.35522975882E+02  0.10566000000E+00 0.  1.
         23    2    1    0    0    0  0.20986743374E+02  0.19132245561E+01 -0.21579125854E+02  0.94837730552E+02  0.89913473062E+02 0.  0.
         13    1    3    3    0    0  0.30802177493E+02 -0.22540239601E+02 -0.45402559596E+02  0.59314754670E+02  0.10566000000E+00 0. -1.
         22    1    1    0    0    0 -0.20986743374E+02 -0.19132245561E+01  0.21579125854E+02  0.30162269448E+02  0.00000000000E+00 0. -1.
</event>
<event>
 5    1  0.1751027E-003  0.9118800E+02  0.7818608E-02  0.1130116E+00
         25   -1    0    0    0    0  0.00000000000E+00  0.00000000000E+00  0.99999998245E-14  0.12500000000E+03  0.12500000000E+03 0.  0.
        -13    1    3    3    0    0  0.34629189673E+02  0.13404200955E+01  0.17855092297E+02  0.38984522421E+02  0.10566000000E+00 0. -1.
         23    2    1    0    0    0 -0.20357132937E+02 -0.12772811665E+02  0.16645116783E+02  0.95766158447E+02  0.91195063527E+02 0.  0.
         13    1    3    3    0    0 -0.54986322610E+02 -0.14113231760E+02 -0.12099755149E+01  0.56781636025E+02  0.10566000000E+00 0.  1.
         22    1    1    0    0    0  0.20357132937E+02  0.12772811665E+02 -0.16645116783E+02  0.29233841553E+02  0.00000000000E+00 0.  1.
</event>
<event>
 5    1  0.1751027E-003  0.9118800E+02  0.7818608E-02  0.1130116E+00
         25   -1    0    0    0    0  0.00000000000E+00  0.00000000000E+00  0.99999998245E-14  0.12500000000E+03  0.12500000000E+03 0.  0.
        -13    1    3    3    0    0 -0.81673559455E+00 -0.36032405574E+02 -0.44710111015E+02  0.57428272649E+02  0.10566000000E+00 0.  1.
         23    2    1    0    0    0 -0.16525880812E+01 -0.28433342883E+02 -0.73186623877E+01  0.95593387580E+02  0.90957940252E+02 0.  0.
         13    1    3    3    0    0 -0.83585248670E+00  0.75990626903E+01  0.37391448627E+02  0.38165114930E+02  0.10566000000E+00 0. -1.
         22    1    1    0    0    0  0.16525880812E+01  0.28433342883E+02  0.73186623877E+01  0.29406612420E+02  0.00000000000E+00 0.  1.
</event>
<event>
 5    1  0.1751027E-003  0.9118800E+02  0.7818608E-02  0.1130116E+00
         25   -1    0    0    0    0  0.00000000000E+00  0.00000000000E+00  0.99999998245E-14  0.12500000000E+03  0.12500000000E+03 0.  0.
        -13    1    3    3    0    0  0.28143185274E+02  0.31715938015E+02 -0.38313496177E+02  0.57147832460E+02  0.10566000000E+00 0.  1.
         23    2    1    0    0    0  0.26004511013E+02  0.10018587344E+02 -0.54213212977E+01  0.96609906481E+02  0.92344337240E+02 0.  0.
         13    1    3    3    0    0 -0.21386742608E+01 -0.21697350671E+02  0.32892174880E+02  0.39462074021E+02  0.10566000000E+00 0. -1.
         22    1    1    0    0    0 -0.26004511013E+02 -0.10018587344E+02  0.54213212977E+01  0.28390093519E+02  0.00000000000E+00 0.  1.
</event>
<event>
 5    1  0.1751027E-003  0.9118800E+02  0.7818608E-02  0.1130116E+00
         25   -1    0    0    0    0  0.00000000000E+00  0.00000000000E+00  0.99999998245E-14  0.12500000000E+03  0.12500000000E+03 0.  0.
        -13    1    3    3    0    0  0.58290603441E+01 -0.33257020338E+02  0.21458268185E+02  0.40005946855E+02  0.10566000000E+00 0.  1.
         23    2    1    0    0    0 -0.16734174725E+02  0.14553948382E+02  0.23203440131E+02  0.92902497743E+02  0.87181560182E+02 0.  0.
         13    1    3    3    0    0 -0.22563235069E+02  0.47810968720E+02  0.17451719462E+01  0.52896550888E+02  0.10566000000E+00 0. -1.
         22    1    1    0    0    0  0.16734174725E+02 -0.14553948382E+02 -0.23203440131E+02  0.32097502257E+02  0.00000000000E+00 0. -1.
</event>
<event>
 5    1  0.1751027E-003  0.9118800E+02  0.7818608E-02  0.1130116E+00
         25   -1    0    0    0    0  0.00000000000E+00  0.00000000000E+00  0.99999998245E-14  0.12500000000E+03  0.12500000000E+03 0.  0.
        -13    1    3    3    0    0  0.25730716159E+02 -0.13712402818E+01 -0.26434854925E+02  0.36915616924E+02  0.10566000000E+00 0.  1.
         23    2    1    0    0    0 -0.11359741723E+02 -0.27605433083E+02  0.82000421082E+01  0.94042862563E+02  0.88801552018E+02 0.  0.
         13    1    3    3    0    0 -0.37090457882E+02 -0.26234192801E+02  0.34634897033E+02  0.57127245639E+02  0.10566000000E+00 0. -1.
         22    1    1    0    0    0  0.11359741723E+02  0.27605433083E+02 -0.82000421082E+01  0.30957137437E+02  0.00000000000E+00 0. -1.
</event>
<event>
 5    1  0.1751027E-003  0.9118800E+02  0.7818608E-02  0.1130116E+00
         25   -1    0    0    0    0  0.00000000000E+00  0.00000000000E+00  0.99999998245E-14  0.12500000000E+03  0.12500000000E+03 0.  0.
        -13    1    3    3    0    0  0.16338107618E+02  0.28120737909E+02 -0.14621523608E+02  0.35658235763E+02  0.10566000000E+00 0.  1.
         23    2    1    0    0    0 -0.17986333218E+02 -0.13935277429E+01  0.23870218165E+02  0.95079481665E+02  0.90248935817E+02 0.  0.
         13    1    3    3    0    0 -0.34324440836E+02 -0.29514265652E+02  0.38491741773E+02  0.59421245901E+02  0.10566000000E+00 0. -1.
         22    1    1    0    0    0  0.17986333218E+02  0.13935277429E+01 -0.23870218165E+02  0.29920518335E+02  0.00000000000E+00 0.  1.
</event>
<event>
 5    1  0.1751027E-003  0.9118800E+02  0.7818608E-02  0.1130116E+00
         25   -1    0    0    0    0  0.00000000000E+00  0.00000000000E+00  0.99999998245E-14  0.12500000000E+03  0.12500000000E+03 0.  0.
        -13    1    3    3    0    0 -0.10970486470E+02 -0.22022697383E+02 -0.26441730313E+02  0.36118236936E+02  0.10566000000E+00 0.  1.
         23    2    1    0    0    0  0.15912627874E+02  0.22224991874E+01  0.22721256996E+02  0.97171835346E+02  0.93101873432E+02 0.  0.
         13    1    3    3    0    0  0.26883114345E+02  0.24245196570E+02  0.49162987309E+02  0.61053598410E+02  0.10566000000E+00 0. -1.
         22    1    1    0    0    0 -0.15912627874E+02 -0.22224991874E+01 -0.22721256996E+02  0.27828164654E+02  0.00000000000E+00 0. -1.
</event>
<event>
 5    1  0.1751027E-003  0.9118800E+02  0.7818608E-02  0.1130116E+00
         25   -1    0    0    0    0  0.00000000000E+00  0.00000000000E+00  0.99999998245E-14  0.12500000000E+03  0.12500000000E+03 0.  0.
        -13    1    3    3    0    0  0.54657436436E+02  0.73909853840E+01  0.23809979965E+02  0.60074856077E+02  0.10566000000E+00 0.  1.
         23    2    1    0    0    0  0.25284353447E+02  0.12834696558E+02  0.29906174780E+01  0.96487340393E+02  0.92178278885E+02 0.  0.
         13    1    3    3    0    0 -0.29373082989E+02  0.54437111737E+01 -0.20819362487E+02  0.36412484315E+02  0.10566000000E+00 0. -1.
         22    1    1    0    0    0 -0.25284353447E+02 -0.12834696558E+02 -0.29906174780E+01  0.28512659607E+02  0.00000000000E+00 0.  1.
</event>
<event>
 5    1  0.1751027E-003  0.9118800E+02  0.7818608E-02  0.1130116E+00
         25   -1    0    0    0    0  0.00000000000E+00  0.00000000000E+00  0.99999998245E-14  0.12500000000E+03  0.12500000000E+03 0.  0.
        -13    1    3    3    0    0  0.23205267420E+02  0.24021056243E+02 -0.18439244441E+02  0.38151179257E+02  0.10566000000E+00 0. -1.
         23    2    1    0    0    0 -0.28757424294E+02  0.46062217526E+01 -0.30554971024E+01  0.95716168397E+02  0.91126516992E+02 0.  0.
         13    1    3    3    0    0 -0.51962691714E+02 -0.19414834491E+02  0.15383747339E+02  0.57564989140E+02  0.10566000000E+00 0.  1.
         22    1    1    0    0    0  0.28757424294E+02 -0.46062217526E+01  0.30554971024E+01  0.29283831603E+02  0.00000000000E+00 0.  1.
</event>
<event>
 5    1  0.1751027E-003  0.9118800E+02  0.7818608E-02  0.1130116E+00
         25   -1    0    0    0    0  0.00000000000E+00  0.00000000000E+00  0.99999998245E-14  0.12500000000E+03  0.12500000000E+03 0.  0.
        -13    1    3    3    0    0  0.47694827800E+02  0.22518023084E+02 -0.33267446004E+02  0.62358576717E+02  0.10566000000E+00 0. -1.
         23    2    1    0    0    0  0.24162998050E+02  0.81481216182E+01 -0.16414401407E+02  0.94673857248E+02  0.89685362864E+02 0.  0.
         13    1    3    3    0    0 -0.23531829750E+02 -0.14369901466E+02  0.16853044597E+02  0.32315280531E+02  0.10566000000E+00 0.  1.
         22    1    1    0    0    0 -0.24162998050E+02 -0.81481216182E+01  0.16414401407E+02  0.30326142752E+02  0.00000000000E+00 0. -1.
</event>
<event>
 5    1  0.1751027E-003  0.9118800E+02  0.7818608E-02  0.1130116E+00
         25   -1    0    0    0    0  0.00000000000E+00  0.00000000000E+00  0.99999998245E-14  0.12500000000E+03  0.12500000000E+03 0.  0.
        -13    1    3    3    0    0 -0.14818282091E+02  0.32321617771E+02  0.43826224184E+02  0.56435959722E+02  0.10566000000E+00 0.  1.
         23    2    1    0    0    0 -0.26653082760E+01  0.28265982843E+02  0.65357450038E+01  0.95866074466E+02  0.91331914556E+02 0.  0.
         13    1    3    3    0    0  0.12152973815E+02 -0.40556349283E+01 -0.37290479180E+02  0.39430114744E+02  0.10566000000E+00 0. -1.
         22    1    1    0    0    0  0.26653082760E+01 -0.28265982843E+02 -0.65357450038E+01  0.29133925534E+02  0.00000000000E+00 0.  1.
</event>
<event>
 5    1  0.1751027E-003  0.9118800E+02  0.7818608E-02  0.1130116E+00
         25   -1    0    0    0    0  0.00000000000E+00  0.00000000000E+00  0.99999998245E-14  0.12500000000E+03  0.12500000000E+03 0.  0.
        -13    1    3    3    0    0 -0.78136224346E+01  0.26724107424E+02 -0.19661443747E+02  0.34085394928E+02  0.10566000000E+00 0.  1.
         23    2    1    0    0    0 -0.42766383793E+00 -0.10711200991E+02  0.27929311803E+02  0.95084131622E+02  0.90255376048E+02 0.  0.
         13    1    3    3    0    0  0.73859585967E+01 -0.37435308415E+02  0.47590755549E+02  0.60998736694E+02  0.10566000000E+00 0. -1.
         22    1    1    0    0    0  0.42766383793E+00  0.10711200991E+02 -0.27929311803E+02  0.29915868378E+02  0.00000000000E+00 0. -1.
</event>
<event>
 5    1  0.1751027E-003  0.9118800E+02  0.7818608E-02  0.1130116E+00
         25   -1    0    0    0    0  0.00000000000E+00  0.00000000000E+00  0.99999998245E-14  0.12500000000E+03  0.12500000000E+03 0.  0.
        -13    1    3    3    0    0  0.50997178159E+02 -0.20130906225E+02 -0.22614370215E+02  0.59307558286E+02  0.10566000000E+00 0. -1.
         23    2    1    0    0    0  0.30197458424E+02 -0.63080908252E+01  0.16213561810E+01  0.94108135359E+02  0.88893384679E+02 0.  0.
         13    1    3    3    0    0 -0.20799719734E+02  0.13822815400E+02  0.24235726396E+02  0.34800577073E+02  0.10566000000E+00 0.  1.
         22    1    1    0    0    0 -0.30197458424E+02  0.63080908252E+01 -0.16213561810E+01  0.30891864641E+02  0.00000000000E+00 0. -1.
</event>
<event>
 5    1  0.1751027E-003  0.9118800E+02  0.7818608E-02  0.1130116E+00
         25   -1    0    0    0    0  0.00000000000E+00  0.00000000000E+00  0.99999998245E-14  0.12500000000E+03  0.12500000000E+03 0.  0.
        -13    1    3    3    0    0 -0.15736081105E+02  0.29710337724E+02  0.26508195891E+02  0.42813829887E+02  0.10566000000E+00 0.  1.
         23    2    1    0    0    0  0.10161737618E+02  0.17092223743E+02 -0.19533759713E+02  0.97125768307E+02  0.93040002563E+02 0.  0.
         13    1    3    3    0    0  0.25897818723E+02 -0.12618113981E+02 -0.46041955604E+02  0.54311938420E+02  0.10566000000E+00 0. -1.
         22    1    1    0    0    0 -0.10161737618E+02 -0.17092223743E+02  0.19533759713E+02  0.27874231693E+02  0.00000000000E+00 0. -1.
</event>
<event>
 5    1  0.1751027E-003  0.9118800E+02  0.7818608E-02  0.1130116E+00
         25   -1    0    0    0    0  0.00000000000E+00  0.00000000000E+00  0.99999998245E-14  0.12500000000E+03  0.12500000000E+03 0.  0.
        -13    1    3    3    0    0 -0.51491063666E+02 -0.91907726737E+00 -0.20216859990E+02  0.55325463688E+02  0.10566000000E+00 0. -1.
         23    2    1    0    0    0 -0.20370906492E+02 -0.61420054141E+01  0.12124796441E+02  0.10051104840E+03  0.97482111691E+02 0.  0.
         13    1    3    3    0    0  0.31120157174E+02 -0.52229281467E+01  0.32341656430E+02  0.45185584711E+02  0.10566000000E+00 0.  1.
         22    1    1    0    0    0  0.20370906492E+02  0.61420054141E+01 -0.12124796441E+02  0.24488951601E+02  0.00000000000E+00 0. -1.
</event>
<event>
 5    1  0.1751027E-003  0.9118800E+02  0.7818608E-02  0.1130116E+00
         25   -1    0    0    0    0  0.00000000000E+00  0.00000000000E+00  0.99999998245E-14  0.12500000000E+03  0.12500000000E+03 0.  0.
        -13    1    3    3    0    0  0.40212127738E+02 -0.16209243040E+01 -0.14419439420E+01  0.40270745948E+02  0.10566000000E+00 0.  1.
         23    2    1    0    0    0 -0.36655213294E+01  0.27574229792E+02  0.12068533452E+02  0.94677999820E+02  0.89691136435E+02 0.  0.
         13    1    3    3    0    0 -0.43877649068E+02  0.29195154096E+02  0.13510477394E+02  0.54407253872E+02  0.10566000000E+00 0. -1.
         22    1    1    0    0    0  0.36655213294E+01 -0.27574229792E+02 -0.12068533452E+02  0.30322000180E+02  0.00000000000E+00 0. -1.
</event>
<event>
 5    1  0.1751027E-003  0.9118800E+02  0.7818608E-02  0.1130116E+00
         25   -1    0    0    0    0  0.00000000000E+00  0.00000000000E+00  0.99999998245E-14  0.12500000000E+03  0.12500000000E+03 0.  0.
        -13    1    3    3    0    0 -0.20832415431E+02  0.33338428538E+02 -0.31162092409E+01  0.39435545820E+02  0.10566000000E+00 0.  1.
         23    2    1    0    0    0 -0.54913138650E+01 -0.11998016831E+02  0.26272579599E+02  0.95600078663E+02  0.90967135085E+02 0.  0.
         13    1    3    3    0    0  0.15341101566E+02 -0.45336445368E+02  0.29388788840E+02  0.56164532843E+02  0.10566000000E+00 0. -1.
         22    1    1    0    0    0  0.54913138650E+01  0.11998016831E+02 -0.26272579599E+02  0.29399921337E+02  0.00000000000E+00 0. -1.
</event>
<event>
 5    1  0.1751027E-003  0.9118800E+02  0.7818608E-02  0.1130116E+00
         25   -1    0    0    0    0  0.00000000000E+00  0.00000000000E+00  0.99999998245E-14  0.12500000000E+03  0.12500000000E+03 0.  0.
        -13    1    3    3    0    0  0.47909442848E+02 -0.27436179831E+02 -0.10570667433E+02  0.56212177077E+02  0.10566000000E+00 0.  1.
         23    2    1    0    0    0  0.36499146428E+02 -0.83025959441E+00  0.33560753423E+01  0.88337481501E+02  0.80370208257E+02 0.  0.
         13    1    3    3    0    0 -0.11410296419E+02  0.26605920236E+02  0.13926742775E+02  0.32125304424E+02  0.10566000000E+00 0. -1.
         22    1    1    0    0    0 -0.36499146428E+02  0.83025959441E+00 -0.33560753423E+01  0.36662518499E+02  0.00000000000E+00 0.  1.
</event>
<event>
 5    1  0.1751027E-003  0.9118800E+02  0.7818608E-02  0.1130116E+00
         25   -1    0    0    0    0  0.00000000000E+00  0.00000000000E+00  0.99999998245E-14  0.12500000000E+03  0.12500000000E+03 0.  0.
        -13    1    3    3    0    0 -0.19877310204E+02 -0.18654402076E+02  0.23152204590E+02  0.35764925824E+02  0.10566000000E+00 0. -1.
         23    2    1    0    0    0  0.29317999358E+02 -0.18631928416E+02 -0.29264945407E+00  0.90261268207E+02  0.83308565297E+02 0.  0.
         13    1    3    3    0    0  0.49195309562E+02  0.22473659192E-01 -0.23444854044E+02  0.54496342384E+02  0.10566000000E+00 0.  1.
         22    1    1    0    0    0 -0.29317999358E+02  0.18631928416E+02  0.29264945407E+00  0.34738731793E+02  0.00000000000E+00 0.  1.
</event>
<event>
 5    1  0.1751027E-003  0.9118800E+02  0.7818608E-02  0.1130116E+00
         25   -1    0    0    0    0  0.00000000000E+00  0.00000000000E+00  0.99999998245E-14  0.12500000000E+03  0.12500000000E+03 0.  0.
        -13    1    3    3    0    0 -0.11225210936E+02 -0.21989235103E+02  0.25684217420E+02  0.35626142220E+02  0.10566000000E+00 0. -1.
         23    2    1    0    0    0 -0.15572128119E+01  0.22735850331E+02 -0.15702887164E+02  0.97324659582E+02  0.93306831987E+02 0.  0.
         13    1    3    3    0    0  0.96679981240E+01  0.44725085434E+02 -0.41387104584E+02  0.61698517362E+02  0.10566000000E+00 0.  1.
         22    1    1    0    0    0  0.15572128119E+01 -0.22735850331E+02  0.15702887164E+02  0.27675340418E+02  0.00000000000E+00 0.  1.
</event>
<event>
 5    1  0.1751027E-003  0.9118800E+02  0.7818608E-02  0.1130116E+00
         25   -1    0    0    0    0  0.00000000000E+00  0.00000000000E+00  0.99999998245E-14  0.12500000000E+03  0.12500000000E+03 0.  0.
        -13    1    3    3    0    0 -0.16455198045E+02 -0.15672044336E+01 -0.35061908740E+02  0.38763104635E+02  0.10566000000E+00 0. -1.
         23    2    1    0    0    0  0.26414926370E+02  0.17683710916E+02 -0.14646750295E+02  0.90000153413E+02  0.82915851038E+02 0.  0.
         13    1    3    3    0    0  0.42870124415E+02  0.19250915349E+02  0.20415158445E+02  0.51237048778E+02  0.10566000000E+00 0.  1.
         22    1    1    0    0    0 -0.26414926370E+02 -0.17683710916E+02  0.14646750295E+02  0.34999846587E+02  0.00000000000E+00 0.  1.
</event>
<event>
 5    1  0.1751027E-003  0.9118800E+02  0.7818608E-02  0.1130116E+00
         25   -1    0    0    0    0  0.00000000000E+00  0.00000000000E+00  0.99999998245E-14  0.12500000000E+03  0.12500000000E+03 0.  0.
        -13    1    3    3    0    0 -0.26721361786E+02 -0.23715042020E+02 -0.17500599822E+02  0.39783370293E+02  0.10566000000E+00 0.  1.
         23    2    1    0    0    0 -0.17479048980E+02  0.26105041001E+02  0.56709646660E+00  0.93578480029E+02  0.88145448023E+02 0.  0.
         13    1    3    3    0    0  0.92423128063E+01  0.49820083021E+02  0.18067696289E+02  0.53795109735E+02  0.10566000000E+00 0. -1.
         22    1    1    0    0    0  0.17479048980E+02 -0.26105041001E+02 -0.56709646660E+00  0.31421519971E+02  0.00000000000E+00 0. -1.
</event>
<event>
 5    1  0.1751027E-003  0.9118800E+02  0.7818608E-02  0.1130116E+00
         25   -1    0    0    0    0  0.00000000000E+00  0.00000000000E+00  0.99999998245E-14  0.12500000000E+03  0.12500000000E+03 0.  0.
        -13    1    3    3    0    0 -0.24191201846E+02 -0.56461883515E+01  0.27156069773E+02  0.36804306531E+02  0.10566000000E+00 0.  1.
         23    2    1    0    0    0  0.58853348674E+01 -0.23339508248E+02 -0.18765194251E+02  0.94479476953E+02  0.89414032670E+02 0.  0.
         13    1    3    3    0    0  0.30076536713E+02 -0.17693319896E+02 -0.45921264025E+02  0.57675170423E+02  0.10566000000E+00 0. -1.
         22    1    1    0    0    0 -0.58853348674E+01  0.23339508248E+02  0.18765194251E+02  0.30520523047E+02  0.00000000000E+00 0. -1.
</event>
<event>
 5    1  0.1751027E-003  0.9118800E+02  0.7818608E-02  0.1130116E+00
         25   -1    0    0    0    0  0.00000000000E+00  0.00000000000E+00  0.99999998245E-14  0.12500000000E+03  0.12500000000E+03 0.  0.
        -13    1    3    3    0    0 -0.34864450820E+02 -0.15363104692E+02 -0.15739983574E+02  0.41222726302E+02  0.10566000000E+00 0. -1.
         23    2    1    0    0    0 -0.70562617918E+01 -0.22353837810E+02  0.24797831169E+02  0.90876440309E+02  0.84226540219E+02 0.  0.
         13    1    3    3    0    0  0.27808189029E+02 -0.69907331178E+01  0.40537814743E+02  0.49653714007E+02  0.10566000000E+00 0.  1.
         22    1    1    0    0    0  0.70562617918E+01  0.22353837810E+02 -0.24797831169E+02  0.34123559691E+02  0.00000000000E+00 0.  1.
</event>
<event>
 5    1  0.1751027E-003  0.9118800E+02  0.7818608E-02  0.1130116E+00
         25   -1    0    0    0    0  0.00000000000E+00  0.00000000000E+00  0.99999998245E-14  0.12500000000E+03  0.12500000000E+03 0.  0.
        -13    1    3    3    0    0  0.25466559323E+02  0.24598075179E+02  0.22827931545E+02  0.42127622399E+02  0.10566000000E+00 0.  1.
         23    2    1    0    0    0  0.15549616220E+02 -0.84086419658E+01 -0.20784914377E+02  0.97714317125E+02  0.93827390890E+02 0.  0.
         13    1    3    3    0    0 -0.99169431032E+01 -0.33006717145E+02 -0.43612845922E+02  0.55586694727E+02  0.10566000000E+00 0. -1.
         22    1    1    0    0    0 -0.15549616220E+02  0.84086419658E+01  0.20784914377E+02  0.27285682875E+02  0.00000000000E+00 0. -1.
</event>
<event>
 5    1  0.1751027E-003  0.9118800E+02  0.7818608E-02  0.1130116E+00
         25   -1    0    0    0    0  0.00000000000E+00  0.00000000000E+00  0.99999998245E-14  0.12500000000E+03  0.12500000000E+03 0.  0.
        -13    1    3    3    0    0 -0.28839989563E+02 -0.11653885545E+02  0.39136833907E+02  0.49992609239E+02  0.10566000000E+00 0. -1.
         23    2    1    0    0    0 -0.48767610211E+01 -0.28493676237E+02  0.38722727735E+01  0.95833805871E+02  0.91287739964E+02 0.  0.
         13    1    3    3    0    0  0.23963228541E+02 -0.16839790692E+02 -0.35264561133E+02  0.45841196632E+02  0.10566000000E+00 0.  1.
         22    1    1    0    0    0  0.48767610211E+01  0.28493676237E+02 -0.38722727735E+01  0.29166194129E+02  0.00000000000E+00 0.  1.
</event>
<event>
 5    1  0.1751027E-003  0.9118800E+02  0.7818608E-02  0.1130116E+00
         25   -1    0    0    0    0  0.00000000000E+00  0.00000000000E+00  0.99999998245E-14  0.12500000000E+03  0.12500000000E+03 0.  0.
        -13    1    3    3    0    0  0.38235271389E+02 -0.22821564794E+02  0.11477906069E+00  0.44528464336E+02  0.10566000000E+00 0. -1.
         23    2    1    0    0    0  0.92725027088E+01  0.10325770176E+02  0.25952763818E+02  0.95569628171E+02  0.90925282747E+02 0.  0.
         13    1    3    3    0    0 -0.28962768680E+02  0.33147334970E+02  0.25837984758E+02  0.51041163835E+02  0.10566000000E+00 0.  1.
         22    1    1    0    0    0 -0.92725027088E+01 -0.10325770176E+02 -0.25952763818E+02  0.29430371829E+02  0.00000000000E+00 0. -1.
</event>
<event>
 5    1  0.1751027E-003  0.9118800E+02  0.7818608E-02  0.1130116E+00
         25   -1    0    0    0    0  0.00000000000E+00  0.00000000000E+00  0.99999998245E-14  0.12500000000E+03  0.12500000000E+03 0.  0.
        -13    1    3    3    0    0 -0.31963865917E+02 -0.22441573158E+02 -0.35775480174E+02  0.52964224491E+02  0.10566000000E+00 0. -1.
         23    2    1    0    0    0 -0.25259367161E+02  0.11343608839E+02 -0.11972205153E+02  0.94833018263E+02  0.89906921679E+02 0.  0.
         13    1    3    3    0    0  0.67044987557E+01  0.33785181997E+02  0.23803275022E+02  0.41868793772E+02  0.10566000000E+00 0.  1.
         22    1    1    0    0    0  0.25259367161E+02 -0.11343608839E+02  0.11972205153E+02  0.30166981737E+02  0.00000000000E+00 0.  1.
</event>
<event>
 5    1  0.1751027E-003  0.9118800E+02  0.7818608E-02  0.1130116E+00
         25   -1    0    0    0    0  0.00000000000E+00  0.00000000000E+00  0.99999998245E-14  0.12500000000E+03  0.12500000000E+03 0.  0.
        -13    1    3    3    0    0  0.22056754986E+02  0.17464144541E+01 -0.52791491687E+02  0.57240747397E+02  0.10566000000E+00 0.  1.
         23    2    1    0    0    0  0.39583921964E+01 -0.16025239885E+02 -0.26545969861E+02  0.93740350321E+02  0.88374699888E+02 0.  0.
         13    1    3    3    0    0 -0.18098362790E+02 -0.17771654340E+02  0.26245521826E+02  0.36499602924E+02  0.10566000000E+00 0. -1.
         22    1    1    0    0    0 -0.39583921964E+01  0.16025239885E+02  0.26545969861E+02  0.31259649679E+02  0.00000000000E+00 0.  1.
</event>
<event>
 5    1  0.1751027E-003  0.9118800E+02  0.7818608E-02  0.1130116E+00
         25   -1    0    0    0    0  0.00000000000E+00  0.00000000000E+00  0.99999998245E-14  0.12500000000E+03  0.12500000000E+03 0.  0.
        -13    1    3    3    0    0  0.20793795832E+02 -0.36750487712E+02  0.29379383963E+01  0.42327567119E+02  0.10566000000E+00 0. -1.
         23    2    1    0    0    0  0.20682697728E+02  0.15200007596E+02  0.14458697650E+02  0.95540397933E+02  0.90885089444E+02 0.  0.
         13    1    3    3    0    0 -0.11109810448E+00  0.51950495307E+02  0.11520759253E+02  0.53212830814E+02  0.10566000000E+00 0.  1.
         22    1    1    0    0    0 -0.20682697728E+02 -0.15200007596E+02 -0.14458697650E+02  0.29459602067E+02  0.00000000000E+00 0.  1.
</event>
<event>
 5    1  0.1751027E-003  0.9118800E+02  0.7818608E-02  0.1130116E+00
         25   -1    0    0    0    0  0.00000000000E+00  0.00000000000E+00  0.99999998245E-14  0.12500000000E+03  0.12500000000E+03 0.  0.
        -13    1    3    3    0    0 -0.13642976412E+02 -0.23052159538E+02  0.36761878797E+02  0.45486039193E+02  0.10566000000E+00 0. -1.
         23    2    1    0    0    0 -0.22245483001E+02 -0.74226253618E+01 -0.12885685010E+02  0.98241865547E+02  0.94527595900E+02 0.  0.
         13    1    3    3    0    0 -0.86025065892E+01  0.15629534176E+02 -0.49647563808E+02  0.52755826354E+02  0.10566000000E+00 0.  1.
         22    1    1    0    0    0  0.22245483001E+02  0.74226253618E+01  0.12885685010E+02  0.26758134453E+02  0.00000000000E+00 0.  1.
</event>
<event>
 5    1  0.1751027E-003  0.9118800E+02  0.7818608E-02  0.1130116E+00
         25   -1    0    0    0    0  0.00000000000E+00  0.00000000000E+00  0.99999998245E-14  0.12500000000E+03  0.12500000000E+03 0.  0.
        -13    1    3    3    0    0  0.42768909412E+01  0.24575239793E+02  0.40540585879E+02  0.47600257084E+02  0.10566000000E+00 0.  1.
         23    2    1    0    0    0 -0.14579014213E+02  0.23015060330E+02 -0.53475535109E+01  0.97236048805E+02  0.93188047524E+02 0.  0.
         13    1    3    3    0    0 -0.18855905154E+02 -0.15601794631E+01 -0.45888139390E+02  0.49635791721E+02  0.10566000000E+00 0. -1.
         22    1    1    0    0    0  0.14579014213E+02 -0.23015060330E+02  0.53475535109E+01  0.27763951195E+02  0.00000000000E+00 0. -1.
</event>
<event>
 5    1  0.1751027E-003  0.9118800E+02  0.7818608E-02  0.1130116E+00
         25   -1    0    0    0    0  0.00000000000E+00  0.00000000000E+00  0.99999998245E-14  0.12500000000E+03  0.12500000000E+03 0.  0.
        -13    1    3    3    0    0  0.35050821677E+02  0.51842878940E+01 -0.63257232892E+00  0.35437949334E+02  0.10566000000E+00 0.  1.
         23    2    1    0    0    0 -0.24183321570E+02  0.14465382290E+02 -0.76407118096E+01  0.95803068587E+02  0.91245641796E+02 0.  0.
         13    1    3    3    0    0 -0.59234143247E+02  0.92810943958E+01 -0.70081394807E+01  0.60365119253E+02  0.10566000000E+00 0. -1.
         22    1    1    0    0    0  0.24183321570E+02 -0.14465382290E+02  0.76407118096E+01  0.29196931413E+02  0.00000000000E+00 0. -1.
</event>
<event>
 5    1  0.1751027E-003  0.9118800E+02  0.7818608E-02  0.1130116E+00
         25   -1    0    0    0    0  0.00000000000E+00  0.00000000000E+00  0.99999998245E-14  0.12500000000E+03  0.12500000000E+03 0.  0.
        -13    1    3    3    0    0 -0.39470862100E+02 -0.27879882297E+02  0.44207382621E+01  0.48526187596E+02  0.10566000000E+00 0. -1.
         23    2    1    0    0    0  0.66863339882E+01 -0.25929277496E+02  0.12538200047E+02  0.95432434086E+02  0.90736478450E+02 0.  0.
         13    1    3    3    0    0  0.46157196088E+02  0.19506048008E+01  0.81174617853E+01  0.46906246489E+02  0.10566000000E+00 0.  1.
         22    1    1    0    0    0 -0.66863339882E+01  0.25929277496E+02 -0.12538200047E+02  0.29567565914E+02  0.00000000000E+00 0.  1.
</event>
<event>
 5    1  0.1751027E-003  0.9118800E+02  0.7818608E-02  0.1130116E+00
         25   -1    0    0    0    0  0.00000000000E+00  0.00000000000E+00  0.99999998245E-14  0.12500000000E+03  0.12500000000E+03 0.  0.
        -13    1    3    3    0    0 -0.31168014920E+02 -0.32103666449E+02 -0.42500374131E+02  0.61712101883E+02  0.10566000000E+00 0. -1.
         23    2    1    0    0    0 -0.15832146942E+02 -0.17091255416E+02 -0.12610195768E+02  0.98508776439E+02  0.94879893074E+02 0.  0.
         13    1    3    3    0    0  0.15335867979E+02  0.15012411033E+02  0.29890178364E+02  0.36796674555E+02  0.10566000000E+00 0.  1.
         22    1    1    0    0    0  0.15832146942E+02  0.17091255416E+02  0.12610195768E+02  0.26491223561E+02  0.00000000000E+00 0. -1.
</event>
<event>
 5    1  0.1751027E-003  0.9118800E+02  0.7818608E-02  0.1130116E+00
         25   -1    0    0    0    0  0.00000000000E+00  0.00000000000E+00  0.99999998245E-14  0.12500000000E+03  0.12500000000E+03 0.  0.
        -13    1    3    3    0    0  0.35174721179E+02 -0.12303618505E+02  0.30905463567E+02  0.48412796662E+02  0.10566000000E+00 0.  1.
         23    2    1    0    0    0 -0.94248779282E+01 -0.14878004193E+02  0.26333059309E+02  0.93320142909E+02  0.87778332903E+02 0.  0.
         13    1    3    3    0    0 -0.44599599107E+02 -0.25743856881E+01 -0.45724042578E+01  0.44907346247E+02  0.10566000000E+00 0. -1.
         22    1    1    0    0    0  0.94248779282E+01  0.14878004193E+02 -0.26333059309E+02  0.31679857091E+02  0.00000000000E+00 0. -1.
</event>
<event>
 5    1  0.1751027E-003  0.9118800E+02  0.7818608E-02  0.1130116E+00
         25   -1    0    0    0    0  0.00000000000E+00  0.00000000000E+00  0.99999998245E-14  0.12500000000E+03  0.12500000000E+03 0.  0.
        -13    1    3    3    0    0 -0.14889732876E+02 -0.30796010330E+02 -0.41412837954E+02  0.53713431363E+02  0.10566000000E+00 0.  1.
         23    2    1    0    0    0 -0.25187426843E+02 -0.15932618287E+02 -0.44449933047E+01  0.94866749895E+02  0.89953807444E+02 0.  0.
         13    1    3    3    0    0 -0.10297693967E+02  0.14863392043E+02  0.36967844650E+02  0.41153318531E+02  0.10566000000E+00 0. -1.
         22    1    1    0    0    0  0.25187426843E+02  0.15932618287E+02  0.44449933047E+01  0.30133250105E+02  0.00000000000E+00 0. -1.
</event>
<event>
 5    1  0.1751027E-003  0.9118800E+02  0.7818608E-02  0.1130116E+00
         25   -1    0    0    0    0  0.00000000000E+00  0.00000000000E+00  0.99999998245E-14  0.12500000000E+03  0.12500000000E+03 0.  0.
        -13    1    3    3    0    0 -0.29471567860E+02 -0.33755704427E+02 -0.39109379589E+02  0.59477522051E+02  0.10566000000E+00 0.  1.
         23    2    1    0    0    0 -0.25325399581E+01 -0.12080303000E+02 -0.25563087565E+02  0.96613050092E+02  0.92348592426E+02 0.  0.
         13    1    3    3    0    0  0.26939027901E+02  0.21675401426E+02  0.13546292024E+02  0.37135528041E+02  0.10566000000E+00 0. -1.
         22    1    1    0    0    0  0.25325399581E+01  0.12080303000E+02  0.25563087565E+02  0.28386949908E+02  0.00000000000E+00 0.  1.
</event>
<event>
 5    1  0.1751027E-003  0.9118800E+02  0.7818608E-02  0.1130116E+00
         25   -1    0    0    0    0  0.00000000000E+00  0.00000000000E+00  0.99999998245E-14  0.12500000000E+03  0.12500000000E+03 0.  0.
        -13    1    3    3    0    0  0.13462695463E+02  0.44244605743E+02  0.70937622873E+01  0.46788480782E+02  0.10566000000E+00 0. -1.
         23    2    1    0    0    0  0.25645842652E+02 -0.25355087980E+01  0.14083624874E+02  0.95631878852E+02  0.91010821955E+02 0.  0.
         13    1    3    3    0    0  0.12183147189E+02 -0.46780114541E+02  0.69898625869E+01  0.48843398069E+02  0.10566000000E+00 0.  1.
         22    1    1    0    0    0 -0.25645842652E+02  0.25355087980E+01 -0.14083624874E+02  0.29368121148E+02  0.00000000000E+00 0. -1.
</event>
<event>
 5    1  0.1751027E-003  0.9118800E+02  0.7818608E-02  0.1130116E+00
         25   -1    0    0    0    0  0.00000000000E+00  0.00000000000E+00  0.99999998245E-14  0.12500000000E+03  0.12500000000E+03 0.  0.
        -13    1    3    3    0    0  0.11924665448E+02  0.36747605618E+02  0.42010844714E+02  0.57074568788E+02  0.10566000000E+00 0. -1.
         23    2    1    0    0    0  0.20440498558E+02  0.17303705301E+02  0.82090922837E+01  0.96988905867E+02  0.92855944703E+02 0.  0.
         13    1    3    3    0    0  0.85158331097E+01 -0.19443900317E+02 -0.33801752430E+02  0.39914337079E+02  0.10566000000E+00 0.  1.
         22    1    1    0    0    0 -0.20440498558E+02 -0.17303705301E+02 -0.82090922837E+01  0.28011094133E+02  0.00000000000E+00 0. -1.
</event>
<event>
 5    1  0.1751027E-003  0.9118800E+02  0.7818608E-02  0.1130116E+00
         25   -1    0    0    0    0  0.00000000000E+00  0.00000000000E+00  0.99999998245E-14  0.12500000000E+03  0.12500000000E+03 0.  0.
        -13    1    3    3    0    0 -0.32704645466E+02 -0.58448888771E+01  0.29907381032E+02  0.44701444778E+02  0.10566000000E+00 0.  1.
         23    2    1    0    0    0 -0.15496023244E+02 -0.15221971971E+02 -0.18208843889E+02  0.96655738450E+02  0.92406355909E+02 0.  0.
         13    1    3    3    0    0  0.17208622222E+02 -0.93770830941E+01 -0.48116224922E+02  0.51954293671E+02  0.10566000000E+00 0. -1.
         22    1    1    0    0    0  0.15496023244E+02  0.15221971971E+02  0.18208843889E+02  0.28344261550E+02  0.00000000000E+00 0. -1.
</event>
<event>
 5    1  0.1751027E-003  0.9118800E+02  0.7818608E-02  0.1130116E+00
         25   -1    0    0    0    0  0.00000000000E+00  0.00000000000E+00  0.99999998245E-14  0.12500000000E+03  0.12500000000E+03 0.  0.
        -13    1    3    3    0    0  0.41273625031E+02  0.20057099113E+02  0.13473071937E+02  0.47826082628E+02  0.10566000000E+00 0. -1.
         23    2    1    0    0    0 -0.50735827873E+01  0.59210852485E+01  0.25984780355E+02  0.97870508613E+02  0.94035244207E+02 0.  0.
         13    1    3    3    0    0 -0.46347207819E+02 -0.14136013864E+02  0.12511708418E+02  0.50044425985E+02  0.10566000000E+00 0.  1.
         22    1    1    0    0    0  0.50735827873E+01 -0.59210852485E+01 -0.25984780355E+02  0.27129491387E+02  0.00000000000E+00 0. -1.
</event>
<event>
 5    1  0.1751027E-003  0.9118800E+02  0.7818608E-02  0.1130116E+00
         25   -1    0    0    0    0  0.00000000000E+00  0.00000000000E+00  0.99999998245E-14  0.12500000000E+03  0.12500000000E+03 0.  0.
        -13    1    3    3    0    0  0.18718649757E+01  0.56418996432E+01 -0.44755071397E+02  0.45148227981E+02  0.10566000000E+00 0. -1.
         23    2    1    0    0    0 -0.26246858885E+02 -0.12376549229E+02 -0.78136751661E+01  0.94947877084E+02  0.90066471403E+02 0.  0.
         13    1    3    3    0    0 -0.28118723860E+02 -0.18018448873E+02  0.36941396230E+02  0.49799649103E+02  0.10566000000E+00 0.  1.
         22    1    1    0    0    0  0.26246858885E+02  0.12376549229E+02  0.78136751661E+01  0.30052122916E+02  0.00000000000E+00 0.  1.
</event>
<event>
 5    1  0.1751027E-003  0.9118800E+02  0.7818608E-02  0.1130116E+00
         25   -1    0    0    0    0  0.00000000000E+00  0.00000000000E+00  0.99999998245E-14  0.12500000000E+03  0.12500000000E+03 0.  0.
        -13    1    3    3    0    0 -0.34324972600E+02 -0.62517610193E+01 -0.11995745072E+02  0.36894407756E+02  0.10566000000E+00 0. -1.
         23    2    1    0    0    0  0.19810900844E+02  0.19055458901E+02 -0.25718013928E+01  0.97392094093E+02  0.93397128025E+02 0.  0.
         13    1    3    3    0    0  0.54135873444E+02  0.25307219920E+02  0.94239436793E+01  0.60497686337E+02  0.10566000000E+00 0.  1.
         22    1    1    0    0    0 -0.19810900844E+02 -0.19055458901E+02  0.25718013928E+01  0.27607905907E+02  0.00000000000E+00 0.  1.
</event>
<event>
 5    1  0.1751027E-003  0.9118800E+02  0.7818608E-02  0.1130116E+00
         25   -1    0    0    0    0  0.00000000000E+00  0.00000000000E+00  0.99999998245E-14  0.12500000000E+03  0.12500000000E+03 0.  0.
        -13    1    3    3    0    0 -0.45893365681E+02  0.57573501054E+01  0.30324979380E+02  0.55307898461E+02  0.10566000000E+00 0. -1.
         23    2    1    0    0    0 -0.21524795598E+02 -0.16609859637E+02  0.41338048618E+01  0.97499225369E+02  0.93540399519E+02 0.  0.
         13    1    3    3    0    0  0.24368570083E+02 -0.22367209742E+02 -0.26191174518E+02  0.42191326908E+02  0.10566000000E+00 0.  1.
         22    1    1    0    0    0  0.21524795598E+02  0.16609859637E+02 -0.41338048618E+01  0.27500774631E+02  0.00000000000E+00 0. -1.
</event>
<event>
 5    1  0.1751027E-003  0.9118800E+02  0.7818608E-02  0.1130116E+00
         25   -1    0    0    0    0  0.00000000000E+00  0.00000000000E+00  0.99999998245E-14  0.12500000000E+03  0.12500000000E+03 0.  0.
        -13    1    3    3    0    0 -0.45915828800E+02 -0.34687143186E+01 -0.40929404046E+02  0.61607812759E+02  0.10566000000E+00 0.  1.
         23    2    1    0    0    0 -0.24048056526E+02  0.52349949612E+01 -0.17633815965E+02  0.94723513077E+02  0.89754544560E+02 0.  0.
         13    1    3    3    0    0  0.21867772273E+02  0.87037092798E+01  0.23295588081E+02  0.33115700317E+02  0.10566000000E+00 0. -1.
         22    1    1    0    0    0  0.24048056526E+02 -0.52349949612E+01  0.17633815965E+02  0.30276486923E+02  0.00000000000E+00 0.  1.
</event>
<event>
 5    1  0.1751027E-003  0.9118800E+02  0.7818608E-02  0.1130116E+00
         25   -1    0    0    0    0  0.00000000000E+00  0.00000000000E+00  0.99999998245E-14  0.12500000000E+03  0.12500000000E+03 0.  0.
        -13    1    3    3    0    0  0.38643855062E+02  0.31764867671E+02 -0.10996672298E+02  0.51218085848E+02  0.10566000000E+00 0.  1.
         23    2    1    0    0    0  0.18251388364E+02  0.22474650378E+01  0.19421134246E+02  0.98254070745E+02  0.94543734252E+02 0.  0.
         13    1    3    3    0    0 -0.20392466699E+02 -0.29517402634E+02  0.30417806544E+02  0.47035984897E+02  0.10566000000E+00 0. -1.
         22    1    1    0    0    0 -0.18251388364E+02 -0.22474650378E+01 -0.19421134246E+02  0.26745929255E+02  0.00000000000E+00 0.  1.
</event>
<event>
 5    1  0.1751027E-003  0.9118800E+02  0.7818608E-02  0.1130116E+00
         25   -1    0    0    0    0  0.00000000000E+00  0.00000000000E+00  0.99999998245E-14  0.12500000000E+03  0.12500000000E+03 0.  0.
        -13    1    3    3    0    0  0.21379345832E+02  0.35532839589E+02 -0.51245873039E+01  0.41784347267E+02  0.10566000000E+00 0.  1.
         23    2    1    0    0    0 -0.24852947621E+02  0.18132015905E+02  0.86040968746E+01  0.93055211861E+02  0.87400245796E+02 0.  0.
         13    1    3    3    0    0 -0.46232293453E+02 -0.17400823684E+02  0.13728684178E+02  0.51270864593E+02  0.10566000000E+00 0. -1.
         22    1    1    0    0    0  0.24852947621E+02 -0.18132015905E+02 -0.86040968746E+01  0.31944788139E+02  0.00000000000E+00 0. -1.
</event>
<event>
 5    1  0.1751027E-003  0.9118800E+02  0.7818608E-02  0.1130116E+00
         25   -1    0    0    0    0  0.00000000000E+00  0.00000000000E+00  0.99999998245E-14  0.12500000000E+03  0.12500000000E+03 0.  0.
        -13    1    3    3    0    0  0.24800064222E+02  0.47990517122E+02  0.67440620769E+01  0.54439199630E+02  0.10566000000E+00 0.  1.
         23    2    1    0    0    0  0.76422044320E+01  0.18703142613E+02 -0.19173631991E+02  0.97146113450E+02  0.93067332414E+02 0.  0.
         13    1    3    3    0    0 -0.17157859790E+02 -0.29287374509E+02 -0.25917694068E+02  0.42706913820E+02  0.10566000000E+00 0. -1.
         22    1    1    0    0    0 -0.76422044320E+01 -0.18703142613E+02  0.19173631991E+02  0.27853886550E+02  0.00000000000E+00 0.  1.
</event>
<event>
 5    1  0.1751027E-003  0.9118800E+02  0.7818608E-02  0.1130116E+00
         25   -1    0    0    0    0  0.00000000000E+00  0.00000000000E+00  0.99999998245E-14  0.12500000000E+03  0.12500000000E+03 0.  0.
        -13    1    3    3    0    0 -0.20462046981E+02  0.43449726915E+02  0.19498498642E+02  0.51834127262E+02  0.10566000000E+00 0.  1.
         23    2    1    0    0    0  0.12123998585E+02  0.25021653022E+02 -0.52409886715E+01  0.96706141587E+02  0.92474512147E+02 0.  0.
         13    1    3    3    0    0  0.32586045566E+02 -0.18428073894E+02 -0.24739487314E+02  0.44872014325E+02  0.10566000000E+00 0. -1.
         22    1    1    0    0    0 -0.12123998585E+02 -0.25021653022E+02  0.52409886715E+01  0.28293858413E+02  0.00000000000E+00 0.  1.
</event>
<event>
 5    1  0.1751027E-003  0.9118800E+02  0.7818608E-02  0.1130116E+00
         25   -1    0    0    0    0  0.00000000000E+00  0.00000000000E+00  0.99999998245E-14  0.12500000000E+03  0.12500000000E+03 0.  0.
        -13    1    3    3    0    0  0.41166785716E+02  0.30492062068E+02 -0.34631502101E+02  0.61837061680E+02  0.10566000000E+00 0.  1.
         23    2    1    0    0    0  0.17480262067E+02  0.19506799920E+02 -0.12924990938E+02  0.95791607442E+02  0.91229939497E+02 0.  0.
         13    1    3    3    0    0 -0.23686523649E+02 -0.10985262148E+02  0.21706511163E+02  0.33954545763E+02  0.10566000000E+00 0. -1.
         22    1    1    0    0    0 -0.17480262067E+02 -0.19506799920E+02  0.12924990938E+02  0.29208392558E+02  0.00000000000E+00 0.  1.
</event>
<event>
 5    1  0.1751027E-003  0.9118800E+02  0.7818608E-02  0.1130116E+00
         25   -1    0    0    0    0  0.00000000000E+00  0.00000000000E+00  0.99999998245E-14  0.12500000000E+03  0.12500000000E+03 0.  0.
        -13    1    3    3    0    0  0.80631533011E+01 -0.26045041776E+02 -0.23292685621E+02  0.35859712906E+02  0.10566000000E+00 0.  1.
         23    2    1    0    0    0 -0.17506010687E+02  0.30458800960E+01  0.22818773776E+02  0.96078827265E+02  0.91622632664E+02 0.  0.
         13    1    3    3    0    0 -0.25569163988E+02  0.29090921872E+02  0.46111459397E+02  0.60219114359E+02  0.10566000000E+00 0. -1.
         22    1    1    0    0    0  0.17506010687E+02 -0.30458800960E+01 -0.22818773776E+02  0.28921172735E+02  0.00000000000E+00 0. -1.
</event>
<event>
 5    1  0.1751027E-003  0.9118800E+02  0.7818608E-02  0.1130116E+00
         25   -1    0    0    0    0  0.00000000000E+00  0.00000000000E+00  0.99999998245E-14  0.12500000000E+03  0.12500000000E+03 0.  0.
        -13    1    3    3    0    0  0.22820651507E+02  0.41590818672E+02  0.11243031649E+02  0.48754438339E+02  0.10566000000E+00 0. -1.
         23    2    1    0    0    0 -0.38560712563E+01  0.10612902352E+02  0.29414595955E+02  0.93492517760E+02  0.88023459601E+02 0.  0.
         13    1    3    3    0    0 -0.26676722763E+02 -0.30977916320E+02  0.18171564306E+02  0.44738079421E+02  0.10566000000E+00 0.  1.
         22    1    1    0    0    0  0.38560712563E+01 -0.10612902352E+02 -0.29414595955E+02  0.31507482240E+02  0.00000000000E+00 0. -1.
</event>
<event>
 5    1  0.1751027E-003  0.9118800E+02  0.7818608E-02  0.1130116E+00
         25   -1    0    0    0    0  0.00000000000E+00  0.00000000000E+00  0.99999998245E-14  0.12500000000E+03  0.12500000000E+03 0.  0.
        -13    1    3    3    0    0 -0.39738089770E+02  0.10850135639E+02  0.18369620299E+02  0.45103163258E+02  0.10566000000E+00 0. -1.
         23    2    1    0    0    0 -0.14700968941E+02  0.86487846989E+00 -0.24893716603E+02  0.96076590296E+02  0.91619580735E+02 0.  0.
         13    1    3    3    0    0  0.25037120829E+02 -0.99852571690E+01 -0.43263336902E+02  0.50973427038E+02  0.10566000000E+00 0.  1.
         22    1    1    0    0    0  0.14700968941E+02 -0.86487846989E+00  0.24893716603E+02  0.28923409704E+02  0.00000000000E+00 0.  1.
</event>
<event>
 5    1  0.1751027E-003  0.9118800E+02  0.7818608E-02  0.1130116E+00
         25   -1    0    0    0    0  0.00000000000E+00  0.00000000000E+00  0.99999998245E-14  0.12500000000E+03  0.12500000000E+03 0.  0.
        -13    1    3    3    0    0 -0.36131534803E+02 -0.47812583964E+02  0.86293758765E+01  0.60547570427E+02  0.10566000000E+00 0.  1.
         23    2    1    0    0    0 -0.16861095444E+02 -0.20781835562E+02  0.14957530507E+02  0.94342065501E+02  0.89221725915E+02 0.  0.
         13    1    3    3    0    0  0.19270439359E+02  0.27030748402E+02  0.63281546304E+01  0.33794495074E+02  0.10566000000E+00 0. -1.
         22    1    1    0    0    0  0.16861095444E+02  0.20781835562E+02 -0.14957530507E+02  0.30657934499E+02  0.00000000000E+00 0.  1.
</event>
<event>
 5    1  0.1751027E-003  0.9118800E+02  0.7818608E-02  0.1130116E+00
         25   -1    0    0    0    0  0.00000000000E+00  0.00000000000E+00  0.99999998245E-14  0.12500000000E+03  0.12500000000E+03 0.  0.
        -13    1    3    3    0    0  0.17706016700E+02  0.34745186127E+00  0.41699668695E+02  0.45304495180E+02  0.10566000000E+00 0.  1.
         23    2    1    0    0    0 -0.17365697661E+02  0.20941943618E+02  0.18034971699E+02  0.92359646725E+02  0.86399720377E+02 0.  0.
         13    1    3    3    0    0 -0.35071714361E+02  0.20594491757E+02 -0.23664696996E+02  0.47055151545E+02  0.10566000000E+00 0. -1.
         22    1    1    0    0    0  0.17365697661E+02 -0.20941943618E+02 -0.18034971699E+02  0.32640353275E+02  0.00000000000E+00 0.  1.
</event>
<event>
 5    1  0.1751027E-003  0.9118800E+02  0.7818608E-02  0.1130116E+00
         25   -1    0    0    0    0  0.00000000000E+00  0.00000000000E+00  0.99999998245E-14  0.12500000000E+03  0.12500000000E+03 0.  0.
        -13    1    3    3    0    0 -0.23470814382E+02 -0.50842793040E+02 -0.23851868703E+01  0.56049701268E+02  0.10566000000E+00 0. -1.
         23    2    1    0    0    0 -0.23213991527E+02 -0.36583591185E+02  0.15552390060E+02  0.78966040978E+02  0.64160036195E+02 0.  0.
         13    1    3    3    0    0  0.25682285452E+00  0.14259201855E+02  0.17937576931E+02  0.22916339710E+02  0.10566000000E+00 0.  1.
         22    1    1    0    0    0  0.23213991527E+02  0.36583591185E+02 -0.15552390060E+02  0.46033959022E+02  0.00000000000E+00 0. -1.
</event>
<event>
 5    1  0.1751027E-003  0.9118800E+02  0.7818608E-02  0.1130116E+00
         25   -1    0    0    0    0  0.00000000000E+00  0.00000000000E+00  0.99999998245E-14  0.12500000000E+03  0.12500000000E+03 0.  0.
        -13    1    3    3    0    0  0.38552660370E+02  0.36216322714E+02 -0.95915428617E+01  0.53758148322E+02  0.10566000000E+00 0.  1.
         23    2    1    0    0    0  0.27422402144E+02  0.47805891422E+01  0.13242450082E+02  0.94174610204E+02  0.88986811107E+02 0.  0.
         13    1    3    3    0    0 -0.11130258226E+02 -0.31435733571E+02  0.22833992943E+02  0.40416461883E+02  0.10566000000E+00 0. -1.
         22    1    1    0    0    0 -0.27422402144E+02 -0.47805891422E+01 -0.13242450082E+02  0.30825389796E+02  0.00000000000E+00 0. -1.
</event>
<event>
 5    1  0.1751027E-003  0.9118800E+02  0.7818608E-02  0.1130116E+00
         25   -1    0    0    0    0  0.00000000000E+00  0.00000000000E+00  0.99999998245E-14  0.12500000000E+03  0.12500000000E+03 0.  0.
        -13    1    3    3    0    0 -0.51612468251E+02 -0.68903764928E+01  0.17849422615E+01  0.52101068608E+02  0.10566000000E+00 0. -1.
         23    2    1    0    0    0 -0.16298715506E+02  0.12772625428E+02  0.19797026884E+02  0.96351957119E+02  0.91994506791E+02 0.  0.
         13    1    3    3    0    0  0.35313752746E+02  0.19663001921E+02  0.18012084623E+02  0.44250888511E+02  0.10566000000E+00 0.  1.
         22    1    1    0    0    0  0.16298715506E+02 -0.12772625428E+02 -0.19797026884E+02  0.28648042881E+02  0.00000000000E+00 0. -1.
</event>
<event>
 5    1  0.1751027E-003  0.9118800E+02  0.7818608E-02  0.1130116E+00
         25   -1    0    0    0    0  0.00000000000E+00  0.00000000000E+00  0.99999998245E-14  0.12500000000E+03  0.12500000000E+03 0.  0.
        -13    1    3    3    0    0  0.14882222929E+02  0.47591114510E+02 -0.34705316733E+02  0.60752488946E+02  0.10566000000E+00 0.  1.
         23    2    1    0    0    0  0.17143237776E+02  0.20231889649E+02 -0.15136082167E+02  0.94466068979E+02  0.89395286480E+02 0.  0.
         13    1    3    3    0    0  0.22610148473E+01 -0.27359224861E+02  0.19569234566E+02  0.33713580033E+02  0.10566000000E+00 0. -1.
         22    1    1    0    0    0 -0.17143237776E+02 -0.20231889649E+02  0.15136082167E+02  0.30533931021E+02  0.00000000000E+00 0.  1.
</event>
<event>
 5    1  0.1751027E-003  0.9118800E+02  0.7818608E-02  0.1130116E+00
         25   -1    0    0    0    0  0.00000000000E+00  0.00000000000E+00  0.99999998245E-14  0.12500000000E+03  0.12500000000E+03 0.  0.
        -13    1    3    3    0    0  0.34024022221E+02 -0.96668906193E+01 -0.17034811191E+01  0.35411804166E+02  0.10566000000E+00 0.  1.
         23    2    1    0    0    0 -0.27113741822E+02 -0.73013754223E+01 -0.39911207496E+01  0.96638157262E+02  0.92382570409E+02 0.  0.
         13    1    3    3    0    0 -0.61137764043E+02  0.23655151970E+01 -0.22876396304E+01  0.61226353096E+02  0.10566000000E+00 0. -1.
         22    1    1    0    0    0  0.27113741822E+02  0.73013754223E+01  0.39911207496E+01  0.28361842738E+02  0.00000000000E+00 0. -1.
</event>
<event>
 5    1  0.1751027E-003  0.9118800E+02  0.7818608E-02  0.1130116E+00
         25   -1    0    0    0    0  0.00000000000E+00  0.00000000000E+00  0.99999998245E-14  0.12500000000E+03  0.12500000000E+03 0.  0.
        -13    1    3    3    0    0 -0.19516878434E+02  0.65446379626E+01  0.58248088768E+02  0.61778571034E+02  0.10566000000E+00 0. -1.
         23    2    1    0    0    0 -0.69321461155E+01  0.93938719932E+01  0.27802485995E+02  0.94845767987E+02  0.89924646214E+02 0.  0.
         13    1    3    3    0    0  0.12584732318E+02  0.28492340306E+01 -0.30445602772E+02  0.33067196953E+02  0.10566000000E+00 0.  1.
         22    1    1    0    0    0  0.69321461155E+01 -0.93938719932E+01 -0.27802485995E+02  0.30154232013E+02  0.00000000000E+00 0. -1.
</event>
<event>
 5    1  0.1751027E-003  0.9118800E+02  0.7818608E-02  0.1130116E+00
         25   -1    0    0    0    0  0.00000000000E+00  0.00000000000E+00  0.99999998245E-14  0.12500000000E+03  0.12500000000E+03 0.  0.
        -13    1    3    3    0    0 -0.33281065674E+02 -0.28510725228E+02  0.27637978058E+02  0.51810807566E+02  0.10566000000E+00 0. -1.
         23    2    1    0    0    0 -0.33350283418E+01 -0.34082074021E+02  0.36915472508E+01  0.90556746601E+02  0.83750741193E+02 0.  0.
         13    1    3    3    0    0  0.29946037332E+02 -0.55713487928E+01 -0.23946430808E+02  0.38745939036E+02  0.10566000000E+00 0.  1.
         22    1    1    0    0    0  0.33350283418E+01  0.34082074021E+02 -0.36915472508E+01  0.34443253399E+02  0.00000000000E+00 0. -1.
</event>
<event>
 5    1  0.1751027E-003  0.9118800E+02  0.7818608E-02  0.1130116E+00
         25   -1    0    0    0    0  0.00000000000E+00  0.00000000000E+00  0.99999998245E-14  0.12500000000E+03  0.12500000000E+03 0.  0.
        -13    1    3    3    0    0  0.21535189598E+02  0.51689004020E+02  0.13760702614E+00  0.55995960813E+02  0.10566000000E+00 0. -1.
         23    2    1    0    0    0  0.20220758170E+02  0.16247081188E+02  0.15648723628E+02  0.94705953402E+02  0.89730086094E+02 0.  0.
         13    1    3    3    0    0 -0.13144314285E+01 -0.35441922831E+02  0.15511116602E+02  0.38709992589E+02  0.10566000000E+00 0.  1.
         22    1    1    0    0    0 -0.20220758170E+02 -0.16247081188E+02 -0.15648723628E+02  0.30294046598E+02  0.00000000000E+00 0. -1.
</event>
<event>
 5    1  0.1751027E-003  0.9118800E+02  0.7818608E-02  0.1130116E+00
         25   -1    0    0    0    0  0.00000000000E+00  0.00000000000E+00  0.99999998245E-14  0.12500000000E+03  0.12500000000E+03 0.  0.
        -13    1    3    3    0    0 -0.35266672467E+02 -0.12191185792E+02  0.46320404017E+02  0.59480704353E+02  0.10566000000E+00 0.  1.
         23    2    1    0    0    0 -0.22263567030E+02  0.65986082893E+01  0.19836230019E+02  0.94460123287E+02  0.89386972327E+02 0.  0.
         13    1    3    3    0    0  0.13003105437E+02  0.18789794081E+02 -0.26484173998E+02  0.34979418935E+02  0.10566000000E+00 0. -1.
         22    1    1    0    0    0  0.22263567030E+02 -0.65986082893E+01 -0.19836230019E+02  0.30539876713E+02  0.00000000000E+00 0.  1.
</event>
<event>
 5    1  0.1751027E-003  0.9118800E+02  0.7818608E-02  0.1130116E+00
         25   -1    0    0    0    0  0.00000000000E+00  0.00000000000E+00  0.99999998245E-14  0.12500000000E+03  0.12500000000E+03 0.  0.
        -13    1    3    3    0    0 -0.42613599798E+02  0.69612132984E+01  0.11770435068E+02  0.44754124772E+02  0.10566000000E+00 0.  1.
         23    2    1    0    0    0 -0.20061293480E+02 -0.27376409267E+02 -0.76714079805E+01  0.90203825198E+02  0.83222330534E+02 0.  0.
         13    1    3    3    0    0  0.22552306318E+02 -0.34337622565E+02 -0.19441843049E+02  0.45449700426E+02  0.10566000000E+00 0. -1.
         22    1    1    0    0    0  0.20061293480E+02  0.27376409267E+02  0.76714079805E+01  0.34796174802E+02  0.00000000000E+00 0. -1.
</event>
<event>
 5    1  0.1751027E-003  0.9118800E+02  0.7818608E-02  0.1130116E+00
         25   -1    0    0    0    0  0.00000000000E+00  0.00000000000E+00  0.99999998245E-14  0.12500000000E+03  0.12500000000E+03 0.  0.
        -13    1    3    3    0    0  0.53959379898E+02 -0.16789580738E+02 -0.11530248988E+01  0.56522962863E+02  0.10566000000E+00 0.  1.
         23    2    1    0    0    0  0.23425535641E+02 -0.10245511446E+02 -0.19592627013E+02  0.92788243480E+02  0.87017589429E+02 0.  0.
         13    1    3    3    0    0 -0.30533844258E+02  0.65440692918E+01 -0.18439602114E+02  0.36265280617E+02  0.10566000000E+00 0. -1.
         22    1    1    0    0    0 -0.23425535641E+02  0.10245511446E+02  0.19592627013E+02  0.32211756520E+02  0.00000000000E+00 0.  1.
</event>
<event>
 5    1  0.1751027E-003  0.9118800E+02  0.7818608E-02  0.1130116E+00
         25   -1    0    0    0    0  0.00000000000E+00  0.00000000000E+00  0.99999998245E-14  0.12500000000E+03  0.12500000000E+03 0.  0.
        -13    1    3    3    0    0 -0.19233041478E+02  0.28216166226E+02 -0.91636835750E+01  0.35355992161E+02  0.10566000000E+00 0.  1.
         23    2    1    0    0    0  0.27267986037E+02 -0.90861725021E+01 -0.86944107291E+01  0.94971773759E+02  0.90099630631E+02 0.  0.
         13    1    3    3    0    0  0.46501027515E+02 -0.37302338728E+02  0.46927284592E+00  0.59615781598E+02  0.10566000000E+00 0. -1.
         22    1    1    0    0    0 -0.27267986037E+02  0.90861725021E+01  0.86944107291E+01  0.30028226241E+02  0.00000000000E+00 0. -1.
</event>
<event>
 5    1  0.1751027E-003  0.9118800E+02  0.7818608E-02  0.1130116E+00
         25   -1    0    0    0    0  0.00000000000E+00  0.00000000000E+00  0.99999998245E-14  0.12500000000E+03  0.12500000000E+03 0.  0.
        -13    1    3    3    0    0  0.21345349322E+02 -0.39506711743E+02  0.50870604798E+01  0.45191742153E+02  0.10566000000E+00 0.  1.
         23    2    1    0    0    0  0.12718943107E+02  0.47132067350E+00 -0.25658817042E+02  0.96357923452E+02  0.92002613349E+02 0.  0.
         13    1    3    3    0    0 -0.86264062154E+01  0.39978032417E+02 -0.30745877522E+02  0.51166181299E+02  0.10566000000E+00 0. -1.
         22    1    1    0    0    0 -0.12718943107E+02 -0.47132067350E+00  0.25658817042E+02  0.28642076548E+02  0.00000000000E+00 0. -1.
</event>
<event>
 5    1  0.1751027E-003  0.9118800E+02  0.7818608E-02  0.1130116E+00
         25   -1    0    0    0    0  0.00000000000E+00  0.00000000000E+00  0.99999998245E-14  0.12500000000E+03  0.12500000000E+03 0.  0.
        -13    1    3    3    0    0  0.18268508750E+02 -0.52546533734E+01  0.34952941923E+02  0.39787800984E+02  0.10566000000E+00 0.  1.
         23    2    1    0    0    0  0.20085114053E+02 -0.94564171127E+01 -0.20113062979E+02  0.95043849822E+02  0.90199570151E+02 0.  0.
         13    1    3    3    0    0  0.18166053026E+01 -0.42017637393E+01 -0.55066004901E+02  0.55256048838E+02  0.10566000000E+00 0. -1.
         22    1    1    0    0    0 -0.20085114053E+02  0.94564171127E+01  0.20113062979E+02  0.29956150178E+02  0.00000000000E+00 0. -1.
</event>
<event>
 5    1  0.1751027E-003  0.9118800E+02  0.7818608E-02  0.1130116E+00
         25   -1    0    0    0    0  0.00000000000E+00  0.00000000000E+00  0.99999998245E-14  0.12500000000E+03  0.12500000000E+03 0.  0.
        -13    1    3    3    0    0  0.28293025749E+02  0.85756910336E+00 -0.21625559520E+02  0.35621716963E+02  0.10566000000E+00 0.  1.
         23    2    1    0    0    0 -0.13542400208E+02  0.94653957372E-01  0.23946424976E+02  0.97489332398E+02  0.93527178400E+02 0.  0.
         13    1    3    3    0    0 -0.41835425958E+02 -0.76291514598E+00  0.45571984496E+02  0.61867615435E+02  0.10566000000E+00 0. -1.
         22    1    1    0    0    0  0.13542400208E+02 -0.94653957372E-01 -0.23946424976E+02  0.27510667602E+02  0.00000000000E+00 0. -1.
</event>
<event>
 4    1  0.1751027E-003  0.9118800E+02  0.7818608E-02  0.1130116E+00
         25   -1    0    0    0    0  0.00000000000E+00  0.00000000000E+00  0.99999998245E-14  0.12500000000E+03  0.12500000000E+03 0.  0.
        -13    1    1    0    0    0 -0.13953292719E+02 -0.43537211115E+02  0.78581604489E+01  0.46389060985E+02  0.10566000000E+00 0. -1.
         13    1    1    0    0    0 -0.10450670521E+02  0.95995516458E+00 -0.24610727879E+02  0.26755132574E+02  0.10566000000E+00 0.  1.
         22    1    1    0    0    0  0.24403963240E+02  0.42577255951E+02  0.16752567431E+02  0.51855806441E+02  0.00000000000E+00 0. -1.
</event>
<event>
 5    1  0.1751027E-003  0.9118800E+02  0.7818608E-02  0.1130116E+00
         25   -1    0    0    0    0  0.00000000000E+00  0.00000000000E+00  0.99999998245E-14  0.12500000000E+03  0.12500000000E+03 0.  0.
        -13    1    3    3    0    0 -0.40741986037E+02  0.18145851003E+02 -0.22398033033E+01  0.44656569704E+02  0.10566000000E+00 0.  1.
         23    2    1    0    0    0 -0.12513314861E+02 -0.18918523961E+02  0.18572534377E+02  0.95683918563E+02  0.91082268530E+02 0.  0.
         13    1    3    3    0    0  0.28228671175E+02 -0.37064374964E+02  0.20812337680E+02  0.51027348859E+02  0.10566000000E+00 0. -1.
         22    1    1    0    0    0  0.12513314861E+02  0.18918523961E+02 -0.18572534377E+02  0.29316081437E+02  0.00000000000E+00 0.  1.
</event>
<event>
 5    1  0.1751027E-003  0.9118800E+02  0.7818608E-02  0.1130116E+00
         25   -1    0    0    0    0  0.00000000000E+00  0.00000000000E+00  0.99999998245E-14  0.12500000000E+03  0.12500000000E+03 0.  0.
        -13    1    3    3    0    0  0.43850430896E+02  0.37635611786E+02  0.22456209838E+02  0.61996710305E+02  0.10566000000E+00 0.  1.
         23    2    1    0    0    0  0.12576832160E+02  0.15298134040E+02  0.12070452516E+02  0.10180721155E+03  0.99130231952E+02 0.  0.
         13    1    3    3    0    0 -0.31273598736E+02 -0.22337477746E+02 -0.10385757322E+02  0.39810501242E+02  0.10566000000E+00 0. -1.
         22    1    1    0    0    0 -0.12576832160E+02 -0.15298134040E+02 -0.12070452516E+02  0.23192788453E+02  0.00000000000E+00 0.  1.
</event>
<event>
 5    1  0.1751027E-003  0.9118800E+02  0.7818608E-02  0.1130116E+00
         25   -1    0    0    0    0  0.00000000000E+00  0.00000000000E+00  0.99999998245E-14  0.12500000000E+03  0.12500000000E+03 0.  0.
        -13    1    3    3    0    0 -0.21944033074E+02  0.25867766118E+02 -0.46230605180E+02  0.57340752792E+02  0.10566000000E+00 0.  1.
         23    2    1    0    0    0 -0.14517802904E+02 -0.51526447873E+01 -0.24923664963E+02  0.95699736782E+02  0.91103974641E+02 0.  0.
         13    1    3    3    0    0  0.74262301696E+01 -0.31020410905E+02  0.21306940217E+02  0.38358983989E+02  0.10566000000E+00 0. -1.
         22    1    1    0    0    0  0.14517802904E+02  0.51526447873E+01  0.24923664963E+02  0.29300263218E+02  0.00000000000E+00 0. -1.
</event>
<event>
 5    1  0.1751027E-003  0.9118800E+02  0.7818608E-02  0.1130116E+00
         25   -1    0    0    0    0  0.00000000000E+00  0.00000000000E+00  0.99999998245E-14  0.12500000000E+03  0.12500000000E+03 0.  0.
        -13    1    3    3    0    0  0.54200832830E+02  0.16850213337E+02  0.30040404473E+01  0.56839206469E+02  0.10566000000E+00 0.  1.
         23    2    1    0    0    0  0.26679942485E+02 -0.92591032054E+01  0.92442271626E+01  0.95284582133E+02  0.90532566147E+02 0.  0.
         13    1    3    3    0    0 -0.27520890344E+02 -0.26109316542E+02  0.62401867152E+01  0.38445375664E+02  0.10566000000E+00 0. -1.
         22    1    1    0    0    0 -0.26679942485E+02  0.92591032054E+01 -0.92442271626E+01  0.29715417867E+02  0.00000000000E+00 0.  1.
</event>
<event>
 5    1  0.1751027E-003  0.9118800E+02  0.7818608E-02  0.1130116E+00
         25   -1    0    0    0    0  0.00000000000E+00  0.00000000000E+00  0.99999998245E-14  0.12500000000E+03  0.12500000000E+03 0.  0.
        -13    1    3    3    0    0  0.30545064341E+00  0.41459934334E+02  0.22744608298E+02  0.47290039393E+02  0.10566000000E+00 0.  1.
         23    2    1    0    0    0  0.26040100720E+02  0.26500643739E+01  0.15945650022E+02  0.94350800315E+02  0.89233962586E+02 0.  0.
         13    1    3    3    0    0  0.25734650077E+02 -0.38809869961E+02 -0.67989582756E+01  0.47060760922E+02  0.10566000000E+00 0. -1.
         22    1    1    0    0    0 -0.26040100720E+02 -0.26500643739E+01 -0.15945650022E+02  0.30649199685E+02  0.00000000000E+00 0.  1.
</event>
<event>
 5    1  0.1751027E-003  0.9118800E+02  0.7818608E-02  0.1130116E+00
         25   -1    0    0    0    0  0.00000000000E+00  0.00000000000E+00  0.99999998245E-14  0.12500000000E+03  0.12500000000E+03 0.  0.
        -13    1    3    3    0    0 -0.12874970395E+01  0.41259376108E+02 -0.43116179127E+02  0.59690952681E+02  0.10566000000E+00 0.  1.
         23    2    1    0    0    0 -0.34266060428E+01  0.27592925319E+02 -0.10221665031E+02  0.95375793805E+02  0.90658416329E+02 0.  0.
         13    1    3    3    0    0 -0.21391090033E+01 -0.13666450788E+02  0.32894514095E+02  0.35684841124E+02  0.10566000000E+00 0. -1.
         22    1    1    0    0    0  0.34266060428E+01 -0.27592925319E+02  0.10221665031E+02  0.29624206195E+02  0.00000000000E+00 0.  1.
</event>
<event>
 5    1  0.1751027E-003  0.9118800E+02  0.7818608E-02  0.1130116E+00
         25   -1    0    0    0    0  0.00000000000E+00  0.00000000000E+00  0.99999998245E-14  0.12500000000E+03  0.12500000000E+03 0.  0.
        -13    1    3    3    0    0 -0.49000686757E+01  0.30523360625E+02 -0.25276425050E+02  0.39932380898E+02  0.10566000000E+00 0.  1.
         23    2    1    0    0    0 -0.73802209100E+01 -0.24634939450E+02 -0.11438642799E+02  0.96854121945E+02  0.92674324850E+02 0.  0.
         13    1    3    3    0    0 -0.24801522343E+01 -0.55158300074E+02  0.13837782251E+02  0.56921741047E+02  0.10566000000E+00 0. -1.
         22    1    1    0    0    0  0.73802209100E+01  0.24634939450E+02  0.11438642799E+02  0.28145878055E+02  0.00000000000E+00 0. -1.
</event>
<event>
 5    1  0.1751027E-003  0.9118800E+02  0.7818608E-02  0.1130116E+00
         25   -1    0    0    0    0  0.00000000000E+00  0.00000000000E+00  0.99999998245E-14  0.12500000000E+03  0.12500000000E+03 0.  0.
        -13    1    3    3    0    0 -0.53722374995E+01 -0.25163746143E+02 -0.38887190504E+02  0.46629387783E+02  0.10566000000E+00 0. -1.
         23    2    1    0    0    0 -0.29316975574E+02 -0.16715362138E+02 -0.22867556553E+01  0.91175191950E+02  0.84668754494E+02 0.  0.
         13    1    3    3    0    0 -0.23944738074E+02  0.84483840052E+01  0.36600434849E+02  0.44545804167E+02  0.10566000000E+00 0.  1.
         22    1    1    0    0    0  0.29316975574E+02  0.16715362138E+02  0.22867556553E+01  0.33824808050E+02  0.00000000000E+00 0. -1.
</event>
<event>
 5    1  0.1751027E-003  0.9118800E+02  0.7818608E-02  0.1130116E+00
         25   -1    0    0    0    0  0.00000000000E+00  0.00000000000E+00  0.99999998245E-14  0.12500000000E+03  0.12500000000E+03 0.  0.
        -13    1    3    3    0    0  0.23017279950E+02 -0.25306723667E+02 -0.52016003630E+02  0.62256736477E+02  0.10566000000E+00 0.  1.
         23    2    1    0    0    0  0.75856445527E+01 -0.14109641014E+02 -0.23561086050E+02  0.96508795240E+02  0.92207368524E+02 0.  0.
         13    1    3    3    0    0 -0.15431635397E+02  0.11197082653E+02  0.28454917580E+02  0.34252058763E+02  0.10566000000E+00 0. -1.
         22    1    1    0    0    0 -0.75856445527E+01  0.14109641014E+02  0.23561086050E+02  0.28491204760E+02  0.00000000000E+00 0.  1.
</event>
<event>
 5    1  0.1751027E-003  0.9118800E+02  0.7818608E-02  0.1130116E+00
         25   -1    0    0    0    0  0.00000000000E+00  0.00000000000E+00  0.99999998245E-14  0.12500000000E+03  0.12500000000E+03 0.  0.
        -13    1    3    3    0    0 -0.24958027678E+02  0.85371272734E+01  0.22325436961E+02  0.34557517086E+02  0.10566000000E+00 0.  1.
         23    2    1    0    0    0  0.21637327848E+02 -0.18055373041E+02 -0.73616871978E+01  0.95873295923E+02  0.91341797555E+02 0.  0.
         13    1    3    3    0    0  0.46595355525E+02 -0.26592500314E+02 -0.29687124158E+02  0.61315778836E+02  0.10566000000E+00 0. -1.
         22    1    1    0    0    0 -0.21637327848E+02  0.18055373041E+02  0.73616871978E+01  0.29126704077E+02  0.00000000000E+00 0. -1.
</event>
<event>
 5    1  0.1751027E-003  0.9118800E+02  0.7818608E-02  0.1130116E+00
         25   -1    0    0    0    0  0.00000000000E+00  0.00000000000E+00  0.99999998245E-14  0.12500000000E+03  0.12500000000E+03 0.  0.
        -13    1    3    3    0    0  0.23795569483E+02  0.27437666009E+02  0.27826330740E+02  0.45753365882E+02  0.10566000000E+00 0.  1.
         23    2    1    0    0    0 -0.15630113549E+02 -0.47192598396E+01  0.22910224730E+02  0.96867274213E+02  0.92692063055E+02 0.  0.
         13    1    3    3    0    0 -0.39425683032E+02 -0.32156925848E+02 -0.49161060095E+01  0.51113908331E+02  0.10566000000E+00 0. -1.
         22    1    1    0    0    0  0.15630113549E+02  0.47192598396E+01 -0.22910224730E+02  0.28132725787E+02  0.00000000000E+00 0. -1.
</event>
<event>
 5    1  0.1751027E-003  0.9118800E+02  0.7818608E-02  0.1130116E+00
         25   -1    0    0    0    0  0.00000000000E+00  0.00000000000E+00  0.99999998245E-14  0.12500000000E+03  0.12500000000E+03 0.  0.
        -13    1    3    3    0    0 -0.24595993066E+02 -0.22847329719E+02 -0.26596336762E+02  0.42829191486E+02  0.10566000000E+00 0.  1.
         23    2    1    0    0    0  0.15944444576E+02 -0.91046357851E+01  0.14066358875E+02  0.10187031869E+03  0.99209776091E+02 0.  0.
         13    1    3    3    0    0  0.40540437642E+02  0.13742693934E+02  0.40662695636E+02  0.59041127201E+02  0.10566000000E+00 0. -1.
         22    1    1    0    0    0 -0.15944444576E+02  0.91046357851E+01 -0.14066358875E+02  0.23129681312E+02  0.00000000000E+00 0. -1.
</event>
<event>
 5    1  0.1751027E-003  0.9118800E+02  0.7818608E-02  0.1130116E+00
         25   -1    0    0    0    0  0.00000000000E+00  0.00000000000E+00  0.99999998245E-14  0.12500000000E+03  0.12500000000E+03 0.  0.
        -13    1    3    3    0    0 -0.19536970930E+02  0.21339883772E+02 -0.24478615114E+02  0.37898517576E+02  0.10566000000E+00 0. -1.
         23    2    1    0    0    0  0.16762774590E+02  0.77534392872E+01  0.20589333140E+02  0.97340877240E+02  0.93328555704E+02 0.  0.
         13    1    3    3    0    0  0.36299745520E+02 -0.13586444484E+02  0.45067948254E+02  0.59442359664E+02  0.10566000000E+00 0.  1.
         22    1    1    0    0    0 -0.16762774590E+02 -0.77534392872E+01 -0.20589333140E+02  0.27659122760E+02  0.00000000000E+00 0.  1.
</event>
<event>
 5    1  0.1751027E-003  0.9118800E+02  0.7818608E-02  0.1130116E+00
         25   -1    0    0    0    0  0.00000000000E+00  0.00000000000E+00  0.99999998245E-14  0.12500000000E+03  0.12500000000E+03 0.  0.
        -13    1    3    3    0    0 -0.37359778285E+02  0.27699062134E+02  0.28558431072E+02  0.54576425551E+02  0.10566000000E+00 0.  1.
         23    2    1    0    0    0  0.89053082165E+00  0.24831126889E+02  0.17865639129E+02  0.94396749042E+02  0.89298304914E+02 0.  0.
         13    1    3    3    0    0  0.38250309107E+02 -0.28679352445E+01 -0.10692791943E+02  0.39820323491E+02  0.10566000000E+00 0. -1.
         22    1    1    0    0    0 -0.89053082165E+00 -0.24831126889E+02 -0.17865639129E+02  0.30603250958E+02  0.00000000000E+00 0. -1.
</event>
<event>
 5    1  0.1751027E-003  0.9118800E+02  0.7818608E-02  0.1130116E+00
         25   -1    0    0    0    0  0.00000000000E+00  0.00000000000E+00  0.99999998245E-14  0.12500000000E+03  0.12500000000E+03 0.  0.
        -13    1    3    3    0    0 -0.19919962519E+02  0.54312164129E+01 -0.16112407596E+02  0.26190148168E+02  0.10566000000E+00 0.  1.
         23    2    1    0    0    0  0.14694247578E+02  0.60425114055E+01  0.34215504702E+02  0.87275556757E+02  0.78701265487E+02 0.  0.
         13    1    3    3    0    0  0.34614210097E+02  0.61129499263E+00  0.50327912298E+02  0.61085408589E+02  0.10566000000E+00 0. -1.
         22    1    1    0    0    0 -0.14694247578E+02 -0.60425114055E+01 -0.34215504702E+02  0.37724443243E+02  0.00000000000E+00 0. -1.
</event>
<event>
 5    1  0.1751027E-003  0.9118800E+02  0.7818608E-02  0.1130116E+00
         25   -1    0    0    0    0  0.00000000000E+00  0.00000000000E+00  0.99999998245E-14  0.12500000000E+03  0.12500000000E+03 0.  0.
        -13    1    3    3    0    0 -0.52670947053E+01 -0.48801045963E+02 -0.14075134685E+01  0.49104751623E+02  0.10566000000E+00 0. -1.
         23    2    1    0    0    0 -0.17839881192E+02 -0.14306021000E+02  0.22501367703E+02  0.92918305121E+02  0.87204221688E+02 0.  0.
         13    1    3    3    0    0 -0.12572786487E+02  0.34495024963E+02  0.23908881171E+02  0.43813553498E+02  0.10566000000E+00 0.  1.
         22    1    1    0    0    0  0.17839881192E+02  0.14306021000E+02 -0.22501367703E+02  0.32081694879E+02  0.00000000000E+00 0.  1.
</event>
<event>
 5    1  0.1751027E-003  0.9118800E+02  0.7818608E-02  0.1130116E+00
         25   -1    0    0    0    0  0.00000000000E+00  0.00000000000E+00  0.99999998245E-14  0.12500000000E+03  0.12500000000E+03 0.  0.
        -13    1    3    3    0    0 -0.23781323590E+02 -0.17165903641E+02  0.22498353484E+02  0.36964938429E+02  0.10566000000E+00 0. -1.
         23    2    1    0    0    0  0.13057778834E+02  0.25425756704E+02  0.46326413993E+01  0.96044239633E+02  0.91575432886E+02 0.  0.
         13    1    3    3    0    0  0.36839102425E+02  0.42591660346E+02 -0.17865712085E+02  0.59079301204E+02  0.10566000000E+00 0.  1.
         22    1    1    0    0    0 -0.13057778834E+02 -0.25425756704E+02 -0.46326413993E+01  0.28955760367E+02  0.00000000000E+00 0.  1.
</event>
<event>
 5    1  0.1751027E-003  0.9118800E+02  0.7818608E-02  0.1130116E+00
         25   -1    0    0    0    0  0.00000000000E+00  0.00000000000E+00  0.99999998245E-14  0.12500000000E+03  0.12500000000E+03 0.  0.
        -13    1    3    3    0    0  0.24457803624E+02  0.40905740017E+02 -0.39728643019E+02  0.62047078615E+02  0.10566000000E+00 0.  1.
         23    2    1    0    0    0  0.14832427194E+02  0.19938641543E+02 -0.14524707533E+02  0.96216020915E+02  0.91809614032E+02 0.  0.
         13    1    3    3    0    0 -0.96253764297E+01 -0.20967098474E+02  0.25203935487E+02  0.34168942300E+02  0.10566000000E+00 0. -1.
         22    1    1    0    0    0 -0.14832427194E+02 -0.19938641543E+02  0.14524707533E+02  0.28783979085E+02  0.00000000000E+00 0.  1.
</event>
<event>
 5    1  0.1751027E-003  0.9118800E+02  0.7818608E-02  0.1130116E+00
         25   -1    0    0    0    0  0.00000000000E+00  0.00000000000E+00  0.99999998245E-14  0.12500000000E+03  0.12500000000E+03 0.  0.
        -13    1    3    3    0    0  0.26016757401E+02  0.10515700953E+02  0.21879988984E+02  0.35583657965E+02  0.10566000000E+00 0.  1.
         23    2    1    0    0    0 -0.17657799275E+02 -0.24738916524E+02  0.10415496140E+02  0.92870660980E+02  0.87135901011E+02 0.  0.
         13    1    3    3    0    0 -0.43674556676E+02 -0.35254617477E+02 -0.11464492844E+02  0.57287003015E+02  0.10566000000E+00 0. -1.
         22    1    1    0    0    0  0.17657799275E+02  0.24738916524E+02 -0.10415496140E+02  0.32129339020E+02  0.00000000000E+00 0. -1.
</event>
<event>
 5    1  0.1751027E-003  0.9118800E+02  0.7818608E-02  0.1130116E+00
         25   -1    0    0    0    0  0.00000000000E+00  0.00000000000E+00  0.99999998245E-14  0.12500000000E+03  0.12500000000E+03 0.  0.
        -13    1    3    3    0    0  0.28025041584E+01 -0.43325176412E+02 -0.29639594715E+02  0.52568447567E+02  0.10566000000E+00 0. -1.
         23    2    1    0    0    0  0.24959371135E+02 -0.12590226148E+02 -0.95172835821E+01  0.95469292445E+02  0.90787240906E+02 0.  0.
         13    1    3    3    0    0  0.22156866977E+02  0.30734950264E+02  0.20122311133E+02  0.42900844879E+02  0.10566000000E+00 0.  1.
         22    1    1    0    0    0 -0.24959371135E+02  0.12590226148E+02  0.95172835821E+01  0.29530707555E+02  0.00000000000E+00 0. -1.
</event>
<event>
 5    1  0.1751027E-003  0.9118800E+02  0.7818608E-02  0.1130116E+00
         25   -1    0    0    0    0  0.00000000000E+00  0.00000000000E+00  0.99999998245E-14  0.12500000000E+03  0.12500000000E+03 0.  0.
        -13    1    3    3    0    0 -0.21060231982E+02 -0.34105970681E+01  0.47081835418E+02  0.51690191854E+02  0.10566000000E+00 0. -1.
         23    2    1    0    0    0 -0.20618722473E+02 -0.21316944602E+02  0.86245792851E+01  0.94114287908E+02  0.88902035843E+02 0.  0.
         13    1    3    3    0    0  0.44150950839E+00 -0.17906347534E+02 -0.38457256133E+02  0.42424096054E+02  0.10566000000E+00 0.  1.
         22    1    1    0    0    0  0.20618722473E+02  0.21316944602E+02 -0.86245792851E+01  0.30885712092E+02  0.00000000000E+00 0. -1.
</event>
<event>
 5    1  0.1751027E-003  0.9118800E+02  0.7818608E-02  0.1130116E+00
         25   -1    0    0    0    0  0.00000000000E+00  0.00000000000E+00  0.99999998245E-14  0.12500000000E+03  0.12500000000E+03 0.  0.
        -13    1    3    3    0    0 -0.71240569243E+01  0.10555385076E+02 -0.47560441382E+02  0.49235912601E+02  0.10566000000E+00 0. -1.
         23    2    1    0    0    0 -0.25832514319E+02  0.11139759692E+02 -0.40806798362E+01  0.96573516046E+02  0.92295064936E+02 0.  0.
         13    1    3    3    0    0 -0.18708457395E+02  0.58437461603E+00  0.43479761546E+02  0.47337603445E+02  0.10566000000E+00 0.  1.
         22    1    1    0    0    0  0.25832514319E+02 -0.11139759692E+02  0.40806798362E+01  0.28426483954E+02  0.00000000000E+00 0.  1.
</event>
<event>
 5    1  0.1751027E-003  0.9118800E+02  0.7818608E-02  0.1130116E+00
         25   -1    0    0    0    0  0.00000000000E+00  0.00000000000E+00  0.99999998245E-14  0.12500000000E+03  0.12500000000E+03 0.  0.
        -13    1    3    3    0    0 -0.29652708609E+02  0.43962107274E+02 -0.30548180200E+02  0.61197650947E+02  0.10566000000E+00 0. -1.
         23    2    1    0    0    0 -0.66401167435E+01  0.24262786054E+02 -0.18391856591E+02  0.93838576311E+02  0.88513524829E+02 0.  0.
         13    1    3    3    0    0  0.23012591866E+02 -0.19699321220E+02  0.12156323609E+02  0.32640925364E+02  0.10566000000E+00 0.  1.
         22    1    1    0    0    0  0.66401167435E+01 -0.24262786054E+02  0.18391856591E+02  0.31161423689E+02  0.00000000000E+00 0. -1.
</event>
<event>
 5    1  0.1751027E-003  0.9118800E+02  0.7818608E-02  0.1130116E+00
         25   -1    0    0    0    0  0.00000000000E+00  0.00000000000E+00  0.99999998245E-14  0.12500000000E+03  0.12500000000E+03 0.  0.
        -13    1    3    3    0    0  0.84749064273E+01  0.64067694437E+01 -0.35482115584E+02  0.37038661207E+02  0.10566000000E+00 0. -1.
         23    2    1    0    0    0 -0.13360623360E+02 -0.28153087580E+02  0.36439161188E+01  0.93625157824E+02  0.88211617467E+02 0.  0.
         13    1    3    3    0    0 -0.21835529787E+02 -0.34559857024E+02  0.39126031703E+02  0.56586496617E+02  0.10566000000E+00 0.  1.
         22    1    1    0    0    0  0.13360623360E+02  0.28153087580E+02 -0.36439161188E+01  0.31374842176E+02  0.00000000000E+00 0.  1.
</event>
<event>
 5    1  0.1751027E-003  0.9118800E+02  0.7818608E-02  0.1130116E+00
         25   -1    0    0    0    0  0.00000000000E+00  0.00000000000E+00  0.99999998245E-14  0.12500000000E+03  0.12500000000E+03 0.  0.
        -13    1    3    3    0    0 -0.27679782447E+01 -0.13107719820E+02 -0.59410115225E+02  0.60901945598E+02  0.10566000000E+00 0.  1.
         23    2    1    0    0    0  0.66321628502E+01 -0.25754278402E+00 -0.29247135118E+02  0.95009221001E+02  0.90151568208E+02 0.  0.
         13    1    3    3    0    0  0.94001410949E+01  0.12850177036E+02  0.30162980108E+02  0.34107275404E+02  0.10566000000E+00 0. -1.
         22    1    1    0    0    0 -0.66321628502E+01  0.25754278402E+00  0.29247135118E+02  0.29990778999E+02  0.00000000000E+00 0.  1.
</event>
<event>
 5    1  0.1751027E-003  0.9118800E+02  0.7818608E-02  0.1130116E+00
         25   -1    0    0    0    0  0.00000000000E+00  0.00000000000E+00  0.99999998245E-14  0.12500000000E+03  0.12500000000E+03 0.  0.
        -13    1    3    3    0    0 -0.27824928131E+02 -0.18455598563E+02 -0.21893251501E+01  0.33461022884E+02  0.10566000000E+00 0.  1.
         23    2    1    0    0    0  0.16269383325E+02  0.20060400910E+02  0.15815002432E+02  0.94714247238E+02  0.89741639218E+02 0.  0.
         13    1    3    3    0    0  0.44094311456E+02  0.38515999472E+02  0.18004327582E+02  0.61253224354E+02  0.10566000000E+00 0. -1.
         22    1    1    0    0    0 -0.16269383325E+02 -0.20060400910E+02 -0.15815002432E+02  0.30285752762E+02  0.00000000000E+00 0. -1.
</event>
<event>
 5    1  0.1751027E-003  0.9118800E+02  0.7818608E-02  0.1130116E+00
         25   -1    0    0    0    0  0.00000000000E+00  0.00000000000E+00  0.99999998245E-14  0.12500000000E+03  0.12500000000E+03 0.  0.
        -13    1    3    3    0    0  0.33888367057E+02  0.30264484725E+02 -0.16357282074E+02  0.48290084887E+02  0.10566000000E+00 0. -1.
         23    2    1    0    0    0  0.25215823766E+02 -0.72844359875E+01  0.12003433305E+02  0.96138551891E+02  0.91704078278E+02 0.  0.
         13    1    3    3    0    0 -0.86725432918E+01 -0.37548920713E+02  0.28360715379E+02  0.47848467004E+02  0.10566000000E+00 0.  1.
         22    1    1    0    0    0 -0.25215823766E+02  0.72844359875E+01 -0.12003433305E+02  0.28861448109E+02  0.00000000000E+00 0.  1.
</event>
<event>
 5    1  0.1751027E-003  0.9118800E+02  0.7818608E-02  0.1130116E+00
         25   -1    0    0    0    0  0.00000000000E+00  0.00000000000E+00  0.99999998245E-14  0.12500000000E+03  0.12500000000E+03 0.  0.
        -13    1    3    3    0    0  0.50544690925E+01 -0.30745082023E+02  0.30757320137E+02  0.43781635790E+02  0.10566000000E+00 0. -1.
         23    2    1    0    0    0 -0.26771651949E+02  0.46114697510E+01  0.15413746008E+02  0.93765874955E+02  0.88410795374E+02 0.  0.
         13    1    3    3    0    0 -0.31826121041E+02  0.35356551774E+02 -0.15343574129E+02  0.49984239165E+02  0.10566000000E+00 0.  1.
         22    1    1    0    0    0  0.26771651949E+02 -0.46114697510E+01 -0.15413746008E+02  0.31234125045E+02  0.00000000000E+00 0.  1.
</event>
<event>
 5    1  0.1751027E-003  0.9118800E+02  0.7818608E-02  0.1130116E+00
         25   -1    0    0    0    0  0.00000000000E+00  0.00000000000E+00  0.99999998245E-14  0.12500000000E+03  0.12500000000E+03 0.  0.
        -13    1    3    3    0    0  0.36183112268E+02 -0.21582915293E+02 -0.83225654908E+01  0.42945501584E+02  0.10566000000E+00 0.  1.
         23    2    1    0    0    0  0.22218692741E+02  0.24425054338E+02 -0.79932328238E+01  0.91027285102E+02  0.84450111164E+02 0.  0.
         13    1    3    3    0    0 -0.13964419526E+02  0.46007969631E+02  0.32933266701E+00  0.48081783518E+02  0.10566000000E+00 0. -1.
         22    1    1    0    0    0 -0.22218692741E+02 -0.24425054338E+02  0.79932328238E+01  0.33972714898E+02  0.00000000000E+00 0. -1.
</event>
<event>
 5    1  0.1751027E-003  0.9118800E+02  0.7818608E-02  0.1130116E+00
         25   -1    0    0    0    0  0.00000000000E+00  0.00000000000E+00  0.99999998245E-14  0.12500000000E+03  0.12500000000E+03 0.  0.
        -13    1    3    3    0    0  0.36858400083E+02 -0.43439824096E+01 -0.33025179888E+02  0.49679830018E+02  0.10566000000E+00 0.  1.
         23    2    1    0    0    0 -0.85280084423E+01 -0.28796675661E+01 -0.28262172171E+02  0.95339086509E+02  0.90607790103E+02 0.  0.
         13    1    3    3    0    0 -0.45386408526E+02  0.14643148435E+01  0.47630077173E+01  0.45659256492E+02  0.10566000000E+00 0. -1.
         22    1    1    0    0    0  0.85280084423E+01  0.28796675661E+01  0.28262172171E+02  0.29660913491E+02  0.00000000000E+00 0.  1.
</event>
<event>
 5    1  0.1751027E-003  0.9118800E+02  0.7818608E-02  0.1130116E+00
         25   -1    0    0    0    0  0.00000000000E+00  0.00000000000E+00  0.99999998245E-14  0.12500000000E+03  0.12500000000E+03 0.  0.
        -13    1    3    3    0    0 -0.12989472692E+02 -0.26737482869E+02 -0.17651999288E+02  0.34572006506E+02  0.10566000000E+00 0. -1.
         23    2    1    0    0    0 -0.45507563297E+02 -0.74737373758E+00 -0.80780887598E+00  0.79479131820E+02  0.65151998856E+02 0.  0.
         13    1    3    3    0    0 -0.32518090605E+02  0.25990109131E+02  0.16844190412E+02  0.44907125314E+02  0.10566000000E+00 0.  1.
         22    1    1    0    0    0  0.45507563297E+02  0.74737373758E+00  0.80780887598E+00  0.45520868180E+02  0.00000000000E+00 0.  1.
</event>
<event>
 5    1  0.1751027E-003  0.9118800E+02  0.7818608E-02  0.1130116E+00
         25   -1    0    0    0    0  0.00000000000E+00  0.00000000000E+00  0.99999998245E-14  0.12500000000E+03  0.12500000000E+03 0.  0.
        -13    1    3    3    0    0 -0.63106531177E+01 -0.49718517932E+02  0.31644691537E+02  0.59271857020E+02  0.10566000000E+00 0. -1.
         23    2    1    0    0    0  0.38735359964E+01 -0.15021687503E+02  0.24299150848E+02  0.96171123704E+02  0.91748465524E+02 0.  0.
         13    1    3    3    0    0  0.10184189114E+02  0.34696830429E+02 -0.73455406889E+01  0.36899266684E+02  0.10566000000E+00 0.  1.
         22    1    1    0    0    0 -0.38735359964E+01  0.15021687503E+02 -0.24299150848E+02  0.28828876296E+02  0.00000000000E+00 0. -1.
</event>
<event>
 5    1  0.1751027E-003  0.9118800E+02  0.7818608E-02  0.1130116E+00
         25   -1    0    0    0    0  0.00000000000E+00  0.00000000000E+00  0.99999998245E-14  0.12500000000E+03  0.12500000000E+03 0.  0.
        -13    1    3    3    0    0  0.29127229998E+02 -0.33728647828E+02  0.32693100311E+01  0.44684636776E+02  0.10566000000E+00 0.  1.
         23    2    1    0    0    0  0.21862276641E+02  0.16875889638E+02  0.85717631496E+01  0.96082359804E+02  0.91627451951E+02 0.  0.
         13    1    3    3    0    0 -0.72649533575E+01  0.50604537466E+02  0.53024531185E+01  0.51397723028E+02  0.10566000000E+00 0. -1.
         22    1    1    0    0    0 -0.21862276641E+02 -0.16875889638E+02 -0.85717631496E+01  0.28917640196E+02  0.00000000000E+00 0. -1.
</event>
<event>
 5    1  0.1751027E-003  0.9118800E+02  0.7818608E-02  0.1130116E+00
         25   -1    0    0    0    0  0.00000000000E+00  0.00000000000E+00  0.99999998245E-14  0.12500000000E+03  0.12500000000E+03 0.  0.
        -13    1    3    3    0    0  0.49053621909E+01  0.49004119121E+02 -0.21252832375E+02  0.53639167751E+02  0.10566000000E+00 0.  1.
         23    2    1    0    0    0 -0.69736749373E+01  0.25881369429E+02  0.11819481458E+02  0.95705332096E+02  0.91111651417E+02 0.  0.
         13    1    3    3    0    0 -0.11879037128E+02 -0.23122749692E+02  0.33072313833E+02  0.42066164345E+02  0.10566000000E+00 0. -1.
         22    1    1    0    0    0  0.69736749373E+01 -0.25881369429E+02 -0.11819481458E+02  0.29294667904E+02  0.00000000000E+00 0.  1.
</event>
<event>
 5    1  0.1751027E-003  0.9118800E+02  0.7818608E-02  0.1130116E+00
         25   -1    0    0    0    0  0.00000000000E+00  0.00000000000E+00  0.99999998245E-14  0.12500000000E+03  0.12500000000E+03 0.  0.
        -13    1    3    3    0    0 -0.12780229292E+02 -0.36104642875E+02  0.46114210873E+02  0.59945067406E+02  0.10566000000E+00 0.  1.
         23    2    1    0    0    0 -0.61570792694E+01 -0.54057352992E+01  0.27169250998E+02  0.96622195310E+02  0.92360970260E+02 0.  0.
         13    1    3    3    0    0  0.66231500225E+01  0.30698907575E+02 -0.18944959875E+02  0.36677127904E+02  0.10566000000E+00 0. -1.
         22    1    1    0    0    0  0.61570792694E+01  0.54057352992E+01 -0.27169250998E+02  0.28377804690E+02  0.00000000000E+00 0.  1.
</event>
<event>
 5    1  0.1751027E-003  0.9118800E+02  0.7818608E-02  0.1130116E+00
         25   -1    0    0    0    0  0.00000000000E+00  0.00000000000E+00  0.99999998245E-14  0.12500000000E+03  0.12500000000E+03 0.  0.
        -13    1    3    3    0    0  0.58779626055E+01  0.41440630014E+02  0.10464546546E+02  0.43143877419E+02  0.10566000000E+00 0.  1.
         23    2    1    0    0    0 -0.23753086935E+02  0.90032241010E+01 -0.16515674523E+02  0.94700912751E+02  0.89723063856E+02 0.  0.
         13    1    3    3    0    0 -0.29631049541E+02 -0.32437405913E+02 -0.26980221069E+02  0.51557035332E+02  0.10566000000E+00 0. -1.
         22    1    1    0    0    0  0.23753086935E+02 -0.90032241010E+01  0.16515674523E+02  0.30299087249E+02  0.00000000000E+00 0. -1.
</event>
<event>
 5    1  0.1751027E-003  0.9118800E+02  0.7818608E-02  0.1130116E+00
         25   -1    0    0    0    0  0.00000000000E+00  0.00000000000E+00  0.99999998245E-14  0.12500000000E+03  0.12500000000E+03 0.  0.
        -13    1    3    3    0    0 -0.17728193187E+02 -0.14583211818E+02 -0.52213211303E+02  0.57036738154E+02  0.10566000000E+00 0. -1.
         23    2    1    0    0    0 -0.12682065662E+02 -0.21542372100E+02 -0.13707815496E+02  0.96490128187E+02  0.92182059245E+02 0.  0.
         13    1    3    3    0    0  0.50461275244E+01 -0.69591602820E+01  0.38505395807E+02  0.39453390033E+02  0.10566000000E+00 0.  1.
         22    1    1    0    0    0  0.12682065662E+02  0.21542372100E+02  0.13707815496E+02  0.28509871813E+02  0.00000000000E+00 0. -1.
</event>
<event>
 5    1  0.1751027E-003  0.9118800E+02  0.7818608E-02  0.1130116E+00
         25   -1    0    0    0    0  0.00000000000E+00  0.00000000000E+00  0.99999998245E-14  0.12500000000E+03  0.12500000000E+03 0.  0.
        -13    1    3    3    0    0  0.27679496895E+02 -0.29012125147E+02  0.22067749540E+02  0.45769582560E+02  0.10566000000E+00 0.  1.
         23    2    1    0    0    0 -0.76450875337E+01 -0.59687911009E+01 -0.18387301268E+02  0.10421138103E+03  0.10211682162E+03 0.  0.
         13    1    3    3    0    0 -0.35324584428E+02  0.23043334047E+02 -0.40455050808E+02  0.58441798474E+02  0.10566000000E+00 0. -1.
         22    1    1    0    0    0  0.76450875337E+01  0.59687911009E+01  0.18387301268E+02  0.20788618966E+02  0.00000000000E+00 0. -1.
</event>
<event>
 5    1  0.1751027E-003  0.9118800E+02  0.7818608E-02  0.1130116E+00
         25   -1    0    0    0    0  0.00000000000E+00  0.00000000000E+00  0.99999998245E-14  0.12500000000E+03  0.12500000000E+03 0.  0.
        -13    1    3    3    0    0  0.56497051842E+02  0.16865271839E+02 -0.49005637683E+01  0.59164017361E+02  0.10566000000E+00 0. -1.
         23    2    1    0    0    0  0.21522490004E+02  0.20953972487E+02 -0.58857962859E+01  0.94390701790E+02  0.89289839554E+02 0.  0.
         13    1    3    3    0    0 -0.34974561838E+02  0.40887006483E+01 -0.98523251756E+00  0.35226684429E+02  0.10566000000E+00 0.  1.
         22    1    1    0    0    0 -0.21522490004E+02 -0.20953972487E+02  0.58857962859E+01  0.30609298210E+02  0.00000000000E+00 0. -1.
</event>
<event>
 5    1  0.1751027E-003  0.9118800E+02  0.7818608E-02  0.1130116E+00
         25   -1    0    0    0    0  0.00000000000E+00  0.00000000000E+00  0.99999998245E-14  0.12500000000E+03  0.12500000000E+03 0.  0.
        -13    1    3    3    0    0  0.55595878982E+01  0.37319443416E+02  0.18051165605E+02  0.41827091917E+02  0.10566000000E+00 0. -1.
         23    2    1    0    0    0  0.26543724574E+02 -0.46350224869E+01  0.23750145929E+02  0.89081729171E+02  0.81519520931E+02 0.  0.
         13    1    3    3    0    0  0.20984136676E+02 -0.41954465903E+02  0.56989803236E+01  0.47254637254E+02  0.10566000000E+00 0.  1.
         22    1    1    0    0    0 -0.26543724574E+02  0.46350224869E+01 -0.23750145929E+02  0.35918270829E+02  0.00000000000E+00 0.  1.
</event>
<event>
 5    1  0.1751027E-003  0.9118800E+02  0.7818608E-02  0.1130116E+00
         25   -1    0    0    0    0  0.00000000000E+00  0.00000000000E+00  0.99999998245E-14  0.12500000000E+03  0.12500000000E+03 0.  0.
        -13    1    3    3    0    0 -0.30836287004E+01  0.12661995617E+02  0.39795110529E+02  0.41874776239E+02  0.10566000000E+00 0.  1.
         23    2    1    0    0    0  0.18685564832E+02  0.18276235203E+02 -0.10395958724E+02  0.96870885828E+02  0.92696933375E+02 0.  0.
         13    1    3    3    0    0  0.21769193532E+02  0.56142395866E+01 -0.50191069253E+02  0.54996109590E+02  0.10566000000E+00 0. -1.
         22    1    1    0    0    0 -0.18685564832E+02 -0.18276235203E+02  0.10395958724E+02  0.28129114172E+02  0.00000000000E+00 0. -1.
</event>
<event>
 5    1  0.1751027E-003  0.9118800E+02  0.7818608E-02  0.1130116E+00
         25   -1    0    0    0    0  0.00000000000E+00  0.00000000000E+00  0.99999998245E-14  0.12500000000E+03  0.12500000000E+03 0.  0.
        -13    1    3    3    0    0  0.48396521999E+02 -0.65445273924E+01 -0.13831671344E+02  0.50758058243E+02  0.10566000000E+00 0. -1.
         23    2    1    0    0    0  0.25425055815E+02  0.49695088298E+01  0.19306174580E+02  0.92691210822E+02  0.86878091056E+02 0.  0.
         13    1    3    3    0    0 -0.22971466184E+02  0.11514036222E+02  0.33137845924E+02  0.41933152579E+02  0.10566000000E+00 0.  1.
         22    1    1    0    0    0 -0.25425055815E+02 -0.49695088298E+01 -0.19306174580E+02  0.32308789178E+02  0.00000000000E+00 0. -1.
</event>
<event>
 5    1  0.1751027E-003  0.9118800E+02  0.7818608E-02  0.1130116E+00
         25   -1    0    0    0    0  0.00000000000E+00  0.00000000000E+00  0.99999998245E-14  0.12500000000E+03  0.12500000000E+03 0.  0.
        -13    1    3    3    0    0 -0.13939584998E+02 -0.30801367017E+02 -0.24050577128E+02  0.41490693707E+02  0.10566000000E+00 0.  1.
         23    2    1    0    0    0  0.22400355206E+02 -0.12398401849E+02  0.12760509584E+02  0.96393586618E+02  0.92051054608E+02 0.  0.
         13    1    3    3    0    0  0.36339940204E+02  0.18402965168E+02  0.36811086712E+02  0.54902892911E+02  0.10566000000E+00 0. -1.
         22    1    1    0    0    0 -0.22400355206E+02  0.12398401849E+02 -0.12760509584E+02  0.28606413382E+02  0.00000000000E+00 0. -1.
</event>
<event>
 5    1  0.1751027E-003  0.9118800E+02  0.7818608E-02  0.1130116E+00
         25   -1    0    0    0    0  0.00000000000E+00  0.00000000000E+00  0.99999998245E-14  0.12500000000E+03  0.12500000000E+03 0.  0.
        -13    1    3    3    0    0  0.22855593612E+02 -0.29775532489E+02 -0.31850283308E+01  0.37671156922E+02  0.10566000000E+00 0. -1.
         23    2    1    0    0    0 -0.27283993643E+02 -0.40343484046E+01  0.10188950731E+02  0.95597500223E+02  0.90963591924E+02 0.  0.
         13    1    3    3    0    0 -0.50139587255E+02  0.25741184084E+02  0.13373979061E+02  0.57926343300E+02  0.10566000000E+00 0.  1.
         22    1    1    0    0    0  0.27283993643E+02  0.40343484046E+01 -0.10188950731E+02  0.29402499777E+02  0.00000000000E+00 0.  1.
</event>
<event>
 5    1  0.1751027E-003  0.9118800E+02  0.7818608E-02  0.1130116E+00
         25   -1    0    0    0    0  0.00000000000E+00  0.00000000000E+00  0.99999998245E-14  0.12500000000E+03  0.12500000000E+03 0.  0.
        -13    1    3    3    0    0 -0.26366472903E+02  0.39229984144E+02 -0.33031826386E+02  0.57665373213E+02  0.10566000000E+00 0. -1.
         23    2    1    0    0    0 -0.23565375971E+02  0.19243387981E+02 -0.22249525426E+01  0.94494503127E+02  0.89435036656E+02 0.  0.
         13    1    3    3    0    0  0.28010969319E+01 -0.19986596163E+02  0.30806873843E+02  0.36829129914E+02  0.10566000000E+00 0.  1.
         22    1    1    0    0    0  0.23565375971E+02 -0.19243387981E+02  0.22249525426E+01  0.30505496873E+02  0.00000000000E+00 0. -1.
</event>
<event>
 5    1  0.1751027E-003  0.9118800E+02  0.7818608E-02  0.1130116E+00
         25   -1    0    0    0    0  0.00000000000E+00  0.00000000000E+00  0.99999998245E-14  0.12500000000E+03  0.12500000000E+03 0.  0.
        -13    1    3    3    0    0  0.20593076619E+02 -0.16274182921E+02  0.30556202259E+02  0.40281714151E+02  0.10566000000E+00 0.  1.
         23    2    1    0    0    0 -0.22259588212E+02 -0.17442343482E+02 -0.53715356747E+01  0.96214969011E+02  0.91808181840E+02 0.  0.
         13    1    3    3    0    0 -0.42852664831E+02 -0.11681605608E+01 -0.35927737934E+02  0.55933254861E+02  0.10566000000E+00 0. -1.
         22    1    1    0    0    0  0.22259588212E+02  0.17442343482E+02  0.53715356747E+01  0.28785030989E+02  0.00000000000E+00 0. -1.
</event>
<event>
 5    1  0.1751027E-003  0.9118800E+02  0.7818608E-02  0.1130116E+00
         25   -1    0    0    0    0  0.00000000000E+00  0.00000000000E+00  0.99999998245E-14  0.12500000000E+03  0.12500000000E+03 0.  0.
        -13    1    3    3    0    0  0.35196792005E+02  0.48661016064E+02 -0.71378043380E+01  0.60478657943E+02  0.10566000000E+00 0. -1.
         23    2    1    0    0    0  0.23871315664E+02  0.14965868861E+02 -0.67475635706E+01  0.96028521674E+02  0.91553975438E+02 0.  0.
         13    1    3    3    0    0 -0.11325476341E+02 -0.33695147203E+02  0.39024076736E+00  0.35549863731E+02  0.10566000000E+00 0.  1.
         22    1    1    0    0    0 -0.23871315664E+02 -0.14965868861E+02  0.67475635706E+01  0.28971478326E+02  0.00000000000E+00 0. -1.
</event>
<event>
 5    1  0.1751027E-003  0.9118800E+02  0.7818608E-02  0.1130116E+00
         25   -1    0    0    0    0  0.00000000000E+00  0.00000000000E+00  0.99999998245E-14  0.12500000000E+03  0.12500000000E+03 0.  0.
        -13    1    3    3    0    0 -0.88991868303E+01  0.39032800268E+02  0.44737107431E+02  0.60034781322E+02  0.10566000000E+00 0. -1.
         23    2    1    0    0    0 -0.12897272967E+02  0.11299372123E+02  0.26394219481E+02  0.93525084871E+02  0.88069695229E+02 0.  0.
         13    1    3    3    0    0 -0.39980861366E+01 -0.27733428145E+02 -0.18342887950E+02  0.33490303549E+02  0.10566000000E+00 0.  1.
         22    1    1    0    0    0  0.12897272967E+02 -0.11299372123E+02 -0.26394219481E+02  0.31474915129E+02  0.00000000000E+00 0. -1.
</event>
<event>
 5    1  0.1751027E-003  0.9118800E+02  0.7818608E-02  0.1130116E+00
         25   -1    0    0    0    0  0.00000000000E+00  0.00000000000E+00  0.99999998245E-14  0.12500000000E+03  0.12500000000E+03 0.  0.
        -13    1    3    3    0    0  0.13708635678E+02 -0.16476488219E+02 -0.27137625137E+02  0.34581255302E+02  0.10566000000E+00 0.  1.
         23    2    1    0    0    0  0.20345124595E+01  0.23243008747E+02  0.17778617139E+02  0.95666470995E+02  0.91058320590E+02 0.  0.
         13    1    3    3    0    0 -0.11674123218E+02  0.39719496965E+02  0.44916242275E+02  0.61085215693E+02  0.10566000000E+00 0. -1.
         22    1    1    0    0    0 -0.20345124595E+01 -0.23243008747E+02 -0.17778617139E+02  0.29333529005E+02  0.00000000000E+00 0. -1.
</event>
<event>
 5    1  0.1751027E-003  0.9118800E+02  0.7818608E-02  0.1130116E+00
         25   -1    0    0    0    0  0.00000000000E+00  0.00000000000E+00  0.99999998245E-14  0.12500000000E+03  0.12500000000E+03 0.  0.
        -13    1    3    3    0    0  0.13730215827E+02 -0.10138284371E+02  0.34232652481E+02  0.38251657435E+02  0.10566000000E+00 0.  1.
         23    2    1    0    0    0 -0.21065497010E+02 -0.15906995205E+00 -0.14840599829E+02  0.99231339367E+02  0.95827109117E+02 0.  0.
         13    1    3    3    0    0 -0.34795712837E+02  0.99792144188E+01 -0.49073252310E+02  0.60979681932E+02  0.10566000000E+00 0. -1.
         22    1    1    0    0    0  0.21065497010E+02  0.15906995205E+00  0.14840599829E+02  0.25768660633E+02  0.00000000000E+00 0. -1.
</event>
<event>
 5    1  0.1751027E-003  0.9118800E+02  0.7818608E-02  0.1130116E+00
         25   -1    0    0    0    0  0.00000000000E+00  0.00000000000E+00  0.99999998245E-14  0.12500000000E+03  0.12500000000E+03 0.  0.
        -13    1    3    3    0    0  0.57715792611E+02 -0.25139394693E+01 -0.95010093227E+00  0.57778425595E+02  0.10566000000E+00 0.  1.
         23    2    1    0    0    0  0.20544801907E+02  0.12925829986E+02  0.87801213309E+01  0.99188055152E+02  0.95770631135E+02 0.  0.
         13    1    3    3    0    0 -0.37170990704E+02  0.15439769456E+02  0.97302222632E+01  0.41409629558E+02  0.10566000000E+00 0. -1.
         22    1    1    0    0    0 -0.20544801907E+02 -0.12925829986E+02 -0.87801213309E+01  0.25811944848E+02  0.00000000000E+00 0.  1.
</event>
<event>
 5    1  0.1751027E-003  0.9118800E+02  0.7818608E-02  0.1130116E+00
         25   -1    0    0    0    0  0.00000000000E+00  0.00000000000E+00  0.99999998245E-14  0.12500000000E+03  0.12500000000E+03 0.  0.
        -13    1    3    3    0    0 -0.15656779666E+02  0.40550262872E+02  0.40461291698E+02  0.59385064270E+02  0.10566000000E+00 0.  1.
         23    2    1    0    0    0 -0.18352164675E+02  0.10065379181E+02  0.18641853803E+02  0.96970863025E+02  0.92831652772E+02 0.  0.
         13    1    3    3    0    0 -0.26953850086E+01 -0.30484883691E+02 -0.21819437894E+02  0.37585798755E+02  0.10566000000E+00 0. -1.
         22    1    1    0    0    0  0.18352164675E+02 -0.10065379181E+02 -0.18641853803E+02  0.28029136975E+02  0.00000000000E+00 0.  1.
</event>
<event>
 5    1  0.1751027E-003  0.9118800E+02  0.7818608E-02  0.1130116E+00
         25   -1    0    0    0    0  0.00000000000E+00  0.00000000000E+00  0.99999998245E-14  0.12500000000E+03  0.12500000000E+03 0.  0.
        -13    1    3    3    0    0 -0.34005486275E+02 -0.22265218555E+02 -0.17135040036E+02  0.44110472851E+02  0.10566000000E+00 0.  1.
         23    2    1    0    0    0 -0.96431247759E+01  0.44755237193E+00  0.25221347933E+02  0.97994323742E+02  0.94199686494E+02 0.  0.
         13    1    3    3    0    0  0.24362361499E+02  0.22712770927E+02  0.42356387969E+02  0.53883850891E+02  0.10566000000E+00 0. -1.
         22    1    1    0    0    0  0.96431247759E+01 -0.44755237193E+00 -0.25221347933E+02  0.27005676258E+02  0.00000000000E+00 0. -1.
</event>
<event>
 5    1  0.1751027E-003  0.9118800E+02  0.7818608E-02  0.1130116E+00
         25   -1    0    0    0    0  0.00000000000E+00  0.00000000000E+00  0.99999998245E-14  0.12500000000E+03  0.12500000000E+03 0.  0.
        -13    1    3    3    0    0  0.44333522702E+02  0.34160630229E+02 -0.22027782017E+02  0.60146855590E+02  0.10566000000E+00 0. -1.
         23    2    1    0    0    0  0.24302936758E+02  0.10943429941E+02  0.73596507506E+00  0.98336672403E+02  0.94652882158E+02 0.  0.
         13    1    3    3    0    0 -0.20030585943E+02 -0.23217200288E+02  0.22763747092E+02  0.38189816813E+02  0.10566000000E+00 0.  1.
         22    1    1    0    0    0 -0.24302936758E+02 -0.10943429941E+02 -0.73596507506E+00  0.26663327597E+02  0.00000000000E+00 0. -1.
</event>
<event>
 5    1  0.1751027E-003  0.9118800E+02  0.7818608E-02  0.1130116E+00
         25   -1    0    0    0    0  0.00000000000E+00  0.00000000000E+00  0.99999998245E-14  0.12500000000E+03  0.12500000000E+03 0.  0.
        -13    1    3    3    0    0  0.25129835962E+02  0.36855680738E+02 -0.13204536678E+02  0.46521186690E+02  0.10566000000E+00 0. -1.
         23    2    1    0    0    0  0.23088986979E+01 -0.49250264301E+01 -0.28079884023E+02  0.96398133186E+02  0.92057228377E+02 0.  0.
         13    1    3    3    0    0 -0.22820937264E+02 -0.41780707168E+02 -0.14875347345E+02  0.49876946496E+02  0.10566000000E+00 0.  1.
         22    1    1    0    0    0 -0.23088986979E+01  0.49250264301E+01  0.28079884023E+02  0.28601866814E+02  0.00000000000E+00 0. -1.
</event>
<event>
 5    1  0.1751027E-003  0.9118800E+02  0.7818608E-02  0.1130116E+00
         25   -1    0    0    0    0  0.00000000000E+00  0.00000000000E+00  0.99999998245E-14  0.12500000000E+03  0.12500000000E+03 0.  0.
        -13    1    3    3    0    0 -0.25701223101E+02 -0.12700836638E+02 -0.26456476954E+02  0.39010517262E+02  0.10566000000E+00 0. -1.
         23    2    1    0    0    0 -0.13251641004E+02  0.22396251322E+02  0.15181593665E+02  0.94872291013E+02  0.89961507064E+02 0.  0.
         13    1    3    3    0    0  0.12449582097E+02  0.35097087961E+02  0.41638070619E+02  0.55861773751E+02  0.10566000000E+00 0.  1.
         22    1    1    0    0    0  0.13251641004E+02 -0.22396251322E+02 -0.15181593665E+02  0.30127708987E+02  0.00000000000E+00 0.  1.
</event>
<event>
 5    1  0.1751027E-003  0.9118800E+02  0.7818608E-02  0.1130116E+00
         25   -1    0    0    0    0  0.00000000000E+00  0.00000000000E+00  0.99999998245E-14  0.12500000000E+03  0.12500000000E+03 0.  0.
        -13    1    3    3    0    0  0.34223042786E+02 -0.17828826268E+02 -0.16773671839E+02  0.42076726757E+02  0.10566000000E+00 0. -1.
         23    2    1    0    0    0  0.16267620895E+02  0.56292206541E+01  0.25853670298E+02  0.93939802276E+02  0.88656362260E+02 0.  0.
         13    1    3    3    0    0 -0.17955421890E+02  0.23458046922E+02  0.42627342136E+02  0.51863075519E+02  0.10566000000E+00 0.  1.
         22    1    1    0    0    0 -0.16267620895E+02 -0.56292206541E+01 -0.25853670298E+02  0.31060197724E+02  0.00000000000E+00 0.  1.
</event>
<event>
 5    1  0.1751027E-003  0.9118800E+02  0.7818608E-02  0.1130116E+00
         25   -1    0    0    0    0  0.00000000000E+00  0.00000000000E+00  0.99999998245E-14  0.12500000000E+03  0.12500000000E+03 0.  0.
        -13    1    3    3    0    0  0.17446297547E+02  0.30571189129E+02  0.51527540913E+02  0.62402480235E+02  0.10566000000E+00 0. -1.
         23    2    1    0    0    0  0.70936797088E+01  0.15998978781E+02  0.22462140009E+02  0.96524829278E+02  0.92229102346E+02 0.  0.
         13    1    3    3    0    0 -0.10352617838E+02 -0.14572210348E+02 -0.29065400903E+02  0.34122349043E+02  0.10566000000E+00 0.  1.
         22    1    1    0    0    0 -0.70936797088E+01 -0.15998978781E+02 -0.22462140009E+02  0.28475170722E+02  0.00000000000E+00 0. -1.
</event>
<event>
 5    1  0.1751027E-003  0.9118800E+02  0.7818608E-02  0.1130116E+00
         25   -1    0    0    0    0  0.00000000000E+00  0.00000000000E+00  0.99999998245E-14  0.12500000000E+03  0.12500000000E+03 0.  0.
        -13    1    3    3    0    0 -0.86426198230E+01 -0.45662498338E+02  0.99779333347E+01  0.47532398946E+02  0.10566000000E+00 0.  1.
         23    2    1    0    0    0 -0.29641493722E+02 -0.51444230074E+01 -0.24064626861E+01  0.94819305826E+02  0.89887854889E+02 0.  0.
         13    1    3    3    0    0 -0.20998873899E+02  0.40518075330E+02 -0.12384396021E+02  0.47286906881E+02  0.10566000000E+00 0. -1.
         22    1    1    0    0    0  0.29641493722E+02  0.51444230074E+01  0.24064626861E+01  0.30180694174E+02  0.00000000000E+00 0. -1.
</event>
<event>
 5    1  0.1751027E-003  0.9118800E+02  0.7818608E-02  0.1130116E+00
         25   -1    0    0    0    0  0.00000000000E+00  0.00000000000E+00  0.99999998245E-14  0.12500000000E+03  0.12500000000E+03 0.  0.
        -13    1    3    3    0    0 -0.98807635519E+01 -0.37157191148E+02 -0.35998110945E+02  0.52670309454E+02  0.10566000000E+00 0.  1.
         23    2    1    0    0    0 -0.12395494817E+02 -0.27121469509E+02  0.48322320012E+01  0.94791179000E+02  0.89848732602E+02 0.  0.
         13    1    3    3    0    0 -0.25147312652E+01  0.10035721639E+02  0.40830342946E+02  0.42120869546E+02  0.10566000000E+00 0. -1.
         22    1    1    0    0    0  0.12395494817E+02  0.27121469509E+02 -0.48322320012E+01  0.30208821000E+02  0.00000000000E+00 0.  1.
</event>
<event>
 5    1  0.1751027E-003  0.9118800E+02  0.7818608E-02  0.1130116E+00
         25   -1    0    0    0    0  0.00000000000E+00  0.00000000000E+00  0.99999998245E-14  0.12500000000E+03  0.12500000000E+03 0.  0.
        -13    1    3    3    0    0 -0.12819471948E+02  0.27786920420E+02 -0.25052468791E+02  0.39548567155E+02  0.10566000000E+00 0.  1.
         23    2    1    0    0    0  0.13017095949E+02  0.11934739967E+02  0.22779531115E+02  0.96176574755E+02  0.91755891848E+02 0.  0.
         13    1    3    3    0    0  0.25836567898E+02 -0.15852180453E+02  0.47831999905E+02  0.56628007600E+02  0.10566000000E+00 0. -1.
         22    1    1    0    0    0 -0.13017095949E+02 -0.11934739967E+02 -0.22779531115E+02  0.28823425245E+02  0.00000000000E+00 0. -1.
</event>
<event>
 5    1  0.1751027E-003  0.9118800E+02  0.7818608E-02  0.1130116E+00
         25   -1    0    0    0    0  0.00000000000E+00  0.00000000000E+00  0.99999998245E-14  0.12500000000E+03  0.12500000000E+03 0.  0.
        -13    1    3    3    0    0  0.11695501406E+02 -0.22352191352E+02  0.26794745063E+02  0.36801830639E+02  0.10566000000E+00 0. -1.
         23    2    1    0    0    0 -0.34732193543E+01  0.29558976056E+02  0.67281510524E+01  0.94486653170E+02  0.89424064393E+02 0.  0.
         13    1    3    3    0    0 -0.15168720760E+02  0.51911167408E+02 -0.20066594010E+02  0.57684822531E+02  0.10566000000E+00 0.  1.
         22    1    1    0    0    0  0.34732193543E+01 -0.29558976056E+02 -0.67281510524E+01  0.30513346830E+02  0.00000000000E+00 0.  1.
</event>
<event>
 5    1  0.1751027E-003  0.9118800E+02  0.7818608E-02  0.1130116E+00
         25   -1    0    0    0    0  0.00000000000E+00  0.00000000000E+00  0.99999998245E-14  0.12500000000E+03  0.12500000000E+03 0.  0.
        -13    1    3    3    0    0  0.30046154829E+01  0.45466017970E+02 -0.21052530163E+02  0.50193691780E+02  0.10566000000E+00 0. -1.
         23    2    1    0    0    0 -0.10068369743E+02  0.25134615254E+02  0.15338466008E+02  0.93881042872E+02  0.88573476380E+02 0.  0.
         13    1    3    3    0    0 -0.13072985226E+02 -0.20331402716E+02  0.36390996171E+02  0.43687351092E+02  0.10566000000E+00 0.  1.
         22    1    1    0    0    0  0.10068369743E+02 -0.25134615254E+02 -0.15338466008E+02  0.31118957128E+02  0.00000000000E+00 0. -1.
</event>
<event>
 5    1  0.1751027E-003  0.9118800E+02  0.7818608E-02  0.1130116E+00
         25   -1    0    0    0    0  0.00000000000E+00  0.00000000000E+00  0.99999998245E-14  0.12500000000E+03  0.12500000000E+03 0.  0.
        -13    1    3    3    0    0 -0.15835879748E+02 -0.14527938695E+02  0.55304358170E+02  0.59333121329E+02  0.10566000000E+00 0. -1.
         23    2    1    0    0    0 -0.20313851073E+02 -0.65890089579E+01  0.20190577460E+02  0.95610767233E+02  0.90981821306E+02 0.  0.
         13    1    3    3    0    0 -0.44779713254E+01  0.79389297368E+01 -0.35113780709E+02  0.36277645903E+02  0.10566000000E+00 0.  1.
         22    1    1    0    0    0  0.20313851073E+02  0.65890089579E+01 -0.20190577460E+02  0.29389232767E+02  0.00000000000E+00 0. -1.
</event>
<event>
 5    1  0.1751027E-003  0.9118800E+02  0.7818608E-02  0.1130116E+00
         25   -1    0    0    0    0  0.00000000000E+00  0.00000000000E+00  0.99999998245E-14  0.12500000000E+03  0.12500000000E+03 0.  0.
        -13    1    3    3    0    0 -0.13920825434E+02  0.15224274198E+02 -0.41802494162E+02  0.46615743991E+02  0.10566000000E+00 0.  1.
         23    2    1    0    0    0 -0.15715183513E+01 -0.24290505735E+02 -0.10631223792E+02  0.98438349860E+02  0.94787063807E+02 0.  0.
         13    1    3    3    0    0  0.12349307083E+02 -0.39514779933E+02  0.31171270370E+02  0.51822605869E+02  0.10566000000E+00 0. -1.
         22    1    1    0    0    0  0.15715183513E+01  0.24290505735E+02  0.10631223792E+02  0.26561650140E+02  0.00000000000E+00 0.  1.
</event>
<event>
 5    1  0.1751027E-003  0.9118800E+02  0.7818608E-02  0.1130116E+00
         25   -1    0    0    0    0  0.00000000000E+00  0.00000000000E+00  0.99999998245E-14  0.12500000000E+03  0.12500000000E+03 0.  0.
        -13    1    3    3    0    0  0.10484687117E+02 -0.35525415285E+02 -0.29750991341E+02  0.47509119597E+02  0.10566000000E+00 0.  1.
         23    2    1    0    0    0  0.26651049360E+02 -0.44895588023E+01  0.57615000480E+01  0.97366153850E+02  0.93362403903E+02 0.  0.
         13    1    3    3    0    0  0.16166362244E+02  0.31035856483E+02  0.35512491389E+02  0.49857034253E+02  0.10566000000E+00 0. -1.
         22    1    1    0    0    0 -0.26651049360E+02  0.44895588023E+01 -0.57615000480E+01  0.27633846150E+02  0.00000000000E+00 0.  1.
</event>
<event>
 5    1  0.1751027E-003  0.9118800E+02  0.7818608E-02  0.1130116E+00
         25   -1    0    0    0    0  0.00000000000E+00  0.00000000000E+00  0.99999998245E-14  0.12500000000E+03  0.12500000000E+03 0.  0.
        -13    1    3    3    0    0 -0.27507731958E+02  0.49143459507E+02  0.26260744094E+02  0.62140106004E+02  0.10566000000E+00 0.  1.
         23    2    1    0    0    0 -0.90434398645E+01  0.22165170531E+02  0.15155487652E+02  0.96666849889E+02  0.92421385362E+02 0.  0.
         13    1    3    3    0    0  0.18464292093E+02 -0.26978288976E+02 -0.11105256442E+02  0.34526743885E+02  0.10566000000E+00 0. -1.
         22    1    1    0    0    0  0.90434398645E+01 -0.22165170531E+02 -0.15155487652E+02  0.28333150111E+02  0.00000000000E+00 0.  1.
</event>
<event>
 5    1  0.1751027E-003  0.9118800E+02  0.7818608E-02  0.1130116E+00
         25   -1    0    0    0    0  0.00000000000E+00  0.00000000000E+00  0.99999998245E-14  0.12500000000E+03  0.12500000000E+03 0.  0.
        -13    1    3    3    0    0  0.36805493911E+02  0.26093346175E+02  0.40263623650E+02  0.60470469241E+02  0.10566000000E+00 0.  1.
         23    2    1    0    0    0  0.79435646927E+01  0.17027806686E+02  0.22995286849E+02  0.95304383525E+02  0.90559902171E+02 0.  0.
         13    1    3    3    0    0 -0.28861929219E+02 -0.90655394888E+01 -0.17268336802E+02  0.34833914285E+02  0.10566000000E+00 0. -1.
         22    1    1    0    0    0 -0.79435646927E+01 -0.17027806686E+02 -0.22995286849E+02  0.29695616475E+02  0.00000000000E+00 0.  1.
</event>
<event>
 5    1  0.1751027E-003  0.9118800E+02  0.7818608E-02  0.1130116E+00
         25   -1    0    0    0    0  0.00000000000E+00  0.00000000000E+00  0.99999998245E-14  0.12500000000E+03  0.12500000000E+03 0.  0.
        -13    1    3    3    0    0  0.44415443475E+01  0.29228246278E+02 -0.38264579005E+02  0.48355008708E+02  0.10566000000E+00 0.  1.
         23    2    1    0    0    0 -0.84126595852E+01 -0.13615671438E+02 -0.25538274521E+02  0.94860942027E+02  0.89945736456E+02 0.  0.
         13    1    3    3    0    0 -0.12854203933E+02 -0.42843917716E+02  0.12726304484E+02  0.46505933319E+02  0.10566000000E+00 0. -1.
         22    1    1    0    0    0  0.84126595852E+01  0.13615671438E+02  0.25538274521E+02  0.30139057973E+02  0.00000000000E+00 0.  1.
</event>
<event>
 5    1  0.1751027E-003  0.9118800E+02  0.7818608E-02  0.1130116E+00
         25   -1    0    0    0    0  0.00000000000E+00  0.00000000000E+00  0.99999998245E-14  0.12500000000E+03  0.12500000000E+03 0.  0.
        -13    1    3    3    0    0 -0.36381854369E+02  0.12676495399E+02  0.33804105483E+02  0.51254868788E+02  0.10566000000E+00 0.  1.
         23    2    1    0    0    0 -0.23285577745E+02  0.22529072011E+02 -0.38990259751E+01  0.92365974503E+02  0.86408874693E+02 0.  0.
         13    1    3    3    0    0  0.13096276625E+02  0.98525766115E+01 -0.37703131458E+02  0.41111105715E+02  0.10566000000E+00 0. -1.
         22    1    1    0    0    0  0.23285577745E+02 -0.22529072011E+02  0.38990259751E+01  0.32634025497E+02  0.00000000000E+00 0.  1.
</event>
<event>
 5    1  0.1751027E-003  0.9118800E+02  0.7818608E-02  0.1130116E+00
         25   -1    0    0    0    0  0.00000000000E+00  0.00000000000E+00  0.99999998245E-14  0.12500000000E+03  0.12500000000E+03 0.  0.
        -13    1    3    3    0    0  0.24934015253E+02 -0.10680380832E+02 -0.25950257560E+02  0.37539348460E+02  0.10566000000E+00 0. -1.
         23    2    1    0    0    0 -0.73043062718E+01  0.29000664790E+02  0.47244049055E+00  0.95089890532E+02  0.90263351549E+02 0.  0.
         13    1    3    3    0    0 -0.32238321524E+02  0.39681045623E+02  0.26422698051E+02  0.57550542071E+02  0.10566000000E+00 0.  1.
         22    1    1    0    0    0  0.73043062718E+01 -0.29000664790E+02 -0.47244049055E+00  0.29910109468E+02  0.00000000000E+00 0.  1.
</event>
<event>
 5    1  0.1751027E-003  0.9118800E+02  0.7818608E-02  0.1130116E+00
         25   -1    0    0    0    0  0.00000000000E+00  0.00000000000E+00  0.99999998245E-14  0.12500000000E+03  0.12500000000E+03 0.  0.
        -13    1    3    3    0    0 -0.59171763676E+01 -0.16077150571E+02 -0.29087142827E+02  0.33757381245E+02  0.10566000000E+00 0.  1.
         23    2    1    0    0    0  0.16355298024E+02  0.25800258558E+02  0.73636166502E+01  0.93577524520E+02  0.88144092995E+02 0.  0.
         13    1    3    3    0    0  0.22272474392E+02  0.41877409129E+02  0.36450759477E+02  0.59820143275E+02  0.10566000000E+00 0. -1.
         22    1    1    0    0    0 -0.16355298024E+02 -0.25800258558E+02 -0.73636166502E+01  0.31422475480E+02  0.00000000000E+00 0. -1.
</event>
<event>
 5    1  0.1751027E-003  0.9118800E+02  0.7818608E-02  0.1130116E+00
         25   -1    0    0    0    0  0.00000000000E+00  0.00000000000E+00  0.99999998245E-14  0.12500000000E+03  0.12500000000E+03 0.  0.
        -13    1    3    3    0    0  0.12787653471E+02  0.11251387648E+02 -0.41143215048E+02  0.44529688005E+02  0.10566000000E+00 0.  1.
         23    2    1    0    0    0 -0.27194907643E+02  0.56639610361E+01 -0.10152109157E+02  0.95424524067E+02  0.90725580829E+02 0.  0.
         13    1    3    3    0    0 -0.39982561115E+02 -0.55874266117E+01  0.30991105891E+02  0.50894836062E+02  0.10566000000E+00 0. -1.
         22    1    1    0    0    0  0.27194907643E+02 -0.56639610361E+01  0.10152109157E+02  0.29575475933E+02  0.00000000000E+00 0. -1.
</event>
<event>
 5    1  0.1751027E-003  0.9118800E+02  0.7818608E-02  0.1130116E+00
         25   -1    0    0    0    0  0.00000000000E+00  0.00000000000E+00  0.99999998245E-14  0.12500000000E+03  0.12500000000E+03 0.  0.
        -13    1    3    3    0    0  0.86892256255E+01  0.69367080805E+01 -0.48919190474E+02  0.50166910625E+02  0.10566000000E+00 0. -1.
         23    2    1    0    0    0 -0.36566681921E+01  0.27010008563E+02 -0.94207368233E+01  0.96161448248E+02  0.91735282537E+02 0.  0.
         13    1    3    3    0    0 -0.12345893818E+02  0.20073300483E+02  0.39498453650E+02  0.45994537624E+02  0.10566000000E+00 0.  1.
         22    1    1    0    0    0  0.36566681921E+01 -0.27010008563E+02  0.94207368233E+01  0.28838551752E+02  0.00000000000E+00 0.  1.
</event>
<event>
 5    1  0.1751027E-003  0.9118800E+02  0.7818608E-02  0.1130116E+00
         25   -1    0    0    0    0  0.00000000000E+00  0.00000000000E+00  0.99999998245E-14  0.12500000000E+03  0.12500000000E+03 0.  0.
        -13    1    3    3    0    0 -0.25770056253E+02 -0.19872655865E+02  0.27931652584E+02  0.42885972422E+02  0.10566000000E+00 0.  1.
         23    2    1    0    0    0  0.21322285960E+02  0.52890062084E+01  0.16592123196E+02  0.97469798087E+02  0.93501066955E+02 0.  0.
         13    1    3    3    0    0  0.47092342214E+02  0.25161662073E+02 -0.11339529389E+02  0.54583825665E+02  0.10566000000E+00 0. -1.
         22    1    1    0    0    0 -0.21322285960E+02 -0.52890062084E+01 -0.16592123196E+02  0.27530201913E+02  0.00000000000E+00 0.  1.
</event>
<event>
 5    1  0.1751027E-003  0.9118800E+02  0.7818608E-02  0.1130116E+00
         25   -1    0    0    0    0  0.00000000000E+00  0.00000000000E+00  0.99999998245E-14  0.12500000000E+03  0.12500000000E+03 0.  0.
        -13    1    3    3    0    0  0.13042300700E+02 -0.12771832241E+02 -0.32625341474E+02  0.37385095649E+02  0.10566000000E+00 0. -1.
         23    2    1    0    0    0  0.92520903422E+01  0.78303786861E+01  0.24192114602E+02  0.97941278394E+02  0.94129270678E+02 0.  0.
         13    1    3    3    0    0 -0.37902103578E+01  0.20602210927E+02  0.56817456076E+02  0.60556182745E+02  0.10566000000E+00 0.  1.
         22    1    1    0    0    0 -0.92520903422E+01 -0.78303786861E+01 -0.24192114602E+02  0.27058721606E+02  0.00000000000E+00 0.  1.
</event>
<event>
 5    1  0.1751027E-003  0.9118800E+02  0.7818608E-02  0.1130116E+00
         25   -1    0    0    0    0  0.00000000000E+00  0.00000000000E+00  0.99999998245E-14  0.12500000000E+03  0.12500000000E+03 0.  0.
        -13    1    3    3    0    0 -0.13808571992E+02  0.21854160206E+02 -0.51886200609E+02  0.57969560603E+02  0.10566000000E+00 0.  1.
         23    2    1    0    0    0 -0.14346969244E+02  0.21105408333E+02 -0.13952055046E+02  0.95915061847E+02  0.91398935780E+02 0.  0.
         13    1    3    3    0    0 -0.53839725215E+00 -0.74875187312E+00  0.37934145564E+02  0.37945501244E+02  0.10566000000E+00 0. -1.
         22    1    1    0    0    0  0.14346969244E+02 -0.21105408333E+02  0.13952055046E+02  0.29084938153E+02  0.00000000000E+00 0.  1.
</event>
<event>
 5    1  0.1751027E-003  0.9118800E+02  0.7818608E-02  0.1130116E+00
         25   -1    0    0    0    0  0.00000000000E+00  0.00000000000E+00  0.99999998245E-14  0.12500000000E+03  0.12500000000E+03 0.  0.
        -13    1    3    3    0    0  0.23647557157E+02 -0.11577563563E+02  0.45484542809E+02  0.52555701272E+02  0.10566000000E+00 0.  1.
         23    2    1    0    0    0 -0.62894966020E+01  0.14917209066E+02  0.16076508594E+02  0.10218476337E+03  0.99605174780E+02 0.  0.
         13    1    3    3    0    0 -0.29937053759E+02  0.26494772629E+02 -0.29408034215E+02  0.49629062100E+02  0.10566000000E+00 0. -1.
         22    1    1    0    0    0  0.62894966020E+01 -0.14917209066E+02 -0.16076508594E+02  0.22815236628E+02  0.00000000000E+00 0. -1.
</event>
<event>
 5    1  0.1751027E-003  0.9118800E+02  0.7818608E-02  0.1130116E+00
         25   -1    0    0    0    0  0.00000000000E+00  0.00000000000E+00  0.99999998245E-14  0.12500000000E+03  0.12500000000E+03 0.  0.
        -13    1    3    3    0    0 -0.81143155405E+01 -0.35899335433E+02 -0.16418753509E+02  0.40301253480E+02  0.10566000000E+00 0.  1.
         23    2    1    0    0    0  0.28590351332E+02 -0.64395795987E+01  0.97024072784E+01  0.94129090041E+02  0.88922845829E+02 0.  0.
         13    1    3    3    0    0  0.36704666872E+02  0.29459755834E+02  0.26121160787E+02  0.53827836562E+02  0.10566000000E+00 0. -1.
         22    1    1    0    0    0 -0.28590351332E+02  0.64395795987E+01 -0.97024072784E+01  0.30870909959E+02  0.00000000000E+00 0. -1.
</event>
<event>
 5    1  0.1751027E-003  0.9118800E+02  0.7818608E-02  0.1130116E+00
         25   -1    0    0    0    0  0.00000000000E+00  0.00000000000E+00  0.99999998245E-14  0.12500000000E+03  0.12500000000E+03 0.  0.
        -13    1    3    3    0    0  0.23108266385E+02 -0.66530532483E+01 -0.22398468320E+02  0.32862708956E+02  0.10566000000E+00 0. -1.
         23    2    1    0    0    0 -0.21509195691E+02  0.12499378634E+02  0.16560272577E+02  0.95114843261E+02  0.90297900392E+02 0.  0.
         13    1    3    3    0    0 -0.44617462076E+02  0.19152431882E+02  0.38958740897E+02  0.62252134304E+02  0.10566000000E+00 0.  1.
         22    1    1    0    0    0  0.21509195691E+02 -0.12499378634E+02 -0.16560272577E+02  0.29885156739E+02  0.00000000000E+00 0.  1.
</event>
<event>
 5    1  0.1751027E-003  0.9118800E+02  0.7818608E-02  0.1130116E+00
         25   -1    0    0    0    0  0.00000000000E+00  0.00000000000E+00  0.99999998245E-14  0.12500000000E+03  0.12500000000E+03 0.  0.
        -13    1    3    3    0    0 -0.26438967362E+02 -0.39122662435E+00  0.29380994008E+02  0.39527535040E+02  0.10566000000E+00 0. -1.
         23    2    1    0    0    0  0.84256920218E+01 -0.17998846583E+02 -0.16060393573E+02  0.99448346314E+02  0.96109763180E+02 0.  0.
         13    1    3    3    0    0  0.34864659384E+02 -0.17607619958E+02 -0.45441387580E+02  0.59920811274E+02  0.10566000000E+00 0.  1.
         22    1    1    0    0    0 -0.84256920218E+01  0.17998846583E+02  0.16060393573E+02  0.25551653686E+02  0.00000000000E+00 0.  1.
</event>
<event>
 5    1  0.1751027E-003  0.9118800E+02  0.7818608E-02  0.1130116E+00
         25   -1    0    0    0    0  0.00000000000E+00  0.00000000000E+00  0.99999998245E-14  0.12500000000E+03  0.12500000000E+03 0.  0.
        -13    1    3    3    0    0  0.10802266139E+02 -0.87018138336E+01 -0.44623635706E+02  0.46729974807E+02  0.10566000000E+00 0.  1.
         23    2    1    0    0    0 -0.95448773799E+01 -0.30704487713E+02 -0.12944914570E+02  0.90338190135E+02  0.83423902652E+02 0.  0.
         13    1    3    3    0    0 -0.20347143519E+02 -0.22002673879E+02  0.31678721136E+02  0.43608215328E+02  0.10566000000E+00 0. -1.
         22    1    1    0    0    0  0.95448773799E+01  0.30704487713E+02  0.12944914570E+02  0.34661809865E+02  0.00000000000E+00 0. -1.
</event>
<event>
 5    1  0.1751027E-003  0.9118800E+02  0.7818608E-02  0.1130116E+00
         25   -1    0    0    0    0  0.00000000000E+00  0.00000000000E+00  0.99999998245E-14  0.12500000000E+03  0.12500000000E+03 0.  0.
        -13    1    3    3    0    0 -0.39658446497E+02  0.30686915383E+02 -0.26717849276E+01  0.50215821740E+02  0.10566000000E+00 0.  1.
         23    2    1    0    0    0 -0.26710474969E+02 -0.10731336377E+02 -0.10591540117E+02  0.94327670849E+02  0.89201556669E+02 0.  0.
         13    1    3    3    0    0  0.12947971527E+02 -0.41418251760E+02 -0.79197551892E+01  0.44111849109E+02  0.10566000000E+00 0. -1.
         22    1    1    0    0    0  0.26710474969E+02  0.10731336377E+02  0.10591540117E+02  0.30672329151E+02  0.00000000000E+00 0. -1.
</event>
<event>
 5    1  0.1751027E-003  0.9118800E+02  0.7818608E-02  0.1130116E+00
         25   -1    0    0    0    0  0.00000000000E+00  0.00000000000E+00  0.99999998245E-14  0.12500000000E+03  0.12500000000E+03 0.  0.
        -13    1    3    3    0    0  0.33133959787E+02  0.21860366027E+02  0.12578378002E+02  0.41640865159E+02  0.10566000000E+00 0.  1.
         23    2    1    0    0    0 -0.13957929465E+02  0.19089659199E+02 -0.15675407320E+02  0.96628230969E+02  0.92369138474E+02 0.  0.
         13    1    3    3    0    0 -0.47091889252E+02 -0.27707068284E+01 -0.28253785323E+02  0.54987365810E+02  0.10566000000E+00 0. -1.
         22    1    1    0    0    0  0.13957929465E+02 -0.19089659199E+02  0.15675407320E+02  0.28371769031E+02  0.00000000000E+00 0. -1.
</event>
<event>
 5    1  0.1751027E-003  0.9118800E+02  0.7818608E-02  0.1130116E+00
         25   -1    0    0    0    0  0.00000000000E+00  0.00000000000E+00  0.99999998245E-14  0.12500000000E+03  0.12500000000E+03 0.  0.
        -13    1    3    3    0    0  0.37836559740E+02  0.33877746763E+02  0.10327090310E+02  0.51826315101E+02  0.10566000000E+00 0. -1.
         23    2    1    0    0    0 -0.80222809437E+01  0.23763538740E+02  0.72686136190E+01  0.98886870947E+02  0.95376714856E+02 0.  0.
         13    1    3    3    0    0 -0.45858840684E+02 -0.10114208023E+02 -0.30584766909E+01  0.47060555845E+02  0.10566000000E+00 0.  1.
         22    1    1    0    0    0  0.80222809437E+01 -0.23763538740E+02 -0.72686136190E+01  0.26113129053E+02  0.00000000000E+00 0.  1.
</event>
<event>
 4    1  0.1751027E-003  0.9118800E+02  0.7818608E-02  0.1130116E+00
         25   -1    0    0    0    0  0.00000000000E+00  0.00000000000E+00  0.99999998245E-14  0.12500000000E+03  0.12500000000E+03 0.  0.
        -13    1    1    0    0    0  0.18944417235E+01  0.13349003452E+02  0.12692726427E+02  0.18517593547E+02  0.10566000000E+00 0. -1.
         13    1    1    0    0    0  0.34656167412E+02  0.12597201117E+02 -0.39674285625E+02  0.54164559627E+02  0.10566000000E+00 0.  1.
         22    1    1    0    0    0 -0.36550609136E+02 -0.25946204569E+02  0.26981559198E+02  0.52317846826E+02  0.00000000000E+00 0.  1.
</event>
<event>
 5    1  0.1751027E-003  0.9118800E+02  0.7818608E-02  0.1130116E+00
         25   -1    0    0    0    0  0.00000000000E+00  0.00000000000E+00  0.99999998245E-14  0.12500000000E+03  0.12500000000E+03 0.  0.
        -13    1    3    3    0    0 -0.43812354962E+02 -0.38230890279E+02 -0.21900909350E+02  0.62135210737E+02  0.10566000000E+00 0.  1.
         23    2    1    0    0    0 -0.17747403911E+02 -0.19747800216E+02 -0.13694289246E+02  0.95125604326E+02  0.90312795779E+02 0.  0.
         13    1    3    3    0    0  0.26064951051E+02  0.18483090063E+02  0.82066201045E+01  0.32990393589E+02  0.10566000000E+00 0. -1.
         22    1    1    0    0    0  0.17747403911E+02  0.19747800216E+02  0.13694289246E+02  0.29874395674E+02  0.00000000000E+00 0.  1.
</event>
<event>
 5    1  0.1751027E-003  0.9118800E+02  0.7818608E-02  0.1130116E+00
         25   -1    0    0    0    0  0.00000000000E+00  0.00000000000E+00  0.99999998245E-14  0.12500000000E+03  0.12500000000E+03 0.  0.
        -13    1    3    3    0    0  0.28716696339E+02 -0.46811327123E+02 -0.15104322457E+02  0.56957007617E+02  0.10566000000E+00 0.  1.
         23    2    1    0    0    0  0.29718490047E+02 -0.13895992319E+02 -0.29435741711E+01  0.92061392226E+02  0.85967133583E+02 0.  0.
         13    1    3    3    0    0  0.10017937071E+01  0.32915334804E+02  0.12160748286E+02  0.35104384609E+02  0.10566000000E+00 0. -1.
         22    1    1    0    0    0 -0.29718490047E+02  0.13895992319E+02  0.29435741711E+01  0.32938607774E+02  0.00000000000E+00 0.  1.
</event>
<event>
 5    1  0.1751027E-003  0.9118800E+02  0.7818608E-02  0.1130116E+00
         25   -1    0    0    0    0  0.00000000000E+00  0.00000000000E+00  0.99999998245E-14  0.12500000000E+03  0.12500000000E+03 0.  0.
        -13    1    3    3    0    0 -0.18440718312E+02  0.41788476430E+02  0.38148570285E+02  0.59511859600E+02  0.10566000000E+00 0. -1.
         23    2    1    0    0    0 -0.41000310322E+01  0.24942597795E+02  0.52087822966E+01  0.99191574007E+02  0.95775223841E+02 0.  0.
         13    1    3    3    0    0  0.14340687280E+02 -0.16845878635E+02 -0.32939787989E+02  0.39679714407E+02  0.10566000000E+00 0.  1.
         22    1    1    0    0    0  0.41000310322E+01 -0.24942597795E+02 -0.52087822966E+01  0.25808425993E+02  0.00000000000E+00 0. -1.
</event>
<event>
 5    1  0.1751027E-003  0.9118800E+02  0.7818608E-02  0.1130116E+00
         25   -1    0    0    0    0  0.00000000000E+00  0.00000000000E+00  0.99999998245E-14  0.12500000000E+03  0.12500000000E+03 0.  0.
        -13    1    3    3    0    0 -0.17023638980E+02  0.56240506767E+02  0.17164314050E+02  0.61216204769E+02  0.10566000000E+00 0. -1.
         23    2    1    0    0    0 -0.18548167206E+01  0.34368663424E+02  0.13246249569E+02  0.88120351164E+02  0.80031792376E+02 0.  0.
         13    1    3    3    0    0  0.15168822259E+02 -0.21871843342E+02 -0.39180644816E+01  0.26904146395E+02  0.10566000000E+00 0.  1.
         22    1    1    0    0    0  0.18548167206E+01 -0.34368663424E+02 -0.13246249569E+02  0.36879648836E+02  0.00000000000E+00 0. -1.
</event>
<event>
 5    1  0.1751027E-003  0.9118800E+02  0.7818608E-02  0.1130116E+00
         25   -1    0    0    0    0  0.00000000000E+00  0.00000000000E+00  0.99999998245E-14  0.12500000000E+03  0.12500000000E+03 0.  0.
        -13    1    3    3    0    0  0.23243001122E+02 -0.26185907494E+02 -0.11038949916E+01  0.35030966310E+02  0.10566000000E+00 0.  1.
         23    2    1    0    0    0 -0.18629143914E+02  0.18905783943E+02 -0.87816921035E+01  0.97043036902E+02  0.92928785775E+02 0.  0.
         13    1    3    3    0    0 -0.41872145036E+02  0.45091691437E+02 -0.76777971119E+01  0.62012070592E+02  0.10566000000E+00 0. -1.
         22    1    1    0    0    0  0.18629143914E+02 -0.18905783943E+02  0.87816921035E+01  0.27956963098E+02  0.00000000000E+00 0. -1.
</event>
<event>
 5    1  0.1751027E-003  0.9118800E+02  0.7818608E-02  0.1130116E+00
         25   -1    0    0    0    0  0.00000000000E+00  0.00000000000E+00  0.99999998245E-14  0.12500000000E+03  0.12500000000E+03 0.  0.
        -13    1    3    3    0    0  0.26029830621E+02  0.30180180253E+02 -0.17645651921E+02  0.43586414833E+02  0.10566000000E+00 0. -1.
         23    2    1    0    0    0 -0.18958918786E+02  0.39297965196E+01 -0.21804890209E+02  0.95839459209E+02  0.91295480732E+02 0.  0.
         13    1    3    3    0    0 -0.44988749406E+02 -0.26250383734E+02 -0.41592382882E+01  0.52253044375E+02  0.10566000000E+00 0.  1.
         22    1    1    0    0    0  0.18958918786E+02 -0.39297965196E+01  0.21804890209E+02  0.29160540791E+02  0.00000000000E+00 0.  1.
</event>
<event>
 5    1  0.1751027E-003  0.9118800E+02  0.7818608E-02  0.1130116E+00
         25   -1    0    0    0    0  0.00000000000E+00  0.00000000000E+00  0.99999998245E-14  0.12500000000E+03  0.12500000000E+03 0.  0.
        -13    1    3    3    0    0  0.44609224142E+02  0.15379267220E+02  0.13949095294E+02  0.49204605093E+02  0.10566000000E+00 0. -1.
         23    2    1    0    0    0  0.13695575332E+02 -0.19767261248E+02  0.16097495216E+02  0.96061396835E+02  0.91598849385E+02 0.  0.
         13    1    3    3    0    0 -0.30913648810E+02 -0.35146528468E+02  0.21483999222E+01  0.46856791742E+02  0.10566000000E+00 0.  1.
         22    1    1    0    0    0 -0.13695575332E+02  0.19767261248E+02 -0.16097495216E+02  0.28938603165E+02  0.00000000000E+00 0.  1.
</event>
<event>
 5    1  0.1751027E-003  0.9118800E+02  0.7818608E-02  0.1130116E+00
         25   -1    0    0    0    0  0.00000000000E+00  0.00000000000E+00  0.99999998245E-14  0.12500000000E+03  0.12500000000E+03 0.  0.
        -13    1    3    3    0    0  0.45201215262E+02  0.42442387723E+01 -0.41288327726E+02  0.61366934047E+02  0.10566000000E+00 0. -1.
         23    2    1    0    0    0  0.24811697465E+02 -0.53949887438E+01 -0.17406553354E+02  0.94215030708E+02  0.89043571789E+02 0.  0.
         13    1    3    3    0    0 -0.20389517797E+02 -0.96392275161E+01  0.23881774371E+02  0.32848096661E+02  0.10566000000E+00 0.  1.
         22    1    1    0    0    0 -0.24811697465E+02  0.53949887438E+01  0.17406553354E+02  0.30784969292E+02  0.00000000000E+00 0. -1.
</event>
<event>
 5    1  0.1751027E-003  0.9118800E+02  0.7818608E-02  0.1130116E+00
         25   -1    0    0    0    0  0.00000000000E+00  0.00000000000E+00  0.99999998245E-14  0.12500000000E+03  0.12500000000E+03 0.  0.
        -13    1    3    3    0    0  0.22259299938E+02  0.17886032782E+02  0.35434518255E+02  0.45508272330E+02  0.10566000000E+00 0.  1.
         23    2    1    0    0    0 -0.14766486901E+01  0.28986628946E+02 -0.67801539592E+01  0.95194369044E+02  0.90407921450E+02 0.  0.
         13    1    3    3    0    0 -0.23735948628E+02  0.11100596163E+02 -0.42214672215E+02  0.49686096714E+02  0.10566000000E+00 0. -1.
         22    1    1    0    0    0  0.14766486901E+01 -0.28986628946E+02  0.67801539592E+01  0.29805630956E+02  0.00000000000E+00 0. -1.
</event>
<event>
 5    1  0.1751027E-003  0.9118800E+02  0.7818608E-02  0.1130116E+00
         25   -1    0    0    0    0  0.00000000000E+00  0.00000000000E+00  0.99999998245E-14  0.12500000000E+03  0.12500000000E+03 0.  0.
        -13    1    3    3    0    0  0.24707108736E+02  0.35838845399E+02  0.39233533258E+02  0.58601581528E+02  0.10566000000E+00 0.  1.
         23    2    1    0    0    0  0.91910676825E+01  0.27804250217E+02  0.75907784294E+01  0.94748190592E+02  0.89788906041E+02 0.  0.
         13    1    3    3    0    0 -0.15516041053E+02 -0.80345951818E+01 -0.31642754828E+02  0.36146609064E+02  0.10566000000E+00 0. -1.
         22    1    1    0    0    0 -0.91910676825E+01 -0.27804250217E+02 -0.75907784294E+01  0.30251809408E+02  0.00000000000E+00 0.  1.
</event>
<event>
 5    1  0.1751027E-003  0.9118800E+02  0.7818608E-02  0.1130116E+00
         25   -1    0    0    0    0  0.00000000000E+00  0.00000000000E+00  0.99999998245E-14  0.12500000000E+03  0.12500000000E+03 0.  0.
        -13    1    3    3    0    0  0.79585969446E+01 -0.55634401862E+02 -0.14708136198E+02  0.58093600080E+02  0.10566000000E+00 0. -1.
         23    2    1    0    0    0 -0.16762468154E+01 -0.27530611045E+02  0.88752211433E+01  0.96025633773E+02  0.91550032459E+02 0.  0.
         13    1    3    3    0    0 -0.96348437600E+01  0.28103790816E+02  0.23583357342E+02  0.37932033693E+02  0.10566000000E+00 0.  1.
         22    1    1    0    0    0  0.16762468154E+01  0.27530611045E+02 -0.88752211433E+01  0.28974366227E+02  0.00000000000E+00 0. -1.
</event>
<event>
 5    1  0.1751027E-003  0.9118800E+02  0.7818608E-02  0.1130116E+00
         25   -1    0    0    0    0  0.00000000000E+00  0.00000000000E+00  0.99999998245E-14  0.12500000000E+03  0.12500000000E+03 0.  0.
        -13    1    3    3    0    0 -0.31859977691E+02 -0.40847845693E+02 -0.22049695305E+02  0.56301020446E+02  0.10566000000E+00 0.  1.
         23    2    1    0    0    0 -0.34311168176E+02 -0.12788842702E+02 -0.15613339857E+02  0.85193126966E+02  0.75321190520E+02 0.  0.
         13    1    3    3    0    0 -0.24511904852E+01  0.28059002991E+02  0.64363554475E+01  0.28892106519E+02  0.10566000000E+00 0. -1.
         22    1    1    0    0    0  0.34311168176E+02  0.12788842702E+02  0.15613339857E+02  0.39806873034E+02  0.00000000000E+00 0.  1.
</event>
<event>
 5    1  0.1751027E-003  0.9118800E+02  0.7818608E-02  0.1130116E+00
         25   -1    0    0    0    0  0.00000000000E+00  0.00000000000E+00  0.99999998245E-14  0.12500000000E+03  0.12500000000E+03 0.  0.
        -13    1    3    3    0    0 -0.20888944479E+02  0.33212940087E+02 -0.58058031833E+01  0.39663155514E+02  0.10566000000E+00 0. -1.
         23    2    1    0    0    0  0.12489094516E+02 -0.68845693180E+01 -0.25788455143E+02  0.95531046928E+02  0.90872227506E+02 0.  0.
         13    1    3    3    0    0  0.33378038996E+02 -0.40097509405E+02 -0.19982651960E+02  0.55867891414E+02  0.10566000000E+00 0.  1.
         22    1    1    0    0    0 -0.12489094516E+02  0.68845693180E+01  0.25788455143E+02  0.29468953072E+02  0.00000000000E+00 0.  1.
</event>
<event>
 5    1  0.1751027E-003  0.9118800E+02  0.7818608E-02  0.1130116E+00
         25   -1    0    0    0    0  0.00000000000E+00  0.00000000000E+00  0.99999998245E-14  0.12500000000E+03  0.12500000000E+03 0.  0.
        -13    1    3    3    0    0 -0.41852416383E+02 -0.43227722147E+02  0.15733202303E+00  0.60168900909E+02  0.10566000000E+00 0. -1.
         23    2    1    0    0    0 -0.21862165495E+02 -0.17932122283E+02 -0.11531246791E+02  0.94463383581E+02  0.89391531452E+02 0.  0.
         13    1    3    3    0    0  0.19990250888E+02  0.25295599864E+02 -0.11688578814E+02  0.34294482673E+02  0.10566000000E+00 0.  1.
         22    1    1    0    0    0  0.21862165495E+02  0.17932122283E+02  0.11531246791E+02  0.30536616419E+02  0.00000000000E+00 0. -1.
</event>
<event>
 5    1  0.1751027E-003  0.9118800E+02  0.7818608E-02  0.1130116E+00
         25   -1    0    0    0    0  0.00000000000E+00  0.00000000000E+00  0.99999998245E-14  0.12500000000E+03  0.12500000000E+03 0.  0.
        -13    1    3    3    0    0  0.27083448968E+02 -0.60536431024E-01  0.38593537153E+02  0.47148585839E+02  0.10566000000E+00 0. -1.
         23    2    1    0    0    0  0.28174325839E+02  0.20923312663E+02  0.13867413225E+01  0.89878771366E+02  0.82732658856E+02 0.  0.
         13    1    3    3    0    0  0.10908768717E+01  0.20983849094E+02 -0.37206795830E+02  0.42730185527E+02  0.10566000000E+00 0.  1.
         22    1    1    0    0    0 -0.28174325839E+02 -0.20923312663E+02 -0.13867413225E+01  0.35121228634E+02  0.00000000000E+00 0. -1.
</event>
<event>
 5    1  0.1751027E-003  0.9118800E+02  0.7818608E-02  0.1130116E+00
         25   -1    0    0    0    0  0.00000000000E+00  0.00000000000E+00  0.99999998245E-14  0.12500000000E+03  0.12500000000E+03 0.  0.
        -13    1    3    3    0    0 -0.22226156516E+02 -0.21095313932E+02 -0.30414688043E+02  0.43174977894E+02  0.10566000000E+00 0. -1.
         23    2    1    0    0    0  0.16778312667E+02 -0.22146292198E+02  0.60323522769E+01  0.96568339688E+02  0.92288054059E+02 0.  0.
         13    1    3    3    0    0  0.39004469183E+02 -0.10509782666E+01  0.36447040320E+02  0.53393361794E+02  0.10566000000E+00 0.  1.
         22    1    1    0    0    0 -0.16778312667E+02  0.22146292198E+02 -0.60323522769E+01  0.28431660312E+02  0.00000000000E+00 0.  1.
</event>
<event>
 5    1  0.1751027E-003  0.9118800E+02  0.7818608E-02  0.1130116E+00
         25   -1    0    0    0    0  0.00000000000E+00  0.00000000000E+00  0.99999998245E-14  0.12500000000E+03  0.12500000000E+03 0.  0.
        -13    1    3    3    0    0  0.28010996056E+02 -0.33316961059E+01 -0.36946971020E+02  0.46484469778E+02  0.10566000000E+00 0. -1.
         23    2    1    0    0    0  0.21151885573E+02  0.18111054095E+02  0.73725451805E+01  0.96194324063E+02  0.91780068729E+02 0.  0.
         13    1    3    3    0    0 -0.68591104832E+01  0.21442750201E+02  0.44319516200E+02  0.49709854285E+02  0.10566000000E+00 0.  1.
         22    1    1    0    0    0 -0.21151885573E+02 -0.18111054095E+02 -0.73725451805E+01  0.28805675937E+02  0.00000000000E+00 0.  1.
</event>
<event>
 5    1  0.1751027E-003  0.9118800E+02  0.7818608E-02  0.1130116E+00
         25   -1    0    0    0    0  0.00000000000E+00  0.00000000000E+00  0.99999998245E-14  0.12500000000E+03  0.12500000000E+03 0.  0.
        -13    1    3    3    0    0 -0.31947931187E+02  0.29780901921E+02 -0.56564536479E+01  0.44040652337E+02  0.10566000000E+00 0.  1.
         23    2    1    0    0    0  0.34900115147E+01  0.25523996163E+02  0.23501372455E+02  0.90129251976E+02  0.83110246022E+02 0.  0.
         13    1    3    3    0    0  0.35437942702E+02 -0.42569057577E+01  0.29157826103E+02  0.46088599639E+02  0.10566000000E+00 0. -1.
         22    1    1    0    0    0 -0.34900115147E+01 -0.25523996163E+02 -0.23501372455E+02  0.34870748024E+02  0.00000000000E+00 0. -1.
</event>
<event>
 5    1  0.1751027E-003  0.9118800E+02  0.7818608E-02  0.1130116E+00
         25   -1    0    0    0    0  0.00000000000E+00  0.00000000000E+00  0.99999998245E-14  0.12500000000E+03  0.12500000000E+03 0.  0.
        -13    1    3    3    0    0  0.27961028470E+02  0.33780083403E+02 -0.34761955279E+02  0.55958179443E+02  0.10566000000E+00 0.  1.
         23    2    1    0    0    0  0.23573225811E+02 -0.91526665598E+00 -0.76790944732E+01  0.10019066345E+03  0.97070417029E+02 0.  0.
         13    1    3    3    0    0 -0.43878026586E+01 -0.34695350058E+02  0.27082860806E+02  0.44232484006E+02  0.10566000000E+00 0. -1.
         22    1    1    0    0    0 -0.23573225811E+02  0.91526665598E+00  0.76790944732E+01  0.24809336551E+02  0.00000000000E+00 0.  1.
</event>
<event>
 5    1  0.1751027E-003  0.9118800E+02  0.7818608E-02  0.1130116E+00
         25   -1    0    0    0    0  0.00000000000E+00  0.00000000000E+00  0.99999998245E-14  0.12500000000E+03  0.12500000000E+03 0.  0.
        -13    1    3    3    0    0 -0.14402836202E+02 -0.46478679359E+02 -0.86001350588E+01  0.49413386979E+02  0.10566000000E+00 0. -1.
         23    2    1    0    0    0  0.50966130083E+01 -0.97788878053E+01 -0.27725847415E+02  0.95161690300E+02  0.90362727798E+02 0.  0.
         13    1    3    3    0    0  0.19499449210E+02  0.36699791554E+02 -0.19125712356E+02  0.45748303321E+02  0.10566000000E+00 0.  1.
         22    1    1    0    0    0 -0.50966130083E+01  0.97788878053E+01  0.27725847415E+02  0.29838309700E+02  0.00000000000E+00 0. -1.
</event>
<event>
 5    1  0.1751027E-003  0.9118800E+02  0.7818608E-02  0.1130116E+00
         25   -1    0    0    0    0  0.00000000000E+00  0.00000000000E+00  0.99999998245E-14  0.12500000000E+03  0.12500000000E+03 0.  0.
        -13    1    3    3    0    0 -0.24518151766E+02  0.55174494793E+02  0.15506696291E+02  0.62336453505E+02  0.10566000000E+00 0. -1.
         23    2    1    0    0    0 -0.12030340439E+02  0.24168405002E+02  0.99829052104E+01  0.96216336441E+02  0.91810043624E+02 0.  0.
         13    1    3    3    0    0  0.12487811327E+02 -0.31006089790E+02 -0.55237910802E+01  0.33879882936E+02  0.10566000000E+00 0.  1.
         22    1    1    0    0    0  0.12030340439E+02 -0.24168405002E+02 -0.99829052104E+01  0.28783663559E+02  0.00000000000E+00 0. -1.
</event>
<event>
 5    1  0.1751027E-003  0.9118800E+02  0.7818608E-02  0.1130116E+00
         25   -1    0    0    0    0  0.00000000000E+00  0.00000000000E+00  0.99999998245E-14  0.12500000000E+03  0.12500000000E+03 0.  0.
        -13    1    3    3    0    0 -0.17965900380E+02  0.23489631211E+02 -0.22194968926E+01  0.29655921523E+02  0.10566000000E+00 0.  1.
         23    2    1    0    0    0  0.27458029007E+02 -0.18562023089E+02 -0.42203959162E+01  0.91588867128E+02  0.85277293472E+02 0.  0.
         13    1    3    3    0    0  0.45423929387E+02 -0.42051654300E+02 -0.20008990236E+01  0.61932945605E+02  0.10566000000E+00 0. -1.
         22    1    1    0    0    0 -0.27458029007E+02  0.18562023089E+02  0.42203959162E+01  0.33411132872E+02  0.00000000000E+00 0. -1.
</event>
<event>
 5    1  0.1751027E-003  0.9118800E+02  0.7818608E-02  0.1130116E+00
         25   -1    0    0    0    0  0.00000000000E+00  0.00000000000E+00  0.99999998245E-14  0.12500000000E+03  0.12500000000E+03 0.  0.
        -13    1    3    3    0    0 -0.14816565552E+02  0.58579036391E+02 -0.60683785834E+01  0.60727839595E+02  0.10566000000E+00 0.  1.
         23    2    1    0    0    0  0.28725242943E+01  0.31347242619E+02 -0.19456437532E+01  0.93461348392E+02  0.87979185595E+02 0.  0.
         13    1    3    3    0    0  0.17689089846E+02 -0.27231793772E+02  0.41227348302E+01  0.32733508796E+02  0.10566000000E+00 0. -1.
         22    1    1    0    0    0 -0.28725242943E+01 -0.31347242619E+02  0.19456437532E+01  0.31538651608E+02  0.00000000000E+00 0.  1.
</event>
<event>
 5    1  0.1751027E-003  0.9118800E+02  0.7818608E-02  0.1130116E+00
         25   -1    0    0    0    0  0.00000000000E+00  0.00000000000E+00  0.99999998245E-14  0.12500000000E+03  0.12500000000E+03 0.  0.
        -13    1    3    3    0    0 -0.39897179588E+01  0.37173459248E+02 -0.31495690122E+01  0.37519526528E+02  0.10566000000E+00 0. -1.
         23    2    1    0    0    0 -0.24828329342E+01 -0.12209469363E+02  0.26905886905E+02  0.95349327973E+02  0.90621917841E+02 0.  0.
         13    1    3    3    0    0  0.15068850246E+01 -0.49382928611E+02  0.30055455917E+02  0.57829801445E+02  0.10566000000E+00 0.  1.
         22    1    1    0    0    0  0.24828329342E+01  0.12209469363E+02 -0.26905886905E+02  0.29650672027E+02  0.00000000000E+00 0.  1.
</event>
<event>
 5    1  0.1751027E-003  0.9118800E+02  0.7818608E-02  0.1130116E+00
         25   -1    0    0    0    0  0.00000000000E+00  0.00000000000E+00  0.99999998245E-14  0.12500000000E+03  0.12500000000E+03 0.  0.
        -13    1    3    3    0    0  0.92760052054E+01  0.19293684897E+02 -0.50402000909E+02  0.54760053042E+02  0.10566000000E+00 0. -1.
         23    2    1    0    0    0 -0.16657100294E+02  0.13967496456E+02 -0.28723536978E+02  0.88977902282E+02  0.81360159603E+02 0.  0.
         13    1    3    3    0    0 -0.25933105500E+02 -0.53261884413E+01  0.21678463931E+02  0.34217849240E+02  0.10566000000E+00 0.  1.
         22    1    1    0    0    0  0.16657100294E+02 -0.13967496456E+02  0.28723536978E+02  0.36022097718E+02  0.00000000000E+00 0.  1.
</event>
<event>
 5    1  0.1751027E-003  0.9118800E+02  0.7818608E-02  0.1130116E+00
         25   -1    0    0    0    0  0.00000000000E+00  0.00000000000E+00  0.99999998245E-14  0.12500000000E+03  0.12500000000E+03 0.  0.
        -13    1    3    3    0    0 -0.14305959530E+02  0.52750369418E+02  0.35537648274E+01  0.54771364418E+02  0.10566000000E+00 0.  1.
         23    2    1    0    0    0 -0.14733041577E+02  0.15214328492E+02 -0.17246334018E+02  0.97687469128E+02  0.93791616267E+02 0.  0.
         13    1    3    3    0    0 -0.42708204670E+00 -0.37536040926E+02 -0.20800098845E+02  0.42916104710E+02  0.10566000000E+00 0. -1.
         22    1    1    0    0    0  0.14733041577E+02 -0.15214328492E+02  0.17246334018E+02  0.27312530872E+02  0.00000000000E+00 0. -1.
</event>
<event>
 5    1  0.1751027E-003  0.9118800E+02  0.7818608E-02  0.1130116E+00
         25   -1    0    0    0    0  0.00000000000E+00  0.00000000000E+00  0.99999998245E-14  0.12500000000E+03  0.12500000000E+03 0.  0.
        -13    1    3    3    0    0  0.27917769927E+02  0.35601470981E+02  0.23188360661E+01  0.45301818710E+02  0.10566000000E+00 0.  1.
         23    2    1    0    0    0  0.15512903518E+02 -0.55820634180E+01 -0.24115940870E+02  0.95787190967E+02  0.91223888000E+02 0.  0.
         13    1    3    3    0    0 -0.12404866409E+02 -0.41183534399E+02 -0.26434776936E+02  0.50485372257E+02  0.10566000000E+00 0. -1.
         22    1    1    0    0    0 -0.15512903518E+02  0.55820634180E+01  0.24115940870E+02  0.29212809033E+02  0.00000000000E+00 0. -1.
</event>
<event>
 5    1  0.1751027E-003  0.9118800E+02  0.7818608E-02  0.1130116E+00
         25   -1    0    0    0    0  0.00000000000E+00  0.00000000000E+00  0.99999998245E-14  0.12500000000E+03  0.12500000000E+03 0.  0.
        -13    1    3    3    0    0 -0.26493819681E+01 -0.19739099327E+02 -0.31843890475E+02  0.37559230446E+02  0.10566000000E+00 0. -1.
         23    2    1    0    0    0  0.20569755727E+02 -0.39983282192E+00  0.19188193747E+02  0.96867074517E+02  0.92691793754E+02 0.  0.
         13    1    3    3    0    0  0.23219137695E+02  0.19339266505E+02  0.51032084222E+02  0.59307844071E+02  0.10566000000E+00 0.  1.
         22    1    1    0    0    0 -0.20569755727E+02  0.39983282192E+00 -0.19188193747E+02  0.28132925483E+02  0.00000000000E+00 0.  1.
</event>
<event>
 5    1  0.1751027E-003  0.9118800E+02  0.7818608E-02  0.1130116E+00
         25   -1    0    0    0    0  0.00000000000E+00  0.00000000000E+00  0.99999998245E-14  0.12500000000E+03  0.12500000000E+03 0.  0.
        -13    1    3    3    0    0  0.34846464354E+02  0.19414081421E+01 -0.29958996905E+02  0.45995628088E+02  0.10566000000E+00 0. -1.
         23    2    1    0    0    0 -0.13440902564E+02 -0.10970468686E+02 -0.22584582988E+02  0.96520666552E+02  0.92223460344E+02 0.  0.
         13    1    3    3    0    0 -0.48287366918E+02 -0.12911876828E+02  0.73744139171E+01  0.50525038464E+02  0.10566000000E+00 0.  1.
         22    1    1    0    0    0  0.13440902564E+02  0.10970468686E+02  0.22584582988E+02  0.28479333448E+02  0.00000000000E+00 0. -1.
</event>
<event>
 5    1  0.1751027E-003  0.9118800E+02  0.7818608E-02  0.1130116E+00
         25   -1    0    0    0    0  0.00000000000E+00  0.00000000000E+00  0.99999998245E-14  0.12500000000E+03  0.12500000000E+03 0.  0.
        -13    1    3    3    0    0  0.25537034442E+02 -0.20935391444E+02 -0.43214736976E+02  0.54387088532E+02  0.10566000000E+00 0.  1.
         23    2    1    0    0    0 -0.91154516105E+01 -0.19024186619E+02 -0.14979640489E+02  0.99127219636E+02  0.95691195567E+02 0.  0.
         13    1    3    3    0    0 -0.34652486053E+02  0.19112048254E+01  0.28235096488E+02  0.44740131104E+02  0.10566000000E+00 0. -1.
         22    1    1    0    0    0  0.91154516105E+01  0.19024186619E+02  0.14979640489E+02  0.25872780364E+02  0.00000000000E+00 0.  1.
</event>
<event>
 5    1  0.1751027E-003  0.9118800E+02  0.7818608E-02  0.1130116E+00
         25   -1    0    0    0    0  0.00000000000E+00  0.00000000000E+00  0.99999998245E-14  0.12500000000E+03  0.12500000000E+03 0.  0.
        -13    1    3    3    0    0 -0.58948300057E+02  0.42415827293E+01  0.18248442503E+02  0.61853940226E+02  0.10566000000E+00 0.  1.
         23    2    1    0    0    0 -0.28904214735E+02 -0.38357827102E+01  0.63763901746E+01  0.95153304872E+02  0.90351127375E+02 0.  0.
         13    1    3    3    0    0  0.30044085322E+02 -0.80773654395E+01 -0.11872052328E+02  0.33299364646E+02  0.10566000000E+00 0. -1.
         22    1    1    0    0    0  0.28904214735E+02  0.38357827102E+01 -0.63763901746E+01  0.29846695128E+02  0.00000000000E+00 0.  1.
</event>
<event>
 5    1  0.1751027E-003  0.9118800E+02  0.7818608E-02  0.1130116E+00
         25   -1    0    0    0    0  0.00000000000E+00  0.00000000000E+00  0.99999998245E-14  0.12500000000E+03  0.12500000000E+03 0.  0.
        -13    1    3    3    0    0  0.20259670249E+02  0.51191314838E+02 -0.24202003501E+01  0.55107835081E+02  0.10566000000E+00 0.  1.
         23    2    1    0    0    0  0.24723611953E+02  0.10743649398E+02 -0.95108372290E+01  0.96414356484E+02  0.92079254564E+02 0.  0.
         13    1    3    3    0    0  0.44639417041E+01 -0.40447665440E+02 -0.70906368789E+01  0.41306521404E+02  0.10566000000E+00 0. -1.
         22    1    1    0    0    0 -0.24723611953E+02 -0.10743649398E+02  0.95108372290E+01  0.28585643516E+02  0.00000000000E+00 0.  1.
</event>
<event>
 5    1  0.1751027E-003  0.9118800E+02  0.7818608E-02  0.1130116E+00
         25   -1    0    0    0    0  0.00000000000E+00  0.00000000000E+00  0.99999998245E-14  0.12500000000E+03  0.12500000000E+03 0.  0.
        -13    1    3    3    0    0 -0.43288534284E+01  0.18328198682E+02 -0.28280075879E+02  0.33976987722E+02  0.10566000000E+00 0. -1.
         23    2    1    0    0    0 -0.15722381116E+02 -0.15625784726E+02  0.20711161574E+02  0.94663378072E+02  0.89670756202E+02 0.  0.
         13    1    3    3    0    0 -0.11393527688E+02 -0.33953983408E+02  0.48991237453E+02  0.60686390349E+02  0.10566000000E+00 0.  1.
         22    1    1    0    0    0  0.15722381116E+02  0.15625784726E+02 -0.20711161574E+02  0.30336621928E+02  0.00000000000E+00 0.  1.
</event>
<event>
 5    1  0.1751027E-003  0.9118800E+02  0.7818608E-02  0.1130116E+00
         25   -1    0    0    0    0  0.00000000000E+00  0.00000000000E+00  0.99999998245E-14  0.12500000000E+03  0.12500000000E+03 0.  0.
        -13    1    3    3    0    0 -0.18617516555E+01 -0.49142912324E+02  0.36605317981E+02  0.61306218440E+02  0.10566000000E+00 0. -1.
         23    2    1    0    0    0 -0.79364064609E+01 -0.27186059982E+02  0.13970615962E+02  0.93420789826E+02  0.87921541481E+02 0.  0.
         13    1    3    3    0    0 -0.60746548054E+01  0.21956852342E+02 -0.22634702019E+02  0.32114571386E+02  0.10566000000E+00 0.  1.
         22    1    1    0    0    0  0.79364064609E+01  0.27186059982E+02 -0.13970615962E+02  0.31579210174E+02  0.00000000000E+00 0. -1.
</event>
<event>
 5    1  0.1751027E-003  0.9118800E+02  0.7818608E-02  0.1130116E+00
         25   -1    0    0    0    0  0.00000000000E+00  0.00000000000E+00  0.99999998245E-14  0.12500000000E+03  0.12500000000E+03 0.  0.
        -13    1    3    3    0    0  0.20423381818E+02 -0.32769912862E+02 -0.43542106759E+02  0.58197147171E+02  0.10566000000E+00 0.  1.
         23    2    1    0    0    0  0.52027867292E+01 -0.12098236480E+01 -0.27942349014E+02  0.96551669093E+02  0.92265471728E+02 0.  0.
         13    1    3    3    0    0 -0.15220595089E+02  0.31560089214E+02  0.15599757745E+02  0.38354521921E+02  0.10566000000E+00 0. -1.
         22    1    1    0    0    0 -0.52027867292E+01  0.12098236480E+01  0.27942349014E+02  0.28448330907E+02  0.00000000000E+00 0.  1.
</event>
<event>
 5    1  0.1751027E-003  0.9118800E+02  0.7818608E-02  0.1130116E+00
         25   -1    0    0    0    0  0.00000000000E+00  0.00000000000E+00  0.99999998245E-14  0.12500000000E+03  0.12500000000E+03 0.  0.
        -13    1    3    3    0    0 -0.15360955094E+02  0.37231671870E+01  0.32045536527E+02  0.35731617521E+02  0.10566000000E+00 0.  1.
         23    2    1    0    0    0  0.18190025576E+02 -0.17913116651E+02 -0.13354973598E+02  0.96188333987E+02  0.91771910173E+02 0.  0.
         13    1    3    3    0    0  0.33550980670E+02 -0.21636283838E+02 -0.45400510125E+02  0.60456716467E+02  0.10566000000E+00 0. -1.
         22    1    1    0    0    0 -0.18190025576E+02  0.17913116651E+02  0.13354973598E+02  0.28811666013E+02  0.00000000000E+00 0. -1.
</event>
<event>
 5    1  0.1751027E-003  0.9118800E+02  0.7818608E-02  0.1130116E+00
         25   -1    0    0    0    0  0.00000000000E+00  0.00000000000E+00  0.99999998245E-14  0.12500000000E+03  0.12500000000E+03 0.  0.
        -13    1    3    3    0    0  0.40939266609E+02 -0.52356900579E+01 -0.25241074297E+02  0.48379324061E+02  0.10566000000E+00 0.  1.
         23    2    1    0    0    0 -0.47464807990E+01 -0.22375439953E+02 -0.13015890100E+02  0.98682652334E+02  0.95108690894E+02 0.  0.
         13    1    3    3    0    0 -0.45685747408E+02 -0.17139749895E+02  0.12225184197E+02  0.50303328274E+02  0.10566000000E+00 0. -1.
         22    1    1    0    0    0  0.47464807990E+01  0.22375439953E+02  0.13015890100E+02  0.26317347666E+02  0.00000000000E+00 0.  1.
</event>
<event>
 5    1  0.1751027E-003  0.9118800E+02  0.7818608E-02  0.1130116E+00
         25   -1    0    0    0    0  0.00000000000E+00  0.00000000000E+00  0.99999998245E-14  0.12500000000E+03  0.12500000000E+03 0.  0.
        -13    1    3    3    0    0 -0.39393148092E+02  0.14976368281E+02 -0.54994613502E+01  0.42501376009E+02  0.10566000000E+00 0.  1.
         23    2    1    0    0    0 -0.41175219170E+01  0.27113205275E+01  0.30339362933E+02  0.94262690604E+02  0.89110451973E+02 0.  0.
         13    1    3    3    0    0  0.35275626175E+02 -0.12265047753E+02  0.35838824283E+02  0.51761314594E+02  0.10566000000E+00 0. -1.
         22    1    1    0    0    0  0.41175219170E+01 -0.27113205275E+01 -0.30339362933E+02  0.30737309396E+02  0.00000000000E+00 0. -1.
</event>
<event>
 5    1  0.1751027E-003  0.9118800E+02  0.7818608E-02  0.1130116E+00
         25   -1    0    0    0    0  0.00000000000E+00  0.00000000000E+00  0.99999998245E-14  0.12500000000E+03  0.12500000000E+03 0.  0.
        -13    1    3    3    0    0  0.49525609689E+02 -0.14078659557E+02  0.17867874455E+02  0.54500153868E+02  0.10566000000E+00 0.  1.
         23    2    1    0    0    0  0.20469396641E+02 -0.18140426664E+02 -0.10869431519E+02  0.95568455359E+02  0.90923670404E+02 0.  0.
         13    1    3    3    0    0 -0.29056213048E+02 -0.40617671074E+01 -0.28737305974E+02  0.41068301492E+02  0.10566000000E+00 0. -1.
         22    1    1    0    0    0 -0.20469396641E+02  0.18140426664E+02  0.10869431519E+02  0.29431544641E+02  0.00000000000E+00 0.  1.
</event>
<event>
 5    1  0.1751027E-003  0.9118800E+02  0.7818608E-02  0.1130116E+00
         25   -1    0    0    0    0  0.00000000000E+00  0.00000000000E+00  0.99999998245E-14  0.12500000000E+03  0.12500000000E+03 0.  0.
        -13    1    3    3    0    0  0.29059038025E+02  0.44741430369E+01  0.49228832574E+02  0.57340515933E+02  0.10566000000E+00 0. -1.
         23    2    1    0    0    0  0.13979351721E+02  0.19099414159E+02  0.16815490751E+02  0.95966043587E+02  0.91468633404E+02 0.  0.
         13    1    3    3    0    0 -0.15079686304E+02  0.14625271122E+02 -0.32413341823E+02  0.38625527654E+02  0.10566000000E+00 0.  1.
         22    1    1    0    0    0 -0.13979351721E+02 -0.19099414159E+02 -0.16815490751E+02  0.29033956413E+02  0.00000000000E+00 0.  1.
</event>
<event>
 5    1  0.1751027E-003  0.9118800E+02  0.7818608E-02  0.1130116E+00
         25   -1    0    0    0    0  0.00000000000E+00  0.00000000000E+00  0.99999998245E-14  0.12500000000E+03  0.12500000000E+03 0.  0.
        -13    1    3    3    0    0 -0.29209250006E+02 -0.35828358781E+02  0.39874938452E+02  0.61048124128E+02  0.10566000000E+00 0.  1.
         23    2    1    0    0    0 -0.39520453761E+01 -0.17432973252E+02  0.20443912289E+02  0.97843402851E+02  0.93999205915E+02 0.  0.
         13    1    3    3    0    0  0.25257204630E+02  0.18395385530E+02 -0.19431026163E+02  0.36795278723E+02  0.10566000000E+00 0. -1.
         22    1    1    0    0    0  0.39520453761E+01  0.17432973252E+02 -0.20443912289E+02  0.27156597149E+02  0.00000000000E+00 0.  1.
</event>
<event>
 5    1  0.1751027E-003  0.9118800E+02  0.7818608E-02  0.1130116E+00
         25   -1    0    0    0    0  0.00000000000E+00  0.00000000000E+00  0.99999998245E-14  0.12500000000E+03  0.12500000000E+03 0.  0.
        -13    1    3    3    0    0 -0.23150289796E+02  0.24144651149E+02  0.52134065691E+02  0.61942489991E+02  0.10566000000E+00 0.  1.
         23    2    1    0    0    0 -0.72772487921E+01  0.15867872401E+02  0.23219442419E+02  0.95950211175E+02  0.91446994449E+02 0.  0.
         13    1    3    3    0    0  0.15873041004E+02 -0.82767787487E+01 -0.28914623272E+02  0.34007721184E+02  0.10566000000E+00 0. -1.
         22    1    1    0    0    0  0.72772487921E+01 -0.15867872401E+02 -0.23219442419E+02  0.29049788825E+02  0.00000000000E+00 0.  1.
</event>
<event>
 5    1  0.1751027E-003  0.9118800E+02  0.7818608E-02  0.1130116E+00
         25   -1    0    0    0    0  0.00000000000E+00  0.00000000000E+00  0.99999998245E-14  0.12500000000E+03  0.12500000000E+03 0.  0.
        -13    1    3    3    0    0 -0.41278762087E+02 -0.22976688657E+02 -0.37022519293E+02  0.60021183926E+02  0.10566000000E+00 0.  1.
         23    2    1    0    0    0 -0.22054223632E+02  0.13232947444E+01 -0.18955417943E+02  0.95889044014E+02  0.91363346062E+02 0.  0.
         13    1    3    3    0    0  0.19224538455E+02  0.24299983402E+02  0.18067101349E+02  0.35867860088E+02  0.10566000000E+00 0. -1.
         22    1    1    0    0    0  0.22054223632E+02 -0.13232947444E+01  0.18955417943E+02  0.29110955986E+02  0.00000000000E+00 0.  1.
</event>
<event>
 5    1  0.1751027E-003  0.9118800E+02  0.7818608E-02  0.1130116E+00
         25   -1    0    0    0    0  0.00000000000E+00  0.00000000000E+00  0.99999998245E-14  0.12500000000E+03  0.12500000000E+03 0.  0.
        -13    1    3    3    0    0  0.22959920091E+02  0.14535903262E+02  0.26054035848E+02  0.37646704534E+02  0.10566000000E+00 0. -1.
         23    2    1    0    0    0 -0.28225977290E+02 -0.38282283278E+01  0.44102570629E+01  0.96176199184E+02  0.91755380202E+02 0.  0.
         13    1    3    3    0    0 -0.51185897382E+02 -0.18364131590E+02 -0.21643778785E+02  0.58529494650E+02  0.10566000000E+00 0.  1.
         22    1    1    0    0    0  0.28225977290E+02  0.38282283278E+01 -0.44102570629E+01  0.28823800816E+02  0.00000000000E+00 0.  1.
</event>
<event>
 5    1  0.1751027E-003  0.9118800E+02  0.7818608E-02  0.1130116E+00
         25   -1    0    0    0    0  0.00000000000E+00  0.00000000000E+00  0.99999998245E-14  0.12500000000E+03  0.12500000000E+03 0.  0.
        -13    1    3    3    0    0  0.12084109139E+02 -0.32050554493E+02 -0.23097489369E+02  0.41313059874E+02  0.10566000000E+00 0. -1.
         23    2    1    0    0    0  0.20157335666E+02  0.69011788379E+01  0.16960820069E+02  0.97767411656E+02  0.93898098565E+02 0.  0.
         13    1    3    3    0    0  0.80732265265E+01  0.38951733331E+02  0.40058309438E+02  0.56454351782E+02  0.10566000000E+00 0.  1.
         22    1    1    0    0    0 -0.20157335666E+02 -0.69011788379E+01 -0.16960820069E+02  0.27232588344E+02  0.00000000000E+00 0.  1.
</event>
<event>
 5    1  0.1751027E-003  0.9118800E+02  0.7818608E-02  0.1130116E+00
         25   -1    0    0    0    0  0.00000000000E+00  0.00000000000E+00  0.99999998245E-14  0.12500000000E+03  0.12500000000E+03 0.  0.
        -13    1    3    3    0    0  0.22669724794E+02 -0.25223284628E+02  0.50712323090E+02  0.61007224055E+02  0.10566000000E+00 0.  1.
         23    2    1    0    0    0  0.14514432059E+02 -0.30769062801E+01  0.25161424948E+02  0.95789840882E+02  0.91227518987E+02 0.  0.
         13    1    3    3    0    0 -0.81552927348E+01  0.22146378348E+02 -0.25550898141E+02  0.34782616828E+02  0.10566000000E+00 0. -1.
         22    1    1    0    0    0 -0.14514432059E+02  0.30769062801E+01 -0.25161424948E+02  0.29210159118E+02  0.00000000000E+00 0.  1.
</event>
<event>
 5    1  0.1751027E-003  0.9118800E+02  0.7818608E-02  0.1130116E+00
         25   -1    0    0    0    0  0.00000000000E+00  0.00000000000E+00  0.99999998245E-14  0.12500000000E+03  0.12500000000E+03 0.  0.
        -13    1    3    3    0    0 -0.14665005177E+02  0.32954697040E+02  0.11233021171E+02  0.37779178955E+02  0.10566000000E+00 0. -1.
         23    2    1    0    0    0  0.26376140467E+02  0.84033070096E+01 -0.16212821912E+02  0.92919290080E+02  0.87205633533E+02 0.  0.
         13    1    3    3    0    0  0.41041145645E+02 -0.24551390030E+02 -0.27445843083E+02  0.55140111125E+02  0.10566000000E+00 0.  1.
         22    1    1    0    0    0 -0.26376140467E+02 -0.84033070096E+01  0.16212821912E+02  0.32080709920E+02  0.00000000000E+00 0.  1.
</event>
<event>
 5    1  0.1751027E-003  0.9118800E+02  0.7818608E-02  0.1130116E+00
         25   -1    0    0    0    0  0.00000000000E+00  0.00000000000E+00  0.99999998245E-14  0.12500000000E+03  0.12500000000E+03 0.  0.
        -13    1    3    3    0    0 -0.17065943631E+02 -0.25588365237E+02  0.32243608028E+02  0.44560882961E+02  0.10566000000E+00 0.  1.
         23    2    1    0    0    0 -0.43757939404E+01  0.22328594884E+02  0.17558841019E+02  0.96259321162E+02  0.91868548974E+02 0.  0.
         13    1    3    3    0    0  0.12690149691E+02  0.47916960121E+02 -0.14684767009E+02  0.51698438202E+02  0.10566000000E+00 0. -1.
         22    1    1    0    0    0  0.43757939404E+01 -0.22328594884E+02 -0.17558841019E+02  0.28740678838E+02  0.00000000000E+00 0. -1.
</event>
<event>
 5    1  0.1751027E-003  0.9118800E+02  0.7818608E-02  0.1130116E+00
         25   -1    0    0    0    0  0.00000000000E+00  0.00000000000E+00  0.99999998245E-14  0.12500000000E+03  0.12500000000E+03 0.  0.
        -13    1    3    3    0    0 -0.47306526672E+02  0.40344703392E+00 -0.19515530857E+02  0.51175554164E+02  0.10566000000E+00 0. -1.
         23    2    1    0    0    0 -0.56765584045E+01  0.94442197763E+01 -0.28263106277E+02  0.94664875491E+02  0.89672843564E+02 0.  0.
         13    1    3    3    0    0  0.41629968268E+02  0.90407727424E+01 -0.87475754207E+01  0.43489321328E+02  0.10566000000E+00 0.  1.
         22    1    1    0    0    0  0.56765584045E+01 -0.94442197763E+01  0.28263106277E+02  0.30335124509E+02  0.00000000000E+00 0.  1.
</event>
<event>
 5    1  0.1751027E-003  0.9118800E+02  0.7818608E-02  0.1130116E+00
         25   -1    0    0    0    0  0.00000000000E+00  0.00000000000E+00  0.99999998245E-14  0.12500000000E+03  0.12500000000E+03 0.  0.
        -13    1    3    3    0    0 -0.59102731809E+01 -0.15204044028E+02  0.34469621017E+02  0.38134763943E+02  0.10566000000E+00 0.  1.
         23    2    1    0    0    0  0.23619439642E+02  0.12722091275E+02 -0.80852649435E+01  0.96980345387E+02  0.92844420117E+02 0.  0.
         13    1    3    3    0    0  0.29529712823E+02  0.27926135304E+02 -0.42554885960E+02  0.58845581444E+02  0.10566000000E+00 0. -1.
         22    1    1    0    0    0 -0.23619439642E+02 -0.12722091275E+02  0.80852649435E+01  0.28019654613E+02  0.00000000000E+00 0. -1.
</event>
<event>
 5    1  0.1751027E-003  0.9118800E+02  0.7818608E-02  0.1130116E+00
         25   -1    0    0    0    0  0.00000000000E+00  0.00000000000E+00  0.99999998245E-14  0.12500000000E+03  0.12500000000E+03 0.  0.
        -13    1    3    3    0    0  0.29632547318E+02 -0.35075100147E+02  0.26938093092E+02  0.53235538264E+02  0.10566000000E+00 0.  1.
         23    2    1    0    0    0  0.33571537972E+02 -0.24732345338E+01  0.12871365967E+02  0.88960617198E+02  0.81333598836E+02 0.  0.
         13    1    3    3    0    0  0.39389906543E+01  0.32601865613E+02 -0.14066727125E+02  0.35725078934E+02  0.10566000000E+00 0. -1.
         22    1    1    0    0    0 -0.33571537972E+02  0.24732345338E+01 -0.12871365967E+02  0.36039382802E+02  0.00000000000E+00 0.  1.
</event>
<event>
 5    1  0.1751027E-003  0.9118800E+02  0.7818608E-02  0.1130116E+00
         25   -1    0    0    0    0  0.00000000000E+00  0.00000000000E+00  0.99999998245E-14  0.12500000000E+03  0.12500000000E+03 0.  0.
        -13    1    3    3    0    0  0.22420007695E+02  0.20376593882E+01 -0.30608898734E+02  0.37996376755E+02  0.10566000000E+00 0.  1.
         23    2    1    0    0    0 -0.10594030643E+02 -0.22336138059E+01  0.22130363987E+02  0.10036312670E+03  0.97292248789E+02 0.  0.
         13    1    3    3    0    0 -0.33014038337E+02 -0.42712731942E+01  0.52739262721E+02  0.62366749943E+02  0.10566000000E+00 0. -1.
         22    1    1    0    0    0  0.10594030643E+02  0.22336138059E+01 -0.22130363987E+02  0.24636873302E+02  0.00000000000E+00 0. -1.
</event>
<event>
 5    1  0.1751027E-003  0.9118800E+02  0.7818608E-02  0.1130116E+00
         25   -1    0    0    0    0  0.00000000000E+00  0.00000000000E+00  0.99999998245E-14  0.12500000000E+03  0.12500000000E+03 0.  0.
        -13    1    3    3    0    0  0.13962651341E+02 -0.30665674403E+02 -0.30017995878E+02  0.45126826386E+02  0.10566000000E+00 0.  1.
         23    2    1    0    0    0 -0.74466463958E+01 -0.13397998282E+02  0.18546210643E+02  0.10093922633E+03  0.98029620941E+02 0.  0.
         13    1    3    3    0    0 -0.21409297736E+02  0.17267676121E+02  0.48564206521E+02  0.55812399942E+02  0.10566000000E+00 0. -1.
         22    1    1    0    0    0  0.74466463958E+01  0.13397998282E+02 -0.18546210643E+02  0.24060773673E+02  0.00000000000E+00 0. -1.
</event>
<event>
 5    1  0.1751027E-003  0.9118800E+02  0.7818608E-02  0.1130116E+00
         25   -1    0    0    0    0  0.00000000000E+00  0.00000000000E+00  0.99999998245E-14  0.12500000000E+03  0.12500000000E+03 0.  0.
        -13    1    3    3    0    0  0.25429520438E+02  0.21281083017E+02  0.58408528004E+01  0.33670042019E+02  0.10566000000E+00 0. -1.
         23    2    1    0    0    0 -0.21090830489E+02 -0.19905880593E+02  0.12693665147E+01  0.95971074696E+02  0.91475508603E+02 0.  0.
         13    1    3    3    0    0 -0.46520350927E+02 -0.41186963610E+02 -0.45714862857E+01  0.62301032678E+02  0.10566000000E+00 0.  1.
         22    1    1    0    0    0  0.21090830489E+02  0.19905880593E+02 -0.12693665147E+01  0.29028925304E+02  0.00000000000E+00 0.  1.
</event>
<event>
 5    1  0.1751027E-003  0.9118800E+02  0.7818608E-02  0.1130116E+00
         25   -1    0    0    0    0  0.00000000000E+00  0.00000000000E+00  0.99999998245E-14  0.12500000000E+03  0.12500000000E+03 0.  0.
        -13    1    3    3    0    0 -0.10576152942E+02 -0.36650922968E+02 -0.19925610906E+02  0.43037034046E+02  0.10566000000E+00 0. -1.
         23    2    1    0    0    0 -0.26601725448E+02  0.35716285035E+01  0.10736156099E+02  0.96091984248E+02  0.91640580869E+02 0.  0.
         13    1    3    3    0    0 -0.16025572505E+02  0.40222551472E+02  0.30661767005E+02  0.53054950202E+02  0.10566000000E+00 0.  1.
         22    1    1    0    0    0  0.26601725448E+02 -0.35716285035E+01 -0.10736156099E+02  0.28908015752E+02  0.00000000000E+00 0.  1.
</event>
<event>
 5    1  0.1751027E-003  0.9118800E+02  0.7818608E-02  0.1130116E+00
         25   -1    0    0    0    0  0.00000000000E+00  0.00000000000E+00  0.99999998245E-14  0.12500000000E+03  0.12500000000E+03 0.  0.
        -13    1    3    3    0    0  0.54140043785E+00  0.37921277784E+02 -0.41689489410E+01  0.38153737989E+02  0.10566000000E+00 0.  1.
         23    2    1    0    0    0 -0.99775115003E+01 -0.78757496813E+01  0.27421787835E+02  0.94775297903E+02  0.89826635670E+02 0.  0.
         13    1    3    3    0    0 -0.10518911938E+02 -0.45797027466E+02  0.31590736776E+02  0.56621559914E+02  0.10566000000E+00 0. -1.
         22    1    1    0    0    0  0.99775115003E+01  0.78757496813E+01 -0.27421787835E+02  0.30224702097E+02  0.00000000000E+00 0.  1.
</event>
<event>
 5    1  0.1751027E-003  0.9118800E+02  0.7818608E-02  0.1130116E+00
         25   -1    0    0    0    0  0.00000000000E+00  0.00000000000E+00  0.99999998245E-14  0.12500000000E+03  0.12500000000E+03 0.  0.
        -13    1    3    3    0    0 -0.28717343650E+02  0.10807809893E+02 -0.22215604175E+02  0.37881906154E+02  0.10566000000E+00 0. -1.
         23    2    1    0    0    0  0.27284144476E+02  0.97610341742E+00 -0.54561755987E+01  0.97158535063E+02  0.93084014556E+02 0.  0.
         13    1    3    3    0    0  0.56001488126E+02 -0.98317064759E+01  0.16759428576E+02  0.59276628909E+02  0.10566000000E+00 0.  1.
         22    1    1    0    0    0 -0.27284144476E+02 -0.97610341742E+00  0.54561755987E+01  0.27841464937E+02  0.00000000000E+00 0.  1.
</event>
<event>
 5    1  0.1751027E-003  0.9118800E+02  0.7818608E-02  0.1130116E+00
         25   -1    0    0    0    0  0.00000000000E+00  0.00000000000E+00  0.99999998245E-14  0.12500000000E+03  0.12500000000E+03 0.  0.
        -13    1    3    3    0    0 -0.30877432912E+02 -0.24989998387E+01  0.16653608398E+02  0.35171219771E+02  0.10566000000E+00 0. -1.
         23    2    1    0    0    0  0.20722787414E+02  0.17385086588E+02 -0.94839181867E+01  0.96336087879E+02  0.91972941509E+02 0.  0.
         13    1    3    3    0    0  0.51600220326E+02  0.19884086427E+02 -0.26137526585E+02  0.61164868109E+02  0.10566000000E+00 0.  1.
         22    1    1    0    0    0 -0.20722787414E+02 -0.17385086588E+02  0.94839181867E+01  0.28663912121E+02  0.00000000000E+00 0.  1.
</event>
<event>
 5    1  0.1751027E-003  0.9118800E+02  0.7818608E-02  0.1130116E+00
         25   -1    0    0    0    0  0.00000000000E+00  0.00000000000E+00  0.99999998245E-14  0.12500000000E+03  0.12500000000E+03 0.  0.
        -13    1    3    3    0    0 -0.29506854197E+02 -0.15325023158E+02 -0.42894758639E+02  0.54272297373E+02  0.10566000000E+00 0.  1.
         23    2    1    0    0    0 -0.27546705287E+02  0.38707264878E+01 -0.50842365179E+01  0.96721864335E+02  0.92495762518E+02 0.  0.
         13    1    3    3    0    0  0.19601489099E+01  0.19195749645E+02  0.37810522121E+02  0.42449566963E+02  0.10566000000E+00 0. -1.
         22    1    1    0    0    0  0.27546705287E+02 -0.38707264878E+01  0.50842365179E+01  0.28278135665E+02  0.00000000000E+00 0.  1.
</event>
<event>
 5    1  0.1751027E-003  0.9118800E+02  0.7818608E-02  0.1130116E+00
         25   -1    0    0    0    0  0.00000000000E+00  0.00000000000E+00  0.99999998245E-14  0.12500000000E+03  0.12500000000E+03 0.  0.
        -13    1    3    3    0    0  0.15894921062E+02 -0.63017057572E+01  0.29011295568E+02  0.33675309139E+02  0.10566000000E+00 0. -1.
         23    2    1    0    0    0 -0.20028565071E+02  0.20283375500E+02 -0.11754623707E+02  0.94166091410E+02  0.88974843930E+02 0.  0.
         13    1    3    3    0    0 -0.35923486134E+02  0.26585081257E+02 -0.40765919275E+02  0.60490782271E+02  0.10566000000E+00 0.  1.
         22    1    1    0    0    0  0.20028565071E+02 -0.20283375500E+02  0.11754623707E+02  0.30833908590E+02  0.00000000000E+00 0.  1.
</event>
<event>
 5    1  0.1751027E-003  0.9118800E+02  0.7818608E-02  0.1130116E+00
         25   -1    0    0    0    0  0.00000000000E+00  0.00000000000E+00  0.99999998245E-14  0.12500000000E+03  0.12500000000E+03 0.  0.
        -13    1    3    3    0    0 -0.55918912268E+00  0.22305025293E+02 -0.40115322643E+02  0.45902909718E+02  0.10566000000E+00 0.  1.
         23    2    1    0    0    0 -0.17709751195E+02 -0.17455153790E+02 -0.14329851422E+02  0.96300482182E+02  0.91924537233E+02 0.  0.
         13    1    3    3    0    0 -0.17150562072E+02 -0.39760179083E+02  0.25785471221E+02  0.50397572464E+02  0.10566000000E+00 0. -1.
         22    1    1    0    0    0  0.17709751195E+02  0.17455153790E+02  0.14329851422E+02  0.28699517818E+02  0.00000000000E+00 0.  1.
</event>
<event>
 5    1  0.1751027E-003  0.9118800E+02  0.7818608E-02  0.1130116E+00
         25   -1    0    0    0    0  0.00000000000E+00  0.00000000000E+00  0.99999998245E-14  0.12500000000E+03  0.12500000000E+03 0.  0.
        -13    1    3    3    0    0 -0.13721988980E+02  0.15158815125E+02 -0.27156042569E+02  0.33993300363E+02  0.10566000000E+00 0. -1.
         23    2    1    0    0    0  0.19211667734E+02 -0.16416740583E+02  0.14577407201E+02  0.95826410074E+02  0.91277612362E+02 0.  0.
         13    1    3    3    0    0  0.32933656714E+02 -0.31575555708E+02  0.41733449769E+02  0.61833109711E+02  0.10566000000E+00 0.  1.
         22    1    1    0    0    0 -0.19211667734E+02  0.16416740583E+02 -0.14577407201E+02  0.29173589926E+02  0.00000000000E+00 0.  1.
</event>
<event>
 4    1  0.1751027E-003  0.9118800E+02  0.7818608E-02  0.1130116E+00
         25   -1    0    0    0    0  0.00000000000E+00  0.00000000000E+00  0.99999998245E-14  0.12500000000E+03  0.12500000000E+03 0.  0.
        -13    1    1    0    0    0 -0.11809070855E+02 -0.17179190380E+02 -0.14753334234E+02  0.25539200685E+02  0.10566000000E+00 0.  1.
         13    1    1    0    0    0 -0.99881417587E+01  0.40303114285E+02 -0.25076664840E+02  0.48507260079E+02  0.10566000000E+00 0. -1.
         22    1    1    0    0    0  0.21797212614E+02 -0.23123923905E+02  0.39829999073E+02  0.50953539236E+02  0.00000000000E+00 0. -1.
</event>
<event>
 5    1  0.1751027E-003  0.9118800E+02  0.7818608E-02  0.1130116E+00
         25   -1    0    0    0    0  0.00000000000E+00  0.00000000000E+00  0.99999998245E-14  0.12500000000E+03  0.12500000000E+03 0.  0.
        -13    1    3    3    0    0  0.18699464267E+02  0.33746327236E+02  0.29506170557E+01  0.38693692908E+02  0.10566000000E+00 0. -1.
         23    2    1    0    0    0  0.15888764457E+02 -0.23792380889E+02  0.21933000855E+01  0.96306084450E+02  0.91932154943E+02 0.  0.
         13    1    3    3    0    0 -0.28106998097E+01 -0.57538708125E+02 -0.75731697014E+00  0.57612391542E+02  0.10566000000E+00 0.  1.
         22    1    1    0    0    0 -0.15888764457E+02  0.23792380889E+02 -0.21933000855E+01  0.28693915550E+02  0.00000000000E+00 0.  1.
</event>
<event>
 5    1  0.1751027E-003  0.9118800E+02  0.7818608E-02  0.1130116E+00
         25   -1    0    0    0    0  0.00000000000E+00  0.00000000000E+00  0.99999998245E-14  0.12500000000E+03  0.12500000000E+03 0.  0.
        -13    1    3    3    0    0  0.42526625381E+01 -0.20480438764E+02 -0.41116198077E+02  0.46131187053E+02  0.10566000000E+00 0.  1.
         23    2    1    0    0    0  0.40596623001E+01  0.21211440347E+02 -0.27589525546E+02  0.89963048372E+02  0.82859894357E+02 0.  0.
         13    1    3    3    0    0 -0.19300023803E+00  0.41691879110E+02  0.13526672531E+02  0.43831861318E+02  0.10566000000E+00 0. -1.
         22    1    1    0    0    0 -0.40596623001E+01 -0.21211440347E+02  0.27589525546E+02  0.35036951628E+02  0.00000000000E+00 0. -1.
</event>
<event>
 5    1  0.1751027E-003  0.9118800E+02  0.7818608E-02  0.1130116E+00
         25   -1    0    0    0    0  0.00000000000E+00  0.00000000000E+00  0.99999998245E-14  0.12500000000E+03  0.12500000000E+03 0.  0.
        -13    1    3    3    0    0 -0.62352971893E+00  0.25511326775E+02  0.30821705026E+02  0.40015062762E+02  0.10566000000E+00 0.  1.
         23    2    1    0    0    0 -0.27769360272E+02 -0.11222372143E+02  0.12310614607E+00  0.95048469796E+02  0.90205972358E+02 0.  0.
         13    1    3    3    0    0 -0.27145830553E+02 -0.36733698918E+02 -0.30698598880E+02  0.55033407034E+02  0.10566000000E+00 0. -1.
         22    1    1    0    0    0  0.27769360272E+02  0.11222372143E+02 -0.12310614607E+00  0.29951530204E+02  0.00000000000E+00 0. -1.
</event>
<event>
 5    1  0.1751027E-003  0.9118800E+02  0.7818608E-02  0.1130116E+00
         25   -1    0    0    0    0  0.00000000000E+00  0.00000000000E+00  0.99999998245E-14  0.12500000000E+03  0.12500000000E+03 0.  0.
        -13    1    3    3    0    0 -0.33232143595E+02  0.71516091239E+01 -0.16617733596E+02  0.37837562222E+02  0.10566000000E+00 0.  1.
         23    2    1    0    0    0  0.19256310193E+02  0.22746475445E+02  0.45503278072E+00  0.95193714048E+02  0.90407015834E+02 0.  0.
         13    1    3    3    0    0  0.52488453787E+02  0.15594866321E+02  0.17072766377E+02  0.57356151827E+02  0.10566000000E+00 0. -1.
         22    1    1    0    0    0 -0.19256310193E+02 -0.22746475445E+02 -0.45503278072E+00  0.29806285952E+02  0.00000000000E+00 0. -1.
</event>
<event>
 5    1  0.1751027E-003  0.9118800E+02  0.7818608E-02  0.1130116E+00
         25   -1    0    0    0    0  0.00000000000E+00  0.00000000000E+00  0.99999998245E-14  0.12500000000E+03  0.12500000000E+03 0.  0.
        -13    1    3    3    0    0  0.79413121401E+01  0.29610164485E+02 -0.52902912984E+02  0.61143729405E+02  0.10566000000E+00 0.  1.
         23    2    1    0    0    0  0.28669673400E+01  0.55013815244E+01 -0.28543447761E+02  0.95790188113E+02  0.91227994761E+02 0.  0.
         13    1    3    3    0    0 -0.50743448001E+01 -0.24108782960E+02  0.24359465223E+02  0.34646458707E+02  0.10566000000E+00 0. -1.
         22    1    1    0    0    0 -0.28669673400E+01 -0.55013815244E+01  0.28543447761E+02  0.29209811887E+02  0.00000000000E+00 0.  1.
</event>
<event>
 5    1  0.1751027E-003  0.9118800E+02  0.7818608E-02  0.1130116E+00
         25   -1    0    0    0    0  0.00000000000E+00  0.00000000000E+00  0.99999998245E-14  0.12500000000E+03  0.12500000000E+03 0.  0.
        -13    1    3    3    0    0 -0.17771221685E+02 -0.73295574231E+01 -0.52735177447E+02  0.56129750014E+02  0.10566000000E+00 0. -1.
         23    2    1    0    0    0 -0.24616735295E+02  0.42092240085E+01 -0.15747534949E+02  0.95475669689E+02  0.90796020961E+02 0.  0.
         13    1    3    3    0    0 -0.68455136099E+01  0.11538781432E+02  0.36987642498E+02  0.39345919676E+02  0.10566000000E+00 0.  1.
         22    1    1    0    0    0  0.24616735295E+02 -0.42092240085E+01  0.15747534949E+02  0.29524330311E+02  0.00000000000E+00 0. -1.
</event>
<event>
 5    1  0.1751027E-003  0.9118800E+02  0.7818608E-02  0.1130116E+00
         25   -1    0    0    0    0  0.00000000000E+00  0.00000000000E+00  0.99999998245E-14  0.12500000000E+03  0.12500000000E+03 0.  0.
        -13    1    3    3    0    0 -0.42910214955E+02  0.31684511237E+02  0.13279013978E+02  0.54968519865E+02  0.10566000000E+00 0.  1.
         23    2    1    0    0    0 -0.20831843268E+02  0.13184052215E+02 -0.15654870480E+02  0.95796234891E+02  0.91236279641E+02 0.  0.
         13    1    3    3    0    0  0.22078371687E+02 -0.18500459022E+02 -0.28933884459E+02  0.40827715026E+02  0.10566000000E+00 0. -1.
         22    1    1    0    0    0  0.20831843268E+02 -0.13184052215E+02  0.15654870480E+02  0.29203765109E+02  0.00000000000E+00 0.  1.
</event>
<event>
 5    1  0.1751027E-003  0.9118800E+02  0.7818608E-02  0.1130116E+00
         25   -1    0    0    0    0  0.00000000000E+00  0.00000000000E+00  0.99999998245E-14  0.12500000000E+03  0.12500000000E+03 0.  0.
        -13    1    3    3    0    0  0.47747672631E+00  0.15946831183E+02  0.40593659394E+02  0.43616347346E+02  0.10566000000E+00 0.  1.
         23    2    1    0    0    0 -0.18536388752E+02 -0.21469385090E+02  0.13371464640E+02  0.93641934519E+02  0.88235387627E+02 0.  0.
         13    1    3    3    0    0 -0.19013865478E+02 -0.37416216273E+02 -0.27222194755E+02  0.50025587172E+02  0.10566000000E+00 0. -1.
         22    1    1    0    0    0  0.18536388752E+02  0.21469385090E+02 -0.13371464640E+02  0.31358065481E+02  0.00000000000E+00 0. -1.
</event>
<event>
 5    1  0.1751027E-003  0.9118800E+02  0.7818608E-02  0.1130116E+00
         25   -1    0    0    0    0  0.00000000000E+00  0.00000000000E+00  0.99999998245E-14  0.12500000000E+03  0.12500000000E+03 0.  0.
        -13    1    3    3    0    0  0.25012232505E+02 -0.29466912239E+02 -0.20025414128E+02  0.43530897841E+02  0.10566000000E+00 0.  1.
         23    2    1    0    0    0  0.33066578020E+01 -0.15135165020E+02  0.25034805194E+02  0.95559404267E+02  0.90911226297E+02 0.  0.
         13    1    3    3    0    0 -0.21705574703E+02  0.14331747219E+02  0.45060219323E+02  0.52028506426E+02  0.10566000000E+00 0. -1.
         22    1    1    0    0    0 -0.33066578020E+01  0.15135165020E+02 -0.25034805194E+02  0.29440595733E+02  0.00000000000E+00 0.  1.
</event>
<event>
 5    1  0.1751027E-003  0.9118800E+02  0.7818608E-02  0.1130116E+00
         25   -1    0    0    0    0  0.00000000000E+00  0.00000000000E+00  0.99999998245E-14  0.12500000000E+03  0.12500000000E+03 0.  0.
        -13    1    3    3    0    0 -0.19973348543E+02 -0.42063436267E+02  0.76371686006E+01  0.47186913767E+02  0.10566000000E+00 0.  1.
         23    2    1    0    0    0  0.35415260800E+01 -0.12733134291E+02 -0.24838050574E+02  0.96864544216E+02  0.92688381440E+02 0.  0.
         13    1    3    3    0    0  0.23514874623E+02  0.29330301976E+02 -0.32475219175E+02  0.49677630449E+02  0.10566000000E+00 0. -1.
         22    1    1    0    0    0 -0.35415260800E+01  0.12733134291E+02  0.24838050574E+02  0.28135455784E+02  0.00000000000E+00 0. -1.
</event>
<event>
 5    1  0.1751027E-003  0.9118800E+02  0.7818608E-02  0.1130116E+00
         25   -1    0    0    0    0  0.00000000000E+00  0.00000000000E+00  0.99999998245E-14  0.12500000000E+03  0.12500000000E+03 0.  0.
        -13    1    3    3    0    0 -0.44719782757E+02 -0.24852134181E+02 -0.65716402213E+01  0.51581829770E+02  0.10566000000E+00 0. -1.
         23    2    1    0    0    0 -0.20280277838E+02 -0.99277630459E+00  0.21231290193E+02  0.95622407226E+02  0.90997812097E+02 0.  0.
         13    1    3    3    0    0  0.24439504919E+02  0.23859357877E+02  0.27802930414E+02  0.44040577456E+02  0.10566000000E+00 0.  1.
         22    1    1    0    0    0  0.20280277838E+02  0.99277630459E+00 -0.21231290193E+02  0.29377592774E+02  0.00000000000E+00 0. -1.
</event>
<event>
 5    1  0.1751027E-003  0.9118800E+02  0.7818608E-02  0.1130116E+00
         25   -1    0    0    0    0  0.00000000000E+00  0.00000000000E+00  0.99999998245E-14  0.12500000000E+03  0.12500000000E+03 0.  0.
        -13    1    3    3    0    0  0.14751808742E+02  0.27823471394E+02 -0.45634718148E+02  0.55446371261E+02  0.10566000000E+00 0. -1.
         23    2    1    0    0    0  0.11974925433E+02  0.24801851206E+02 -0.41335266709E+01  0.97150104038E+02  0.93072692072E+02 0.  0.
         13    1    3    3    0    0 -0.27768833089E+01 -0.30216201881E+01  0.41501191477E+02  0.41703732777E+02  0.10566000000E+00 0.  1.
         22    1    1    0    0    0 -0.11974925433E+02 -0.24801851206E+02  0.41335266709E+01  0.27849895962E+02  0.00000000000E+00 0. -1.
</event>
<event>
 5    1  0.1751027E-003  0.9118800E+02  0.7818608E-02  0.1130116E+00
         25   -1    0    0    0    0  0.00000000000E+00  0.00000000000E+00  0.99999998245E-14  0.12500000000E+03  0.12500000000E+03 0.  0.
        -13    1    3    3    0    0  0.19893282117E+02  0.12194195013E+02  0.29584468848E+02  0.37678814027E+02  0.10566000000E+00 0.  1.
         23    2    1    0    0    0 -0.25081205970E+02 -0.13580351847E+02  0.19746733482E+01  0.96409928576E+02  0.92073243366E+02 0.  0.
         13    1    3    3    0    0 -0.44974488088E+02 -0.25774546860E+02 -0.27609795500E+02  0.58731114549E+02  0.10566000000E+00 0. -1.
         22    1    1    0    0    0  0.25081205970E+02  0.13580351847E+02 -0.19746733482E+01  0.28590071424E+02  0.00000000000E+00 0. -1.
</event>
<event>
 5    1  0.1751027E-003  0.9118800E+02  0.7818608E-02  0.1130116E+00
         25   -1    0    0    0    0  0.00000000000E+00  0.00000000000E+00  0.99999998245E-14  0.12500000000E+03  0.12500000000E+03 0.  0.
        -13    1    3    3    0    0  0.57975914021E+01 -0.31882065974E+02 -0.12667686441E+02  0.34793097601E+02  0.10566000000E+00 0. -1.
         23    2    1    0    0    0 -0.42067090257E+01  0.83991567337E+01  0.29547976887E+02  0.93994755721E+02  0.88733809398E+02 0.  0.
         13    1    3    3    0    0 -0.10004300428E+02  0.40281222708E+02  0.42215663329E+02  0.59201658120E+02  0.10566000000E+00 0.  1.
         22    1    1    0    0    0  0.42067090257E+01 -0.83991567337E+01 -0.29547976887E+02  0.31005244279E+02  0.00000000000E+00 0.  1.
</event>
<event>
 5    1  0.1751027E-003  0.9118800E+02  0.7818608E-02  0.1130116E+00
         25   -1    0    0    0    0  0.00000000000E+00  0.00000000000E+00  0.99999998245E-14  0.12500000000E+03  0.12500000000E+03 0.  0.
        -13    1    3    3    0    0  0.34155120617E+02  0.75678665094E+00 -0.16794026557E+02  0.38068300230E+02  0.10566000000E+00 0.  1.
         23    2    1    0    0    0 -0.22489285698E+02 -0.44234249733E+01 -0.19346331675E+02  0.95006413869E+02  0.90147675884E+02 0.  0.
         13    1    3    3    0    0 -0.56644406315E+02 -0.51802116242E+01 -0.25523051180E+01  0.56938113639E+02  0.10566000000E+00 0. -1.
         22    1    1    0    0    0  0.22489285698E+02  0.44234249733E+01  0.19346331675E+02  0.29993586131E+02  0.00000000000E+00 0. -1.
</event>
<event>
 5    1  0.1751027E-003  0.9118800E+02  0.7818608E-02  0.1130116E+00
         25   -1    0    0    0    0  0.00000000000E+00  0.00000000000E+00  0.99999998245E-14  0.12500000000E+03  0.12500000000E+03 0.  0.
        -13    1    3    3    0    0 -0.94391600583E+01  0.10295671685E+02 -0.32806543685E+02  0.35656402940E+02  0.10566000000E+00 0.  1.
         23    2    1    0    0    0  0.13659501229E+02 -0.21000105891E+02  0.13829549626E+02  0.96384569475E+02  0.92038809036E+02 0.  0.
         13    1    3    3    0    0  0.23098661287E+02 -0.31295777577E+02  0.46636093311E+02  0.60728166535E+02  0.10566000000E+00 0. -1.
         22    1    1    0    0    0 -0.13659501229E+02  0.21000105891E+02 -0.13829549626E+02  0.28615430525E+02  0.00000000000E+00 0. -1.
</event>
<event>
 5    1  0.1751027E-003  0.9118800E+02  0.7818608E-02  0.1130116E+00
         25   -1    0    0    0    0  0.00000000000E+00  0.00000000000E+00  0.99999998245E-14  0.12500000000E+03  0.12500000000E+03 0.  0.
        -13    1    3    3    0    0 -0.38897771013E+02  0.13528121811E+02  0.32669602328E+01  0.41312599322E+02  0.10566000000E+00 0. -1.
         23    2    1    0    0    0  0.14990491007E+01 -0.15210568003E+02  0.25202441122E+02  0.95525068860E+02  0.90864003956E+02 0.  0.
         13    1    3    3    0    0  0.40396820114E+02 -0.28738689814E+02  0.21935480889E+02  0.54212469538E+02  0.10566000000E+00 0.  1.
         22    1    1    0    0    0 -0.14990491007E+01  0.15210568003E+02 -0.25202441122E+02  0.29474931140E+02  0.00000000000E+00 0.  1.
</event>
<event>
 5    1  0.1751027E-003  0.9118800E+02  0.7818608E-02  0.1130116E+00
         25   -1    0    0    0    0  0.00000000000E+00  0.00000000000E+00  0.99999998245E-14  0.12500000000E+03  0.12500000000E+03 0.  0.
        -13    1    3    3    0    0 -0.97838741764E+01  0.19801187388E+02 -0.39665112297E+02  0.45399818429E+02  0.10566000000E+00 0. -1.
         23    2    1    0    0    0  0.20037775517E+02  0.21003995555E+02  0.11322895895E+01  0.95948969784E+02  0.91445297560E+02 0.  0.
         13    1    3    3    0    0  0.29821649693E+02  0.12028081672E+01  0.40797401886E+02  0.50549151354E+02  0.10566000000E+00 0.  1.
         22    1    1    0    0    0 -0.20037775517E+02 -0.21003995555E+02 -0.11322895895E+01  0.29051030216E+02  0.00000000000E+00 0.  1.
</event>
<event>
 5    1  0.1751027E-003  0.9118800E+02  0.7818608E-02  0.1130116E+00
         25   -1    0    0    0    0  0.00000000000E+00  0.00000000000E+00  0.99999998245E-14  0.12500000000E+03  0.12500000000E+03 0.  0.
        -13    1    3    3    0    0 -0.11802676453E+02  0.44447873086E+02 -0.48735014540E+01  0.46245851422E+02  0.10566000000E+00 0.  1.
         23    2    1    0    0    0 -0.26243002040E+02 -0.34818046184E+01  0.68436507152E+01  0.97656743526E+02  0.93750658032E+02 0.  0.
         13    1    3    3    0    0 -0.14440325587E+02 -0.47929677704E+02  0.11717152169E+02  0.51410892104E+02  0.10566000000E+00 0. -1.
         22    1    1    0    0    0  0.26243002040E+02  0.34818046184E+01 -0.68436507152E+01  0.27343256474E+02  0.00000000000E+00 0. -1.
</event>
<event>
 5    1  0.1751027E-003  0.9118800E+02  0.7818608E-02  0.1130116E+00
         25   -1    0    0    0    0  0.00000000000E+00  0.00000000000E+00  0.99999998245E-14  0.12500000000E+03  0.12500000000E+03 0.  0.
        -13    1    3    3    0    0 -0.38561465167E+02 -0.87992145256E+01  0.17793897320E+02  0.43371035473E+02  0.10566000000E+00 0.  1.
         23    2    1    0    0    0  0.94573483661E+01 -0.21315413476E+02 -0.92829985605E+01  0.99900949181E+02  0.96696625045E+02 0.  0.
         13    1    3    3    0    0  0.48018813533E+02 -0.12516198950E+02 -0.27076895881E+02  0.56529913708E+02  0.10566000000E+00 0. -1.
         22    1    1    0    0    0 -0.94573483661E+01  0.21315413476E+02  0.92829985605E+01  0.25099050819E+02  0.00000000000E+00 0. -1.
</event>
<event>
 5    1  0.1751027E-003  0.9118800E+02  0.7818608E-02  0.1130116E+00
         25   -1    0    0    0    0  0.00000000000E+00  0.00000000000E+00  0.99999998245E-14  0.12500000000E+03  0.12500000000E+03 0.  0.
        -13    1    3    3    0    0  0.53235153740E+01 -0.51265585641E+02 -0.10447158801E+02  0.52589489236E+02  0.10566000000E+00 0. -1.
         23    2    1    0    0    0  0.79804585408E+01 -0.21832666527E+02  0.19496552117E+02  0.94660774719E+02  0.89667127085E+02 0.  0.
         13    1    3    3    0    0  0.26569431668E+01  0.29432919114E+02  0.29943710918E+02  0.42071285483E+02  0.10566000000E+00 0.  1.
         22    1    1    0    0    0 -0.79804585408E+01  0.21832666527E+02 -0.19496552117E+02  0.30339225281E+02  0.00000000000E+00 0. -1.
</event>
<event>
 5    1  0.1751027E-003  0.9118800E+02  0.7818608E-02  0.1130116E+00
         25   -1    0    0    0    0  0.00000000000E+00  0.00000000000E+00  0.99999998245E-14  0.12500000000E+03  0.12500000000E+03 0.  0.
        -13    1    3    3    0    0  0.13376750041E+02  0.17967665379E+02 -0.37346225806E+02  0.43549123835E+02  0.10566000000E+00 0.  1.
         23    2    1    0    0    0  0.26738128679E+01 -0.26503658111E+02 -0.14205954092E+02  0.94810559790E+02  0.89875691638E+02 0.  0.
         13    1    3    3    0    0 -0.10702937173E+02 -0.44471323490E+02  0.23140271714E+02  0.51261435955E+02  0.10566000000E+00 0. -1.
         22    1    1    0    0    0 -0.26738128679E+01  0.26503658111E+02  0.14205954092E+02  0.30189440210E+02  0.00000000000E+00 0. -1.
</event>
<event>
 5    1  0.1751027E-003  0.9118800E+02  0.7818608E-02  0.1130116E+00
         25   -1    0    0    0    0  0.00000000000E+00  0.00000000000E+00  0.99999998245E-14  0.12500000000E+03  0.12500000000E+03 0.  0.
        -13    1    3    3    0    0  0.51424008225E+02  0.17038331442E+02 -0.25639768118E+02  0.59934482841E+02  0.10566000000E+00 0.  1.
         23    2    1    0    0    0  0.20313941235E+02  0.19187975321E+02 -0.72735302676E+01  0.96125463675E+02  0.91686236256E+02 0.  0.
         13    1    3    3    0    0 -0.31110066990E+02  0.21496438795E+01  0.18366237851E+02  0.36190980834E+02  0.10566000000E+00 0. -1.
         22    1    1    0    0    0 -0.20313941235E+02 -0.19187975321E+02  0.72735302676E+01  0.28874536325E+02  0.00000000000E+00 0.  1.
</event>
<event>
 5    1  0.1751027E-003  0.9118800E+02  0.7818608E-02  0.1130116E+00
         25   -1    0    0    0    0  0.00000000000E+00  0.00000000000E+00  0.99999998245E-14  0.12500000000E+03  0.12500000000E+03 0.  0.
        -13    1    3    3    0    0  0.31028985892E+02  0.14720938268E+02 -0.49233861158E+01  0.34695170901E+02  0.10566000000E+00 0.  1.
         23    2    1    0    0    0  0.20543981535E+02  0.34702686898E+01 -0.43796609485E+02  0.76500093356E+02  0.59160995081E+02 0.  0.
         13    1    3    3    0    0 -0.10485004357E+02 -0.11250669578E+02 -0.38873223369E+02  0.41804922455E+02  0.10566000000E+00 0. -1.
         22    1    1    0    0    0 -0.20543981535E+02 -0.34702686898E+01  0.43796609485E+02  0.48499906644E+02  0.00000000000E+00 0. -1.
</event>
<event>
 5    1  0.1751027E-003  0.9118800E+02  0.7818608E-02  0.1130116E+00
         25   -1    0    0    0    0  0.00000000000E+00  0.00000000000E+00  0.99999998245E-14  0.12500000000E+03  0.12500000000E+03 0.  0.
        -13    1    3    3    0    0  0.53958637969E+02  0.42062435317E+01 -0.27269686864E+02  0.60604241451E+02  0.10566000000E+00 0.  1.
         23    2    1    0    0    0  0.22146256013E+02  0.12531539713E+02 -0.11404015167E+02  0.97115457600E+02  0.93026149012E+02 0.  0.
         13    1    3    3    0    0 -0.31812381957E+02  0.83252961809E+01  0.15865671697E+02  0.36511216149E+02  0.10566000000E+00 0. -1.
         22    1    1    0    0    0 -0.22146256013E+02 -0.12531539713E+02  0.11404015167E+02  0.27884542400E+02  0.00000000000E+00 0.  1.
</event>
<event>
 5    1  0.1751027E-003  0.9118800E+02  0.7818608E-02  0.1130116E+00
         25   -1    0    0    0    0  0.00000000000E+00  0.00000000000E+00  0.99999998245E-14  0.12500000000E+03  0.12500000000E+03 0.  0.
        -13    1    3    3    0    0  0.21792829202E+02  0.67752582247E+01 -0.27497168798E+02  0.35734255058E+02  0.10566000000E+00 0.  1.
         23    2    1    0    0    0  0.67203862893E+01  0.29574187321E+01  0.29389288345E+02  0.94707423568E+02  0.89732134110E+02 0.  0.
         13    1    3    3    0    0 -0.15072442913E+02 -0.38178394926E+01  0.56886457143E+02  0.58973168510E+02  0.10566000000E+00 0. -1.
         22    1    1    0    0    0 -0.67203862893E+01 -0.29574187321E+01 -0.29389288345E+02  0.30292576432E+02  0.00000000000E+00 0. -1.
</event>
<event>
 5    1  0.1751027E-003  0.9118800E+02  0.7818608E-02  0.1130116E+00
         25   -1    0    0    0    0  0.00000000000E+00  0.00000000000E+00  0.99999998245E-14  0.12500000000E+03  0.12500000000E+03 0.  0.
        -13    1    3    3    0    0  0.20976056435E+02  0.20394069917E+01 -0.41598423571E+02  0.46632543701E+02  0.10566000000E+00 0.  1.
         23    2    1    0    0    0  0.24689500794E+00 -0.28865482053E+02 -0.22102925723E+02  0.88643207832E+02  0.80844306899E+02 0.  0.
         13    1    3    3    0    0 -0.20729161427E+02 -0.30904889044E+02  0.19495497848E+02  0.42010664130E+02  0.10566000000E+00 0. -1.
         22    1    1    0    0    0 -0.24689500794E+00  0.28865482053E+02  0.22102925723E+02  0.36356792168E+02  0.00000000000E+00 0.  1.
</event>
<event>
 5    1  0.1751027E-003  0.9118800E+02  0.7818608E-02  0.1130116E+00
         25   -1    0    0    0    0  0.00000000000E+00  0.00000000000E+00  0.99999998245E-14  0.12500000000E+03  0.12500000000E+03 0.  0.
        -13    1    3    3    0    0 -0.15644602410E+02 -0.36375651161E+02  0.19075721550E+02  0.43952655194E+02  0.10566000000E+00 0. -1.
         23    2    1    0    0    0 -0.12960686233E+02 -0.97523453435E+01 -0.24813338454E+02  0.95355617859E+02  0.90630593425E+02 0.  0.
         13    1    3    3    0    0  0.26839161766E+01  0.26623305817E+02 -0.43889060003E+02  0.51402962664E+02  0.10566000000E+00 0.  1.
         22    1    1    0    0    0  0.12960686233E+02  0.97523453435E+01  0.24813338454E+02  0.29644382141E+02  0.00000000000E+00 0. -1.
</event>
<event>
 5    1  0.1751027E-003  0.9118800E+02  0.7818608E-02  0.1130116E+00
         25   -1    0    0    0    0  0.00000000000E+00  0.00000000000E+00  0.99999998245E-14  0.12500000000E+03  0.12500000000E+03 0.  0.
        -13    1    3    3    0    0  0.25399123625E+01  0.14315131376E+02  0.29422842445E+02  0.32819033543E+02  0.10566000000E+00 0.  1.
         23    2    1    0    0    0 -0.26183740221E+01 -0.15076608279E+02 -0.25463038709E+02  0.95292655117E+02  0.90543711980E+02 0.  0.
         13    1    3    3    0    0 -0.51582863846E+01 -0.29391739655E+02 -0.54885881154E+02  0.62473621573E+02  0.10566000000E+00 0. -1.
         22    1    1    0    0    0  0.26183740221E+01  0.15076608279E+02  0.25463038709E+02  0.29707344883E+02  0.00000000000E+00 0. -1.
</event>
<event>
 5    1  0.1751027E-003  0.9118800E+02  0.7818608E-02  0.1130116E+00
         25   -1    0    0    0    0  0.00000000000E+00  0.00000000000E+00  0.99999998245E-14  0.12500000000E+03  0.12500000000E+03 0.  0.
        -13    1    3    3    0    0  0.11883737012E+01 -0.34850067084E+02  0.70080723730E+01  0.35567733274E+02  0.10566000000E+00 0.  1.
         23    2    1    0    0    0  0.90632640103E+01  0.22993054772E+02 -0.12740554842E+02  0.97194513852E+02  0.93132316963E+02 0.  0.
         13    1    3    3    0    0  0.78748903091E+01  0.57843121856E+02 -0.19748627215E+02  0.61626780578E+02  0.10566000000E+00 0. -1.
         22    1    1    0    0    0 -0.90632640103E+01 -0.22993054772E+02  0.12740554842E+02  0.27805486148E+02  0.00000000000E+00 0. -1.
</event>
<event>
 5    1  0.1751027E-003  0.9118800E+02  0.7818608E-02  0.1130116E+00
         25   -1    0    0    0    0  0.00000000000E+00  0.00000000000E+00  0.99999998245E-14  0.12500000000E+03  0.12500000000E+03 0.  0.
        -13    1    3    3    0    0  0.97933444510E+01  0.42297771727E+01 -0.34392598741E+02  0.36009201917E+02  0.10566000000E+00 0.  1.
         23    2    1    0    0    0  0.29819685914E+02  0.12857419934E+02  0.14418307935E+02  0.89469526894E+02  0.82112007183E+02 0.  0.
         13    1    3    3    0    0  0.20026341463E+02  0.86276427616E+01  0.48810906677E+02  0.53460324977E+02  0.10566000000E+00 0. -1.
         22    1    1    0    0    0 -0.29819685914E+02 -0.12857419934E+02 -0.14418307935E+02  0.35530473106E+02  0.00000000000E+00 0.  1.
</event>
<event>
 5    1  0.1751027E-003  0.9118800E+02  0.7818608E-02  0.1130116E+00
         25   -1    0    0    0    0  0.00000000000E+00  0.00000000000E+00  0.99999998245E-14  0.12500000000E+03  0.12500000000E+03 0.  0.
        -13    1    3    3    0    0  0.20437006621E+01  0.25160585342E+02 -0.56481557064E+02  0.61866058704E+02  0.10566000000E+00 0.  1.
         23    2    1    0    0    0  0.38011220377E+01  0.64289949902E+01 -0.28153513693E+02  0.95872678829E+02  0.91340953067E+02 0.  0.
         13    1    3    3    0    0  0.17574213756E+01 -0.18731590352E+02  0.28328043371E+02  0.34006620124E+02  0.10566000000E+00 0. -1.
         22    1    1    0    0    0 -0.38011220377E+01 -0.64289949902E+01  0.28153513693E+02  0.29127321171E+02  0.00000000000E+00 0.  1.
</event>
<event>
 5    1  0.1751027E-003  0.9118800E+02  0.7818608E-02  0.1130116E+00
         25   -1    0    0    0    0  0.00000000000E+00  0.00000000000E+00  0.99999998245E-14  0.12500000000E+03  0.12500000000E+03 0.  0.
        -13    1    3    3    0    0  0.22864693690E+02  0.29083496725E+02 -0.14495287729E+02  0.39733720310E+02  0.10566000000E+00 0.  1.
         23    2    1    0    0    0  0.15269603409E+02 -0.69508978033E+01  0.25738269852E+02  0.94276486146E+02  0.89129801619E+02 0.  0.
         13    1    3    3    0    0 -0.75950902813E+01 -0.36034394528E+02  0.40233557581E+02  0.54542765836E+02  0.10566000000E+00 0. -1.
         22    1    1    0    0    0 -0.15269603409E+02  0.69508978033E+01 -0.25738269852E+02  0.30723513854E+02  0.00000000000E+00 0. -1.
</event>
<event>
 5    1  0.1751027E-003  0.9118800E+02  0.7818608E-02  0.1130116E+00
         25   -1    0    0    0    0  0.00000000000E+00  0.00000000000E+00  0.99999998245E-14  0.12500000000E+03  0.12500000000E+03 0.  0.
        -13    1    3    3    0    0 -0.13142206863E+02  0.15835585681E+02 -0.28325981775E+02  0.35012223331E+02  0.10566000000E+00 0.  1.
         23    2    1    0    0    0  0.10302855001E+02 -0.26798379469E+02  0.73713039306E+01  0.95358170013E+02  0.90634113353E+02 0.  0.
         13    1    3    3    0    0  0.23445061863E+02 -0.42633965150E+02  0.35697285705E+02  0.60345946682E+02  0.10566000000E+00 0. -1.
         22    1    1    0    0    0 -0.10302855001E+02  0.26798379469E+02 -0.73713039306E+01  0.29641829987E+02  0.00000000000E+00 0. -1.
</event>
<event>
 5    1  0.1751027E-003  0.9118800E+02  0.7818608E-02  0.1130116E+00
         25   -1    0    0    0    0  0.00000000000E+00  0.00000000000E+00  0.99999998245E-14  0.12500000000E+03  0.12500000000E+03 0.  0.
        -13    1    3    3    0    0  0.20765509664E+02  0.37688689554E+02  0.44740981242E+02  0.62075842954E+02  0.10566000000E+00 0.  1.
         23    2    1    0    0    0  0.11416235029E+02  0.13787026353E+02  0.23915911251E+02  0.95127214244E+02  0.90315024005E+02 0.  0.
         13    1    3    3    0    0 -0.93492746350E+01 -0.23901663201E+02 -0.20825069991E+02  0.33051371290E+02  0.10566000000E+00 0. -1.
         22    1    1    0    0    0 -0.11416235029E+02 -0.13787026353E+02 -0.23915911251E+02  0.29872785756E+02  0.00000000000E+00 0.  1.
</event>
<event>
 5    1  0.1751027E-003  0.9118800E+02  0.7818608E-02  0.1130116E+00
         25   -1    0    0    0    0  0.00000000000E+00  0.00000000000E+00  0.99999998245E-14  0.12500000000E+03  0.12500000000E+03 0.  0.
        -13    1    3    3    0    0 -0.10593627669E+02 -0.27995909511E+02  0.12623342955E+02  0.32486240902E+02  0.10566000000E+00 0.  1.
         23    2    1    0    0    0  0.27635226219E+02  0.16096273097E+02  0.11984473481E+02  0.90847059564E+02  0.84182925175E+02 0.  0.
         13    1    3    3    0    0  0.38228853888E+02  0.44092182608E+02 -0.63886947414E+00  0.58360818662E+02  0.10566000000E+00 0. -1.
         22    1    1    0    0    0 -0.27635226219E+02 -0.16096273097E+02 -0.11984473481E+02  0.34152940436E+02  0.00000000000E+00 0. -1.
</event>
<event>
 5    1  0.1751027E-003  0.9118800E+02  0.7818608E-02  0.1130116E+00
         25   -1    0    0    0    0  0.00000000000E+00  0.00000000000E+00  0.99999998245E-14  0.12500000000E+03  0.12500000000E+03 0.  0.
        -13    1    3    3    0    0  0.29445072526E+02  0.27150279191E+02  0.35019773683E+02  0.53202872752E+02  0.10566000000E+00 0.  1.
         23    2    1    0    0    0  0.10161424945E+02 -0.95727448672E+01  0.25757176062E+02  0.95702830855E+02  0.91108219793E+02 0.  0.
         13    1    3    3    0    0 -0.19283647581E+02 -0.36723024058E+02 -0.92625976212E+01  0.42499958103E+02  0.10566000000E+00 0. -1.
         22    1    1    0    0    0 -0.10161424945E+02  0.95727448672E+01 -0.25757176062E+02  0.29297169145E+02  0.00000000000E+00 0.  1.
</event>
<event>
 5    1  0.1751027E-003  0.9118800E+02  0.7818608E-02  0.1130116E+00
         25   -1    0    0    0    0  0.00000000000E+00  0.00000000000E+00  0.99999998245E-14  0.12500000000E+03  0.12500000000E+03 0.  0.
        -13    1    3    3    0    0  0.37230637994E+02  0.14159109972E+02 -0.78075321582E+01  0.40590263895E+02  0.10566000000E+00 0.  1.
         23    2    1    0    0    0  0.24085278303E+01 -0.20395414385E+02  0.19452561851E+02  0.96712615942E+02  0.92483263273E+02 0.  0.
         13    1    3    3    0    0 -0.34822110164E+02 -0.34554524357E+02  0.27260094010E+02  0.56122352047E+02  0.10566000000E+00 0. -1.
         22    1    1    0    0    0 -0.24085278303E+01  0.20395414385E+02 -0.19452561851E+02  0.28287384058E+02  0.00000000000E+00 0. -1.
</event>
<event>
 5    1  0.1751027E-003  0.9118800E+02  0.7818608E-02  0.1130116E+00
         25   -1    0    0    0    0  0.00000000000E+00  0.00000000000E+00  0.99999998245E-14  0.12500000000E+03  0.12500000000E+03 0.  0.
        -13    1    3    3    0    0 -0.40803646105E+01  0.45186575651E+02  0.15603598047E+01  0.45397377470E+02  0.10566000000E+00 0.  1.
         23    2    1    0    0    0  0.28159484018E+02  0.68732572370E+01  0.49879577423E+01  0.95587792881E+02  0.90950251347E+02 0.  0.
         13    1    3    3    0    0  0.32239848628E+02 -0.38313318414E+02  0.34275979376E+01  0.50190415411E+02  0.10566000000E+00 0. -1.
         22    1    1    0    0    0 -0.28159484018E+02 -0.68732572370E+01 -0.49879577423E+01  0.29412207119E+02  0.00000000000E+00 0. -1.
</event>
<event>
 5    1  0.1751027E-003  0.9118800E+02  0.7818608E-02  0.1130116E+00
         25   -1    0    0    0    0  0.00000000000E+00  0.00000000000E+00  0.99999998245E-14  0.12500000000E+03  0.12500000000E+03 0.  0.
        -13    1    3    3    0    0 -0.12559127950E+02  0.11197170608E+02  0.55716416112E+02  0.58201705412E+02  0.10566000000E+00 0.  1.
         23    2    1    0    0    0 -0.20745166531E+02 -0.43835564180E+00  0.22200345638E+02  0.94612347302E+02  0.89599591659E+02 0.  0.
         13    1    3    3    0    0 -0.81860385805E+01 -0.11635526250E+02 -0.33516070474E+02  0.36410641889E+02  0.10566000000E+00 0. -1.
         22    1    1    0    0    0  0.20745166531E+02  0.43835564180E+00 -0.22200345638E+02  0.30387652698E+02  0.00000000000E+00 0.  1.
</event>
<event>
 5    1  0.1751027E-003  0.9118800E+02  0.7818608E-02  0.1130116E+00
         25   -1    0    0    0    0  0.00000000000E+00  0.00000000000E+00  0.99999998245E-14  0.12500000000E+03  0.12500000000E+03 0.  0.
        -13    1    3    3    0    0  0.29203798554E+01 -0.36073491900E+02 -0.12698674866E+01  0.36213936044E+02  0.10566000000E+00 0. -1.
         23    2    1    0    0    0  0.13870474660E+02  0.18489308232E+02 -0.19484074616E+02  0.94769655148E+02  0.89818783042E+02 0.  0.
         13    1    3    3    0    0  0.10950094805E+02  0.54562800132E+02 -0.18214207129E+02  0.58555719104E+02  0.10566000000E+00 0.  1.
         22    1    1    0    0    0 -0.13870474660E+02 -0.18489308232E+02  0.19484074616E+02  0.30230344852E+02  0.00000000000E+00 0.  1.
</event>
<event>
 5    1  0.1751027E-003  0.9118800E+02  0.7818608E-02  0.1130116E+00
         25   -1    0    0    0    0  0.00000000000E+00  0.00000000000E+00  0.99999998245E-14  0.12500000000E+03  0.12500000000E+03 0.  0.
        -13    1    3    3    0    0  0.11279277570E+02 -0.20272173875E+02  0.32070917458E+02  0.39582041973E+02  0.10566000000E+00 0.  1.
         23    2    1    0    0    0  0.68518315010E+01 -0.22657793503E+02 -0.21280128086E+02  0.93169714850E+02  0.87563855057E+02 0.  0.
         13    1    3    3    0    0 -0.44274460692E+01 -0.23856196285E+01 -0.53351045544E+02  0.53587672877E+02  0.10566000000E+00 0. -1.
         22    1    1    0    0    0 -0.68518315010E+01  0.22657793503E+02  0.21280128086E+02  0.31830285150E+02  0.00000000000E+00 0. -1.
</event>
<event>
 5    1  0.1751027E-003  0.9118800E+02  0.7818608E-02  0.1130116E+00
         25   -1    0    0    0    0  0.00000000000E+00  0.00000000000E+00  0.99999998245E-14  0.12500000000E+03  0.12500000000E+03 0.  0.
        -13    1    3    3    0    0 -0.91430579489E+01  0.37130812306E+02 -0.16972343136E+02  0.41837355637E+02  0.10566000000E+00 0.  1.
         23    2    1    0    0    0  0.28325161055E+02  0.77255785792E+01  0.64893115117E+01  0.94931570093E+02  0.90043836676E+02 0.  0.
         13    1    3    3    0    0  0.37468219004E+02 -0.29405233727E+02  0.23461654648E+02  0.53094214456E+02  0.10566000000E+00 0. -1.
         22    1    1    0    0    0 -0.28325161055E+02 -0.77255785792E+01 -0.64893115117E+01  0.30068429907E+02  0.00000000000E+00 0. -1.
</event>
<event>
 5    1  0.1751027E-003  0.9118800E+02  0.7818608E-02  0.1130116E+00
         25   -1    0    0    0    0  0.00000000000E+00  0.00000000000E+00  0.99999998245E-14  0.12500000000E+03  0.12500000000E+03 0.  0.
        -13    1    3    3    0    0 -0.12568858325E+02 -0.43270912826E+02 -0.24097147092E+02  0.51098255923E+02  0.10566000000E+00 0.  1.
         23    2    1    0    0    0  0.19267936670E+02 -0.23403080997E+02 -0.20648447740E+01  0.94615445246E+02  0.89603913483E+02 0.  0.
         13    1    3    3    0    0  0.31836794995E+02  0.19867831829E+02  0.22032302318E+02  0.43517189323E+02  0.10566000000E+00 0. -1.
         22    1    1    0    0    0 -0.19267936670E+02  0.23403080997E+02  0.20648447740E+01  0.30384554754E+02  0.00000000000E+00 0.  1.
</event>
<event>
 5    1  0.1751027E-003  0.9118800E+02  0.7818608E-02  0.1130116E+00
         25   -1    0    0    0    0  0.00000000000E+00  0.00000000000E+00  0.99999998245E-14  0.12500000000E+03  0.12500000000E+03 0.  0.
        -13    1    3    3    0    0  0.24138795503E+02 -0.33615622135E+02 -0.38852377576E+02  0.56764512745E+02  0.10566000000E+00 0. -1.
         23    2    1    0    0    0 -0.36765464857E+01 -0.26447857267E+02 -0.13488326680E+02  0.95084433740E+02  0.90255794467E+02 0.  0.
         13    1    3    3    0    0 -0.27815341988E+02  0.71677648682E+01  0.25364050896E+02  0.38319920995E+02  0.10566000000E+00 0.  1.
         22    1    1    0    0    0  0.36765464857E+01  0.26447857267E+02  0.13488326680E+02  0.29915566260E+02  0.00000000000E+00 0. -1.
</event>
<event>
 5    1  0.1751027E-003  0.9118800E+02  0.7818608E-02  0.1130116E+00
         25   -1    0    0    0    0  0.00000000000E+00  0.00000000000E+00  0.99999998245E-14  0.12500000000E+03  0.12500000000E+03 0.  0.
        -13    1    3    3    0    0  0.17316412530E+02  0.33872310170E+02 -0.13917056823E+02  0.40507865580E+02  0.10566000000E+00 0.  1.
         23    2    1    0    0    0 -0.18177820938E+02 -0.99449124060E+01 -0.18685313398E+02  0.97098828097E+02  0.93003801127E+02 0.  0.
         13    1    3    3    0    0 -0.35494233468E+02 -0.43817222576E+02 -0.47682565746E+01  0.56590962517E+02  0.10566000000E+00 0. -1.
         22    1    1    0    0    0  0.18177820938E+02  0.99449124060E+01  0.18685313398E+02  0.27901171903E+02  0.00000000000E+00 0. -1.
</event>
<event>
 5    1  0.1751027E-003  0.9118800E+02  0.7818608E-02  0.1130116E+00
         25   -1    0    0    0    0  0.00000000000E+00  0.00000000000E+00  0.99999998245E-14  0.12500000000E+03  0.12500000000E+03 0.  0.
        -13    1    3    3    0    0 -0.19200085150E+02 -0.13421823166E+02 -0.25848705243E+02  0.34884886894E+02  0.10566000000E+00 0.  1.
         23    2    1    0    0    0  0.23117956225E+02  0.18432685693E+02  0.31413066879E+01  0.95266658284E+02  0.90507814973E+02 0.  0.
         13    1    3    3    0    0  0.42318041375E+02  0.31854508859E+02  0.28990011931E+02  0.60381771390E+02  0.10566000000E+00 0. -1.
         22    1    1    0    0    0 -0.23117956225E+02 -0.18432685693E+02 -0.31413066879E+01  0.29733341716E+02  0.00000000000E+00 0. -1.
</event>
<event>
 5    1  0.1751027E-003  0.9118800E+02  0.7818608E-02  0.1130116E+00
         25   -1    0    0    0    0  0.00000000000E+00  0.00000000000E+00  0.99999998245E-14  0.12500000000E+03  0.12500000000E+03 0.  0.
        -13    1    3    3    0    0  0.16921804099E+02  0.34677037948E+02 -0.14018606413E+02  0.41053342185E+02  0.10566000000E+00 0. -1.
         23    2    1    0    0    0 -0.28544284937E+02  0.78738671719E+01 -0.12052590801E+01  0.95365111166E+02  0.90643685888E+02 0.  0.
         13    1    3    3    0    0 -0.45466089036E+02 -0.26803170776E+02  0.12813347333E+02  0.54311768980E+02  0.10566000000E+00 0.  1.
         22    1    1    0    0    0  0.28544284937E+02 -0.78738671719E+01  0.12052590801E+01  0.29634888834E+02  0.00000000000E+00 0. -1.
</event>
<event>
 5    1  0.1751027E-003  0.9118800E+02  0.7818608E-02  0.1130116E+00
         25   -1    0    0    0    0  0.00000000000E+00  0.00000000000E+00  0.99999998245E-14  0.12500000000E+03  0.12500000000E+03 0.  0.
        -13    1    3    3    0    0 -0.26662316570E+01  0.16123957654E+02 -0.28403629035E+02  0.32769926885E+02  0.10566000000E+00 0.  1.
         23    2    1    0    0    0  0.15234782875E+02 -0.15780762502E+02  0.21259772587E+02  0.94453167025E+02  0.89377244062E+02 0.  0.
         13    1    3    3    0    0  0.17901014532E+02 -0.31904720156E+02  0.49663401621E+02  0.61683240140E+02  0.10566000000E+00 0. -1.
         22    1    1    0    0    0 -0.15234782875E+02  0.15780762502E+02 -0.21259772587E+02  0.30546832975E+02  0.00000000000E+00 0. -1.
</event>
<event>
 5    1  0.1751027E-003  0.9118800E+02  0.7818608E-02  0.1130116E+00
         25   -1    0    0    0    0  0.00000000000E+00  0.00000000000E+00  0.99999998245E-14  0.12500000000E+03  0.12500000000E+03 0.  0.
        -13    1    3    3    0    0  0.14933841763E+02 -0.34822108714E+02  0.46855733575E+02  0.60258358905E+02  0.10566000000E+00 0.  1.
         23    2    1    0    0    0  0.11934853398E+02 -0.23983798111E+02  0.14445628702E+02  0.94564174299E+02  0.89532360489E+02 0.  0.
         13    1    3    3    0    0 -0.29989883643E+01  0.10838310602E+02 -0.32410104873E+02  0.34305815394E+02  0.10566000000E+00 0. -1.
         22    1    1    0    0    0 -0.11934853398E+02  0.23983798111E+02 -0.14445628702E+02  0.30435825701E+02  0.00000000000E+00 0.  1.
</event>
<event>
 5    1  0.1751027E-003  0.9118800E+02  0.7818608E-02  0.1130116E+00
         25   -1    0    0    0    0  0.00000000000E+00  0.00000000000E+00  0.99999998245E-14  0.12500000000E+03  0.12500000000E+03 0.  0.
        -13    1    3    3    0    0  0.30833039436E+01  0.29064588902E+01 -0.33696239007E+02  0.33961771946E+02  0.10566000000E+00 0.  1.
         23    2    1    0    0    0  0.10834390671E+02  0.26337709450E+01  0.27332128690E+02  0.95481090309E+02  0.90803483289E+02 0.  0.
         13    1    3    3    0    0  0.77510867275E+01 -0.27268794518E+00  0.61028367696E+02  0.61519318363E+02  0.10566000000E+00 0. -1.
         22    1    1    0    0    0 -0.10834390671E+02 -0.26337709450E+01 -0.27332128690E+02  0.29518909691E+02  0.00000000000E+00 0. -1.
</event>
<event>
 5    1  0.1751027E-003  0.9118800E+02  0.7818608E-02  0.1130116E+00
         25   -1    0    0    0    0  0.00000000000E+00  0.00000000000E+00  0.99999998245E-14  0.12500000000E+03  0.12500000000E+03 0.  0.
        -13    1    3    3    0    0  0.36580287775E+02  0.45283115989E+02 -0.21332319142E+02  0.61998040706E+02  0.10566000000E+00 0.  1.
         23    2    1    0    0    0  0.20062352290E+02  0.16710449172E+02 -0.70851483032E+01  0.97945676548E+02  0.94135111075E+02 0.  0.
         13    1    3    3    0    0 -0.16517935486E+02 -0.28572666816E+02  0.14247170839E+02  0.35947635842E+02  0.10566000000E+00 0. -1.
         22    1    1    0    0    0 -0.20062352290E+02 -0.16710449172E+02  0.70851483032E+01  0.27054323452E+02  0.00000000000E+00 0.  1.
</event>
<event>
 5    1  0.1751027E-003  0.9118800E+02  0.7818608E-02  0.1130116E+00
         25   -1    0    0    0    0  0.00000000000E+00  0.00000000000E+00  0.99999998245E-14  0.12500000000E+03  0.12500000000E+03 0.  0.
        -13    1    3    3    0    0  0.11423631506E+02 -0.13693886915E+02 -0.44299960149E+02  0.47754785402E+02  0.10566000000E+00 0. -1.
         23    2    1    0    0    0 -0.24162243637E+02  0.22207789644E+01 -0.15784955567E+02  0.96053312814E+02  0.91587816894E+02 0.  0.
         13    1    3    3    0    0 -0.35585875143E+02  0.15914665879E+02  0.28515004582E+02  0.48298527412E+02  0.10566000000E+00 0.  1.
         22    1    1    0    0    0  0.24162243637E+02 -0.22207789644E+01  0.15784955567E+02  0.28946687186E+02  0.00000000000E+00 0. -1.
</event>
<event>
 5    1  0.1751027E-003  0.9118800E+02  0.7818608E-02  0.1130116E+00
         25   -1    0    0    0    0  0.00000000000E+00  0.00000000000E+00  0.99999998245E-14  0.12500000000E+03  0.12500000000E+03 0.  0.
        -13    1    3    3    0    0  0.52044416354E+02  0.21098919941E+02  0.62366622806E+01  0.56503918596E+02  0.10566000000E+00 0. -1.
         23    2    1    0    0    0  0.17655333996E+02  0.26890662049E+02 -0.33127143276E+01  0.92661283264E+02  0.86835020677E+02 0.  0.
         13    1    3    3    0    0 -0.34389082358E+02  0.57917421072E+01 -0.95493766082E+01  0.36157364668E+02  0.10566000000E+00 0.  1.
         22    1    1    0    0    0 -0.17655333996E+02 -0.26890662049E+02  0.33127143276E+01  0.32338716736E+02  0.00000000000E+00 0. -1.
</event>
<event>
 5    1  0.1751027E-003  0.9118800E+02  0.7818608E-02  0.1130116E+00
         25   -1    0    0    0    0  0.00000000000E+00  0.00000000000E+00  0.99999998245E-14  0.12500000000E+03  0.12500000000E+03 0.  0.
        -13    1    3    3    0    0  0.41089901490E+02 -0.20757515350E+01  0.44142854725E+02  0.60343115068E+02  0.10566000000E+00 0.  1.
         23    2    1    0    0    0  0.10359295156E+02 -0.64199030296E+01  0.25980180910E+02  0.96303311146E+02  0.91928384009E+02 0.  0.
         13    1    3    3    0    0 -0.30730606334E+02 -0.43441514946E+01 -0.18162673814E+02  0.35960196078E+02  0.10566000000E+00 0. -1.
         22    1    1    0    0    0 -0.10359295156E+02  0.64199030296E+01 -0.25980180910E+02  0.28696688854E+02  0.00000000000E+00 0.  1.
</event>
<event>
 5    1  0.1751027E-003  0.9118800E+02  0.7818608E-02  0.1130116E+00
         25   -1    0    0    0    0  0.00000000000E+00  0.00000000000E+00  0.99999998245E-14  0.12500000000E+03  0.12500000000E+03 0.  0.
        -13    1    3    3    0    0  0.76842719936E+01 -0.12333072546E+02  0.19400159152E+02  0.24239019239E+02  0.10566000000E+00 0.  1.
         23    2    1    0    0    0  0.13287919474E+02 -0.68149423349E+01 -0.39037502452E+02  0.83203602540E+02  0.71943732423E+02 0.  0.
         13    1    3    3    0    0  0.56036474799E+01  0.55181302113E+01 -0.58437661604E+02  0.58964583301E+02  0.10566000000E+00 0. -1.
         22    1    1    0    0    0 -0.13287919474E+02  0.68149423349E+01  0.39037502452E+02  0.41796397460E+02  0.00000000000E+00 0. -1.
</event>
<event>
 5    1  0.1751027E-003  0.9118800E+02  0.7818608E-02  0.1130116E+00
         25   -1    0    0    0    0  0.00000000000E+00  0.00000000000E+00  0.99999998245E-14  0.12500000000E+03  0.12500000000E+03 0.  0.
        -13    1    3    3    0    0 -0.24606337003E+02 -0.41920471385E+02  0.30542083097E+02  0.57407558264E+02  0.10566000000E+00 0.  1.
         23    2    1    0    0    0 -0.22240083062E+02 -0.44474657063E+01  0.13092177143E+02  0.98812095384E+02  0.95278664170E+02 0.  0.
         13    1    3    3    0    0  0.23662539411E+01  0.37473005679E+02 -0.17449905954E+02  0.41404537120E+02  0.10566000000E+00 0. -1.
         22    1    1    0    0    0  0.22240083062E+02  0.44474657063E+01 -0.13092177143E+02  0.26187904616E+02  0.00000000000E+00 0.  1.
</event>
<event>
 5    1  0.1751027E-003  0.9118800E+02  0.7818608E-02  0.1130116E+00
         25   -1    0    0    0    0  0.00000000000E+00  0.00000000000E+00  0.99999998245E-14  0.12500000000E+03  0.12500000000E+03 0.  0.
        -13    1    3    3    0    0 -0.12783392731E+02  0.57735984892E+02  0.12414958600E+02  0.60423517295E+02  0.10566000000E+00 0. -1.
         23    2    1    0    0    0 -0.21239230906E+00  0.28746179862E+02 -0.39076973710E+01  0.95988656255E+02  0.91499530402E+02 0.  0.
         13    1    3    3    0    0  0.12571000422E+02 -0.28989805030E+02 -0.16322655971E+02  0.35565138961E+02  0.10566000000E+00 0.  1.
         22    1    1    0    0    0  0.21239230906E+00 -0.28746179862E+02  0.39076973710E+01  0.29011343745E+02  0.00000000000E+00 0. -1.
</event>
<event>
 5    1  0.1751027E-003  0.9118800E+02  0.7818608E-02  0.1130116E+00
         25   -1    0    0    0    0  0.00000000000E+00  0.00000000000E+00  0.99999998245E-14  0.12500000000E+03  0.12500000000E+03 0.  0.
        -13    1    3    3    0    0 -0.19237053231E+02  0.34047906037E+02 -0.39791869946E+02  0.55791829155E+02  0.10566000000E+00 0.  1.
         23    2    1    0    0    0 -0.18061924521E+02  0.45113138008E+01  0.12163057031E+01  0.10634351402E+03  0.10469421428E+03 0.  0.
         13    1    3    3    0    0  0.11751287104E+01 -0.29536592237E+02  0.41008175649E+02  0.50551684864E+02  0.10566000000E+00 0. -1.
         22    1    1    0    0    0  0.18061924521E+02 -0.45113138008E+01 -0.12163057031E+01  0.18656485981E+02  0.00000000000E+00 0.  1.
</event>
<event>
 5    1  0.1751027E-003  0.9118800E+02  0.7818608E-02  0.1130116E+00
         25   -1    0    0    0    0  0.00000000000E+00  0.00000000000E+00  0.99999998245E-14  0.12500000000E+03  0.12500000000E+03 0.  0.
        -13    1    3    3    0    0 -0.15481901032E+02  0.45406878360E+01  0.47736129327E+02  0.50389049532E+02  0.10566000000E+00 0. -1.
         23    2    1    0    0    0  0.10275839078E+02  0.22753206904E+02  0.14888820325E+02  0.95931490168E+02  0.91421400897E+02 0.  0.
         13    1    3    3    0    0  0.25757740109E+02  0.18212519068E+02 -0.32847309002E+02  0.45542440636E+02  0.10566000000E+00 0.  1.
         22    1    1    0    0    0 -0.10275839078E+02 -0.22753206904E+02 -0.14888820325E+02  0.29068509832E+02  0.00000000000E+00 0. -1.
</event>
<event>
 5    1  0.1751027E-003  0.9118800E+02  0.7818608E-02  0.1130116E+00
         25   -1    0    0    0    0  0.00000000000E+00  0.00000000000E+00  0.99999998245E-14  0.12500000000E+03  0.12500000000E+03 0.  0.
        -13    1    3    3    0    0  0.59982031571E+01  0.52160824068E+02  0.25627768986E+02  0.58425368769E+02  0.10566000000E+00 0. -1.
         23    2    1    0    0    0  0.17951336038E+02  0.21750822867E+02  0.73886235973E+01  0.95846260624E+02  0.91304792623E+02 0.  0.
         13    1    3    3    0    0  0.11953132881E+02 -0.30410001201E+02 -0.18239145388E+02  0.37420891855E+02  0.10566000000E+00 0.  1.
         22    1    1    0    0    0 -0.17951336038E+02 -0.21750822867E+02 -0.73886235973E+01  0.29153739376E+02  0.00000000000E+00 0. -1.
</event>
<event>
 5    1  0.1751027E-003  0.9118800E+02  0.7818608E-02  0.1130116E+00
         25   -1    0    0    0    0  0.00000000000E+00  0.00000000000E+00  0.99999998245E-14  0.12500000000E+03  0.12500000000E+03 0.  0.
        -13    1    3    3    0    0  0.18222668146E+02  0.21065106200E+02  0.49197792363E+02  0.56535283417E+02  0.10566000000E+00 0. -1.
         23    2    1    0    0    0 -0.67714721147E+01  0.21318053890E+02  0.19752592995E+02  0.95159135631E+02  0.90359193819E+02 0.  0.
         13    1    3    3    0    0 -0.24994140261E+02  0.25294768997E+00 -0.29445199368E+02  0.38623852213E+02  0.10566000000E+00 0.  1.
         22    1    1    0    0    0  0.67714721147E+01 -0.21318053890E+02 -0.19752592995E+02  0.29840864369E+02  0.00000000000E+00 0. -1.
</event>
<event>
 5    1  0.1751027E-003  0.9118800E+02  0.7818608E-02  0.1130116E+00
         25   -1    0    0    0    0  0.00000000000E+00  0.00000000000E+00  0.99999998245E-14  0.12500000000E+03  0.12500000000E+03 0.  0.
        -13    1    3    3    0    0 -0.32115016669E+02 -0.10848730847E+02  0.11677720370E+01  0.33918197361E+02  0.10566000000E+00 0.  1.
         23    2    1    0    0    0  0.18995410964E+02  0.22917482365E+02  0.18084900990E+01  0.95178744626E+02  0.90386316202E+02 0.  0.
         13    1    3    3    0    0  0.51110427634E+02  0.33766213212E+02  0.64071806198E+00  0.61260547265E+02  0.10566000000E+00 0. -1.
         22    1    1    0    0    0 -0.18995410964E+02 -0.22917482365E+02 -0.18084900990E+01  0.29821255374E+02  0.00000000000E+00 0. -1.
</event>
<event>
 5    1  0.1751027E-003  0.9118800E+02  0.7818608E-02  0.1130116E+00
         25   -1    0    0    0    0  0.00000000000E+00  0.00000000000E+00  0.99999998245E-14  0.12500000000E+03  0.12500000000E+03 0.  0.
        -13    1    3    3    0    0 -0.16885229991E+02 -0.24946112733E+02 -0.12923713461E+02  0.32778850894E+02  0.10566000000E+00 0. -1.
         23    2    1    0    0    0  0.54973776831E+00  0.18243981008E+02  0.25831694865E+02  0.93370559375E+02  0.87850098712E+02 0.  0.
         13    1    3    3    0    0  0.17434967759E+02  0.43190093740E+02  0.38755408326E+02  0.60591708481E+02  0.10566000000E+00 0.  1.
         22    1    1    0    0    0 -0.54973776831E+00 -0.18243981008E+02 -0.25831694865E+02  0.31629440625E+02  0.00000000000E+00 0.  1.
</event>
<event>
 5    1  0.1751027E-003  0.9118800E+02  0.7818608E-02  0.1130116E+00
         25   -1    0    0    0    0  0.00000000000E+00  0.00000000000E+00  0.99999998245E-14  0.12500000000E+03  0.12500000000E+03 0.  0.
        -13    1    3    3    0    0 -0.36510452305E+02  0.25595627984E+02  0.24318631018E+02  0.50789332325E+02  0.10566000000E+00 0.  1.
         23    2    1    0    0    0 -0.26798807264E+02  0.59554193354E+01 -0.13431948106E+02  0.94437599568E+02  0.89355469290E+02 0.  0.
         13    1    3    3    0    0  0.97116450406E+01 -0.19640208649E+02 -0.37750579123E+02  0.43648267243E+02  0.10566000000E+00 0. -1.
         22    1    1    0    0    0  0.26798807264E+02 -0.59554193354E+01  0.13431948106E+02  0.30562400432E+02  0.00000000000E+00 0.  1.
</event>
<event>
 5    1  0.1751027E-003  0.9118800E+02  0.7818608E-02  0.1130116E+00
         25   -1    0    0    0    0  0.00000000000E+00  0.00000000000E+00  0.99999998245E-14  0.12500000000E+03  0.12500000000E+03 0.  0.
        -13    1    3    3    0    0  0.42440281400E+02  0.48420270573E+01  0.45610090317E+01  0.42958546051E+02  0.10566000000E+00 0.  1.
         23    2    1    0    0    0  0.39577506828E+01 -0.22961480671E+02 -0.18033255848E+02  0.95536604040E+02  0.90879871313E+02 0.  0.
         13    1    3    3    0    0 -0.38482530718E+02 -0.27803507728E+02 -0.22594264879E+02  0.52578057989E+02  0.10566000000E+00 0. -1.
         22    1    1    0    0    0 -0.39577506828E+01  0.22961480671E+02  0.18033255848E+02  0.29463395960E+02  0.00000000000E+00 0. -1.
</event>
<event>
 5    1  0.1751027E-003  0.9118800E+02  0.7818608E-02  0.1130116E+00
         25   -1    0    0    0    0  0.00000000000E+00  0.00000000000E+00  0.99999998245E-14  0.12500000000E+03  0.12500000000E+03 0.  0.
        -13    1    3    3    0    0  0.23819151982E+01 -0.42523828239E+02  0.24919668670E+02  0.49345217993E+02  0.10566000000E+00 0.  1.
         23    2    1    0    0    0  0.12409450820E+01 -0.22726334241E+02 -0.17578135731E+02  0.96242095547E+02  0.91845108127E+02 0.  0.
         13    1    3    3    0    0 -0.11409701163E+01  0.19797493998E+02 -0.42497804401E+02  0.46896877554E+02  0.10566000000E+00 0. -1.
         22    1    1    0    0    0 -0.12409450820E+01  0.22726334241E+02  0.17578135731E+02  0.28757904453E+02  0.00000000000E+00 0.  1.
</event>
<event>
 5    1  0.1751027E-003  0.9118800E+02  0.7818608E-02  0.1130116E+00
         25   -1    0    0    0    0  0.00000000000E+00  0.00000000000E+00  0.99999998245E-14  0.12500000000E+03  0.12500000000E+03 0.  0.
        -13    1    3    3    0    0 -0.21411530836E+02 -0.34336421070E+02 -0.14628106695E+02  0.43028317818E+02  0.10566000000E+00 0.  1.
         23    2    1    0    0    0 -0.10035167907E+02 -0.80039386338E+01  0.27878477380E+02  0.94308354075E+02  0.89174483563E+02 0.  0.
         13    1    3    3    0    0  0.11376362930E+02  0.26332482437E+02  0.42506584075E+02  0.51280036257E+02  0.10566000000E+00 0. -1.
         22    1    1    0    0    0  0.10035167907E+02  0.80039386338E+01 -0.27878477380E+02  0.30691645925E+02  0.00000000000E+00 0. -1.
</event>
<event>
 5    1  0.1751027E-003  0.9118800E+02  0.7818608E-02  0.1130116E+00
         25   -1    0    0    0    0  0.00000000000E+00  0.00000000000E+00  0.99999998245E-14  0.12500000000E+03  0.12500000000E+03 0.  0.
        -13    1    3    3    0    0 -0.17542847128E+02 -0.17202962568E+02 -0.48277489551E+02  0.54170292300E+02  0.10566000000E+00 0.  1.
         23    2    1    0    0    0 -0.25583802073E+02 -0.99645440573E+01 -0.72463077230E+01  0.96604013622E+02  0.92336360149E+02 0.  0.
         13    1    3    3    0    0 -0.80409549449E+01  0.72384185109E+01  0.41031181828E+02  0.42433721322E+02  0.10566000000E+00 0. -1.
         22    1    1    0    0    0  0.25583802073E+02  0.99645440573E+01  0.72463077230E+01  0.28395986378E+02  0.00000000000E+00 0.  1.
</event>
<event>
 5    1  0.1751027E-003  0.9118800E+02  0.7818608E-02  0.1130116E+00
         25   -1    0    0    0    0  0.00000000000E+00  0.00000000000E+00  0.99999998245E-14  0.12500000000E+03  0.12500000000E+03 0.  0.
        -13    1    3    3    0    0 -0.49693225082E+02 -0.43597829370E+01 -0.32202338679E+02  0.59375298793E+02  0.10566000000E+00 0.  1.
         23    2    1    0    0    0 -0.26147514865E+02  0.10017199247E+02 -0.85263717213E+01  0.95729949964E+02  0.91145419474E+02 0.  0.
         13    1    3    3    0    0  0.23545710217E+02  0.14376982184E+02  0.23675966958E+02  0.36354651171E+02  0.10566000000E+00 0. -1.
         22    1    1    0    0    0  0.26147514865E+02 -0.10017199247E+02  0.85263717213E+01  0.29270050036E+02  0.00000000000E+00 0.  1.
</event>
<event>
 5    1  0.1751027E-003  0.9118800E+02  0.7818608E-02  0.1130116E+00
         25   -1    0    0    0    0  0.00000000000E+00  0.00000000000E+00  0.99999998245E-14  0.12500000000E+03  0.12500000000E+03 0.  0.
        -13    1    3    3    0    0 -0.21064692154E+01 -0.53007285268E+02  0.28296775210E+02  0.60124272597E+02  0.10566000000E+00 0. -1.
         23    2    1    0    0    0 -0.27566158918E+01 -0.18839585066E+02  0.23689069447E+02  0.94607551795E+02  0.89592901218E+02 0.  0.
         13    1    3    3    0    0 -0.65014667638E+00  0.34167700202E+02 -0.46077057628E+01  0.34483279197E+02  0.10566000000E+00 0.  1.
         22    1    1    0    0    0  0.27566158918E+01  0.18839585066E+02 -0.23689069447E+02  0.30392448205E+02  0.00000000000E+00 0. -1.
</event>
<event>
 5    1  0.1751027E-003  0.9118800E+02  0.7818608E-02  0.1130116E+00
         25   -1    0    0    0    0  0.00000000000E+00  0.00000000000E+00  0.99999998245E-14  0.12500000000E+03  0.12500000000E+03 0.  0.
        -13    1    3    3    0    0 -0.36412280321E+01  0.15440610723E+02 -0.43242867404E+02  0.46061130538E+02  0.10566000000E+00 0.  1.
         23    2    1    0    0    0  0.23121537132E+01 -0.25026832713E+02 -0.16020053826E+02  0.95195125650E+02  0.90408967544E+02 0.  0.
         13    1    3    3    0    0  0.59533817453E+01 -0.40467443436E+02  0.27222813578E+02  0.49133995112E+02  0.10566000000E+00 0. -1.
         22    1    1    0    0    0 -0.23121537132E+01  0.25026832713E+02  0.16020053826E+02  0.29804874350E+02  0.00000000000E+00 0.  1.
</event>
<event>
 5    1  0.1751027E-003  0.9118800E+02  0.7818608E-02  0.1130116E+00
         25   -1    0    0    0    0  0.00000000000E+00  0.00000000000E+00  0.99999998245E-14  0.12500000000E+03  0.12500000000E+03 0.  0.
        -13    1    3    3    0    0  0.44621204715E+02  0.24005853957E+02 -0.20107671784E+02  0.54512957754E+02  0.10566000000E+00 0. -1.
         23    2    1    0    0    0  0.25447663934E+02 -0.11843081154E+01  0.94545139810E+01  0.97826961524E+02  0.93977339720E+02 0.  0.
         13    1    3    3    0    0 -0.19173540781E+02 -0.25190162073E+02  0.29562185765E+02  0.43314003770E+02  0.10566000000E+00 0.  1.
         22    1    1    0    0    0 -0.25447663934E+02  0.11843081154E+01 -0.94545139810E+01  0.27173038476E+02  0.00000000000E+00 0.  1.
</event>
<event>
 5    1  0.1751027E-003  0.9118800E+02  0.7818608E-02  0.1130116E+00
         25   -1    0    0    0    0  0.00000000000E+00  0.00000000000E+00  0.99999998245E-14  0.12500000000E+03  0.12500000000E+03 0.  0.
        -13    1    3    3    0    0  0.54790162997E+02  0.19137462809E+01  0.25155962877E+02  0.60319632114E+02  0.10566000000E+00 0. -1.
         23    2    1    0    0    0  0.20270192647E+02 -0.53058141783E+01  0.20131933200E+02  0.95942692684E+02  0.91436716756E+02 0.  0.
         13    1    3    3    0    0 -0.34519970350E+02 -0.72195604591E+01 -0.50240296764E+01  0.35623060571E+02  0.10566000000E+00 0.  1.
         22    1    1    0    0    0 -0.20270192647E+02  0.53058141783E+01 -0.20131933200E+02  0.29057307316E+02  0.00000000000E+00 0. -1.
</event>
<event>
 5    1  0.1751027E-003  0.9118800E+02  0.7818608E-02  0.1130116E+00
         25   -1    0    0    0    0  0.00000000000E+00  0.00000000000E+00  0.99999998245E-14  0.12500000000E+03  0.12500000000E+03 0.  0.
        -13    1    3    3    0    0  0.28897691564E+02  0.18115647067E+02 -0.32308162717E+02  0.46979589064E+02  0.10566000000E+00 0.  1.
         23    2    1    0    0    0  0.21190638756E+02 -0.20430628769E+02 -0.42871038780E+01  0.95253857016E+02  0.90490133462E+02 0.  0.
         13    1    3    3    0    0 -0.77070528081E+01 -0.38546275836E+02  0.28021058839E+02  0.48274267952E+02  0.10566000000E+00 0. -1.
         22    1    1    0    0    0 -0.21190638756E+02  0.20430628769E+02  0.42871038780E+01  0.29746142984E+02  0.00000000000E+00 0. -1.
</event>
<event>
 5    1  0.1751027E-003  0.9118800E+02  0.7818608E-02  0.1130116E+00
         25   -1    0    0    0    0  0.00000000000E+00  0.00000000000E+00  0.99999998245E-14  0.12500000000E+03  0.12500000000E+03 0.  0.
        -13    1    3    3    0    0  0.37347811508E+01 -0.14246558032E+02 -0.30706748096E+02  0.34056255647E+02  0.10566000000E+00 0. -1.
         23    2    1    0    0    0  0.40501823165E+02  0.31101524720E+01 -0.10782037136E+01  0.84364630538E+02  0.73933467622E+02 0.  0.
         13    1    3    3    0    0  0.36767042014E+02  0.17356710504E+02  0.29628544382E+02  0.50308374891E+02  0.10566000000E+00 0.  1.
         22    1    1    0    0    0 -0.40501823165E+02 -0.31101524720E+01  0.10782037136E+01  0.40635369462E+02  0.00000000000E+00 0.  1.
</event>
<event>
 5    1  0.1751027E-003  0.9118800E+02  0.7818608E-02  0.1130116E+00
         25   -1    0    0    0    0  0.00000000000E+00  0.00000000000E+00  0.99999998245E-14  0.12500000000E+03  0.12500000000E+03 0.  0.
        -13    1    3    3    0    0  0.79679104098E+01 -0.20427369941E+02  0.37682743987E+02  0.43597768262E+02  0.10566000000E+00 0. -1.
         23    2    1    0    0    0  0.28555337871E+02 -0.10586044783E+01 -0.61655537642E+01  0.95767449349E+02  0.91196832934E+02 0.  0.
         13    1    3    3    0    0  0.20587427461E+02  0.19368765463E+02 -0.43848297751E+02  0.52169681087E+02  0.10566000000E+00 0.  1.
         22    1    1    0    0    0 -0.28555337871E+02  0.10586044783E+01  0.61655537642E+01  0.29232550651E+02  0.00000000000E+00 0.  1.
</event>
<event>
 5    1  0.1751027E-003  0.9118800E+02  0.7818608E-02  0.1130116E+00
         25   -1    0    0    0    0  0.00000000000E+00  0.00000000000E+00  0.99999998245E-14  0.12500000000E+03  0.12500000000E+03 0.  0.
        -13    1    3    3    0    0  0.13225032116E+02  0.14315960147E+02  0.28751496798E+02  0.34734822895E+02  0.10566000000E+00 0.  1.
         23    2    1    0    0    0 -0.27129245726E+02 -0.69327699437E+01 -0.10686872039E+02  0.95028872114E+02  0.90178811417E+02 0.  0.
         13    1    3    3    0    0 -0.40354277842E+02 -0.21248730091E+02 -0.39438368837E+02  0.60294049219E+02  0.10566000000E+00 0. -1.
         22    1    1    0    0    0  0.27129245726E+02  0.69327699437E+01  0.10686872039E+02  0.29971127886E+02  0.00000000000E+00 0. -1.
</event>
<event>
 5    1  0.1751027E-003  0.9118800E+02  0.7818608E-02  0.1130116E+00
         25   -1    0    0    0    0  0.00000000000E+00  0.00000000000E+00  0.99999998245E-14  0.12500000000E+03  0.12500000000E+03 0.  0.
        -13    1    3    3    0    0  0.15452052149E+02 -0.33019150501E+02 -0.27576294309E+01  0.36560168210E+02  0.10566000000E+00 0.  1.
         23    2    1    0    0    0 -0.30305832345E+02  0.25837854199E+01 -0.56039346306E+00  0.94579062111E+02  0.89553143594E+02 0.  0.
         13    1    3    3    0    0 -0.45757884494E+02  0.35602935920E+02  0.21972359678E+01  0.58018893901E+02  0.10566000000E+00 0. -1.
         22    1    1    0    0    0  0.30305832345E+02 -0.25837854199E+01  0.56039346306E+00  0.30420937889E+02  0.00000000000E+00 0. -1.
</event>
<event>
 5    1  0.1751027E-003  0.9118800E+02  0.7818608E-02  0.1130116E+00
         25   -1    0    0    0    0  0.00000000000E+00  0.00000000000E+00  0.99999998245E-14  0.12500000000E+03  0.12500000000E+03 0.  0.
        -13    1    3    3    0    0  0.24799444681E+01  0.22107423268E+02  0.24779161828E+02  0.33300244940E+02  0.10566000000E+00 0. -1.
         23    2    1    0    0    0 -0.14311712433E+02 -0.20752762776E+02 -0.16286217450E+02  0.94987616649E+02  0.90121607633E+02 0.  0.
         13    1    3    3    0    0 -0.16791656901E+02 -0.42860186043E+02 -0.41065379278E+02  0.61687371709E+02  0.10566000000E+00 0.  1.
         22    1    1    0    0    0  0.14311712433E+02  0.20752762776E+02  0.16286217450E+02  0.30012383351E+02  0.00000000000E+00 0.  1.
</event>
<event>
 5    1  0.1751027E-003  0.9118800E+02  0.7818608E-02  0.1130116E+00
         25   -1    0    0    0    0  0.00000000000E+00  0.00000000000E+00  0.99999998245E-14  0.12500000000E+03  0.12500000000E+03 0.  0.
        -13    1    3    3    0    0 -0.32120166875E+02 -0.17141370397E+02 -0.43825445748E+02  0.56975543510E+02  0.10566000000E+00 0. -1.
         23    2    1    0    0    0  0.61519959619E+00 -0.12474803342E+02 -0.29410149994E+02  0.93047596152E+02  0.87389353116E+02 0.  0.
         13    1    3    3    0    0  0.32735366472E+02  0.46665670549E+01  0.14415295754E+02  0.36072052642E+02  0.10566000000E+00 0.  1.
         22    1    1    0    0    0 -0.61519959619E+00  0.12474803342E+02  0.29410149994E+02  0.31952403848E+02  0.00000000000E+00 0. -1.
</event>
<event>
 5    1  0.1751027E-003  0.9118800E+02  0.7818608E-02  0.1130116E+00
         25   -1    0    0    0    0  0.00000000000E+00  0.00000000000E+00  0.99999998245E-14  0.12500000000E+03  0.12500000000E+03 0.  0.
        -13    1    3    3    0    0 -0.18619338661E+02  0.45049709614E+02  0.96601069951E+01  0.49693912501E+02  0.10566000000E+00 0.  1.
         23    2    1    0    0    0 -0.29168927479E+01  0.64699391687E+01  0.28659021985E+02  0.95475299878E+02  0.90795511835E+02 0.  0.
         13    1    3    3    0    0  0.15702445913E+02 -0.38579770445E+02  0.18998914990E+02  0.45781387376E+02  0.10566000000E+00 0. -1.
         22    1    1    0    0    0  0.29168927479E+01 -0.64699391687E+01 -0.28659021985E+02  0.29524700122E+02  0.00000000000E+00 0.  1.
</event>
<event>
 5    1  0.1751027E-003  0.9118800E+02  0.7818608E-02  0.1130116E+00
         25   -1    0    0    0    0  0.00000000000E+00  0.00000000000E+00  0.99999998245E-14  0.12500000000E+03  0.12500000000E+03 0.  0.
        -13    1    3    3    0    0 -0.28048889288E+02 -0.11037300041E+02  0.17320878935E+02  0.34764726284E+02  0.10566000000E+00 0. -1.
         23    2    1    0    0    0  0.19473456527E+02  0.15596351427E+02 -0.12741093817E+02  0.96985768642E+02  0.92851721365E+02 0.  0.
         13    1    3    3    0    0  0.47522345815E+02  0.26633651468E+02 -0.30061972753E+02  0.62221042358E+02  0.10566000000E+00 0.  1.
         22    1    1    0    0    0 -0.19473456527E+02 -0.15596351427E+02  0.12741093817E+02  0.28014231358E+02  0.00000000000E+00 0.  1.
</event>
<event>
 5    1  0.1751027E-003  0.9118800E+02  0.7818608E-02  0.1130116E+00
         25   -1    0    0    0    0  0.00000000000E+00  0.00000000000E+00  0.99999998245E-14  0.12500000000E+03  0.12500000000E+03 0.  0.
        -13    1    3    3    0    0 -0.29287713847E+02  0.26153605126E+02 -0.31264207355E+02  0.50192061814E+02  0.10566000000E+00 0.  1.
         23    2    1    0    0    0 -0.27544683919E+02 -0.19587123011E+01  0.58388696785E+01  0.96775213638E+02  0.92567831396E+02 0.  0.
         13    1    3    3    0    0  0.17430299285E+01 -0.28112317427E+02  0.37103077034E+02  0.46583151824E+02  0.10566000000E+00 0. -1.
         22    1    1    0    0    0  0.27544683919E+02  0.19587123011E+01 -0.58388696785E+01  0.28224786362E+02  0.00000000000E+00 0.  1.
</event>
<event>
 5    1  0.1751027E-003  0.9118800E+02  0.7818608E-02  0.1130116E+00
         25   -1    0    0    0    0  0.00000000000E+00  0.00000000000E+00  0.99999998245E-14  0.12500000000E+03  0.12500000000E+03 0.  0.
        -13    1    3    3    0    0  0.54308622094E+01 -0.37810263970E+02  0.13028885540E+01  0.38220662061E+02  0.10566000000E+00 0.  1.
         23    2    1    0    0    0 -0.10162941767E+02  0.12304300405E+02  0.24626725427E+02  0.95654526771E+02  0.91041922720E+02 0.  0.
         13    1    3    3    0    0 -0.15593803976E+02  0.50114564375E+02  0.23323836873E+02  0.57433864709E+02  0.10566000000E+00 0. -1.
         22    1    1    0    0    0  0.10162941767E+02 -0.12304300405E+02 -0.24626725427E+02  0.29345473229E+02  0.00000000000E+00 0. -1.
</event>
<event>
 5    1  0.1751027E-003  0.9118800E+02  0.7818608E-02  0.1130116E+00
         25   -1    0    0    0    0  0.00000000000E+00  0.00000000000E+00  0.99999998245E-14  0.12500000000E+03  0.12500000000E+03 0.  0.
        -13    1    3    3    0    0 -0.10058923994E+02 -0.27477333786E+02 -0.54845206377E+02  0.62162638703E+02  0.10566000000E+00 0.  1.
         23    2    1    0    0    0 -0.23920026994E+01 -0.16702045106E+02 -0.24632939551E+02  0.95142644146E+02  0.90336377150E+02 0.  0.
         13    1    3    3    0    0  0.76669212942E+01  0.10775288680E+02  0.30212266826E+02  0.32980005444E+02  0.10566000000E+00 0. -1.
         22    1    1    0    0    0  0.23920026994E+01  0.16702045106E+02  0.24632939551E+02  0.29857355854E+02  0.00000000000E+00 0.  1.
</event>
<event>
 5    1  0.1751027E-003  0.9118800E+02  0.7818608E-02  0.1130116E+00
         25   -1    0    0    0    0  0.00000000000E+00  0.00000000000E+00  0.99999998245E-14  0.12500000000E+03  0.12500000000E+03 0.  0.
        -13    1    3    3    0    0  0.27481106535E+02  0.54126379981E+01  0.47574503888E+02  0.55207358665E+02  0.10566000000E+00 0. -1.
         23    2    1    0    0    0  0.55119458490E+01 -0.17790357066E+02  0.22279549808E+02  0.95961117597E+02  0.91461901354E+02 0.  0.
         13    1    3    3    0    0 -0.21969160686E+02 -0.23202995064E+02 -0.25294954080E+02  0.40753758933E+02  0.10566000000E+00 0.  1.
         22    1    1    0    0    0 -0.55119458490E+01  0.17790357066E+02 -0.22279549808E+02  0.29038882403E+02  0.00000000000E+00 0. -1.
</event>
<event>
 5    1  0.1751027E-003  0.9118800E+02  0.7818608E-02  0.1130116E+00
         25   -1    0    0    0    0  0.00000000000E+00  0.00000000000E+00  0.99999998245E-14  0.12500000000E+03  0.12500000000E+03 0.  0.
        -13    1    3    3    0    0  0.27398114610E+01  0.39596855412E+02  0.24913991678E+02  0.46862945604E+02  0.10566000000E+00 0.  1.
         23    2    1    0    0    0 -0.61806734475E+01  0.22541214249E+02 -0.19044251109E+02  0.94850529617E+02  0.89931264887E+02 0.  0.
         13    1    3    3    0    0 -0.89204849085E+01 -0.17055641163E+02 -0.43958242787E+02  0.47987584013E+02  0.10566000000E+00 0. -1.
         22    1    1    0    0    0  0.61806734475E+01 -0.22541214249E+02  0.19044251109E+02  0.30149470383E+02  0.00000000000E+00 0. -1.
</event>
<event>
 5    1  0.1751027E-003  0.9118800E+02  0.7818608E-02  0.1130116E+00
         25   -1    0    0    0    0  0.00000000000E+00  0.00000000000E+00  0.99999998245E-14  0.12500000000E+03  0.12500000000E+03 0.  0.
        -13    1    3    3    0    0 -0.44594888471E+01 -0.38500940464E+02  0.41940384625E+02  0.57107061594E+02  0.10566000000E+00 0. -1.
         23    2    1    0    0    0  0.15770465759E+02 -0.20343681535E+02  0.15936738063E+02  0.94725380452E+02  0.89757145193E+02 0.  0.
         13    1    3    3    0    0  0.20229954606E+02  0.18157258929E+02 -0.26003646562E+02  0.37618318858E+02  0.10566000000E+00 0.  1.
         22    1    1    0    0    0 -0.15770465759E+02  0.20343681535E+02 -0.15936738063E+02  0.30274619548E+02  0.00000000000E+00 0. -1.
</event>
<event>
 5    1  0.1751027E-003  0.9118800E+02  0.7818608E-02  0.1130116E+00
         25   -1    0    0    0    0  0.00000000000E+00  0.00000000000E+00  0.99999998245E-14  0.12500000000E+03  0.12500000000E+03 0.  0.
        -13    1    3    3    0    0 -0.13133925675E+02 -0.59780847472E+02 -0.73072503348E+01  0.61641356244E+02  0.10566000000E+00 0. -1.
         23    2    1    0    0    0 -0.14297443032E+02 -0.40836478186E+02 -0.73707945973E+00  0.81726704378E+02  0.69330196123E+02 0.  0.
         13    1    3    3    0    0 -0.11635173565E+01  0.18944369286E+02  0.65701708751E+01  0.20085348134E+02  0.10566000000E+00 0.  1.
         22    1    1    0    0    0  0.14297443032E+02  0.40836478186E+02  0.73707945973E+00  0.43273295622E+02  0.00000000000E+00 0. -1.
</event>
<event>
 5    1  0.1751027E-003  0.9118800E+02  0.7818608E-02  0.1130116E+00
         25   -1    0    0    0    0  0.00000000000E+00  0.00000000000E+00  0.99999998245E-14  0.12500000000E+03  0.12500000000E+03 0.  0.
        -13    1    3    3    0    0  0.58638875346E+01  0.23449535342E+02  0.62283999949E+00  0.24179846536E+02  0.10566000000E+00 0.  1.
         23    2    1    0    0    0  0.27646885268E+02 -0.30851368614E+02  0.68254286991E+01  0.83014958767E+02  0.71615219694E+02 0.  0.
         13    1    3    3    0    0  0.21782997733E+02 -0.54300903956E+02  0.62025886996E+01  0.58835112232E+02  0.10566000000E+00 0. -1.
         22    1    1    0    0    0 -0.27646885268E+02  0.30851368614E+02 -0.68254286991E+01  0.41985041233E+02  0.00000000000E+00 0. -1.
</event>
<event>
 5    1  0.1751027E-003  0.9118800E+02  0.7818608E-02  0.1130116E+00
         25   -1    0    0    0    0  0.00000000000E+00  0.00000000000E+00  0.99999998245E-14  0.12500000000E+03  0.12500000000E+03 0.  0.
        -13    1    3    3    0    0  0.56037558737E+01  0.10308661825E+02 -0.31280678705E+02  0.33409019932E+02  0.10566000000E+00 0.  1.
         23    2    1    0    0    0 -0.20984455313E+01 -0.83856276300E+01  0.27817557252E+02  0.95870312122E+02  0.91337714174E+02 0.  0.
         13    1    3    3    0    0 -0.77022014050E+01 -0.18694289455E+02  0.59098235958E+02  0.62461292190E+02  0.10566000000E+00 0. -1.
         22    1    1    0    0    0  0.20984455313E+01  0.83856276300E+01 -0.27817557252E+02  0.29129687878E+02  0.00000000000E+00 0. -1.
</event>
<event>
 5    1  0.1751027E-003  0.9118800E+02  0.7818608E-02  0.1130116E+00
         25   -1    0    0    0    0  0.00000000000E+00  0.00000000000E+00  0.99999998245E-14  0.12500000000E+03  0.12500000000E+03 0.  0.
        -13    1    3    3    0    0  0.15375748885E+02 -0.42944001456E+01  0.49097135740E+02  0.51627467770E+02  0.10566000000E+00 0.  1.
         23    2    1    0    0    0  0.15412376945E+02  0.20361628466E+02  0.10584990677E+02  0.97356206763E+02  0.93349085110E+02 0.  0.
         13    1    3    3    0    0  0.36628059472E-01  0.24656028612E+02 -0.38512145063E+02  0.45728738994E+02  0.10566000000E+00 0. -1.
         22    1    1    0    0    0 -0.15412376945E+02 -0.20361628466E+02 -0.10584990677E+02  0.27643793237E+02  0.00000000000E+00 0. -1.
</event>
<event>
 5    1  0.1751027E-003  0.9118800E+02  0.7818608E-02  0.1130116E+00
         25   -1    0    0    0    0  0.00000000000E+00  0.00000000000E+00  0.99999998245E-14  0.12500000000E+03  0.12500000000E+03 0.  0.
        -13    1    3    3    0    0  0.17511910136E+02  0.24529680055E+01  0.34418183138E+02  0.38695045461E+02  0.10566000000E+00 0. -1.
         23    2    1    0    0    0 -0.26371900496E+02  0.88371336924E+01 -0.34037765810E+01  0.96979333293E+02  0.92843057486E+02 0.  0.
         13    1    3    3    0    0 -0.43883810632E+02  0.63841656868E+01 -0.37821959719E+02  0.58284287832E+02  0.10566000000E+00 0.  1.
         22    1    1    0    0    0  0.26371900496E+02 -0.88371336924E+01  0.34037765810E+01  0.28020666707E+02  0.00000000000E+00 0.  1.
</event>
<event>
 5    1  0.1751027E-003  0.9118800E+02  0.7818608E-02  0.1130116E+00
         25   -1    0    0    0    0  0.00000000000E+00  0.00000000000E+00  0.99999998245E-14  0.12500000000E+03  0.12500000000E+03 0.  0.
        -13    1    3    3    0    0  0.20269056815E+02 -0.27282956714E+02  0.12075220694E+00  0.33988529482E+02  0.10566000000E+00 0.  1.
         23    2    1    0    0    0 -0.36829006480E+01  0.27114597836E+02 -0.12763118243E+02  0.94806252961E+02  0.89869701459E+02 0.  0.
         13    1    3    3    0    0 -0.23951957463E+02  0.54397554550E+02 -0.12883870450E+02  0.60817723479E+02  0.10566000000E+00 0. -1.
         22    1    1    0    0    0  0.36829006480E+01 -0.27114597836E+02  0.12763118243E+02  0.30193747039E+02  0.00000000000E+00 0. -1.
</event>
<event>
 5    1  0.1751027E-003  0.9118800E+02  0.7818608E-02  0.1130116E+00
         25   -1    0    0    0    0  0.00000000000E+00  0.00000000000E+00  0.99999998245E-14  0.12500000000E+03  0.12500000000E+03 0.  0.
        -13    1    3    3    0    0 -0.38645633263E+02  0.74486113696E+01 -0.14516513673E+02  0.41948863094E+02  0.10566000000E+00 0.  1.
         23    2    1    0    0    0  0.99244341819E+01 -0.15504974951E+02 -0.22138177366E+02  0.96207682636E+02  0.91798260654E+02 0.  0.
         13    1    3    3    0    0  0.48570067445E+02 -0.22953586321E+02 -0.76216636935E+01  0.54258819542E+02  0.10566000000E+00 0. -1.
         22    1    1    0    0    0 -0.99244341819E+01  0.15504974951E+02  0.22138177366E+02  0.28792317364E+02  0.00000000000E+00 0. -1.
</event>
<event>
 5    1  0.1751027E-003  0.9118800E+02  0.7818608E-02  0.1130116E+00
         25   -1    0    0    0    0  0.00000000000E+00  0.00000000000E+00  0.99999998245E-14  0.12500000000E+03  0.12500000000E+03 0.  0.
        -13    1    3    3    0    0 -0.22812343245E+02 -0.32758476391E+02 -0.40640952935E+02  0.56966823672E+02  0.10566000000E+00 0. -1.
         23    2    1    0    0    0  0.72220327137E+01 -0.18468669818E+02 -0.23052545205E+02  0.94591623493E+02  0.89570675298E+02 0.  0.
         13    1    3    3    0    0  0.30034375958E+02  0.14289806573E+02  0.17588407730E+02  0.37624799822E+02  0.10566000000E+00 0.  1.
         22    1    1    0    0    0 -0.72220327137E+01  0.18468669818E+02  0.23052545205E+02  0.30408376507E+02  0.00000000000E+00 0. -1.
</event>
<event>
 5    1  0.1751027E-003  0.9118800E+02  0.7818608E-02  0.1130116E+00
         25   -1    0    0    0    0  0.00000000000E+00  0.00000000000E+00  0.99999998245E-14  0.12500000000E+03  0.12500000000E+03 0.  0.
        -13    1    3    3    0    0 -0.17359342753E+02  0.30100080719E+02 -0.99003603780E+01  0.36130180456E+02  0.10566000000E+00 0. -1.
         23    2    1    0    0    0  0.28800782058E+02 -0.54224729917E+01  0.21666366994E+01  0.95613224487E+02  0.90985197267E+02 0.  0.
         13    1    3    3    0    0  0.46160124811E+02 -0.35522553711E+02  0.12066997077E+02  0.59483044031E+02  0.10566000000E+00 0.  1.
         22    1    1    0    0    0 -0.28800782058E+02  0.54224729917E+01 -0.21666366994E+01  0.29386775513E+02  0.00000000000E+00 0.  1.
</event>
<event>
 5    1  0.1751027E-003  0.9118800E+02  0.7818608E-02  0.1130116E+00
         25   -1    0    0    0    0  0.00000000000E+00  0.00000000000E+00  0.99999998245E-14  0.12500000000E+03  0.12500000000E+03 0.  0.
        -13    1    3    3    0    0  0.24545644227E+02  0.36677308704E+02  0.79210127043E+01  0.44838234026E+02  0.10566000000E+00 0.  1.
         23    2    1    0    0    0 -0.20463007003E+02  0.12647652057E+02  0.15446118235E+02  0.96411884870E+02  0.92075899222E+02 0.  0.
         13    1    3    3    0    0 -0.45008651230E+02 -0.24029656647E+02  0.75251055310E+01  0.51573650844E+02  0.10566000000E+00 0. -1.
         22    1    1    0    0    0  0.20463007003E+02 -0.12647652057E+02 -0.15446118235E+02  0.28588115130E+02  0.00000000000E+00 0.  1.
</event>
<event>
 5    1  0.1751027E-003  0.9118800E+02  0.7818608E-02  0.1130116E+00
         25   -1    0    0    0    0  0.00000000000E+00  0.00000000000E+00  0.99999998245E-14  0.12500000000E+03  0.12500000000E+03 0.  0.
        -13    1    3    3    0    0  0.12065539002E+02 -0.98038206646E+01  0.39122544296E+02  0.42098417633E+02  0.10566000000E+00 0. -1.
         23    2    1    0    0    0 -0.28647962079E+02 -0.42091996035E+01  0.47851331623E+01  0.95651736134E+02  0.91038091113E+02 0.  0.
         13    1    3    3    0    0 -0.40713501080E+02  0.55946210611E+01 -0.34337411134E+02  0.53553318501E+02  0.10566000000E+00 0.  1.
         22    1    1    0    0    0  0.28647962079E+02  0.42091996035E+01 -0.47851331623E+01  0.29348263866E+02  0.00000000000E+00 0.  1.
</event>
<event>
 5    1  0.1751027E-003  0.9118800E+02  0.7818608E-02  0.1130116E+00
         25   -1    0    0    0    0  0.00000000000E+00  0.00000000000E+00  0.99999998245E-14  0.12500000000E+03  0.12500000000E+03 0.  0.
        -13    1    3    3    0    0 -0.23357465817E+02  0.21767429796E+02  0.41434734148E+02  0.52309086852E+02  0.10566000000E+00 0. -1.
         23    2    1    0    0    0  0.42751990414E+01 -0.98454633494E+01  0.25700970056E+02  0.97147704992E+02  0.93069470010E+02 0.  0.
         13    1    3    3    0    0  0.27632664858E+02 -0.31612893145E+02 -0.15733764092E+02  0.44838618140E+02  0.10566000000E+00 0.  1.
         22    1    1    0    0    0 -0.42751990414E+01  0.98454633494E+01 -0.25700970056E+02  0.27852295008E+02  0.00000000000E+00 0. -1.
</event>
<event>
 5    1  0.1751027E-003  0.9118800E+02  0.7818608E-02  0.1130116E+00
         25   -1    0    0    0    0  0.00000000000E+00  0.00000000000E+00  0.99999998245E-14  0.12500000000E+03  0.12500000000E+03 0.  0.
        -13    1    3    3    0    0 -0.24627079031E+02 -0.33090080844E+01  0.43304822546E+02  0.49927561285E+02  0.10566000000E+00 0.  1.
         23    2    1    0    0    0 -0.24856200583E+02  0.16098533077E+02  0.22966547677E+01  0.95297001872E+02  0.90549712689E+02 0.  0.
         13    1    3    3    0    0 -0.22912155238E+00  0.19407541162E+02 -0.41008167778E+02  0.45369440587E+02  0.10566000000E+00 0. -1.
         22    1    1    0    0    0  0.24856200583E+02 -0.16098533077E+02 -0.22966547677E+01  0.29702998128E+02  0.00000000000E+00 0.  1.
</event>
<event>
 5    1  0.1751027E-003  0.9118800E+02  0.7818608E-02  0.1130116E+00
         25   -1    0    0    0    0  0.00000000000E+00  0.00000000000E+00  0.99999998245E-14  0.12500000000E+03  0.12500000000E+03 0.  0.
        -13    1    3    3    0    0 -0.49629230953E+02  0.35566411010E+01  0.11031128378E+02  0.50964764477E+02  0.10566000000E+00 0.  1.
         23    2    1    0    0    0 -0.85947447646E+01 -0.20330093681E+01  0.27940069047E+02  0.95697265947E+02  0.91100584447E+02 0.  0.
         13    1    3    3    0    0  0.41034486188E+02 -0.55896504691E+01  0.16908940669E+02  0.44732501469E+02  0.10566000000E+00 0. -1.
         22    1    1    0    0    0  0.85947447646E+01  0.20330093681E+01 -0.27940069047E+02  0.29302734053E+02  0.00000000000E+00 0.  1.
</event>
<event>
 5    1  0.1751027E-003  0.9118800E+02  0.7818608E-02  0.1130116E+00
         25   -1    0    0    0    0  0.00000000000E+00  0.00000000000E+00  0.99999998245E-14  0.12500000000E+03  0.12500000000E+03 0.  0.
        -13    1    3    3    0    0 -0.42310317062E+02 -0.14465347596E+02 -0.13160106339E+01  0.44734240342E+02  0.10566000000E+00 0. -1.
         23    2    1    0    0    0  0.42118243196E+01 -0.25776764178E+02  0.14462176102E+02  0.95144756353E+02  0.90339299800E+02 0.  0.
         13    1    3    3    0    0  0.46522141381E+02 -0.11311416582E+02  0.15778186736E+02  0.50410516011E+02  0.10566000000E+00 0.  1.
         22    1    1    0    0    0 -0.42118243196E+01  0.25776764178E+02 -0.14462176102E+02  0.29855243647E+02  0.00000000000E+00 0.  1.
</event>
<event>
 5    1  0.1751027E-003  0.9118800E+02  0.7818608E-02  0.1130116E+00
         25   -1    0    0    0    0  0.00000000000E+00  0.00000000000E+00  0.99999998245E-14  0.12500000000E+03  0.12500000000E+03 0.  0.
        -13    1    3    3    0    0  0.33904440279E+02 -0.31197424066E+02 -0.31233172058E+02  0.55662487726E+02  0.10566000000E+00 0. -1.
         23    2    1    0    0    0  0.23656851588E+01 -0.28458387720E+02 -0.68193250596E+01  0.95640512740E+02  0.91022679509E+02 0.  0.
         13    1    3    3    0    0 -0.31538755121E+02  0.27390363461E+01  0.24413846999E+02  0.39978025013E+02  0.10566000000E+00 0.  1.
         22    1    1    0    0    0 -0.23656851588E+01  0.28458387720E+02  0.68193250596E+01  0.29359487260E+02  0.00000000000E+00 0. -1.
</event>
<event>
 5    1  0.1751027E-003  0.9118800E+02  0.7818608E-02  0.1130116E+00
         25   -1    0    0    0    0  0.00000000000E+00  0.00000000000E+00  0.99999998245E-14  0.12500000000E+03  0.12500000000E+03 0.  0.
        -13    1    3    3    0    0 -0.31715351214E+02 -0.15594749100E+02 -0.55032907594E+01  0.35768101366E+02  0.10566000000E+00 0. -1.
         23    2    1    0    0    0  0.25165599328E+02 -0.83122553051E+01  0.12256100705E+02  0.95800462636E+02  0.91242071760E+02 0.  0.
         13    1    3    3    0    0  0.56880950542E+02  0.72824937945E+01  0.17759391464E+02  0.60032361270E+02  0.10566000000E+00 0.  1.
         22    1    1    0    0    0 -0.25165599328E+02  0.83122553051E+01 -0.12256100705E+02  0.29199537364E+02  0.00000000000E+00 0.  1.
</event>
<event>
 5    1  0.1751027E-003  0.9118800E+02  0.7818608E-02  0.1130116E+00
         25   -1    0    0    0    0  0.00000000000E+00  0.00000000000E+00  0.99999998245E-14  0.12500000000E+03  0.12500000000E+03 0.  0.
        -13    1    3    3    0    0 -0.80912253010E+01  0.33915589644E+01  0.44925117295E+02  0.45773878217E+02  0.10566000000E+00 0. -1.
         23    2    1    0    0    0 -0.29601775184E+02 -0.22394839916E+01  0.66421281805E+00  0.95306203321E+02  0.90562414004E+02 0.  0.
         13    1    3    3    0    0 -0.21510549883E+02 -0.56310429560E+01 -0.44260904477E+02  0.49532325103E+02  0.10566000000E+00 0.  1.
         22    1    1    0    0    0  0.29601775184E+02  0.22394839916E+01 -0.66421281805E+00  0.29693796679E+02  0.00000000000E+00 0.  1.
</event>
<event>
 5    1  0.1751027E-003  0.9118800E+02  0.7818608E-02  0.1130116E+00
         25   -1    0    0    0    0  0.00000000000E+00  0.00000000000E+00  0.99999998245E-14  0.12500000000E+03  0.12500000000E+03 0.  0.
        -13    1    3    3    0    0 -0.27037967419E+01  0.31991306912E+02 -0.74074387097E+01  0.32948984006E+02  0.10566000000E+00 0.  1.
         23    2    1    0    0    0 -0.17475186860E+02 -0.24751248754E+02  0.81746891539E+01  0.93617966710E+02  0.88201426731E+02 0.  0.
         13    1    3    3    0    0 -0.14771390118E+02 -0.56742555666E+02  0.15582127864E+02  0.60668982704E+02  0.10566000000E+00 0. -1.
         22    1    1    0    0    0  0.17475186860E+02  0.24751248754E+02 -0.81746891539E+01  0.31382033290E+02  0.00000000000E+00 0. -1.
</event>
<event>
 5    1  0.1751027E-003  0.9118800E+02  0.7818608E-02  0.1130116E+00
         25   -1    0    0    0    0  0.00000000000E+00  0.00000000000E+00  0.99999998245E-14  0.12500000000E+03  0.12500000000E+03 0.  0.
        -13    1    3    3    0    0  0.29940500305E+02  0.31071451510E+02  0.17643727183E+02  0.46617388713E+02  0.10566000000E+00 0. -1.
         23    2    1    0    0    0  0.19085115216E+02  0.54730234335E+01 -0.22208252820E+02  0.95210704916E+02  0.90430504969E+02 0.  0.
         13    1    3    3    0    0 -0.10855385089E+02 -0.25598428076E+02 -0.39851980003E+02  0.48593316203E+02  0.10566000000E+00 0.  1.
         22    1    1    0    0    0 -0.19085115216E+02 -0.54730234335E+01  0.22208252820E+02  0.29789295084E+02  0.00000000000E+00 0.  1.
</event>
<event>
 5    1  0.1751027E-003  0.9118800E+02  0.7818608E-02  0.1130116E+00
         25   -1    0    0    0    0  0.00000000000E+00  0.00000000000E+00  0.99999998245E-14  0.12500000000E+03  0.12500000000E+03 0.  0.
        -13    1    3    3    0    0 -0.42530284725E+02  0.17756131815E+02 -0.22611533171E+02  0.51336126969E+02  0.10566000000E+00 0. -1.
         23    2    1    0    0    0 -0.22432651647E+02 -0.12621825539E+02 -0.26608266542E+02  0.87979273532E+02  0.79811141973E+02 0.  0.
         13    1    3    3    0    0  0.20097633078E+02 -0.30377957354E+02 -0.39967333712E+01  0.36643146563E+02  0.10566000000E+00 0.  1.
         22    1    1    0    0    0  0.22432651647E+02  0.12621825539E+02  0.26608266542E+02  0.37020726468E+02  0.00000000000E+00 0. -1.
</event>
<event>
 5    1  0.1751027E-003  0.9118800E+02  0.7818608E-02  0.1130116E+00
         25   -1    0    0    0    0  0.00000000000E+00  0.00000000000E+00  0.99999998245E-14  0.12500000000E+03  0.12500000000E+03 0.  0.
        -13    1    3    3    0    0  0.10277488578E+02 -0.92887786596E+01  0.56906278543E+02  0.58568283927E+02  0.10566000000E+00 0. -1.
         23    2    1    0    0    0  0.13253315795E+02  0.87719977996E+01  0.24220342461E+02  0.96030648715E+02  0.91556879473E+02 0.  0.
         13    1    3    3    0    0  0.29758272169E+01  0.18060776459E+02 -0.32685936082E+02  0.37462364788E+02  0.10566000000E+00 0.  1.
         22    1    1    0    0    0 -0.13253315795E+02 -0.87719977996E+01 -0.24220342461E+02  0.28969351285E+02  0.00000000000E+00 0. -1.
</event>
<event>
 5    1  0.1751027E-003  0.9118800E+02  0.7818608E-02  0.1130116E+00
         25   -1    0    0    0    0  0.00000000000E+00  0.00000000000E+00  0.99999998245E-14  0.12500000000E+03  0.12500000000E+03 0.  0.
        -13    1    3    3    0    0 -0.42899826755E+01 -0.23416151435E+02  0.24076385561E+02  0.33858582443E+02  0.10566000000E+00 0.  1.
         23    2    1    0    0    0  0.10423405019E+02  0.20569909060E+02 -0.17424704191E+02  0.96096905926E+02  0.91647293912E+02 0.  0.
         13    1    3    3    0    0  0.14713387694E+02  0.43986060495E+02 -0.41501089752E+02  0.62238323482E+02  0.10566000000E+00 0. -1.
         22    1    1    0    0    0 -0.10423405019E+02 -0.20569909060E+02  0.17424704191E+02  0.28903094074E+02  0.00000000000E+00 0. -1.
</event>
<event>
 5    1  0.1751027E-003  0.9118800E+02  0.7818608E-02  0.1130116E+00
         25   -1    0    0    0    0  0.00000000000E+00  0.00000000000E+00  0.99999998245E-14  0.12500000000E+03  0.12500000000E+03 0.  0.
        -13    1    3    3    0    0 -0.40568950764E+02 -0.40975609790E+02 -0.10577254316E+02  0.58623628655E+02  0.10566000000E+00 0.  1.
         23    2    1    0    0    0 -0.28401755430E+02 -0.67828928699E+01 -0.57879596993E+01  0.95231428911E+02  0.90459146733E+02 0.  0.
         13    1    3    3    0    0  0.12167195334E+02  0.34192716920E+02  0.47892946164E+01  0.36607800256E+02  0.10566000000E+00 0. -1.
         22    1    1    0    0    0  0.28401755430E+02  0.67828928699E+01  0.57879596993E+01  0.29768571089E+02  0.00000000000E+00 0.  1.
</event>
<event>
 5    1  0.1751027E-003  0.9118800E+02  0.7818608E-02  0.1130116E+00
         25   -1    0    0    0    0  0.00000000000E+00  0.00000000000E+00  0.99999998245E-14  0.12500000000E+03  0.12500000000E+03 0.  0.
        -13    1    3    3    0    0  0.25722522566E+02 -0.16263656794E+01 -0.52260119999E+02  0.58270271484E+02  0.10566000000E+00 0. -1.
         23    2    1    0    0    0  0.18811221605E+02  0.12875826397E+02 -0.18558951655E+02  0.95604700202E+02  0.90973485425E+02 0.  0.
         13    1    3    3    0    0 -0.69113009603E+01  0.14502192076E+02  0.33701168343E+02  0.37334428718E+02  0.10566000000E+00 0.  1.
         22    1    1    0    0    0 -0.18811221605E+02 -0.12875826397E+02  0.18558951655E+02  0.29395299798E+02  0.00000000000E+00 0. -1.
</event>
<event>
 5    1  0.1751027E-003  0.9118800E+02  0.7818608E-02  0.1130116E+00
         25   -1    0    0    0    0  0.00000000000E+00  0.00000000000E+00  0.99999998245E-14  0.12500000000E+03  0.12500000000E+03 0.  0.
        -13    1    3    3    0    0  0.60233051009E+02  0.10979867759E+01  0.11083513849E+02  0.61254236197E+02  0.10566000000E+00 0. -1.
         23    2    1    0    0    0  0.39124276064E+02  0.78732091169E+01  0.25485051777E+01  0.85010110303E+02  0.75016848613E+02 0.  0.
         13    1    3    3    0    0 -0.21108774946E+02  0.67752223410E+01 -0.85350086714E+01  0.23755874106E+02  0.10566000000E+00 0.  1.
         22    1    1    0    0    0 -0.39124276064E+02 -0.78732091169E+01 -0.25485051777E+01  0.39989889697E+02  0.00000000000E+00 0. -1.
</event>
<event>
 5    1  0.1751027E-003  0.9118800E+02  0.7818608E-02  0.1130116E+00
         25   -1    0    0    0    0  0.00000000000E+00  0.00000000000E+00  0.99999998245E-14  0.12500000000E+03  0.12500000000E+03 0.  0.
        -13    1    3    3    0    0 -0.13028172326E+02 -0.23733562087E+02  0.22028055752E+02  0.34903605083E+02  0.10566000000E+00 0. -1.
         23    2    1    0    0    0  0.10986030698E+02  0.15517842406E+02 -0.20129669816E+02  0.97310653487E+02  0.93288066610E+02 0.  0.
         13    1    3    3    0    0  0.24014203023E+02  0.39251404493E+02 -0.42157725568E+02  0.62407048405E+02  0.10566000000E+00 0.  1.
         22    1    1    0    0    0 -0.10986030698E+02 -0.15517842406E+02  0.20129669816E+02  0.27689346513E+02  0.00000000000E+00 0.  1.
</event>
<event>
 5    1  0.1751027E-003  0.9118800E+02  0.7818608E-02  0.1130116E+00
         25   -1    0    0    0    0  0.00000000000E+00  0.00000000000E+00  0.99999998245E-14  0.12500000000E+03  0.12500000000E+03 0.  0.
        -13    1    3    3    0    0 -0.63928738233E+01  0.12338138944E+02 -0.35685302590E+02  0.38295567541E+02  0.10566000000E+00 0.  1.
         23    2    1    0    0    0  0.17824035373E+02 -0.26105318655E+02 -0.24282582689E+02  0.85139898130E+02  0.75232802237E+02 0.  0.
         13    1    3    3    0    0  0.24216909196E+02 -0.38443457599E+02  0.11402719900E+02  0.46844330589E+02  0.10566000000E+00 0. -1.
         22    1    1    0    0    0 -0.17824035373E+02  0.26105318655E+02  0.24282582689E+02  0.39860101870E+02  0.00000000000E+00 0. -1.
</event>
<event>
 5    1  0.1751027E-003  0.9118800E+02  0.7818608E-02  0.1130116E+00
         25   -1    0    0    0    0  0.00000000000E+00  0.00000000000E+00  0.99999998245E-14  0.12500000000E+03  0.12500000000E+03 0.  0.
        -13    1    3    3    0    0  0.26490365795E+02 -0.22195534553E+02 -0.39424235516E+01  0.34784121400E+02  0.10566000000E+00 0. -1.
         23    2    1    0    0    0 -0.25376983234E+02  0.10261899044E+02  0.65269925310E+01  0.96859291382E+02  0.92681297172E+02 0.  0.
         13    1    3    3    0    0 -0.51867349029E+02  0.32457433598E+02  0.10469416083E+02  0.62075169981E+02  0.10566000000E+00 0.  1.
         22    1    1    0    0    0  0.25376983234E+02 -0.10261899044E+02 -0.65269925310E+01  0.28140708618E+02  0.00000000000E+00 0.  1.
</event>
<event>
 5    1  0.1751027E-003  0.9118800E+02  0.7818608E-02  0.1130116E+00
         25   -1    0    0    0    0  0.00000000000E+00  0.00000000000E+00  0.99999998245E-14  0.12500000000E+03  0.12500000000E+03 0.  0.
        -13    1    3    3    0    0 -0.14858169447E+02  0.34996263273E+02  0.45117158090E+02  0.59000616612E+02  0.10566000000E+00 0. -1.
         23    2    1    0    0    0  0.16213152239E+01  0.26369397199E+02  0.14399212081E+02  0.94911612203E+02  0.90016126614E+02 0.  0.
         13    1    3    3    0    0  0.16479484670E+02 -0.86268660740E+01 -0.30717946010E+02  0.35910995591E+02  0.10566000000E+00 0.  1.
         22    1    1    0    0    0 -0.16213152239E+01 -0.26369397199E+02 -0.14399212081E+02  0.30088387797E+02  0.00000000000E+00 0. -1.
</event>
<event>
 5    1  0.1751027E-003  0.9118800E+02  0.7818608E-02  0.1130116E+00
         25   -1    0    0    0    0  0.00000000000E+00  0.00000000000E+00  0.99999998245E-14  0.12500000000E+03  0.12500000000E+03 0.  0.
        -13    1    3    3    0    0 -0.30073088856E+02  0.26374738047E+02 -0.25262653248E+02  0.47309938634E+02  0.10566000000E+00 0. -1.
         23    2    1    0    0    0 -0.27702802721E+02 -0.67992831688E+01  0.90282710957E+01  0.95080354127E+02  0.90250144220E+02 0.  0.
         13    1    3    3    0    0  0.23702861354E+01 -0.33174021216E+02  0.34290924343E+02  0.47770415493E+02  0.10566000000E+00 0.  1.
         22    1    1    0    0    0  0.27702802721E+02  0.67992831688E+01 -0.90282710957E+01  0.29919645873E+02  0.00000000000E+00 0.  1.
</event>
<event>
 5    1  0.1751027E-003  0.9118800E+02  0.7818608E-02  0.1130116E+00
         25   -1    0    0    0    0  0.00000000000E+00  0.00000000000E+00  0.99999998245E-14  0.12500000000E+03  0.12500000000E+03 0.  0.
        -13    1    3    3    0    0  0.17832924230E+02 -0.22637536936E+02 -0.21434924720E+02  0.35915712814E+02  0.10566000000E+00 0.  1.
         23    2    1    0    0    0 -0.27162487165E+02  0.93334482251E+01  0.26862218348E+01  0.96153340705E+02  0.91724234400E+02 0.  0.
         13    1    3    3    0    0 -0.44995411395E+02  0.31970985162E+02  0.24121146554E+02  0.60237627891E+02  0.10566000000E+00 0. -1.
         22    1    1    0    0    0  0.27162487165E+02 -0.93334482251E+01 -0.26862218348E+01  0.28846659295E+02  0.00000000000E+00 0. -1.
</event>
<event>
 5    1  0.1751027E-003  0.9118800E+02  0.7818608E-02  0.1130116E+00
         25   -1    0    0    0    0  0.00000000000E+00  0.00000000000E+00  0.99999998245E-14  0.12500000000E+03  0.12500000000E+03 0.  0.
        -13    1    3    3    0    0 -0.37810839629E+02 -0.37865491248E+01 -0.28779160541E+02  0.47668110862E+02  0.10566000000E+00 0.  1.
         23    2    1    0    0    0  0.12186905486E+02 -0.13945473231E+01 -0.24120681372E+02  0.97939462359E+02  0.94126859025E+02 0.  0.
         13    1    3    3    0    0  0.49997745114E+02  0.23920018017E+01  0.46584791693E+01  0.50271351497E+02  0.10566000000E+00 0. -1.
         22    1    1    0    0    0 -0.12186905486E+02  0.13945473231E+01  0.24120681372E+02  0.27060537641E+02  0.00000000000E+00 0.  1.
</event>
<event>
 5    1  0.1751027E-003  0.9118800E+02  0.7818608E-02  0.1130116E+00
         25   -1    0    0    0    0  0.00000000000E+00  0.00000000000E+00  0.99999998245E-14  0.12500000000E+03  0.12500000000E+03 0.  0.
        -13    1    3    3    0    0 -0.45970036846E+01 -0.11931110326E+02  0.56253473010E+02  0.57688371672E+02  0.10566000000E+00 0.  1.
         23    2    1    0    0    0  0.92184183438E+01 -0.17883442460E+02  0.21519694277E+02  0.95539959389E+02  0.90884486285E+02 0.  0.
         13    1    3    3    0    0  0.13815422028E+02 -0.59523321345E+01 -0.34733778732E+02  0.37851587718E+02  0.10566000000E+00 0. -1.
         22    1    1    0    0    0 -0.92184183438E+01  0.17883442460E+02 -0.21519694277E+02  0.29460040611E+02  0.00000000000E+00 0. -1.
</event>
<event>
 5    1  0.1751027E-003  0.9118800E+02  0.7818608E-02  0.1130116E+00
         25   -1    0    0    0    0  0.00000000000E+00  0.00000000000E+00  0.99999998245E-14  0.12500000000E+03  0.12500000000E+03 0.  0.
        -13    1    3    3    0    0 -0.50406480437E+02  0.21874901971E+02 -0.47269098075E+01  0.55151422888E+02  0.10566000000E+00 0.  1.
         23    2    1    0    0    0 -0.23685826525E+02 -0.75696702540E+01 -0.14658945220E+02  0.96134744746E+02  0.91698888687E+02 0.  0.
         13    1    3    3    0    0  0.26720653912E+02 -0.29444572225E+02 -0.99320354129E+01  0.40983321857E+02  0.10566000000E+00 0. -1.
         22    1    1    0    0    0  0.23685826525E+02  0.75696702540E+01  0.14658945220E+02  0.28865255254E+02  0.00000000000E+00 0.  1.
</event>
<event>
 5    1  0.1751027E-003  0.9118800E+02  0.7818608E-02  0.1130116E+00
         25   -1    0    0    0    0  0.00000000000E+00  0.00000000000E+00  0.99999998245E-14  0.12500000000E+03  0.12500000000E+03 0.  0.
        -13    1    3    3    0    0 -0.10975353049E+02 -0.37232897508E+02 -0.12660158950E+02  0.40829374475E+02  0.10566000000E+00 0. -1.
         23    2    1    0    0    0 -0.54973751683E+01  0.18894860631E+02 -0.19082840870E+02  0.97588474912E+02  0.93659589621E+02 0.  0.
         13    1    3    3    0    0  0.54779778808E+01  0.56127758138E+02 -0.64226819195E+01  0.56759100437E+02  0.10566000000E+00 0.  1.
         22    1    1    0    0    0  0.54973751683E+01 -0.18894860631E+02  0.19082840870E+02  0.27411525088E+02  0.00000000000E+00 0.  1.
</event>
<event>
 5    1  0.1751027E-003  0.9118800E+02  0.7818608E-02  0.1130116E+00
         25   -1    0    0    0    0  0.00000000000E+00  0.00000000000E+00  0.99999998245E-14  0.12500000000E+03  0.12500000000E+03 0.  0.
        -13    1    3    3    0    0 -0.33493516447E+02 -0.46776569135E+02 -0.23621946956E+02  0.62192206956E+02  0.10566000000E+00 0.  1.
         23    2    1    0    0    0 -0.12465690367E+02 -0.22069858826E+02 -0.14054049116E+02  0.96017446602E+02  0.91538853230E+02 0.  0.
         13    1    3    3    0    0  0.21027826080E+02  0.24706710310E+02  0.95678978404E+01  0.33825239646E+02  0.10566000000E+00 0. -1.
         22    1    1    0    0    0  0.12465690367E+02  0.22069858826E+02  0.14054049116E+02  0.28982553398E+02  0.00000000000E+00 0.  1.
</event>
<event>
 5    1  0.1751027E-003  0.9118800E+02  0.7818608E-02  0.1130116E+00
         25   -1    0    0    0    0  0.00000000000E+00  0.00000000000E+00  0.99999998245E-14  0.12500000000E+03  0.12500000000E+03 0.  0.
        -13    1    3    3    0    0 -0.45629047459E+02 -0.11051986956E+02  0.31065175685E+02  0.56295760872E+02  0.10566000000E+00 0. -1.
         23    2    1    0    0    0 -0.55721970540E+01  0.13217396620E+02  0.56435342936E+01  0.10958577174E+03  0.10849628075E+03 0.  0.
         13    1    3    3    0    0  0.40056850405E+02  0.24269383577E+02 -0.25421641392E+02  0.53290010871E+02  0.10566000000E+00 0.  1.
         22    1    1    0    0    0  0.55721970540E+01 -0.13217396620E+02 -0.56435342936E+01  0.15414228257E+02  0.00000000000E+00 0.  1.
</event>
<event>
 5    1  0.1751027E-003  0.9118800E+02  0.7818608E-02  0.1130116E+00
         25   -1    0    0    0    0  0.00000000000E+00  0.00000000000E+00  0.99999998245E-14  0.12500000000E+03  0.12500000000E+03 0.  0.
        -13    1    3    3    0    0  0.52251165436E+02 -0.21896164482E+02  0.24429115002E+02  0.61696184098E+02  0.10566000000E+00 0. -1.
         23    2    1    0    0    0  0.26907761669E+02 -0.13419787762E+02  0.20259480725E+02  0.88743070996E+02  0.80998566339E+02 0.  0.
         13    1    3    3    0    0 -0.25343403767E+02  0.84763767201E+01 -0.41696342771E+01  0.27046886898E+02  0.10566000000E+00 0.  1.
         22    1    1    0    0    0 -0.26907761669E+02  0.13419787762E+02 -0.20259480725E+02  0.36256929004E+02  0.00000000000E+00 0. -1.
</event>
<event>
 5    1  0.1751027E-003  0.9118800E+02  0.7818608E-02  0.1130116E+00
         25   -1    0    0    0    0  0.00000000000E+00  0.00000000000E+00  0.99999998245E-14  0.12500000000E+03  0.12500000000E+03 0.  0.
        -13    1    3    3    0    0 -0.38114143654E+01  0.42891346982E+02 -0.32711940021E+02  0.54076581894E+02  0.10566000000E+00 0.  1.
         23    2    1    0    0    0  0.20956677987E+02  0.16457983092E+02 -0.12363279080E+02  0.95624870565E+02  0.91001195823E+02 0.  0.
         13    1    3    3    0    0  0.24768092353E+02 -0.26433363890E+02  0.20348660941E+02  0.41548288670E+02  0.10566000000E+00 0. -1.
         22    1    1    0    0    0 -0.20956677987E+02 -0.16457983092E+02  0.12363279080E+02  0.29375129435E+02  0.00000000000E+00 0.  1.
</event>
<event>
 5    1  0.1751027E-003  0.9118800E+02  0.7818608E-02  0.1130116E+00
         25   -1    0    0    0    0  0.00000000000E+00  0.00000000000E+00  0.99999998245E-14  0.12500000000E+03  0.12500000000E+03 0.  0.
        -13    1    3    3    0    0  0.18600323329E+01  0.33089405904E+02  0.33883872901E+02  0.47397220490E+02  0.10566000000E+00 0.  1.
         23    2    1    0    0    0  0.11485601633E+02  0.26922985982E+02 -0.11012632130E+02  0.93726300419E+02  0.88354825023E+02 0.  0.
         13    1    3    3    0    0  0.96255692997E+01 -0.61664199221E+01 -0.44896505031E+02  0.46329079929E+02  0.10566000000E+00 0. -1.
         22    1    1    0    0    0 -0.11485601633E+02 -0.26922985982E+02  0.11012632130E+02  0.31273699581E+02  0.00000000000E+00 0.  1.
</event>
<event>
 5    1  0.1751027E-003  0.9118800E+02  0.7818608E-02  0.1130116E+00
         25   -1    0    0    0    0  0.00000000000E+00  0.00000000000E+00  0.99999998245E-14  0.12500000000E+03  0.12500000000E+03 0.  0.
        -13    1    3    3    0    0  0.36248079997E+02  0.94133646466E+01 -0.48301885329E+01  0.37760781543E+02  0.10566000000E+00 0.  1.
         23    2    1    0    0    0 -0.75439094889E+01 -0.27881773103E+02  0.35845252945E+01  0.95894112909E+02  0.91370280876E+02 0.  0.
         13    1    3    3    0    0 -0.43791989486E+02 -0.37295137750E+02  0.84147138274E+01  0.58133331366E+02  0.10566000000E+00 0. -1.
         22    1    1    0    0    0  0.75439094889E+01  0.27881773103E+02 -0.35845252945E+01  0.29105887091E+02  0.00000000000E+00 0. -1.
</event>
<event>
 5    1  0.1751027E-003  0.9118800E+02  0.7818608E-02  0.1130116E+00
         25   -1    0    0    0    0  0.00000000000E+00  0.00000000000E+00  0.99999998245E-14  0.12500000000E+03  0.12500000000E+03 0.  0.
        -13    1    3    3    0    0 -0.15231511912E+02  0.54063921231E+02  0.25428806850E+01  0.56226185539E+02  0.10566000000E+00 0. -1.
         23    2    1    0    0    0 -0.17491115863E+02  0.20141421755E+02 -0.14907596494E+02  0.94441000709E+02  0.89360227043E+02 0.  0.
         13    1    3    3    0    0 -0.22596039505E+01 -0.33922499476E+02 -0.17450477179E+02  0.38214815170E+02  0.10566000000E+00 0.  1.
         22    1    1    0    0    0  0.17491115863E+02 -0.20141421755E+02  0.14907596494E+02  0.30558999291E+02  0.00000000000E+00 0. -1.
</event>
<event>
 5    1  0.1751027E-003  0.9118800E+02  0.7818608E-02  0.1130116E+00
         25   -1    0    0    0    0  0.00000000000E+00  0.00000000000E+00  0.99999998245E-14  0.12500000000E+03  0.12500000000E+03 0.  0.
        -13    1    3    3    0    0  0.30917107377E+02 -0.36487951450E+02  0.34163313159E+02  0.58773984548E+02  0.10566000000E+00 0.  1.
         23    2    1    0    0    0  0.19611069902E+02 -0.80983991336E+01  0.27868564490E+02  0.89973795268E+02  0.82876105223E+02 0.  0.
         13    1    3    3    0    0 -0.11306037475E+02  0.28389552316E+02 -0.62947486693E+01  0.31199810720E+02  0.10566000000E+00 0. -1.
         22    1    1    0    0    0 -0.19611069902E+02  0.80983991336E+01 -0.27868564490E+02  0.35026204732E+02  0.00000000000E+00 0.  1.
</event>
<event>
 5    1  0.1751027E-003  0.9118800E+02  0.7818608E-02  0.1130116E+00
         25   -1    0    0    0    0  0.00000000000E+00  0.00000000000E+00  0.99999998245E-14  0.12500000000E+03  0.12500000000E+03 0.  0.
        -13    1    3    3    0    0  0.32593726479E+02 -0.44652647101E+01  0.51966763929E+02  0.61504839744E+02  0.10566000000E+00 0. -1.
         23    2    1    0    0    0  0.16148797359E+02 -0.94779669916E+01  0.32628817574E+02  0.87380121602E+02  0.78867169345E+02 0.  0.
         13    1    3    3    0    0 -0.16444929120E+02 -0.50127022815E+01 -0.19337946355E+02  0.25875281858E+02  0.10566000000E+00 0.  1.
         22    1    1    0    0    0 -0.16148797359E+02  0.94779669916E+01 -0.32628817574E+02  0.37619878398E+02  0.00000000000E+00 0. -1.
</event>
<event>
 5    1  0.1751027E-003  0.9118800E+02  0.7818608E-02  0.1130116E+00
         25   -1    0    0    0    0  0.00000000000E+00  0.00000000000E+00  0.99999998245E-14  0.12500000000E+03  0.12500000000E+03 0.  0.
        -13    1    3    3    0    0  0.39679779603E+02  0.39739668064E+02  0.10859941856E+00  0.56158250374E+02  0.10566000000E+00 0.  1.
         23    2    1    0    0    0  0.28108394201E+02  0.24366383629E+01  0.72665969340E+01  0.95865442134E+02  0.91331049120E+02 0.  0.
         13    1    3    3    0    0 -0.11571385403E+02 -0.37303029701E+02  0.71579975154E+01  0.39707191760E+02  0.10566000000E+00 0. -1.
         22    1    1    0    0    0 -0.28108394201E+02 -0.24366383629E+01 -0.72665969340E+01  0.29134557866E+02  0.00000000000E+00 0.  1.
</event>
<event>
 5    1  0.1751027E-003  0.9118800E+02  0.7818608E-02  0.1130116E+00
         25   -1    0    0    0    0  0.00000000000E+00  0.00000000000E+00  0.99999998245E-14  0.12500000000E+03  0.12500000000E+03 0.  0.
        -13    1    3    3    0    0 -0.28283100294E+02  0.20457891272E+02  0.26552773460E+02  0.43857952756E+02  0.10566000000E+00 0.  1.
         23    2    1    0    0    0 -0.11054984063E+02 -0.24960575861E+02  0.40179471045E+01  0.97406759544E+02  0.93416753776E+02 0.  0.
         13    1    3    3    0    0  0.17228116231E+02 -0.45418467132E+02 -0.22534826355E+02  0.53548806788E+02  0.10566000000E+00 0. -1.
         22    1    1    0    0    0  0.11054984063E+02  0.24960575861E+02 -0.40179471045E+01  0.27593240456E+02  0.00000000000E+00 0. -1.
</event>
<event>
 5    1  0.1751027E-003  0.9118800E+02  0.7818608E-02  0.1130116E+00
         25   -1    0    0    0    0  0.00000000000E+00  0.00000000000E+00  0.99999998245E-14  0.12500000000E+03  0.12500000000E+03 0.  0.
        -13    1    3    3    0    0 -0.43395952635E+02  0.14524042866E+02  0.88215930316E+01  0.46604594129E+02  0.10566000000E+00 0. -1.
         23    2    1    0    0    0  0.35519113407E+01  0.28547386761E+02  0.10615518573E+01  0.96212915093E+02  0.91805385318E+02 0.  0.
         13    1    3    3    0    0  0.46947863976E+02  0.14023343896E+02 -0.77600411743E+01  0.49608320965E+02  0.10566000000E+00 0.  1.
         22    1    1    0    0    0 -0.35519113407E+01 -0.28547386761E+02 -0.10615518573E+01  0.28787084907E+02  0.00000000000E+00 0.  1.
</event>
<event>
 5    1  0.1751027E-003  0.9118800E+02  0.7818608E-02  0.1130116E+00
         25   -1    0    0    0    0  0.00000000000E+00  0.00000000000E+00  0.99999998245E-14  0.12500000000E+03  0.12500000000E+03 0.  0.
        -13    1    3    3    0    0  0.56958024834E+02  0.11976858684E+02  0.18074825214E+02  0.60945649619E+02  0.10566000000E+00 0. -1.
         23    2    1    0    0    0  0.22431699438E+02  0.12193257780E+02  0.14451127470E+02  0.95662451362E+02  0.91052802485E+02 0.  0.
         13    1    3    3    0    0 -0.34526325396E+02  0.21639909607E+00 -0.36236977443E+01  0.34716801743E+02  0.10566000000E+00 0.  1.
         22    1    1    0    0    0 -0.22431699438E+02 -0.12193257780E+02 -0.14451127470E+02  0.29337548638E+02  0.00000000000E+00 0. -1.
</event>
<event>
 5    1  0.1751027E-003  0.9118800E+02  0.7818608E-02  0.1130116E+00
         25   -1    0    0    0    0  0.00000000000E+00  0.00000000000E+00  0.99999998245E-14  0.12500000000E+03  0.12500000000E+03 0.  0.
        -13    1    3    3    0    0 -0.47148760349E+02  0.25784055970E+02 -0.13796794685E+02  0.55481400959E+02  0.10566000000E+00 0.  1.
         23    2    1    0    0    0 -0.23163832611E+02  0.13753888242E+02  0.14440204652E+02  0.94434462324E+02  0.89351080470E+02 0.  0.
         13    1    3    3    0    0  0.23984927738E+02 -0.12030167728E+02  0.28236999337E+02  0.38953061365E+02  0.10566000000E+00 0. -1.
         22    1    1    0    0    0  0.23163832611E+02 -0.13753888242E+02 -0.14440204652E+02  0.30565537676E+02  0.00000000000E+00 0.  1.
</event>
<event>
 5    1  0.1751027E-003  0.9118800E+02  0.7818608E-02  0.1130116E+00
         25   -1    0    0    0    0  0.00000000000E+00  0.00000000000E+00  0.99999998245E-14  0.12500000000E+03  0.12500000000E+03 0.  0.
        -13    1    3    3    0    0  0.54261125631E+02 -0.15451101570E+02  0.12527229717E+02  0.57792291380E+02  0.10566000000E+00 0.  1.
         23    2    1    0    0    0  0.17763273477E+02 -0.22468810561E+02  0.27334960805E+01  0.96227559480E+02  0.91825322597E+02 0.  0.
         13    1    3    3    0    0 -0.36497852155E+02 -0.70177089911E+01 -0.97937336368E+01  0.38435268101E+02  0.10566000000E+00 0. -1.
         22    1    1    0    0    0 -0.17763273477E+02  0.22468810561E+02 -0.27334960805E+01  0.28772440520E+02  0.00000000000E+00 0. -1.
</event>
<event>
 5    1  0.1751027E-003  0.9118800E+02  0.7818608E-02  0.1130116E+00
         25   -1    0    0    0    0  0.00000000000E+00  0.00000000000E+00  0.99999998245E-14  0.12500000000E+03  0.12500000000E+03 0.  0.
        -13    1    3    3    0    0 -0.89814099343E+01 -0.36838938944E+02  0.38095331741E+02  0.53749777780E+02  0.10566000000E+00 0.  1.
         23    2    1    0    0    0 -0.22253741492E+02 -0.31450173263E+02  0.10141330709E+02  0.85160459375E+02  0.75266957185E+02 0.  0.
         13    1    3    3    0    0 -0.13272331557E+02  0.53887656811E+01 -0.27954001032E+02  0.31410681595E+02  0.10566000000E+00 0. -1.
         22    1    1    0    0    0  0.22253741492E+02  0.31450173263E+02 -0.10141330709E+02  0.39839540625E+02  0.00000000000E+00 0.  1.
</event>
<event>
 5    1  0.1751027E-003  0.9118800E+02  0.7818608E-02  0.1130116E+00
         25   -1    0    0    0    0  0.00000000000E+00  0.00000000000E+00  0.99999998245E-14  0.12500000000E+03  0.12500000000E+03 0.  0.
        -13    1    3    3    0    0  0.29581858677E+02 -0.61360608270E+01 -0.14175258555E+02  0.33371945169E+02  0.10566000000E+00 0.  1.
         23    2    1    0    0    0 -0.21820699672E+02  0.15913379880E+02  0.12383222081E+02  0.95289349006E+02  0.90539147619E+02 0.  0.
         13    1    3    3    0    0 -0.51402558348E+02  0.22049440707E+02  0.26558480636E+02  0.61917403837E+02  0.10566000000E+00 0. -1.
         22    1    1    0    0    0  0.21820699672E+02 -0.15913379880E+02 -0.12383222081E+02  0.29710650994E+02  0.00000000000E+00 0. -1.
</event>
<event>
 5    1  0.1751027E-003  0.9118800E+02  0.7818608E-02  0.1130116E+00
         25   -1    0    0    0    0  0.00000000000E+00  0.00000000000E+00  0.99999998245E-14  0.12500000000E+03  0.12500000000E+03 0.  0.
        -13    1    3    3    0    0 -0.40497315877E+02 -0.39826952817E+02 -0.44419520427E+01  0.56973334692E+02  0.10566000000E+00 0. -1.
         23    2    1    0    0    0 -0.16541582924E+02 -0.17639671111E+02  0.16464378792E+02  0.95744953743E+02  0.91165993855E+02 0.  0.
         13    1    3    3    0    0  0.23955732953E+02  0.22187281706E+02  0.20906330834E+02  0.38771619051E+02  0.10566000000E+00 0.  1.
         22    1    1    0    0    0  0.16541582924E+02  0.17639671111E+02 -0.16464378792E+02  0.29255046257E+02  0.00000000000E+00 0. -1.
</event>
<event>
 5    1  0.1751027E-003  0.9118800E+02  0.7818608E-02  0.1130116E+00
         25   -1    0    0    0    0  0.00000000000E+00  0.00000000000E+00  0.99999998245E-14  0.12500000000E+03  0.12500000000E+03 0.  0.
        -13    1    3    3    0    0  0.22362306134E+02 -0.20569903102E+02  0.90441318085E+01  0.31701752845E+02  0.10566000000E+00 0.  1.
         23    2    1    0    0    0 -0.62599767642E+01  0.27697798572E+02 -0.15154236734E+02  0.92812949097E+02  0.87053071596E+02 0.  0.
         13    1    3    3    0    0 -0.28622282898E+02  0.48267701674E+02 -0.24198368543E+02  0.61111196252E+02  0.10566000000E+00 0. -1.
         22    1    1    0    0    0  0.62599767642E+01 -0.27697798572E+02  0.15154236734E+02  0.32187050903E+02  0.00000000000E+00 0. -1.
</event>
<event>
 5    1  0.1751027E-003  0.9118800E+02  0.7818608E-02  0.1130116E+00
         25   -1    0    0    0    0  0.00000000000E+00  0.00000000000E+00  0.99999998245E-14  0.12500000000E+03  0.12500000000E+03 0.  0.
        -13    1    3    3    0    0  0.33758921001E+02  0.21060267781E+02  0.23355667945E+02  0.46137815459E+02  0.10566000000E+00 0.  1.
         23    2    1    0    0    0 -0.15849609049E+02  0.14117029906E+02  0.19161346350E+02  0.96405283105E+02  0.92066936390E+02 0.  0.
         13    1    3    3    0    0 -0.49608530049E+02 -0.69432378749E+01 -0.41943215949E+01  0.50267467646E+02  0.10566000000E+00 0. -1.
         22    1    1    0    0    0  0.15849609049E+02 -0.14117029906E+02 -0.19161346350E+02  0.28594716895E+02  0.00000000000E+00 0. -1.
</event>
<event>
 5    1  0.1751027E-003  0.9118800E+02  0.7818608E-02  0.1130116E+00
         25   -1    0    0    0    0  0.00000000000E+00  0.00000000000E+00  0.99999998245E-14  0.12500000000E+03  0.12500000000E+03 0.  0.
        -13    1    3    3    0    0 -0.29919355310E+02 -0.31738527248E+02  0.13771091826E+02  0.45740092569E+02  0.10566000000E+00 0. -1.
         23    2    1    0    0    0  0.54845188500E+01 -0.23383405323E+02 -0.18746576744E+02  0.94532021217E+02  0.89487458921E+02 0.  0.
         13    1    3    3    0    0  0.35403874160E+02  0.83551219253E+01 -0.32517668570E+02  0.48791928648E+02  0.10566000000E+00 0.  1.
         22    1    1    0    0    0 -0.54845188500E+01  0.23383405323E+02  0.18746576744E+02  0.30467978783E+02  0.00000000000E+00 0.  1.
</event>
<event>
 5    1  0.1751027E-003  0.9118800E+02  0.7818608E-02  0.1130116E+00
         25   -1    0    0    0    0  0.00000000000E+00  0.00000000000E+00  0.99999998245E-14  0.12500000000E+03  0.12500000000E+03 0.  0.
        -13    1    3    3    0    0  0.15807170573E+02 -0.28248216678E+02 -0.26306638256E+02  0.41711854039E+02  0.10566000000E+00 0.  1.
         23    2    1    0    0    0  0.43644531228E+01  0.24117129724E+02 -0.14240790121E+02  0.96654197833E+02  0.92404271862E+02 0.  0.
         13    1    3    3    0    0 -0.11442717450E+02  0.52365346402E+02  0.12065848135E+02  0.54942343795E+02  0.10566000000E+00 0. -1.
         22    1    1    0    0    0 -0.43644531228E+01 -0.24117129724E+02  0.14240790121E+02  0.28345802167E+02  0.00000000000E+00 0. -1.
</event>
<event>
 5    1  0.1751027E-003  0.9118800E+02  0.7818608E-02  0.1130116E+00
         25   -1    0    0    0    0  0.00000000000E+00  0.00000000000E+00  0.99999998245E-14  0.12500000000E+03  0.12500000000E+03 0.  0.
        -13    1    3    3    0    0 -0.21708360000E+02 -0.48223671899E+02  0.31768053185E+02  0.61692753160E+02  0.10566000000E+00 0. -1.
         23    2    1    0    0    0 -0.16591263767E+02 -0.19782936728E+02  0.13745573028E+02  0.95749779542E+02  0.91172610391E+02 0.  0.
         13    1    3    3    0    0  0.51170962331E+01  0.28440735171E+02 -0.18022480157E+02  0.34057026382E+02  0.10566000000E+00 0.  1.
         22    1    1    0    0    0  0.16591263767E+02  0.19782936728E+02 -0.13745573028E+02  0.29250220458E+02  0.00000000000E+00 0. -1.
</event>
<event>
 5    1  0.1751027E-003  0.9118800E+02  0.7818608E-02  0.1130116E+00
         25   -1    0    0    0    0  0.00000000000E+00  0.00000000000E+00  0.99999998245E-14  0.12500000000E+03  0.12500000000E+03 0.  0.
        -13    1    3    3    0    0 -0.21778805998E+02  0.35520486710E+02 -0.13647793363E+02  0.43843982421E+02  0.10566000000E+00 0.  1.
         23    2    1    0    0    0  0.15825202911E+02  0.47098237614E+00 -0.23967701229E+02  0.96275279396E+02  0.91890259816E+02 0.  0.
         13    1    3    3    0    0  0.37604008910E+02 -0.35049504334E+02 -0.10319907865E+02  0.52431296975E+02  0.10566000000E+00 0. -1.
         22    1    1    0    0    0 -0.15825202911E+02 -0.47098237614E+00  0.23967701229E+02  0.28724720604E+02  0.00000000000E+00 0. -1.
</event>
<event>
 5    1  0.1751027E-003  0.9118800E+02  0.7818608E-02  0.1130116E+00
         25   -1    0    0    0    0  0.00000000000E+00  0.00000000000E+00  0.99999998245E-14  0.12500000000E+03  0.12500000000E+03 0.  0.
        -13    1    3    3    0    0  0.13447254856E+02  0.23905285954E+02 -0.12694569111E+02  0.30223411599E+02  0.10566000000E+00 0.  1.
         23    2    1    0    0    0 -0.17113507419E+02 -0.28439932873E+01  0.30748999073E+02  0.89694740080E+02  0.82454138890E+02 0.  0.
         13    1    3    3    0    0 -0.30560762276E+02 -0.26749279242E+02  0.43443568184E+02  0.59471328482E+02  0.10566000000E+00 0. -1.
         22    1    1    0    0    0  0.17113507419E+02  0.28439932873E+01 -0.30748999073E+02  0.35305259920E+02  0.00000000000E+00 0. -1.
</event>
<event>
 5    1  0.1751027E-003  0.9118800E+02  0.7818608E-02  0.1130116E+00
         25   -1    0    0    0    0  0.00000000000E+00  0.00000000000E+00  0.99999998245E-14  0.12500000000E+03  0.12500000000E+03 0.  0.
        -13    1    3    3    0    0 -0.19278831769E+02 -0.36995609713E+02 -0.16031936255E+02  0.44692086957E+02  0.10566000000E+00 0. -1.
         23    2    1    0    0    0 -0.22239825566E+01 -0.14215212575E+02  0.25901876800E+02  0.95370190876E+02  0.90650690670E+02 0.  0.
         13    1    3    3    0    0  0.17054849213E+02  0.22780397139E+02  0.41933813055E+02  0.50678103919E+02  0.10566000000E+00 0.  1.
         22    1    1    0    0    0  0.22239825566E+01  0.14215212575E+02 -0.25901876800E+02  0.29629809124E+02  0.00000000000E+00 0. -1.
</event>
<event>
 5    1  0.1751027E-003  0.9118800E+02  0.7818608E-02  0.1130116E+00
         25   -1    0    0    0    0  0.00000000000E+00  0.00000000000E+00  0.99999998245E-14  0.12500000000E+03  0.12500000000E+03 0.  0.
        -13    1    3    3    0    0 -0.19308433340E+02  0.23657017547E+02  0.15828088572E+02  0.34394907023E+02  0.10566000000E+00 0. -1.
         23    2    1    0    0    0  0.23894090319E+02 -0.76930736121E+00 -0.18526551440E+02  0.94755124496E+02  0.89798558586E+02 0.  0.
         13    1    3    3    0    0  0.43202523659E+02 -0.24426324908E+02 -0.34354640012E+02  0.60360217473E+02  0.10566000000E+00 0.  1.
         22    1    1    0    0    0 -0.23894090319E+02  0.76930736121E+00  0.18526551440E+02  0.30244875504E+02  0.00000000000E+00 0.  1.
</event>
<event>
 5    1  0.1751027E-003  0.9118800E+02  0.7818608E-02  0.1130116E+00
         25   -1    0    0    0    0  0.00000000000E+00  0.00000000000E+00  0.99999998245E-14  0.12500000000E+03  0.12500000000E+03 0.  0.
        -13    1    3    3    0    0 -0.81437852768E+01  0.10218401492E+02  0.36697277608E+02  0.38954310616E+02  0.10566000000E+00 0.  1.
         23    2    1    0    0    0  0.29346920591E+02  0.44820399201E+01 -0.45250164687E+01  0.94969911688E+02  0.90097047243E+02 0.  0.
         13    1    3    3    0    0  0.37490705867E+02 -0.57363615723E+01 -0.41222294076E+02  0.56015601072E+02  0.10566000000E+00 0. -1.
         22    1    1    0    0    0 -0.29346920591E+02 -0.44820399201E+01  0.45250164687E+01  0.30030088312E+02  0.00000000000E+00 0. -1.
</event>
<event>
 5    1  0.1751027E-003  0.9118800E+02  0.7818608E-02  0.1130116E+00
         25   -1    0    0    0    0  0.00000000000E+00  0.00000000000E+00  0.99999998245E-14  0.12500000000E+03  0.12500000000E+03 0.  0.
        -13    1    3    3    0    0 -0.40761865257E+02  0.12985170107E+02 -0.20241089881E+02  0.47327129488E+02  0.10566000000E+00 0.  1.
         23    2    1    0    0    0  0.79118795566E+01  0.14522282549E+02 -0.23646636953E+02  0.96144186587E+02  0.91711758498E+02 0.  0.
         13    1    3    3    0    0  0.48673744814E+02  0.15371124421E+01 -0.34055470710E+01  0.48817057099E+02  0.10566000000E+00 0. -1.
         22    1    1    0    0    0 -0.79118795566E+01 -0.14522282549E+02  0.23646636953E+02  0.28855813413E+02  0.00000000000E+00 0. -1.
</event>
<event>
 5    1  0.1751027E-003  0.9118800E+02  0.7818608E-02  0.1130116E+00
         25   -1    0    0    0    0  0.00000000000E+00  0.00000000000E+00  0.99999998245E-14  0.12500000000E+03  0.12500000000E+03 0.  0.
        -13    1    3    3    0    0  0.52360769664E+02 -0.15429753491E+02  0.18466564207E+02  0.57625972011E+02  0.10566000000E+00 0. -1.
         23    2    1    0    0    0  0.23038178074E+02  0.87403195749E+01  0.15819897031E+02  0.95718265467E+02  0.91129393538E+02 0.  0.
         13    1    3    3    0    0 -0.29322591590E+02  0.24170073066E+02 -0.26466671765E+01  0.38092293456E+02  0.10566000000E+00 0.  1.
         22    1    1    0    0    0 -0.23038178074E+02 -0.87403195749E+01 -0.15819897031E+02  0.29281734533E+02  0.00000000000E+00 0. -1.
</event>
<event>
 5    1  0.1751027E-003  0.9118800E+02  0.7818608E-02  0.1130116E+00
         25   -1    0    0    0    0  0.00000000000E+00  0.00000000000E+00  0.99999998245E-14  0.12500000000E+03  0.12500000000E+03 0.  0.
        -13    1    3    3    0    0 -0.24596794365E+02  0.15510002362E+02 -0.47646735286E+02  0.55819217243E+02  0.10566000000E+00 0. -1.
         23    2    1    0    0    0 -0.16028185065E+02  0.22711126899E+02 -0.94218987237E+01  0.95649187795E+02  0.91034592045E+02 0.  0.
         13    1    3    3    0    0  0.85686092995E+01  0.72011245379E+01  0.38224836562E+02  0.39829970552E+02  0.10566000000E+00 0.  1.
         22    1    1    0    0    0  0.16028185065E+02 -0.22711126899E+02  0.94218987237E+01  0.29350812205E+02  0.00000000000E+00 0. -1.
</event>
<event>
 5    1  0.1751027E-003  0.9118800E+02  0.7818608E-02  0.1130116E+00
         25   -1    0    0    0    0  0.00000000000E+00  0.00000000000E+00  0.99999998245E-14  0.12500000000E+03  0.12500000000E+03 0.  0.
        -13    1    3    3    0    0  0.47525754197E+02  0.18320079963E+02 -0.17482597822E+02  0.53851416254E+02  0.10566000000E+00 0.  1.
         23    2    1    0    0    0  0.55156824092E+01  0.18457444560E+02 -0.21593491600E+02  0.96062500253E+02  0.91600355148E+02 0.  0.
         13    1    3    3    0    0 -0.42010071788E+02  0.13736459644E+00 -0.41108937778E+01  0.42211083999E+02  0.10566000000E+00 0. -1.
         22    1    1    0    0    0 -0.55156824092E+01 -0.18457444560E+02  0.21593491600E+02  0.28937499747E+02  0.00000000000E+00 0.  1.
</event>
<event>
 5    1  0.1751027E-003  0.9118800E+02  0.7818608E-02  0.1130116E+00
         25   -1    0    0    0    0  0.00000000000E+00  0.00000000000E+00  0.99999998245E-14  0.12500000000E+03  0.12500000000E+03 0.  0.
        -13    1    3    3    0    0  0.29456174675E+02  0.11404584787E+02  0.94232184752E+01  0.32962690896E+02  0.10566000000E+00 0.  1.
         23    2    1    0    0    0 -0.24897966337E+02 -0.16526349621E+02 -0.16600486954E+01  0.95070337102E+02  0.90236269180E+02 0.  0.
         13    1    3    3    0    0 -0.54354141012E+02 -0.27930934407E+02 -0.11083267171E+02  0.62107646206E+02  0.10566000000E+00 0. -1.
         22    1    1    0    0    0  0.24897966337E+02  0.16526349621E+02  0.16600486954E+01  0.29929662898E+02  0.00000000000E+00 0. -1.
</event>
<event>
 5    1  0.1751027E-003  0.9118800E+02  0.7818608E-02  0.1130116E+00
         25   -1    0    0    0    0  0.00000000000E+00  0.00000000000E+00  0.99999998245E-14  0.12500000000E+03  0.12500000000E+03 0.  0.
        -13    1    3    3    0    0 -0.30768769433E+02  0.43179542063E+02 -0.10204203998E+02  0.53993767867E+02  0.10566000000E+00 0. -1.
         23    2    1    0    0    0  0.13971311811E+01  0.27322897858E+02  0.10837440585E+02  0.95573093242E+02  0.90930046247E+02 0.  0.
         13    1    3    3    0    0  0.32165900614E+02 -0.15856644205E+02  0.21041644584E+02  0.41579325374E+02  0.10566000000E+00 0.  1.
         22    1    1    0    0    0 -0.13971311811E+01 -0.27322897858E+02 -0.10837440585E+02  0.29426906758E+02  0.00000000000E+00 0. -1.
</event>
<event>
 5    1  0.1751027E-003  0.9118800E+02  0.7818608E-02  0.1130116E+00
         25   -1    0    0    0    0  0.00000000000E+00  0.00000000000E+00  0.99999998245E-14  0.12500000000E+03  0.12500000000E+03 0.  0.
        -13    1    3    3    0    0 -0.20158856873E+02 -0.33529449169E+02 -0.44909531067E+00  0.39125647888E+02  0.10566000000E+00 0.  1.
         23    2    1    0    0    0  0.25493979805E+02 -0.60528317100E+01  0.15261002734E+02  0.94677104649E+02  0.89689888852E+02 0.  0.
         13    1    3    3    0    0  0.45652836678E+02  0.27476617459E+02  0.15710098045E+02  0.55551456762E+02  0.10566000000E+00 0. -1.
         22    1    1    0    0    0 -0.25493979805E+02  0.60528317100E+01 -0.15261002734E+02  0.30322895351E+02  0.00000000000E+00 0. -1.
</event>
<event>
 5    1  0.1751027E-003  0.9118800E+02  0.7818608E-02  0.1130116E+00
         25   -1    0    0    0    0  0.00000000000E+00  0.00000000000E+00  0.99999998245E-14  0.12500000000E+03  0.12500000000E+03 0.  0.
        -13    1    3    3    0    0  0.26944311156E+01 -0.12384433335E+02  0.51108043705E+02  0.52656219419E+02  0.10566000000E+00 0.  1.
         23    2    1    0    0    0  0.39782260153E+01 -0.29086616757E+02  0.15977441412E+02  0.91576412660E+02  0.85259035680E+02 0.  0.
         13    1    3    3    0    0  0.12837948997E+01 -0.16702183422E+02 -0.35130602294E+02  0.38920193242E+02  0.10566000000E+00 0. -1.
         22    1    1    0    0    0 -0.39782260153E+01  0.29086616757E+02 -0.15977441412E+02  0.33423587340E+02  0.00000000000E+00 0.  1.
</event>
<event>
 5    1  0.1751027E-003  0.9118800E+02  0.7818608E-02  0.1130116E+00
         25   -1    0    0    0    0  0.00000000000E+00  0.00000000000E+00  0.99999998245E-14  0.12500000000E+03  0.12500000000E+03 0.  0.
        -13    1    3    3    0    0  0.65668495614E+01  0.13592669571E+01 -0.30563190506E+02  0.31290428214E+02  0.10566000000E+00 0. -1.
         23    2    1    0    0    0 -0.42090407872E+01 -0.32194810643E+01  0.30793264105E+02  0.93754101119E+02  0.88394147315E+02 0.  0.
         13    1    3    3    0    0 -0.10775890349E+02 -0.45787480214E+01  0.61356454611E+02  0.62463672905E+02  0.10566000000E+00 0.  1.
         22    1    1    0    0    0  0.42090407872E+01  0.32194810643E+01 -0.30793264105E+02  0.31245898881E+02  0.00000000000E+00 0.  1.
</event>
<event>
 5    1  0.1751027E-003  0.9118800E+02  0.7818608E-02  0.1130116E+00
         25   -1    0    0    0    0  0.00000000000E+00  0.00000000000E+00  0.99999998245E-14  0.12500000000E+03  0.12500000000E+03 0.  0.
        -13    1    3    3    0    0 -0.48690167666E+01  0.11954574349E+02  0.46585759078E+02  0.48341113817E+02  0.10566000000E+00 0. -1.
         23    2    1    0    0    0 -0.21832833078E+01  0.28036304338E+02  0.88328773870E+00  0.96864945634E+02  0.92688922793E+02 0.  0.
         13    1    3    3    0    0  0.26857334588E+01  0.16081729989E+02 -0.45702471339E+02  0.48523831817E+02  0.10566000000E+00 0.  1.
         22    1    1    0    0    0  0.21832833078E+01 -0.28036304338E+02 -0.88328773870E+00  0.28135054366E+02  0.00000000000E+00 0. -1.
</event>
<event>
 5    1  0.1751027E-003  0.9118800E+02  0.7818608E-02  0.1130116E+00
         25   -1    0    0    0    0  0.00000000000E+00  0.00000000000E+00  0.99999998245E-14  0.12500000000E+03  0.12500000000E+03 0.  0.
        -13    1    3    3    0    0  0.44204256123E+01 -0.12849553040E+02 -0.56054022000E+02  0.57677688254E+02  0.10566000000E+00 0.  1.
         23    2    1    0    0    0 -0.12479664040E+02 -0.15231760539E+02 -0.24345375767E+02  0.93687927809E+02  0.88300520680E+02 0.  0.
         13    1    3    3    0    0 -0.16900089652E+02 -0.23822074985E+01  0.31708646233E+02  0.36010239555E+02  0.10566000000E+00 0. -1.
         22    1    1    0    0    0  0.12479664040E+02  0.15231760539E+02  0.24345375767E+02  0.31312072191E+02  0.00000000000E+00 0.  1.
</event>
<event>
 5    1  0.1751027E-003  0.9118800E+02  0.7818608E-02  0.1130116E+00
         25   -1    0    0    0    0  0.00000000000E+00  0.00000000000E+00  0.99999998245E-14  0.12500000000E+03  0.12500000000E+03 0.  0.
        -13    1    3    3    0    0  0.36543745124E+02  0.47753881919E+02 -0.98825941139E+01  0.60938947943E+02  0.10566000000E+00 0. -1.
         23    2    1    0    0    0  0.11275721875E+02  0.30123782115E+02 -0.82546920810E+01  0.91792710227E+02  0.85575566354E+02 0.  0.
         13    1    3    3    0    0 -0.25268023249E+02 -0.17630099804E+02  0.16279020329E+01  0.30853762284E+02  0.10566000000E+00 0.  1.
         22    1    1    0    0    0 -0.11275721875E+02 -0.30123782115E+02  0.82546920810E+01  0.33207289773E+02  0.00000000000E+00 0. -1.
</event>
<event>
 5    1  0.1751027E-003  0.9118800E+02  0.7818608E-02  0.1130116E+00
         25   -1    0    0    0    0  0.00000000000E+00  0.00000000000E+00  0.99999998245E-14  0.12500000000E+03  0.12500000000E+03 0.  0.
        -13    1    3    3    0    0 -0.10709026810E+02 -0.25714949958E+02  0.18055481564E+02  0.33195684736E+02  0.10566000000E+00 0.  1.
         23    2    1    0    0    0  0.80082984260E+01  0.13409149262E+02 -0.25778105552E+02  0.94859514711E+02  0.89943752856E+02 0.  0.
         13    1    3    3    0    0  0.18717325236E+02  0.39124099220E+02 -0.43833587116E+02  0.61663829975E+02  0.10566000000E+00 0. -1.
         22    1    1    0    0    0 -0.80082984260E+01 -0.13409149262E+02  0.25778105552E+02  0.30140485289E+02  0.00000000000E+00 0. -1.
</event>
<event>
 5    1  0.1751027E-003  0.9118800E+02  0.7818608E-02  0.1130116E+00
         25   -1    0    0    0    0  0.00000000000E+00  0.00000000000E+00  0.99999998245E-14  0.12500000000E+03  0.12500000000E+03 0.  0.
        -13    1    3    3    0    0 -0.36155354984E+02  0.16444056572E+02  0.43798191123E+02  0.59126215846E+02  0.10566000000E+00 0.  1.
         23    2    1    0    0    0 -0.21742729574E+02  0.22806837873E+01  0.39601549527E+02  0.79764720264E+02  0.65697641252E+02 0.  0.
         13    1    3    3    0    0  0.14412625411E+02 -0.14163372785E+02 -0.41966415964E+01  0.20638504418E+02  0.10566000000E+00 0. -1.
         22    1    1    0    0    0  0.21742729574E+02 -0.22806837873E+01 -0.39601549527E+02  0.45235279736E+02  0.00000000000E+00 0.  1.
</event>
<event>
 5    1  0.1751027E-003  0.9118800E+02  0.7818608E-02  0.1130116E+00
         25   -1    0    0    0    0  0.00000000000E+00  0.00000000000E+00  0.99999998245E-14  0.12500000000E+03  0.12500000000E+03 0.  0.
        -13    1    3    3    0    0  0.26564442793E+02  0.31967832794E+02  0.21395370063E+02  0.46748101337E+02  0.10566000000E+00 0.  1.
         23    2    1    0    0    0 -0.18452733454E+02  0.22757043810E+02  0.74092159259E+01  0.94779429265E+02  0.89832384563E+02 0.  0.
         13    1    3    3    0    0 -0.45017176247E+02 -0.92107889841E+01 -0.13986154137E+02  0.48031327928E+02  0.10566000000E+00 0. -1.
         22    1    1    0    0    0  0.18452733454E+02 -0.22757043810E+02 -0.74092159259E+01  0.30220570735E+02  0.00000000000E+00 0. -1.
</event>
<event>
 5    1  0.1751027E-003  0.9118800E+02  0.7818608E-02  0.1130116E+00
         25   -1    0    0    0    0  0.00000000000E+00  0.00000000000E+00  0.99999998245E-14  0.12500000000E+03  0.12500000000E+03 0.  0.
        -13    1    3    3    0    0 -0.24386237714E+01 -0.36270581252E+02 -0.25023294642E+02  0.44132509435E+02  0.10566000000E+00 0. -1.
         23    2    1    0    0    0  0.12598377327E+02 -0.15612110666E+02  0.20487738171E+02  0.96325891015E+02  0.91959081954E+02 0.  0.
         13    1    3    3    0    0  0.15037001098E+02  0.20658470586E+02  0.45511032813E+02  0.52193381580E+02  0.10566000000E+00 0.  1.
         22    1    1    0    0    0 -0.12598377327E+02  0.15612110666E+02 -0.20487738171E+02  0.28674108985E+02  0.00000000000E+00 0.  1.
</event>
<event>
 5    1  0.1751027E-003  0.9118800E+02  0.7818608E-02  0.1130116E+00
         25   -1    0    0    0    0  0.00000000000E+00  0.00000000000E+00  0.99999998245E-14  0.12500000000E+03  0.12500000000E+03 0.  0.
        -13    1    3    3    0    0  0.19803179278E+02  0.20865530130E+02 -0.45242019934E+02  0.53613317272E+02  0.10566000000E+00 0. -1.
         23    2    1    0    0    0  0.25128487302E+02  0.97705518111E+01 -0.26951447289E+01  0.97904458635E+02  0.94080362768E+02 0.  0.
         13    1    3    3    0    0  0.53253080235E+01 -0.11094978319E+02  0.42546875205E+02  0.44291141363E+02  0.10566000000E+00 0.  1.
         22    1    1    0    0    0 -0.25128487302E+02 -0.97705518111E+01  0.26951447289E+01  0.27095541365E+02  0.00000000000E+00 0.  1.
</event>
<event>
 5    1  0.1751027E-003  0.9118800E+02  0.7818608E-02  0.1130116E+00
         25   -1    0    0    0    0  0.00000000000E+00  0.00000000000E+00  0.99999998245E-14  0.12500000000E+03  0.12500000000E+03 0.  0.
        -13    1    3    3    0    0 -0.38412673175E+02 -0.19019255600E+00 -0.16144829524E+02  0.41668169123E+02  0.10566000000E+00 0. -1.
         23    2    1    0    0    0 -0.57386211315E+00  0.25388182556E+02  0.13619376518E+02  0.96183745074E+02  0.91765659527E+02 0.  0.
         13    1    3    3    0    0  0.37838811062E+02  0.25578375112E+02  0.29764206043E+02  0.54515575951E+02  0.10566000000E+00 0.  1.
         22    1    1    0    0    0  0.57386211315E+00 -0.25388182556E+02 -0.13619376518E+02  0.28816254926E+02  0.00000000000E+00 0.  1.
</event>
<event>
 5    1  0.1751027E-003  0.9118800E+02  0.7818608E-02  0.1130116E+00
         25   -1    0    0    0    0  0.00000000000E+00  0.00000000000E+00  0.99999998245E-14  0.12500000000E+03  0.12500000000E+03 0.  0.
        -13    1    3    3    0    0 -0.14553625126E+02 -0.19571158043E+01 -0.55571073424E+02  0.57478636658E+02  0.10566000000E+00 0. -1.
         23    2    1    0    0    0  0.73407702887E+01 -0.11709293295E+02 -0.26110077191E+02  0.95457986040E+02  0.90771672399E+02 0.  0.
         13    1    3    3    0    0  0.21894395415E+02 -0.97521774907E+01  0.29460996233E+02  0.37979349382E+02  0.10566000000E+00 0.  1.
         22    1    1    0    0    0 -0.73407702887E+01  0.11709293295E+02  0.26110077191E+02  0.29542013960E+02  0.00000000000E+00 0. -1.
</event>
<event>
 5    1  0.1751027E-003  0.9118800E+02  0.7818608E-02  0.1130116E+00
         25   -1    0    0    0    0  0.00000000000E+00  0.00000000000E+00  0.99999998245E-14  0.12500000000E+03  0.12500000000E+03 0.  0.
        -13    1    3    3    0    0  0.28551032437E+02 -0.43000313199E+02  0.60193095014E+01  0.51965677513E+02  0.10566000000E+00 0.  1.
         23    2    1    0    0    0  0.12560736035E+02 -0.85539488510E+01  0.26004789046E+02  0.94880385394E+02  0.89972753367E+02 0.  0.
         13    1    3    3    0    0 -0.15990296402E+02  0.34446364348E+02  0.19985479545E+02  0.42914707881E+02  0.10566000000E+00 0. -1.
         22    1    1    0    0    0 -0.12560736035E+02  0.85539488510E+01 -0.26004789046E+02  0.30119614606E+02  0.00000000000E+00 0.  1.
</event>
<event>
 5    1  0.1751027E-003  0.9118800E+02  0.7818608E-02  0.1130116E+00
         25   -1    0    0    0    0  0.00000000000E+00  0.00000000000E+00  0.99999998245E-14  0.12500000000E+03  0.12500000000E+03 0.  0.
        -13    1    3    3    0    0 -0.33287091022E+02 -0.35812751851E+01 -0.32995870949E+02  0.47006325366E+02  0.10566000000E+00 0.  1.
         23    2    1    0    0    0  0.10933264475E+02 -0.18796297488E+02 -0.18862901350E+01  0.10317352154E+03  0.10083838746E+03 0.  0.
         13    1    3    3    0    0  0.44220355498E+02 -0.15215022303E+02  0.31109580814E+02  0.56167196178E+02  0.10566000000E+00 0. -1.
         22    1    1    0    0    0 -0.10933264475E+02  0.18796297488E+02  0.18862901350E+01  0.21826478456E+02  0.00000000000E+00 0.  1.
</event>
<event>
 5    1  0.1751027E-003  0.9118800E+02  0.7818608E-02  0.1130116E+00
         25   -1    0    0    0    0  0.00000000000E+00  0.00000000000E+00  0.99999998245E-14  0.12500000000E+03  0.12500000000E+03 0.  0.
        -13    1    3    3    0    0 -0.51492871715E+02 -0.38181992999E+01  0.31724863570E+01  0.51731714809E+02  0.10566000000E+00 0. -1.
         23    2    1    0    0    0 -0.19210577940E+02  0.14743344952E+01 -0.23975138637E+02  0.94242444186E+02  0.89082046712E+02 0.  0.
         13    1    3    3    0    0  0.32282293775E+02  0.52925337951E+01 -0.27147624994E+02  0.42510729377E+02  0.10566000000E+00 0.  1.
         22    1    1    0    0    0  0.19210577940E+02 -0.14743344952E+01  0.23975138637E+02  0.30757555814E+02  0.00000000000E+00 0.  1.
</event>
<event>
 5    1  0.1751027E-003  0.9118800E+02  0.7818608E-02  0.1130116E+00
         25   -1    0    0    0    0  0.00000000000E+00  0.00000000000E+00  0.99999998245E-14  0.12500000000E+03  0.12500000000E+03 0.  0.
        -13    1    3    3    0    0  0.19213589431E+02 -0.14304718061E+02  0.36637202091E+02  0.43773082125E+02  0.10566000000E+00 0. -1.
         23    2    1    0    0    0 -0.13900959467E+01  0.26541946986E+02  0.10823245050E+02  0.96302439999E+02  0.91927199456E+02 0.  0.
         13    1    3    3    0    0 -0.20603685378E+02  0.40846665047E+02 -0.25813957040E+02  0.52529357875E+02  0.10566000000E+00 0.  1.
         22    1    1    0    0    0  0.13900959467E+01 -0.26541946986E+02 -0.10823245050E+02  0.28697560001E+02  0.00000000000E+00 0.  1.
</event>
<event>
 5    1  0.1751027E-003  0.9118800E+02  0.7818608E-02  0.1130116E+00
         25   -1    0    0    0    0  0.00000000000E+00  0.00000000000E+00  0.99999998245E-14  0.12500000000E+03  0.12500000000E+03 0.  0.
        -13    1    3    3    0    0  0.16328208323E+02  0.96292430232E+01  0.26347336115E+02  0.32458065140E+02  0.10566000000E+00 0. -1.
         23    2    1    0    0    0  0.61664476669E-01 -0.17737684081E+02 -0.25880553164E+02  0.93624336323E+02  0.88210453353E+02 0.  0.
         13    1    3    3    0    0 -0.16266543846E+02 -0.27366927104E+02 -0.52227889280E+02  0.61166271183E+02  0.10566000000E+00 0.  1.
         22    1    1    0    0    0 -0.61664476669E-01  0.17737684081E+02  0.25880553164E+02  0.31375663677E+02  0.00000000000E+00 0.  1.
</event>
<event>
 5    1  0.1751027E-003  0.9118800E+02  0.7818608E-02  0.1130116E+00
         25   -1    0    0    0    0  0.00000000000E+00  0.00000000000E+00  0.99999998245E-14  0.12500000000E+03  0.12500000000E+03 0.  0.
        -13    1    3    3    0    0 -0.31681983557E+02 -0.22004110161E+01  0.16759837113E+02  0.35909513988E+02  0.10566000000E+00 0.  1.
         23    2    1    0    0    0  0.26835803125E+02  0.20520665324E+01  0.14038042539E+02  0.94644803662E+02  0.89644859950E+02 0.  0.
         13    1    3    3    0    0  0.58517786681E+02  0.42524775485E+01 -0.27217945743E+01  0.58735289674E+02  0.10566000000E+00 0. -1.
         22    1    1    0    0    0 -0.26835803125E+02 -0.20520665324E+01 -0.14038042539E+02  0.30355196338E+02  0.00000000000E+00 0. -1.
</event>
<event>
 5    1  0.1751027E-003  0.9118800E+02  0.7818608E-02  0.1130116E+00
         25   -1    0    0    0    0  0.00000000000E+00  0.00000000000E+00  0.99999998245E-14  0.12500000000E+03  0.12500000000E+03 0.  0.
        -13    1    3    3    0    0  0.87052212110E+01  0.21479889428E+02  0.49021089875E+02  0.54224025512E+02  0.10566000000E+00 0.  1.
         23    2    1    0    0    0  0.25035362485E+01 -0.12850596644E+02  0.25610146249E+02  0.96237435463E+02  0.91838765594E+02 0.  0.
         13    1    3    3    0    0 -0.62016849625E+01 -0.34330486072E+02 -0.23410943626E+02  0.42013409952E+02  0.10566000000E+00 0. -1.
         22    1    1    0    0    0 -0.25035362485E+01  0.12850596644E+02 -0.25610146249E+02  0.28762564537E+02  0.00000000000E+00 0. -1.
</event>
<event>
 5    1  0.1751027E-003  0.9118800E+02  0.7818608E-02  0.1130116E+00
         25   -1    0    0    0    0  0.00000000000E+00  0.00000000000E+00  0.99999998245E-14  0.12500000000E+03  0.12500000000E+03 0.  0.
        -13    1    3    3    0    0 -0.37046201684E+02 -0.50392632298E+01  0.12750255234E+02  0.39501840536E+02  0.10566000000E+00 0.  1.
         23    2    1    0    0    0  0.16458783942E+02  0.69136010030E+00  0.25349379077E+02  0.94768219251E+02  0.89816784694E+02 0.  0.
         13    1    3    3    0    0  0.53504985627E+02  0.57306233300E+01  0.12599123843E+02  0.55266378715E+02  0.10566000000E+00 0. -1.
         22    1    1    0    0    0 -0.16458783942E+02 -0.69136010030E+00 -0.25349379077E+02  0.30231780749E+02  0.00000000000E+00 0. -1.
</event>
<event>
 5    1  0.1751027E-003  0.9118800E+02  0.7818608E-02  0.1130116E+00
         25   -1    0    0    0    0  0.00000000000E+00  0.00000000000E+00  0.99999998245E-14  0.12500000000E+03  0.12500000000E+03 0.  0.
        -13    1    3    3    0    0 -0.17962778631E+02  0.43182267046E+02  0.40862300999E+02  0.62105623017E+02  0.10566000000E+00 0. -1.
         23    2    1    0    0    0 -0.10660850134E+02  0.22422259421E+02  0.15297256222E+02  0.95838081492E+02  0.91293594370E+02 0.  0.
         13    1    3    3    0    0  0.73019284971E+01 -0.20760007624E+02 -0.25565044777E+02  0.33732458476E+02  0.10566000000E+00 0.  1.
         22    1    1    0    0    0  0.10660850134E+02 -0.22422259421E+02 -0.15297256222E+02  0.29161918508E+02  0.00000000000E+00 0. -1.
</event>
<event>
 5    1  0.1751027E-003  0.9118800E+02  0.7818608E-02  0.1130116E+00
         25   -1    0    0    0    0  0.00000000000E+00  0.00000000000E+00  0.99999998245E-14  0.12500000000E+03  0.12500000000E+03 0.  0.
        -13    1    3    3    0    0  0.31836153255E+02 -0.18343699736E+02  0.49850871746E+02  0.61928608510E+02  0.10566000000E+00 0. -1.
         23    2    1    0    0    0  0.13963131778E+02 -0.12300244066E+02  0.32439948090E+02  0.87601934740E+02  0.79217950522E+02 0.  0.
         13    1    3    3    0    0 -0.17873021476E+02  0.60434556702E+01 -0.17410923656E+02  0.25673326230E+02  0.10566000000E+00 0.  1.
         22    1    1    0    0    0 -0.13963131778E+02  0.12300244066E+02 -0.32439948090E+02  0.37398065260E+02  0.00000000000E+00 0. -1.
</event>
<event>
 5    1  0.1751027E-003  0.9118800E+02  0.7818608E-02  0.1130116E+00
         25   -1    0    0    0    0  0.00000000000E+00  0.00000000000E+00  0.99999998245E-14  0.12500000000E+03  0.12500000000E+03 0.  0.
        -13    1    3    3    0    0 -0.24778245647E+02 -0.12789238938E+02 -0.45829644926E+02  0.53646002722E+02  0.10566000000E+00 0. -1.
         23    2    1    0    0    0  0.11411717420E+02 -0.11254637962E+02 -0.24623442129E+02  0.95619597137E+02  0.90993951911E+02 0.  0.
         13    1    3    3    0    0  0.36189963067E+02  0.15346009768E+01  0.21206202798E+02  0.41973594415E+02  0.10566000000E+00 0.  1.
         22    1    1    0    0    0 -0.11411717420E+02  0.11254637962E+02  0.24623442129E+02  0.29380402863E+02  0.00000000000E+00 0. -1.
</event>
<event>
 5    1  0.1751027E-003  0.9118800E+02  0.7818608E-02  0.1130116E+00
         25   -1    0    0    0    0  0.00000000000E+00  0.00000000000E+00  0.99999998245E-14  0.12500000000E+03  0.12500000000E+03 0.  0.
        -13    1    3    3    0    0 -0.47816479131E+02 -0.93013720589E+01  0.37322482935E+02  0.61367011457E+02  0.10566000000E+00 0.  1.
         23    2    1    0    0    0 -0.24272614748E+02 -0.86809041647E+01  0.10228911973E+02  0.97266472204E+02  0.93228847741E+02 0.  0.
         13    1    3    3    0    0  0.23543864382E+02  0.62046789421E+00 -0.27093570962E+02  0.35899460748E+02  0.10566000000E+00 0. -1.
         22    1    1    0    0    0  0.24272614748E+02  0.86809041647E+01 -0.10228911973E+02  0.27733527796E+02  0.00000000000E+00 0.  1.
</event>
<event>
 5    1  0.1751027E-003  0.9118800E+02  0.7818608E-02  0.1130116E+00
         25   -1    0    0    0    0  0.00000000000E+00  0.00000000000E+00  0.99999998245E-14  0.12500000000E+03  0.12500000000E+03 0.  0.
        -13    1    3    3    0    0  0.12358328277E+02 -0.11968541902E+02 -0.31400070316E+02  0.35804327294E+02  0.10566000000E+00 0.  1.
         23    2    1    0    0    0 -0.17736721920E+02 -0.15105699273E+02  0.19232791963E+02  0.94789509411E+02  0.89846409793E+02 0.  0.
         13    1    3    3    0    0 -0.30095050196E+02 -0.31371573703E+01  0.50632862279E+02  0.58985182117E+02  0.10566000000E+00 0. -1.
         22    1    1    0    0    0  0.17736721920E+02  0.15105699273E+02 -0.19232791963E+02  0.30210490589E+02  0.00000000000E+00 0. -1.
</event>
<event>
 5    1  0.1751027E-003  0.9118800E+02  0.7818608E-02  0.1130116E+00
         25   -1    0    0    0    0  0.00000000000E+00  0.00000000000E+00  0.99999998245E-14  0.12500000000E+03  0.12500000000E+03 0.  0.
        -13    1    3    3    0    0 -0.22294619492E+02  0.47027978914E+02  0.92201541234E+00  0.52053262487E+02  0.10566000000E+00 0. -1.
         23    2    1    0    0    0  0.80589640727E+01  0.22674496647E+02 -0.17633799481E+02  0.95166619630E+02  0.90369546351E+02 0.  0.
         13    1    3    3    0    0  0.30353583565E+02 -0.24353482267E+02 -0.18555814894E+02  0.43113357144E+02  0.10566000000E+00 0.  1.
         22    1    1    0    0    0 -0.80589640727E+01 -0.22674496647E+02  0.17633799481E+02  0.29833380370E+02  0.00000000000E+00 0. -1.
</event>
<event>
 5    1  0.1751027E-003  0.9118800E+02  0.7818608E-02  0.1130116E+00
         25   -1    0    0    0    0  0.00000000000E+00  0.00000000000E+00  0.99999998245E-14  0.12500000000E+03  0.12500000000E+03 0.  0.
        -13    1    3    3    0    0  0.14947080550E+02 -0.10398481625E+02  0.38114833178E+02  0.42240919844E+02  0.10566000000E+00 0.  1.
         23    2    1    0    0    0  0.69732970099E+01 -0.25728528568E+02 -0.12378555390E+02  0.95609309518E+02  0.90979818528E+02 0.  0.
         13    1    3    3    0    0 -0.79737835399E+01 -0.15330046944E+02 -0.50493388568E+02  0.53368389674E+02  0.10566000000E+00 0. -1.
         22    1    1    0    0    0 -0.69732970099E+01  0.25728528568E+02  0.12378555390E+02  0.29390690482E+02  0.00000000000E+00 0. -1.
</event>
<event>
 5    1  0.1751027E-003  0.9118800E+02  0.7818608E-02  0.1130116E+00
         25   -1    0    0    0    0  0.00000000000E+00  0.00000000000E+00  0.99999998245E-14  0.12500000000E+03  0.12500000000E+03 0.  0.
        -13    1    3    3    0    0  0.53312054024E+02  0.15487075032E+02 -0.50412199772E-01  0.55516108498E+02  0.10566000000E+00 0. -1.
         23    2    1    0    0    0  0.36622779292E+02  0.25867891541E+02 -0.12085265790E+02  0.78562629004E+02  0.63369213747E+02 0.  0.
         13    1    3    3    0    0 -0.16689274732E+02  0.10380816509E+02 -0.12034853590E+02  0.23046520506E+02  0.10566000000E+00 0.  1.
         22    1    1    0    0    0 -0.36622779292E+02 -0.25867891541E+02  0.12085265790E+02  0.46437370996E+02  0.00000000000E+00 0. -1.
</event>
<event>
 5    1  0.1751027E-003  0.9118800E+02  0.7818608E-02  0.1130116E+00
         25   -1    0    0    0    0  0.00000000000E+00  0.00000000000E+00  0.99999998245E-14  0.12500000000E+03  0.12500000000E+03 0.  0.
        -13    1    3    3    0    0 -0.89196214383E+01  0.37196684172E+02 -0.26803929006E+01  0.38345125246E+02  0.10566000000E+00 0. -1.
         23    2    1    0    0    0  0.11763416475E+02 -0.13462152618E+01  0.29869761752E+02  0.92869128088E+02  0.87133701988E+02 0.  0.
         13    1    3    3    0    0  0.20683037913E+02 -0.38542899434E+02  0.32550154652E+02  0.54524002843E+02  0.10566000000E+00 0.  1.
         22    1    1    0    0    0 -0.11763416475E+02  0.13462152618E+01 -0.29869761752E+02  0.32130871912E+02  0.00000000000E+00 0. -1.
</event>
<event>
 5    1  0.1751027E-003  0.9118800E+02  0.7818608E-02  0.1130116E+00
         25   -1    0    0    0    0  0.00000000000E+00  0.00000000000E+00  0.99999998245E-14  0.12500000000E+03  0.12500000000E+03 0.  0.
        -13    1    3    3    0    0  0.73427867094E+01  0.33209085553E+02 -0.22431667485E+02  0.40742493175E+02  0.10566000000E+00 0.  1.
         23    2    1    0    0    0 -0.52699723731E+01  0.10152780309E+02  0.26417320359E+02  0.96212392045E+02  0.91804673145E+02 0.  0.
         13    1    3    3    0    0 -0.12612759082E+02 -0.23056305244E+02  0.48848987844E+02  0.55469898870E+02  0.10566000000E+00 0. -1.
         22    1    1    0    0    0  0.52699723731E+01 -0.10152780309E+02 -0.26417320359E+02  0.28787607955E+02  0.00000000000E+00 0. -1.
</event>
<event>
 5    1  0.1751027E-003  0.9118800E+02  0.7818608E-02  0.1130116E+00
         25   -1    0    0    0    0  0.00000000000E+00  0.00000000000E+00  0.99999998245E-14  0.12500000000E+03  0.12500000000E+03 0.  0.
        -13    1    3    3    0    0  0.48807980860E+01  0.33080727598E+02  0.10557366078E+02  0.35066021601E+02  0.10566000000E+00 0.  1.
         23    2    1    0    0    0  0.11359744671E+02 -0.20315489085E+02 -0.17638246785E+02  0.95796050859E+02  0.91236027504E+02 0.  0.
         13    1    3    3    0    0  0.64789465852E+01 -0.53396216683E+02 -0.28195612863E+02  0.60730029258E+02  0.10566000000E+00 0. -1.
         22    1    1    0    0    0 -0.11359744671E+02  0.20315489085E+02  0.17638246785E+02  0.29203949141E+02  0.00000000000E+00 0. -1.
</event>
<event>
 5    1  0.1751027E-003  0.9118800E+02  0.7818608E-02  0.1130116E+00
         25   -1    0    0    0    0  0.00000000000E+00  0.00000000000E+00  0.99999998245E-14  0.12500000000E+03  0.12500000000E+03 0.  0.
        -13    1    3    3    0    0 -0.28603233239E+02  0.50033787101E+01  0.25965051137E+02  0.38953482448E+02  0.10566000000E+00 0. -1.
         23    2    1    0    0    0 -0.82034596984E+01 -0.18106760607E+01 -0.27321047043E+02  0.96416527322E+02  0.92082201486E+02 0.  0.
         13    1    3    3    0    0  0.20399773540E+02 -0.68140547709E+01 -0.53286098180E+02  0.57463044874E+02  0.10566000000E+00 0.  1.
         22    1    1    0    0    0  0.82034596984E+01  0.18106760607E+01  0.27321047043E+02  0.28583472678E+02  0.00000000000E+00 0.  1.
</event>
<event>
 5    1  0.1751027E-003  0.9118800E+02  0.7818608E-02  0.1130116E+00
         25   -1    0    0    0    0  0.00000000000E+00  0.00000000000E+00  0.99999998245E-14  0.12500000000E+03  0.12500000000E+03 0.  0.
        -13    1    3    3    0    0 -0.22311783658E+02 -0.30146577410E+02 -0.42221957396E+02  0.56474212432E+02  0.10566000000E+00 0. -1.
         23    2    1    0    0    0  0.58584447232E+01 -0.24331092749E+02 -0.16848007333E+02  0.94830830306E+02  0.89903879652E+02 0.  0.
         13    1    3    3    0    0  0.28170228381E+02  0.58154846606E+01  0.25373950063E+02  0.38356617874E+02  0.10566000000E+00 0.  1.
         22    1    1    0    0    0 -0.58584447232E+01  0.24331092749E+02  0.16848007333E+02  0.30169169694E+02  0.00000000000E+00 0. -1.
</event>
<event>
 5    1  0.1751027E-003  0.9118800E+02  0.7818608E-02  0.1130116E+00
         25   -1    0    0    0    0  0.00000000000E+00  0.00000000000E+00  0.99999998245E-14  0.12500000000E+03  0.12500000000E+03 0.  0.
        -13    1    3    3    0    0  0.16878778313E+02  0.56488017177E+02  0.38732739666E+01  0.59083014964E+02  0.10566000000E+00 0.  1.
         23    2    1    0    0    0  0.19664321668E+02  0.21798196318E+02 -0.55161457917E+01  0.95129031255E+02  0.90317538793E+02 0.  0.
         13    1    3    3    0    0  0.27855433546E+01 -0.34689820859E+02 -0.93894197583E+01  0.36046016291E+02  0.10566000000E+00 0. -1.
         22    1    1    0    0    0 -0.19664321668E+02 -0.21798196318E+02  0.55161457917E+01  0.29870968745E+02  0.00000000000E+00 0.  1.
</event>
<event>
 5    1  0.1751027E-003  0.9118800E+02  0.7818608E-02  0.1130116E+00
         25   -1    0    0    0    0  0.00000000000E+00  0.00000000000E+00  0.99999998245E-14  0.12500000000E+03  0.12500000000E+03 0.  0.
        -13    1    3    3    0    0 -0.21530945661E+02  0.20744098669E+02  0.18757126936E+02  0.35295045340E+02  0.10566000000E+00 0. -1.
         23    2    1    0    0    0  0.31000574430E+02  0.15141089677E+02  0.32864662270E+01  0.90343268015E+02  0.83431510856E+02 0.  0.
         13    1    3    3    0    0  0.52531520091E+02 -0.56030089921E+01 -0.15470660709E+02  0.55048222675E+02  0.10566000000E+00 0.  1.
         22    1    1    0    0    0 -0.31000574430E+02 -0.15141089677E+02 -0.32864662270E+01  0.34656731985E+02  0.00000000000E+00 0.  1.
</event>
<event>
 5    1  0.1751027E-003  0.9118800E+02  0.7818608E-02  0.1130116E+00
         25   -1    0    0    0    0  0.00000000000E+00  0.00000000000E+00  0.99999998245E-14  0.12500000000E+03  0.12500000000E+03 0.  0.
        -13    1    3    3    0    0 -0.22230196200E+02 -0.41453226282E+02 -0.34904515221E+02  0.58573782011E+02  0.10566000000E+00 0. -1.
         23    2    1    0    0    0 -0.19673673228E+02 -0.73088911903E+01 -0.20309510915E+02  0.95794700099E+02  0.91234176845E+02 0.  0.
         13    1    3    3    0    0  0.25565229712E+01  0.34144335092E+02  0.14595004306E+02  0.37220918087E+02  0.10566000000E+00 0.  1.
         22    1    1    0    0    0  0.19673673228E+02  0.73088911903E+01  0.20309510915E+02  0.29205299901E+02  0.00000000000E+00 0. -1.
</event>
<event>
 5    1  0.1751027E-003  0.9118800E+02  0.7818608E-02  0.1130116E+00
         25   -1    0    0    0    0  0.00000000000E+00  0.00000000000E+00  0.99999998245E-14  0.12500000000E+03  0.12500000000E+03 0.  0.
        -13    1    3    3    0    0 -0.27713857891E+02  0.50996174987E+01  0.25887191683E+02  0.38265152229E+02  0.10566000000E+00 0. -1.
         23    2    1    0    0    0  0.39476729644E+01  0.25868202539E+02 -0.15680457050E+02  0.94493857050E+02  0.89434133654E+02 0.  0.
         13    1    3    3    0    0  0.31661530855E+02  0.20768585040E+02 -0.41567648732E+02  0.56228704821E+02  0.10566000000E+00 0.  1.
         22    1    1    0    0    0 -0.39476729644E+01 -0.25868202539E+02  0.15680457050E+02  0.30506142950E+02  0.00000000000E+00 0.  1.
</event>
<event>
 5    1  0.1751027E-003  0.9118800E+02  0.7818608E-02  0.1130116E+00
         25   -1    0    0    0    0  0.00000000000E+00  0.00000000000E+00  0.99999998245E-14  0.12500000000E+03  0.12500000000E+03 0.  0.
        -13    1    3    3    0    0  0.17173876955E+02 -0.96192055316E+01  0.23657522226E+02  0.30775975803E+02  0.10566000000E+00 0. -1.
         23    2    1    0    0    0 -0.96872985888E+01  0.12686916324E+02 -0.27789484374E+02  0.92952269323E+02  0.87252892965E+02 0.  0.
         13    1    3    3    0    0 -0.26861175544E+02  0.22306121856E+02 -0.51447006600E+02  0.62176293520E+02  0.10566000000E+00 0.  1.
         22    1    1    0    0    0  0.96872985888E+01 -0.12686916324E+02  0.27789484374E+02  0.32047730677E+02  0.00000000000E+00 0.  1.
</event>
<event>
 5    1  0.1751027E-003  0.9118800E+02  0.7818608E-02  0.1130116E+00
         25   -1    0    0    0    0  0.00000000000E+00  0.00000000000E+00  0.99999998245E-14  0.12500000000E+03  0.12500000000E+03 0.  0.
        -13    1    3    3    0    0  0.52871898017E+02 -0.74935968181E+01  0.20022153287E+02  0.57030600378E+02  0.10566000000E+00 0.  1.
         23    2    1    0    0    0  0.24931120866E+02 -0.18486897084E+02 -0.14254399562E+01  0.93929788696E+02  0.88642242604E+02 0.  0.
         13    1    3    3    0    0 -0.27940777151E+02 -0.10993300266E+02 -0.21447593244E+02  0.36899188318E+02  0.10566000000E+00 0. -1.
         22    1    1    0    0    0 -0.24931120866E+02  0.18486897084E+02  0.14254399562E+01  0.31070211304E+02  0.00000000000E+00 0.  1.
</event>
<event>
 5    1  0.1751027E-003  0.9118800E+02  0.7818608E-02  0.1130116E+00
         25   -1    0    0    0    0  0.00000000000E+00  0.00000000000E+00  0.99999998245E-14  0.12500000000E+03  0.12500000000E+03 0.  0.
        -13    1    3    3    0    0 -0.16856920392E+02  0.48981101454E+02  0.73648328238E+01  0.52321658912E+02  0.10566000000E+00 0. -1.
         23    2    1    0    0    0  0.36196456860E+01  0.29606451824E+02 -0.17931847939E+02  0.90197773131E+02  0.83213239828E+02 0.  0.
         13    1    3    3    0    0  0.20476566078E+02 -0.19374649630E+02 -0.25296680763E+02  0.37876114219E+02  0.10566000000E+00 0.  1.
         22    1    1    0    0    0 -0.36196456860E+01 -0.29606451824E+02  0.17931847939E+02  0.34802226869E+02  0.00000000000E+00 0. -1.
</event>
<event>
 5    1  0.1751027E-003  0.9118800E+02  0.7818608E-02  0.1130116E+00
         25   -1    0    0    0    0  0.00000000000E+00  0.00000000000E+00  0.99999998245E-14  0.12500000000E+03  0.12500000000E+03 0.  0.
        -13    1    3    3    0    0  0.53737035578E+01  0.84718999210E+00 -0.61258560015E+02  0.61499729755E+02  0.10566000000E+00 0. -1.
         23    2    1    0    0    0 -0.24426319862E+01 -0.57335030343E+01 -0.28997602346E+02  0.95340255398E+02  0.90609402655E+02 0.  0.
         13    1    3    3    0    0 -0.78163355440E+01 -0.65806930264E+01  0.32260957669E+02  0.33840525643E+02  0.10566000000E+00 0.  1.
         22    1    1    0    0    0  0.24426319862E+01  0.57335030343E+01  0.28997602346E+02  0.29659744602E+02  0.00000000000E+00 0. -1.
</event>
<event>
 5    1  0.1751027E-003  0.9118800E+02  0.7818608E-02  0.1130116E+00
         25   -1    0    0    0    0  0.00000000000E+00  0.00000000000E+00  0.99999998245E-14  0.12500000000E+03  0.12500000000E+03 0.  0.
        -13    1    3    3    0    0 -0.10826156708E+02 -0.44755448454E+02 -0.34035686549E+02  0.57259889611E+02  0.10566000000E+00 0. -1.
         23    2    1    0    0    0 -0.22327534637E+02 -0.15964563589E+02 -0.13846562955E+02  0.94257303319E+02  0.89102894621E+02 0.  0.
         13    1    3    3    0    0 -0.11501377928E+02  0.28790884865E+02  0.20189123594E+02  0.36997413708E+02  0.10566000000E+00 0.  1.
         22    1    1    0    0    0  0.22327534637E+02  0.15964563589E+02  0.13846562955E+02  0.30742696681E+02  0.00000000000E+00 0. -1.
</event>
<event>
 5    1  0.1751027E-003  0.9118800E+02  0.7818608E-02  0.1130116E+00
         25   -1    0    0    0    0  0.00000000000E+00  0.00000000000E+00  0.99999998245E-14  0.12500000000E+03  0.12500000000E+03 0.  0.
        -13    1    3    3    0    0 -0.91398682486E+01  0.12707832959E+02  0.36963019575E+02  0.40141028765E+02  0.10566000000E+00 0.  1.
         23    2    1    0    0    0 -0.19439726252E+02  0.25430240831E+01 -0.18851853640E+02  0.97801428091E+02  0.93943371361E+02 0.  0.
         13    1    3    3    0    0 -0.10299858004E+02 -0.10164808876E+02 -0.55814873215E+02  0.57660399326E+02  0.10566000000E+00 0. -1.
         22    1    1    0    0    0  0.19439726252E+02 -0.25430240831E+01  0.18851853640E+02  0.27198571909E+02  0.00000000000E+00 0. -1.
</event>
<event>
 5    1  0.1751027E-003  0.9118800E+02  0.7818608E-02  0.1130116E+00
         25   -1    0    0    0    0  0.00000000000E+00  0.00000000000E+00  0.99999998245E-14  0.12500000000E+03  0.12500000000E+03 0.  0.
        -13    1    3    3    0    0  0.10922570578E+02  0.37833111399E+01 -0.33036131874E+02  0.35000188063E+02  0.10566000000E+00 0.  1.
         23    2    1    0    0    0 -0.16269602450E+02  0.65506560266E+01  0.22246825008E+02  0.96670999290E+02  0.92426997260E+02 0.  0.
         13    1    3    3    0    0 -0.27192173028E+02  0.27673448866E+01  0.55282956882E+02  0.61670811227E+02  0.10566000000E+00 0. -1.
         22    1    1    0    0    0  0.16269602450E+02 -0.65506560266E+01 -0.22246825008E+02  0.28329000710E+02  0.00000000000E+00 0. -1.
</event>
<event>
 5    1  0.1751027E-003  0.9118800E+02  0.7818608E-02  0.1130116E+00
         25   -1    0    0    0    0  0.00000000000E+00  0.00000000000E+00  0.99999998245E-14  0.12500000000E+03  0.12500000000E+03 0.  0.
        -13    1    3    3    0    0  0.50875826556E+02 -0.93114738727E+01  0.14993368241E+02  0.53850399522E+02  0.10566000000E+00 0. -1.
         23    2    1    0    0    0  0.15143706702E+02  0.15208744545E+02  0.17569598445E+02  0.97263227426E+02  0.93224497083E+02 0.  0.
         13    1    3    3    0    0 -0.35732119854E+02  0.24520218418E+02  0.25762302039E+01  0.43412827904E+02  0.10566000000E+00 0.  1.
         22    1    1    0    0    0 -0.15143706702E+02 -0.15208744545E+02 -0.17569598445E+02  0.27736772574E+02  0.00000000000E+00 0. -1.
</event>
<event>
 5    1  0.1751027E-003  0.9118800E+02  0.7818608E-02  0.1130116E+00
         25   -1    0    0    0    0  0.00000000000E+00  0.00000000000E+00  0.99999998245E-14  0.12500000000E+03  0.12500000000E+03 0.  0.
        -13    1    3    3    0    0 -0.41906995782E+02 -0.33483295407E+02  0.29533301813E+02  0.61233605535E+02  0.10566000000E+00 0.  1.
         23    2    1    0    0    0 -0.24766559454E+02 -0.11784014333E+02  0.75694812846E+01  0.96547539511E+02  0.92259876857E+02 0.  0.
         13    1    3    3    0    0  0.17140436328E+02  0.21699281074E+02 -0.21963820528E+02  0.35313933976E+02  0.10566000000E+00 0. -1.
         22    1    1    0    0    0  0.24766559454E+02  0.11784014333E+02 -0.75694812846E+01  0.28452460489E+02  0.00000000000E+00 0.  1.
</event>
<event>
 5    1  0.1751027E-003  0.9118800E+02  0.7818608E-02  0.1130116E+00
         25   -1    0    0    0    0  0.00000000000E+00  0.00000000000E+00  0.99999998245E-14  0.12500000000E+03  0.12500000000E+03 0.  0.
        -13    1    3    3    0    0 -0.30732793312E+02  0.18843641517E+02 -0.21732011053E+02  0.42093691674E+02  0.10566000000E+00 0. -1.
         23    2    1    0    0    0  0.19883280201E+02  0.35791682655E+01 -0.22226536807E+02  0.94963784934E+02  0.90088546628E+02 0.  0.
         13    1    3    3    0    0  0.50616073513E+02 -0.15264473251E+02 -0.49452575419E+00  0.52870093260E+02  0.10566000000E+00 0.  1.
         22    1    1    0    0    0 -0.19883280201E+02 -0.35791682655E+01  0.22226536807E+02  0.30036215066E+02  0.00000000000E+00 0.  1.
</event>
<event>
 5    1  0.1751027E-003  0.9118800E+02  0.7818608E-02  0.1130116E+00
         25   -1    0    0    0    0  0.00000000000E+00  0.00000000000E+00  0.99999998245E-14  0.12500000000E+03  0.12500000000E+03 0.  0.
        -13    1    3    3    0    0  0.16624334746E+02 -0.12146401822E+02  0.34365908356E+02  0.40061582647E+02  0.10566000000E+00 0. -1.
         23    2    1    0    0    0 -0.15473168846E+01 -0.25766212797E+02 -0.15525314204E+02  0.94878126012E+02  0.89969614332E+02 0.  0.
         13    1    3    3    0    0 -0.18171651630E+02 -0.13619810975E+02 -0.49891222560E+02  0.54816543365E+02  0.10566000000E+00 0.  1.
         22    1    1    0    0    0  0.15473168846E+01  0.25766212797E+02  0.15525314204E+02  0.30121873988E+02  0.00000000000E+00 0.  1.
</event>
<event>
 5    1  0.1751027E-003  0.9118800E+02  0.7818608E-02  0.1130116E+00
         25   -1    0    0    0    0  0.00000000000E+00  0.00000000000E+00  0.99999998245E-14  0.12500000000E+03  0.12500000000E+03 0.  0.
        -13    1    3    3    0    0 -0.19789041820E+02  0.20289025333E+02 -0.20701580142E+02  0.35097255014E+02  0.10566000000E+00 0.  1.
         23    2    1    0    0    0  0.27069738315E+02 -0.11629537476E+02  0.23648551239E+00  0.95536924808E+02  0.90880312511E+02 0.  0.
         13    1    3    3    0    0  0.46858780135E+02 -0.31918562809E+02  0.20938065654E+02  0.60439669795E+02  0.10566000000E+00 0. -1.
         22    1    1    0    0    0 -0.27069738315E+02  0.11629537476E+02 -0.23648551239E+00  0.29463075192E+02  0.00000000000E+00 0. -1.
</event>
<event>
 5    1  0.1751027E-003  0.9118800E+02  0.7818608E-02  0.1130116E+00
         25   -1    0    0    0    0  0.00000000000E+00  0.00000000000E+00  0.99999998245E-14  0.12500000000E+03  0.12500000000E+03 0.  0.
        -13    1    3    3    0    0  0.22731590809E+02 -0.18978543711E+01 -0.32014642667E+02  0.39309993399E+02  0.10566000000E+00 0. -1.
         23    2    1    0    0    0 -0.26687688031E+02 -0.10686381024E+02 -0.69063575147E+01  0.95434323854E+02  0.90739081787E+02 0.  0.
         13    1    3    3    0    0 -0.49419278840E+02 -0.87885266531E+01  0.25108285152E+02  0.56124330455E+02  0.10566000000E+00 0.  1.
         22    1    1    0    0    0  0.26687688031E+02  0.10686381024E+02  0.69063575147E+01  0.29565676146E+02  0.00000000000E+00 0.  1.
</event>
<event>
 5    1  0.1751027E-003  0.9118800E+02  0.7818608E-02  0.1130116E+00
         25   -1    0    0    0    0  0.00000000000E+00  0.00000000000E+00  0.99999998245E-14  0.12500000000E+03  0.12500000000E+03 0.  0.
        -13    1    3    3    0    0 -0.29773669889E+02  0.20147885075E+02 -0.39839208267E+02  0.53661740291E+02  0.10566000000E+00 0. -1.
         23    2    1    0    0    0 -0.28647874093E+02 -0.52581437653E+01 -0.72766805000E+01  0.94978360387E+02  0.90108768146E+02 0.  0.
         13    1    3    3    0    0  0.11257957955E+01 -0.25406028841E+02  0.32562527767E+02  0.41316620097E+02  0.10566000000E+00 0.  1.
         22    1    1    0    0    0  0.28647874093E+02  0.52581437653E+01  0.72766805000E+01  0.30021639613E+02  0.00000000000E+00 0. -1.
</event>
<event>
 5    1  0.1751027E-003  0.9118800E+02  0.7818608E-02  0.1130116E+00
         25   -1    0    0    0    0  0.00000000000E+00  0.00000000000E+00  0.99999998245E-14  0.12500000000E+03  0.12500000000E+03 0.  0.
        -13    1    3    3    0    0  0.29673520627E+02  0.51047026599E+02  0.13704782568E+02  0.60614758766E+02  0.10566000000E+00 0.  1.
         23    2    1    0    0    0  0.66330692249E+01  0.23281008583E+02  0.14643967942E+02  0.96707796744E+02  0.92476749435E+02 0.  0.
         13    1    3    3    0    0 -0.23040451403E+02 -0.27766018016E+02  0.93918537368E+00  0.36093037978E+02  0.10566000000E+00 0. -1.
         22    1    1    0    0    0 -0.66330692249E+01 -0.23281008583E+02 -0.14643967942E+02  0.28292203256E+02  0.00000000000E+00 0.  1.
</event>
<event>
 5    1  0.1751027E-003  0.9118800E+02  0.7818608E-02  0.1130116E+00
         25   -1    0    0    0    0  0.00000000000E+00  0.00000000000E+00  0.99999998245E-14  0.12500000000E+03  0.12500000000E+03 0.  0.
        -13    1    3    3    0    0 -0.23241691074E+01 -0.43766390110E+02  0.36979532617E+02  0.57344534717E+02  0.10566000000E+00 0.  1.
         23    2    1    0    0    0 -0.11807900186E+02 -0.26134828626E+02  0.38352601234E+01  0.96066196339E+02  0.91605398775E+02 0.  0.
         13    1    3    3    0    0 -0.94837310781E+01  0.17631561485E+02 -0.33144272494E+02  0.38721661622E+02  0.10566000000E+00 0. -1.
         22    1    1    0    0    0  0.11807900186E+02  0.26134828626E+02 -0.38352601234E+01  0.28933803661E+02  0.00000000000E+00 0.  1.
</event>
<event>
 5    1  0.1751027E-003  0.9118800E+02  0.7818608E-02  0.1130116E+00
         25   -1    0    0    0    0  0.00000000000E+00  0.00000000000E+00  0.99999998245E-14  0.12500000000E+03  0.12500000000E+03 0.  0.
        -13    1    3    3    0    0  0.33932882108E+02  0.23770751152E+02 -0.26250860523E+02  0.49046997265E+02  0.10566000000E+00 0. -1.
         23    2    1    0    0    0  0.18222583735E+01 -0.99976509755E+01 -0.27520990366E+02  0.95662676309E+02  0.91053111299E+02 0.  0.
         13    1    3    3    0    0 -0.32110623734E+02 -0.33768402128E+02 -0.12701298434E+01  0.46615679044E+02  0.10566000000E+00 0.  1.
         22    1    1    0    0    0 -0.18222583735E+01  0.99976509755E+01  0.27520990366E+02  0.29337323691E+02  0.00000000000E+00 0. -1.
</event>
<event>
 5    1  0.1751027E-003  0.9118800E+02  0.7818608E-02  0.1130116E+00
         25   -1    0    0    0    0  0.00000000000E+00  0.00000000000E+00  0.99999998245E-14  0.12500000000E+03  0.12500000000E+03 0.  0.
        -13    1    3    3    0    0  0.16134263556E+02  0.26941107297E+02 -0.18025203055E+02  0.36208518778E+02  0.10566000000E+00 0. -1.
         23    2    1    0    0    0 -0.11715073965E+02 -0.25214887296E+02 -0.50371382253E+01  0.96743916392E+02  0.92525559161E+02 0.  0.
         13    1    3    3    0    0 -0.27849337520E+02 -0.52155994593E+02  0.12988064829E+02  0.60535397615E+02  0.10566000000E+00 0.  1.
         22    1    1    0    0    0  0.11715073965E+02  0.25214887296E+02  0.50371382253E+01  0.28256083608E+02  0.00000000000E+00 0.  1.
</event>
<event>
 5    1  0.1751027E-003  0.9118800E+02  0.7818608E-02  0.1130116E+00
         25   -1    0    0    0    0  0.00000000000E+00  0.00000000000E+00  0.99999998245E-14  0.12500000000E+03  0.12500000000E+03 0.  0.
        -13    1    3    3    0    0 -0.34606033305E+01 -0.55418341015E-01  0.40610428861E+02  0.40757783832E+02  0.10566000000E+00 0.  1.
         23    2    1    0    0    0  0.17530841816E+02 -0.23916209177E+02 -0.35178658267E+01  0.95138806853E+02  0.90331067265E+02 0.  0.
         13    1    3    3    0    0  0.20991445147E+02 -0.23860790836E+02 -0.44128294688E+02  0.54381023021E+02  0.10566000000E+00 0. -1.
         22    1    1    0    0    0 -0.17530841816E+02  0.23916209177E+02  0.35178658267E+01  0.29861193147E+02  0.00000000000E+00 0. -1.
</event>
<event>
 5    1  0.1751027E-003  0.9118800E+02  0.7818608E-02  0.1130116E+00
         25   -1    0    0    0    0  0.00000000000E+00  0.00000000000E+00  0.99999998245E-14  0.12500000000E+03  0.12500000000E+03 0.  0.
        -13    1    3    3    0    0  0.15870039763E+02 -0.33554875446E+01 -0.54778455728E+02  0.57129745621E+02  0.10566000000E+00 0. -1.
         23    2    1    0    0    0 -0.89658754234E+01 -0.10244206873E+02 -0.25166878145E+02  0.96387023012E+02  0.92042141179E+02 0.  0.
         13    1    3    3    0    0 -0.24835915186E+02 -0.68887193282E+01  0.29611577583E+02  0.39257277390E+02  0.10566000000E+00 0.  1.
         22    1    1    0    0    0  0.89658754234E+01  0.10244206873E+02  0.25166878145E+02  0.28612976988E+02  0.00000000000E+00 0. -1.
</event>
<event>
 5    1  0.1751027E-003  0.9118800E+02  0.7818608E-02  0.1130116E+00
         25   -1    0    0    0    0  0.00000000000E+00  0.00000000000E+00  0.99999998245E-14  0.12500000000E+03  0.12500000000E+03 0.  0.
        -13    1    3    3    0    0  0.21444272835E+02 -0.34204641092E+02 -0.19363502255E+02  0.44774665753E+02  0.10566000000E+00 0. -1.
         23    2    1    0    0    0  0.21875469465E+02 -0.14609071212E+01  0.19544345783E+02  0.95629064264E+02  0.91006956140E+02 0.  0.
         13    1    3    3    0    0  0.43119662996E+00  0.32743733971E+02  0.38907848038E+02  0.50854398511E+02  0.10566000000E+00 0.  1.
         22    1    1    0    0    0 -0.21875469465E+02  0.14609071212E+01 -0.19544345783E+02  0.29370935736E+02  0.00000000000E+00 0. -1.
</event>
<event>
 5    1  0.1751027E-003  0.9118800E+02  0.7818608E-02  0.1130116E+00
         25   -1    0    0    0    0  0.00000000000E+00  0.00000000000E+00  0.99999998245E-14  0.12500000000E+03  0.12500000000E+03 0.  0.
        -13    1    3    3    0    0 -0.23640492313E+02 -0.29350308021E+02 -0.22016587098E+02  0.43646932644E+02  0.10566000000E+00 0.  1.
         23    2    1    0    0    0  0.31860102202E+00 -0.22409785010E+02  0.21587762696E+02  0.93881975175E+02  0.88574792090E+02 0.  0.
         13    1    3    3    0    0  0.23959093335E+02  0.69405230114E+01  0.43604349794E+02  0.50235042531E+02  0.10566000000E+00 0. -1.
         22    1    1    0    0    0 -0.31860102202E+00  0.22409785010E+02 -0.21587762696E+02  0.31118024825E+02  0.00000000000E+00 0.  1.
</event>
<event>
 5    1  0.1751027E-003  0.9118800E+02  0.7818608E-02  0.1130116E+00
         25   -1    0    0    0    0  0.00000000000E+00  0.00000000000E+00  0.99999998245E-14  0.12500000000E+03  0.12500000000E+03 0.  0.
        -13    1    3    3    0    0  0.81708982499E+01  0.13070063151E+02 -0.32842079024E+02  0.36279518294E+02  0.10566000000E+00 0.  1.
         23    2    1    0    0    0  0.43356193838E+01 -0.26152343303E+02  0.11933737996E+02  0.95928420093E+02  0.91417203104E+02 0.  0.
         13    1    3    3    0    0 -0.38352788661E+01 -0.39222406455E+02  0.44775817020E+02  0.59648901800E+02  0.10566000000E+00 0. -1.
         22    1    1    0    0    0 -0.43356193838E+01  0.26152343303E+02 -0.11933737996E+02  0.29071579907E+02  0.00000000000E+00 0. -1.
</event>
<event>
 5    1  0.1751027E-003  0.9118800E+02  0.7818608E-02  0.1130116E+00
         25   -1    0    0    0    0  0.00000000000E+00  0.00000000000E+00  0.99999998245E-14  0.12500000000E+03  0.12500000000E+03 0.  0.
        -13    1    3    3    0    0  0.34590161342E+02 -0.29696452605E+01  0.46349195754E+01  0.35025586336E+02  0.10566000000E+00 0.  1.
         23    2    1    0    0    0 -0.24712943171E+02  0.13173113092E+01  0.15959301016E+02  0.95552348851E+02  0.90901524810E+02 0.  0.
         13    1    3    3    0    0 -0.59303104513E+02  0.42869565696E+01  0.11324381440E+02  0.60526762515E+02  0.10566000000E+00 0. -1.
         22    1    1    0    0    0  0.24712943171E+02 -0.13173113092E+01 -0.15959301016E+02  0.29447651149E+02  0.00000000000E+00 0. -1.
</event>
<event>
 5    1  0.1751027E-003  0.9118800E+02  0.7818608E-02  0.1130116E+00
         25   -1    0    0    0    0  0.00000000000E+00  0.00000000000E+00  0.99999998245E-14  0.12500000000E+03  0.12500000000E+03 0.  0.
        -13    1    3    3    0    0 -0.28741676959E+02 -0.10388637447E+02  0.27941085014E+01  0.30689183579E+02  0.10566000000E+00 0.  1.
         23    2    1    0    0    0  0.31721467446E+02  0.43733537524E+01  0.15556448049E+01  0.92940715062E+02  0.87236338560E+02 0.  0.
         13    1    3    3    0    0  0.60463144405E+02  0.14761991199E+02 -0.12384636965E+01  0.62251531482E+02  0.10566000000E+00 0. -1.
         22    1    1    0    0    0 -0.31721467446E+02 -0.43733537524E+01 -0.15556448049E+01  0.32059284938E+02  0.00000000000E+00 0. -1.
</event>
<event>
 5    1  0.1751027E-003  0.9118800E+02  0.7818608E-02  0.1130116E+00
         25   -1    0    0    0    0  0.00000000000E+00  0.00000000000E+00  0.99999998245E-14  0.12500000000E+03  0.12500000000E+03 0.  0.
        -13    1    3    3    0    0  0.37039175498E+02  0.23804430946E+02  0.27962696435E+02  0.52158172995E+02  0.10566000000E+00 0. -1.
         23    2    1    0    0    0  0.28859682193E+02 -0.76999956676E+01 -0.94152165921E-01  0.95130616775E+02  0.90319733137E+02 0.  0.
         13    1    3    3    0    0 -0.81794933048E+01 -0.31504426614E+02 -0.28056848601E+02  0.42972443780E+02  0.10566000000E+00 0.  1.
         22    1    1    0    0    0 -0.28859682193E+02  0.76999956676E+01  0.94152165921E-01  0.29869383225E+02  0.00000000000E+00 0.  1.
</event>
<event>
 5    1  0.1751027E-003  0.9118800E+02  0.7818608E-02  0.1130116E+00
         25   -1    0    0    0    0  0.00000000000E+00  0.00000000000E+00  0.99999998245E-14  0.12500000000E+03  0.12500000000E+03 0.  0.
        -13    1    3    3    0    0  0.54716962546E+02  0.12085601296E+02  0.17022491151E+02  0.58564358768E+02  0.10566000000E+00 0. -1.
         23    2    1    0    0    0  0.26608936795E+02 -0.10045813608E+02  0.74205947985E+01  0.95605797926E+02  0.90974993715E+02 0.  0.
         13    1    3    3    0    0 -0.28108025750E+02 -0.22131414904E+02 -0.96018963525E+01  0.37041439157E+02  0.10566000000E+00 0.  1.
         22    1    1    0    0    0 -0.26608936795E+02  0.10045813608E+02 -0.74205947985E+01  0.29394202074E+02  0.00000000000E+00 0. -1.
</event>
<event>
 5    1  0.1751027E-003  0.9118800E+02  0.7818608E-02  0.1130116E+00
         25   -1    0    0    0    0  0.00000000000E+00  0.00000000000E+00  0.99999998245E-14  0.12500000000E+03  0.12500000000E+03 0.  0.
        -13    1    3    3    0    0  0.21794717495E+02 -0.23974153331E+02 -0.72217952053E+01  0.33195409752E+02  0.10566000000E+00 0. -1.
         23    2    1    0    0    0 -0.29152161106E+02  0.76378252493E+01  0.51793776247E+01  0.94422053302E+02  0.89333718861E+02 0.  0.
         13    1    3    3    0    0 -0.50946878600E+02  0.31611978580E+02  0.12401172830E+02  0.61226643550E+02  0.10566000000E+00 0.  1.
         22    1    1    0    0    0  0.29152161106E+02 -0.76378252493E+01 -0.51793776247E+01  0.30577946698E+02  0.00000000000E+00 0.  1.
</event>
<event>
 5    1  0.1751027E-003  0.9118800E+02  0.7818608E-02  0.1130116E+00
         25   -1    0    0    0    0  0.00000000000E+00  0.00000000000E+00  0.99999998245E-14  0.12500000000E+03  0.12500000000E+03 0.  0.
        -13    1    3    3    0    0 -0.70520900309E+01  0.65408938842E-01 -0.60480662851E+02  0.60890541097E+02  0.10566000000E+00 0. -1.
         23    2    1    0    0    0 -0.51502722286E+01 -0.96257194732E+01 -0.24996905761E+02  0.97723176925E+02  0.93839193471E+02 0.  0.
         13    1    3    3    0    0  0.19018178023E+01 -0.96911284120E+01  0.35483757089E+02  0.36832635828E+02  0.10566000000E+00 0.  1.
         22    1    1    0    0    0  0.51502722286E+01  0.96257194732E+01  0.24996905761E+02  0.27276823075E+02  0.00000000000E+00 0. -1.
</event>
<event>
 5    1  0.1751027E-003  0.9118800E+02  0.7818608E-02  0.1130116E+00
         25   -1    0    0    0    0  0.00000000000E+00  0.00000000000E+00  0.99999998245E-14  0.12500000000E+03  0.12500000000E+03 0.  0.
        -13    1    3    3    0    0 -0.25944143215E+02  0.50599939170E+02 -0.10188930105E+01  0.56872679893E+02  0.10566000000E+00 0. -1.
         23    2    1    0    0    0  0.44859401042E+01  0.25732767605E+02 -0.97311354336E+01  0.97125388181E+02  0.93039491858E+02 0.  0.
         13    1    3    3    0    0  0.30430083319E+02 -0.24867171565E+02 -0.87122424231E+01  0.40252708288E+02  0.10566000000E+00 0.  1.
         22    1    1    0    0    0 -0.44859401042E+01 -0.25732767605E+02  0.97311354336E+01  0.27874611819E+02  0.00000000000E+00 0. -1.
</event>
<event>
 5    1  0.1751027E-003  0.9118800E+02  0.7818608E-02  0.1130116E+00
         25   -1    0    0    0    0  0.00000000000E+00  0.00000000000E+00  0.99999998245E-14  0.12500000000E+03  0.12500000000E+03 0.  0.
        -13    1    3    3    0    0 -0.39558748995E+02  0.11130057939E+02  0.37158812487E+02  0.55403621915E+02  0.10566000000E+00 0.  1.
         23    2    1    0    0    0 -0.18745477409E+02  0.22059752820E+02  0.44090608589E+01  0.95717489257E+02  0.91128328824E+02 0.  0.
         13    1    3    3    0    0  0.20813271586E+02  0.10929694881E+02 -0.32749751628E+02  0.40313867342E+02  0.10566000000E+00 0. -1.
         22    1    1    0    0    0  0.18745477409E+02 -0.22059752820E+02 -0.44090608589E+01  0.29282510743E+02  0.00000000000E+00 0.  1.
</event>
<event>
 5    1  0.1751027E-003  0.9118800E+02  0.7818608E-02  0.1130116E+00
         25   -1    0    0    0    0  0.00000000000E+00  0.00000000000E+00  0.99999998245E-14  0.12500000000E+03  0.12500000000E+03 0.  0.
        -13    1    3    3    0    0 -0.26589210337E+02  0.15072591236E+02  0.33993243158E+02  0.45713464727E+02  0.10566000000E+00 0.  1.
         23    2    1    0    0    0 -0.25293889388E+02 -0.92956579429E+01 -0.10191638972E+02  0.96189245031E+02  0.91773151072E+02 0.  0.
         13    1    3    3    0    0  0.12953209488E+01 -0.24368249179E+02 -0.44184882130E+02  0.50475780304E+02  0.10566000000E+00 0. -1.
         22    1    1    0    0    0  0.25293889388E+02  0.92956579429E+01  0.10191638972E+02  0.28810754969E+02  0.00000000000E+00 0. -1.
</event>
<event>
 5    1  0.1751027E-003  0.9118800E+02  0.7818608E-02  0.1130116E+00
         25   -1    0    0    0    0  0.00000000000E+00  0.00000000000E+00  0.99999998245E-14  0.12500000000E+03  0.12500000000E+03 0.  0.
        -13    1    3    3    0    0 -0.28952133979E+02  0.29683998269E+02  0.63633348723E+01  0.41950792720E+02  0.10566000000E+00 0. -1.
         23    2    1    0    0    0  0.34966352445E+01 -0.21142012902E+02 -0.41807772301E+01  0.10316676694E+03  0.10083001406E+03 0.  0.
         13    1    3    3    0    0  0.32448769223E+02 -0.50826011171E+02 -0.10544112102E+02  0.61215974220E+02  0.10566000000E+00 0.  1.
         22    1    1    0    0    0 -0.34966352445E+01  0.21142012902E+02  0.41807772301E+01  0.21833233060E+02  0.00000000000E+00 0.  1.
</event>
<event>
 5    1  0.1751027E-003  0.9118800E+02  0.7818608E-02  0.1130116E+00
         25   -1    0    0    0    0  0.00000000000E+00  0.00000000000E+00  0.99999998245E-14  0.12500000000E+03  0.12500000000E+03 0.  0.
        -13    1    3    3    0    0  0.24900118009E+02  0.21737663378E+02 -0.37942969446E+02  0.50321188185E+02  0.10566000000E+00 0.  1.
         23    2    1    0    0    0  0.12590738785E+02  0.18093554207E+02  0.10605372736E+02  0.10053824745E+03  0.97516982431E+02 0.  0.
         13    1    3    3    0    0 -0.12309379224E+02 -0.36441091706E+01  0.48548342182E+02  0.50217059264E+02  0.10566000000E+00 0. -1.
         22    1    1    0    0    0 -0.12590738785E+02 -0.18093554207E+02 -0.10605372736E+02  0.24461752551E+02  0.00000000000E+00 0.  1.
</event>
<event>
 5    1  0.1751027E-003  0.9118800E+02  0.7818608E-02  0.1130116E+00
         25   -1    0    0    0    0  0.00000000000E+00  0.00000000000E+00  0.99999998245E-14  0.12500000000E+03  0.12500000000E+03 0.  0.
        -13    1    3    3    0    0  0.11987911071E+02  0.37264212716E+02 -0.46725102847E+02  0.60955540858E+02  0.10566000000E+00 0. -1.
         23    2    1    0    0    0 -0.31112541475E+01  0.21890364681E+02 -0.21093660116E+02  0.94441687459E+02  0.89361187687E+02 0.  0.
         13    1    3    3    0    0 -0.15099165219E+02 -0.15373848035E+02  0.25631442731E+02  0.33486146601E+02  0.10566000000E+00 0.  1.
         22    1    1    0    0    0  0.31112541475E+01 -0.21890364681E+02  0.21093660116E+02  0.30558312541E+02  0.00000000000E+00 0. -1.
</event>
<event>
 5    1  0.1751027E-003  0.9118800E+02  0.7818608E-02  0.1130116E+00
         25   -1    0    0    0    0  0.00000000000E+00  0.00000000000E+00  0.99999998245E-14  0.12500000000E+03  0.12500000000E+03 0.  0.
        -13    1    3    3    0    0 -0.50706028077E+02 -0.15863172525E+02 -0.17587684469E+02  0.55964983113E+02  0.10566000000E+00 0. -1.
         23    2    1    0    0    0 -0.37641667388E+02 -0.74359868320E+01  0.79056261008E+01  0.85824906535E+02  0.76362468751E+02 0.  0.
         13    1    3    3    0    0  0.13064360688E+02  0.84271856929E+01  0.25493310570E+02  0.29859923422E+02  0.10566000000E+00 0.  1.
         22    1    1    0    0    0  0.37641667388E+02  0.74359868320E+01 -0.79056261008E+01  0.39175093465E+02  0.00000000000E+00 0.  1.
</event>
<event>
 5    1  0.1751027E-003  0.9118800E+02  0.7818608E-02  0.1130116E+00
         25   -1    0    0    0    0  0.00000000000E+00  0.00000000000E+00  0.99999998245E-14  0.12500000000E+03  0.12500000000E+03 0.  0.
        -13    1    3    3    0    0 -0.26444584195E+02  0.39582034242E+02  0.29579080148E+02  0.56044505658E+02  0.10566000000E+00 0.  1.
         23    2    1    0    0    0  0.70580711457E+00  0.30436826835E+02  0.42986390860E+01  0.94253018206E+02  0.89096882950E+02 0.  0.
         13    1    3    3    0    0  0.27150391309E+02 -0.91452074072E+01 -0.25280441062E+02  0.38208512548E+02  0.10566000000E+00 0. -1.
         22    1    1    0    0    0 -0.70580711457E+00 -0.30436826835E+02 -0.42986390860E+01  0.30746981794E+02  0.00000000000E+00 0.  1.
</event>
<event>
 5    1  0.1751027E-003  0.9118800E+02  0.7818608E-02  0.1130116E+00
         25   -1    0    0    0    0  0.00000000000E+00  0.00000000000E+00  0.99999998245E-14  0.12500000000E+03  0.12500000000E+03 0.  0.
        -13    1    3    3    0    0  0.41274048708E+02  0.30525231014E+02 -0.32803957551E+02  0.60921651490E+02  0.10566000000E+00 0.  1.
         23    2    1    0    0    0  0.18342880833E+02  0.69775470457E+01 -0.21996228439E+02  0.95521507747E+02  0.90859104864E+02 0.  0.
         13    1    3    3    0    0 -0.22931167875E+02 -0.23547683968E+02  0.10807729113E+02  0.34599856257E+02  0.10566000000E+00 0. -1.
         22    1    1    0    0    0 -0.18342880833E+02 -0.69775470457E+01  0.21996228439E+02  0.29478492253E+02  0.00000000000E+00 0.  1.
</event>
<event>
 5    1  0.1751027E-003  0.9118800E+02  0.7818608E-02  0.1130116E+00
         25   -1    0    0    0    0  0.00000000000E+00  0.00000000000E+00  0.99999998245E-14  0.12500000000E+03  0.12500000000E+03 0.  0.
        -13    1    3    3    0    0 -0.22539841940E+02  0.20558674531E+02 -0.53510276417E+02  0.61595977299E+02  0.10566000000E+00 0.  1.
         23    2    1    0    0    0 -0.63189448082E+01  0.10033727058E+02 -0.33681202739E+02  0.89292463539E+02  0.81842017844E+02 0.  0.
         13    1    3    3    0    0  0.16220897132E+02 -0.10524947473E+02  0.19829073678E+02  0.27696486240E+02  0.10566000000E+00 0. -1.
         22    1    1    0    0    0  0.63189448082E+01 -0.10033727058E+02  0.33681202739E+02  0.35707536461E+02  0.00000000000E+00 0.  1.
</event>
<event>
 5    1  0.1751027E-003  0.9118800E+02  0.7818608E-02  0.1130116E+00
         25   -1    0    0    0    0  0.00000000000E+00  0.00000000000E+00  0.99999998245E-14  0.12500000000E+03  0.12500000000E+03 0.  0.
        -13    1    3    3    0    0 -0.38035620696E+02 -0.13079916053E+02 -0.18753636814E+02  0.44379079570E+02  0.10566000000E+00 0.  1.
         23    2    1    0    0    0 -0.89785858449E+01  0.27237783639E+02 -0.57471266879E+01  0.95750361942E+02  0.91173408873E+02 0.  0.
         13    1    3    3    0    0  0.29057034852E+02  0.40317699692E+02  0.13006510126E+02  0.51371282372E+02  0.10566000000E+00 0. -1.
         22    1    1    0    0    0  0.89785858449E+01 -0.27237783639E+02  0.57471266879E+01  0.29249638058E+02  0.00000000000E+00 0. -1.
</event>
<event>
 5    1  0.1751027E-003  0.9118800E+02  0.7818608E-02  0.1130116E+00
         25   -1    0    0    0    0  0.00000000000E+00  0.00000000000E+00  0.99999998245E-14  0.12500000000E+03  0.12500000000E+03 0.  0.
        -13    1    3    3    0    0 -0.58606324103E+01  0.24373364989E+02  0.54526549528E+02  0.60013029424E+02  0.10566000000E+00 0. -1.
         23    2    1    0    0    0 -0.49910155214E+01  0.21250161233E+02  0.17933644691E+02  0.96749421240E+02  0.92532995791E+02 0.  0.
         13    1    3    3    0    0  0.86961688887E+00 -0.31232037561E+01 -0.36592904837E+02  0.36736391817E+02  0.10566000000E+00 0.  1.
         22    1    1    0    0    0  0.49910155214E+01 -0.21250161233E+02 -0.17933644691E+02  0.28250578760E+02  0.00000000000E+00 0. -1.
</event>
<event>
 5    1  0.1751027E-003  0.9118800E+02  0.7818608E-02  0.1130116E+00
         25   -1    0    0    0    0  0.00000000000E+00  0.00000000000E+00  0.99999998245E-14  0.12500000000E+03  0.12500000000E+03 0.  0.
        -13    1    3    3    0    0 -0.30200140451E+02 -0.26004090954E+02 -0.37310912458E+02  0.54592825371E+02  0.10566000000E+00 0.  1.
         23    2    1    0    0    0 -0.56954676052E+01  0.58799954271E+01 -0.27943020142E+02  0.95882564122E+02  0.91354480079E+02 0.  0.
         13    1    3    3    0    0  0.24504672846E+02  0.31884086381E+02  0.93678923158E+01  0.41289738751E+02  0.10566000000E+00 0. -1.
         22    1    1    0    0    0  0.56954676052E+01 -0.58799954271E+01  0.27943020142E+02  0.29117435878E+02  0.00000000000E+00 0.  1.
</event>
<event>
 5    1  0.1751027E-003  0.9118800E+02  0.7818608E-02  0.1130116E+00
         25   -1    0    0    0    0  0.00000000000E+00  0.00000000000E+00  0.99999998245E-14  0.12500000000E+03  0.12500000000E+03 0.  0.
        -13    1    3    3    0    0 -0.54002604067E+02 -0.27663563813E+01 -0.17488670215E+02  0.56831318158E+02  0.10566000000E+00 0.  1.
         23    2    1    0    0    0 -0.41513790852E+02 -0.63912401836E+01 -0.28803945735E+02  0.74069556531E+02  0.53780936518E+02 0.  0.
         13    1    3    3    0    0  0.12488813214E+02 -0.36248838023E+01 -0.11315275521E+02  0.17238238374E+02  0.10566000000E+00 0. -1.
         22    1    1    0    0    0  0.41513790852E+02  0.63912401836E+01  0.28803945735E+02  0.50930443469E+02  0.00000000000E+00 0.  1.
</event>
<event>
 5    1  0.1751027E-003  0.9118800E+02  0.7818608E-02  0.1130116E+00
         25   -1    0    0    0    0  0.00000000000E+00  0.00000000000E+00  0.99999998245E-14  0.12500000000E+03  0.12500000000E+03 0.  0.
        -13    1    3    3    0    0 -0.20563107017E+02 -0.32817111181E+02  0.11962832702E+02  0.40533007374E+02  0.10566000000E+00 0. -1.
         23    2    1    0    0    0  0.76547654389E+01 -0.83377594584E+00 -0.26154555241E+02  0.97735529051E+02  0.93855645876E+02 0.  0.
         13    1    3    3    0    0  0.28217872456E+02  0.31983335235E+02 -0.38117387943E+02  0.57202521678E+02  0.10566000000E+00 0.  1.
         22    1    1    0    0    0 -0.76547654389E+01  0.83377594584E+00  0.26154555241E+02  0.27264470949E+02  0.00000000000E+00 0.  1.
</event>
<event>
 5    1  0.1751027E-003  0.9118800E+02  0.7818608E-02  0.1130116E+00
         25   -1    0    0    0    0  0.00000000000E+00  0.00000000000E+00  0.99999998245E-14  0.12500000000E+03  0.12500000000E+03 0.  0.
        -13    1    3    3    0    0  0.43675456693E+02 -0.48622570542E+01  0.14156812994E+02  0.46169400897E+02  0.10566000000E+00 0.  1.
         23    2    1    0    0    0 -0.90223722946E+01  0.17951347521E+02  0.46907949707E+01  0.10436852799E+03  0.10230900253E+03 0.  0.
         13    1    3    3    0    0 -0.52697828987E+02  0.22813604575E+02 -0.94660180232E+01  0.58199127098E+02  0.10566000000E+00 0. -1.
         22    1    1    0    0    0  0.90223722946E+01 -0.17951347521E+02 -0.46907949707E+01  0.20631472005E+02  0.00000000000E+00 0. -1.
</event>
<event>
 5    1  0.1751027E-003  0.9118800E+02  0.7818608E-02  0.1130116E+00
         25   -1    0    0    0    0  0.00000000000E+00  0.00000000000E+00  0.99999998245E-14  0.12500000000E+03  0.12500000000E+03 0.  0.
        -13    1    3    3    0    0 -0.51820440432E+02  0.14063614912E+02  0.78304029540E+01  0.54262967901E+02  0.10566000000E+00 0. -1.
         23    2    1    0    0    0 -0.18488353927E+02  0.14388115377E+02 -0.17190258749E+02  0.95942434877E+02  0.91436364316E+02 0.  0.
         13    1    3    3    0    0  0.33332086505E+02  0.32450046478E+00 -0.25020661703E+02  0.41679466976E+02  0.10566000000E+00 0.  1.
         22    1    1    0    0    0  0.18488353927E+02 -0.14388115377E+02  0.17190258749E+02  0.29057565123E+02  0.00000000000E+00 0. -1.
</event>
<event>
 5    1  0.1751027E-003  0.9118800E+02  0.7818608E-02  0.1130116E+00
         25   -1    0    0    0    0  0.00000000000E+00  0.00000000000E+00  0.99999998245E-14  0.12500000000E+03  0.12500000000E+03 0.  0.
        -13    1    3    3    0    0 -0.44139127655E+02 -0.23538875618E+02 -0.32706049885E+02  0.59766530087E+02  0.10566000000E+00 0.  1.
         23    2    1    0    0    0 -0.25425420234E+02  0.11075266416E+01 -0.13443240909E+02  0.96218072763E+02  0.91812407608E+02 0.  0.
         13    1    3    3    0    0  0.18713707421E+02  0.24646402260E+02  0.19262808975E+02  0.36451542676E+02  0.10566000000E+00 0. -1.
         22    1    1    0    0    0  0.25425420234E+02 -0.11075266416E+01  0.13443240909E+02  0.28781927237E+02  0.00000000000E+00 0.  1.
</event>
<event>
 5    1  0.1751027E-003  0.9118800E+02  0.7818608E-02  0.1130116E+00
         25   -1    0    0    0    0  0.00000000000E+00  0.00000000000E+00  0.99999998245E-14  0.12500000000E+03  0.12500000000E+03 0.  0.
        -13    1    3    3    0    0 -0.21277593713E+02 -0.20184569977E+02  0.16546937316E+02  0.33674399148E+02  0.10566000000E+00 0. -1.
         23    2    1    0    0    0  0.28594396598E+02  0.97483837587E+01  0.13474414870E+02  0.91920847067E+02  0.85762531252E+02 0.  0.
         13    1    3    3    0    0  0.49871990311E+02  0.29932953736E+02 -0.30725224463E+01  0.58246447919E+02  0.10566000000E+00 0.  1.
         22    1    1    0    0    0 -0.28594396598E+02 -0.97483837587E+01 -0.13474414870E+02  0.33079152933E+02  0.00000000000E+00 0.  1.
</event>
<event>
 5    1  0.1751027E-003  0.9118800E+02  0.7818608E-02  0.1130116E+00
         25   -1    0    0    0    0  0.00000000000E+00  0.00000000000E+00  0.99999998245E-14  0.12500000000E+03  0.12500000000E+03 0.  0.
        -13    1    3    3    0    0 -0.17856214669E+02 -0.41344296799E+02 -0.34319539603E+02  0.56621879540E+02  0.10566000000E+00 0.  1.
         23    2    1    0    0    0 -0.23243267320E+02 -0.68731809747E+01 -0.14796364651E+02  0.96602420890E+02  0.92334203969E+02 0.  0.
         13    1    3    3    0    0 -0.53870526508E+01  0.34471115824E+02  0.19523174952E+02  0.39980541350E+02  0.10566000000E+00 0. -1.
         22    1    1    0    0    0  0.23243267320E+02  0.68731809747E+01  0.14796364651E+02  0.28397579110E+02  0.00000000000E+00 0.  1.
</event>
<event>
 5    1  0.1751027E-003  0.9118800E+02  0.7818608E-02  0.1130116E+00
         25   -1    0    0    0    0  0.00000000000E+00  0.00000000000E+00  0.99999998245E-14  0.12500000000E+03  0.12500000000E+03 0.  0.
        -13    1    3    3    0    0  0.28161168569E+02  0.30756099825E+02 -0.12779805129E+02  0.43615635669E+02  0.10566000000E+00 0. -1.
         23    2    1    0    0    0  0.11035571321E+02  0.71312225623E+01  0.28180708146E+02  0.93906745406E+02  0.88609741854E+02 0.  0.
         13    1    3    3    0    0 -0.17125597248E+02 -0.23624877263E+02  0.40960513275E+02  0.50291109737E+02  0.10566000000E+00 0.  1.
         22    1    1    0    0    0 -0.11035571321E+02 -0.71312225623E+01 -0.28180708146E+02  0.31093254594E+02  0.00000000000E+00 0. -1.
</event>
<event>
 5    1  0.1751027E-003  0.9118800E+02  0.7818608E-02  0.1130116E+00
         25   -1    0    0    0    0  0.00000000000E+00  0.00000000000E+00  0.99999998245E-14  0.12500000000E+03  0.12500000000E+03 0.  0.
        -13    1    3    3    0    0 -0.30185343378E+02 -0.29668940593E+02 -0.18712189125E+02  0.46276972423E+02  0.10566000000E+00 0.  1.
         23    2    1    0    0    0 -0.51323476266E+01  0.13710733107E+02 -0.24246795086E+02  0.96676294973E+02  0.92434158964E+02 0.  0.
         13    1    3    3    0    0  0.25052995751E+02  0.43379673700E+02 -0.55346059612E+01  0.50399322551E+02  0.10566000000E+00 0. -1.
         22    1    1    0    0    0  0.51323476266E+01 -0.13710733107E+02  0.24246795086E+02  0.28323705027E+02  0.00000000000E+00 0. -1.
</event>
<event>
 5    1  0.1751027E-003  0.9118800E+02  0.7818608E-02  0.1130116E+00
         25   -1    0    0    0    0  0.00000000000E+00  0.00000000000E+00  0.99999998245E-14  0.12500000000E+03  0.12500000000E+03 0.  0.
        -13    1    3    3    0    0  0.53007018206E+02  0.24095721405E+01  0.24694397466E+02  0.58526698585E+02  0.10566000000E+00 0. -1.
         23    2    1    0    0    0  0.16586892520E+02 -0.47160317138E+01  0.23750500680E+02  0.95649493341E+02  0.91035011590E+02 0.  0.
         13    1    3    3    0    0 -0.36420125686E+02 -0.71256038543E+01 -0.94389678613E+00  0.37122794756E+02  0.10566000000E+00 0.  1.
         22    1    1    0    0    0 -0.16586892520E+02  0.47160317138E+01 -0.23750500680E+02  0.29350506659E+02  0.00000000000E+00 0. -1.
</event>
<event>
 5    1  0.1751027E-003  0.9118800E+02  0.7818608E-02  0.1130116E+00
         25   -1    0    0    0    0  0.00000000000E+00  0.00000000000E+00  0.99999998245E-14  0.12500000000E+03  0.12500000000E+03 0.  0.
        -13    1    3    3    0    0  0.45538291131E+02 -0.14108961614E+02  0.14131413395E+02  0.49724307593E+02  0.10566000000E+00 0. -1.
         23    2    1    0    0    0  0.12460171620E+02  0.18644262082E+02  0.17729019898E+02  0.96413595330E+02  0.92078221272E+02 0.  0.
         13    1    3    3    0    0 -0.33078119511E+02  0.32753223696E+02  0.35976065030E+01  0.46689287738E+02  0.10566000000E+00 0.  1.
         22    1    1    0    0    0 -0.12460171620E+02 -0.18644262082E+02 -0.17729019898E+02  0.28586404670E+02  0.00000000000E+00 0. -1.
</event>
<event>
 5    1  0.1751027E-003  0.9118800E+02  0.7818608E-02  0.1130116E+00
         25   -1    0    0    0    0  0.00000000000E+00  0.00000000000E+00  0.99999998245E-14  0.12500000000E+03  0.12500000000E+03 0.  0.
        -13    1    3    3    0    0 -0.37742486831E+02  0.17647819597E+02  0.22147750992E+02  0.47185536839E+02  0.10566000000E+00 0. -1.
         23    2    1    0    0    0 -0.20513162444E+02 -0.20734109325E+02 -0.21231084421E+01  0.95756185057E+02  0.91181392095E+02 0.  0.
         13    1    3    3    0    0  0.17229324387E+02 -0.38381928922E+02 -0.24270859434E+02  0.48570648218E+02  0.10566000000E+00 0.  1.
         22    1    1    0    0    0  0.20513162444E+02  0.20734109325E+02  0.21231084421E+01  0.29243814943E+02  0.00000000000E+00 0. -1.
</event>
<event>
 5    1  0.1751027E-003  0.9118800E+02  0.7818608E-02  0.1130116E+00
         25   -1    0    0    0    0  0.00000000000E+00  0.00000000000E+00  0.99999998245E-14  0.12500000000E+03  0.12500000000E+03 0.  0.
        -13    1    3    3    0    0 -0.51546346017E+02  0.29185311332E+02 -0.19229668550E+02  0.62278403174E+02  0.10566000000E+00 0.  1.
         23    2    1    0    0    0 -0.28570327977E+02  0.18902792526E+02 -0.81195193306E+01  0.89793384142E+02  0.82603547355E+02 0.  0.
         13    1    3    3    0    0  0.22976018040E+02 -0.10282518806E+02  0.11110149219E+02  0.27514980969E+02  0.10566000000E+00 0. -1.
         22    1    1    0    0    0  0.28570327977E+02 -0.18902792526E+02  0.81195193306E+01  0.35206615858E+02  0.00000000000E+00 0.  1.
</event>
<event>
 5    1  0.1751027E-003  0.9118800E+02  0.7818608E-02  0.1130116E+00
         25   -1    0    0    0    0  0.00000000000E+00  0.00000000000E+00  0.99999998245E-14  0.12500000000E+03  0.12500000000E+03 0.  0.
        -13    1    3    3    0    0 -0.14918176022E+02  0.29177500220E+02  0.27218468088E+02  0.42599702629E+02  0.10566000000E+00 0. -1.
         23    2    1    0    0    0  0.27288018948E+02  0.12274258812E+02  0.10456044483E+01  0.95060282297E+02  0.90222339663E+02 0.  0.
         13    1    3    3    0    0  0.42206194970E+02 -0.16903241409E+02 -0.26172863640E+02  0.52460579668E+02  0.10566000000E+00 0.  1.
         22    1    1    0    0    0 -0.27288018948E+02 -0.12274258812E+02 -0.10456044483E+01  0.29939717703E+02  0.00000000000E+00 0.  1.
</event>
<event>
 5    1  0.1751027E-003  0.9118800E+02  0.7818608E-02  0.1130116E+00
         25   -1    0    0    0    0  0.00000000000E+00  0.00000000000E+00  0.99999998245E-14  0.12500000000E+03  0.12500000000E+03 0.  0.
        -13    1    3    3    0    0  0.26526498692E+02  0.16041558052E+02 -0.70094237695E+01  0.31782540855E+02  0.10566000000E+00 0. -1.
         23    2    1    0    0    0 -0.75472471041E+00 -0.34155990466E+02  0.58358796289E+01  0.90340819612E+02  0.83427842493E+02 0.  0.
         13    1    3    3    0    0 -0.27281223402E+02 -0.50197548518E+02  0.12845303398E+02  0.58558278757E+02  0.10566000000E+00 0.  1.
         22    1    1    0    0    0  0.75472471041E+00  0.34155990466E+02 -0.58358796289E+01  0.34659180388E+02  0.00000000000E+00 0. -1.
</event>
<event>
 5    1  0.1751027E-003  0.9118800E+02  0.7818608E-02  0.1130116E+00
         25   -1    0    0    0    0  0.00000000000E+00  0.00000000000E+00  0.99999998245E-14  0.12500000000E+03  0.12500000000E+03 0.  0.
        -13    1    3    3    0    0 -0.50722519386E+01 -0.61210774362E+02 -0.10486976136E+02  0.62309505457E+02  0.10566000000E+00 0. -1.
         23    2    1    0    0    0  0.12359738941E+00 -0.29722848331E+02 -0.27355608784E+01  0.95151276702E+02  0.90348321376E+02 0.  0.
         13    1    3    3    0    0  0.51958493280E+01  0.31487926031E+02  0.77514152578E+01  0.32841771245E+02  0.10566000000E+00 0.  1.
         22    1    1    0    0    0 -0.12359738941E+00  0.29722848331E+02  0.27355608784E+01  0.29848723298E+02  0.00000000000E+00 0. -1.
</event>
<event>
 5    1  0.1751027E-003  0.9118800E+02  0.7818608E-02  0.1130116E+00
         25   -1    0    0    0    0  0.00000000000E+00  0.00000000000E+00  0.99999998245E-14  0.12500000000E+03  0.12500000000E+03 0.  0.
        -13    1    3    3    0    0 -0.49783015009E+01 -0.42101989307E+02 -0.39019337603E+02  0.57618407306E+02  0.10566000000E+00 0.  1.
         23    2    1    0    0    0 -0.57566103341E+01 -0.28487846077E+02 -0.34254217280E+01  0.95735184083E+02  0.91152597444E+02 0.  0.
         13    1    3    3    0    0 -0.77830883321E+00  0.13614143230E+02  0.35593915875E+02  0.38116776777E+02  0.10566000000E+00 0. -1.
         22    1    1    0    0    0  0.57566103341E+01  0.28487846077E+02  0.34254217280E+01  0.29264815917E+02  0.00000000000E+00 0.  1.
</event>
<event>
 5    1  0.1751027E-003  0.9118800E+02  0.7818608E-02  0.1130116E+00
         25   -1    0    0    0    0  0.00000000000E+00  0.00000000000E+00  0.99999998245E-14  0.12500000000E+03  0.12500000000E+03 0.  0.
        -13    1    3    3    0    0 -0.39176826881E+02  0.16139661963E+02 -0.43090990684E+02  0.60433079476E+02  0.10566000000E+00 0. -1.
         23    2    1    0    0    0 -0.12934181526E+02  0.17462615834E+02 -0.21326031603E+02  0.94552740231E+02  0.89516395468E+02 0.  0.
         13    1    3    3    0    0  0.26242645355E+02  0.13229538716E+01  0.21764959081E+02  0.34119660755E+02  0.10566000000E+00 0.  1.
         22    1    1    0    0    0  0.12934181526E+02 -0.17462615834E+02  0.21326031603E+02  0.30447259769E+02  0.00000000000E+00 0. -1.
</event>
<event>
 5    1  0.1751027E-003  0.9118800E+02  0.7818608E-02  0.1130116E+00
         25   -1    0    0    0    0  0.00000000000E+00  0.00000000000E+00  0.99999998245E-14  0.12500000000E+03  0.12500000000E+03 0.  0.
        -13    1    3    3    0    0 -0.29324573918E+02  0.53224548885E+02 -0.75995962310E+00  0.60773118581E+02  0.10566000000E+00 0.  1.
         23    2    1    0    0    0 -0.15422271885E+02  0.26398598458E+02  0.99788954598E+01  0.92839296879E+02  0.87090896308E+02 0.  0.
         13    1    3    3    0    0  0.13902302033E+02 -0.26825950426E+02  0.10738855083E+02  0.32066178298E+02  0.10566000000E+00 0. -1.
         22    1    1    0    0    0  0.15422271885E+02 -0.26398598458E+02 -0.99788954598E+01  0.32160703121E+02  0.00000000000E+00 0.  1.
</event>
<event>
 5    1  0.1751027E-003  0.9118800E+02  0.7818608E-02  0.1130116E+00
         25   -1    0    0    0    0  0.00000000000E+00  0.00000000000E+00  0.99999998245E-14  0.12500000000E+03  0.12500000000E+03 0.  0.
        -13    1    3    3    0    0 -0.18515735897E+02 -0.27790494099E+02 -0.85719248304E+00  0.33404939471E+02  0.10566000000E+00 0. -1.
         23    2    1    0    0    0  0.89938847935E+01  0.26684370531E+02 -0.10009821750E+02  0.95114516471E+02  0.90297448013E+02 0.  0.
         13    1    3    3    0    0  0.27509620691E+02  0.54474864630E+02 -0.91526292669E+01  0.61709577000E+02  0.10566000000E+00 0.  1.
         22    1    1    0    0    0 -0.89938847935E+01 -0.26684370531E+02  0.10009821750E+02  0.29885483529E+02  0.00000000000E+00 0. -1.
</event>
<event>
 5    1  0.1751027E-003  0.9118800E+02  0.7818608E-02  0.1130116E+00
         25   -1    0    0    0    0  0.00000000000E+00  0.00000000000E+00  0.99999998245E-14  0.12500000000E+03  0.12500000000E+03 0.  0.
        -13    1    3    3    0    0  0.23812243715E+02 -0.22055192795E+02  0.22428787905E+02  0.39452708030E+02  0.10566000000E+00 0. -1.
         23    2    1    0    0    0 -0.27821203984E+02 -0.76087006750E+01  0.98141715209E+01  0.94533138007E+02  0.89489018889E+02 0.  0.
         13    1    3    3    0    0 -0.51633447699E+02  0.14446492120E+02 -0.12614616384E+02  0.55080429977E+02  0.10566000000E+00 0.  1.
         22    1    1    0    0    0  0.27821203984E+02  0.76087006750E+01 -0.98141715209E+01  0.30466861993E+02  0.00000000000E+00 0.  1.
</event>
<event>
 5    1  0.1751027E-003  0.9118800E+02  0.7818608E-02  0.1130116E+00
         25   -1    0    0    0    0  0.00000000000E+00  0.00000000000E+00  0.99999998245E-14  0.12500000000E+03  0.12500000000E+03 0.  0.
        -13    1    3    3    0    0 -0.18259650660E+02  0.32378690742E+02  0.36678801668E+02  0.52222027079E+02  0.10566000000E+00 0. -1.
         23    2    1    0    0    0 -0.13021029813E+02  0.26135708411E+02 -0.55905024355E+01  0.95269944686E+02  0.90512353695E+02 0.  0.
         13    1    3    3    0    0  0.52386208465E+01 -0.62429823319E+01 -0.42269304104E+02  0.43047917606E+02  0.10566000000E+00 0.  1.
         22    1    1    0    0    0  0.13021029813E+02 -0.26135708411E+02  0.55905024355E+01  0.29730055314E+02  0.00000000000E+00 0. -1.
</event>
<event>
 5    1  0.1751027E-003  0.9118800E+02  0.7818608E-02  0.1130116E+00
         25   -1    0    0    0    0  0.00000000000E+00  0.00000000000E+00  0.99999998245E-14  0.12500000000E+03  0.12500000000E+03 0.  0.
        -13    1    3    3    0    0 -0.17952663139E+01 -0.26856914083E+01 -0.39017009624E+02  0.39150659299E+02  0.10566000000E+00 0.  1.
         23    2    1    0    0    0  0.17596680863E+02 -0.94654753685E+01  0.16968418663E+02  0.98786155695E+02  0.95244626744E+02 0.  0.
         13    1    3    3    0    0  0.19391947177E+02 -0.67797839602E+01  0.55985428287E+02  0.59635496396E+02  0.10566000000E+00 0. -1.
         22    1    1    0    0    0 -0.17596680863E+02  0.94654753685E+01 -0.16968418663E+02  0.26213844305E+02  0.00000000000E+00 0. -1.
</event>
<event>
 5    1  0.1751027E-003  0.9118800E+02  0.7818608E-02  0.1130116E+00
         25   -1    0    0    0    0  0.00000000000E+00  0.00000000000E+00  0.99999998245E-14  0.12500000000E+03  0.12500000000E+03 0.  0.
        -13    1    3    3    0    0  0.23138159463E+02 -0.21051783424E+02  0.54035429356E+02  0.62437094731E+02  0.10566000000E+00 0. -1.
         23    2    1    0    0    0  0.99134649187E+01 -0.97762204526E+01  0.27826069266E+02  0.93885029265E+02  0.88579102030E+02 0.  0.
         13    1    3    3    0    0 -0.13224694544E+02  0.11275562971E+02 -0.26209360091E+02  0.31447934535E+02  0.10566000000E+00 0.  1.
         22    1    1    0    0    0 -0.99134649187E+01  0.97762204526E+01 -0.27826069266E+02  0.31114970735E+02  0.00000000000E+00 0. -1.
</event>
<event>
 5    1  0.1751027E-003  0.9118800E+02  0.7818608E-02  0.1130116E+00
         25   -1    0    0    0    0  0.00000000000E+00  0.00000000000E+00  0.99999998245E-14  0.12500000000E+03  0.12500000000E+03 0.  0.
        -13    1    3    3    0    0 -0.48189362996E+02  0.75237041870E+01 -0.95397416984E+01  0.49697471428E+02  0.10566000000E+00 0.  1.
         23    2    1    0    0    0 -0.24502122260E+02  0.26858919628E+01 -0.33283195758E+02  0.83583347181E+02  0.72600528891E+02 0.  0.
         13    1    3    3    0    0  0.23687240736E+02 -0.48378122242E+01 -0.23743454059E+02  0.33885875753E+02  0.10566000000E+00 0. -1.
         22    1    1    0    0    0  0.24502122260E+02 -0.26858919628E+01  0.33283195758E+02  0.41416652819E+02  0.00000000000E+00 0. -1.
</event>
<event>
 5    1  0.1751027E-003  0.9118800E+02  0.7818608E-02  0.1130116E+00
         25   -1    0    0    0    0  0.00000000000E+00  0.00000000000E+00  0.99999998245E-14  0.12500000000E+03  0.12500000000E+03 0.  0.
        -13    1    3    3    0    0  0.69604641420E+01 -0.15457088623E+02  0.54885235679E+02  0.57443623748E+02  0.10566000000E+00 0. -1.
         23    2    1    0    0    0 -0.12058693609E+02  0.19079027750E+01  0.26803514467E+02  0.95546976856E+02  0.90894137402E+02 0.  0.
         13    1    3    3    0    0 -0.19019157751E+02  0.17364991398E+02 -0.28081721212E+02  0.38103353108E+02  0.10566000000E+00 0.  1.
         22    1    1    0    0    0  0.12058693609E+02 -0.19079027750E+01 -0.26803514467E+02  0.29453023144E+02  0.00000000000E+00 0. -1.
</event>
<event>
 5    1  0.1751027E-003  0.9118800E+02  0.7818608E-02  0.1130116E+00
         25   -1    0    0    0    0  0.00000000000E+00  0.00000000000E+00  0.99999998245E-14  0.12500000000E+03  0.12500000000E+03 0.  0.
        -13    1    3    3    0    0  0.21832579446E+02  0.77546843709E+01 -0.56698390419E+02  0.61249614653E+02  0.10566000000E+00 0.  1.
         23    2    1    0    0    0  0.31072260229E+01  0.86983355433E+01 -0.27874116407E+02  0.95635356971E+02  0.91015598898E+02 0.  0.
         13    1    3    3    0    0 -0.18725353424E+02  0.94365117240E+00  0.28824274013E+02  0.34385742318E+02  0.10566000000E+00 0. -1.
         22    1    1    0    0    0 -0.31072260229E+01 -0.86983355433E+01  0.27874116407E+02  0.29364643029E+02  0.00000000000E+00 0.  1.
</event>
<event>
 5    1  0.1751027E-003  0.9118800E+02  0.7818608E-02  0.1130116E+00
         25   -1    0    0    0    0  0.00000000000E+00  0.00000000000E+00  0.99999998245E-14  0.12500000000E+03  0.12500000000E+03 0.  0.
        -13    1    3    3    0    0 -0.24638079787E+02 -0.20855364968E+02 -0.37476479544E+01  0.32496726801E+02  0.10566000000E+00 0.  1.
         23    2    1    0    0    0  0.21573567181E+02  0.20651266257E+02  0.30359975754E+01  0.94981491039E+02  0.90113110921E+02 0.  0.
         13    1    3    3    0    0  0.46211646968E+02  0.41506631226E+02  0.67836455299E+01  0.62484764238E+02  0.10566000000E+00 0. -1.
         22    1    1    0    0    0 -0.21573567181E+02 -0.20651266257E+02 -0.30359975754E+01  0.30018508961E+02  0.00000000000E+00 0. -1.
</event>
<event>
 5    1  0.1751027E-003  0.9118800E+02  0.7818608E-02  0.1130116E+00
         25   -1    0    0    0    0  0.00000000000E+00  0.00000000000E+00  0.99999998245E-14  0.12500000000E+03  0.12500000000E+03 0.  0.
        -13    1    3    3    0    0  0.19417889467E+02 -0.69019507168E+00 -0.28197851517E+02  0.34244135189E+02  0.10566000000E+00 0.  1.
         23    2    1    0    0    0 -0.74452734191E+01 -0.89793509632E+01  0.26667622030E+02  0.95892906281E+02  0.91368630122E+02 0.  0.
         13    1    3    3    0    0 -0.26863162887E+02 -0.82891558916E+01  0.54865473547E+02  0.61648771093E+02  0.10566000000E+00 0. -1.
         22    1    1    0    0    0  0.74452734191E+01  0.89793509632E+01 -0.26667622030E+02  0.29107093719E+02  0.00000000000E+00 0. -1.
</event>
<event>
 5    1  0.1751027E-003  0.9118800E+02  0.7818608E-02  0.1130116E+00
         25   -1    0    0    0    0  0.00000000000E+00  0.00000000000E+00  0.99999998245E-14  0.12500000000E+03  0.12500000000E+03 0.  0.
        -13    1    3    3    0    0  0.37772282993E+01  0.45463950581E+00  0.51237960417E+02  0.51379119323E+02  0.10566000000E+00 0.  1.
         23    2    1    0    0    0  0.24014474541E+02  0.11826423140E+02  0.15285557562E+02  0.94174563397E+02  0.88986745358E+02 0.  0.
         13    1    3    3    0    0  0.20237246242E+02  0.11371783635E+02 -0.35952402855E+02  0.42795444075E+02  0.10566000000E+00 0. -1.
         22    1    1    0    0    0 -0.24014474541E+02 -0.11826423140E+02 -0.15285557562E+02  0.30825436603E+02  0.00000000000E+00 0. -1.
</event>
<event>
 5    1  0.1751027E-003  0.9118800E+02  0.7818608E-02  0.1130116E+00
         25   -1    0    0    0    0  0.00000000000E+00  0.00000000000E+00  0.99999998245E-14  0.12500000000E+03  0.12500000000E+03 0.  0.
        -13    1    3    3    0    0 -0.21921412225E+02  0.17656195038E+02 -0.28451866428E+02  0.40022611164E+02  0.10566000000E+00 0. -1.
         23    2    1    0    0    0  0.11191647702E+02  0.18296704534E+02  0.17950052675E+02  0.97031682816E+02  0.92913511956E+02 0.  0.
         13    1    3    3    0    0  0.33113059926E+02  0.64050949689E+00  0.46401919103E+02  0.57009071651E+02  0.10566000000E+00 0.  1.
         22    1    1    0    0    0 -0.11191647702E+02 -0.18296704534E+02 -0.17950052675E+02  0.27968317184E+02  0.00000000000E+00 0. -1.
</event>
<event>
 5    1  0.1751027E-003  0.9118800E+02  0.7818608E-02  0.1130116E+00
         25   -1    0    0    0    0  0.00000000000E+00  0.00000000000E+00  0.99999998245E-14  0.12500000000E+03  0.12500000000E+03 0.  0.
        -13    1    3    3    0    0 -0.47520617969E+02  0.23385155970E+02 -0.51428785578E+01  0.53212169809E+02  0.10566000000E+00 0. -1.
         23    2    1    0    0    0 -0.65539008585E+01  0.28389534899E+02  0.42949892803E+01  0.95548917827E+02  0.90896806636E+02 0.  0.
         13    1    3    3    0    0  0.40966717111E+02  0.50043789298E+01  0.94378678381E+01  0.42336748017E+02  0.10566000000E+00 0.  1.
         22    1    1    0    0    0  0.65539008585E+01 -0.28389534899E+02 -0.42949892803E+01  0.29451082173E+02  0.00000000000E+00 0. -1.
</event>
<event>
 5    1  0.1751027E-003  0.9118800E+02  0.7818608E-02  0.1130116E+00
         25   -1    0    0    0    0  0.00000000000E+00  0.00000000000E+00  0.99999998245E-14  0.12500000000E+03  0.12500000000E+03 0.  0.
        -13    1    3    3    0    0 -0.37401890064E+01 -0.94258844488E+01  0.58303504231E+02  0.59178932747E+02  0.10566000000E+00 0.  1.
         23    2    1    0    0    0  0.35172655659E+01 -0.17344751287E+02  0.23636143023E+02  0.95472405935E+02  0.90791527599E+02 0.  0.
         13    1    3    3    0    0  0.72574545723E+01 -0.79188668383E+01 -0.34667361208E+02  0.36293473188E+02  0.10566000000E+00 0. -1.
         22    1    1    0    0    0 -0.35172655659E+01  0.17344751287E+02 -0.23636143023E+02  0.29527594065E+02  0.00000000000E+00 0.  1.
</event>
<event>
 5    1  0.1751027E-003  0.9118800E+02  0.7818608E-02  0.1130116E+00
         25   -1    0    0    0    0  0.00000000000E+00  0.00000000000E+00  0.99999998245E-14  0.12500000000E+03  0.12500000000E+03 0.  0.
        -13    1    3    3    0    0 -0.26797061886E+02 -0.26717129980E+02  0.13821291240E+02  0.40285565848E+02  0.10566000000E+00 0. -1.
         23    2    1    0    0    0 -0.13664363570E+02  0.10231758782E+02 -0.24516353175E+02  0.95126009766E+02  0.90313356938E+02 0.  0.
         13    1    3    3    0    0  0.13132698316E+02  0.36948888761E+02 -0.38337644415E+02  0.54840443918E+02  0.10566000000E+00 0.  1.
         22    1    1    0    0    0  0.13664363570E+02 -0.10231758782E+02  0.24516353175E+02  0.29873990234E+02  0.00000000000E+00 0.  1.
</event>
<event>
 5    1  0.1751027E-003  0.9118800E+02  0.7818608E-02  0.1130116E+00
         25   -1    0    0    0    0  0.00000000000E+00  0.00000000000E+00  0.99999998245E-14  0.12500000000E+03  0.12500000000E+03 0.  0.
        -13    1    3    3    0    0 -0.61114220158E+02 -0.60346158491E+01 -0.19169878264E+00  0.61411826274E+02  0.10566000000E+00 0. -1.
         23    2    1    0    0    0 -0.28947053577E+02  0.45179725103E+01 -0.37977914470E+01  0.95457366294E+02  0.90770818954E+02 0.  0.
         13    1    3    3    0    0  0.32167166580E+02  0.10552588359E+02 -0.36060926643E+01  0.34045540020E+02  0.10566000000E+00 0.  1.
         22    1    1    0    0    0  0.28947053577E+02 -0.45179725103E+01  0.37977914470E+01  0.29542633706E+02  0.00000000000E+00 0. -1.
</event>
<event>
 5    1  0.1751027E-003  0.9118800E+02  0.7818608E-02  0.1130116E+00
         25   -1    0    0    0    0  0.00000000000E+00  0.00000000000E+00  0.99999998245E-14  0.12500000000E+03  0.12500000000E+03 0.  0.
        -13    1    3    3    0    0  0.38666822793E+02 -0.94598325677E+01 -0.13755151101E+02  0.42116825176E+02  0.10566000000E+00 0.  1.
         23    2    1    0    0    0  0.21278719989E+01  0.15483617594E+02  0.21312810521E+02  0.98570733167E+02  0.94961483201E+02 0.  0.
         13    1    3    3    0    0 -0.36538950794E+02  0.24943450161E+02  0.35067961622E+02  0.56453907991E+02  0.10566000000E+00 0. -1.
         22    1    1    0    0    0 -0.21278719989E+01 -0.15483617594E+02 -0.21312810521E+02  0.26429266833E+02  0.00000000000E+00 0. -1.
</event>
<event>
 5    1  0.1751027E-003  0.9118800E+02  0.7818608E-02  0.1130116E+00
         25   -1    0    0    0    0  0.00000000000E+00  0.00000000000E+00  0.99999998245E-14  0.12500000000E+03  0.12500000000E+03 0.  0.
        -13    1    3    3    0    0 -0.30239310843E+02  0.14691093354E+02 -0.28430207167E+02  0.44028763187E+02  0.10566000000E+00 0.  1.
         23    2    1    0    0    0  0.15373159267E+02  0.24255615248E+02 -0.63977242746E+01  0.95578922983E+02  0.90938059941E+02 0.  0.
         13    1    3    3    0    0  0.45612470110E+02  0.95645218939E+01  0.22032482892E+02  0.51550159796E+02  0.10566000000E+00 0. -1.
         22    1    1    0    0    0 -0.15373159267E+02 -0.24255615248E+02  0.63977242746E+01  0.29421077017E+02  0.00000000000E+00 0. -1.
</event>
<event>
 5    1  0.1751027E-003  0.9118800E+02  0.7818608E-02  0.1130116E+00
         25   -1    0    0    0    0  0.00000000000E+00  0.00000000000E+00  0.99999998245E-14  0.12500000000E+03  0.12500000000E+03 0.  0.
        -13    1    3    3    0    0  0.29759992317E+02 -0.18834846858E+01 -0.29724686197E+02  0.42104308459E+02  0.10566000000E+00 0.  1.
         23    2    1    0    0    0 -0.14118602315E+02 -0.24286146126E+02 -0.97960975869E+01  0.95249111729E+02  0.90483578246E+02 0.  0.
         13    1    3    3    0    0 -0.43878594632E+02 -0.22402661440E+02  0.19928588610E+02  0.53144803269E+02  0.10566000000E+00 0. -1.
         22    1    1    0    0    0  0.14118602315E+02  0.24286146126E+02  0.97960975869E+01  0.29750888271E+02  0.00000000000E+00 0. -1.
</event>
<event>
 4    1  0.1751027E-003  0.9118800E+02  0.7818608E-02  0.1130116E+00
         25   -1    0    0    0    0  0.00000000000E+00  0.00000000000E+00  0.99999998245E-14  0.12500000000E+03  0.12500000000E+03 0.  0.
        -13    1    1    0    0    0 -0.14867682513E+02 -0.13836099107E+02  0.18504676238E+02  0.27475804420E+02  0.10566000000E+00 0.  1.
         13    1    1    0    0    0  0.15354081805E+02 -0.35602375847E+02  0.10544981371E+02  0.40180651939E+02  0.10566000000E+00 0. -1.
         22    1    1    0    0    0 -0.48639929145E+00  0.49438474955E+02 -0.29049657610E+02  0.57343543641E+02  0.00000000000E+00 0.  1.
</event>
<event>
 5    1  0.1751027E-003  0.9118800E+02  0.7818608E-02  0.1130116E+00
         25   -1    0    0    0    0  0.00000000000E+00  0.00000000000E+00  0.99999998245E-14  0.12500000000E+03  0.12500000000E+03 0.  0.
        -13    1    3    3    0    0  0.38117208180E+02  0.94094349651E+01  0.56430081473E+01  0.39665018982E+02  0.10566000000E+00 0.  1.
         23    2    1    0    0    0 -0.17019204946E+02  0.13739615516E+02  0.18392450857E+02  0.96421815663E+02  0.92089380037E+02 0.  0.
         13    1    3    3    0    0 -0.55136413126E+02  0.43301805509E+01  0.12749442709E+02  0.56756796681E+02  0.10566000000E+00 0. -1.
         22    1    1    0    0    0  0.17019204946E+02 -0.13739615516E+02 -0.18392450857E+02  0.28578184337E+02  0.00000000000E+00 0. -1.
</event>
<event>
 5    1  0.1751027E-003  0.9118800E+02  0.7818608E-02  0.1130116E+00
         25   -1    0    0    0    0  0.00000000000E+00  0.00000000000E+00  0.99999998245E-14  0.12500000000E+03  0.12500000000E+03 0.  0.
        -13    1    3    3    0    0  0.29192636329E+02 -0.18140255470E+02  0.38552444506E+02  0.51648630434E+02  0.10566000000E+00 0.  1.
         23    2    1    0    0    0 -0.10105906493E+02 -0.20341900189E+02  0.17784723518E+02  0.96151800057E+02  0.91722134811E+02 0.  0.
         13    1    3    3    0    0 -0.39298542822E+02 -0.22016447187E+01 -0.20767720987E+02  0.44503169623E+02  0.10566000000E+00 0. -1.
         22    1    1    0    0    0  0.10105906493E+02  0.20341900189E+02 -0.17784723518E+02  0.28848199943E+02  0.00000000000E+00 0.  1.
</event>
<event>
 5    1  0.1751027E-003  0.9118800E+02  0.7818608E-02  0.1130116E+00
         25   -1    0    0    0    0  0.00000000000E+00  0.00000000000E+00  0.99999998245E-14  0.12500000000E+03  0.12500000000E+03 0.  0.
        -13    1    3    3    0    0 -0.45375259532E+02  0.13376303243E+01 -0.73024480495E+01  0.45978694458E+02  0.10566000000E+00 0. -1.
         23    2    1    0    0    0  0.73300555444E+01 -0.87282706632E+01 -0.20776343389E+02  0.10130255567E+03  0.98491821580E+02 0.  0.
         13    1    3    3    0    0  0.52705315077E+02 -0.10065900988E+02 -0.13473895339E+02  0.55323861214E+02  0.10566000000E+00 0.  1.
         22    1    1    0    0    0 -0.73300555444E+01  0.87282706632E+01  0.20776343389E+02  0.23697444328E+02  0.00000000000E+00 0.  1.
</event>
<event>
 5    1  0.1751027E-003  0.9118800E+02  0.7818608E-02  0.1130116E+00
         25   -1    0    0    0    0  0.00000000000E+00  0.00000000000E+00  0.99999998245E-14  0.12500000000E+03  0.12500000000E+03 0.  0.
        -13    1    3    3    0    0  0.12519645332E+02  0.15271445640E+02 -0.36862060112E+02  0.41818431474E+02  0.10566000000E+00 0.  1.
         23    2    1    0    0    0  0.25115862024E+02  0.10624750319E+02  0.13945766006E+02  0.94370337350E+02  0.89261326102E+02 0.  0.
         13    1    3    3    0    0  0.12596216693E+02 -0.46466953207E+01  0.50807826118E+02  0.52551905876E+02  0.10566000000E+00 0. -1.
         22    1    1    0    0    0 -0.25115862024E+02 -0.10624750319E+02 -0.13945766006E+02  0.30629662650E+02  0.00000000000E+00 0. -1.
</event>
<event>
 5    1  0.1751027E-003  0.9118800E+02  0.7818608E-02  0.1130116E+00
         25   -1    0    0    0    0  0.00000000000E+00  0.00000000000E+00  0.99999998245E-14  0.12500000000E+03  0.12500000000E+03 0.  0.
        -13    1    3    3    0    0  0.13807011552E+02  0.13317727091E+02  0.25319761768E+02  0.31766285948E+02  0.10566000000E+00 0. -1.
         23    2    1    0    0    0 -0.14880431066E+02 -0.13532936279E+02 -0.23261127808E+02  0.94248615317E+02  0.89090705628E+02 0.  0.
         13    1    3    3    0    0 -0.28687442618E+02 -0.26850663370E+02 -0.48580889576E+02  0.62482329369E+02  0.10566000000E+00 0.  1.
         22    1    1    0    0    0  0.14880431066E+02  0.13532936279E+02  0.23261127808E+02  0.30751384683E+02  0.00000000000E+00 0.  1.
</event>
<event>
 5    1  0.1751027E-003  0.9118800E+02  0.7818608E-02  0.1130116E+00
         25   -1    0    0    0    0  0.00000000000E+00  0.00000000000E+00  0.99999998245E-14  0.12500000000E+03  0.12500000000E+03 0.  0.
        -13    1    3    3    0    0  0.91847428906E+01 -0.14815599929E+02 -0.57623460984E+02  0.60202457782E+02  0.10566000000E+00 0. -1.
         23    2    1    0    0    0  0.76992550414E+01  0.49503268813E+01 -0.25014812778E+02  0.98363087215E+02  0.94687759524E+02 0.  0.
         13    1    3    3    0    0 -0.14854878492E+01  0.19765926810E+02  0.32608648206E+02  0.38160629433E+02  0.10566000000E+00 0.  1.
         22    1    1    0    0    0 -0.76992550414E+01 -0.49503268813E+01  0.25014812778E+02  0.26636912785E+02  0.00000000000E+00 0. -1.
</event>
<event>
 5    1  0.1751027E-003  0.9118800E+02  0.7818608E-02  0.1130116E+00
         25   -1    0    0    0    0  0.00000000000E+00  0.00000000000E+00  0.99999998245E-14  0.12500000000E+03  0.12500000000E+03 0.  0.
        -13    1    3    3    0    0 -0.48972135187E+01  0.38574656073E+02 -0.26197700321E+02  0.46886218204E+02  0.10566000000E+00 0.  1.
         23    2    1    0    0    0 -0.28014290259E+02  0.89215348688E+01  0.42836226618E+01  0.95288997556E+02  0.90538662399E+02 0.  0.
         13    1    3    3    0    0 -0.23117076740E+02 -0.29653121204E+02  0.30481322983E+02  0.48402779352E+02  0.10566000000E+00 0. -1.
         22    1    1    0    0    0  0.28014290259E+02 -0.89215348688E+01 -0.42836226618E+01  0.29711002444E+02  0.00000000000E+00 0.  1.
</event>
<event>
 5    1  0.1751027E-003  0.9118800E+02  0.7818608E-02  0.1130116E+00
         25   -1    0    0    0    0  0.00000000000E+00  0.00000000000E+00  0.99999998245E-14  0.12500000000E+03  0.12500000000E+03 0.  0.
        -13    1    3    3    0    0  0.35714746566E+02  0.49204248947E+02  0.10517409676E+02  0.61702741487E+02  0.10566000000E+00 0. -1.
         23    2    1    0    0    0  0.14433427553E+02  0.24678366028E+02 -0.16101557643E+01  0.96365437277E+02  0.92012821494E+02 0.  0.
         13    1    3    3    0    0 -0.21281319013E+02 -0.24525882919E+02 -0.12127565440E+02  0.34662695790E+02  0.10566000000E+00 0.  1.
         22    1    1    0    0    0 -0.14433427553E+02 -0.24678366028E+02  0.16101557643E+01  0.28634562723E+02  0.00000000000E+00 0. -1.
</event>
<event>
 5    1  0.1751027E-003  0.9118800E+02  0.7818608E-02  0.1130116E+00
         25   -1    0    0    0    0  0.00000000000E+00  0.00000000000E+00  0.99999998245E-14  0.12500000000E+03  0.12500000000E+03 0.  0.
        -13    1    3    3    0    0  0.43520445829E+02 -0.34444292628E+02 -0.74512260332E+01  0.55999736010E+02  0.10566000000E+00 0.  1.
         23    2    1    0    0    0  0.10699518569E+02 -0.20543663042E+02  0.14321669466E+02  0.97767078653E+02  0.93897655259E+02 0.  0.
         13    1    3    3    0    0 -0.32820927259E+02  0.13900629585E+02  0.21772895499E+02  0.41767342643E+02  0.10566000000E+00 0. -1.
         22    1    1    0    0    0 -0.10699518569E+02  0.20543663042E+02 -0.14321669466E+02  0.27232921347E+02  0.00000000000E+00 0.  1.
</event>
<event>
 5    1  0.1751027E-003  0.9118800E+02  0.7818608E-02  0.1130116E+00
         25   -1    0    0    0    0  0.00000000000E+00  0.00000000000E+00  0.99999998245E-14  0.12500000000E+03  0.12500000000E+03 0.  0.
        -13    1    3    3    0    0  0.50643761207E+01  0.15747809701E+02  0.23771752676E+02  0.28961160288E+02  0.10566000000E+00 0.  1.
         23    2    1    0    0    0 -0.24954588084E+02  0.36990182773E+02 -0.10423820684E+02  0.79177940621E+02  0.64571550666E+02 0.  0.
         13    1    3    3    0    0 -0.30018964205E+02  0.21242373072E+02 -0.34195573360E+02  0.50216780334E+02  0.10566000000E+00 0. -1.
         22    1    1    0    0    0  0.24954588084E+02 -0.36990182773E+02  0.10423820684E+02  0.45822059379E+02  0.00000000000E+00 0. -1.
</event>
<event>
 5    1  0.1751027E-003  0.9118800E+02  0.7818608E-02  0.1130116E+00
         25   -1    0    0    0    0  0.00000000000E+00  0.00000000000E+00  0.99999998245E-14  0.12500000000E+03  0.12500000000E+03 0.  0.
        -13    1    3    3    0    0 -0.25814904509E+02 -0.50812403261E+01  0.20961576969E+02  0.33639666632E+02  0.10566000000E+00 0.  1.
         23    2    1    0    0    0  0.33283756218E+01 -0.14065353509E+02 -0.29242364983E+02  0.92380555440E+02  0.86429965059E+02 0.  0.
         13    1    3    3    0    0  0.29143280131E+02 -0.89841131832E+01 -0.50203941951E+02  0.58740888808E+02  0.10566000000E+00 0. -1.
         22    1    1    0    0    0 -0.33283756218E+01  0.14065353509E+02  0.29242364983E+02  0.32619444560E+02  0.00000000000E+00 0. -1.
</event>
<event>
 5    1  0.1751027E-003  0.9118800E+02  0.7818608E-02  0.1130116E+00
         25   -1    0    0    0    0  0.00000000000E+00  0.00000000000E+00  0.99999998245E-14  0.12500000000E+03  0.12500000000E+03 0.  0.
        -13    1    3    3    0    0 -0.14410930926E+02 -0.10951603554E+02  0.44184067385E+02  0.47747832676E+02  0.10566000000E+00 0. -1.
         23    2    1    0    0    0  0.15925818582E+02  0.16136022795E+02  0.16908961851E+02  0.96717215130E+02  0.92489479307E+02 0.  0.
         13    1    3    3    0    0  0.30336749508E+02  0.27087626349E+02 -0.27275105534E+02  0.48969382454E+02  0.10566000000E+00 0.  1.
         22    1    1    0    0    0 -0.15925818582E+02 -0.16136022795E+02 -0.16908961851E+02  0.28282784870E+02  0.00000000000E+00 0. -1.
</event>
<event>
 5    1  0.1751027E-003  0.9118800E+02  0.7818608E-02  0.1130116E+00
         25   -1    0    0    0    0  0.00000000000E+00  0.00000000000E+00  0.99999998245E-14  0.12500000000E+03  0.12500000000E+03 0.  0.
        -13    1    3    3    0    0  0.45737095242E+02 -0.21784192547E+02  0.26020671877E+02  0.56951904753E+02  0.10566000000E+00 0.  1.
         23    2    1    0    0    0  0.17527736499E+02  0.34962176788E+01  0.24252743061E+02  0.94872925286E+02  0.89962388371E+02 0.  0.
         13    1    3    3    0    0 -0.28209358743E+02  0.25280410226E+02 -0.17679288151E+01  0.37921020532E+02  0.10566000000E+00 0. -1.
         22    1    1    0    0    0 -0.17527736499E+02 -0.34962176788E+01 -0.24252743061E+02  0.30127074714E+02  0.00000000000E+00 0.  1.
</event>
<event>
 5    1  0.1751027E-003  0.9118800E+02  0.7818608E-02  0.1130116E+00
         25   -1    0    0    0    0  0.00000000000E+00  0.00000000000E+00  0.99999998245E-14  0.12500000000E+03  0.12500000000E+03 0.  0.
        -13    1    3    3    0    0  0.18366246547E+02 -0.39224100135E+02  0.31154214509E+02  0.53352087957E+02  0.10566000000E+00 0. -1.
         23    2    1    0    0    0  0.27261593040E+02 -0.38407957656E+01  0.90032570262E+01  0.96034420354E+02  0.91562028639E+02 0.  0.
         13    1    3    3    0    0  0.88953464930E+01  0.35383304370E+02 -0.22150957483E+02  0.42682332397E+02  0.10566000000E+00 0.  1.
         22    1    1    0    0    0 -0.27261593040E+02  0.38407957656E+01 -0.90032570262E+01  0.28965579646E+02  0.00000000000E+00 0. -1.
</event>
<event>
 5    1  0.1751027E-003  0.9118800E+02  0.7818608E-02  0.1130116E+00
         25   -1    0    0    0    0  0.00000000000E+00  0.00000000000E+00  0.99999998245E-14  0.12500000000E+03  0.12500000000E+03 0.  0.
        -13    1    3    3    0    0 -0.30732199882E+02 -0.36106107417E+02 -0.35035153121E+02  0.58954153549E+02  0.10566000000E+00 0. -1.
         23    2    1    0    0    0 -0.20347657600E+02 -0.44368872199E+01 -0.21903158861E+02  0.94776474294E+02  0.89828272684E+02 0.  0.
         13    1    3    3    0    0  0.10384542282E+02  0.31669220197E+02  0.13131994260E+02  0.35822320745E+02  0.10566000000E+00 0.  1.
         22    1    1    0    0    0  0.20347657600E+02  0.44368872199E+01  0.21903158861E+02  0.30223525706E+02  0.00000000000E+00 0. -1.
</event>
<event>
 5    1  0.1751027E-003  0.9118800E+02  0.7818608E-02  0.1130116E+00
         25   -1    0    0    0    0  0.00000000000E+00  0.00000000000E+00  0.99999998245E-14  0.12500000000E+03  0.12500000000E+03 0.  0.
        -13    1    3    3    0    0  0.12461888968E+02  0.32987716696E+02 -0.19681282055E+02  0.40383810578E+02  0.10566000000E+00 0. -1.
         23    2    1    0    0    0 -0.87017302974E+01  0.14745310543E+02 -0.44226701726E+02  0.77574843819E+02  0.61389827780E+02 0.  0.
         13    1    3    3    0    0 -0.21163619265E+02 -0.18242406153E+02 -0.24545419672E+02  0.37191033241E+02  0.10566000000E+00 0.  1.
         22    1    1    0    0    0  0.87017302974E+01 -0.14745310543E+02  0.44226701726E+02  0.47425156181E+02  0.00000000000E+00 0. -1.
</event>
<event>
 5    1  0.1751027E-003  0.9118800E+02  0.7818608E-02  0.1130116E+00
         25   -1    0    0    0    0  0.00000000000E+00  0.00000000000E+00  0.99999998245E-14  0.12500000000E+03  0.12500000000E+03 0.  0.
        -13    1    3    3    0    0  0.10017956968E+02  0.30852860293E+02  0.17306269674E+02  0.36766514441E+02  0.10566000000E+00 0.  1.
         23    2    1    0    0    0  0.11531231364E+02 -0.68222173583E+01 -0.26947662904E+02  0.94905341297E+02  0.90007418162E+02 0.  0.
         13    1    3    3    0    0  0.15132743961E+01 -0.37675077652E+02 -0.44253932578E+02  0.58138826856E+02  0.10566000000E+00 0. -1.
         22    1    1    0    0    0 -0.11531231364E+02  0.68222173583E+01  0.26947662904E+02  0.30094658703E+02  0.00000000000E+00 0. -1.
</event>
<event>
 5    1  0.1751027E-003  0.9118800E+02  0.7818608E-02  0.1130116E+00
         25   -1    0    0    0    0  0.00000000000E+00  0.00000000000E+00  0.99999998245E-14  0.12500000000E+03  0.12500000000E+03 0.  0.
        -13    1    3    3    0    0 -0.38265516140E+02 -0.44276156365E+01  0.22810864922E+02  0.44768294900E+02  0.10566000000E+00 0.  1.
         23    2    1    0    0    0  0.16287729054E-01 -0.25416525965E+02 -0.81707414101E+01  0.98302414480E+02  0.94607629819E+02 0.  0.
         13    1    3    3    0    0  0.38281803869E+02 -0.20988910329E+02 -0.30981606332E+02  0.53534119580E+02  0.10566000000E+00 0. -1.
         22    1    1    0    0    0 -0.16287729054E-01  0.25416525965E+02  0.81707414101E+01  0.26697585520E+02  0.00000000000E+00 0. -1.
</event>
<event>
 5    1  0.1751027E-003  0.9118800E+02  0.7818608E-02  0.1130116E+00
         25   -1    0    0    0    0  0.00000000000E+00  0.00000000000E+00  0.99999998245E-14  0.12500000000E+03  0.12500000000E+03 0.  0.
        -13    1    3    3    0    0 -0.25388132946E+02 -0.16396830057E+02 -0.15684565305E+02  0.34050405038E+02  0.10566000000E+00 0. -1.
         23    2    1    0    0    0  0.18440498636E+02  0.23194631032E+02  0.75474663798E+00  0.95358600891E+02  0.90634707606E+02 0.  0.
         13    1    3    3    0    0  0.43828631582E+02  0.39591461089E+02  0.16439311943E+02  0.61308195853E+02  0.10566000000E+00 0.  1.
         22    1    1    0    0    0 -0.18440498636E+02 -0.23194631032E+02 -0.75474663798E+00  0.29641399109E+02  0.00000000000E+00 0.  1.
</event>
<event>
 5    1  0.1751027E-003  0.9118800E+02  0.7818608E-02  0.1130116E+00
         25   -1    0    0    0    0  0.00000000000E+00  0.00000000000E+00  0.99999998245E-14  0.12500000000E+03  0.12500000000E+03 0.  0.
        -13    1    3    3    0    0 -0.11624192151E+02 -0.53069808705E+02 -0.27864668290E+02  0.61057164544E+02  0.10566000000E+00 0. -1.
         23    2    1    0    0    0 -0.36942158792E+01 -0.28183557631E+02 -0.42684089044E+01  0.96256662228E+02  0.91864931051E+02 0.  0.
         13    1    3    3    0    0  0.79299762721E+01  0.24886251074E+02  0.23596259386E+02  0.35199497684E+02  0.10566000000E+00 0.  1.
         22    1    1    0    0    0  0.36942158792E+01  0.28183557631E+02  0.42684089044E+01  0.28743337772E+02  0.00000000000E+00 0. -1.
</event>
<event>
 5    1  0.1751027E-003  0.9118800E+02  0.7818608E-02  0.1130116E+00
         25   -1    0    0    0    0  0.00000000000E+00  0.00000000000E+00  0.99999998245E-14  0.12500000000E+03  0.12500000000E+03 0.  0.
        -13    1    3    3    0    0 -0.36312172476E+02  0.37138540205E+01 -0.22327153875E+01  0.36569970791E+02  0.10566000000E+00 0.  1.
         23    2    1    0    0    0  0.21901645252E+02  0.97273998134E+01 -0.15343543589E+02  0.96544267682E+02  0.92255443854E+02 0.  0.
         13    1    3    3    0    0  0.58213817728E+02  0.60135457929E+01 -0.13110828201E+02  0.59974296891E+02  0.10566000000E+00 0. -1.
         22    1    1    0    0    0 -0.21901645252E+02 -0.97273998134E+01  0.15343543589E+02  0.28455732318E+02  0.00000000000E+00 0. -1.
</event>
<event>
 5    1  0.1751027E-003  0.9118800E+02  0.7818608E-02  0.1130116E+00
         25   -1    0    0    0    0  0.00000000000E+00  0.00000000000E+00  0.99999998245E-14  0.12500000000E+03  0.12500000000E+03 0.  0.
        -13    1    3    3    0    0  0.56064832539E+02 -0.19987698603E+02  0.80549947831E+01  0.60063863080E+02  0.10566000000E+00 0. -1.
         23    2    1    0    0    0  0.34805824604E+02 -0.24210357659E+01 -0.34385528438E+01  0.89941042711E+02  0.82826690612E+02 0.  0.
         13    1    3    3    0    0 -0.21259007935E+02  0.17566662837E+02 -0.11493547627E+02  0.29877179631E+02  0.10566000000E+00 0.  1.
         22    1    1    0    0    0 -0.34805824604E+02  0.24210357659E+01  0.34385528438E+01  0.35058957289E+02  0.00000000000E+00 0. -1.
</event>
<event>
 5    1  0.1751027E-003  0.9118800E+02  0.7818608E-02  0.1130116E+00
         25   -1    0    0    0    0  0.00000000000E+00  0.00000000000E+00  0.99999998245E-14  0.12500000000E+03  0.12500000000E+03 0.  0.
        -13    1    3    3    0    0  0.10087133937E+02  0.58261710108E+01  0.52616522734E+02  0.53890668658E+02  0.10566000000E+00 0.  1.
         23    2    1    0    0    0  0.15151469106E+02 -0.17321123603E+02  0.18274880741E+02  0.95613615311E+02  0.90985734199E+02 0.  0.
         13    1    3    3    0    0  0.50643351691E+01 -0.23147294614E+02 -0.34341641993E+02  0.41722946653E+02  0.10566000000E+00 0. -1.
         22    1    1    0    0    0 -0.15151469106E+02  0.17321123603E+02 -0.18274880741E+02  0.29386384689E+02  0.00000000000E+00 0.  1.
</event>
<event>
 5    1  0.1751027E-003  0.9118800E+02  0.7818608E-02  0.1130116E+00
         25   -1    0    0    0    0  0.00000000000E+00  0.00000000000E+00  0.99999998245E-14  0.12500000000E+03  0.12500000000E+03 0.  0.
        -13    1    3    3    0    0  0.27588985707E+02  0.10541286829E+02 -0.49923127701E+02  0.58005178251E+02  0.10566000000E+00 0.  1.
         23    2    1    0    0    0  0.23695831789E+02 -0.60782673609E+01 -0.16628530898E+02  0.95420516939E+02  0.90720059716E+02 0.  0.
         13    1    3    3    0    0 -0.38931539180E+01 -0.16619554190E+02  0.33294596803E+02  0.37415338689E+02  0.10566000000E+00 0. -1.
         22    1    1    0    0    0 -0.23695831789E+02  0.60782673609E+01  0.16628530898E+02  0.29579483061E+02  0.00000000000E+00 0.  1.
</event>
<event>
 5    1  0.1751027E-003  0.9118800E+02  0.7818608E-02  0.1130116E+00
         25   -1    0    0    0    0  0.00000000000E+00  0.00000000000E+00  0.99999998245E-14  0.12500000000E+03  0.12500000000E+03 0.  0.
        -13    1    3    3    0    0 -0.30061270966E+02  0.15287194771E+02  0.18481190954E+02  0.38457039917E+02  0.10566000000E+00 0. -1.
         23    2    1    0    0    0  0.12284296395E+02 -0.23572153637E+02  0.15444450552E+01  0.98374153994E+02  0.94702367967E+02 0.  0.
         13    1    3    3    0    0  0.42345567360E+02 -0.38859348408E+02 -0.16936745899E+02  0.59917114078E+02  0.10566000000E+00 0.  1.
         22    1    1    0    0    0 -0.12284296395E+02  0.23572153637E+02 -0.15444450552E+01  0.26625846006E+02  0.00000000000E+00 0.  1.
</event>
<event>
 5    1  0.1751027E-003  0.9118800E+02  0.7818608E-02  0.1130116E+00
         25   -1    0    0    0    0  0.00000000000E+00  0.00000000000E+00  0.99999998245E-14  0.12500000000E+03  0.12500000000E+03 0.  0.
        -13    1    3    3    0    0 -0.43370638913E+02 -0.46877610013E+01 -0.43698035359E+02  0.61745581876E+02  0.10566000000E+00 0.  1.
         23    2    1    0    0    0 -0.33323445630E+02  0.24432299930E+01 -0.31985355422E+02  0.78745439545E+02  0.63728799503E+02 0.  0.
         13    1    3    3    0    0  0.10047193283E+02  0.71309909943E+01  0.11712679937E+02  0.16999857669E+02  0.10566000000E+00 0. -1.
         22    1    1    0    0    0  0.33323445630E+02 -0.24432299930E+01  0.31985355422E+02  0.46254560455E+02  0.00000000000E+00 0.  1.
</event>
<event>
 5    1  0.1751027E-003  0.9118800E+02  0.7818608E-02  0.1130116E+00
         25   -1    0    0    0    0  0.00000000000E+00  0.00000000000E+00  0.99999998245E-14  0.12500000000E+03  0.12500000000E+03 0.  0.
        -13    1    3    3    0    0  0.25288746111E+02  0.38189442599E+02  0.13794151676E+02  0.47835593342E+02  0.10566000000E+00 0.  1.
         23    2    1    0    0    0  0.26879118046E+02 -0.90608446664E+01  0.83861823265E+01  0.95421055682E+02  0.90720802027E+02 0.  0.
         13    1    3    3    0    0  0.15903719343E+01 -0.47250287265E+02 -0.54079693498E+01  0.47585462339E+02  0.10566000000E+00 0. -1.
         22    1    1    0    0    0 -0.26879118046E+02  0.90608446664E+01 -0.83861823265E+01  0.29578944318E+02  0.00000000000E+00 0.  1.
</event>
<event>
 5    1  0.1751027E-003  0.9118800E+02  0.7818608E-02  0.1130116E+00
         25   -1    0    0    0    0  0.00000000000E+00  0.00000000000E+00  0.99999998245E-14  0.12500000000E+03  0.12500000000E+03 0.  0.
        -13    1    3    3    0    0 -0.15635281469E+01  0.34831458708E+02 -0.46926648420E+01  0.35181065978E+02  0.10566000000E+00 0. -1.
         23    2    1    0    0    0 -0.18837339880E+02 -0.22194367687E+02 -0.78500639073E+01  0.94849397450E+02  0.89929691218E+02 0.  0.
         13    1    3    3    0    0 -0.17273811733E+02 -0.57025826395E+02 -0.31573990653E+01  0.59668331472E+02  0.10566000000E+00 0.  1.
         22    1    1    0    0    0  0.18837339880E+02  0.22194367687E+02  0.78500639073E+01  0.30150602550E+02  0.00000000000E+00 0.  1.
</event>
<event>
 5    1  0.1751027E-003  0.9118800E+02  0.7818608E-02  0.1130116E+00
         25   -1    0    0    0    0  0.00000000000E+00  0.00000000000E+00  0.99999998245E-14  0.12500000000E+03  0.12500000000E+03 0.  0.
        -13    1    3    3    0    0 -0.22974605956E+02  0.18020042863E+02  0.42558924224E+02  0.51612282054E+02  0.10566000000E+00 0. -1.
         23    2    1    0    0    0  0.71043708533E+01  0.25297947730E+02  0.90915267026E+01  0.97195070538E+02  0.93133064132E+02 0.  0.
         13    1    3    3    0    0  0.30078976809E+02  0.72779048672E+01 -0.33467397522E+02  0.45582788485E+02  0.10566000000E+00 0.  1.
         22    1    1    0    0    0 -0.71043708533E+01 -0.25297947730E+02 -0.90915267026E+01  0.27804929462E+02  0.00000000000E+00 0. -1.
</event>
<event>
 5    1  0.1751027E-003  0.9118800E+02  0.7818608E-02  0.1130116E+00
         25   -1    0    0    0    0  0.00000000000E+00  0.00000000000E+00  0.99999998245E-14  0.12500000000E+03  0.12500000000E+03 0.  0.
        -13    1    3    3    0    0  0.41330648675E+00  0.21450510448E+01  0.39353622695E+02  0.39414348269E+02  0.10566000000E+00 0.  1.
         23    2    1    0    0    0 -0.19670699852E+02  0.19938881967E+02 -0.97263648575E+01  0.95350419563E+02  0.90623423521E+02 0.  0.
         13    1    3    3    0    0 -0.20084006339E+02  0.17793830923E+02 -0.49079987553E+02  0.55936071293E+02  0.10566000000E+00 0. -1.
         22    1    1    0    0    0  0.19670699852E+02 -0.19938881967E+02  0.97263648575E+01  0.29649580437E+02  0.00000000000E+00 0. -1.
</event>
<event>
 5    1  0.1751027E-003  0.9118800E+02  0.7818608E-02  0.1130116E+00
         25   -1    0    0    0    0  0.00000000000E+00  0.00000000000E+00  0.99999998245E-14  0.12500000000E+03  0.12500000000E+03 0.  0.
        -13    1    3    3    0    0 -0.46115914103E+02  0.31850156969E+01  0.29374066708E+01  0.46319125430E+02  0.10566000000E+00 0. -1.
         23    2    1    0    0    0  0.63812865777E-01  0.19460217028E+02  0.18952592192E+02  0.97835595540E+02  0.93988823192E+02 0.  0.
         13    1    3    3    0    0  0.46179726969E+02  0.16275201331E+02  0.16015185521E+02  0.51516470110E+02  0.10566000000E+00 0.  1.
         22    1    1    0    0    0 -0.63812865777E-01 -0.19460217028E+02 -0.18952592192E+02  0.27164404460E+02  0.00000000000E+00 0.  1.
</event>
<event>
 5    1  0.1751027E-003  0.9118800E+02  0.7818608E-02  0.1130116E+00
         25   -1    0    0    0    0  0.00000000000E+00  0.00000000000E+00  0.99999998245E-14  0.12500000000E+03  0.12500000000E+03 0.  0.
        -13    1    3    3    0    0  0.15423502149E+02  0.40863323885E+02  0.15481023466E+02  0.46339712009E+02  0.10566000000E+00 0. -1.
         23    2    1    0    0    0 -0.14475071384E+02  0.23895321237E+01  0.25025500402E+02  0.95991152631E+02  0.91502940705E+02 0.  0.
         13    1    3    3    0    0 -0.29898573533E+02 -0.38473791762E+02  0.95444769362E+01  0.49651440622E+02  0.10566000000E+00 0.  1.
         22    1    1    0    0    0  0.14475071384E+02 -0.23895321237E+01 -0.25025500402E+02  0.29008847369E+02  0.00000000000E+00 0. -1.
</event>
<event>
 5    1  0.1751027E-003  0.9118800E+02  0.7818608E-02  0.1130116E+00
         25   -1    0    0    0    0  0.00000000000E+00  0.00000000000E+00  0.99999998245E-14  0.12500000000E+03  0.12500000000E+03 0.  0.
        -13    1    3    3    0    0  0.32289824244E+02  0.28595609497E+02  0.12637712655E+02  0.44945128517E+02  0.10566000000E+00 0.  1.
         23    2    1    0    0    0 -0.10357390492E+02  0.22231246989E+02 -0.15083958250E+02  0.96207124545E+02  0.91797500708E+02 0.  0.
         13    1    3    3    0    0 -0.42647214736E+02 -0.63643625085E+01 -0.27721670905E+02  0.51261996027E+02  0.10566000000E+00 0. -1.
         22    1    1    0    0    0  0.10357390492E+02 -0.22231246989E+02  0.15083958250E+02  0.28792875455E+02  0.00000000000E+00 0.  1.
</event>
<event>
 5    1  0.1751027E-003  0.9118800E+02  0.7818608E-02  0.1130116E+00
         25   -1    0    0    0    0  0.00000000000E+00  0.00000000000E+00  0.99999998245E-14  0.12500000000E+03  0.12500000000E+03 0.  0.
        -13    1    3    3    0    0  0.33841862449E+02 -0.54696066397E+01  0.37695226411E+02  0.50952227714E+02  0.10566000000E+00 0.  1.
         23    2    1    0    0    0  0.13919777349E+02 -0.27281171186E+02  0.69400825480E+01  0.93596381601E+02  0.88170830779E+02 0.  0.
         13    1    3    3    0    0 -0.19922085099E+02 -0.21811564547E+02 -0.30755143863E+02  0.42644153887E+02  0.10566000000E+00 0. -1.
         22    1    1    0    0    0 -0.13919777349E+02  0.27281171186E+02 -0.69400825480E+01  0.31403618399E+02  0.00000000000E+00 0.  1.
</event>
<event>
 5    1  0.1751027E-003  0.9118800E+02  0.7818608E-02  0.1130116E+00
         25   -1    0    0    0    0  0.00000000000E+00  0.00000000000E+00  0.99999998245E-14  0.12500000000E+03  0.12500000000E+03 0.  0.
        -13    1    3    3    0    0  0.23590449903E+02 -0.41286848204E+01  0.54317333301E+02  0.59362776434E+02  0.10566000000E+00 0.  1.
         23    2    1    0    0    0  0.99043043459E+00  0.67143211193E+01  0.29838815726E+02  0.94399052556E+02  0.89301529320E+02 0.  0.
         13    1    3    3    0    0 -0.22600019469E+02  0.10843005940E+02 -0.24478517575E+02  0.35036276122E+02  0.10566000000E+00 0. -1.
         22    1    1    0    0    0 -0.99043043459E+00 -0.67143211193E+01 -0.29838815726E+02  0.30600947444E+02  0.00000000000E+00 0.  1.
</event>
<event>
 5    1  0.1751027E-003  0.9118800E+02  0.7818608E-02  0.1130116E+00
         25   -1    0    0    0    0  0.00000000000E+00  0.00000000000E+00  0.99999998245E-14  0.12500000000E+03  0.12500000000E+03 0.  0.
        -13    1    3    3    0    0  0.20963765108E+02 -0.23960329386E+02  0.83184768733E+01  0.32905699404E+02  0.10566000000E+00 0. -1.
         23    2    1    0    0    0 -0.18150527618E+02  0.12424787142E+02  0.27606476738E+02  0.89702201964E+02  0.82465450286E+02 0.  0.
         13    1    3    3    0    0 -0.39114292725E+02  0.36385116528E+02  0.19287999865E+02  0.56796502559E+02  0.10566000000E+00 0.  1.
         22    1    1    0    0    0  0.18150527618E+02 -0.12424787142E+02 -0.27606476738E+02  0.35297798036E+02  0.00000000000E+00 0.  1.
</event>
<event>
 5    1  0.1751027E-003  0.9118800E+02  0.7818608E-02  0.1130116E+00
         25   -1    0    0    0    0  0.00000000000E+00  0.00000000000E+00  0.99999998245E-14  0.12500000000E+03  0.12500000000E+03 0.  0.
        -13    1    3    3    0    0 -0.19564834509E+02 -0.11807525245E+02 -0.21672503396E+02  0.31494586348E+02  0.10566000000E+00 0.  1.
         23    2    1    0    0    0  0.16705544316E+02 -0.17517637982E+00  0.26969216768E+02  0.93275489748E+02  0.87714721894E+02 0.  0.
         13    1    3    3    0    0  0.36270378826E+02  0.11632348865E+02  0.48641720164E+02  0.61780903399E+02  0.10566000000E+00 0. -1.
         22    1    1    0    0    0 -0.16705544316E+02  0.17517637982E+00 -0.26969216768E+02  0.31724510252E+02  0.00000000000E+00 0. -1.
</event>
<event>
 5    1  0.1751027E-003  0.9118800E+02  0.7818608E-02  0.1130116E+00
         25   -1    0    0    0    0  0.00000000000E+00  0.00000000000E+00  0.99999998245E-14  0.12500000000E+03  0.12500000000E+03 0.  0.
        -13    1    3    3    0    0  0.18413009379E+01 -0.41762200935E+02  0.46811347101E+01  0.42064189072E+02  0.10566000000E+00 0.  1.
         23    2    1    0    0    0 -0.11484356250E+02 -0.15737408932E+01 -0.27441439696E+02  0.95210745033E+02  0.90430560422E+02 0.  0.
         13    1    3    3    0    0 -0.13325657188E+02  0.40188460042E+02 -0.32122574406E+02  0.53146555961E+02  0.10566000000E+00 0. -1.
         22    1    1    0    0    0  0.11484356250E+02  0.15737408932E+01  0.27441439696E+02  0.29789254967E+02  0.00000000000E+00 0. -1.
</event>
<event>
 5    1  0.1751027E-003  0.9118800E+02  0.7818608E-02  0.1130116E+00
         25   -1    0    0    0    0  0.00000000000E+00  0.00000000000E+00  0.99999998245E-14  0.12500000000E+03  0.12500000000E+03 0.  0.
        -13    1    3    3    0    0  0.33518370770E+02 -0.36246891101E+02 -0.78270490073E+01  0.49985919555E+02  0.10566000000E+00 0.  1.
         23    2    1    0    0    0  0.23653273496E+02  0.10679165540E+02 -0.76697417815E+01  0.97938092035E+02  0.94125039224E+02 0.  0.
         13    1    3    3    0    0 -0.98650972738E+01  0.46926056640E+02  0.15730722583E+00  0.47952172481E+02  0.10566000000E+00 0. -1.
         22    1    1    0    0    0 -0.23653273496E+02 -0.10679165540E+02  0.76697417815E+01  0.27061907965E+02  0.00000000000E+00 0. -1.
</event>
<event>
 5    1  0.1751027E-003  0.9118800E+02  0.7818608E-02  0.1130116E+00
         25   -1    0    0    0    0  0.00000000000E+00  0.00000000000E+00  0.99999998245E-14  0.12500000000E+03  0.12500000000E+03 0.  0.
        -13    1    3    3    0    0  0.57873913071E+02 -0.40691101910E+01 -0.19254310714E+02  0.61128447690E+02  0.10566000000E+00 0.  1.
         23    2    1    0    0    0  0.25881755097E+02 -0.10965090433E+02 -0.74326618551E+01  0.95925218533E+02  0.91412825321E+02 0.  0.
         13    1    3    3    0    0 -0.31992157974E+02 -0.68959802417E+01  0.11821648859E+02  0.34796770843E+02  0.10566000000E+00 0. -1.
         22    1    1    0    0    0 -0.25881755097E+02  0.10965090433E+02  0.74326618551E+01  0.29074781467E+02  0.00000000000E+00 0.  1.
</event>
<event>
 5    1  0.1751027E-003  0.9118800E+02  0.7818608E-02  0.1130116E+00
         25   -1    0    0    0    0  0.00000000000E+00  0.00000000000E+00  0.99999998245E-14  0.12500000000E+03  0.12500000000E+03 0.  0.
        -13    1    3    3    0    0  0.41183360119E+01  0.56681165910E+02 -0.21373599978E+02  0.60717025622E+02  0.10566000000E+00 0.  1.
         23    2    1    0    0    0 -0.82395785686E+01  0.24619632013E+02 -0.12391748910E+02  0.96232442292E+02  0.91831969232E+02 0.  0.
         13    1    3    3    0    0 -0.12357914580E+02 -0.32061533897E+02  0.89818510675E+01  0.35515416670E+02  0.10566000000E+00 0. -1.
         22    1    1    0    0    0  0.82395785686E+01 -0.24619632013E+02  0.12391748910E+02  0.28767557708E+02  0.00000000000E+00 0.  1.
</event>
<event>
 5    1  0.1751027E-003  0.9118800E+02  0.7818608E-02  0.1130116E+00
         25   -1    0    0    0    0  0.00000000000E+00  0.00000000000E+00  0.99999998245E-14  0.12500000000E+03  0.12500000000E+03 0.  0.
        -13    1    3    3    0    0  0.63680342800E+01 -0.14062057638E+02 -0.54297675800E+02  0.56449464895E+02  0.10566000000E+00 0.  1.
         23    2    1    0    0    0 -0.93579970610E+01 -0.20759387360E+02 -0.20336181664E+02  0.94469940104E+02  0.89400699248E+02 0.  0.
         13    1    3    3    0    0 -0.15726031341E+02 -0.66973297218E+01  0.33961494136E+02  0.38020475209E+02  0.10566000000E+00 0. -1.
         22    1    1    0    0    0  0.93579970610E+01  0.20759387360E+02  0.20336181664E+02  0.30530059896E+02  0.00000000000E+00 0. -1.
</event>
<event>
 5    1  0.1751027E-003  0.9118800E+02  0.7818608E-02  0.1130116E+00
         25   -1    0    0    0    0  0.00000000000E+00  0.00000000000E+00  0.99999998245E-14  0.12500000000E+03  0.12500000000E+03 0.  0.
        -13    1    3    3    0    0 -0.15605236012E+02  0.31309571895E+02  0.13694288039E+02  0.37568036576E+02  0.10566000000E+00 0. -1.
         23    2    1    0    0    0  0.28790516409E+02 -0.44506929079E+01  0.17352105522E+01  0.95815869756E+02  0.91263176796E+02 0.  0.
         13    1    3    3    0    0  0.44395752421E+02 -0.35760264803E+02 -0.11959077487E+02  0.58247833180E+02  0.10566000000E+00 0.  1.
         22    1    1    0    0    0 -0.28790516409E+02  0.44506929079E+01 -0.17352105522E+01  0.29184130244E+02  0.00000000000E+00 0.  1.
</event>
<event>
 5    1  0.1751027E-003  0.9118800E+02  0.7818608E-02  0.1130116E+00
         25   -1    0    0    0    0  0.00000000000E+00  0.00000000000E+00  0.99999998245E-14  0.12500000000E+03  0.12500000000E+03 0.  0.
        -13    1    3    3    0    0 -0.47334165006E+02  0.19116199672E+02  0.28498295522E+02  0.58464658371E+02  0.10566000000E+00 0.  1.
         23    2    1    0    0    0 -0.12150067389E+02  0.41512535878E+01  0.25045898233E+02  0.96854768393E+02  0.92675196780E+02 0.  0.
         13    1    3    3    0    0  0.35184097617E+02 -0.14964946084E+02 -0.34523972896E+01  0.38390110022E+02  0.10566000000E+00 0. -1.
         22    1    1    0    0    0  0.12150067389E+02 -0.41512535878E+01 -0.25045898233E+02  0.28145231607E+02  0.00000000000E+00 0.  1.
</event>
<event>
 5    1  0.1751027E-003  0.9118800E+02  0.7818608E-02  0.1130116E+00
         25   -1    0    0    0    0  0.00000000000E+00  0.00000000000E+00  0.99999998245E-14  0.12500000000E+03  0.12500000000E+03 0.  0.
        -13    1    3    3    0    0 -0.28726833360E+02 -0.22826861474E+02 -0.30109137252E+02  0.47464385277E+02  0.10566000000E+00 0.  1.
         23    2    1    0    0    0  0.12959959412E+02  0.10074107729E+01 -0.26334445857E+02  0.95632016361E+02  0.91011010819E+02 0.  0.
         13    1    3    3    0    0  0.41686792771E+02  0.23834272247E+02  0.37746913951E+01  0.48167631084E+02  0.10566000000E+00 0. -1.
         22    1    1    0    0    0 -0.12959959412E+02 -0.10074107729E+01  0.26334445857E+02  0.29367983639E+02  0.00000000000E+00 0. -1.
</event>
<event>
 5    1  0.1751027E-003  0.9118800E+02  0.7818608E-02  0.1130116E+00
         25   -1    0    0    0    0  0.00000000000E+00  0.00000000000E+00  0.99999998245E-14  0.12500000000E+03  0.12500000000E+03 0.  0.
        -13    1    3    3    0    0  0.36420616269E+02 -0.28391621490E+01  0.32303300378E+02  0.48765115712E+02  0.10566000000E+00 0. -1.
         23    2    1    0    0    0 -0.29548577806E+01 -0.22991479648E+02  0.19206829678E+02  0.94896152618E+02  0.89994656255E+02 0.  0.
         13    1    3    3    0    0 -0.39375474049E+02 -0.20152317499E+02 -0.13096470700E+02  0.46131036906E+02  0.10566000000E+00 0.  1.
         22    1    1    0    0    0  0.29548577806E+01  0.22991479648E+02 -0.19206829678E+02  0.30103847382E+02  0.00000000000E+00 0.  1.
</event>
<event>
 5    1  0.1751027E-003  0.9118800E+02  0.7818608E-02  0.1130116E+00
         25   -1    0    0    0    0  0.00000000000E+00  0.00000000000E+00  0.99999998245E-14  0.12500000000E+03  0.12500000000E+03 0.  0.
        -13    1    3    3    0    0  0.90673625332E+01 -0.29253469470E+02  0.20819333451E+02  0.37032935999E+02  0.10566000000E+00 0. -1.
         23    2    1    0    0    0  0.16423818682E+02  0.25006904183E+02  0.16928362904E+01  0.95034139898E+02  0.90186112981E+02 0.  0.
         13    1    3    3    0    0  0.73564561488E+01  0.54260373653E+02 -0.19126497161E+02  0.58001203899E+02  0.10566000000E+00 0.  1.
         22    1    1    0    0    0 -0.16423818682E+02 -0.25006904183E+02 -0.16928362904E+01  0.29965860102E+02  0.00000000000E+00 0.  1.
</event>
<event>
 5    1  0.1751027E-003  0.9118800E+02  0.7818608E-02  0.1130116E+00
         25   -1    0    0    0    0  0.00000000000E+00  0.00000000000E+00  0.99999998245E-14  0.12500000000E+03  0.12500000000E+03 0.  0.
        -13    1    3    3    0    0  0.11826828341E+02 -0.77455204125E+01 -0.37782184506E+02  0.40340693910E+02  0.10566000000E+00 0. -1.
         23    2    1    0    0    0 -0.24948390783E+02 -0.11071917576E+02  0.54190742393E+01  0.97172389124E+02  0.93102616940E+02 0.  0.
         13    1    3    3    0    0 -0.36775219124E+02 -0.33263971635E+01  0.43201258745E+02  0.56831695214E+02  0.10566000000E+00 0.  1.
         22    1    1    0    0    0  0.24948390783E+02  0.11071917576E+02 -0.54190742393E+01  0.27827610876E+02  0.00000000000E+00 0.  1.
</event>
<event>
 5    1  0.1751027E-003  0.9118800E+02  0.7818608E-02  0.1130116E+00
         25   -1    0    0    0    0  0.00000000000E+00  0.00000000000E+00  0.99999998245E-14  0.12500000000E+03  0.12500000000E+03 0.  0.
        -13    1    3    3    0    0 -0.37380828182E+02 -0.23794217847E+01 -0.29746500387E+02  0.47831510669E+02  0.10566000000E+00 0.  1.
         23    2    1    0    0    0 -0.22646672067E+02  0.89820420054E+01  0.15067309787E+02  0.96354360568E+02  0.91997772483E+02 0.  0.
         13    1    3    3    0    0  0.14734156115E+02  0.11361463790E+02  0.44813810174E+02  0.48522849898E+02  0.10566000000E+00 0. -1.
         22    1    1    0    0    0  0.22646672067E+02 -0.89820420054E+01 -0.15067309787E+02  0.28645639432E+02  0.00000000000E+00 0. -1.
</event>
<event>
 5    1  0.1751027E-003  0.9118800E+02  0.7818608E-02  0.1130116E+00
         25   -1    0    0    0    0  0.00000000000E+00  0.00000000000E+00  0.99999998245E-14  0.12500000000E+03  0.12500000000E+03 0.  0.
        -13    1    3    3    0    0  0.27168353903E+02 -0.14117625908E+02  0.23223221430E+02  0.38428583017E+02  0.10566000000E+00 0. -1.
         23    2    1    0    0    0 -0.11534324657E+01 -0.55637439499E+00 -0.27167387214E+02  0.97802447041E+02  0.93944727156E+02 0.  0.
         13    1    3    3    0    0 -0.28321786368E+02  0.13561251513E+02 -0.50390608644E+02  0.59373864025E+02  0.10566000000E+00 0.  1.
         22    1    1    0    0    0  0.11534324657E+01  0.55637439499E+00  0.27167387214E+02  0.27197552959E+02  0.00000000000E+00 0.  1.
</event>
<event>
 5    1  0.1751027E-003  0.9118800E+02  0.7818608E-02  0.1130116E+00
         25   -1    0    0    0    0  0.00000000000E+00  0.00000000000E+00  0.99999998245E-14  0.12500000000E+03  0.12500000000E+03 0.  0.
        -13    1    3    3    0    0 -0.87450086351E+01 -0.11379015775E+01  0.43538784398E+02  0.44423044773E+02  0.10566000000E+00 0.  1.
         23    2    1    0    0    0 -0.27647808940E+02  0.79649781367E+01 -0.35839283279E+01  0.96005401224E+02  0.91522403302E+02 0.  0.
         13    1    3    3    0    0 -0.18902800305E+02  0.91028797142E+01 -0.47122712725E+02  0.51582356452E+02  0.10566000000E+00 0. -1.
         22    1    1    0    0    0  0.27647808940E+02 -0.79649781367E+01  0.35839283279E+01  0.28994598776E+02  0.00000000000E+00 0. -1.
</event>
<event>
 5    1  0.1751027E-003  0.9118800E+02  0.7818608E-02  0.1130116E+00
         25   -1    0    0    0    0  0.00000000000E+00  0.00000000000E+00  0.99999998245E-14  0.12500000000E+03  0.12500000000E+03 0.  0.
        -13    1    3    3    0    0  0.15782848620E+02 -0.13765509834E+02 -0.26923329810E+02  0.34109594305E+02  0.10566000000E+00 0. -1.
         23    2    1    0    0    0 -0.73799569578E+01 -0.18390629293E+01  0.28581004079E+02  0.95424339207E+02  0.90725326132E+02 0.  0.
         13    1    3    3    0    0 -0.23162805577E+02  0.11926446905E+02  0.55504333889E+02  0.61314744903E+02  0.10566000000E+00 0.  1.
         22    1    1    0    0    0  0.73799569578E+01  0.18390629293E+01 -0.28581004079E+02  0.29575660793E+02  0.00000000000E+00 0.  1.
</event>
<event>
 5    1  0.1751027E-003  0.9118800E+02  0.7818608E-02  0.1130116E+00
         25   -1    0    0    0    0  0.00000000000E+00  0.00000000000E+00  0.99999998245E-14  0.12500000000E+03  0.12500000000E+03 0.  0.
        -13    1    3    3    0    0  0.29776972681E+01 -0.22070484266E+02 -0.47357738266E+02  0.52332967568E+02  0.10566000000E+00 0.  1.
         23    2    1    0    0    0 -0.11522458681E+02  0.11610392005E+02 -0.24492807116E+02  0.95547226667E+02  0.90894480948E+02 0.  0.
         13    1    3    3    0    0 -0.14500155949E+02  0.33680876271E+02  0.22864931150E+02  0.43214259099E+02  0.10566000000E+00 0. -1.
         22    1    1    0    0    0  0.11522458681E+02 -0.11610392005E+02  0.24492807116E+02  0.29452773333E+02  0.00000000000E+00 0.  1.
</event>
<event>
 5    1  0.1751027E-003  0.9118800E+02  0.7818608E-02  0.1130116E+00
         25   -1    0    0    0    0  0.00000000000E+00  0.00000000000E+00  0.99999998245E-14  0.12500000000E+03  0.12500000000E+03 0.  0.
        -13    1    3    3    0    0 -0.34884357400E+02  0.19716429286E+02 -0.16914286743E+02  0.43494370154E+02  0.10566000000E+00 0.  1.
         23    2    1    0    0    0  0.81804456896E+01  0.27321200497E+02  0.99225121803E+01  0.94803577426E+02  0.89865979973E+02 0.  0.
         13    1    3    3    0    0  0.43064803090E+02  0.76047712117E+01  0.26836798924E+02  0.51309207272E+02  0.10566000000E+00 0. -1.
         22    1    1    0    0    0 -0.81804456896E+01 -0.27321200497E+02 -0.99225121803E+01  0.30196422574E+02  0.00000000000E+00 0. -1.
</event>
<event>
 5    1  0.1751027E-003  0.9118800E+02  0.7818608E-02  0.1130116E+00
         25   -1    0    0    0    0  0.00000000000E+00  0.00000000000E+00  0.99999998245E-14  0.12500000000E+03  0.12500000000E+03 0.  0.
        -13    1    3    3    0    0 -0.43608060601E+02 -0.49027339362E+01 -0.13068148587E+02  0.45787415530E+02  0.10566000000E+00 0.  1.
         23    2    1    0    0    0 -0.11069380198E+02  0.27961354603E+02  0.30729574893E+01  0.94770683155E+02  0.89820213698E+02 0.  0.
         13    1    3    3    0    0  0.32538680402E+02  0.32864088539E+02  0.16141106076E+02  0.48983267625E+02  0.10566000000E+00 0. -1.
         22    1    1    0    0    0  0.11069380198E+02 -0.27961354603E+02 -0.30729574893E+01  0.30229316845E+02  0.00000000000E+00 0.  1.
</event>
<event>
 5    1  0.1751027E-003  0.9118800E+02  0.7818608E-02  0.1130116E+00
         25   -1    0    0    0    0  0.00000000000E+00  0.00000000000E+00  0.99999998245E-14  0.12500000000E+03  0.12500000000E+03 0.  0.
        -13    1    3    3    0    0 -0.22102773876E+02 -0.30245412380E+02 -0.35789999384E+02  0.51809775168E+02  0.10566000000E+00 0.  1.
         23    2    1    0    0    0  0.12260838622E+02 -0.24583455464E+02 -0.79362456370E+01  0.96405272495E+02  0.92066921985E+02 0.  0.
         13    1    3    3    0    0  0.34363612497E+02  0.56619569160E+01  0.27853753747E+02  0.44595497327E+02  0.10566000000E+00 0. -1.
         22    1    1    0    0    0 -0.12260838622E+02  0.24583455464E+02  0.79362456370E+01  0.28594727505E+02  0.00000000000E+00 0.  1.
</event>
<event>
 5    1  0.1751027E-003  0.9118800E+02  0.7818608E-02  0.1130116E+00
         25   -1    0    0    0    0  0.00000000000E+00  0.00000000000E+00  0.99999998245E-14  0.12500000000E+03  0.12500000000E+03 0.  0.
        -13    1    3    3    0    0  0.12652630683E+02 -0.31135350901E+02 -0.10715008354E+02  0.35274944465E+02  0.10566000000E+00 0.  1.
         23    2    1    0    0    0  0.14367587185E+01  0.23729873241E+02  0.14992794378E+02  0.96893861117E+02  0.92727909926E+02 0.  0.
         13    1    3    3    0    0 -0.11215871965E+02  0.54865224142E+02  0.25707802733E+02  0.61618916652E+02  0.10566000000E+00 0. -1.
         22    1    1    0    0    0 -0.14367587185E+01 -0.23729873241E+02 -0.14992794378E+02  0.28106138883E+02  0.00000000000E+00 0. -1.
</event>
<event>
 5    1  0.1751027E-003  0.9118800E+02  0.7818608E-02  0.1130116E+00
         25   -1    0    0    0    0  0.00000000000E+00  0.00000000000E+00  0.99999998245E-14  0.12500000000E+03  0.12500000000E+03 0.  0.
        -13    1    3    3    0    0 -0.59500724355E+02  0.70435752072E+01 -0.15743515252E+02  0.61950121767E+02  0.10566000000E+00 0.  1.
         23    2    1    0    0    0 -0.26651281907E+02 -0.16321670269E+01 -0.10405740247E+02  0.96342815445E+02  0.91982084459E+02 0.  0.
         13    1    3    3    0    0  0.32849442447E+02 -0.86757422340E+01  0.53377750052E+01  0.34392693678E+02  0.10566000000E+00 0. -1.
         22    1    1    0    0    0  0.26651281907E+02  0.16321670269E+01  0.10405740247E+02  0.28657184555E+02  0.00000000000E+00 0.  1.
</event>
<event>
 5    1  0.1751027E-003  0.9118800E+02  0.7818608E-02  0.1130116E+00
         25   -1    0    0    0    0  0.00000000000E+00  0.00000000000E+00  0.99999998245E-14  0.12500000000E+03  0.12500000000E+03 0.  0.
        -13    1    3    3    0    0 -0.32741741245E+01  0.85324674783E+01 -0.33956593399E+02  0.35165105101E+02  0.10566000000E+00 0. -1.
         23    2    1    0    0    0 -0.19452200686E+02 -0.84351380091E+00  0.22855572591E+02  0.94975396330E+02  0.90104656276E+02 0.  0.
         13    1    3    3    0    0 -0.16178026562E+02 -0.93759812792E+01  0.56812165990E+02  0.59810291229E+02  0.10566000000E+00 0.  1.
         22    1    1    0    0    0  0.19452200686E+02  0.84351380091E+00 -0.22855572591E+02  0.30024603670E+02  0.00000000000E+00 0.  1.
</event>
<event>
 5    1  0.1751027E-003  0.9118800E+02  0.7818608E-02  0.1130116E+00
         25   -1    0    0    0    0  0.00000000000E+00  0.00000000000E+00  0.99999998245E-14  0.12500000000E+03  0.12500000000E+03 0.  0.
        -13    1    3    3    0    0 -0.85013200767E+01  0.20112352942E+02  0.29449835988E+02  0.36661740106E+02  0.10566000000E+00 0.  1.
         23    2    1    0    0    0  0.94747281612E+01 -0.27114295082E+02 -0.20449914576E+01  0.96205252882E+02  0.91794952043E+02 0.  0.
         13    1    3    3    0    0  0.17976048238E+02 -0.47226648024E+02 -0.31494827445E+02  0.59543512776E+02  0.10566000000E+00 0. -1.
         22    1    1    0    0    0 -0.94747281612E+01  0.27114295082E+02  0.20449914576E+01  0.28794747118E+02  0.00000000000E+00 0. -1.
</event>
<event>
 5    1  0.1751027E-003  0.9118800E+02  0.7818608E-02  0.1130116E+00
         25   -1    0    0    0    0  0.00000000000E+00  0.00000000000E+00  0.99999998245E-14  0.12500000000E+03  0.12500000000E+03 0.  0.
        -13    1    3    3    0    0 -0.29880288434E+02 -0.39133874517E+02  0.20013894275E+02  0.53149401688E+02  0.10566000000E+00 0.  1.
         23    2    1    0    0    0 -0.13391434387E+02 -0.16807573460E+02 -0.15703952697E+02  0.98383479362E+02  0.94714675951E+02 0.  0.
         13    1    3    3    0    0  0.16488854047E+02  0.22326301057E+02 -0.35717846972E+02  0.45234077675E+02  0.10566000000E+00 0. -1.
         22    1    1    0    0    0  0.13391434387E+02  0.16807573460E+02  0.15703952697E+02  0.26616520638E+02  0.00000000000E+00 0.  1.
</event>
<event>
 5    1  0.1751027E-003  0.9118800E+02  0.7818608E-02  0.1130116E+00
         25   -1    0    0    0    0  0.00000000000E+00  0.00000000000E+00  0.99999998245E-14  0.12500000000E+03  0.12500000000E+03 0.  0.
        -13    1    3    3    0    0 -0.33514906953E+02  0.37198476464E+01 -0.94325233052E+01  0.35015281157E+02  0.10566000000E+00 0. -1.
         23    2    1    0    0    0  0.12691522205E+02  0.74166558089E+01  0.27189988841E+02  0.94090826403E+02  0.88869041858E+02 0.  0.
         13    1    3    3    0    0  0.46206429158E+02  0.36968081624E+01  0.36622512146E+02  0.59075545246E+02  0.10566000000E+00 0.  1.
         22    1    1    0    0    0 -0.12691522205E+02 -0.74166558089E+01 -0.27189988841E+02  0.30909173597E+02  0.00000000000E+00 0.  1.
</event>
<event>
 5    1  0.1751027E-003  0.9118800E+02  0.7818608E-02  0.1130116E+00
         25   -1    0    0    0    0  0.00000000000E+00  0.00000000000E+00  0.99999998245E-14  0.12500000000E+03  0.12500000000E+03 0.  0.
        -13    1    3    3    0    0  0.22329272934E+02 -0.31345212278E+01  0.27686467051E+02  0.35706767915E+02  0.10566000000E+00 0.  1.
         23    2    1    0    0    0 -0.12484380513E+02  0.24312085162E+02 -0.11947528633E+02  0.95172484480E+02  0.90377658301E+02 0.  0.
         13    1    3    3    0    0 -0.34813653447E+02  0.27446606390E+02 -0.39633995684E+02  0.59465716565E+02  0.10566000000E+00 0. -1.
         22    1    1    0    0    0  0.12484380513E+02 -0.24312085162E+02  0.11947528633E+02  0.29827515520E+02  0.00000000000E+00 0. -1.
</event>
<event>
 5    1  0.1751027E-003  0.9118800E+02  0.7818608E-02  0.1130116E+00
         25   -1    0    0    0    0  0.00000000000E+00  0.00000000000E+00  0.99999998245E-14  0.12500000000E+03  0.12500000000E+03 0.  0.
        -13    1    3    3    0    0 -0.41496261337E+02 -0.13956102261E+02 -0.18972518081E+02  0.47714569071E+02  0.10566000000E+00 0. -1.
         23    2    1    0    0    0  0.31555076176E+01  0.12232394736E+01 -0.28894110697E+02  0.95908365874E+02  0.91389777703E+02 0.  0.
         13    1    3    3    0    0  0.44651768954E+02  0.15179341735E+02 -0.99215926164E+01  0.48193796803E+02  0.10566000000E+00 0.  1.
         22    1    1    0    0    0 -0.31555076176E+01 -0.12232394736E+01  0.28894110697E+02  0.29091634126E+02  0.00000000000E+00 0.  1.
</event>
<event>
 5    1  0.1751027E-003  0.9118800E+02  0.7818608E-02  0.1130116E+00
         25   -1    0    0    0    0  0.00000000000E+00  0.00000000000E+00  0.99999998245E-14  0.12500000000E+03  0.12500000000E+03 0.  0.
        -13    1    3    3    0    0 -0.44956452103E+02 -0.13842943468E+02  0.46263883240E+01  0.47266524121E+02  0.10566000000E+00 0. -1.
         23    2    1    0    0    0 -0.13827898264E+02  0.22723574917E+02  0.11941271171E+02  0.95842400912E+02  0.91299508366E+02 0.  0.
         13    1    3    3    0    0  0.31128553839E+02  0.36566518385E+02  0.73148828466E+01  0.48575876791E+02  0.10566000000E+00 0.  1.
         22    1    1    0    0    0  0.13827898264E+02 -0.22723574917E+02 -0.11941271171E+02  0.29157599088E+02  0.00000000000E+00 0. -1.
</event>
<event>
 5    1  0.1751027E-003  0.9118800E+02  0.7818608E-02  0.1130116E+00
         25   -1    0    0    0    0  0.00000000000E+00  0.00000000000E+00  0.99999998245E-14  0.12500000000E+03  0.12500000000E+03 0.  0.
        -13    1    3    3    0    0  0.31183592727E+02 -0.16272339795E+02 -0.33502692029E+02  0.48576198235E+02  0.10566000000E+00 0.  1.
         23    2    1    0    0    0  0.82112329032E+00  0.71394004344E+01 -0.37216289649E+02  0.87096207350E+02  0.78415890210E+02 0.  0.
         13    1    3    3    0    0 -0.30362469437E+02  0.23411740230E+02 -0.37135976197E+01  0.38520009115E+02  0.10566000000E+00 0. -1.
         22    1    1    0    0    0 -0.82112329032E+00 -0.71394004344E+01  0.37216289649E+02  0.37903792650E+02  0.00000000000E+00 0.  1.
</event>
<event>
 5    1  0.1751027E-003  0.9118800E+02  0.7818608E-02  0.1130116E+00
         25   -1    0    0    0    0  0.00000000000E+00  0.00000000000E+00  0.99999998245E-14  0.12500000000E+03  0.12500000000E+03 0.  0.
        -13    1    3    3    0    0  0.80092718860E+01  0.31534270624E+02  0.89012117981E+01  0.33731311795E+02  0.10566000000E+00 0. -1.
         23    2    1    0    0    0  0.76865017332E+01 -0.28885906207E+02  0.75616158025E+01  0.94167291396E+02  0.88976529765E+02 0.  0.
         13    1    3    3    0    0 -0.32277015270E+00 -0.60420176831E+02 -0.13395959956E+01  0.60435979601E+02  0.10566000000E+00 0.  1.
         22    1    1    0    0    0 -0.76865017332E+01  0.28885906207E+02 -0.75616158025E+01  0.30832708604E+02  0.00000000000E+00 0.  1.
</event>
<event>
 5    1  0.1751027E-003  0.9118800E+02  0.7818608E-02  0.1130116E+00
         25   -1    0    0    0    0  0.00000000000E+00  0.00000000000E+00  0.99999998245E-14  0.12500000000E+03  0.12500000000E+03 0.  0.
        -13    1    3    3    0    0  0.39931024659E+01  0.18054141771E+02 -0.20648994405E+02  0.27718027281E+02  0.10566000000E+00 0.  1.
         23    2    1    0    0    0  0.37191600607E+02 -0.14115760760E+02  0.10981521723E+02  0.83731807927E+02  0.72855692858E+02 0.  0.
         13    1    3    3    0    0  0.33198498142E+02 -0.32169902532E+02  0.31630516128E+02  0.56013780646E+02  0.10566000000E+00 0. -1.
         22    1    1    0    0    0 -0.37191600607E+02  0.14115760760E+02 -0.10981521723E+02  0.41268192073E+02  0.00000000000E+00 0. -1.
</event>
<event>
 5    1  0.1751027E-003  0.9118800E+02  0.7818608E-02  0.1130116E+00
         25   -1    0    0    0    0  0.00000000000E+00  0.00000000000E+00  0.99999998245E-14  0.12500000000E+03  0.12500000000E+03 0.  0.
        -13    1    3    3    0    0 -0.29998225746E+01 -0.25352422318E+02 -0.54020103689E+02  0.59748866261E+02  0.10566000000E+00 0. -1.
         23    2    1    0    0    0  0.10941365867E+02 -0.15510255790E+02 -0.22760055639E+02  0.95363845486E+02  0.90641940466E+02 0.  0.
         13    1    3    3    0    0  0.13941188441E+02  0.98421665283E+01  0.31260048050E+02  0.35614979225E+02  0.10566000000E+00 0.  1.
         22    1    1    0    0    0 -0.10941365867E+02  0.15510255790E+02  0.22760055639E+02  0.29636154514E+02  0.00000000000E+00 0. -1.
</event>
<event>
 5    1  0.1751027E-003  0.9118800E+02  0.7818608E-02  0.1130116E+00
         25   -1    0    0    0    0  0.00000000000E+00  0.00000000000E+00  0.99999998245E-14  0.12500000000E+03  0.12500000000E+03 0.  0.
        -13    1    3    3    0    0 -0.19155560682E+02  0.43017965808E+02  0.20975557075E+02  0.51550616348E+02  0.10566000000E+00 0. -1.
         23    2    1    0    0    0  0.12358985904E+02  0.12879786279E+02  0.23802050142E+02  0.95248176222E+02  0.90482285865E+02 0.  0.
         13    1    3    3    0    0  0.31514546586E+02 -0.30138179528E+02  0.28264930674E+01  0.43697559873E+02  0.10566000000E+00 0.  1.
         22    1    1    0    0    0 -0.12358985904E+02 -0.12879786279E+02 -0.23802050142E+02  0.29751823778E+02  0.00000000000E+00 0. -1.
</event>
<event>
 5    1  0.1751027E-003  0.9118800E+02  0.7818608E-02  0.1130116E+00
         25   -1    0    0    0    0  0.00000000000E+00  0.00000000000E+00  0.99999998245E-14  0.12500000000E+03  0.12500000000E+03 0.  0.
        -13    1    3    3    0    0 -0.14450426776E+02  0.29776776466E+02  0.22802359188E+02  0.40192412210E+02  0.10566000000E+00 0. -1.
         23    2    1    0    0    0 -0.13319533524E+02 -0.22575380066E+02 -0.30865978003E+01  0.98607106176E+02  0.95009349771E+02 0.  0.
         13    1    3    3    0    0  0.11308932523E+01 -0.52352156533E+02 -0.25888956988E+02  0.58414693966E+02  0.10566000000E+00 0.  1.
         22    1    1    0    0    0  0.13319533524E+02  0.22575380066E+02  0.30865978003E+01  0.26392893824E+02  0.00000000000E+00 0.  1.
</event>
<event>
 5    1  0.1751027E-003  0.9118800E+02  0.7818608E-02  0.1130116E+00
         25   -1    0    0    0    0  0.00000000000E+00  0.00000000000E+00  0.99999998245E-14  0.12500000000E+03  0.12500000000E+03 0.  0.
        -13    1    3    3    0    0 -0.12461160850E+02  0.38804580753E+02 -0.54231313877E+01  0.41115660462E+02  0.10566000000E+00 0.  1.
         23    2    1    0    0    0 -0.13491186697E+02 -0.54945356682E+01  0.25834016864E+02  0.95341974644E+02  0.90611774405E+02 0.  0.
         13    1    3    3    0    0 -0.10300258475E+01 -0.44299116421E+02  0.31257148252E+02  0.54226314182E+02  0.10566000000E+00 0. -1.
         22    1    1    0    0    0  0.13491186697E+02  0.54945356682E+01 -0.25834016864E+02  0.29658025356E+02  0.00000000000E+00 0. -1.
</event>
<event>
 5    1  0.1751027E-003  0.9118800E+02  0.7818608E-02  0.1130116E+00
         25   -1    0    0    0    0  0.00000000000E+00  0.00000000000E+00  0.99999998245E-14  0.12500000000E+03  0.12500000000E+03 0.  0.
        -13    1    3    3    0    0 -0.21174398395E+02  0.31249385306E+02 -0.89184295614E+01  0.38786966616E+02  0.10566000000E+00 0. -1.
         23    2    1    0    0    0  0.17145159578E+02 -0.97306060819E+01 -0.21019755127E+02  0.96182101095E+02  0.91763420129E+02 0.  0.
         13    1    3    3    0    0  0.38319557973E+02 -0.40979991388E+02 -0.12101325566E+02  0.57395134479E+02  0.10566000000E+00 0.  1.
         22    1    1    0    0    0 -0.17145159578E+02  0.97306060819E+01  0.21019755127E+02  0.28817898905E+02  0.00000000000E+00 0.  1.
</event>
<event>
 5    1  0.1751027E-003  0.9118800E+02  0.7818608E-02  0.1130116E+00
         25   -1    0    0    0    0  0.00000000000E+00  0.00000000000E+00  0.99999998245E-14  0.12500000000E+03  0.12500000000E+03 0.  0.
        -13    1    3    3    0    0  0.36410531139E+02 -0.30904296431E+01 -0.15097404781E+01  0.36572776946E+02  0.10566000000E+00 0.  1.
         23    2    1    0    0    0 -0.15565390515E+02  0.20901983225E+02 -0.14361336878E+02  0.95243953865E+02  0.90476452552E+02 0.  0.
         13    1    3    3    0    0 -0.51975921654E+02  0.23992412868E+02 -0.12851596400E+02  0.58671176919E+02  0.10566000000E+00 0. -1.
         22    1    1    0    0    0  0.15565390515E+02 -0.20901983225E+02  0.14361336878E+02  0.29756046135E+02  0.00000000000E+00 0. -1.
</event>
<event>
 5    1  0.1751027E-003  0.9118800E+02  0.7818608E-02  0.1130116E+00
         25   -1    0    0    0    0  0.00000000000E+00  0.00000000000E+00  0.99999998245E-14  0.12500000000E+03  0.12500000000E+03 0.  0.
        -13    1    3    3    0    0 -0.10881560198E+02  0.45600725314E+02 -0.15394923775E+02  0.49344192603E+02  0.10566000000E+00 0. -1.
         23    2    1    0    0    0 -0.27803745165E+02  0.37015068964E+01 -0.11451033370E+02  0.94703538759E+02  0.89726722272E+02 0.  0.
         13    1    3    3    0    0 -0.16922184967E+02 -0.41899218418E+02  0.39438904052E+01  0.45359346156E+02  0.10566000000E+00 0.  1.
         22    1    1    0    0    0  0.27803745165E+02 -0.37015068964E+01  0.11451033370E+02  0.30296461241E+02  0.00000000000E+00 0.  1.
</event>
<event>
 5    1  0.1751027E-003  0.9118800E+02  0.7818608E-02  0.1130116E+00
         25   -1    0    0    0    0  0.00000000000E+00  0.00000000000E+00  0.99999998245E-14  0.12500000000E+03  0.12500000000E+03 0.  0.
        -13    1    3    3    0    0 -0.70532898230E+01  0.28755774938E+02 -0.99532725788E+01  0.31236553726E+02  0.10566000000E+00 0.  1.
         23    2    1    0    0    0  0.62245774288E+01 -0.30376974803E+02  0.48278438281E+01  0.93618253102E+02  0.88201832608E+02 0.  0.
         13    1    3    3    0    0  0.13277867252E+02 -0.59132749741E+02  0.14781116407E+02  0.62381699376E+02  0.10566000000E+00 0. -1.
         22    1    1    0    0    0 -0.62245774288E+01  0.30376974803E+02 -0.48278438281E+01  0.31381746898E+02  0.00000000000E+00 0. -1.
</event>
<event>
 5    1  0.1751027E-003  0.9118800E+02  0.7818608E-02  0.1130116E+00
         25   -1    0    0    0    0  0.00000000000E+00  0.00000000000E+00  0.99999998245E-14  0.12500000000E+03  0.12500000000E+03 0.  0.
        -13    1    3    3    0    0 -0.38632686086E+02  0.39895721117E+02  0.17728046815E+01  0.55563540188E+02  0.10566000000E+00 0. -1.
         23    2    1    0    0    0 -0.26598556706E+02  0.14456629670E+01  0.97477448141E+01  0.96634674526E+02  0.92377857907E+02 0.  0.
         13    1    3    3    0    0  0.12034129380E+02 -0.38450058150E+02  0.79749401326E+01  0.41071134339E+02  0.10566000000E+00 0.  1.
         22    1    1    0    0    0  0.26598556706E+02 -0.14456629670E+01 -0.97477448141E+01  0.28365325474E+02  0.00000000000E+00 0. -1.
</event>
<event>
 5    1  0.1751027E-003  0.9118800E+02  0.7818608E-02  0.1130116E+00
         25   -1    0    0    0    0  0.00000000000E+00  0.00000000000E+00  0.99999998245E-14  0.12500000000E+03  0.12500000000E+03 0.  0.
        -13    1    3    3    0    0 -0.53152304764E+01 -0.37113781981E+02  0.61704699332E+01  0.37996978185E+02  0.10566000000E+00 0. -1.
         23    2    1    0    0    0  0.15313270611E+02  0.15038119832E+02  0.19894296572E+02  0.95735271384E+02  0.91152717162E+02 0.  0.
         13    1    3    3    0    0  0.20628501087E+02  0.52151901813E+02  0.13723826639E+02  0.57738293199E+02  0.10566000000E+00 0.  1.
         22    1    1    0    0    0 -0.15313270611E+02 -0.15038119832E+02 -0.19894296572E+02  0.29264728616E+02  0.00000000000E+00 0.  1.
</event>
<event>
 5    1  0.1751027E-003  0.9118800E+02  0.7818608E-02  0.1130116E+00
         25   -1    0    0    0    0  0.00000000000E+00  0.00000000000E+00  0.99999998245E-14  0.12500000000E+03  0.12500000000E+03 0.  0.
        -13    1    3    3    0    0  0.56393123812E+02  0.73999864157E+01 -0.16817004347E+02  0.59310766405E+02  0.10566000000E+00 0. -1.
         23    2    1    0    0    0  0.25998005834E+02 -0.10674325853E+02 -0.63980128899E+01  0.96176882391E+02  0.91756310942E+02 0.  0.
         13    1    3    3    0    0 -0.30395117978E+02 -0.18074312269E+02  0.10418991457E+02  0.36866115986E+02  0.10566000000E+00 0.  1.
         22    1    1    0    0    0 -0.25998005834E+02  0.10674325853E+02  0.63980128899E+01  0.28823117609E+02  0.00000000000E+00 0. -1.
</event>
<event>
 5    1  0.1751027E-003  0.9118800E+02  0.7818608E-02  0.1130116E+00
         25   -1    0    0    0    0  0.00000000000E+00  0.00000000000E+00  0.99999998245E-14  0.12500000000E+03  0.12500000000E+03 0.  0.
        -13    1    3    3    0    0 -0.16862263027E+01  0.13266378907E+02 -0.37035057302E+02  0.39375713350E+02  0.10566000000E+00 0. -1.
         23    2    1    0    0    0  0.10246899579E+02  0.19733620792E+02  0.18207305140E+02  0.96261163890E+02  0.91871056228E+02 0.  0.
         13    1    3    3    0    0  0.11933125881E+02  0.64672418844E+01  0.55242362442E+02  0.56885450539E+02  0.10566000000E+00 0.  1.
         22    1    1    0    0    0 -0.10246899579E+02 -0.19733620792E+02 -0.18207305140E+02  0.28738836110E+02  0.00000000000E+00 0.  1.
</event>
<event>
 5    1  0.1751027E-003  0.9118800E+02  0.7818608E-02  0.1130116E+00
         25   -1    0    0    0    0  0.00000000000E+00  0.00000000000E+00  0.99999998245E-14  0.12500000000E+03  0.12500000000E+03 0.  0.
        -13    1    3    3    0    0 -0.38482509385E+02  0.25542278480E+02  0.30832866313E+02  0.55533668415E+02  0.10566000000E+00 0.  1.
         23    2    1    0    0    0 -0.26098336726E+02  0.27321116259E+01 -0.34495542617E+01  0.98533284330E+02  0.94912175628E+02 0.  0.
         13    1    3    3    0    0  0.12384172660E+02 -0.22810166854E+02 -0.34282420574E+02  0.42999615915E+02  0.10566000000E+00 0. -1.
         22    1    1    0    0    0  0.26098336726E+02 -0.27321116259E+01  0.34495542617E+01  0.26466715670E+02  0.00000000000E+00 0.  1.
</event>
<event>
 5    1  0.1751027E-003  0.9118800E+02  0.7818608E-02  0.1130116E+00
         25   -1    0    0    0    0  0.00000000000E+00  0.00000000000E+00  0.99999998245E-14  0.12500000000E+03  0.12500000000E+03 0.  0.
        -13    1    3    3    0    0  0.14999195222E+02  0.33076497201E+02 -0.26776971313E+01  0.36417190313E+02  0.10566000000E+00 0. -1.
         23    2    1    0    0    0 -0.69374102480E+01 -0.24201263621E+02  0.78061407700E+01  0.98641611287E+02  0.95054735925E+02 0.  0.
         13    1    3    3    0    0 -0.21936605470E+02 -0.57277760822E+02  0.10483837901E+02  0.62224420974E+02  0.10566000000E+00 0.  1.
         22    1    1    0    0    0  0.69374102480E+01  0.24201263621E+02 -0.78061407700E+01  0.26358388713E+02  0.00000000000E+00 0.  1.
</event>
<event>
 5    1  0.1751027E-003  0.9118800E+02  0.7818608E-02  0.1130116E+00
         25   -1    0    0    0    0  0.00000000000E+00  0.00000000000E+00  0.99999998245E-14  0.12500000000E+03  0.12500000000E+03 0.  0.
        -13    1    3    3    0    0 -0.18405634082E+02  0.68105017779E+01  0.28000855188E+02  0.34193703451E+02  0.10566000000E+00 0.  1.
         23    2    1    0    0    0  0.23958899393E+02  0.15293644030E+02 -0.12988321405E+02  0.93749065602E+02  0.88387026200E+02 0.  0.
         13    1    3    3    0    0  0.42364533475E+02  0.84831422520E+01 -0.40989176593E+02  0.59555362150E+02  0.10566000000E+00 0. -1.
         22    1    1    0    0    0 -0.23958899393E+02 -0.15293644030E+02  0.12988321405E+02  0.31250934398E+02  0.00000000000E+00 0. -1.
</event>
<event>
 5    1  0.1751027E-003  0.9118800E+02  0.7818608E-02  0.1130116E+00
         25   -1    0    0    0    0  0.00000000000E+00  0.00000000000E+00  0.99999998245E-14  0.12500000000E+03  0.12500000000E+03 0.  0.
        -13    1    3    3    0    0 -0.43796057836E+02  0.20943549432E+02  0.36230894316E+01  0.48681258056E+02  0.10566000000E+00 0. -1.
         23    2    1    0    0    0 -0.18402265935E+02 -0.56544544057E+01 -0.23679396409E+02  0.94482299227E+02  0.89417978096E+02 0.  0.
         13    1    3    3    0    0  0.25393791901E+02 -0.26598003838E+02 -0.27302485841E+02  0.45801041171E+02  0.10566000000E+00 0.  1.
         22    1    1    0    0    0  0.18402265935E+02  0.56544544057E+01  0.23679396409E+02  0.30517700773E+02  0.00000000000E+00 0. -1.
</event>
<event>
 5    1  0.1751027E-003  0.9118800E+02  0.7818608E-02  0.1130116E+00
         25   -1    0    0    0    0  0.00000000000E+00  0.00000000000E+00  0.99999998245E-14  0.12500000000E+03  0.12500000000E+03 0.  0.
        -13    1    3    3    0    0 -0.40295558825E+01 -0.42820412362E+02  0.45207790656E+02  0.62398561967E+02  0.10566000000E+00 0. -1.
         23    2    1    0    0    0 -0.89046738273E+00 -0.22190781009E+02  0.20097422070E+02  0.95047870396E+02  0.90205141754E+02 0.  0.
         13    1    3    3    0    0  0.31390884998E+01  0.20629631352E+02 -0.25110368586E+02  0.32649308429E+02  0.10566000000E+00 0.  1.
         22    1    1    0    0    0  0.89046738273E+00  0.22190781009E+02 -0.20097422070E+02  0.29952129604E+02  0.00000000000E+00 0. -1.
</event>
<event>
 5    1  0.1751027E-003  0.9118800E+02  0.7818608E-02  0.1130116E+00
         25   -1    0    0    0    0  0.00000000000E+00  0.00000000000E+00  0.99999998245E-14  0.12500000000E+03  0.12500000000E+03 0.  0.
        -13    1    3    3    0    0 -0.46704515122E+01 -0.41400906656E+02  0.35647930914E+01  0.41815871425E+02  0.10566000000E+00 0.  1.
         23    2    1    0    0    0  0.11208084198E+02  0.59247019976E+01  0.25639508344E+02  0.96397419115E+02  0.92056258770E+02 0.  0.
         13    1    3    3    0    0  0.15878535710E+02  0.47325608653E+02  0.22074715253E+02  0.54581547690E+02  0.10566000000E+00 0. -1.
         22    1    1    0    0    0 -0.11208084198E+02 -0.59247019976E+01 -0.25639508344E+02  0.28602580885E+02  0.00000000000E+00 0. -1.
</event>
<event>
 5    1  0.1751027E-003  0.9118800E+02  0.7818608E-02  0.1130116E+00
         25   -1    0    0    0    0  0.00000000000E+00  0.00000000000E+00  0.99999998245E-14  0.12500000000E+03  0.12500000000E+03 0.  0.
        -13    1    3    3    0    0  0.10731476254E+02  0.20722661901E+02 -0.54935027283E+02  0.59686360967E+02  0.10566000000E+00 0. -1.
         23    2    1    0    0    0 -0.46985738032E+01  0.25716408073E+01 -0.31300564538E+02  0.93244445011E+02  0.87670469674E+02 0.  0.
         13    1    3    3    0    0 -0.15430050057E+02 -0.18151021093E+02  0.23634462745E+02  0.33558084045E+02  0.10566000000E+00 0.  1.
         22    1    1    0    0    0  0.46985738032E+01 -0.25716408073E+01  0.31300564538E+02  0.31755554989E+02  0.00000000000E+00 0. -1.
</event>
<event>
 5    1  0.1751027E-003  0.9118800E+02  0.7818608E-02  0.1130116E+00
         25   -1    0    0    0    0  0.00000000000E+00  0.00000000000E+00  0.99999998245E-14  0.12500000000E+03  0.12500000000E+03 0.  0.
        -13    1    3    3    0    0  0.17797665622E+02  0.36576698322E+02 -0.19645040791E+02  0.45172453481E+02  0.10566000000E+00 0. -1.
         23    2    1    0    0    0  0.20298208066E+02  0.48683190905E+01  0.20062108480E+02  0.96048212868E+02  0.91580856171E+02 0.  0.
         13    1    3    3    0    0  0.25005424436E+01 -0.31708379232E+02  0.39707149271E+02  0.50875759388E+02  0.10566000000E+00 0.  1.
         22    1    1    0    0    0 -0.20298208066E+02 -0.48683190905E+01 -0.20062108480E+02  0.28951787132E+02  0.00000000000E+00 0.  1.
</event>
<event>
 5    1  0.1751027E-003  0.9118800E+02  0.7818608E-02  0.1130116E+00
         25   -1    0    0    0    0  0.00000000000E+00  0.00000000000E+00  0.99999998245E-14  0.12500000000E+03  0.12500000000E+03 0.  0.
        -13    1    3    3    0    0  0.23570384013E+02 -0.26685408407E+02 -0.36094016514E+02  0.50699735862E+02  0.10566000000E+00 0.  1.
         23    2    1    0    0    0 -0.15973293230E+02 -0.10191380064E+02 -0.22357128366E+02  0.95693831485E+02  0.91095871867E+02 0.  0.
         13    1    3    3    0    0 -0.39543677243E+02  0.16494028343E+02  0.13736888147E+02  0.44994095623E+02  0.10566000000E+00 0. -1.
         22    1    1    0    0    0  0.15973293230E+02  0.10191380064E+02  0.22357128366E+02  0.29306168515E+02  0.00000000000E+00 0.  1.
</event>
<event>
 5    1  0.1751027E-003  0.9118800E+02  0.7818608E-02  0.1130116E+00
         25   -1    0    0    0    0  0.00000000000E+00  0.00000000000E+00  0.99999998245E-14  0.12500000000E+03  0.12500000000E+03 0.  0.
        -13    1    3    3    0    0 -0.10277681986E+02 -0.37551825391E+02 -0.24448591697E+02  0.45972982687E+02  0.10566000000E+00 0. -1.
         23    2    1    0    0    0  0.24401787203E+02 -0.29313133606E+01 -0.15933146486E+02  0.95709985086E+02  0.91118034831E+02 0.  0.
         13    1    3    3    0    0  0.34679469188E+02  0.34620512031E+02  0.85154452101E+01  0.49737002399E+02  0.10566000000E+00 0.  1.
         22    1    1    0    0    0 -0.24401787203E+02  0.29313133606E+01  0.15933146486E+02  0.29290014914E+02  0.00000000000E+00 0. -1.
</event>
<event>
 5    1  0.1751027E-003  0.9118800E+02  0.7818608E-02  0.1130116E+00
         25   -1    0    0    0    0  0.00000000000E+00  0.00000000000E+00  0.99999998245E-14  0.12500000000E+03  0.12500000000E+03 0.  0.
        -13    1    3    3    0    0 -0.90007151544E+01  0.39264669183E+02 -0.14264697893E+01  0.40308474288E+02  0.10566000000E+00 0. -1.
         23    2    1    0    0    0 -0.24222276440E+02 -0.14753963547E+02  0.22350733303E+01  0.96550155201E+02  0.92263420706E+02 0.  0.
         13    1    3    3    0    0 -0.15221561286E+02 -0.54018632729E+02  0.36615431196E+01  0.56241680914E+02  0.10566000000E+00 0.  1.
         22    1    1    0    0    0  0.24222276440E+02  0.14753963547E+02 -0.22350733303E+01  0.28449844799E+02  0.00000000000E+00 0.  1.
</event>
<event>
 5    1  0.1751027E-003  0.9118800E+02  0.7818608E-02  0.1130116E+00
         25   -1    0    0    0    0  0.00000000000E+00  0.00000000000E+00  0.99999998245E-14  0.12500000000E+03  0.12500000000E+03 0.  0.
        -13    1    3    3    0    0 -0.10113409532E+01 -0.51449648469E+02 -0.25645467305E+02  0.57496002430E+02  0.10566000000E+00 0. -1.
         23    2    1    0    0    0  0.44071451158E+01 -0.13076436746E+02 -0.25219238153E+02  0.96252372288E+02  0.91859093573E+02 0.  0.
         13    1    3    3    0    0  0.54184860690E+01  0.38373211723E+02  0.42622915236E+00  0.38756369858E+02  0.10566000000E+00 0.  1.
         22    1    1    0    0    0 -0.44071451158E+01  0.13076436746E+02  0.25219238153E+02  0.28747627712E+02  0.00000000000E+00 0. -1.
</event>
<event>
 5    1  0.1751027E-003  0.9118800E+02  0.7818608E-02  0.1130116E+00
         25   -1    0    0    0    0  0.00000000000E+00  0.00000000000E+00  0.99999998245E-14  0.12500000000E+03  0.12500000000E+03 0.  0.
        -13    1    3    3    0    0  0.18834895294E+02  0.28250864423E+02 -0.17977504768E+02  0.38419610397E+02  0.10566000000E+00 0. -1.
         23    2    1    0    0    0  0.65420375077E+01 -0.17112207125E+01  0.28857157741E+02  0.95361138956E+02  0.90638207942E+02 0.  0.
         13    1    3    3    0    0 -0.12292857786E+02 -0.29962085135E+02  0.46834662510E+02  0.56941528559E+02  0.10566000000E+00 0.  1.
         22    1    1    0    0    0 -0.65420375077E+01  0.17112207125E+01 -0.28857157741E+02  0.29638861044E+02  0.00000000000E+00 0.  1.
</event>
<event>
 5    1  0.1751027E-003  0.9118800E+02  0.7818608E-02  0.1130116E+00
         25   -1    0    0    0    0  0.00000000000E+00  0.00000000000E+00  0.99999998245E-14  0.12500000000E+03  0.12500000000E+03 0.  0.
        -13    1    3    3    0    0 -0.19170189951E+02  0.50881189586E+02  0.10793177338E+02  0.55433703444E+02  0.10566000000E+00 0.  1.
         23    2    1    0    0    0 -0.24256422257E+02  0.10012932849E+02  0.10813875217E+02  0.96617386622E+02  0.92354462023E+02 0.  0.
         13    1    3    3    0    0 -0.50862323060E+01 -0.40868256736E+02  0.20697878869E-01  0.41183683179E+02  0.10566000000E+00 0. -1.
         22    1    1    0    0    0  0.24256422257E+02 -0.10012932849E+02 -0.10813875217E+02  0.28382613378E+02  0.00000000000E+00 0.  1.
</event>
<event>
 5    1  0.1751027E-003  0.9118800E+02  0.7818608E-02  0.1130116E+00
         25   -1    0    0    0    0  0.00000000000E+00  0.00000000000E+00  0.99999998245E-14  0.12500000000E+03  0.12500000000E+03 0.  0.
        -13    1    3    3    0    0  0.25263758205E+02  0.29314808073E+02  0.51817858492E+01  0.39044558130E+02  0.10566000000E+00 0. -1.
         23    2    1    0    0    0 -0.86138410248E+01 -0.97275449984E+01  0.26910255298E+02  0.95117141551E+02  0.90301081875E+02 0.  0.
         13    1    3    3    0    0 -0.33877599229E+02 -0.39042353071E+02  0.21728469449E+02  0.56072583421E+02  0.10566000000E+00 0.  1.
         22    1    1    0    0    0  0.86138410248E+01  0.97275449984E+01 -0.26910255298E+02  0.29882858449E+02  0.00000000000E+00 0.  1.
</event>
<event>
 5    1  0.1751027E-003  0.9118800E+02  0.7818608E-02  0.1130116E+00
         25   -1    0    0    0    0  0.00000000000E+00  0.00000000000E+00  0.99999998245E-14  0.12500000000E+03  0.12500000000E+03 0.  0.
        -13    1    3    3    0    0  0.27743741171E+02 -0.15431598989E+02  0.21716600438E+02  0.38463896320E+02  0.10566000000E+00 0.  1.
         23    2    1    0    0    0 -0.33010310133E+01  0.29164465370E+02  0.94082285406E+01  0.94178293195E+02  0.88991984464E+02 0.  0.
         13    1    3    3    0    0 -0.31044772184E+02  0.44596064360E+02 -0.12308371898E+02  0.55714396875E+02  0.10566000000E+00 0. -1.
         22    1    1    0    0    0  0.33010310133E+01 -0.29164465370E+02 -0.94082285406E+01  0.30821706805E+02  0.00000000000E+00 0. -1.
</event>
<event>
 5    1  0.1751027E-003  0.9118800E+02  0.7818608E-02  0.1130116E+00
         25   -1    0    0    0    0  0.00000000000E+00  0.00000000000E+00  0.99999998245E-14  0.12500000000E+03  0.12500000000E+03 0.  0.
        -13    1    3    3    0    0  0.46031999182E+02 -0.19360886144E+02 -0.18993911837E+02  0.53428164032E+02  0.10566000000E+00 0.  1.
         23    2    1    0    0    0  0.27033531248E+01 -0.16853721880E+02 -0.22256288095E+02  0.96951855336E+02  0.92806054943E+02 0.  0.
         13    1    3    3    0    0 -0.43328646057E+02  0.25071642635E+01 -0.32623762581E+01  0.43523691304E+02  0.10566000000E+00 0. -1.
         22    1    1    0    0    0 -0.27033531248E+01  0.16853721880E+02  0.22256288095E+02  0.28048144664E+02  0.00000000000E+00 0.  1.
</event>
<event>
 5    1  0.1751027E-003  0.9118800E+02  0.7818608E-02  0.1130116E+00
         25   -1    0    0    0    0  0.00000000000E+00  0.00000000000E+00  0.99999998245E-14  0.12500000000E+03  0.12500000000E+03 0.  0.
        -13    1    3    3    0    0 -0.46972354857E+02 -0.22909535036E+02 -0.10982901771E+02  0.53403035604E+02  0.10566000000E+00 0.  1.
         23    2    1    0    0    0 -0.16825163762E+02  0.45126291384E+01 -0.23236634121E+02  0.95958803010E+02  0.91458737977E+02 0.  0.
         13    1    3    3    0    0  0.30147191095E+02  0.27422164174E+02 -0.12253732350E+02  0.42555767405E+02  0.10566000000E+00 0. -1.
         22    1    1    0    0    0  0.16825163762E+02 -0.45126291384E+01  0.23236634121E+02  0.29041196990E+02  0.00000000000E+00 0. -1.
</event>
<event>
 5    1  0.1751027E-003  0.9118800E+02  0.7818608E-02  0.1130116E+00
         25   -1    0    0    0    0  0.00000000000E+00  0.00000000000E+00  0.99999998245E-14  0.12500000000E+03  0.12500000000E+03 0.  0.
        -13    1    3    3    0    0  0.17118695466E+02 -0.39836697725E+02 -0.11606859325E+02  0.44885883834E+02  0.10566000000E+00 0.  1.
         23    2    1    0    0    0  0.29711940964E+02  0.49120727591E+01  0.54349216433E+01  0.94398263645E+02  0.89300425034E+02 0.  0.
         13    1    3    3    0    0  0.12593245498E+02  0.44748770484E+02  0.17041780969E+02  0.49512379812E+02  0.10566000000E+00 0. -1.
         22    1    1    0    0    0 -0.29711940964E+02 -0.49120727591E+01 -0.54349216433E+01  0.30601736355E+02  0.00000000000E+00 0. -1.
</event>
<event>
 5    1  0.1751027E-003  0.9118800E+02  0.7818608E-02  0.1130116E+00
         25   -1    0    0    0    0  0.00000000000E+00  0.00000000000E+00  0.99999998245E-14  0.12500000000E+03  0.12500000000E+03 0.  0.
        -13    1    3    3    0    0 -0.47424323374E+02  0.30889798957E+02 -0.25697265749E+02  0.62157917903E+02  0.10566000000E+00 0.  1.
         23    2    1    0    0    0 -0.24126174270E+02  0.10866903527E+02 -0.14287219968E+02  0.94928642672E+02  0.90039772701E+02 0.  0.
         13    1    3    3    0    0  0.23298149104E+02 -0.20022895431E+02  0.11410045781E+02  0.32770724769E+02  0.10566000000E+00 0. -1.
         22    1    1    0    0    0  0.24126174270E+02 -0.10866903527E+02  0.14287219968E+02  0.30071357328E+02  0.00000000000E+00 0.  1.
</event>
<event>
 5    1  0.1751027E-003  0.9118800E+02  0.7818608E-02  0.1130116E+00
         25   -1    0    0    0    0  0.00000000000E+00  0.00000000000E+00  0.99999998245E-14  0.12500000000E+03  0.12500000000E+03 0.  0.
        -13    1    3    3    0    0 -0.43281742663E+02  0.23514647854E+02  0.14803137116E+02  0.51433373836E+02  0.10566000000E+00 0. -1.
         23    2    1    0    0    0 -0.24574984723E+02 -0.10888714101E+02 -0.82594919699E+01  0.96880377376E+02  0.92709731658E+02 0.  0.
         13    1    3    3    0    0  0.18706757940E+02 -0.34403361955E+02 -0.23062629085E+02  0.45447003540E+02  0.10566000000E+00 0.  1.
         22    1    1    0    0    0  0.24574984723E+02  0.10888714101E+02  0.82594919699E+01  0.28119622624E+02  0.00000000000E+00 0. -1.
</event>
<event>
 5    1  0.1751027E-003  0.9118800E+02  0.7818608E-02  0.1130116E+00
         25   -1    0    0    0    0  0.00000000000E+00  0.00000000000E+00  0.99999998245E-14  0.12500000000E+03  0.12500000000E+03 0.  0.
        -13    1    3    3    0    0  0.24885851533E+02  0.41290372237E+02  0.34566352933E+02  0.59321533739E+02  0.10566000000E+00 0. -1.
         23    2    1    0    0    0  0.13592673631E+02  0.24157744084E+02  0.27993366348E+01  0.97139747646E+02  0.93058782022E+02 0.  0.
         13    1    3    3    0    0 -0.11293177902E+02 -0.17132628154E+02 -0.31767016298E+02  0.37818213907E+02  0.10566000000E+00 0.  1.
         22    1    1    0    0    0 -0.13592673631E+02 -0.24157744084E+02 -0.27993366348E+01  0.27860252354E+02  0.00000000000E+00 0. -1.
</event>
<event>
 5    1  0.1751027E-003  0.9118800E+02  0.7818608E-02  0.1130116E+00
         25   -1    0    0    0    0  0.00000000000E+00  0.00000000000E+00  0.99999998245E-14  0.12500000000E+03  0.12500000000E+03 0.  0.
        -13    1    3    3    0    0  0.35388025450E+02  0.15337894676E+02 -0.12003111655E+02  0.40393677869E+02  0.10566000000E+00 0.  1.
         23    2    1    0    0    0  0.90989889626E+01 -0.25103295996E+02  0.13634625821E+02  0.95018837726E+02  0.90164901328E+02 0.  0.
         13    1    3    3    0    0 -0.26289036488E+02 -0.40441190672E+02  0.25637737477E+02  0.54625159857E+02  0.10566000000E+00 0. -1.
         22    1    1    0    0    0 -0.90989889626E+01  0.25103295996E+02 -0.13634625821E+02  0.29981162274E+02  0.00000000000E+00 0. -1.
</event>
<event>
 5    1  0.1751027E-003  0.9118800E+02  0.7818608E-02  0.1130116E+00
         25   -1    0    0    0    0  0.00000000000E+00  0.00000000000E+00  0.99999998245E-14  0.12500000000E+03  0.12500000000E+03 0.  0.
        -13    1    3    3    0    0 -0.58879726234E+01 -0.37963257213E+02  0.12797769915E+02  0.40492853674E+02  0.10566000000E+00 0.  1.
         23    2    1    0    0    0  0.22571076472E+02  0.89875994848E+01  0.16676525755E+02  0.95532442435E+02  0.90874147087E+02 0.  0.
         13    1    3    3    0    0  0.28459049095E+02  0.46950856698E+02  0.38787558394E+01  0.55039588761E+02  0.10566000000E+00 0. -1.
         22    1    1    0    0    0 -0.22571076472E+02 -0.89875994848E+01 -0.16676525755E+02  0.29467557565E+02  0.00000000000E+00 0. -1.
</event>
<event>
 5    1  0.1751027E-003  0.9118800E+02  0.7818608E-02  0.1130116E+00
         25   -1    0    0    0    0  0.00000000000E+00  0.00000000000E+00  0.99999998245E-14  0.12500000000E+03  0.12500000000E+03 0.  0.
        -13    1    3    3    0    0  0.29762746496E+01  0.48764280858E+01  0.52444575782E+02  0.52754928249E+02  0.10566000000E+00 0.  1.
         23    2    1    0    0    0 -0.15285954436E+02 -0.15386204294E+02  0.17220878702E+02  0.97306059347E+02  0.93281910555E+02 0.  0.
         13    1    3    3    0    0 -0.18262229086E+02 -0.20262632379E+02 -0.35223697079E+02  0.44551131098E+02  0.10566000000E+00 0. -1.
         22    1    1    0    0    0  0.15285954436E+02  0.15386204294E+02 -0.17220878702E+02  0.27693940653E+02  0.00000000000E+00 0. -1.
</event>
<event>
 5    1  0.1751027E-003  0.9118800E+02  0.7818608E-02  0.1130116E+00
         25   -1    0    0    0    0  0.00000000000E+00  0.00000000000E+00  0.99999998245E-14  0.12500000000E+03  0.12500000000E+03 0.  0.
        -13    1    3    3    0    0  0.32256468882E+02  0.52071146631E+02  0.25728051031E+01  0.61306725458E+02  0.10566000000E+00 0. -1.
         23    2    1    0    0    0  0.23761948318E+02  0.39991663673E+02 -0.55346808099E+01  0.78153484197E+02  0.62556942455E+02 0.  0.
         13    1    3    3    0    0 -0.84945205639E+01 -0.12079482959E+02 -0.81074859129E+01  0.16846758739E+02  0.10566000000E+00 0.  1.
         22    1    1    0    0    0 -0.23761948318E+02 -0.39991663673E+02  0.55346808099E+01  0.46846515803E+02  0.00000000000E+00 0. -1.
</event>
<event>
 5    1  0.1751027E-003  0.9118800E+02  0.7818608E-02  0.1130116E+00
         25   -1    0    0    0    0  0.00000000000E+00  0.00000000000E+00  0.99999998245E-14  0.12500000000E+03  0.12500000000E+03 0.  0.
        -13    1    3    3    0    0 -0.30525363090E+01 -0.10553433334E+02 -0.45823333501E+02  0.47121990517E+02  0.10566000000E+00 0. -1.
         23    2    1    0    0    0  0.71787730151E+01  0.24782394709E+02 -0.14725476967E+02  0.95292399265E+02  0.90543358764E+02 0.  0.
         13    1    3    3    0    0  0.10231309324E+02  0.35335828043E+02  0.31097856535E+02  0.48170408749E+02  0.10566000000E+00 0.  1.
         22    1    1    0    0    0 -0.71787730151E+01 -0.24782394709E+02  0.14725476967E+02  0.29707600735E+02  0.00000000000E+00 0. -1.
</event>
<event>
 5    1  0.1751027E-003  0.9118800E+02  0.7818608E-02  0.1130116E+00
         25   -1    0    0    0    0  0.00000000000E+00  0.00000000000E+00  0.99999998245E-14  0.12500000000E+03  0.12500000000E+03 0.  0.
        -13    1    3    3    0    0 -0.41025259967E+02  0.24459467045E+02  0.13717456743E+02  0.49694237765E+02  0.10566000000E+00 0. -1.
         23    2    1    0    0    0  0.25979583953E+01  0.13137325272E+02  0.25429442220E+02  0.96259867176E+02  0.91869291899E+02 0.  0.
         13    1    3    3    0    0  0.43623218362E+02 -0.11322141773E+02  0.11711985477E+02  0.46565629411E+02  0.10566000000E+00 0.  1.
         22    1    1    0    0    0 -0.25979583953E+01 -0.13137325272E+02 -0.25429442220E+02  0.28740132824E+02  0.00000000000E+00 0. -1.
</event>
<event>
 5    1  0.1751027E-003  0.9118800E+02  0.7818608E-02  0.1130116E+00
         25   -1    0    0    0    0  0.00000000000E+00  0.00000000000E+00  0.99999998245E-14  0.12500000000E+03  0.12500000000E+03 0.  0.
        -13    1    3    3    0    0 -0.12777115780E+02  0.30204526159E+02 -0.22155511734E+02  0.39578352068E+02  0.10566000000E+00 0. -1.
         23    2    1    0    0    0 -0.21975809109E+02 -0.16879141549E+02  0.78954277405E+01  0.96187166321E+02  0.91770319713E+02 0.  0.
         13    1    3    3    0    0 -0.91986933290E+01 -0.47083667708E+02  0.30050939475E+02  0.56608814253E+02  0.10566000000E+00 0.  1.
         22    1    1    0    0    0  0.21975809109E+02  0.16879141549E+02 -0.78954277405E+01  0.28812833679E+02  0.00000000000E+00 0.  1.
</event>
<event>
 5    1  0.1751027E-003  0.9118800E+02  0.7818608E-02  0.1130116E+00
         25   -1    0    0    0    0  0.00000000000E+00  0.00000000000E+00  0.99999998245E-14  0.12500000000E+03  0.12500000000E+03 0.  0.
        -13    1    3    3    0    0 -0.52586162689E+02  0.10030787671E+02 -0.31382622449E+02  0.62054825465E+02  0.10566000000E+00 0.  1.
         23    2    1    0    0    0 -0.22871979016E+02  0.73439697455E+01 -0.19059802717E+02  0.94335078749E+02  0.89211936910E+02 0.  0.
         13    1    3    3    0    0  0.29714183673E+02 -0.26868179257E+01  0.12322819733E+02  0.32280253284E+02  0.10566000000E+00 0. -1.
         22    1    1    0    0    0  0.22871979016E+02 -0.73439697455E+01  0.19059802717E+02  0.30664921251E+02  0.00000000000E+00 0.  1.
</event>
<event>
 5    1  0.1751027E-003  0.9118800E+02  0.7818608E-02  0.1130116E+00
         25   -1    0    0    0    0  0.00000000000E+00  0.00000000000E+00  0.99999998245E-14  0.12500000000E+03  0.12500000000E+03 0.  0.
        -13    1    3    3    0    0  0.30275403295E+02 -0.12051003691E+02  0.37594517801E+02  0.49751237848E+02  0.10566000000E+00 0.  1.
         23    2    1    0    0    0 -0.72895326999E+01  0.11339489596E+02  0.26338071203E+02  0.95412581965E+02  0.90709125733E+02 0.  0.
         13    1    3    3    0    0 -0.37564935995E+02  0.23390493287E+02 -0.11256446598E+02  0.45661344117E+02  0.10566000000E+00 0. -1.
         22    1    1    0    0    0  0.72895326999E+01 -0.11339489596E+02 -0.26338071203E+02  0.29587418035E+02  0.00000000000E+00 0.  1.
</event>
<event>
 5    1  0.1751027E-003  0.9118800E+02  0.7818608E-02  0.1130116E+00
         25   -1    0    0    0    0  0.00000000000E+00  0.00000000000E+00  0.99999998245E-14  0.12500000000E+03  0.12500000000E+03 0.  0.
        -13    1    3    3    0    0 -0.29752478685E+02 -0.88502556885E+01  0.16992400698E+02  0.35387707741E+02  0.10566000000E+00 0. -1.
         23    2    1    0    0    0  0.18594874454E+02 -0.36668408278E+01 -0.20717287747E+02  0.96921162965E+02  0.92764706335E+02 0.  0.
         13    1    3    3    0    0  0.48347353139E+02  0.51834148607E+01 -0.37709688445E+02  0.61533455224E+02  0.10566000000E+00 0.  1.
         22    1    1    0    0    0 -0.18594874454E+02  0.36668408278E+01  0.20717287747E+02  0.28078837035E+02  0.00000000000E+00 0.  1.
</event>
<event>
 5    1  0.1751027E-003  0.9118800E+02  0.7818608E-02  0.1130116E+00
         25   -1    0    0    0    0  0.00000000000E+00  0.00000000000E+00  0.99999998245E-14  0.12500000000E+03  0.12500000000E+03 0.  0.
        -13    1    3    3    0    0  0.33507434691E+02  0.24891816830E+02  0.93435718517E+01  0.42774574500E+02  0.10566000000E+00 0. -1.
         23    2    1    0    0    0 -0.33088536885E+01 -0.10172951213E+02  0.26490601870E+02  0.96430970675E+02  0.92101806001E+02 0.  0.
         13    1    3    3    0    0 -0.36816288379E+02 -0.35064768044E+02  0.17147030019E+02  0.53656396175E+02  0.10566000000E+00 0.  1.
         22    1    1    0    0    0  0.33088536885E+01  0.10172951213E+02 -0.26490601870E+02  0.28569029325E+02  0.00000000000E+00 0.  1.
</event>
<event>
 5    1  0.1751027E-003  0.9118800E+02  0.7818608E-02  0.1130116E+00
         25   -1    0    0    0    0  0.00000000000E+00  0.00000000000E+00  0.99999998245E-14  0.12500000000E+03  0.12500000000E+03 0.  0.
        -13    1    3    3    0    0 -0.85651177284E+01  0.22419061674E+01  0.37497716864E+02  0.38528915363E+02  0.10566000000E+00 0. -1.
         23    2    1    0    0    0 -0.17582109739E+02 -0.13597229467E+02 -0.17654798318E+02  0.96615019188E+02  0.92351257690E+02 0.  0.
         13    1    3    3    0    0 -0.90169920101E+01 -0.15839135635E+02 -0.55152515183E+02  0.58086103825E+02  0.10566000000E+00 0.  1.
         22    1    1    0    0    0  0.17582109739E+02  0.13597229467E+02  0.17654798318E+02  0.28384980812E+02  0.00000000000E+00 0. -1.
</event>
<event>
 5    1  0.1751027E-003  0.9118800E+02  0.7818608E-02  0.1130116E+00
         25   -1    0    0    0    0  0.00000000000E+00  0.00000000000E+00  0.99999998245E-14  0.12500000000E+03  0.12500000000E+03 0.  0.
        -13    1    3    3    0    0 -0.33594554064E+02 -0.10781534205E+02  0.57471881660E+01  0.35747403799E+02  0.10566000000E+00 0.  1.
         23    2    1    0    0    0  0.14546493933E+02  0.24458909526E+02  0.79612919731E+01  0.95449688482E+02  0.90760245264E+02 0.  0.
         13    1    3    3    0    0  0.48141047997E+02  0.35240443731E+02  0.22141038071E+01  0.59702284682E+02  0.10566000000E+00 0. -1.
         22    1    1    0    0    0 -0.14546493933E+02 -0.24458909526E+02 -0.79612919731E+01  0.29550311518E+02  0.00000000000E+00 0. -1.
</event>
<event>
 5    1  0.1751027E-003  0.9118800E+02  0.7818608E-02  0.1130116E+00
         25   -1    0    0    0    0  0.00000000000E+00  0.00000000000E+00  0.99999998245E-14  0.12500000000E+03  0.12500000000E+03 0.  0.
        -13    1    3    3    0    0  0.14568960814E+02 -0.98774934852E+01 -0.54683117351E+02  0.57446270410E+02  0.10566000000E+00 0.  1.
         23    2    1    0    0    0 -0.95167080030E+01  0.21024393413E+01 -0.28067212017E+02  0.95288783720E+02  0.90538367171E+02 0.  0.
         13    1    3    3    0    0 -0.24085668817E+02  0.11979932826E+02  0.26615905333E+02  0.37842513310E+02  0.10566000000E+00 0. -1.
         22    1    1    0    0    0  0.95167080030E+01 -0.21024393413E+01  0.28067212017E+02  0.29711216280E+02  0.00000000000E+00 0. -1.
</event>
<event>
 5    1  0.1751027E-003  0.9118800E+02  0.7818608E-02  0.1130116E+00
         25   -1    0    0    0    0  0.00000000000E+00  0.00000000000E+00  0.99999998245E-14  0.12500000000E+03  0.12500000000E+03 0.  0.
        -13    1    3    3    0    0  0.25469548991E+02  0.70687110357E+01  0.54287320057E+02  0.60380368370E+02  0.10566000000E+00 0.  1.
         23    2    1    0    0    0  0.20145369342E+01  0.10148327225E+02  0.24399610242E+02  0.98497398533E+02  0.94864902010E+02 0.  0.
         13    1    3    3    0    0 -0.23455012057E+02  0.30796161893E+01 -0.29887709814E+02  0.38117030163E+02  0.10566000000E+00 0. -1.
         22    1    1    0    0    0 -0.20145369342E+01 -0.10148327225E+02 -0.24399610242E+02  0.26502601467E+02  0.00000000000E+00 0.  1.
</event>
<event>
 5    1  0.1751027E-003  0.9118800E+02  0.7818608E-02  0.1130116E+00
         25   -1    0    0    0    0  0.00000000000E+00  0.00000000000E+00  0.99999998245E-14  0.12500000000E+03  0.12500000000E+03 0.  0.
        -13    1    3    3    0    0  0.34224229996E+02 -0.17313754714E+02  0.22589131529E+02  0.44512290981E+02  0.10566000000E+00 0. -1.
         23    2    1    0    0    0  0.11268463104E+02 -0.89297649039E+01 -0.23942942945E+02  0.97071815690E+02  0.92967488524E+02 0.  0.
         13    1    3    3    0    0 -0.22955766892E+02  0.83839898098E+01 -0.46532074474E+02  0.52559524709E+02  0.10566000000E+00 0.  1.
         22    1    1    0    0    0 -0.11268463104E+02  0.89297649039E+01  0.23942942945E+02  0.27928184310E+02  0.00000000000E+00 0.  1.
</event>
<event>
 5    1  0.1751027E-003  0.9118800E+02  0.7818608E-02  0.1130116E+00
         25   -1    0    0    0    0  0.00000000000E+00  0.00000000000E+00  0.99999998245E-14  0.12500000000E+03  0.12500000000E+03 0.  0.
        -13    1    3    3    0    0 -0.13956771259E+02  0.32753661490E+02  0.49656399276E+02  0.61101251690E+02  0.10566000000E+00 0.  1.
         23    2    1    0    0    0 -0.12797725216E+02  0.85326729059E+01  0.24730224049E+02  0.95876602892E+02  0.91346322985E+02 0.  0.
         13    1    3    3    0    0  0.11590460429E+01 -0.24220988584E+02 -0.24926175227E+02  0.34775351202E+02  0.10566000000E+00 0. -1.
         22    1    1    0    0    0  0.12797725216E+02 -0.85326729059E+01 -0.24730224049E+02  0.29123397108E+02  0.00000000000E+00 0.  1.
</event>
<event>
 5    1  0.1751027E-003  0.9118800E+02  0.7818608E-02  0.1130116E+00
         25   -1    0    0    0    0  0.00000000000E+00  0.00000000000E+00  0.99999998245E-14  0.12500000000E+03  0.12500000000E+03 0.  0.
        -13    1    3    3    0    0  0.60191015125E+01  0.24989662625E+02  0.44632454872E+02  0.51505145501E+02  0.10566000000E+00 0.  1.
         23    2    1    0    0    0  0.18835892133E+02  0.29766521425E+02  0.10552220367E+02  0.88227918405E+02  0.80199623448E+02 0.  0.
         13    1    3    3    0    0  0.12816790620E+02  0.47768588000E+01 -0.34080234505E+02  0.36722772904E+02  0.10566000000E+00 0. -1.
         22    1    1    0    0    0 -0.18835892133E+02 -0.29766521425E+02 -0.10552220367E+02  0.36772081595E+02  0.00000000000E+00 0.  1.
</event>
<event>
 5    1  0.1751027E-003  0.9118800E+02  0.7818608E-02  0.1130116E+00
         25   -1    0    0    0    0  0.00000000000E+00  0.00000000000E+00  0.99999998245E-14  0.12500000000E+03  0.12500000000E+03 0.  0.
        -13    1    3    3    0    0 -0.47558123646E+01 -0.28648813439E+02  0.26448008222E+02  0.39279518399E+02  0.10566000000E+00 0.  1.
         23    2    1    0    0    0  0.32926527568E+02 -0.15264262672E+01  0.14585539155E+01  0.92005855454E+02  0.85886342706E+02 0.  0.
         13    1    3    3    0    0  0.37682339932E+02  0.27122387171E+02 -0.24989454307E+02  0.52726337055E+02  0.10566000000E+00 0. -1.
         22    1    1    0    0    0 -0.32926527568E+02  0.15264262672E+01 -0.14585539155E+01  0.32994144546E+02  0.00000000000E+00 0.  1.
</event>
<event>
 5    1  0.1751027E-003  0.9118800E+02  0.7818608E-02  0.1130116E+00
         25   -1    0    0    0    0  0.00000000000E+00  0.00000000000E+00  0.99999998245E-14  0.12500000000E+03  0.12500000000E+03 0.  0.
        -13    1    3    3    0    0  0.46646934254E+01 -0.23660642744E+02  0.42127010298E+02  0.48541544479E+02  0.10566000000E+00 0.  1.
         23    2    1    0    0    0 -0.23662303784E+02 -0.17176658869E+02  0.55812725275E+01  0.95232688511E+02  0.90460887281E+02 0.  0.
         13    1    3    3    0    0 -0.28326997209E+02  0.64839838744E+01 -0.36545737770E+02  0.46691144032E+02  0.10566000000E+00 0. -1.
         22    1    1    0    0    0  0.23662303784E+02  0.17176658869E+02 -0.55812725275E+01  0.29767311489E+02  0.00000000000E+00 0.  1.
</event>
<event>
 5    1  0.1751027E-003  0.9118800E+02  0.7818608E-02  0.1130116E+00
         25   -1    0    0    0    0  0.00000000000E+00  0.00000000000E+00  0.99999998245E-14  0.12500000000E+03  0.12500000000E+03 0.  0.
        -13    1    3    3    0    0 -0.11396723770E+02 -0.17216772545E+02 -0.24187874255E+02  0.31801996707E+02  0.10566000000E+00 0.  1.
         23    2    1    0    0    0  0.64101402960E+01  0.33913090490E+02 -0.16519846567E+01  0.90446900884E+02  0.83586633028E+02 0.  0.
         13    1    3    3    0    0  0.17806864066E+02  0.51129863035E+02  0.22535889599E+02  0.58644904177E+02  0.10566000000E+00 0. -1.
         22    1    1    0    0    0 -0.64101402960E+01 -0.33913090490E+02  0.16519846567E+01  0.34553099116E+02  0.00000000000E+00 0. -1.
</event>
<event>
 5    1  0.1751027E-003  0.9118800E+02  0.7818608E-02  0.1130116E+00
         25   -1    0    0    0    0  0.00000000000E+00  0.00000000000E+00  0.99999998245E-14  0.12500000000E+03  0.12500000000E+03 0.  0.
        -13    1    3    3    0    0 -0.26801904031E+02 -0.27308044681E+02 -0.32350550301E+02  0.50106293345E+02  0.10566000000E+00 0. -1.
         23    2    1    0    0    0 -0.28923227643E+02  0.27391545947E+01  0.21036257522E+01  0.95871297549E+02  0.91339062767E+02 0.  0.
         13    1    3    3    0    0 -0.21213236124E+01  0.30047199276E+02  0.34454176053E+02  0.45765004203E+02  0.10566000000E+00 0.  1.
         22    1    1    0    0    0  0.28923227643E+02 -0.27391545947E+01 -0.21036257522E+01  0.29128702451E+02  0.00000000000E+00 0. -1.
</event>
<event>
 5    1  0.1751027E-003  0.9118800E+02  0.7818608E-02  0.1130116E+00
         25   -1    0    0    0    0  0.00000000000E+00  0.00000000000E+00  0.99999998245E-14  0.12500000000E+03  0.12500000000E+03 0.  0.
        -13    1    3    3    0    0 -0.71794588164E+01  0.17138054066E+02  0.45396569530E+02  0.49052188689E+02  0.10566000000E+00 0. -1.
         23    2    1    0    0    0 -0.15115089293E+02  0.25948649269E+02  0.10554500264E+01  0.94951500903E+02  0.90071500630E+02 0.  0.
         13    1    3    3    0    0 -0.79356304765E+01  0.88105952031E+01 -0.44341119503E+02  0.45899312214E+02  0.10566000000E+00 0.  1.
         22    1    1    0    0    0  0.15115089293E+02 -0.25948649269E+02 -0.10554500264E+01  0.30048499097E+02  0.00000000000E+00 0. -1.
</event>
<event>
 5    1  0.1751027E-003  0.9118800E+02  0.7818608E-02  0.1130116E+00
         25   -1    0    0    0    0  0.00000000000E+00  0.00000000000E+00  0.99999998245E-14  0.12500000000E+03  0.12500000000E+03 0.  0.
        -13    1    3    3    0    0 -0.13735054744E+02 -0.25579560627E+02  0.55120549918E+02  0.62299693723E+02  0.10566000000E+00 0.  1.
         23    2    1    0    0    0 -0.56215195607E+01 -0.85225561769E+01  0.26600405933E+02  0.96507596771E+02  0.92205743816E+02 0.  0.
         13    1    3    3    0    0  0.81135351836E+01  0.17057004450E+02 -0.28520143985E+02  0.34207903048E+02  0.10566000000E+00 0. -1.
         22    1    1    0    0    0  0.56215195607E+01  0.85225561769E+01 -0.26600405933E+02  0.28492403229E+02  0.00000000000E+00 0.  1.
</event>
<event>
 5    1  0.1751027E-003  0.9118800E+02  0.7818608E-02  0.1130116E+00
         25   -1    0    0    0    0  0.00000000000E+00  0.00000000000E+00  0.99999998245E-14  0.12500000000E+03  0.12500000000E+03 0.  0.
        -13    1    3    3    0    0  0.17075451097E+02  0.49499424424E+01  0.49528860641E+02  0.52623114320E+02  0.10566000000E+00 0.  1.
         23    2    1    0    0    0  0.24907544735E+02  0.77708883617E+01  0.43675757035E+01  0.98545355640E+02  0.94928072297E+02 0.  0.
         13    1    3    3    0    0  0.78320936385E+01  0.28209459193E+01 -0.45161284937E+02  0.45922241320E+02  0.10566000000E+00 0. -1.
         22    1    1    0    0    0 -0.24907544735E+02 -0.77708883617E+01 -0.43675757035E+01  0.26454644360E+02  0.00000000000E+00 0.  1.
</event>
<event>
 5    1  0.1751027E-003  0.9118800E+02  0.7818608E-02  0.1130116E+00
         25   -1    0    0    0    0  0.00000000000E+00  0.00000000000E+00  0.99999998245E-14  0.12500000000E+03  0.12500000000E+03 0.  0.
        -13    1    3    3    0    0  0.18117384612E+02  0.30637118915E+02 -0.28977750257E+02  0.45897645414E+02  0.10566000000E+00 0.  1.
         23    2    1    0    0    0  0.25920882875E+02 -0.13015937237E+02 -0.82749528067E+01  0.94837413321E+02  0.89913032038E+02 0.  0.
         13    1    3    3    0    0  0.78034982635E+01 -0.43653056152E+02  0.20702797450E+02  0.48939767907E+02  0.10566000000E+00 0. -1.
         22    1    1    0    0    0 -0.25920882875E+02  0.13015937237E+02  0.82749528067E+01  0.30162586679E+02  0.00000000000E+00 0.  1.
</event>
<event>
 5    1  0.1751027E-003  0.9118800E+02  0.7818608E-02  0.1130116E+00
         25   -1    0    0    0    0  0.00000000000E+00  0.00000000000E+00  0.99999998245E-14  0.12500000000E+03  0.12500000000E+03 0.  0.
        -13    1    3    3    0    0 -0.27966741955E+02  0.36510565485E+01  0.28584153489E+02  0.40156367667E+02  0.10566000000E+00 0.  1.
         23    2    1    0    0    0 -0.14451255213E+02 -0.13901978711E+02 -0.21911410241E+02  0.95297917782E+02  0.90550977055E+02 0.  0.
         13    1    3    3    0    0  0.13515486742E+02 -0.17553035259E+02 -0.50495563730E+02  0.55141550115E+02  0.10566000000E+00 0. -1.
         22    1    1    0    0    0  0.14451255213E+02  0.13901978711E+02  0.21911410241E+02  0.29702082218E+02  0.00000000000E+00 0. -1.
</event>
<event>
 5    1  0.1751027E-003  0.9118800E+02  0.7818608E-02  0.1130116E+00
         25   -1    0    0    0    0  0.00000000000E+00  0.00000000000E+00  0.99999998245E-14  0.12500000000E+03  0.12500000000E+03 0.  0.
        -13    1    3    3    0    0  0.87525059584E+01 -0.25403989201E+02  0.47397271284E+02  0.54483772970E+02  0.10566000000E+00 0.  1.
         23    2    1    0    0    0 -0.14928474572E+02 -0.20843304792E+02  0.13672277578E+02  0.95944296913E+02  0.91438909816E+02 0.  0.
         13    1    3    3    0    0 -0.23680980530E+02  0.45606844094E+01 -0.33724993706E+02  0.41460523943E+02  0.10566000000E+00 0. -1.
         22    1    1    0    0    0  0.14928474572E+02  0.20843304792E+02 -0.13672277578E+02  0.29055703087E+02  0.00000000000E+00 0.  1.
</event>
<event>
 5    1  0.1751027E-003  0.9118800E+02  0.7818608E-02  0.1130116E+00
         25   -1    0    0    0    0  0.00000000000E+00  0.00000000000E+00  0.99999998245E-14  0.12500000000E+03  0.12500000000E+03 0.  0.
        -13    1    3    3    0    0 -0.19360578420E+02 -0.77928567743E+01  0.28303786106E+02  0.35166405637E+02  0.10566000000E+00 0.  1.
         23    2    1    0    0    0  0.28440228636E+02  0.18248649325E+01 -0.73482289653E+01  0.95569179321E+02  0.90924665687E+02 0.  0.
         13    1    3    3    0    0  0.47800807056E+02  0.96177217069E+01 -0.35652015071E+02  0.60402773684E+02  0.10566000000E+00 0. -1.
         22    1    1    0    0    0 -0.28440228636E+02 -0.18248649325E+01  0.73482289653E+01  0.29430820679E+02  0.00000000000E+00 0. -1.
</event>
<event>
 5    1  0.1751027E-003  0.9118800E+02  0.7818608E-02  0.1130116E+00
         25   -1    0    0    0    0  0.00000000000E+00  0.00000000000E+00  0.99999998245E-14  0.12500000000E+03  0.12500000000E+03 0.  0.
        -13    1    3    3    0    0  0.20124607210E+02  0.15590610430E+01  0.57277962961E+02  0.60730607536E+02  0.10566000000E+00 0.  1.
         23    2    1    0    0    0  0.78379369804E+01  0.11089313419E+02  0.25469627207E+02  0.96136389029E+02  0.91701130076E+02 0.  0.
         13    1    3    3    0    0 -0.12286670230E+02  0.95302523764E+01 -0.31808335753E+02  0.35405781493E+02  0.10566000000E+00 0. -1.
         22    1    1    0    0    0 -0.78379369804E+01 -0.11089313419E+02 -0.25469627207E+02  0.28863610971E+02  0.00000000000E+00 0.  1.
</event>
<event>
 5    1  0.1751027E-003  0.9118800E+02  0.7818608E-02  0.1130116E+00
         25   -1    0    0    0    0  0.00000000000E+00  0.00000000000E+00  0.99999998245E-14  0.12500000000E+03  0.12500000000E+03 0.  0.
        -13    1    3    3    0    0  0.27455944644E+02 -0.20960809324E+02  0.19353983370E+02  0.39595103992E+02  0.10566000000E+00 0.  1.
         23    2    1    0    0    0  0.17649769394E+02  0.22478947404E+02 -0.11942274038E+02  0.94025246647E+02  0.88776751810E+02 0.  0.
         13    1    3    3    0    0 -0.98061752508E+01  0.43439756728E+02 -0.31296257408E+02  0.54430142655E+02  0.10566000000E+00 0. -1.
         22    1    1    0    0    0 -0.17649769394E+02 -0.22478947404E+02  0.11942274038E+02  0.30974753353E+02  0.00000000000E+00 0. -1.
</event>
<event>
 5    1  0.1751027E-003  0.9118800E+02  0.7818608E-02  0.1130116E+00
         25   -1    0    0    0    0  0.00000000000E+00  0.00000000000E+00  0.99999998245E-14  0.12500000000E+03  0.12500000000E+03 0.  0.
        -13    1    3    3    0    0 -0.25596605268E+02 -0.11935422554E+02 -0.22912397510E+02  0.36367975424E+02  0.10566000000E+00 0.  1.
         23    2    1    0    0    0  0.15553652640E+01  0.10172970154E+02  0.26295728465E+02  0.96762191686E+02  0.92550245389E+02 0.  0.
         13    1    3    3    0    0  0.27151970532E+02  0.22108392708E+02  0.49208125975E+02  0.60394216262E+02  0.10566000000E+00 0. -1.
         22    1    1    0    0    0 -0.15553652640E+01 -0.10172970154E+02 -0.26295728465E+02  0.28237808314E+02  0.00000000000E+00 0. -1.
</event>
<event>
 5    1  0.1751027E-003  0.9118800E+02  0.7818608E-02  0.1130116E+00
         25   -1    0    0    0    0  0.00000000000E+00  0.00000000000E+00  0.99999998245E-14  0.12500000000E+03  0.12500000000E+03 0.  0.
        -13    1    3    3    0    0  0.34066563421E+02  0.50510149257E+02  0.13356509113E+02  0.62371575425E+02  0.10566000000E+00 0.  1.
         23    2    1    0    0    0  0.12227748394E+02  0.23131825260E+02  0.55269134750E+01  0.98257787242E+02  0.94548647851E+02 0.  0.
         13    1    3    3    0    0 -0.21838815027E+02 -0.27378323997E+02 -0.78295956378E+01  0.35886211817E+02  0.10566000000E+00 0. -1.
         22    1    1    0    0    0 -0.12227748394E+02 -0.23131825260E+02 -0.55269134750E+01  0.26742212758E+02  0.00000000000E+00 0.  1.
</event>
<event>
 5    1  0.1751027E-003  0.9118800E+02  0.7818608E-02  0.1130116E+00
         25   -1    0    0    0    0  0.00000000000E+00  0.00000000000E+00  0.99999998245E-14  0.12500000000E+03  0.12500000000E+03 0.  0.
        -13    1    3    3    0    0 -0.62106427178E+02  0.68796947617E+01  0.18706297500E+00  0.62486675807E+02  0.10566000000E+00 0. -1.
         23    2    1    0    0    0 -0.28587511238E+02  0.24856688753E+01 -0.51962367091E+00  0.96299924089E+02  0.91923778329E+02 0.  0.
         13    1    3    3    0    0  0.33518915940E+02 -0.43940258865E+01 -0.70668664591E+00  0.33813248281E+02  0.10566000000E+00 0.  1.
         22    1    1    0    0    0  0.28587511238E+02 -0.24856688753E+01  0.51962367091E+00  0.28700075911E+02  0.00000000000E+00 0. -1.
</event>
<event>
 5    1  0.1751027E-003  0.9118800E+02  0.7818608E-02  0.1130116E+00
         25   -1    0    0    0    0  0.00000000000E+00  0.00000000000E+00  0.99999998245E-14  0.12500000000E+03  0.12500000000E+03 0.  0.
        -13    1    3    3    0    0 -0.23140456857E+02  0.16402159287E+02 -0.19080446099E+02  0.34184589513E+02  0.10566000000E+00 0.  1.
         23    2    1    0    0    0  0.25789443347E+02  0.13712010782E+02  0.13285577555E+02  0.92912288976E+02  0.87195597618E+02 0.  0.
         13    1    3    3    0    0  0.48929900204E+02 -0.26901485049E+01  0.32366023654E+02  0.58727699462E+02  0.10566000000E+00 0. -1.
         22    1    1    0    0    0 -0.25789443347E+02 -0.13712010782E+02 -0.13285577555E+02  0.32087711024E+02  0.00000000000E+00 0. -1.
</event>
<event>
 5    1  0.1751027E-003  0.9118800E+02  0.7818608E-02  0.1130116E+00
         25   -1    0    0    0    0  0.00000000000E+00  0.00000000000E+00  0.99999998245E-14  0.12500000000E+03  0.12500000000E+03 0.  0.
        -13    1    3    3    0    0 -0.41359744400E+02 -0.25791643111E+02 -0.27315551241E+01  0.48819154731E+02  0.10566000000E+00 0.  1.
         23    2    1    0    0    0 -0.48788327986E+01 -0.82250712983E+01  0.25225017187E+02  0.98023041324E+02  0.94237786111E+02 0.  0.
         13    1    3    3    0    0  0.36480911601E+02  0.17566571813E+02  0.27956572311E+02  0.49203886593E+02  0.10566000000E+00 0. -1.
         22    1    1    0    0    0  0.48788327986E+01  0.82250712983E+01 -0.25225017187E+02  0.26976958676E+02  0.00000000000E+00 0. -1.
</event>
<event>
 5    1  0.1751027E-003  0.9118800E+02  0.7818608E-02  0.1130116E+00
         25   -1    0    0    0    0  0.00000000000E+00  0.00000000000E+00  0.99999998245E-14  0.12500000000E+03  0.12500000000E+03 0.  0.
        -13    1    3    3    0    0  0.13932884608E+02 -0.56814109546E+00  0.30466125936E+02  0.33505880848E+02  0.10566000000E+00 0.  1.
         23    2    1    0    0    0 -0.67340439394E+01 -0.17064853832E+02 -0.24435639340E+02  0.94444197703E+02  0.89364698991E+02 0.  0.
         13    1    3    3    0    0 -0.20666928548E+02 -0.16496712737E+02 -0.54901765276E+02  0.60938316855E+02  0.10566000000E+00 0. -1.
         22    1    1    0    0    0  0.67340439394E+01  0.17064853832E+02  0.24435639340E+02  0.30555802297E+02  0.00000000000E+00 0. -1.
</event>
<event>
 5    1  0.1751027E-003  0.9118800E+02  0.7818608E-02  0.1130116E+00
         25   -1    0    0    0    0  0.00000000000E+00  0.00000000000E+00  0.99999998245E-14  0.12500000000E+03  0.12500000000E+03 0.  0.
        -13    1    3    3    0    0  0.13158106821E+02 -0.59189939669E+01 -0.34276281136E+02  0.37189311330E+02  0.10566000000E+00 0.  1.
         23    2    1    0    0    0 -0.70699247391E+00 -0.14268141332E+02  0.23669794307E+02  0.97353321032E+02  0.93345220863E+02 0.  0.
         13    1    3    3    0    0 -0.13865099295E+02 -0.83491473656E+01  0.57946075442E+02  0.60164009702E+02  0.10566000000E+00 0. -1.
         22    1    1    0    0    0  0.70699247391E+00  0.14268141332E+02 -0.23669794307E+02  0.27646678968E+02  0.00000000000E+00 0. -1.
</event>
<event>
 5    1  0.1751027E-003  0.9118800E+02  0.7818608E-02  0.1130116E+00
         25   -1    0    0    0    0  0.00000000000E+00  0.00000000000E+00  0.99999998245E-14  0.12500000000E+03  0.12500000000E+03 0.  0.
        -13    1    3    3    0    0  0.15054392009E+01  0.35988795954E+02 -0.50126313694E+02  0.61726155477E+02  0.10566000000E+00 0. -1.
         23    2    1    0    0    0  0.93806894172E+00  0.22516952809E+02 -0.19466398347E+02  0.95220245103E+02  0.90443691189E+02 0.  0.
         13    1    3    3    0    0 -0.56737025921E+00 -0.13471843146E+02  0.30659915347E+02  0.33494089626E+02  0.10566000000E+00 0.  1.
         22    1    1    0    0    0 -0.93806894172E+00 -0.22516952809E+02  0.19466398347E+02  0.29779754897E+02  0.00000000000E+00 0. -1.
</event>
<event>
 5    1  0.1751027E-003  0.9118800E+02  0.7818608E-02  0.1130116E+00
         25   -1    0    0    0    0  0.00000000000E+00  0.00000000000E+00  0.99999998245E-14  0.12500000000E+03  0.12500000000E+03 0.  0.
        -13    1    3    3    0    0 -0.77116134829E+01 -0.34177936994E+02  0.26466947949E+02  0.43910259137E+02  0.10566000000E+00 0. -1.
         23    2    1    0    0    0  0.14494262051E+02 -0.18659729819E+02 -0.17530299324E+02  0.95579249777E+02  0.90938509138E+02 0.  0.
         13    1    3    3    0    0  0.22205875534E+02  0.15518207175E+02 -0.43997247272E+02  0.51668990640E+02  0.10566000000E+00 0.  1.
         22    1    1    0    0    0 -0.14494262051E+02  0.18659729819E+02  0.17530299324E+02  0.29420750223E+02  0.00000000000E+00 0. -1.
</event>
<event>
 5    1  0.1751027E-003  0.9118800E+02  0.7818608E-02  0.1130116E+00
         25   -1    0    0    0    0  0.00000000000E+00  0.00000000000E+00  0.99999998245E-14  0.12500000000E+03  0.12500000000E+03 0.  0.
        -13    1    3    3    0    0  0.20062328249E+01  0.40017383943E+02 -0.17454541761E+02  0.43704555596E+02  0.10566000000E+00 0. -1.
         23    2    1    0    0    0  0.26793597326E+02 -0.51931611216E+01 -0.10615349348E+02  0.95716021071E+02  0.91126314903E+02 0.  0.
         13    1    3    3    0    0  0.24787364502E+02 -0.45210545064E+02  0.68391924129E+01  0.52011465475E+02  0.10566000000E+00 0.  1.
         22    1    1    0    0    0 -0.26793597326E+02  0.51931611216E+01  0.10615349348E+02  0.29283978929E+02  0.00000000000E+00 0.  1.
</event>
<event>
 4    1  0.1751027E-003  0.9118800E+02  0.7818608E-02  0.1130116E+00
         25   -1    0    0    0    0  0.00000000000E+00  0.00000000000E+00  0.99999998245E-14  0.12500000000E+03  0.12500000000E+03 0.  0.
        -13    1    1    0    0    0 -0.46707608299E+01  0.61379201657E+01 -0.30869450784E+02  0.31818614464E+02  0.10566000000E+00 0. -1.
         13    1    1    0    0    0  0.28785375064E+02 -0.17556455757E+02 -0.17464808845E+02  0.37971800963E+02  0.10566000000E+00 0.  1.
         22    1    1    0    0    0 -0.24114614235E+02  0.11418535592E+02  0.48334259629E+02  0.55209584572E+02  0.00000000000E+00 0.  1.
</event>
<event>
 5    1  0.1751027E-003  0.9118800E+02  0.7818608E-02  0.1130116E+00
         25   -1    0    0    0    0  0.00000000000E+00  0.00000000000E+00  0.99999998245E-14  0.12500000000E+03  0.12500000000E+03 0.  0.
        -13    1    3    3    0    0 -0.36264327477E+02 -0.41174768517E+02  0.21638556946E+02  0.58980516449E+02  0.10566000000E+00 0. -1.
         23    2    1    0    0    0 -0.55426453736E+01 -0.21095838786E+02  0.19497062238E+02  0.95744389124E+02  0.91165219689E+02 0.  0.
         13    1    3    3    0    0  0.30721682104E+02  0.20078929731E+02 -0.21414947078E+01  0.36763872675E+02  0.10566000000E+00 0.  1.
         22    1    1    0    0    0  0.55426453736E+01  0.21095838786E+02 -0.19497062238E+02  0.29255610876E+02  0.00000000000E+00 0. -1.
</event>
<event>
 5    1  0.1751027E-003  0.9118800E+02  0.7818608E-02  0.1130116E+00
         25   -1    0    0    0    0  0.00000000000E+00  0.00000000000E+00  0.99999998245E-14  0.12500000000E+03  0.12500000000E+03 0.  0.
        -13    1    3    3    0    0  0.30036938681E+02  0.99673945419E+01 -0.45914319104E+02  0.55764706599E+02  0.10566000000E+00 0.  1.
         23    2    1    0    0    0  0.24097901222E+02 -0.11174583315E+02 -0.12762657380E+02  0.95530259944E+02  0.90871144958E+02 0.  0.
         13    1    3    3    0    0 -0.59390374588E+01 -0.21141977857E+02  0.33151661724E+02  0.39765553344E+02  0.10566000000E+00 0. -1.
         22    1    1    0    0    0 -0.24097901222E+02  0.11174583315E+02  0.12762657380E+02  0.29469740056E+02  0.00000000000E+00 0.  1.
</event>
<event>
 5    1  0.1751027E-003  0.9118800E+02  0.7818608E-02  0.1130116E+00
         25   -1    0    0    0    0  0.00000000000E+00  0.00000000000E+00  0.99999998245E-14  0.12500000000E+03  0.12500000000E+03 0.  0.
        -13    1    3    3    0    0 -0.47685446903E+02  0.15283039926E+02  0.21240063017E+01  0.50119813672E+02  0.10566000000E+00 0.  1.
         23    2    1    0    0    0 -0.60302313404E+01  0.18301780102E+02  0.21472778301E+02  0.96148673291E+02  0.91717873518E+02 0.  0.
         13    1    3    3    0    0  0.41655215563E+02  0.30187401759E+01  0.19348771999E+02  0.46028859618E+02  0.10566000000E+00 0. -1.
         22    1    1    0    0    0  0.60302313404E+01 -0.18301780102E+02 -0.21472778301E+02  0.28851326709E+02  0.00000000000E+00 0.  1.
</event>
<event>
 5    1  0.1751027E-003  0.9118800E+02  0.7818608E-02  0.1130116E+00
         25   -1    0    0    0    0  0.00000000000E+00  0.00000000000E+00  0.99999998245E-14  0.12500000000E+03  0.12500000000E+03 0.  0.
        -13    1    3    3    0    0  0.18780883217E+02 -0.29911355681E+02  0.50033134893E+02  0.61243256970E+02  0.10566000000E+00 0.  1.
         23    2    1    0    0    0  0.72873911019E+01 -0.24814120520E+02  0.26222800533E+02  0.88169551808E+02  0.80108600986E+02 0.  0.
         13    1    3    3    0    0 -0.11493492115E+02  0.50972351603E+01 -0.23810334360E+02  0.26926294837E+02  0.10566000000E+00 0. -1.
         22    1    1    0    0    0 -0.72873911019E+01  0.24814120520E+02 -0.26222800533E+02  0.36830448192E+02  0.00000000000E+00 0.  1.
</event>
<event>
 5    1  0.1751027E-003  0.9118800E+02  0.7818608E-02  0.1130116E+00
         25   -1    0    0    0    0  0.00000000000E+00  0.00000000000E+00  0.99999998245E-14  0.12500000000E+03  0.12500000000E+03 0.  0.
        -13    1    3    3    0    0 -0.39554955326E+02  0.16002455280E+02 -0.45636220941E+02  0.62476786822E+02  0.10566000000E+00 0.  1.
         23    2    1    0    0    0 -0.19974194751E+02  0.68479549821E+01 -0.22000486104E+02  0.94505995143E+02  0.89451097175E+02 0.  0.
         13    1    3    3    0    0  0.19580760575E+02 -0.91545002980E+01  0.23635734836E+02  0.32029208321E+02  0.10566000000E+00 0. -1.
         22    1    1    0    0    0  0.19974194751E+02 -0.68479549821E+01  0.22000486104E+02  0.30494004857E+02  0.00000000000E+00 0.  1.
</event>
<event>
 5    1  0.1751027E-003  0.9118800E+02  0.7818608E-02  0.1130116E+00
         25   -1    0    0    0    0  0.00000000000E+00  0.00000000000E+00  0.99999998245E-14  0.12500000000E+03  0.12500000000E+03 0.  0.
        -13    1    3    3    0    0  0.32053898231E+02  0.96654102495E+01  0.26818024315E+02  0.42896271858E+02  0.10566000000E+00 0.  1.
         23    2    1    0    0    0 -0.11044363600E+02  0.16071115694E+02 -0.12707592553E+02  0.10172465606E+03  0.99026077451E+02 0.  0.
         13    1    3    3    0    0 -0.43098261831E+02  0.64057054442E+01 -0.39525616868E+02  0.58828384203E+02  0.10566000000E+00 0. -1.
         22    1    1    0    0    0  0.11044363600E+02 -0.16071115694E+02  0.12707592553E+02  0.23275343939E+02  0.00000000000E+00 0. -1.
</event>
<event>
 5    1  0.1751027E-003  0.9118800E+02  0.7818608E-02  0.1130116E+00
         25   -1    0    0    0    0  0.00000000000E+00  0.00000000000E+00  0.99999998245E-14  0.12500000000E+03  0.12500000000E+03 0.  0.
        -13    1    3    3    0    0 -0.97545328623E+01  0.36261044597E+02 -0.39411205079E+02  0.54435912011E+02  0.10566000000E+00 0. -1.
         23    2    1    0    0    0  0.10445311485E+02  0.26178752391E+01 -0.27533310643E+02  0.95435815625E+02  0.90741136791E+02 0.  0.
         13    1    3    3    0    0  0.20199844348E+02 -0.33643169358E+02  0.11877894435E+02  0.40999903614E+02  0.10566000000E+00 0.  1.
         22    1    1    0    0    0 -0.10445311485E+02 -0.26178752391E+01  0.27533310643E+02  0.29564184375E+02  0.00000000000E+00 0.  1.
</event>
<event>
 5    1  0.1751027E-003  0.9118800E+02  0.7818608E-02  0.1130116E+00
         25   -1    0    0    0    0  0.00000000000E+00  0.00000000000E+00  0.99999998245E-14  0.12500000000E+03  0.12500000000E+03 0.  0.
        -13    1    3    3    0    0 -0.32266305998E+02 -0.39405628959E+02 -0.26338055210E+02  0.57337792185E+02  0.10566000000E+00 0. -1.
         23    2    1    0    0    0 -0.89145988224E+01 -0.30797467323E+02 -0.90026638921E+00  0.92925640377E+02  0.87214735534E+02 0.  0.
         13    1    3    3    0    0  0.23351707176E+02  0.86081616360E+01  0.25437788821E+02  0.35587848191E+02  0.10566000000E+00 0.  1.
         22    1    1    0    0    0  0.89145988224E+01  0.30797467323E+02  0.90026638921E+00  0.32074359623E+02  0.00000000000E+00 0. -1.
</event>
<event>
 5    1  0.1751027E-003  0.9118800E+02  0.7818608E-02  0.1130116E+00
         25   -1    0    0    0    0  0.00000000000E+00  0.00000000000E+00  0.99999998245E-14  0.12500000000E+03  0.12500000000E+03 0.  0.
        -13    1    3    3    0    0 -0.26942130821E+02 -0.55193022171E+01 -0.18057840791E+02  0.32900423831E+02  0.10566000000E+00 0. -1.
         23    2    1    0    0    0  0.26220697369E+02  0.11828925064E+02  0.87739416664E+01  0.94926249136E+02  0.90036449752E+02 0.  0.
         13    1    3    3    0    0  0.53162828190E+02  0.17348227281E+02  0.26831782458E+02  0.62025825305E+02  0.10566000000E+00 0.  1.
         22    1    1    0    0    0 -0.26220697369E+02 -0.11828925064E+02 -0.87739416664E+01  0.30073750864E+02  0.00000000000E+00 0.  1.
</event>
<event>
 5    1  0.1751027E-003  0.9118800E+02  0.7818608E-02  0.1130116E+00
         25   -1    0    0    0    0  0.00000000000E+00  0.00000000000E+00  0.99999998245E-14  0.12500000000E+03  0.12500000000E+03 0.  0.
        -13    1    3    3    0    0  0.77997618474E+01  0.91540757625E+01 -0.56162552888E+02  0.57435850293E+02  0.10566000000E+00 0.  1.
         23    2    1    0    0    0 -0.72372506245E+01 -0.92454475574E+01 -0.30026864774E+02  0.92759207434E+02  0.86975869404E+02 0.  0.
         13    1    3    3    0    0 -0.15037012472E+02 -0.18399523320E+02  0.26135688114E+02  0.35323357141E+02  0.10566000000E+00 0. -1.
         22    1    1    0    0    0  0.72372506245E+01  0.92454475574E+01  0.30026864774E+02  0.32240792566E+02  0.00000000000E+00 0. -1.
</event>
<event>
 5    1  0.1751027E-003  0.9118800E+02  0.7818608E-02  0.1130116E+00
         25   -1    0    0    0    0  0.00000000000E+00  0.00000000000E+00  0.99999998245E-14  0.12500000000E+03  0.12500000000E+03 0.  0.
        -13    1    3    3    0    0  0.37481306897E+02 -0.27769163556E+02  0.32200646889E+02  0.56682163292E+02  0.10566000000E+00 0.  1.
         23    2    1    0    0    0  0.16327430436E+02 -0.98629256207E+01 -0.69916136507E+01  0.10468387468E+03  0.10269356684E+03 0.  0.
         13    1    3    3    0    0 -0.21153876462E+02  0.17906237935E+02 -0.39192260539E+02  0.48001711392E+02  0.10566000000E+00 0. -1.
         22    1    1    0    0    0 -0.16327430436E+02  0.98629256207E+01  0.69916136507E+01  0.20316125316E+02  0.00000000000E+00 0.  1.
</event>
<event>
 5    1  0.1751027E-003  0.9118800E+02  0.7818608E-02  0.1130116E+00
         25   -1    0    0    0    0  0.00000000000E+00  0.00000000000E+00  0.99999998245E-14  0.12500000000E+03  0.12500000000E+03 0.  0.
        -13    1    3    3    0    0 -0.10489729193E+02 -0.47607846910E+02  0.16737931057E+02  0.51543292541E+02  0.10566000000E+00 0. -1.
         23    2    1    0    0    0 -0.13349417342E+02 -0.52989338500E+01  0.26318375144E+02  0.95017629955E+02  0.90163226920E+02 0.  0.
         13    1    3    3    0    0 -0.28596881491E+01  0.42308913060E+02  0.95804440868E+01  0.43474337413E+02  0.10566000000E+00 0.  1.
         22    1    1    0    0    0  0.13349417342E+02  0.52989338500E+01 -0.26318375144E+02  0.29982370045E+02  0.00000000000E+00 0. -1.
</event>
<event>
 5    1  0.1751027E-003  0.9118800E+02  0.7818608E-02  0.1130116E+00
         25   -1    0    0    0    0  0.00000000000E+00  0.00000000000E+00  0.99999998245E-14  0.12500000000E+03  0.12500000000E+03 0.  0.
        -13    1    3    3    0    0 -0.11027020728E+02 -0.33550473830E+01  0.31208698835E+02  0.33269288782E+02  0.10566000000E+00 0. -1.
         23    2    1    0    0    0  0.10441653569E+00 -0.13890182147E+01 -0.29724850017E+02  0.95242530636E+02  0.90474486233E+02 0.  0.
         13    1    3    3    0    0  0.11131437263E+02  0.19660291684E+01 -0.60933548852E+02  0.61973241854E+02  0.10566000000E+00 0.  1.
         22    1    1    0    0    0 -0.10441653569E+00  0.13890182147E+01  0.29724850017E+02  0.29757469364E+02  0.00000000000E+00 0.  1.
</event>
<event>
 5    1  0.1751027E-003  0.9118800E+02  0.7818608E-02  0.1130116E+00
         25   -1    0    0    0    0  0.00000000000E+00  0.00000000000E+00  0.99999998245E-14  0.12500000000E+03  0.12500000000E+03 0.  0.
        -13    1    3    3    0    0  0.32782483165E+02 -0.26712099376E+01  0.27277293728E+02  0.42730416358E+02  0.10566000000E+00 0.  1.
         23    2    1    0    0    0 -0.34953059511E+00 -0.69122347204E+01  0.44259903260E+02  0.80202229999E+02  0.66524863771E+02 0.  0.
         13    1    3    3    0    0 -0.33132013760E+02 -0.42410247828E+01  0.16982609532E+02  0.37471813641E+02  0.10566000000E+00 0. -1.
         22    1    1    0    0    0  0.34953059511E+00  0.69122347204E+01 -0.44259903260E+02  0.44797770001E+02  0.00000000000E+00 0. -1.
</event>
<event>
 5    1  0.1751027E-003  0.9118800E+02  0.7818608E-02  0.1130116E+00
         25   -1    0    0    0    0  0.00000000000E+00  0.00000000000E+00  0.99999998245E-14  0.12500000000E+03  0.12500000000E+03 0.  0.
        -13    1    3    3    0    0 -0.31260496137E+02  0.19980438883E+02 -0.30810292693E+01  0.37228221312E+02  0.10566000000E+00 0. -1.
         23    2    1    0    0    0  0.23666177933E+02  0.12311781172E+02  0.13483972354E+02  0.95108773126E+02  0.90289497071E+02 0.  0.
         13    1    3    3    0    0  0.54926674070E+02 -0.76686577102E+01  0.16565001624E+02  0.57880551814E+02  0.10566000000E+00 0.  1.
         22    1    1    0    0    0 -0.23666177933E+02 -0.12311781172E+02 -0.13483972354E+02  0.29891226874E+02  0.00000000000E+00 0.  1.
</event>
<event>
 5    1  0.1751027E-003  0.9118800E+02  0.7818608E-02  0.1130116E+00
         25   -1    0    0    0    0  0.00000000000E+00  0.00000000000E+00  0.99999998245E-14  0.12500000000E+03  0.12500000000E+03 0.  0.
        -13    1    3    3    0    0 -0.32107149796E+02 -0.13236667295E+02  0.32797056254E+02  0.47767525496E+02  0.10566000000E+00 0. -1.
         23    2    1    0    0    0  0.65782568516E+00  0.20838114036E+02  0.18426562087E+02  0.97175587669E+02  0.93106911221E+02 0.  0.
         13    1    3    3    0    0  0.32764975481E+02  0.34074781331E+02 -0.14370494167E+02  0.49408062172E+02  0.10566000000E+00 0.  1.
         22    1    1    0    0    0 -0.65782568516E+00 -0.20838114036E+02 -0.18426562087E+02  0.27824412331E+02  0.00000000000E+00 0.  1.
</event>
<event>
 5    1  0.1751027E-003  0.9118800E+02  0.7818608E-02  0.1130116E+00
         25   -1    0    0    0    0  0.00000000000E+00  0.00000000000E+00  0.99999998245E-14  0.12500000000E+03  0.12500000000E+03 0.  0.
        -13    1    3    3    0    0 -0.15097404967E+02  0.29693736558E+02 -0.82348299217E+01  0.34314329593E+02  0.10566000000E+00 0. -1.
         23    2    1    0    0    0  0.21360864201E+02 -0.19517245629E+02 -0.36201009270E+00  0.96063164518E+02  0.91601261616E+02 0.  0.
         13    1    3    3    0    0  0.36458269168E+02 -0.49210982188E+02  0.78728198290E+01  0.61748834926E+02  0.10566000000E+00 0.  1.
         22    1    1    0    0    0 -0.21360864201E+02  0.19517245629E+02  0.36201009270E+00  0.28936835482E+02  0.00000000000E+00 0.  1.
</event>
<event>
 5    1  0.1751027E-003  0.9118800E+02  0.7818608E-02  0.1130116E+00
         25   -1    0    0    0    0  0.00000000000E+00  0.00000000000E+00  0.99999998245E-14  0.12500000000E+03  0.12500000000E+03 0.  0.
        -13    1    3    3    0    0  0.33076394389E+02 -0.49246563599E+02  0.58129274478E+01  0.59607660427E+02  0.10566000000E+00 0. -1.
         23    2    1    0    0    0  0.29993217105E+01 -0.26841410598E+02  0.68839319671E+01  0.97128046840E+02  0.93043063740E+02 0.  0.
         13    1    3    3    0    0 -0.30077072678E+02  0.22405153001E+02  0.10710045193E+01  0.37520386413E+02  0.10566000000E+00 0.  1.
         22    1    1    0    0    0 -0.29993217105E+01  0.26841410598E+02 -0.68839319671E+01  0.27871953160E+02  0.00000000000E+00 0. -1.
</event>
<event>
 5    1  0.1751027E-003  0.9118800E+02  0.7818608E-02  0.1130116E+00
         25   -1    0    0    0    0  0.00000000000E+00  0.00000000000E+00  0.99999998245E-14  0.12500000000E+03  0.12500000000E+03 0.  0.
        -13    1    3    3    0    0  0.43311935018E+02 -0.12105494746E+02 -0.30903569748E+02  0.54566551158E+02  0.10566000000E+00 0.  1.
         23    2    1    0    0    0  0.14792160095E+02  0.16158843280E+02 -0.17704397613E+02  0.96833319129E+02  0.92646261567E+02 0.  0.
         13    1    3    3    0    0 -0.28519774923E+02  0.28264338026E+02  0.13199172135E+02  0.42266767972E+02  0.10566000000E+00 0. -1.
         22    1    1    0    0    0 -0.14792160095E+02 -0.16158843280E+02  0.17704397613E+02  0.28166680871E+02  0.00000000000E+00 0.  1.
</event>
<event>
 5    1  0.1751027E-003  0.9118800E+02  0.7818608E-02  0.1130116E+00
         25   -1    0    0    0    0  0.00000000000E+00  0.00000000000E+00  0.99999998245E-14  0.12500000000E+03  0.12500000000E+03 0.  0.
        -13    1    3    3    0    0  0.20908661055E+02 -0.50937279299E+02 -0.25245613174E+02  0.60573349569E+02  0.10566000000E+00 0.  1.
         23    2    1    0    0    0  0.49550346140E+01 -0.28498313272E+02 -0.30970876699E+01  0.95908795498E+02  0.91390365326E+02 0.  0.
         13    1    3    3    0    0 -0.15953626441E+02  0.22438966027E+02  0.22148525504E+02  0.35335445929E+02  0.10566000000E+00 0. -1.
         22    1    1    0    0    0 -0.49550346140E+01  0.28498313272E+02  0.30970876699E+01  0.29091204502E+02  0.00000000000E+00 0.  1.
</event>
<event>
 5    1  0.1751027E-003  0.9118800E+02  0.7818608E-02  0.1130116E+00
         25   -1    0    0    0    0  0.00000000000E+00  0.00000000000E+00  0.99999998245E-14  0.12500000000E+03  0.12500000000E+03 0.  0.
        -13    1    3    3    0    0  0.21243870516E+02  0.44493601813E+02 -0.27922600434E+02  0.56662733925E+02  0.10566000000E+00 0. -1.
         23    2    1    0    0    0 -0.75308001981E+01  0.28245678749E+02 -0.11230043014E+02  0.93684745160E+02  0.88296015142E+02 0.  0.
         13    1    3    3    0    0 -0.28774670714E+02 -0.16247923064E+02  0.16692557420E+02  0.37022011235E+02  0.10566000000E+00 0.  1.
         22    1    1    0    0    0  0.75308001981E+01 -0.28245678749E+02  0.11230043014E+02  0.31315254840E+02  0.00000000000E+00 0. -1.
</event>
<event>
 5    1  0.1751027E-003  0.9118800E+02  0.7818608E-02  0.1130116E+00
         25   -1    0    0    0    0  0.00000000000E+00  0.00000000000E+00  0.99999998245E-14  0.12500000000E+03  0.12500000000E+03 0.  0.
        -13    1    3    3    0    0 -0.14121705209E+02 -0.14159837892E+02  0.39915302514E+02  0.44644888912E+02  0.10566000000E+00 0. -1.
         23    2    1    0    0    0  0.59908445208E+01  0.24926090807E+02  0.17243125152E+02  0.94104602511E+02  0.88888416724E+02 0.  0.
         13    1    3    3    0    0  0.20112549730E+02  0.39085928699E+02 -0.22672177361E+02  0.49459713599E+02  0.10566000000E+00 0.  1.
         22    1    1    0    0    0 -0.59908445208E+01 -0.24926090807E+02 -0.17243125152E+02  0.30895397489E+02  0.00000000000E+00 0. -1.
</event>
<event>
 5    1  0.1751027E-003  0.9118800E+02  0.7818608E-02  0.1130116E+00
         25   -1    0    0    0    0  0.00000000000E+00  0.00000000000E+00  0.99999998245E-14  0.12500000000E+03  0.12500000000E+03 0.  0.
        -13    1    3    3    0    0  0.30213104360E+02  0.18618976076E+01  0.67615279678E+01  0.31016572381E+02  0.10566000000E+00 0.  1.
         23    2    1    0    0    0 -0.15441855761E+02  0.94962121839E+01 -0.29878706277E+02  0.90051952215E+02  0.82993903715E+02 0.  0.
         13    1    3    3    0    0 -0.45654960121E+02  0.76343145764E+01 -0.36640234245E+02  0.59035379835E+02  0.10566000000E+00 0. -1.
         22    1    1    0    0    0  0.15441855761E+02 -0.94962121839E+01  0.29878706277E+02  0.34948047785E+02  0.00000000000E+00 0. -1.
</event>
<event>
 5    1  0.1751027E-003  0.9118800E+02  0.7818608E-02  0.1130116E+00
         25   -1    0    0    0    0  0.00000000000E+00  0.00000000000E+00  0.99999998245E-14  0.12500000000E+03  0.12500000000E+03 0.  0.
        -13    1    3    3    0    0 -0.24315939905E+02  0.53214351711E+02 -0.20392669088E+02  0.61958891840E+02  0.10566000000E+00 0. -1.
         23    2    1    0    0    0 -0.67394530889E+01  0.25487564350E+02 -0.12981559561E+02  0.95613658733E+02  0.90985793854E+02 0.  0.
         13    1    3    3    0    0  0.17576486816E+02 -0.27726787361E+02  0.74111095274E+01  0.33654766893E+02  0.10566000000E+00 0.  1.
         22    1    1    0    0    0  0.67394530889E+01 -0.25487564350E+02  0.12981559561E+02  0.29386341267E+02  0.00000000000E+00 0. -1.
</event>
<event>
 5    1  0.1751027E-003  0.9118800E+02  0.7818608E-02  0.1130116E+00
         25   -1    0    0    0    0  0.00000000000E+00  0.00000000000E+00  0.99999998245E-14  0.12500000000E+03  0.12500000000E+03 0.  0.
        -13    1    3    3    0    0 -0.14174894248E+02  0.11295337051E+02  0.48875988327E+02  0.52128549424E+02  0.10566000000E+00 0.  1.
         23    2    1    0    0    0  0.13348291459E+02 -0.11363246800E+02  0.22509375060E+02  0.96469801467E+02  0.92154491843E+02 0.  0.
         13    1    3    3    0    0  0.27523185707E+02 -0.22658583851E+02 -0.26366613267E+02  0.44341252044E+02  0.10566000000E+00 0. -1.
         22    1    1    0    0    0 -0.13348291459E+02  0.11363246800E+02 -0.22509375060E+02  0.28530198533E+02  0.00000000000E+00 0.  1.
</event>
<event>
 5    1  0.1751027E-003  0.9118800E+02  0.7818608E-02  0.1130116E+00
         25   -1    0    0    0    0  0.00000000000E+00  0.00000000000E+00  0.99999998245E-14  0.12500000000E+03  0.12500000000E+03 0.  0.
        -13    1    3    3    0    0  0.30749737002E+02  0.41020669526E+00  0.38801942095E+02  0.49510771249E+02  0.10566000000E+00 0.  1.
         23    2    1    0    0    0  0.28748872504E+02  0.82061136992E+00 -0.70335411913E+01  0.95391863028E+02  0.90680569898E+02 0.  0.
         13    1    3    3    0    0 -0.20008644983E+01  0.41040467466E+00 -0.45835483287E+02  0.45881091780E+02  0.10566000000E+00 0. -1.
         22    1    1    0    0    0 -0.28748872504E+02 -0.82061136992E+00  0.70335411913E+01  0.29608136972E+02  0.00000000000E+00 0.  1.
</event>
<event>
 5    1  0.1751027E-003  0.9118800E+02  0.7818608E-02  0.1130116E+00
         25   -1    0    0    0    0  0.00000000000E+00  0.00000000000E+00  0.99999998245E-14  0.12500000000E+03  0.12500000000E+03 0.  0.
        -13    1    3    3    0    0  0.33543038006E+02  0.39757883745E+02  0.51801978477E+01  0.52274949377E+02  0.10566000000E+00 0.  1.
         23    2    1    0    0    0  0.27696433329E+02 -0.43564294274E+01  0.23339586095E+01  0.96866065698E+02  0.92690433295E+02 0.  0.
         13    1    3    3    0    0 -0.58466046767E+01 -0.44114313172E+02 -0.28462392383E+01  0.44591116321E+02  0.10566000000E+00 0. -1.
         22    1    1    0    0    0 -0.27696433329E+02  0.43564294274E+01 -0.23339586095E+01  0.28133934302E+02  0.00000000000E+00 0.  1.
</event>
<event>
 5    1  0.1751027E-003  0.9118800E+02  0.7818608E-02  0.1130116E+00
         25   -1    0    0    0    0  0.00000000000E+00  0.00000000000E+00  0.99999998245E-14  0.12500000000E+03  0.12500000000E+03 0.  0.
        -13    1    3    3    0    0 -0.47957841322E+02  0.35901016681E+02  0.18983100754E+01  0.59937069399E+02  0.10566000000E+00 0. -1.
         23    2    1    0    0    0 -0.16507739618E+02  0.28093331520E+02 -0.27063253473E+00  0.92414512660E+02  0.86479062004E+02 0.  0.
         13    1    3    3    0    0  0.31450101703E+02 -0.78076851605E+01 -0.21689426101E+01  0.32477443261E+02  0.10566000000E+00 0.  1.
         22    1    1    0    0    0  0.16507739618E+02 -0.28093331520E+02  0.27063253473E+00  0.32585487340E+02  0.00000000000E+00 0. -1.
</event>
<event>
 5    1  0.1751027E-003  0.9118800E+02  0.7818608E-02  0.1130116E+00
         25   -1    0    0    0    0  0.00000000000E+00  0.00000000000E+00  0.99999998245E-14  0.12500000000E+03  0.12500000000E+03 0.  0.
        -13    1    3    3    0    0 -0.13204934989E+01 -0.38731709421E+02 -0.22021980156E+02  0.44574295191E+02  0.10566000000E+00 0.  1.
         23    2    1    0    0    0 -0.57117017848E+01 -0.22141999779E+02  0.22884916680E+02  0.92648630586E+02  0.86816805093E+02 0.  0.
         13    1    3    3    0    0 -0.43912082859E+01  0.16589709642E+02  0.44906896836E+02  0.48074335395E+02  0.10566000000E+00 0. -1.
         22    1    1    0    0    0  0.57117017848E+01  0.22141999779E+02 -0.22884916680E+02  0.32351369414E+02  0.00000000000E+00 0. -1.
</event>
<event>
 5    1  0.1751027E-003  0.9118800E+02  0.7818608E-02  0.1130116E+00
         25   -1    0    0    0    0  0.00000000000E+00  0.00000000000E+00  0.99999998245E-14  0.12500000000E+03  0.12500000000E+03 0.  0.
        -13    1    3    3    0    0  0.17667383145E+02 -0.10958432193E+02  0.27319422996E+02  0.34330535973E+02  0.10566000000E+00 0.  1.
         23    2    1    0    0    0 -0.14566143126E+02  0.17368612697E+02 -0.17486603764E+02  0.96370949304E+02  0.92020309312E+02 0.  0.
         13    1    3    3    0    0 -0.32233526271E+02  0.28327044890E+02 -0.44806026760E+02  0.62040413330E+02  0.10566000000E+00 0. -1.
         22    1    1    0    0    0  0.14566143126E+02 -0.17368612697E+02  0.17486603764E+02  0.28629050696E+02  0.00000000000E+00 0. -1.
</event>
<event>
 5    1  0.1751027E-003  0.9118800E+02  0.7818608E-02  0.1130116E+00
         25   -1    0    0    0    0  0.00000000000E+00  0.00000000000E+00  0.99999998245E-14  0.12500000000E+03  0.12500000000E+03 0.  0.
        -13    1    3    3    0    0  0.17479129628E+02 -0.30575851992E+02 -0.82570015964E+01  0.36174465262E+02  0.10566000000E+00 0.  1.
         23    2    1    0    0    0 -0.28553481783E+02  0.51060960566E+01  0.40758529317E+01  0.95708599965E+02  0.91116134637E+02 0.  0.
         13    1    3    3    0    0 -0.46032611412E+02  0.35681948049E+02  0.12332854528E+02  0.59534134703E+02  0.10566000000E+00 0. -1.
         22    1    1    0    0    0  0.28553481783E+02 -0.51060960566E+01 -0.40758529317E+01  0.29291400035E+02  0.00000000000E+00 0. -1.
</event>
<event>
 5    1  0.1751027E-003  0.9118800E+02  0.7818608E-02  0.1130116E+00
         25   -1    0    0    0    0  0.00000000000E+00  0.00000000000E+00  0.99999998245E-14  0.12500000000E+03  0.12500000000E+03 0.  0.
        -13    1    3    3    0    0 -0.14785458469E+02 -0.24874476656E+02 -0.30749177194E+02  0.42224074095E+02  0.10566000000E+00 0. -1.
         23    2    1    0    0    0  0.26508820400E+02  0.34511788098E+01 -0.12049783981E+02  0.95677218955E+02  0.91073073621E+02 0.  0.
         13    1    3    3    0    0  0.41294278870E+02  0.28325655466E+02  0.18699393213E+02  0.53453144861E+02  0.10566000000E+00 0.  1.
         22    1    1    0    0    0 -0.26508820400E+02 -0.34511788098E+01  0.12049783981E+02  0.29322781045E+02  0.00000000000E+00 0.  1.
</event>
<event>
 5    1  0.1751027E-003  0.9118800E+02  0.7818608E-02  0.1130116E+00
         25   -1    0    0    0    0  0.00000000000E+00  0.00000000000E+00  0.99999998245E-14  0.12500000000E+03  0.12500000000E+03 0.  0.
        -13    1    3    3    0    0 -0.31314040298E+01 -0.44222149134E+02  0.13225802620E+02  0.46263778318E+02  0.10566000000E+00 0. -1.
         23    2    1    0    0    0 -0.22732469261E+02  0.22212182447E+01  0.16565346571E+02  0.96784584423E+02  0.92580484476E+02 0.  0.
         13    1    3    3    0    0 -0.19601065231E+02  0.46443367379E+02  0.33395439507E+01  0.50520806105E+02  0.10566000000E+00 0.  1.
         22    1    1    0    0    0  0.22732469261E+02 -0.22212182447E+01 -0.16565346571E+02  0.28215415577E+02  0.00000000000E+00 0.  1.
</event>
<event>
 5    1  0.1751027E-003  0.9118800E+02  0.7818608E-02  0.1130116E+00
         25   -1    0    0    0    0  0.00000000000E+00  0.00000000000E+00  0.99999998245E-14  0.12500000000E+03  0.12500000000E+03 0.  0.
        -13    1    3    3    0    0 -0.26351289066E+02  0.90717505259E+01 -0.24618516449E+01  0.27977829984E+02  0.10566000000E+00 0.  1.
         23    2    1    0    0    0  0.24377421288E+02  0.32848581575E+02  0.65350594310E+00  0.84088937313E+02  0.73465871861E+02 0.  0.
         13    1    3    3    0    0  0.50728710353E+02  0.23776831049E+02  0.31153575880E+01  0.56111107330E+02  0.10566000000E+00 0. -1.
         22    1    1    0    0    0 -0.24377421288E+02 -0.32848581575E+02 -0.65350594310E+00  0.40911062687E+02  0.00000000000E+00 0. -1.
</event>
<event>
 5    1  0.1751027E-003  0.9118800E+02  0.7818608E-02  0.1130116E+00
         25   -1    0    0    0    0  0.00000000000E+00  0.00000000000E+00  0.99999998245E-14  0.12500000000E+03  0.12500000000E+03 0.  0.
        -13    1    3    3    0    0 -0.34924564979E+02 -0.15508394091E+02 -0.14283274407E+02  0.40795325935E+02  0.10566000000E+00 0. -1.
         23    2    1    0    0    0 -0.77855486356E+01  0.11384006661E+02  0.25534721472E+02  0.95978759918E+02  0.91486009748E+02 0.  0.
         13    1    3    3    0    0  0.27139016344E+02  0.26892400753E+02  0.39817995879E+02  0.55183433984E+02  0.10566000000E+00 0.  1.
         22    1    1    0    0    0  0.77855486356E+01 -0.11384006661E+02 -0.25534721472E+02  0.29021240082E+02  0.00000000000E+00 0.  1.
</event>
<event>
 5    1  0.1751027E-003  0.9118800E+02  0.7818608E-02  0.1130116E+00
         25   -1    0    0    0    0  0.00000000000E+00  0.00000000000E+00  0.99999998245E-14  0.12500000000E+03  0.12500000000E+03 0.  0.
        -13    1    3    3    0    0  0.38557986951E+01  0.31409542170E+02  0.34046499683E+02  0.46482274338E+02  0.10566000000E+00 0.  1.
         23    2    1    0    0    0  0.83556126918E+01 -0.16397169484E+02  0.22616417027E+02  0.95842055119E+02  0.91299034933E+02 0.  0.
         13    1    3    3    0    0  0.44998139967E+01 -0.47806711654E+02 -0.11430082656E+02  0.49359780781E+02  0.10566000000E+00 0. -1.
         22    1    1    0    0    0 -0.83556126918E+01  0.16397169484E+02 -0.22616417027E+02  0.29157944881E+02  0.00000000000E+00 0.  1.
</event>
<event>
 5    1  0.1751027E-003  0.9118800E+02  0.7818608E-02  0.1130116E+00
         25   -1    0    0    0    0  0.00000000000E+00  0.00000000000E+00  0.99999998245E-14  0.12500000000E+03  0.12500000000E+03 0.  0.
        -13    1    3    3    0    0  0.22631264304E+02  0.18000499733E+02 -0.20343901765E+02  0.35356436722E+02  0.10566000000E+00 0. -1.
         23    2    1    0    0    0 -0.27542063320E+02 -0.10555020957E+00  0.87317934120E+01  0.96106737655E+02  0.91660702668E+02 0.  0.
         13    1    3    3    0    0 -0.50173327624E+02 -0.18106049942E+02  0.29075695177E+02  0.60750300933E+02  0.10566000000E+00 0.  1.
         22    1    1    0    0    0  0.27542063320E+02  0.10555020957E+00 -0.87317934120E+01  0.28893262345E+02  0.00000000000E+00 0.  1.
</event>
<event>
 5    1  0.1751027E-003  0.9118800E+02  0.7818608E-02  0.1130116E+00
         25   -1    0    0    0    0  0.00000000000E+00  0.00000000000E+00  0.99999998245E-14  0.12500000000E+03  0.12500000000E+03 0.  0.
        -13    1    3    3    0    0 -0.41167591178E+02  0.89372353841E+01 -0.28992778870E+02  0.51139389225E+02  0.10566000000E+00 0. -1.
         23    2    1    0    0    0  0.78291839277E+00  0.16256403597E+02 -0.26631431966E+02  0.93789155928E+02  0.88443705158E+02 0.  0.
         13    1    3    3    0    0  0.41950509571E+02  0.73191682127E+01  0.23613469040E+01  0.42649766703E+02  0.10566000000E+00 0.  1.
         22    1    1    0    0    0 -0.78291839277E+00 -0.16256403597E+02  0.26631431966E+02  0.31210844072E+02  0.00000000000E+00 0.  1.
</event>
<event>
 5    1  0.1751027E-003  0.9118800E+02  0.7818608E-02  0.1130116E+00
         25   -1    0    0    0    0  0.00000000000E+00  0.00000000000E+00  0.99999998245E-14  0.12500000000E+03  0.12500000000E+03 0.  0.
        -13    1    3    3    0    0 -0.35001440103E+02 -0.26966350901E+02 -0.38527997716E+02  0.58623396884E+02  0.10566000000E+00 0.  1.
         23    2    1    0    0    0 -0.96399437045E+00 -0.59334234584E+00 -0.19106634147E+02  0.10585986393E+03  0.10411515732E+03 0.  0.
         13    1    3    3    0    0  0.34037445732E+02  0.26373008555E+02  0.19421363570E+02  0.47236467048E+02  0.10566000000E+00 0. -1.
         22    1    1    0    0    0  0.96399437045E+00  0.59334234584E+00  0.19106634147E+02  0.19140136068E+02  0.00000000000E+00 0.  1.
</event>
<event>
 5    1  0.1751027E-003  0.9118800E+02  0.7818608E-02  0.1130116E+00
         25   -1    0    0    0    0  0.00000000000E+00  0.00000000000E+00  0.99999998245E-14  0.12500000000E+03  0.12500000000E+03 0.  0.
        -13    1    3    3    0    0  0.11704010131E+02  0.39243164586E+02  0.15987970597E+02  0.43961758242E+02  0.10566000000E+00 0.  1.
         23    2    1    0    0    0 -0.13191831896E+02 -0.52896620750E+01  0.25449083812E+02  0.95851057987E+02  0.91311360173E+02 0.  0.
         13    1    3    3    0    0 -0.24895842027E+02 -0.44532826661E+02  0.94611132146E+01  0.51889299744E+02  0.10566000000E+00 0. -1.
         22    1    1    0    0    0  0.13191831896E+02  0.52896620750E+01 -0.25449083812E+02  0.29148942013E+02  0.00000000000E+00 0. -1.
</event>
<event>
 5    1  0.1751027E-003  0.9118800E+02  0.7818608E-02  0.1130116E+00
         25   -1    0    0    0    0  0.00000000000E+00  0.00000000000E+00  0.99999998245E-14  0.12500000000E+03  0.12500000000E+03 0.  0.
        -13    1    3    3    0    0 -0.11469926744E+02 -0.54510884822E+02 -0.23414005885E+02  0.60425347490E+02  0.10566000000E+00 0.  1.
         23    2    1    0    0    0 -0.95587270773E+01 -0.27216748973E+02 -0.44396170977E+00  0.96150081630E+02  0.91719792888E+02 0.  0.
         13    1    3    3    0    0  0.19111996668E+01  0.27294135850E+02  0.22970044175E+02  0.35724734140E+02  0.10566000000E+00 0. -1.
         22    1    1    0    0    0  0.95587270773E+01  0.27216748973E+02  0.44396170977E+00  0.28849918370E+02  0.00000000000E+00 0.  1.
</event>
<event>
 5    1  0.1751027E-003  0.9118800E+02  0.7818608E-02  0.1130116E+00
         25   -1    0    0    0    0  0.00000000000E+00  0.00000000000E+00  0.99999998245E-14  0.12500000000E+03  0.12500000000E+03 0.  0.
        -13    1    3    3    0    0 -0.53446408712E+02 -0.11790284938E+02 -0.27695550994E+02  0.61339906521E+02  0.10566000000E+00 0. -1.
         23    2    1    0    0    0 -0.22916085073E+02 -0.13728643554E+02 -0.12205563562E+02  0.95629974621E+02  0.91008206527E+02 0.  0.
         13    1    3    3    0    0  0.30530323639E+02 -0.19383586161E+01  0.15489987432E+02  0.34290068100E+02  0.10566000000E+00 0.  1.
         22    1    1    0    0    0  0.22916085073E+02  0.13728643554E+02  0.12205563562E+02  0.29370025379E+02  0.00000000000E+00 0. -1.
</event>
<event>
 5    1  0.1751027E-003  0.9118800E+02  0.7818608E-02  0.1130116E+00
         25   -1    0    0    0    0  0.00000000000E+00  0.00000000000E+00  0.99999998245E-14  0.12500000000E+03  0.12500000000E+03 0.  0.
        -13    1    3    3    0    0  0.38305652255E+02  0.32693674924E+01  0.29121178922E+02  0.48229306281E+02  0.10566000000E+00 0.  1.
         23    2    1    0    0    0 -0.93777754416E+01  0.82843142462E+01  0.25842132824E+02  0.96287835963E+02  0.91907339156E+02 0.  0.
         13    1    3    3    0    0 -0.47683427697E+02  0.50149467538E+01 -0.32790460978E+01  0.48058529682E+02  0.10566000000E+00 0. -1.
         22    1    1    0    0    0  0.93777754416E+01 -0.82843142462E+01 -0.25842132824E+02  0.28712164037E+02  0.00000000000E+00 0.  1.
</event>
<event>
 5    1  0.1751027E-003  0.9118800E+02  0.7818608E-02  0.1130116E+00
         25   -1    0    0    0    0  0.00000000000E+00  0.00000000000E+00  0.99999998245E-14  0.12500000000E+03  0.12500000000E+03 0.  0.
        -13    1    3    3    0    0  0.85305665367E+00  0.21660740189E+01  0.36047932612E+02  0.36123180812E+02  0.10566000000E+00 0. -1.
         23    2    1    0    0    0  0.22717998656E+02 -0.60930156586E+01 -0.18244299852E+02  0.95232790191E+02  0.90461027784E+02 0.  0.
         13    1    3    3    0    0  0.21864942002E+02 -0.82590896775E+01 -0.54292232464E+02  0.59109609379E+02  0.10566000000E+00 0.  1.
         22    1    1    0    0    0 -0.22717998656E+02  0.60930156586E+01  0.18244299852E+02  0.29767209809E+02  0.00000000000E+00 0.  1.
</event>
<event>
 5    1  0.1751027E-003  0.9118800E+02  0.7818608E-02  0.1130116E+00
         25   -1    0    0    0    0  0.00000000000E+00  0.00000000000E+00  0.99999998245E-14  0.12500000000E+03  0.12500000000E+03 0.  0.
        -13    1    3    3    0    0 -0.26581352849E+02  0.76953441791E+01  0.36630042149E+01  0.27914430054E+02  0.10566000000E+00 0.  1.
         23    2    1    0    0    0  0.27144740050E+02 -0.90643453640E+01  0.23892484459E+02  0.87719306835E+02  0.79402938918E+02 0.  0.
         13    1    3    3    0    0  0.53726092899E+02 -0.16759689543E+02  0.20229480244E+02  0.59804876781E+02  0.10566000000E+00 0. -1.
         22    1    1    0    0    0 -0.27144740050E+02  0.90643453640E+01 -0.23892484459E+02  0.37280693165E+02  0.00000000000E+00 0. -1.
</event>
<event>
 5    1  0.1751027E-003  0.9118800E+02  0.7818608E-02  0.1130116E+00
         25   -1    0    0    0    0  0.00000000000E+00  0.00000000000E+00  0.99999998245E-14  0.12500000000E+03  0.12500000000E+03 0.  0.
        -13    1    3    3    0    0 -0.19729314459E+02 -0.36108303020E+02 -0.11423912298E+00  0.41147048626E+02  0.10566000000E+00 0.  1.
         23    2    1    0    0    0 -0.70931553815E+01  0.11555665881E+02  0.25056253771E+02  0.96510315547E+02  0.92209429489E+02 0.  0.
         13    1    3    3    0    0  0.12636159077E+02  0.47663968901E+02  0.25170492894E+02  0.55363266921E+02  0.10566000000E+00 0. -1.
         22    1    1    0    0    0  0.70931553815E+01 -0.11555665881E+02 -0.25056253771E+02  0.28489684453E+02  0.00000000000E+00 0. -1.
</event>
<event>
 5    1  0.1751027E-003  0.9118800E+02  0.7818608E-02  0.1130116E+00
         25   -1    0    0    0    0  0.00000000000E+00  0.00000000000E+00  0.99999998245E-14  0.12500000000E+03  0.12500000000E+03 0.  0.
        -13    1    3    3    0    0 -0.31599607090E+02  0.88063046238E+01  0.14452367364E+02  0.35846453881E+02  0.10566000000E+00 0.  1.
         23    2    1    0    0    0  0.26674209964E+02  0.52794837305E+00  0.14351410682E+02  0.94705525335E+02  0.89729489767E+02 0.  0.
         13    1    3    3    0    0  0.58273817054E+02 -0.82783562508E+01 -0.10095668229E+00  0.58859071455E+02  0.10566000000E+00 0. -1.
         22    1    1    0    0    0 -0.26674209964E+02 -0.52794837305E+00 -0.14351410682E+02  0.30294474665E+02  0.00000000000E+00 0. -1.
</event>
<event>
 5    1  0.1751027E-003  0.9118800E+02  0.7818608E-02  0.1130116E+00
         25   -1    0    0    0    0  0.00000000000E+00  0.00000000000E+00  0.99999998245E-14  0.12500000000E+03  0.12500000000E+03 0.  0.
        -13    1    3    3    0    0 -0.11542181409E+01  0.50011554910E+02  0.16180070229E+02  0.52576550673E+02  0.10566000000E+00 0. -1.
         23    2    1    0    0    0 -0.57471034433E+01  0.61218318309E+01  0.25907755642E+02  0.97765503028E+02  0.93895557706E+02 0.  0.
         13    1    3    3    0    0 -0.45928853024E+01 -0.43889723079E+02  0.97276854124E+01  0.45188952354E+02  0.10566000000E+00 0.  1.
         22    1    1    0    0    0  0.57471034433E+01 -0.61218318309E+01 -0.25907755642E+02  0.27234496972E+02  0.00000000000E+00 0.  1.
</event>
<event>
 5    1  0.1751027E-003  0.9118800E+02  0.7818608E-02  0.1130116E+00
         25   -1    0    0    0    0  0.00000000000E+00  0.00000000000E+00  0.99999998245E-14  0.12500000000E+03  0.12500000000E+03 0.  0.
        -13    1    3    3    0    0 -0.26779538449E+01  0.36515258506E+02  0.13387514176E+02  0.38984256315E+02  0.10566000000E+00 0.  1.
         23    2    1    0    0    0  0.19608115117E+02 -0.16187710355E+02  0.13512552041E+02  0.96205743495E+02  0.91795620123E+02 0.  0.
         13    1    3    3    0    0  0.22286068962E+02 -0.52702968861E+02  0.12503786505E+00  0.57221487180E+02  0.10566000000E+00 0. -1.
         22    1    1    0    0    0 -0.19608115117E+02  0.16187710355E+02 -0.13512552041E+02  0.28794256505E+02  0.00000000000E+00 0. -1.
</event>
<event>
 5    1  0.1751027E-003  0.9118800E+02  0.7818608E-02  0.1130116E+00
         25   -1    0    0    0    0  0.00000000000E+00  0.00000000000E+00  0.99999998245E-14  0.12500000000E+03  0.12500000000E+03 0.  0.
        -13    1    3    3    0    0 -0.25742234611E+02 -0.18877507322E+02  0.21804510475E+02  0.38658385462E+02  0.10566000000E+00 0.  1.
         23    2    1    0    0    0  0.32953325488E+01 -0.42851602140E+01 -0.27094448800E+02  0.97371555048E+02  0.93369635118E+02 0.  0.
         13    1    3    3    0    0  0.29037567159E+02  0.14592347108E+02 -0.48898959275E+02  0.58713169586E+02  0.10566000000E+00 0. -1.
         22    1    1    0    0    0 -0.32953325488E+01  0.42851602140E+01  0.27094448800E+02  0.27628444952E+02  0.00000000000E+00 0. -1.
</event>
<event>
 5    1  0.1751027E-003  0.9118800E+02  0.7818608E-02  0.1130116E+00
         25   -1    0    0    0    0  0.00000000000E+00  0.00000000000E+00  0.99999998245E-14  0.12500000000E+03  0.12500000000E+03 0.  0.
        -13    1    3    3    0    0  0.14697916001E+02  0.30540724637E+02  0.19432396123E+02  0.39069089819E+02  0.10566000000E+00 0.  1.
         23    2    1    0    0    0  0.25997872118E+02 -0.14448468420E+02 -0.95449876171E+01  0.93762932549E+02  0.88406635143E+02 0.  0.
         13    1    3    3    0    0  0.11299956117E+02 -0.44989193057E+02 -0.28977383740E+02  0.54693842730E+02  0.10566000000E+00 0. -1.
         22    1    1    0    0    0 -0.25997872118E+02  0.14448468420E+02  0.95449876171E+01  0.31237067451E+02  0.00000000000E+00 0. -1.
</event>
<event>
 5    1  0.1751027E-003  0.9118800E+02  0.7818608E-02  0.1130116E+00
         25   -1    0    0    0    0  0.00000000000E+00  0.00000000000E+00  0.99999998245E-14  0.12500000000E+03  0.12500000000E+03 0.  0.
        -13    1    3    3    0    0 -0.57209586663E+02  0.13471181461E+02  0.47518685397E+01  0.58966100047E+02  0.10566000000E+00 0.  1.
         23    2    1    0    0    0 -0.25788921248E+02  0.53711120051E+00 -0.11650215877E+02  0.96696564209E+02  0.92461565271E+02 0.  0.
         13    1    3    3    0    0  0.31420665415E+02 -0.12934070260E+02 -0.16402084417E+02  0.37730464162E+02  0.10566000000E+00 0. -1.
         22    1    1    0    0    0  0.25788921248E+02 -0.53711120051E+00  0.11650215877E+02  0.28303435791E+02  0.00000000000E+00 0.  1.
</event>
<event>
 5    1  0.1751027E-003  0.9118800E+02  0.7818608E-02  0.1130116E+00
         25   -1    0    0    0    0  0.00000000000E+00  0.00000000000E+00  0.99999998245E-14  0.12500000000E+03  0.12500000000E+03 0.  0.
        -13    1    3    3    0    0  0.22567261711E+02  0.22223814273E+02 -0.20866011360E+02  0.37928627923E+02  0.10566000000E+00 0. -1.
         23    2    1    0    0    0  0.12534099605E+02 -0.22159915999E+02  0.14627397663E+02  0.95638012799E+02  0.91019246315E+02 0.  0.
         13    1    3    3    0    0 -0.10033162105E+02 -0.44383730272E+02  0.35493409024E+02  0.57709384876E+02  0.10566000000E+00 0.  1.
         22    1    1    0    0    0 -0.12534099605E+02  0.22159915999E+02 -0.14627397663E+02  0.29361987201E+02  0.00000000000E+00 0.  1.
</event>
<event>
 5    1  0.1751027E-003  0.9118800E+02  0.7818608E-02  0.1130116E+00
         25   -1    0    0    0    0  0.00000000000E+00  0.00000000000E+00  0.99999998245E-14  0.12500000000E+03  0.12500000000E+03 0.  0.
        -13    1    3    3    0    0  0.27801200465E+02  0.37210372480E+02 -0.11590327799E+02  0.47873431358E+02  0.10566000000E+00 0.  1.
         23    2    1    0    0    0  0.12349055979E+02 -0.62194505963E+01 -0.25473697503E+02  0.96015693664E+02  0.91536459491E+02 0.  0.
         13    1    3    3    0    0 -0.15452144486E+02 -0.43429823076E+02 -0.13883369703E+02  0.48142262307E+02  0.10566000000E+00 0. -1.
         22    1    1    0    0    0 -0.12349055979E+02  0.62194505963E+01  0.25473697503E+02  0.28984306336E+02  0.00000000000E+00 0.  1.
</event>
<event>
 5    1  0.1751027E-003  0.9118800E+02  0.7818608E-02  0.1130116E+00
         25   -1    0    0    0    0  0.00000000000E+00  0.00000000000E+00  0.99999998245E-14  0.12500000000E+03  0.12500000000E+03 0.  0.
        -13    1    3    3    0    0  0.14565640040E+02  0.16939101635E+02 -0.36216997722E+02  0.42553179928E+02  0.10566000000E+00 0.  1.
         23    2    1    0    0    0 -0.70393846706E+01  0.41470443766E+01  0.19604300061E+02  0.10376136788E+03  0.10156447198E+03 0.  0.
         13    1    3    3    0    0 -0.21605024711E+02 -0.12792057258E+02  0.55821297783E+02  0.61208187948E+02  0.10566000000E+00 0. -1.
         22    1    1    0    0    0  0.70393846706E+01 -0.41470443766E+01 -0.19604300061E+02  0.21238632124E+02  0.00000000000E+00 0. -1.
</event>
<event>
 5    1  0.1751027E-003  0.9118800E+02  0.7818608E-02  0.1130116E+00
         25   -1    0    0    0    0  0.00000000000E+00  0.00000000000E+00  0.99999998245E-14  0.12500000000E+03  0.12500000000E+03 0.  0.
        -13    1    3    3    0    0 -0.44395395290E+02 -0.77110143332E+01  0.17447516128E+01  0.45093970631E+02  0.10566000000E+00 0. -1.
         23    2    1    0    0    0 -0.36753547246E+01 -0.65449387323E+01  0.29612547289E+02  0.94450901612E+02  0.89374075676E+02 0.  0.
         13    1    3    3    0    0  0.40720040566E+02  0.11660756009E+01  0.27867795677E+02  0.49356930981E+02  0.10566000000E+00 0.  1.
         22    1    1    0    0    0  0.36753547246E+01  0.65449387323E+01 -0.29612547289E+02  0.30549098388E+02  0.00000000000E+00 0.  1.
</event>
<event>
 5    1  0.1751027E-003  0.9118800E+02  0.7818608E-02  0.1130116E+00
         25   -1    0    0    0    0  0.00000000000E+00  0.00000000000E+00  0.99999998245E-14  0.12500000000E+03  0.12500000000E+03 0.  0.
        -13    1    3    3    0    0 -0.28632346259E+02 -0.46933968221E+02  0.24274253280E+02  0.60098745092E+02  0.10566000000E+00 0.  1.
         23    2    1    0    0    0 -0.50241057280E+01 -0.18071404069E+02  0.19917917293E+02  0.97640527917E+02  0.93729034879E+02 0.  0.
         13    1    3    3    0    0  0.23608240531E+02  0.28862564152E+02 -0.43563359873E+01  0.37541782825E+02  0.10566000000E+00 0. -1.
         22    1    1    0    0    0  0.50241057280E+01  0.18071404069E+02 -0.19917917293E+02  0.27359472083E+02  0.00000000000E+00 0.  1.
</event>
<event>
 5    1  0.1751027E-003  0.9118800E+02  0.7818608E-02  0.1130116E+00
         25   -1    0    0    0    0  0.00000000000E+00  0.00000000000E+00  0.99999998245E-14  0.12500000000E+03  0.12500000000E+03 0.  0.
        -13    1    3    3    0    0  0.43317286796E+02  0.16284807402E+02  0.11448398153E+02  0.47672416257E+02  0.10566000000E+00 0. -1.
         23    2    1    0    0    0  0.97191275975E+01  0.21307013018E+02 -0.20178258273E+02  0.94087019686E+02  0.88863687305E+02 0.  0.
         13    1    3    3    0    0 -0.33598159198E+02  0.50222056153E+01 -0.31626656426E+02  0.46414603429E+02  0.10566000000E+00 0.  1.
         22    1    1    0    0    0 -0.97191275975E+01 -0.21307013018E+02  0.20178258273E+02  0.30912980314E+02  0.00000000000E+00 0. -1.
</event>
<event>
 5    1  0.1751027E-003  0.9118800E+02  0.7818608E-02  0.1130116E+00
         25   -1    0    0    0    0  0.00000000000E+00  0.00000000000E+00  0.99999998245E-14  0.12500000000E+03  0.12500000000E+03 0.  0.
        -13    1    3    3    0    0 -0.11083511554E+02  0.10466610303E+02  0.30636954744E+02  0.34220291051E+02  0.10566000000E+00 0. -1.
         23    2    1    0    0    0  0.21624867361E+02 -0.97637705748E+01 -0.17269055765E+02  0.95654022572E+02  0.91041230456E+02 0.  0.
         13    1    3    3    0    0  0.32708378915E+02 -0.20230380878E+02 -0.47906010509E+02  0.61433731521E+02  0.10566000000E+00 0.  1.
         22    1    1    0    0    0 -0.21624867361E+02  0.97637705748E+01  0.17269055765E+02  0.29345977428E+02  0.00000000000E+00 0.  1.
</event>
<event>
 5    1  0.1751027E-003  0.9118800E+02  0.7818608E-02  0.1130116E+00
         25   -1    0    0    0    0  0.00000000000E+00  0.00000000000E+00  0.99999998245E-14  0.12500000000E+03  0.12500000000E+03 0.  0.
        -13    1    3    3    0    0  0.19083786610E+02 -0.25393360612E+02  0.22997586109E+02  0.39216244153E+02  0.10566000000E+00 0.  1.
         23    2    1    0    0    0 -0.16064145567E+02 -0.13619647533E+02 -0.19979302941E+02  0.95970289052E+02  0.91474435024E+02 0.  0.
         13    1    3    3    0    0 -0.35147932177E+02  0.11773713080E+02 -0.42976889050E+02  0.56754044899E+02  0.10566000000E+00 0. -1.
         22    1    1    0    0    0  0.16064145567E+02  0.13619647533E+02  0.19979302941E+02  0.29029710948E+02  0.00000000000E+00 0. -1.
</event>
<event>
 5    1  0.1751027E-003  0.9118800E+02  0.7818608E-02  0.1130116E+00
         25   -1    0    0    0    0  0.00000000000E+00  0.00000000000E+00  0.99999998245E-14  0.12500000000E+03  0.12500000000E+03 0.  0.
        -13    1    3    3    0    0  0.11139275205E+01  0.35029230113E+01  0.50433658850E+02  0.50567543081E+02  0.10566000000E+00 0. -1.
         23    2    1    0    0    0  0.22782252894E+02 -0.11701580265E+02  0.13383596181E+02  0.96102272159E+02  0.91654612758E+02 0.  0.
         13    1    3    3    0    0  0.21668325374E+02 -0.15204503277E+02 -0.37050062669E+02  0.45534729078E+02  0.10566000000E+00 0.  1.
         22    1    1    0    0    0 -0.22782252894E+02  0.11701580265E+02 -0.13383596181E+02  0.28897727841E+02  0.00000000000E+00 0. -1.
</event>
<event>
 5    1  0.1751027E-003  0.9118800E+02  0.7818608E-02  0.1130116E+00
         25   -1    0    0    0    0  0.00000000000E+00  0.00000000000E+00  0.99999998245E-14  0.12500000000E+03  0.12500000000E+03 0.  0.
        -13    1    3    3    0    0  0.30588212442E+02  0.33147540992E+01 -0.14579047857E+02  0.34046822694E+02  0.10566000000E+00 0. -1.
         23    2    1    0    0    0 -0.17558079730E+02 -0.19432869058E+01  0.23460781095E+02  0.95632147211E+02  0.91011190536E+02 0.  0.
         13    1    3    3    0    0 -0.48146292172E+02 -0.52580410050E+01  0.38039828953E+02  0.61585324517E+02  0.10566000000E+00 0.  1.
         22    1    1    0    0    0  0.17558079730E+02  0.19432869058E+01 -0.23460781095E+02  0.29367852789E+02  0.00000000000E+00 0.  1.
</event>
<event>
 5    1  0.1751027E-003  0.9118800E+02  0.7818608E-02  0.1130116E+00
         25   -1    0    0    0    0  0.00000000000E+00  0.00000000000E+00  0.99999998245E-14  0.12500000000E+03  0.12500000000E+03 0.  0.
        -13    1    3    3    0    0  0.29611907646E+02  0.21365712587E+02 -0.48015708886E+01  0.36829675478E+02  0.10566000000E+00 0.  1.
         23    2    1    0    0    0 -0.24827370448E+02  0.58775303920E+01  0.13266522908E+02  0.96243360473E+02  0.91846829658E+02 0.  0.
         13    1    3    3    0    0 -0.54439278094E+02 -0.15488182195E+02  0.18068093796E+02  0.59413684994E+02  0.10566000000E+00 0. -1.
         22    1    1    0    0    0  0.24827370448E+02 -0.58775303920E+01 -0.13266522908E+02  0.28756639527E+02  0.00000000000E+00 0. -1.
</event>
<event>
 5    1  0.1751027E-003  0.9118800E+02  0.7818608E-02  0.1130116E+00
         25   -1    0    0    0    0  0.00000000000E+00  0.00000000000E+00  0.99999998245E-14  0.12500000000E+03  0.12500000000E+03 0.  0.
        -13    1    3    3    0    0 -0.27893065364E+02 -0.32651966812E+02  0.27831327200E+02  0.51173899303E+02  0.10566000000E+00 0.  1.
         23    2    1    0    0    0 -0.26579909251E+02  0.79424678645E+01  0.10373618374E+02  0.95382668424E+02  0.90667894571E+02 0.  0.
         13    1    3    3    0    0  0.13131561131E+01  0.40594434677E+02 -0.17457708826E+02  0.44208769121E+02  0.10566000000E+00 0. -1.
         22    1    1    0    0    0  0.26579909251E+02 -0.79424678645E+01 -0.10373618374E+02  0.29617331576E+02  0.00000000000E+00 0.  1.
</event>
<event>
 5    1  0.1751027E-003  0.9118800E+02  0.7818608E-02  0.1130116E+00
         25   -1    0    0    0    0  0.00000000000E+00  0.00000000000E+00  0.99999998245E-14  0.12500000000E+03  0.12500000000E+03 0.  0.
        -13    1    3    3    0    0  0.29130426925E+02 -0.51030601290E+02 -0.56228709826E+01  0.59028229543E+02  0.10566000000E+00 0. -1.
         23    2    1    0    0    0  0.15717201009E+02 -0.16287915712E+02  0.11026279710E+02  0.99822520975E+02  0.96595187477E+02 0.  0.
         13    1    3    3    0    0 -0.13413225916E+02  0.34742685578E+02  0.16649150693E+02  0.40794291432E+02  0.10566000000E+00 0.  1.
         22    1    1    0    0    0 -0.15717201009E+02  0.16287915712E+02 -0.11026279710E+02  0.25177479025E+02  0.00000000000E+00 0. -1.
</event>
<event>
 5    1  0.1751027E-003  0.9118800E+02  0.7818608E-02  0.1130116E+00
         25   -1    0    0    0    0  0.00000000000E+00  0.00000000000E+00  0.99999998245E-14  0.12500000000E+03  0.12500000000E+03 0.  0.
        -13    1    3    3    0    0  0.12600802771E+02 -0.29452164205E+02 -0.39383586849E+02  0.50766999951E+02  0.10566000000E+00 0. -1.
         23    2    1    0    0    0 -0.20800164187E+02 -0.72837838085E+01 -0.19757531858E+02  0.95401682448E+02  0.90694104616E+02 0.  0.
         13    1    3    3    0    0 -0.33400966957E+02  0.22168380397E+02  0.19626054991E+02  0.44634682498E+02  0.10566000000E+00 0.  1.
         22    1    1    0    0    0  0.20800164187E+02  0.72837838085E+01  0.19757531858E+02  0.29598317552E+02  0.00000000000E+00 0. -1.
</event>
<event>
 5    1  0.1751027E-003  0.9118800E+02  0.7818608E-02  0.1130116E+00
         25   -1    0    0    0    0  0.00000000000E+00  0.00000000000E+00  0.99999998245E-14  0.12500000000E+03  0.12500000000E+03 0.  0.
        -13    1    3    3    0    0  0.67720840729E+01 -0.67062606080E+01  0.53753647890E+02  0.54592132030E+02  0.10566000000E+00 0. -1.
         23    2    1    0    0    0  0.88857990713E+01 -0.22339025447E+02  0.14433831168E+02  0.96958513498E+02  0.92815022354E+02 0.  0.
         13    1    3    3    0    0  0.21137149984E+01 -0.15632764839E+02 -0.39319816722E+02  0.42366381468E+02  0.10566000000E+00 0.  1.
         22    1    1    0    0    0 -0.88857990713E+01  0.22339025447E+02 -0.14433831168E+02  0.28041486502E+02  0.00000000000E+00 0. -1.
</event>
<event>
 5    1  0.1751027E-003  0.9118800E+02  0.7818608E-02  0.1130116E+00
         25   -1    0    0    0    0  0.00000000000E+00  0.00000000000E+00  0.99999998245E-14  0.12500000000E+03  0.12500000000E+03 0.  0.
        -13    1    3    3    0    0 -0.14331758411E+02  0.41915187377E+02 -0.37433193537E+02  0.57996011712E+02  0.10566000000E+00 0.  1.
         23    2    1    0    0    0  0.95868085390E+01  0.15324940487E+02 -0.20808888818E+02  0.97436064274E+02  0.93455957908E+02 0.  0.
         13    1    3    3    0    0  0.23918566950E+02 -0.26590246891E+02  0.16624304720E+02  0.39440052562E+02  0.10566000000E+00 0. -1.
         22    1    1    0    0    0 -0.95868085390E+01 -0.15324940487E+02  0.20808888818E+02  0.27563935726E+02  0.00000000000E+00 0.  1.
</event>
<event>
 5    1  0.1751027E-003  0.9118800E+02  0.7818608E-02  0.1130116E+00
         25   -1    0    0    0    0  0.00000000000E+00  0.00000000000E+00  0.99999998245E-14  0.12500000000E+03  0.12500000000E+03 0.  0.
        -13    1    3    3    0    0 -0.21596332133E+02  0.13539199972E+02 -0.29362191415E+02  0.38882656111E+02  0.10566000000E+00 0.  1.
         23    2    1    0    0    0  0.27914669349E+02  0.83996544052E+01 -0.17709940865E+01  0.95795216504E+02  0.91234884369E+02 0.  0.
         13    1    3    3    0    0  0.49511001482E+02 -0.51395455672E+01  0.27591197329E+02  0.56912560393E+02  0.10566000000E+00 0. -1.
         22    1    1    0    0    0 -0.27914669349E+02 -0.83996544052E+01  0.17709940865E+01  0.29204783496E+02  0.00000000000E+00 0. -1.
</event>
<event>
 5    1  0.1751027E-003  0.9118800E+02  0.7818608E-02  0.1130116E+00
         25   -1    0    0    0    0  0.00000000000E+00  0.00000000000E+00  0.99999998245E-14  0.12500000000E+03  0.12500000000E+03 0.  0.
        -13    1    3    3    0    0 -0.11119902278E+02 -0.39191673722E+02 -0.97466888019E+01  0.41888526143E+02  0.10566000000E+00 0. -1.
         23    2    1    0    0    0 -0.28186186411E+02  0.93174090929E+01  0.38126844824E+01  0.95069885073E+02  0.90235643003E+02 0.  0.
         13    1    3    3    0    0 -0.17066284133E+02  0.48509082815E+02  0.13559373284E+02  0.53181358930E+02  0.10566000000E+00 0.  1.
         22    1    1    0    0    0  0.28186186411E+02 -0.93174090929E+01 -0.38126844824E+01  0.29930114927E+02  0.00000000000E+00 0. -1.
</event>
<event>
 5    1  0.1751027E-003  0.9118800E+02  0.7818608E-02  0.1130116E+00
         25   -1    0    0    0    0  0.00000000000E+00  0.00000000000E+00  0.99999998245E-14  0.12500000000E+03  0.12500000000E+03 0.  0.
        -13    1    3    3    0    0  0.10803255206E+02  0.30587926478E+02 -0.21427263644E+01  0.32510521522E+02  0.10566000000E+00 0.  1.
         23    2    1    0    0    0 -0.78843081124E+01 -0.28963715139E+02  0.44317008434E+00  0.94979082147E+02  0.90109769374E+02 0.  0.
         13    1    3    3    0    0 -0.18687563319E+02 -0.59551641617E+02  0.25858964487E+01  0.62468560625E+02  0.10566000000E+00 0. -1.
         22    1    1    0    0    0  0.78843081124E+01  0.28963715139E+02 -0.44317008434E+00  0.30020917853E+02  0.00000000000E+00 0. -1.
</event>
<event>
 5    1  0.1751027E-003  0.9118800E+02  0.7818608E-02  0.1130116E+00
         25   -1    0    0    0    0  0.00000000000E+00  0.00000000000E+00  0.99999998245E-14  0.12500000000E+03  0.12500000000E+03 0.  0.
        -13    1    3    3    0    0 -0.30791903269E+02  0.48882313440E+02  0.97859458746E+00  0.57780538987E+02  0.10566000000E+00 0.  1.
         23    2    1    0    0    0 -0.40371961397E+01  0.24528544013E+02  0.14285217247E+02  0.96329181110E+02  0.91963554071E+02 0.  0.
         13    1    3    3    0    0  0.26754707129E+02 -0.24353769427E+02  0.13306622659E+02  0.38548642123E+02  0.10566000000E+00 0. -1.
         22    1    1    0    0    0  0.40371961397E+01 -0.24528544013E+02 -0.14285217247E+02  0.28670818890E+02  0.00000000000E+00 0.  1.
</event>
<event>
 5    1  0.1751027E-003  0.9118800E+02  0.7818608E-02  0.1130116E+00
         25   -1    0    0    0    0  0.00000000000E+00  0.00000000000E+00  0.99999998245E-14  0.12500000000E+03  0.12500000000E+03 0.  0.
        -13    1    3    3    0    0  0.44819456007E+02 -0.28222378383E+02 -0.21388874758E+02  0.57120761600E+02  0.10566000000E+00 0. -1.
         23    2    1    0    0    0  0.12078631467E+02 -0.15750325671E+02 -0.25816345509E+02  0.92435451910E+02  0.86509323067E+02 0.  0.
         13    1    3    3    0    0 -0.32740824540E+02  0.12472052712E+02 -0.44274707513E+01  0.35314690310E+02  0.10566000000E+00 0.  1.
         22    1    1    0    0    0 -0.12078631467E+02  0.15750325671E+02  0.25816345509E+02  0.32564548090E+02  0.00000000000E+00 0. -1.
</event>
<event>
 5    1  0.1751027E-003  0.9118800E+02  0.7818608E-02  0.1130116E+00
         25   -1    0    0    0    0  0.00000000000E+00  0.00000000000E+00  0.99999998245E-14  0.12500000000E+03  0.12500000000E+03 0.  0.
        -13    1    3    3    0    0  0.80925301561E+01 -0.55508737991E+02 -0.68555461776E+01  0.56512995984E+02  0.10566000000E+00 0. -1.
         23    2    1    0    0    0  0.93734195194E+01 -0.23976226896E+02  0.15282411313E+02  0.95062188704E+02  0.90224980887E+02 0.  0.
         13    1    3    3    0    0  0.12808893633E+01  0.31532511095E+02  0.22137957491E+02  0.38549192720E+02  0.10566000000E+00 0.  1.
         22    1    1    0    0    0 -0.93734195194E+01  0.23976226896E+02 -0.15282411313E+02  0.29937811296E+02  0.00000000000E+00 0. -1.
</event>
<event>
 5    1  0.1751027E-003  0.9118800E+02  0.7818608E-02  0.1130116E+00
         25   -1    0    0    0    0  0.00000000000E+00  0.00000000000E+00  0.99999998245E-14  0.12500000000E+03  0.12500000000E+03 0.  0.
        -13    1    3    3    0    0 -0.41978287338E+02 -0.59731584775E+01 -0.25419583296E+02  0.49437046928E+02  0.10566000000E+00 0.  1.
         23    2    1    0    0    0 -0.20950982168E+02 -0.15071312613E+02  0.14450373163E+02  0.95421267738E+02  0.90721094209E+02 0.  0.
         13    1    3    3    0    0  0.21027305169E+02 -0.90981541357E+01  0.39869956459E+02  0.45984220809E+02  0.10566000000E+00 0. -1.
         22    1    1    0    0    0  0.20950982168E+02  0.15071312613E+02 -0.14450373163E+02  0.29578732262E+02  0.00000000000E+00 0.  1.
</event>
<event>
 5    1  0.1751027E-003  0.9118800E+02  0.7818608E-02  0.1130116E+00
         25   -1    0    0    0    0  0.00000000000E+00  0.00000000000E+00  0.99999998245E-14  0.12500000000E+03  0.12500000000E+03 0.  0.
        -13    1    3    3    0    0  0.50317135409E+02 -0.12509515937E+02 -0.87894849455E+01  0.52588670970E+02  0.10566000000E+00 0.  1.
         23    2    1    0    0    0 -0.47331870221E+01  0.90501794531E+01  0.54821838601E+01  0.11340848813E+03  0.11281454708E+03 0.  0.
         13    1    3    3    0    0 -0.55050322431E+02  0.21559695390E+02  0.14271668806E+02  0.60819817162E+02  0.10566000000E+00 0. -1.
         22    1    1    0    0    0  0.47331870221E+01 -0.90501794531E+01 -0.54821838601E+01  0.11591511868E+02  0.00000000000E+00 0. -1.
</event>
<event>
 5    1  0.1751027E-003  0.9118800E+02  0.7818608E-02  0.1130116E+00
         25   -1    0    0    0    0  0.00000000000E+00  0.00000000000E+00  0.99999998245E-14  0.12500000000E+03  0.12500000000E+03 0.  0.
        -13    1    3    3    0    0  0.26856927830E+02 -0.14737101529E+02 -0.88567028995E+01  0.31889325553E+02  0.10566000000E+00 0. -1.
         23    2    1    0    0    0 -0.22366036079E+02  0.17570353257E+02  0.11688885517E+02  0.94249602798E+02  0.89092091117E+02 0.  0.
         13    1    3    3    0    0 -0.49222963909E+02  0.32307454786E+02  0.20545588416E+02  0.62360277245E+02  0.10566000000E+00 0.  1.
         22    1    1    0    0    0  0.22366036079E+02 -0.17570353257E+02 -0.11688885517E+02  0.30750397202E+02  0.00000000000E+00 0.  1.
</event>
<event>
 5    1  0.1751027E-003  0.9118800E+02  0.7818608E-02  0.1130116E+00
         25   -1    0    0    0    0  0.00000000000E+00  0.00000000000E+00  0.99999998245E-14  0.12500000000E+03  0.12500000000E+03 0.  0.
        -13    1    3    3    0    0  0.33832924733E+02 -0.71657491303E+01  0.49251046135E+00  0.34587114468E+02  0.10566000000E+00 0.  1.
         23    2    1    0    0    0 -0.21329251676E+02 -0.72109046691E+01 -0.21402216113E+02  0.93935728276E+02  0.88650617985E+02 0.  0.
         13    1    3    3    0    0 -0.55162176409E+02 -0.45155538853E-01 -0.21894726574E+02  0.59348613809E+02  0.10566000000E+00 0. -1.
         22    1    1    0    0    0  0.21329251676E+02  0.72109046691E+01  0.21402216113E+02  0.31064271724E+02  0.00000000000E+00 0. -1.
</event>
<event>
 5    1  0.1751027E-003  0.9118800E+02  0.7818608E-02  0.1130116E+00
         25   -1    0    0    0    0  0.00000000000E+00  0.00000000000E+00  0.99999998245E-14  0.12500000000E+03  0.12500000000E+03 0.  0.
        -13    1    3    3    0    0  0.87309109685E+01  0.56409698924E+01 -0.51296341382E+02  0.52339040409E+02  0.10566000000E+00 0.  1.
         23    2    1    0    0    0  0.25360060547E+01 -0.22399825818E+02 -0.19393805312E+02  0.95262763951E+02  0.90502436364E+02 0.  0.
         13    1    3    3    0    0 -0.61949049139E+01 -0.28040795710E+02  0.31902536071E+02  0.42923723542E+02  0.10566000000E+00 0. -1.
         22    1    1    0    0    0 -0.25360060547E+01  0.22399825818E+02  0.19393805312E+02  0.29737236049E+02  0.00000000000E+00 0.  1.
</event>
<event>
 5    1  0.1751027E-003  0.9118800E+02  0.7818608E-02  0.1130116E+00
         25   -1    0    0    0    0  0.00000000000E+00  0.00000000000E+00  0.99999998245E-14  0.12500000000E+03  0.12500000000E+03 0.  0.
        -13    1    3    3    0    0 -0.22905053461E+02 -0.35733430348E+02 -0.28350599554E+02  0.51042013848E+02  0.10566000000E+00 0.  1.
         23    2    1    0    0    0  0.13793649039E+02 -0.92695399100E+01 -0.23030977393E+02  0.96599030939E+02  0.92329614614E+02 0.  0.
         13    1    3    3    0    0  0.36698702500E+02  0.26463890438E+02  0.53196221615E+01  0.45557017091E+02  0.10566000000E+00 0. -1.
         22    1    1    0    0    0 -0.13793649039E+02  0.92695399100E+01  0.23030977393E+02  0.28400969061E+02  0.00000000000E+00 0.  1.
</event>
<event>
 5    1  0.1751027E-003  0.9118800E+02  0.7818608E-02  0.1130116E+00
         25   -1    0    0    0    0  0.00000000000E+00  0.00000000000E+00  0.99999998245E-14  0.12500000000E+03  0.12500000000E+03 0.  0.
        -13    1    3    3    0    0 -0.54565791457E+02  0.21059525934E+02 -0.15852170009E+02  0.60598941310E+02  0.10566000000E+00 0. -1.
         23    2    1    0    0    0 -0.25953404696E+02 -0.14277954089E+01 -0.55403579979E+01  0.98423443003E+02  0.94767403419E+02 0.  0.
         13    1    3    3    0    0  0.28612386761E+02 -0.22487321343E+02  0.10311812011E+02  0.37824501693E+02  0.10566000000E+00 0.  1.
         22    1    1    0    0    0  0.25953404696E+02  0.14277954089E+01  0.55403579979E+01  0.26576556997E+02  0.00000000000E+00 0. -1.
</event>
<event>
 5    1  0.1751027E-003  0.9118800E+02  0.7818608E-02  0.1130116E+00
         25   -1    0    0    0    0  0.00000000000E+00  0.00000000000E+00  0.99999998245E-14  0.12500000000E+03  0.12500000000E+03 0.  0.
        -13    1    3    3    0    0 -0.51527421505E+02  0.23600388956E+02  0.91212911228E+01  0.57404378244E+02  0.10566000000E+00 0.  1.
         23    2    1    0    0    0 -0.13883760917E+02  0.25761487862E+02  0.34991931802E+01  0.95527005124E+02  0.90866667601E+02 0.  0.
         13    1    3    3    0    0  0.37643660588E+02  0.21610989057E+01 -0.56220979425E+01  0.38122626880E+02  0.10566000000E+00 0. -1.
         22    1    1    0    0    0  0.13883760917E+02 -0.25761487862E+02 -0.34991931802E+01  0.29472994876E+02  0.00000000000E+00 0.  1.
</event>
<event>
 5    1  0.1751027E-003  0.9118800E+02  0.7818608E-02  0.1130116E+00
         25   -1    0    0    0    0  0.00000000000E+00  0.00000000000E+00  0.99999998245E-14  0.12500000000E+03  0.12500000000E+03 0.  0.
        -13    1    3    3    0    0 -0.60007401439E+02  0.14756655878E+02 -0.92790953632E+01  0.62488078023E+02  0.10566000000E+00 0.  1.
         23    2    1    0    0    0 -0.34370047143E+02  0.91909790979E+01 -0.58035521309E+01  0.88952039521E+02  0.81320414904E+02 0.  0.
         13    1    3    3    0    0  0.25637354297E+02 -0.55656767804E+01  0.34755432323E+01  0.26463961498E+02  0.10566000000E+00 0. -1.
         22    1    1    0    0    0  0.34370047143E+02 -0.91909790979E+01  0.58035521309E+01  0.36047960479E+02  0.00000000000E+00 0.  1.
</event>
<event>
 5    1  0.1751027E-003  0.9118800E+02  0.7818608E-02  0.1130116E+00
         25   -1    0    0    0    0  0.00000000000E+00  0.00000000000E+00  0.99999998245E-14  0.12500000000E+03  0.12500000000E+03 0.  0.
        -13    1    3    3    0    0  0.28247228835E+02 -0.14420419602E+02  0.33768715640E+02  0.46327008952E+02  0.10566000000E+00 0.  1.
         23    2    1    0    0    0 -0.11084936657E+02 -0.26042181410E+02  0.54245854661E+01  0.96181652359E+02  0.91762808859E+02 0.  0.
         13    1    3    3    0    0 -0.39332165493E+02 -0.11621761808E+02 -0.28344130174E+02  0.49854643407E+02  0.10566000000E+00 0. -1.
         22    1    1    0    0    0  0.11084936657E+02  0.26042181410E+02 -0.54245854661E+01  0.28818347641E+02  0.00000000000E+00 0. -1.
</event>
<event>
 5    1  0.1751027E-003  0.9118800E+02  0.7818608E-02  0.1130116E+00
         25   -1    0    0    0    0  0.00000000000E+00  0.00000000000E+00  0.99999998245E-14  0.12500000000E+03  0.12500000000E+03 0.  0.
        -13    1    3    3    0    0 -0.40199048937E+02  0.91087985213E+01 -0.24632157472E+02  0.48017581069E+02  0.10566000000E+00 0.  1.
         23    2    1    0    0    0 -0.20588923856E+02 -0.19045508320E+02  0.84786623694E+01  0.95699438772E+02  0.91103565754E+02 0.  0.
         13    1    3    3    0    0  0.19610125081E+02 -0.28154306841E+02  0.33110819842E+02  0.47681857703E+02  0.10566000000E+00 0. -1.
         22    1    1    0    0    0  0.20588923856E+02  0.19045508320E+02 -0.84786623694E+01  0.29300561228E+02  0.00000000000E+00 0. -1.
</event>
<event>
 5    1  0.1751027E-003  0.9118800E+02  0.7818608E-02  0.1130116E+00
         25   -1    0    0    0    0  0.00000000000E+00  0.00000000000E+00  0.99999998245E-14  0.12500000000E+03  0.12500000000E+03 0.  0.
        -13    1    3    3    0    0  0.13813959143E+01 -0.22480936710E+02 -0.25884281114E+02  0.34311921294E+02  0.10566000000E+00 0. -1.
         23    2    1    0    0    0  0.15857426253E+02  0.14555248686E+02  0.20408183645E+02  0.95338456019E+02  0.90606920291E+02 0.  0.
         13    1    3    3    0    0  0.14476030339E+02  0.37036185396E+02  0.46292464759E+02  0.61026534725E+02  0.10566000000E+00 0.  1.
         22    1    1    0    0    0 -0.15857426253E+02 -0.14555248686E+02 -0.20408183645E+02  0.29661543981E+02  0.00000000000E+00 0.  1.
</event>
<event>
 5    1  0.1751027E-003  0.9118800E+02  0.7818608E-02  0.1130116E+00
         25   -1    0    0    0    0  0.00000000000E+00  0.00000000000E+00  0.99999998245E-14  0.12500000000E+03  0.12500000000E+03 0.  0.
        -13    1    3    3    0    0  0.22856798141E+02 -0.20907824449E+02  0.24947088439E+02  0.39773593376E+02  0.10566000000E+00 0. -1.
         23    2    1    0    0    0  0.14767139611E+02  0.14626540814E+02 -0.18982081826E+02  0.96851757800E+02  0.92671136014E+02 0.  0.
         13    1    3    3    0    0 -0.80896585300E+01  0.35534365263E+02 -0.43929170265E+02  0.57078164424E+02  0.10566000000E+00 0.  1.
         22    1    1    0    0    0 -0.14767139611E+02 -0.14626540814E+02  0.18982081826E+02  0.28148242200E+02  0.00000000000E+00 0.  1.
</event>
<event>
 5    1  0.1751027E-003  0.9118800E+02  0.7818608E-02  0.1130116E+00
         25   -1    0    0    0    0  0.00000000000E+00  0.00000000000E+00  0.99999998245E-14  0.12500000000E+03  0.12500000000E+03 0.  0.
        -13    1    3    3    0    0 -0.97217913541E+01 -0.23891053765E+02  0.49056694702E+02  0.55424418231E+02  0.10566000000E+00 0.  1.
         23    2    1    0    0    0  0.55605810897E+01 -0.25419147483E+02  0.10475762799E+02  0.96950138556E+02  0.92803742591E+02 0.  0.
         13    1    3    3    0    0  0.15282372444E+02 -0.15280937182E+01 -0.38580931903E+02  0.41525720324E+02  0.10566000000E+00 0. -1.
         22    1    1    0    0    0 -0.55605810897E+01  0.25419147483E+02 -0.10475762799E+02  0.28049861444E+02  0.00000000000E+00 0.  1.
</event>
<event>
 5    1  0.1751027E-003  0.9118800E+02  0.7818608E-02  0.1130116E+00
         25   -1    0    0    0    0  0.00000000000E+00  0.00000000000E+00  0.99999998245E-14  0.12500000000E+03  0.12500000000E+03 0.  0.
        -13    1    3    3    0    0  0.27242560528E+02  0.12672552061E+01  0.28282250651E+02  0.39289437586E+02  0.10566000000E+00 0.  1.
         23    2    1    0    0    0 -0.26817386717E+02 -0.44693273349E+00  0.96283802924E+01  0.96503023209E+02  0.92199543395E+02 0.  0.
         13    1    3    3    0    0 -0.54059947245E+02 -0.17141879396E+01 -0.18653870359E+02  0.57213585623E+02  0.10566000000E+00 0. -1.
         22    1    1    0    0    0  0.26817386717E+02  0.44693273349E+00 -0.96283802924E+01  0.28496976791E+02  0.00000000000E+00 0. -1.
</event>
<event>
 5    1  0.1751027E-003  0.9118800E+02  0.7818608E-02  0.1130116E+00
         25   -1    0    0    0    0  0.00000000000E+00  0.00000000000E+00  0.99999998245E-14  0.12500000000E+03  0.12500000000E+03 0.  0.
        -13    1    3    3    0    0 -0.22907286770E+02 -0.25981700149E+02  0.20530468782E+02  0.40265417447E+02  0.10566000000E+00 0.  1.
         23    2    1    0    0    0  0.53059019980E+01  0.18619032205E+02  0.25171508969E+02  0.93244278940E+02  0.87670232890E+02 0.  0.
         13    1    3    3    0    0  0.28213188768E+02  0.44600732354E+02  0.46410401875E+01  0.52978861492E+02  0.10566000000E+00 0. -1.
         22    1    1    0    0    0 -0.53059019980E+01 -0.18619032205E+02 -0.25171508969E+02  0.31755721060E+02  0.00000000000E+00 0. -1.
</event>
<event>
 5    1  0.1751027E-003  0.9118800E+02  0.7818608E-02  0.1130116E+00
         25   -1    0    0    0    0  0.00000000000E+00  0.00000000000E+00  0.99999998245E-14  0.12500000000E+03  0.12500000000E+03 0.  0.
        -13    1    3    3    0    0 -0.33706978411E+02 -0.12523561497E+02 -0.69067522040E+01  0.36615766771E+02  0.10566000000E+00 0. -1.
         23    2    1    0    0    0  0.13671119255E+02  0.66844845504E+01  0.24165878528E+02  0.96441787164E+02  0.92116484903E+02 0.  0.
         13    1    3    3    0    0  0.47378097666E+02  0.19208046047E+02  0.31072630732E+02  0.59826020393E+02  0.10566000000E+00 0.  1.
         22    1    1    0    0    0 -0.13671119255E+02 -0.66844845504E+01 -0.24165878528E+02  0.28558212836E+02  0.00000000000E+00 0.  1.
</event>
<event>
 5    1  0.1751027E-003  0.9118800E+02  0.7818608E-02  0.1130116E+00
         25   -1    0    0    0    0  0.00000000000E+00  0.00000000000E+00  0.99999998245E-14  0.12500000000E+03  0.12500000000E+03 0.  0.
        -13    1    3    3    0    0  0.68840162919E+01 -0.45992062792E+02 -0.14602860464E+02  0.48743350500E+02  0.10566000000E+00 0.  1.
         23    2    1    0    0    0 -0.12277936851E+02 -0.57332871822E+01 -0.26800784900E+02  0.94968343594E+02  0.90094871654E+02 0.  0.
         13    1    3    3    0    0 -0.19161953143E+02  0.40258775610E+02 -0.12197924436E+02  0.46224993093E+02  0.10566000000E+00 0. -1.
         22    1    1    0    0    0  0.12277936851E+02  0.57332871822E+01  0.26800784900E+02  0.30031656406E+02  0.00000000000E+00 0. -1.
</event>
<event>
 5    1  0.1751027E-003  0.9118800E+02  0.7818608E-02  0.1130116E+00
         25   -1    0    0    0    0  0.00000000000E+00  0.00000000000E+00  0.99999998245E-14  0.12500000000E+03  0.12500000000E+03 0.  0.
        -13    1    3    3    0    0  0.32082127962E+02  0.18605039159E+02  0.86189606044E+01  0.38075032010E+02  0.10566000000E+00 0.  1.
         23    2    1    0    0    0 -0.18428599345E+02 -0.10189573757E+02  0.18402265353E+02  0.97034234191E+02  0.92916944353E+02 0.  0.
         13    1    3    3    0    0 -0.50510727307E+02 -0.28794612915E+02  0.97833047482E+01  0.58959202181E+02  0.10566000000E+00 0. -1.
         22    1    1    0    0    0  0.18428599345E+02  0.10189573757E+02 -0.18402265353E+02  0.27965765809E+02  0.00000000000E+00 0. -1.
</event>
<event>
 5    1  0.1751027E-003  0.9118800E+02  0.7818608E-02  0.1130116E+00
         25   -1    0    0    0    0  0.00000000000E+00  0.00000000000E+00  0.99999998245E-14  0.12500000000E+03  0.12500000000E+03 0.  0.
        -13    1    3    3    0    0 -0.43289426658E+02  0.23979050712E+02 -0.11633768936E+01  0.49500847904E+02  0.10566000000E+00 0.  1.
         23    2    1    0    0    0 -0.14513701383E+02 -0.48056394671E+01  0.23406071987E+02  0.97043142087E+02  0.92928927260E+02 0.  0.
         13    1    3    3    0    0  0.28775725275E+02 -0.28784690180E+02  0.24569448881E+02  0.47542294183E+02  0.10566000000E+00 0. -1.
         22    1    1    0    0    0  0.14513701383E+02  0.48056394671E+01 -0.23406071987E+02  0.27956857913E+02  0.00000000000E+00 0. -1.
</event>
<event>
 5    1  0.1751027E-003  0.9118800E+02  0.7818608E-02  0.1130116E+00
         25   -1    0    0    0    0  0.00000000000E+00  0.00000000000E+00  0.99999998245E-14  0.12500000000E+03  0.12500000000E+03 0.  0.
        -13    1    3    3    0    0 -0.19329588210E+02  0.19645279777E+02 -0.49598998338E+02  0.56741887509E+02  0.10566000000E+00 0.  1.
         23    2    1    0    0    0  0.64744017487E+01 -0.13049123512E+00 -0.29128475207E+02  0.95160379127E+02  0.90360914015E+02 0.  0.
         13    1    3    3    0    0  0.25803989959E+02 -0.19775771012E+02  0.20470523131E+02  0.38418491618E+02  0.10566000000E+00 0. -1.
         22    1    1    0    0    0 -0.64744017487E+01  0.13049123512E+00  0.29128475207E+02  0.29839620873E+02  0.00000000000E+00 0.  1.
</event>
<event>
 5    1  0.1751027E-003  0.9118800E+02  0.7818608E-02  0.1130116E+00
         25   -1    0    0    0    0  0.00000000000E+00  0.00000000000E+00  0.99999998245E-14  0.12500000000E+03  0.12500000000E+03 0.  0.
        -13    1    3    3    0    0 -0.27851826445E+00 -0.48896675634E+02 -0.38274161447E+02  0.62095773278E+02  0.10566000000E+00 0.  1.
         23    2    1    0    0    0  0.40992544554E+01 -0.24660293965E+02 -0.15876891465E+02  0.95385650976E+02  0.90672006397E+02 0.  0.
         13    1    3    3    0    0  0.43777727199E+01  0.24236381669E+02  0.22397269983E+02  0.33289877698E+02  0.10566000000E+00 0. -1.
         22    1    1    0    0    0 -0.40992544554E+01  0.24660293965E+02  0.15876891465E+02  0.29614349024E+02  0.00000000000E+00 0.  1.
</event>
<event>
 5    1  0.1751027E-003  0.9118800E+02  0.7818608E-02  0.1130116E+00
         25   -1    0    0    0    0  0.00000000000E+00  0.00000000000E+00  0.99999998245E-14  0.12500000000E+03  0.12500000000E+03 0.  0.
        -13    1    3    3    0    0  0.24478076236E+02  0.19148796011E+02 -0.92241010441E+01  0.32418325203E+02  0.10566000000E+00 0.  1.
         23    2    1    0    0    0 -0.23388832859E+02 -0.19614309596E+02 -0.27540273983E+01  0.94351291865E+02  0.89234651152E+02 0.  0.
         13    1    3    3    0    0 -0.47866909094E+02 -0.38763105607E+02  0.64700736458E+01  0.61932966662E+02  0.10566000000E+00 0. -1.
         22    1    1    0    0    0  0.23388832859E+02  0.19614309596E+02  0.27540273983E+01  0.30648708135E+02  0.00000000000E+00 0. -1.
</event>
<event>
 5    1  0.1751027E-003  0.9118800E+02  0.7818608E-02  0.1130116E+00
         25   -1    0    0    0    0  0.00000000000E+00  0.00000000000E+00  0.99999998245E-14  0.12500000000E+03  0.12500000000E+03 0.  0.
        -13    1    3    3    0    0  0.46108499252E+02  0.25799503628E+02 -0.24352762126E+01  0.52891869176E+02  0.10566000000E+00 0.  1.
         23    2    1    0    0    0  0.12719084488E+02  0.35016596770E+02  0.12373552888E+01  0.87724428808E+02  0.79411001769E+02 0.  0.
         13    1    3    3    0    0 -0.33389414764E+02  0.92170931427E+01  0.36726315014E+01  0.34832559631E+02  0.10566000000E+00 0. -1.
         22    1    1    0    0    0 -0.12719084488E+02 -0.35016596770E+02 -0.12373552888E+01  0.37275571192E+02  0.00000000000E+00 0.  1.
</event>
<event>
 5    1  0.1751027E-003  0.9118800E+02  0.7818608E-02  0.1130116E+00
         25   -1    0    0    0    0  0.00000000000E+00  0.00000000000E+00  0.99999998245E-14  0.12500000000E+03  0.12500000000E+03 0.  0.
        -13    1    3    3    0    0 -0.22013768016E+02  0.23640982945E+02 -0.54333878938E+01  0.32757211800E+02  0.10566000000E+00 0.  1.
         23    2    1    0    0    0 -0.28694752220E+02 -0.22154106035E+02 -0.22784208807E+02  0.82182790958E+02  0.70147685204E+02 0.  0.
         13    1    3    3    0    0 -0.66809842047E+01 -0.45795088981E+02 -0.17350820913E+02  0.49425579158E+02  0.10566000000E+00 0. -1.
         22    1    1    0    0    0  0.28694752220E+02  0.22154106035E+02  0.22784208807E+02  0.42817209042E+02  0.00000000000E+00 0. -1.
</event>
<event>
 5    1  0.1751027E-003  0.9118800E+02  0.7818608E-02  0.1130116E+00
         25   -1    0    0    0    0  0.00000000000E+00  0.00000000000E+00  0.99999998245E-14  0.12500000000E+03  0.12500000000E+03 0.  0.
        -13    1    3    3    0    0 -0.51872054992E+02  0.70986689932E+01 -0.47615210774E+01  0.52571707577E+02  0.10566000000E+00 0.  1.
         23    2    1    0    0    0 -0.12422085087E+02  0.13719869193E+02 -0.22103576905E+02  0.96171002088E+02  0.91748299832E+02 0.  0.
         13    1    3    3    0    0  0.39449969904E+02  0.66212002002E+01 -0.17342055827E+02  0.43599294512E+02  0.10566000000E+00 0. -1.
         22    1    1    0    0    0  0.12422085087E+02 -0.13719869193E+02  0.22103576905E+02  0.28828997912E+02  0.00000000000E+00 0.  1.
</event>
<event>
 5    1  0.1751027E-003  0.9118800E+02  0.7818608E-02  0.1130116E+00
         25   -1    0    0    0    0  0.00000000000E+00  0.00000000000E+00  0.99999998245E-14  0.12500000000E+03  0.12500000000E+03 0.  0.
        -13    1    3    3    0    0  0.17286422282E+02  0.22930424773E+02 -0.24625844248E+02  0.37829461330E+02  0.10566000000E+00 0.  1.
         23    2    1    0    0    0 -0.22503167912E+00  0.20347485239E+00  0.27589870325E+02  0.97408461699E+02  0.93419031384E+02 0.  0.
         13    1    3    3    0    0 -0.17511453961E+02 -0.22726949921E+02  0.52215714573E+02  0.59579000369E+02  0.10566000000E+00 0. -1.
         22    1    1    0    0    0  0.22503167912E+00 -0.20347485239E+00 -0.27589870325E+02  0.27591538301E+02  0.00000000000E+00 0. -1.
</event>
<event>
 5    1  0.1751027E-003  0.9118800E+02  0.7818608E-02  0.1130116E+00
         25   -1    0    0    0    0  0.00000000000E+00  0.00000000000E+00  0.99999998245E-14  0.12500000000E+03  0.12500000000E+03 0.  0.
        -13    1    3    3    0    0  0.32233746089E+02 -0.43342706599E+02  0.17165834925E+02  0.56676994054E+02  0.10566000000E+00 0.  1.
         23    2    1    0    0    0  0.19777924182E+02 -0.96111203846E+01  0.23084029396E+02  0.93118777734E+02  0.87491110597E+02 0.  0.
         13    1    3    3    0    0 -0.12455821907E+02  0.33731586215E+02  0.59181944716E+01  0.36441783680E+02  0.10566000000E+00 0. -1.
         22    1    1    0    0    0 -0.19777924182E+02  0.96111203846E+01 -0.23084029396E+02  0.31881222266E+02  0.00000000000E+00 0.  1.
</event>
<event>
 5    1  0.1751027E-003  0.9118800E+02  0.7818608E-02  0.1130116E+00
         25   -1    0    0    0    0  0.00000000000E+00  0.00000000000E+00  0.99999998245E-14  0.12500000000E+03  0.12500000000E+03 0.  0.
        -13    1    3    3    0    0  0.29861419955E+02  0.24504516883E+02  0.43795986895E+02  0.58397563147E+02  0.10566000000E+00 0.  1.
         23    2    1    0    0    0  0.58328526606E+01  0.24525684489E+02  0.15992930757E+02  0.95145264965E+02  0.90340003550E+02 0.  0.
         13    1    3    3    0    0 -0.24028567294E+02  0.21167605097E-01 -0.27803056138E+02  0.36747701818E+02  0.10566000000E+00 0. -1.
         22    1    1    0    0    0 -0.58328526606E+01 -0.24525684489E+02 -0.15992930757E+02  0.29854735035E+02  0.00000000000E+00 0.  1.
</event>
<event>
 5    1  0.1751027E-003  0.9118800E+02  0.7818608E-02  0.1130116E+00
         25   -1    0    0    0    0  0.00000000000E+00  0.00000000000E+00  0.99999998245E-14  0.12500000000E+03  0.12500000000E+03 0.  0.
        -13    1    3    3    0    0 -0.49184165191E+01  0.14945624142E+02  0.42044442707E+02  0.44892191177E+02  0.10566000000E+00 0.  1.
         23    2    1    0    0    0  0.12802923861E+02  0.27706176150E+02 -0.23719833249E+01  0.94386712670E+02  0.89284254869E+02 0.  0.
         13    1    3    3    0    0  0.17721340380E+02  0.12760552008E+02 -0.44416426032E+02  0.49494521494E+02  0.10566000000E+00 0. -1.
         22    1    1    0    0    0 -0.12802923861E+02 -0.27706176150E+02  0.23719833249E+01  0.30613287330E+02  0.00000000000E+00 0. -1.
</event>
<event>
 5    1  0.1751027E-003  0.9118800E+02  0.7818608E-02  0.1130116E+00
         25   -1    0    0    0    0  0.00000000000E+00  0.00000000000E+00  0.99999998245E-14  0.12500000000E+03  0.12500000000E+03 0.  0.
        -13    1    3    3    0    0 -0.26274268115E+02 -0.20541693550E+01  0.42772750493E+02  0.50240184370E+02  0.10566000000E+00 0.  1.
         23    2    1    0    0    0  0.15117986352E+02  0.35049750368E+01  0.24882356046E+02  0.95674754839E+02  0.91069691499E+02 0.  0.
         13    1    3    3    0    0  0.41392254467E+02  0.55591443918E+01 -0.17890394447E+02  0.45434570469E+02  0.10566000000E+00 0. -1.
         22    1    1    0    0    0 -0.15117986352E+02 -0.35049750368E+01 -0.24882356046E+02  0.29325245161E+02  0.00000000000E+00 0.  1.
</event>
<event>
 5    1  0.1751027E-003  0.9118800E+02  0.7818608E-02  0.1130116E+00
         25   -1    0    0    0    0  0.00000000000E+00  0.00000000000E+00  0.99999998245E-14  0.12500000000E+03  0.12500000000E+03 0.  0.
        -13    1    3    3    0    0 -0.31034093827E+02  0.52709978108E+02  0.85817678038E+01  0.61766614563E+02  0.10566000000E+00 0. -1.
         23    2    1    0    0    0 -0.10207210213E+02  0.26467211194E+02  0.88942096827E+01  0.95271102028E+02  0.90513952002E+02 0.  0.
         13    1    3    3    0    0  0.20826883614E+02 -0.26242766914E+02  0.31244187890E+00  0.33504487466E+02  0.10566000000E+00 0.  1.
         22    1    1    0    0    0  0.10207210213E+02 -0.26467211194E+02 -0.88942096827E+01  0.29728897972E+02  0.00000000000E+00 0. -1.
</event>
<event>
 5    1  0.1751027E-003  0.9118800E+02  0.7818608E-02  0.1130116E+00
         25   -1    0    0    0    0  0.00000000000E+00  0.00000000000E+00  0.99999998245E-14  0.12500000000E+03  0.12500000000E+03 0.  0.
        -13    1    3    3    0    0 -0.35581515509E+02 -0.15055190493E+01  0.27997198673E+02  0.45300829254E+02  0.10566000000E+00 0. -1.
         23    2    1    0    0    0  0.93922785839E+00  0.27773316364E+02  0.94915815205E+01  0.95634554821E+02  0.91014497225E+02 0.  0.
         13    1    3    3    0    0  0.36520743367E+02  0.29278835413E+02 -0.18505617152E+02  0.50333725567E+02  0.10566000000E+00 0.  1.
         22    1    1    0    0    0 -0.93922785839E+00 -0.27773316364E+02 -0.94915815205E+01  0.29365445179E+02  0.00000000000E+00 0.  1.
</event>
<event>
 5    1  0.1751027E-003  0.9118800E+02  0.7818608E-02  0.1130116E+00
         25   -1    0    0    0    0  0.00000000000E+00  0.00000000000E+00  0.99999998245E-14  0.12500000000E+03  0.12500000000E+03 0.  0.
        -13    1    3    3    0    0 -0.30423288919E+02 -0.25979259424E+02  0.28800554036E+02  0.49294842587E+02  0.10566000000E+00 0.  1.
         23    2    1    0    0    0 -0.24822350016E+02  0.14268323356E+02  0.65270872658E+01  0.95634425259E+02  0.91014319284E+02 0.  0.
         13    1    3    3    0    0  0.56009389031E+01  0.40247582780E+02 -0.22273466770E+02  0.46339582672E+02  0.10566000000E+00 0. -1.
         22    1    1    0    0    0  0.24822350016E+02 -0.14268323356E+02 -0.65270872658E+01  0.29365574741E+02  0.00000000000E+00 0. -1.
</event>
<event>
 5    1  0.1751027E-003  0.9118800E+02  0.7818608E-02  0.1130116E+00
         25   -1    0    0    0    0  0.00000000000E+00  0.00000000000E+00  0.99999998245E-14  0.12500000000E+03  0.12500000000E+03 0.  0.
        -13    1    3    3    0    0 -0.31614484420E+02  0.23359525687E+02 -0.20557704287E+02  0.44359592368E+02  0.10566000000E+00 0. -1.
         23    2    1    0    0    0  0.63801958569E+01  0.23552655882E+02  0.14965835703E+02  0.96374648709E+02  0.92025334431E+02 0.  0.
         13    1    3    3    0    0  0.37994680277E+02  0.19313019483E+00  0.35523539990E+02  0.52015056341E+02  0.10566000000E+00 0.  1.
         22    1    1    0    0    0 -0.63801958569E+01 -0.23552655882E+02 -0.14965835703E+02  0.28625351291E+02  0.00000000000E+00 0.  1.
</event>
<event>
 5    1  0.1751027E-003  0.9118800E+02  0.7818608E-02  0.1130116E+00
         25   -1    0    0    0    0  0.00000000000E+00  0.00000000000E+00  0.99999998245E-14  0.12500000000E+03  0.12500000000E+03 0.  0.
        -13    1    3    3    0    0  0.14867324495E+02  0.37829644704E+02 -0.46290103818E+01  0.40909146376E+02  0.10566000000E+00 0. -1.
         23    2    1    0    0    0  0.21793758442E+02 -0.17651269125E+02 -0.20365406886E+01  0.96880919169E+02  0.92710462152E+02 0.  0.
         13    1    3    3    0    0  0.69264339476E+01 -0.55480913829E+02  0.25924696932E+01  0.55971772794E+02  0.10566000000E+00 0.  1.
         22    1    1    0    0    0 -0.21793758442E+02  0.17651269125E+02  0.20365406886E+01  0.28119080831E+02  0.00000000000E+00 0.  1.
</event>
<event>
 5    1  0.1751027E-003  0.9118800E+02  0.7818608E-02  0.1130116E+00
         25   -1    0    0    0    0  0.00000000000E+00  0.00000000000E+00  0.99999998245E-14  0.12500000000E+03  0.12500000000E+03 0.  0.
        -13    1    3    3    0    0 -0.17689453441E+02 -0.19130879479E+02  0.43667118865E+02  0.50850130253E+02  0.10566000000E+00 0. -1.
         23    2    1    0    0    0  0.11002271187E+02 -0.24818592886E+02  0.85840565715E+01  0.96527231407E+02  0.92232357943E+02 0.  0.
         13    1    3    3    0    0  0.28691724628E+02 -0.56877134068E+01 -0.35083062294E+02  0.45677101154E+02  0.10566000000E+00 0.  1.
         22    1    1    0    0    0 -0.11002271187E+02  0.24818592886E+02 -0.85840565715E+01  0.28472768593E+02  0.00000000000E+00 0. -1.
</event>
<event>
 5    1  0.1751027E-003  0.9118800E+02  0.7818608E-02  0.1130116E+00
         25   -1    0    0    0    0  0.00000000000E+00  0.00000000000E+00  0.99999998245E-14  0.12500000000E+03  0.12500000000E+03 0.  0.
        -13    1    3    3    0    0 -0.19325900175E+02 -0.16777003388E+02 -0.22576948927E+02  0.34127526238E+02  0.10566000000E+00 0.  1.
         23    2    1    0    0    0  0.41178536983E+01  0.21632826419E+02  0.19389594028E+02  0.95659034533E+02  0.91048111640E+02 0.  0.
         13    1    3    3    0    0  0.23443753873E+02  0.38409829806E+02  0.41966542955E+02  0.61531508295E+02  0.10566000000E+00 0. -1.
         22    1    1    0    0    0 -0.41178536983E+01 -0.21632826419E+02 -0.19389594028E+02  0.29340965467E+02  0.00000000000E+00 0. -1.
</event>
<event>
 5    1  0.1751027E-003  0.9118800E+02  0.7818608E-02  0.1130116E+00
         25   -1    0    0    0    0  0.00000000000E+00  0.00000000000E+00  0.99999998245E-14  0.12500000000E+03  0.12500000000E+03 0.  0.
        -13    1    3    3    0    0 -0.20969764860E+02 -0.30029818516E+02  0.12430121667E+02  0.38678677939E+02  0.10566000000E+00 0.  1.
         23    2    1    0    0    0  0.29144958595E+02 -0.56603708769E+01  0.38206188793E+01  0.95065646181E+02  0.90229770836E+02 0.  0.
         13    1    3    3    0    0  0.50114723455E+02  0.24369447639E+02 -0.86095027880E+01  0.56386968242E+02  0.10566000000E+00 0. -1.
         22    1    1    0    0    0 -0.29144958595E+02  0.56603708769E+01 -0.38206188793E+01  0.29934353819E+02  0.00000000000E+00 0. -1.
</event>
<event>
 5    1  0.1751027E-003  0.9118800E+02  0.7818608E-02  0.1130116E+00
         25   -1    0    0    0    0  0.00000000000E+00  0.00000000000E+00  0.99999998245E-14  0.12500000000E+03  0.12500000000E+03 0.  0.
        -13    1    3    3    0    0  0.11917371600E+02  0.28303345597E+02 -0.14525979805E+02  0.33972317719E+02  0.10566000000E+00 0. -1.
         23    2    1    0    0    0  0.24892250115E+01 -0.29826863174E+02  0.15888870667E+01  0.95027302923E+02  0.90176636279E+02 0.  0.
         13    1    3    3    0    0 -0.94281465883E+01 -0.58130208772E+02  0.16114866872E+02  0.61054985204E+02  0.10566000000E+00 0.  1.
         22    1    1    0    0    0 -0.24892250115E+01  0.29826863174E+02 -0.15888870667E+01  0.29972697077E+02  0.00000000000E+00 0.  1.
</event>
<event>
 5    1  0.1751027E-003  0.9118800E+02  0.7818608E-02  0.1130116E+00
         25   -1    0    0    0    0  0.00000000000E+00  0.00000000000E+00  0.99999998245E-14  0.12500000000E+03  0.12500000000E+03 0.  0.
        -13    1    3    3    0    0 -0.41861399676E+02 -0.28698226893E+00  0.15236408265E+02  0.44549056584E+02  0.10566000000E+00 0. -1.
         23    2    1    0    0    0  0.60402211407E+01 -0.18658636973E+02  0.21107193570E+02  0.96187804222E+02  0.91771188592E+02 0.  0.
         13    1    3    3    0    0  0.47901620817E+02 -0.18371654704E+02  0.58707853054E+01  0.51638747638E+02  0.10566000000E+00 0.  1.
         22    1    1    0    0    0 -0.60402211407E+01  0.18658636973E+02 -0.21107193570E+02  0.28812195778E+02  0.00000000000E+00 0. -1.
</event>
<event>
 5    1  0.1751027E-003  0.9118800E+02  0.7818608E-02  0.1130116E+00
         25   -1    0    0    0    0  0.00000000000E+00  0.00000000000E+00  0.99999998245E-14  0.12500000000E+03  0.12500000000E+03 0.  0.
        -13    1    3    3    0    0 -0.74215911742E+01 -0.20257499798E+02 -0.40183819104E+02  0.45609174466E+02  0.10566000000E+00 0. -1.
         23    2    1    0    0    0  0.72914894723E+00 -0.15588912882E+02  0.16044990480E+02  0.10261724810E+03  0.10014645288E+03 0.  0.
         13    1    3    3    0    0  0.81507401215E+01  0.46685869165E+01  0.56228809584E+02  0.57008073636E+02  0.10566000000E+00 0.  1.
         22    1    1    0    0    0 -0.72914894723E+00  0.15588912882E+02 -0.16044990480E+02  0.22382751898E+02  0.00000000000E+00 0. -1.
</event>
<event>
 5    1  0.1751027E-003  0.9118800E+02  0.7818608E-02  0.1130116E+00
         25   -1    0    0    0    0  0.00000000000E+00  0.00000000000E+00  0.99999998245E-14  0.12500000000E+03  0.12500000000E+03 0.  0.
        -13    1    3    3    0    0  0.68473185827E+01  0.34264231040E+02  0.11036514896E+02  0.36643404941E+02  0.10566000000E+00 0. -1.
         23    2    1    0    0    0 -0.21065039234E+02 -0.60832993363E+01 -0.20513843995E+02  0.94974007857E+02  0.90102730059E+02 0.  0.
         13    1    3    3    0    0 -0.27912357816E+02 -0.40347530377E+02 -0.31550358891E+02  0.58330602916E+02  0.10566000000E+00 0.  1.
         22    1    1    0    0    0  0.21065039234E+02  0.60832993363E+01  0.20513843995E+02  0.30025992143E+02  0.00000000000E+00 0.  1.
</event>
<event>
 5    1  0.1751027E-003  0.9118800E+02  0.7818608E-02  0.1130116E+00
         25   -1    0    0    0    0  0.00000000000E+00  0.00000000000E+00  0.99999998245E-14  0.12500000000E+03  0.12500000000E+03 0.  0.
        -13    1    3    3    0    0 -0.47457203078E+02 -0.20668100429E+02  0.76312165829E+01  0.52322109380E+02  0.10566000000E+00 0.  1.
         23    2    1    0    0    0 -0.35812882500E+02 -0.26926176063E+02 -0.14332511137E+02  0.77957440697E+02  0.62163978108E+02 0.  0.
         13    1    3    3    0    0  0.11644320579E+02 -0.62580756338E+01 -0.21963727720E+02  0.25635331318E+02  0.10566000000E+00 0. -1.
         22    1    1    0    0    0  0.35812882500E+02  0.26926176063E+02  0.14332511137E+02  0.47042559303E+02  0.00000000000E+00 0.  1.
</event>
<event>
 5    1  0.1751027E-003  0.9118800E+02  0.7818608E-02  0.1130116E+00
         25   -1    0    0    0    0  0.00000000000E+00  0.00000000000E+00  0.99999998245E-14  0.12500000000E+03  0.12500000000E+03 0.  0.
        -13    1    3    3    0    0  0.16349237680E+02 -0.34078036358E+01 -0.32703403767E+02  0.36721035937E+02  0.10566000000E+00 0.  1.
         23    2    1    0    0    0  0.68062515413E+01  0.10702849721E+02  0.25043273630E+02  0.96927921233E+02  0.92773812621E+02 0.  0.
         13    1    3    3    0    0 -0.95429861389E+01  0.14110653357E+02  0.57746677397E+02  0.60206885296E+02  0.10566000000E+00 0. -1.
         22    1    1    0    0    0 -0.68062515413E+01 -0.10702849721E+02 -0.25043273630E+02  0.28072078767E+02  0.00000000000E+00 0. -1.
</event>
<event>
 5    1  0.1751027E-003  0.9118800E+02  0.7818608E-02  0.1130116E+00
         25   -1    0    0    0    0  0.00000000000E+00  0.00000000000E+00  0.99999998245E-14  0.12500000000E+03  0.12500000000E+03 0.  0.
        -13    1    3    3    0    0 -0.17712356493E+01  0.36861864097E+02 -0.45902415710E+02  0.58898024012E+02  0.10566000000E+00 0.  1.
         23    2    1    0    0    0  0.19764046031E+01  0.26664016748E+02 -0.99252177820E+01  0.96480078676E+02  0.92168430978E+02 0.  0.
         13    1    3    3    0    0  0.37476402524E+01 -0.10197847349E+02  0.35977197928E+02  0.37582054664E+02  0.10566000000E+00 0. -1.
         22    1    1    0    0    0 -0.19764046031E+01 -0.26664016748E+02  0.99252177820E+01  0.28519921324E+02  0.00000000000E+00 0.  1.
</event>
<event>
 5    1  0.1751027E-003  0.9118800E+02  0.7818608E-02  0.1130116E+00
         25   -1    0    0    0    0  0.00000000000E+00  0.00000000000E+00  0.99999998245E-14  0.12500000000E+03  0.12500000000E+03 0.  0.
        -13    1    3    3    0    0  0.47994582133E+02  0.13042670303E+02 -0.53569733100E+01  0.50022989613E+02  0.10566000000E+00 0. -1.
         23    2    1    0    0    0  0.18511000499E+02 -0.21974403759E+02  0.10674859796E+01  0.96248111604E+02  0.91853295537E+02 0.  0.
         13    1    3    3    0    0 -0.29483581634E+02 -0.35017074062E+02  0.64244592896E+01  0.46225121991E+02  0.10566000000E+00 0.  1.
         22    1    1    0    0    0 -0.18511000499E+02  0.21974403759E+02 -0.10674859796E+01  0.28751888396E+02  0.00000000000E+00 0. -1.
</event>
<event>
 5    1  0.1751027E-003  0.9118800E+02  0.7818608E-02  0.1130116E+00
         25   -1    0    0    0    0  0.00000000000E+00  0.00000000000E+00  0.99999998245E-14  0.12500000000E+03  0.12500000000E+03 0.  0.
        -13    1    3    3    0    0  0.29353241281E+02  0.10666703857E+02  0.18912092270E+02  0.36511227628E+02  0.10566000000E+00 0.  1.
         23    2    1    0    0    0 -0.27802482327E+02  0.90798943829E+01  0.72729169239E+01  0.94861688399E+02  0.89946773704E+02 0.  0.
         13    1    3    3    0    0 -0.57155723608E+02 -0.15868094741E+01 -0.11639175346E+02  0.58350460771E+02  0.10566000000E+00 0. -1.
         22    1    1    0    0    0  0.27802482327E+02 -0.90798943829E+01 -0.72729169239E+01  0.30138311601E+02  0.00000000000E+00 0. -1.
</event>
<event>
 5    1  0.1751027E-003  0.9118800E+02  0.7818608E-02  0.1130116E+00
         25   -1    0    0    0    0  0.00000000000E+00  0.00000000000E+00  0.99999998245E-14  0.12500000000E+03  0.12500000000E+03 0.  0.
        -13    1    3    3    0    0 -0.55663888542E+02  0.96846501973E+01 -0.22241620346E+02  0.60720357185E+02  0.10566000000E+00 0.  1.
         23    2    1    0    0    0 -0.26796102897E+02 -0.34244669158E+01 -0.29694846252E+01  0.97823246274E+02  0.93972397908E+02 0.  0.
         13    1    3    3    0    0  0.28867785644E+02 -0.13109117113E+02  0.19272135721E+02  0.37102889089E+02  0.10566000000E+00 0. -1.
         22    1    1    0    0    0  0.26796102897E+02  0.34244669158E+01  0.29694846252E+01  0.27176753726E+02  0.00000000000E+00 0.  1.
</event>
<event>
 5    1  0.1751027E-003  0.9118800E+02  0.7818608E-02  0.1130116E+00
         25   -1    0    0    0    0  0.00000000000E+00  0.00000000000E+00  0.99999998245E-14  0.12500000000E+03  0.12500000000E+03 0.  0.
        -13    1    3    3    0    0  0.26496497115E+01 -0.17146101168E+01 -0.35772434531E+02  0.35911540872E+02  0.10566000000E+00 0. -1.
         23    2    1    0    0    0  0.79438355763E+01  0.23457270094E+02  0.17232764893E+02  0.94828552739E+02  0.89900712927E+02 0.  0.
         13    1    3    3    0    0  0.52941858648E+01  0.25171880211E+02  0.53005199425E+02  0.58917011868E+02  0.10566000000E+00 0.  1.
         22    1    1    0    0    0 -0.79438355763E+01 -0.23457270094E+02 -0.17232764893E+02  0.30171447261E+02  0.00000000000E+00 0.  1.
</event>
<event>
 5    1  0.1751027E-003  0.9118800E+02  0.7818608E-02  0.1130116E+00
         25   -1    0    0    0    0  0.00000000000E+00  0.00000000000E+00  0.99999998245E-14  0.12500000000E+03  0.12500000000E+03 0.  0.
        -13    1    3    3    0    0  0.14636193261E+02  0.29959730253E+02 -0.50763223684E+02  0.60734830475E+02  0.10566000000E+00 0.  1.
         23    2    1    0    0    0  0.14958559979E+02  0.72347058051E+01 -0.23284156628E+02  0.96394905443E+02  0.92052845479E+02 0.  0.
         13    1    3    3    0    0  0.32236671800E+00 -0.22725024448E+02  0.27479067056E+02  0.35660074969E+02  0.10566000000E+00 0. -1.
         22    1    1    0    0    0 -0.14958559979E+02 -0.72347058051E+01  0.23284156628E+02  0.28605094557E+02  0.00000000000E+00 0.  1.
</event>
<event>
 5    1  0.1751027E-003  0.9118800E+02  0.7818608E-02  0.1130116E+00
         25   -1    0    0    0    0  0.00000000000E+00  0.00000000000E+00  0.99999998245E-14  0.12500000000E+03  0.12500000000E+03 0.  0.
        -13    1    3    3    0    0  0.18254295840E+02  0.14491381538E+02 -0.10145332325E+02  0.25419645700E+02  0.10566000000E+00 0.  1.
         23    2    1    0    0    0 -0.27857248013E+02  0.28117190620E+01  0.27252173685E+02  0.85928104711E+02  0.76531210482E+02 0.  0.
         13    1    3    3    0    0 -0.46111543853E+02 -0.11679662476E+02  0.37397506010E+02  0.60508459011E+02  0.10566000000E+00 0. -1.
         22    1    1    0    0    0  0.27857248013E+02 -0.28117190620E+01 -0.27252173685E+02  0.39071895289E+02  0.00000000000E+00 0. -1.
</event>
<event>
 5    1  0.1751027E-003  0.9118800E+02  0.7818608E-02  0.1130116E+00
         25   -1    0    0    0    0  0.00000000000E+00  0.00000000000E+00  0.99999998245E-14  0.12500000000E+03  0.12500000000E+03 0.  0.
        -13    1    3    3    0    0  0.15705042900E+01  0.27063415099E+02 -0.20798608813E+02  0.34168526645E+02  0.10566000000E+00 0. -1.
         23    2    1    0    0    0  0.88419513750E+01 -0.19343589681E+02  0.19564593910E+02  0.96101420437E+02  0.91653451159E+02 0.  0.
         13    1    3    3    0    0  0.72714470850E+01 -0.46407004780E+02  0.40363202723E+02  0.61932893792E+02  0.10566000000E+00 0.  1.
         22    1    1    0    0    0 -0.88419513750E+01  0.19343589681E+02 -0.19564593910E+02  0.28898579563E+02  0.00000000000E+00 0.  1.
</event>
<event>
 5    1  0.1751027E-003  0.9118800E+02  0.7818608E-02  0.1130116E+00
         25   -1    0    0    0    0  0.00000000000E+00  0.00000000000E+00  0.99999998245E-14  0.12500000000E+03  0.12500000000E+03 0.  0.
        -13    1    3    3    0    0 -0.22095371794E+01 -0.28207536029E+01  0.38585843675E+02  0.38751996098E+02  0.10566000000E+00 0.  1.
         23    2    1    0    0    0  0.27158502704E+02  0.89999068593E+01 -0.81955513220E+01  0.95238453433E+02  0.90468852973E+02 0.  0.
         13    1    3    3    0    0  0.29368039883E+02  0.11820660462E+02 -0.46781394997E+02  0.56486457335E+02  0.10566000000E+00 0. -1.
         22    1    1    0    0    0 -0.27158502704E+02 -0.89999068593E+01  0.81955513220E+01  0.29761546567E+02  0.00000000000E+00 0. -1.
</event>
<event>
 5    1  0.1751027E-003  0.9118800E+02  0.7818608E-02  0.1130116E+00
         25   -1    0    0    0    0  0.00000000000E+00  0.00000000000E+00  0.99999998245E-14  0.12500000000E+03  0.12500000000E+03 0.  0.
        -13    1    3    3    0    0 -0.68043341277E+01 -0.38998763915E+02 -0.19449687541E+02  0.44107868451E+02  0.10566000000E+00 0. -1.
         23    2    1    0    0    0 -0.27360385101E+02  0.64837270142E+01 -0.27132789869E+01  0.96751260706E+02  0.92535480635E+02 0.  0.
         13    1    3    3    0    0 -0.20556050973E+02  0.45482490929E+02  0.16736408554E+02  0.52643392255E+02  0.10566000000E+00 0.  1.
         22    1    1    0    0    0  0.27360385101E+02 -0.64837270142E+01  0.27132789869E+01  0.28248739294E+02  0.00000000000E+00 0.  1.
</event>
<event>
 5    1  0.1751027E-003  0.9118800E+02  0.7818608E-02  0.1130116E+00
         25   -1    0    0    0    0  0.00000000000E+00  0.00000000000E+00  0.99999998245E-14  0.12500000000E+03  0.12500000000E+03 0.  0.
        -13    1    3    3    0    0  0.18796250555E+02  0.45356479480E+02 -0.35174959509E+02  0.60397004944E+02  0.10566000000E+00 0.  1.
         23    2    1    0    0    0  0.54142350029E+01  0.30652319473E+02 -0.10360356104E+02  0.92194274763E+02  0.86160133999E+02 0.  0.
         13    1    3    3    0    0 -0.13382015552E+02 -0.14704160007E+02  0.24814603405E+02  0.31797269819E+02  0.10566000000E+00 0. -1.
         22    1    1    0    0    0 -0.54142350029E+01 -0.30652319473E+02  0.10360356104E+02  0.32805725237E+02  0.00000000000E+00 0.  1.
</event>
<event>
 5    1  0.1751027E-003  0.9118800E+02  0.7818608E-02  0.1130116E+00
         25   -1    0    0    0    0  0.00000000000E+00  0.00000000000E+00  0.99999998245E-14  0.12500000000E+03  0.12500000000E+03 0.  0.
        -13    1    3    3    0    0 -0.22358674188E+02 -0.21693801570E+02 -0.95294538487E+01  0.32578412986E+02  0.10566000000E+00 0. -1.
         23    2    1    0    0    0  0.25986364047E+02  0.62536298379E+01  0.15859188469E+02  0.93920861315E+02  0.88629652649E+02 0.  0.
         13    1    3    3    0    0  0.48345038235E+02  0.27947431408E+02  0.25388642318E+02  0.61342448329E+02  0.10566000000E+00 0.  1.
         22    1    1    0    0    0 -0.25986364047E+02 -0.62536298379E+01 -0.15859188469E+02  0.31079138685E+02  0.00000000000E+00 0.  1.
</event>
<event>
 5    1  0.1751027E-003  0.9118800E+02  0.7818608E-02  0.1130116E+00
         25   -1    0    0    0    0  0.00000000000E+00  0.00000000000E+00  0.99999998245E-14  0.12500000000E+03  0.12500000000E+03 0.  0.
        -13    1    3    3    0    0 -0.36538938273E+01 -0.18362304547E+02 -0.32858845574E+02  0.37818514843E+02  0.10566000000E+00 0.  1.
         23    2    1    0    0    0 -0.10778630552E+02 -0.82909756219E+01  0.24764405166E+02  0.96747656441E+02  0.92530611748E+02 0.  0.
         13    1    3    3    0    0 -0.71247367247E+01  0.10071328925E+02  0.57623250740E+02  0.58929141599E+02  0.10566000000E+00 0. -1.
         22    1    1    0    0    0  0.10778630552E+02  0.82909756219E+01 -0.24764405166E+02  0.28252343559E+02  0.00000000000E+00 0. -1.
</event>
<event>
 5    1  0.1751027E-003  0.9118800E+02  0.7818608E-02  0.1130116E+00
         25   -1    0    0    0    0  0.00000000000E+00  0.00000000000E+00  0.99999998245E-14  0.12500000000E+03  0.12500000000E+03 0.  0.
        -13    1    3    3    0    0 -0.30591792146E+02 -0.39526144442E+02  0.26367752928E+01  0.50051349524E+02  0.10566000000E+00 0. -1.
         23    2    1    0    0    0 -0.18043591700E+02  0.19790521079E+00 -0.20488280342E+02  0.97698351711E+02  0.93806118819E+02 0.  0.
         13    1    3    3    0    0  0.12548200447E+02  0.39724049653E+02 -0.23125055635E+02  0.47647002187E+02  0.10566000000E+00 0.  1.
         22    1    1    0    0    0  0.18043591700E+02 -0.19790521079E+00  0.20488280342E+02  0.27301648289E+02  0.00000000000E+00 0. -1.
</event>
<event>
 5    1  0.1751027E-003  0.9118800E+02  0.7818608E-02  0.1130116E+00
         25   -1    0    0    0    0  0.00000000000E+00  0.00000000000E+00  0.99999998245E-14  0.12500000000E+03  0.12500000000E+03 0.  0.
        -13    1    3    3    0    0 -0.40085651155E+02  0.38158992850E+01  0.90061391022E+01  0.41261873703E+02  0.10566000000E+00 0.  1.
         23    2    1    0    0    0  0.12676298289E+02  0.17550011719E+02  0.18402834784E+02  0.96585993283E+02  0.92311961959E+02 0.  0.
         13    1    3    3    0    0  0.52761949444E+02  0.13734112434E+02  0.93966956818E+01  0.55324119580E+02  0.10566000000E+00 0. -1.
         22    1    1    0    0    0 -0.12676298289E+02 -0.17550011719E+02 -0.18402834784E+02  0.28414006717E+02  0.00000000000E+00 0. -1.
</event>
<event>
 5    1  0.1751027E-003  0.9118800E+02  0.7818608E-02  0.1130116E+00
         25   -1    0    0    0    0  0.00000000000E+00  0.00000000000E+00  0.99999998245E-14  0.12500000000E+03  0.12500000000E+03 0.  0.
        -13    1    3    3    0    0 -0.28967369514E+02 -0.21082220732E+02 -0.13311159506E+02  0.38219977224E+02  0.10566000000E+00 0. -1.
         23    2    1    0    0    0  0.18664282614E+02 -0.14512266818E+02  0.17726602512E+02  0.95450147711E+02  0.90760877737E+02 0.  0.
         13    1    3    3    0    0  0.47631652128E+02  0.65699539140E+01  0.31037762018E+02  0.57230170487E+02  0.10566000000E+00 0.  1.
         22    1    1    0    0    0 -0.18664282614E+02  0.14512266818E+02 -0.17726602512E+02  0.29549852289E+02  0.00000000000E+00 0.  1.
</event>
<event>
 5    1  0.1751027E-003  0.9118800E+02  0.7818608E-02  0.1130116E+00
         25   -1    0    0    0    0  0.00000000000E+00  0.00000000000E+00  0.99999998245E-14  0.12500000000E+03  0.12500000000E+03 0.  0.
        -13    1    3    3    0    0 -0.49316758128E+02 -0.10492521768E+02 -0.61329267267E+01  0.50792318312E+02  0.10566000000E+00 0. -1.
         23    2    1    0    0    0 -0.80764900938E+01 -0.27393605833E+02  0.29861779793E+01  0.96284906552E+02  0.91903354879E+02 0.  0.
         13    1    3    3    0    0  0.41240268034E+02 -0.16901084065E+02  0.91191047059E+01  0.45492588240E+02  0.10566000000E+00 0.  1.
         22    1    1    0    0    0  0.80764900938E+01  0.27393605833E+02 -0.29861779793E+01  0.28715093448E+02  0.00000000000E+00 0. -1.
</event>
<event>
 5    1  0.1751027E-003  0.9118800E+02  0.7818608E-02  0.1130116E+00
         25   -1    0    0    0    0  0.00000000000E+00  0.00000000000E+00  0.99999998245E-14  0.12500000000E+03  0.12500000000E+03 0.  0.
        -13    1    3    3    0    0 -0.17704510126E+02  0.56404629529E+02 -0.15234667221E+02  0.61049473056E+02  0.10566000000E+00 0.  1.
         23    2    1    0    0    0 -0.26543598686E+00  0.29275423100E+02 -0.28947701822E+01  0.95580609314E+02  0.90940377877E+02 0.  0.
         13    1    3    3    0    0  0.17439074139E+02 -0.27129206429E+02  0.12339897039E+02  0.34531136258E+02  0.10566000000E+00 0. -1.
         22    1    1    0    0    0  0.26543598686E+00 -0.29275423100E+02  0.28947701822E+01  0.29419390686E+02  0.00000000000E+00 0.  1.
</event>
<event>
 5    1  0.1751027E-003  0.9118800E+02  0.7818608E-02  0.1130116E+00
         25   -1    0    0    0    0  0.00000000000E+00  0.00000000000E+00  0.99999998245E-14  0.12500000000E+03  0.12500000000E+03 0.  0.
        -13    1    3    3    0    0  0.28195865409E+01  0.19773860746E+02 -0.44296531234E+02  0.48591660606E+02  0.10566000000E+00 0.  1.
         23    2    1    0    0    0 -0.24317364715E+02 -0.53439597023E+01 -0.13727192760E+02  0.96568891105E+02  0.92288800925E+02 0.  0.
         13    1    3    3    0    0 -0.27136951255E+02 -0.25117820448E+02  0.30569338474E+02  0.47977230498E+02  0.10566000000E+00 0. -1.
         22    1    1    0    0    0  0.24317364715E+02  0.53439597023E+01  0.13727192760E+02  0.28431108895E+02  0.00000000000E+00 0.  1.
</event>
<event>
 5    1  0.1751027E-003  0.9118800E+02  0.7818608E-02  0.1130116E+00
         25   -1    0    0    0    0  0.00000000000E+00  0.00000000000E+00  0.99999998245E-14  0.12500000000E+03  0.12500000000E+03 0.  0.
        -13    1    3    3    0    0 -0.31260001409E+02 -0.45856610972E+02  0.26172901531E+02  0.61359990193E+02  0.10566000000E+00 0. -1.
         23    2    1    0    0    0 -0.20495029028E+02 -0.15235426761E+02  0.12191493595E+02  0.96701643872E+02  0.92468432279E+02 0.  0.
         13    1    3    3    0    0  0.10764972381E+02  0.30621184211E+02 -0.13981407936E+02  0.35341653679E+02  0.10566000000E+00 0.  1.
         22    1    1    0    0    0  0.20495029028E+02  0.15235426761E+02 -0.12191493595E+02  0.28298356128E+02  0.00000000000E+00 0. -1.
</event>
<event>
 5    1  0.1751027E-003  0.9118800E+02  0.7818608E-02  0.1130116E+00
         25   -1    0    0    0    0  0.00000000000E+00  0.00000000000E+00  0.99999998245E-14  0.12500000000E+03  0.12500000000E+03 0.  0.
        -13    1    3    3    0    0 -0.34132202714E+02 -0.41669538279E+01 -0.11418029108E+02  0.36231937832E+02  0.10566000000E+00 0.  1.
         23    2    1    0    0    0  0.25930862046E+02 -0.86394222438E+01 -0.78309234385E+01  0.96568106200E+02  0.92287737809E+02 0.  0.
         13    1    3    3    0    0  0.60063064761E+02 -0.44724684158E+01  0.35871056691E+01  0.60336168368E+02  0.10566000000E+00 0. -1.
         22    1    1    0    0    0 -0.25930862046E+02  0.86394222438E+01  0.78309234385E+01  0.28431893800E+02  0.00000000000E+00 0. -1.
</event>
<event>
 5    1  0.1751027E-003  0.9118800E+02  0.7818608E-02  0.1130116E+00
         25   -1    0    0    0    0  0.00000000000E+00  0.00000000000E+00  0.99999998245E-14  0.12500000000E+03  0.12500000000E+03 0.  0.
        -13    1    3    3    0    0 -0.45931072973E+01  0.20403863582E+02 -0.36488587492E+02  0.42057608882E+02  0.10566000000E+00 0. -1.
         23    2    1    0    0    0 -0.18935218677E+02  0.13602516413E+02  0.15887897788E+02  0.96786594406E+02  0.92583198267E+02 0.  0.
         13    1    3    3    0    0 -0.14342111379E+02 -0.68013471691E+01  0.52376485280E+02  0.54728985524E+02  0.10566000000E+00 0.  1.
         22    1    1    0    0    0  0.18935218677E+02 -0.13602516413E+02 -0.15887897788E+02  0.28213405594E+02  0.00000000000E+00 0. -1.
</event>
<event>
 4    1  0.1751027E-003  0.9118800E+02  0.7818608E-02  0.1130116E+00
         25   -1    0    0    0    0  0.00000000000E+00  0.00000000000E+00  0.99999998245E-14  0.12500000000E+03  0.12500000000E+03 0.  0.
        -13    1    1    0    0    0 -0.19846127971E+02 -0.57858235552E+01  0.59324941559E+00  0.20681094230E+02  0.10566000000E+00 0. -1.
         13    1    1    0    0    0  0.10847886838E+02 -0.36214002318E+02  0.32691672367E+02  0.49978867723E+02  0.10566000000E+00 0.  1.
         22    1    1    0    0    0  0.89982411333E+01  0.41999825873E+02 -0.33284921782E+02  0.54340038047E+02  0.00000000000E+00 0.  1.
</event>
<event>
 5    1  0.1751027E-003  0.9118800E+02  0.7818608E-02  0.1130116E+00
         25   -1    0    0    0    0  0.00000000000E+00  0.00000000000E+00  0.99999998245E-14  0.12500000000E+03  0.12500000000E+03 0.  0.
        -13    1    3    3    0    0 -0.24017754322E+02 -0.29979374526E+02 -0.24492724476E+02  0.45557876772E+02  0.10566000000E+00 0. -1.
         23    2    1    0    0    0 -0.19918493551E+01  0.15058660003E+02 -0.25059038654E+02  0.95696653379E+02  0.91099743934E+02 0.  0.
         13    1    3    3    0    0  0.22025904967E+02  0.45038034529E+02 -0.56631417764E+00  0.50138776607E+02  0.10566000000E+00 0.  1.
         22    1    1    0    0    0  0.19918493551E+01 -0.15058660003E+02  0.25059038654E+02  0.29303346621E+02  0.00000000000E+00 0.  1.
</event>
<event>
 5    1  0.1751027E-003  0.9118800E+02  0.7818608E-02  0.1130116E+00
         25   -1    0    0    0    0  0.00000000000E+00  0.00000000000E+00  0.99999998245E-14  0.12500000000E+03  0.12500000000E+03 0.  0.
        -13    1    3    3    0    0 -0.14559474380E+02 -0.25031469212E+02  0.16518491150E+02  0.33338033221E+02  0.10566000000E+00 0. -1.
         23    2    1    0    0    0  0.17838279564E+01  0.25362618890E+02 -0.15483142545E+02  0.95231355721E+02  0.90459045596E+02 0.  0.
         13    1    3    3    0    0  0.16343302336E+02  0.50394088102E+02 -0.32001633695E+02  0.61893322500E+02  0.10566000000E+00 0.  1.
         22    1    1    0    0    0 -0.17838279564E+01 -0.25362618890E+02  0.15483142545E+02  0.29768644279E+02  0.00000000000E+00 0.  1.
</event>
<event>
 5    1  0.1751027E-003  0.9118800E+02  0.7818608E-02  0.1130116E+00
         25   -1    0    0    0    0  0.00000000000E+00  0.00000000000E+00  0.99999998245E-14  0.12500000000E+03  0.12500000000E+03 0.  0.
        -13    1    3    3    0    0 -0.13031011831E+02 -0.91734376089E+01  0.58457366976E+02  0.60590710053E+02  0.10566000000E+00 0.  1.
         23    2    1    0    0    0 -0.27245390646E+01 -0.14607953777E+02  0.26324503131E+02  0.94770959463E+02  0.89820598227E+02 0.  0.
         13    1    3    3    0    0  0.10306472766E+02 -0.54345161684E+01 -0.32132863845E+02  0.34180249410E+02  0.10566000000E+00 0. -1.
         22    1    1    0    0    0  0.27245390646E+01  0.14607953777E+02 -0.26324503131E+02  0.30229040537E+02  0.00000000000E+00 0.  1.
</event>
<event>
 5    1  0.1751027E-003  0.9118800E+02  0.7818608E-02  0.1130116E+00
         25   -1    0    0    0    0  0.00000000000E+00  0.00000000000E+00  0.99999998245E-14  0.12500000000E+03  0.12500000000E+03 0.  0.
        -13    1    3    3    0    0  0.16081898816E+02  0.39428773570E+01 -0.49211829117E+01  0.17274343885E+02  0.10566000000E+00 0.  1.
         23    2    1    0    0    0 -0.34222623502E+02  0.24104822363E+02 -0.26334028980E+02  0.75545864654E+02  0.57109247619E+02 0.  0.
         13    1    3    3    0    0 -0.50304522317E+02  0.20161945006E+02 -0.21412846068E+02  0.58271520769E+02  0.10566000000E+00 0. -1.
         22    1    1    0    0    0  0.34222623502E+02 -0.24104822363E+02  0.26334028980E+02  0.49454135346E+02  0.00000000000E+00 0. -1.
</event>
<event>
 5    1  0.1751027E-003  0.9118800E+02  0.7818608E-02  0.1130116E+00
         25   -1    0    0    0    0  0.00000000000E+00  0.00000000000E+00  0.99999998245E-14  0.12500000000E+03  0.12500000000E+03 0.  0.
        -13    1    3    3    0    0 -0.28804477364E+02  0.36498770413E+02 -0.27105099419E+02  0.53819659386E+02  0.10566000000E+00 0.  1.
         23    2    1    0    0    0 -0.20508693595E+02  0.17160025185E+02 -0.38787292911E+02  0.77888143014E+02  0.62024477051E+02 0.  0.
         13    1    3    3    0    0  0.82957837688E+01 -0.19338745228E+02 -0.11682193492E+02  0.24068483628E+02  0.10566000000E+00 0. -1.
         22    1    1    0    0    0  0.20508693595E+02 -0.17160025185E+02  0.38787292911E+02  0.47111856986E+02  0.00000000000E+00 0.  1.
</event>
<event>
 5    1  0.1751027E-003  0.9118800E+02  0.7818608E-02  0.1130116E+00
         25   -1    0    0    0    0  0.00000000000E+00  0.00000000000E+00  0.99999998245E-14  0.12500000000E+03  0.12500000000E+03 0.  0.
        -13    1    3    3    0    0 -0.21640590293E+01  0.32697833515E+02 -0.85610101028E+01  0.33869359693E+02  0.10566000000E+00 0.  1.
         23    2    1    0    0    0  0.11973012271E+02 -0.26803811399E+02  0.13978471903E+00  0.95643282403E+02  0.91026482963E+02 0.  0.
         13    1    3    3    0    0  0.14137071300E+02 -0.59501644913E+02  0.87007948218E+01  0.61773922709E+02  0.10566000000E+00 0. -1.
         22    1    1    0    0    0 -0.11973012271E+02  0.26803811399E+02 -0.13978471903E+00  0.29356717597E+02  0.00000000000E+00 0. -1.
</event>
<event>
 5    1  0.1751027E-003  0.9118800E+02  0.7818608E-02  0.1130116E+00
         25   -1    0    0    0    0  0.00000000000E+00  0.00000000000E+00  0.99999998245E-14  0.12500000000E+03  0.12500000000E+03 0.  0.
        -13    1    3    3    0    0 -0.37335346228E+00  0.73987997714E+01 -0.36784913392E+02  0.37523627865E+02  0.10566000000E+00 0. -1.
         23    2    1    0    0    0 -0.67793161178E+01 -0.26420569310E+02  0.10295810823E+02  0.95845080515E+02  0.91303176991E+02 0.  0.
         13    1    3    3    0    0 -0.64059626556E+01 -0.33819369081E+02  0.47080724215E+02  0.58321452650E+02  0.10566000000E+00 0.  1.
         22    1    1    0    0    0  0.67793161178E+01  0.26420569310E+02 -0.10295810823E+02  0.29154919485E+02  0.00000000000E+00 0.  1.
</event>
<event>
 5    1  0.1751027E-003  0.9118800E+02  0.7818608E-02  0.1130116E+00
         25   -1    0    0    0    0  0.00000000000E+00  0.00000000000E+00  0.99999998245E-14  0.12500000000E+03  0.12500000000E+03 0.  0.
        -13    1    3    3    0    0  0.26556566634E+02  0.33269238358E+02  0.18484141521E+02  0.46408707202E+02  0.10566000000E+00 0.  1.
         23    2    1    0    0    0  0.70976925714E+01  0.19977870950E+02 -0.22750563828E+02  0.93902078493E+02  0.88603158089E+02 0.  0.
         13    1    3    3    0    0 -0.19458874063E+02 -0.13291367408E+02 -0.41234705349E+02  0.47493371291E+02  0.10566000000E+00 0. -1.
         22    1    1    0    0    0 -0.70976925714E+01 -0.19977870950E+02  0.22750563828E+02  0.31097921507E+02  0.00000000000E+00 0. -1.
</event>
<event>
 5    1  0.1751027E-003  0.9118800E+02  0.7818608E-02  0.1130116E+00
         25   -1    0    0    0    0  0.00000000000E+00  0.00000000000E+00  0.99999998245E-14  0.12500000000E+03  0.12500000000E+03 0.  0.
        -13    1    3    3    0    0  0.30109461971E+02 -0.24978064555E+01  0.28242596030E+02  0.41357878716E+02  0.10566000000E+00 0. -1.
         23    2    1    0    0    0 -0.16300957710E+02  0.21046456008E+02  0.11206582283E+02  0.96116405708E+02  0.91673886287E+02 0.  0.
         13    1    3    3    0    0 -0.46410419682E+02  0.23544262463E+02 -0.17036013748E+02  0.54758526993E+02  0.10566000000E+00 0.  1.
         22    1    1    0    0    0  0.16300957710E+02 -0.21046456008E+02 -0.11206582283E+02  0.28883594292E+02  0.00000000000E+00 0.  1.
</event>
<event>
 5    1  0.1751027E-003  0.9118800E+02  0.7818608E-02  0.1130116E+00
         25   -1    0    0    0    0  0.00000000000E+00  0.00000000000E+00  0.99999998245E-14  0.12500000000E+03  0.12500000000E+03 0.  0.
        -13    1    3    3    0    0  0.48649342520E+02 -0.18023719961E+01  0.47244077137E+01  0.48911535089E+02  0.10566000000E+00 0. -1.
         23    2    1    0    0    0  0.69645598858E+01  0.15753512458E+01 -0.24204966329E+02  0.99763771658E+02  0.96519132376E+02 0.  0.
         13    1    3    3    0    0 -0.41684782635E+02  0.33777232419E+01 -0.28929374042E+02  0.50852236569E+02  0.10566000000E+00 0.  1.
         22    1    1    0    0    0 -0.69645598858E+01 -0.15753512458E+01  0.24204966329E+02  0.25236228342E+02  0.00000000000E+00 0.  1.
</event>
<event>
 5    1  0.1751027E-003  0.9118800E+02  0.7818608E-02  0.1130116E+00
         25   -1    0    0    0    0  0.00000000000E+00  0.00000000000E+00  0.99999998245E-14  0.12500000000E+03  0.12500000000E+03 0.  0.
        -13    1    3    3    0    0 -0.12251530347E+02 -0.38851759224E+02  0.27291305686E+02  0.49034536000E+02  0.10566000000E+00 0.  1.
         23    2    1    0    0    0 -0.11394645690E+02 -0.21203472535E+02 -0.16204684404E+02  0.95982470909E+02  0.91491080042E+02 0.  0.
         13    1    3    3    0    0  0.85688465651E+00  0.17648286689E+02 -0.43495990089E+02  0.46947934910E+02  0.10566000000E+00 0. -1.
         22    1    1    0    0    0  0.11394645690E+02  0.21203472535E+02  0.16204684404E+02  0.29017529091E+02  0.00000000000E+00 0.  1.
</event>
<event>
 5    1  0.1751027E-003  0.9118800E+02  0.7818608E-02  0.1130116E+00
         25   -1    0    0    0    0  0.00000000000E+00  0.00000000000E+00  0.99999998245E-14  0.12500000000E+03  0.12500000000E+03 0.  0.
        -13    1    3    3    0    0  0.22014207283E+02  0.32593852431E+02 -0.29936511514E+01  0.39445629033E+02  0.10566000000E+00 0.  1.
         23    2    1    0    0    0  0.11203225778E+02 -0.17153187994E+02  0.20944533828E+02  0.95701235121E+02  0.91106030427E+02 0.  0.
         13    1    3    3    0    0 -0.10810981505E+02 -0.49747040424E+02  0.23938184979E+02  0.56255606087E+02  0.10566000000E+00 0. -1.
         22    1    1    0    0    0 -0.11203225778E+02  0.17153187994E+02 -0.20944533828E+02  0.29298764879E+02  0.00000000000E+00 0. -1.
</event>
<event>
 5    1  0.1751027E-003  0.9118800E+02  0.7818608E-02  0.1130116E+00
         25   -1    0    0    0    0  0.00000000000E+00  0.00000000000E+00  0.99999998245E-14  0.12500000000E+03  0.12500000000E+03 0.  0.
        -13    1    3    3    0    0  0.20759937642E+02  0.57075562012E+02 -0.21280050908E+01  0.60771163882E+02  0.10566000000E+00 0. -1.
         23    2    1    0    0    0  0.17599437223E+02  0.22306268522E+02  0.42772262811E+01  0.96266666212E+02  0.91878542397E+02 0.  0.
         13    1    3    3    0    0 -0.31605004191E+01 -0.34769293490E+02  0.64052313719E+01  0.35495502330E+02  0.10566000000E+00 0.  1.
         22    1    1    0    0    0 -0.17599437223E+02 -0.22306268522E+02 -0.42772262811E+01  0.28733333788E+02  0.00000000000E+00 0. -1.
</event>
<event>
 5    1  0.1751027E-003  0.9118800E+02  0.7818608E-02  0.1130116E+00
         25   -1    0    0    0    0  0.00000000000E+00  0.00000000000E+00  0.99999998245E-14  0.12500000000E+03  0.12500000000E+03 0.  0.
        -13    1    3    3    0    0 -0.85249818975E+01  0.20206581314E+02 -0.28022264549E+02  0.35584262242E+02  0.10566000000E+00 0.  1.
         23    2    1    0    0    0 -0.48915859133E+01 -0.26809194197E+02  0.98054659016E+01  0.96037823497E+02  0.91566674474E+02 0.  0.
         13    1    3    3    0    0  0.36333959842E+01 -0.47015775512E+02  0.37827730451E+02  0.60453561255E+02  0.10566000000E+00 0. -1.
         22    1    1    0    0    0  0.48915859133E+01  0.26809194197E+02 -0.98054659016E+01  0.28962176503E+02  0.00000000000E+00 0. -1.
</event>
<event>
 5    1  0.1751027E-003  0.9118800E+02  0.7818608E-02  0.1130116E+00
         25   -1    0    0    0    0  0.00000000000E+00  0.00000000000E+00  0.99999998245E-14  0.12500000000E+03  0.12500000000E+03 0.  0.
        -13    1    3    3    0    0 -0.62837581185E+01 -0.12995124460E+02 -0.38426511011E+02  0.41048346962E+02  0.10566000000E+00 0.  1.
         23    2    1    0    0    0  0.22359335441E+02  0.12761044638E+02  0.46531515760E+01  0.98838272970E+02  0.95313001434E+02 0.  0.
         13    1    3    3    0    0  0.28643093560E+02  0.25756169097E+02  0.43079662587E+02  0.57789926007E+02  0.10566000000E+00 0. -1.
         22    1    1    0    0    0 -0.22359335441E+02 -0.12761044638E+02 -0.46531515760E+01  0.26161727030E+02  0.00000000000E+00 0. -1.
</event>
<event>
 5    1  0.1751027E-003  0.9118800E+02  0.7818608E-02  0.1130116E+00
         25   -1    0    0    0    0  0.00000000000E+00  0.00000000000E+00  0.99999998245E-14  0.12500000000E+03  0.12500000000E+03 0.  0.
        -13    1    3    3    0    0 -0.16254084313E+01  0.23532484416E+02  0.40902055831E+02  0.47216619008E+02  0.10566000000E+00 0. -1.
         23    2    1    0    0    0 -0.14740056743E+02  0.17841572627E+02 -0.97792810879E+01  0.99875801999E+02  0.96664111747E+02 0.  0.
         13    1    3    3    0    0 -0.13114648312E+02 -0.56909117895E+01 -0.50681336919E+02  0.52659182991E+02  0.10566000000E+00 0.  1.
         22    1    1    0    0    0  0.14740056743E+02 -0.17841572627E+02  0.97792810879E+01  0.25124198001E+02  0.00000000000E+00 0.  1.
</event>
<event>
 5    1  0.1751027E-003  0.9118800E+02  0.7818608E-02  0.1130116E+00
         25   -1    0    0    0    0  0.00000000000E+00  0.00000000000E+00  0.99999998245E-14  0.12500000000E+03  0.12500000000E+03 0.  0.
        -13    1    3    3    0    0  0.22209361796E+02 -0.41548103587E+02 -0.29002341143E+02  0.55323120112E+02  0.10566000000E+00 0.  1.
         23    2    1    0    0    0  0.20528075330E+02 -0.20399884546E+02  0.52243877609E+01  0.95591644151E+02  0.90955544294E+02 0.  0.
         13    1    3    3    0    0 -0.16812864666E+01  0.21148219041E+02  0.34226728904E+02  0.40268524039E+02  0.10566000000E+00 0. -1.
         22    1    1    0    0    0 -0.20528075330E+02  0.20399884546E+02 -0.52243877609E+01  0.29408355849E+02  0.00000000000E+00 0.  1.
</event>
<event>
 5    1  0.1751027E-003  0.9118800E+02  0.7818608E-02  0.1130116E+00
         25   -1    0    0    0    0  0.00000000000E+00  0.00000000000E+00  0.99999998245E-14  0.12500000000E+03  0.12500000000E+03 0.  0.
        -13    1    3    3    0    0 -0.23412984350E+02 -0.29907170575E+02 -0.11058306984E+01  0.37997904068E+02  0.10566000000E+00 0. -1.
         23    2    1    0    0    0  0.15480372513E+02  0.43905940742E+01 -0.25138890902E+02  0.95152335347E+02  0.90349786036E+02 0.  0.
         13    1    3    3    0    0  0.38893356864E+02  0.34297764649E+02 -0.24033060203E+02  0.57154431279E+02  0.10566000000E+00 0.  1.
         22    1    1    0    0    0 -0.15480372513E+02 -0.43905940742E+01  0.25138890902E+02  0.29847664653E+02  0.00000000000E+00 0.  1.
</event>
<event>
 5    1  0.1751027E-003  0.9118800E+02  0.7818608E-02  0.1130116E+00
         25   -1    0    0    0    0  0.00000000000E+00  0.00000000000E+00  0.99999998245E-14  0.12500000000E+03  0.12500000000E+03 0.  0.
        -13    1    3    3    0    0  0.17336739859E+01  0.48752980543E+02  0.21688218537E+01  0.48832096920E+02  0.10566000000E+00 0. -1.
         23    2    1    0    0    0  0.99197645480E+01  0.77653689014E+01 -0.23822549697E+02  0.98051594538E+02  0.94275652396E+02 0.  0.
         13    1    3    3    0    0  0.81860905621E+01 -0.40987611641E+02 -0.25991371551E+02  0.49219497619E+02  0.10566000000E+00 0.  1.
         22    1    1    0    0    0 -0.99197645480E+01 -0.77653689014E+01  0.23822549697E+02  0.26948405462E+02  0.00000000000E+00 0. -1.
</event>
<event>
 5    1  0.1751027E-003  0.9118800E+02  0.7818608E-02  0.1130116E+00
         25   -1    0    0    0    0  0.00000000000E+00  0.00000000000E+00  0.99999998245E-14  0.12500000000E+03  0.12500000000E+03 0.  0.
        -13    1    3    3    0    0  0.16521573115E+02  0.23029063543E+02 -0.84186241390E+01  0.29566611951E+02  0.10566000000E+00 0.  1.
         23    2    1    0    0    0 -0.42543572906E+01 -0.21372023693E+02  0.27189382839E+02  0.90155696422E+02  0.83150009654E+02 0.  0.
         13    1    3    3    0    0 -0.20775930405E+02 -0.44401087236E+02  0.35608006978E+02  0.60589084470E+02  0.10566000000E+00 0. -1.
         22    1    1    0    0    0  0.42543572906E+01  0.21372023693E+02 -0.27189382839E+02  0.34844303578E+02  0.00000000000E+00 0. -1.
</event>
<event>
 5    1  0.1751027E-003  0.9118800E+02  0.7818608E-02  0.1130116E+00
         25   -1    0    0    0    0  0.00000000000E+00  0.00000000000E+00  0.99999998245E-14  0.12500000000E+03  0.12500000000E+03 0.  0.
        -13    1    3    3    0    0  0.16390839056E+02 -0.14791774809E+02  0.22807858607E+02  0.31743751908E+02  0.10566000000E+00 0.  1.
         23    2    1    0    0    0 -0.11891919556E+02  0.21129298686E+02 -0.19385315405E+02  0.93957199433E+02  0.88680887785E+02 0.  0.
         13    1    3    3    0    0 -0.28282758612E+02  0.35921073495E+02 -0.42193174011E+02  0.62213447525E+02  0.10566000000E+00 0. -1.
         22    1    1    0    0    0  0.11891919556E+02 -0.21129298686E+02  0.19385315405E+02  0.31042800567E+02  0.00000000000E+00 0. -1.
</event>
<event>
 5    1  0.1751027E-003  0.9118800E+02  0.7818608E-02  0.1130116E+00
         25   -1    0    0    0    0  0.00000000000E+00  0.00000000000E+00  0.99999998245E-14  0.12500000000E+03  0.12500000000E+03 0.  0.
        -13    1    3    3    0    0 -0.12390793293E+01  0.93976524178E+01  0.49939742040E+02  0.50831488151E+02  0.10566000000E+00 0. -1.
         23    2    1    0    0    0 -0.18012928584E+02  0.20743235362E+02  0.97257435684E+01  0.95856604567E+02  0.91318952806E+02 0.  0.
         13    1    3    3    0    0 -0.16773849254E+02  0.11345582944E+02 -0.40213998472E+02  0.45025116416E+02  0.10566000000E+00 0.  1.
         22    1    1    0    0    0  0.18012928584E+02 -0.20743235362E+02 -0.97257435684E+01  0.29143395433E+02  0.00000000000E+00 0. -1.
</event>
<event>
 5    1  0.1751027E-003  0.9118800E+02  0.7818608E-02  0.1130116E+00
         25   -1    0    0    0    0  0.00000000000E+00  0.00000000000E+00  0.99999998245E-14  0.12500000000E+03  0.12500000000E+03 0.  0.
        -13    1    3    3    0    0  0.25459518163E+02 -0.31755375696E+02 -0.12399826699E+02  0.42548299812E+02  0.10566000000E+00 0.  1.
         23    2    1    0    0    0  0.22391033229E+02  0.19031624914E+02  0.23413950176E+01  0.95520460543E+02  0.90857664156E+02 0.  0.
         13    1    3    3    0    0 -0.30684849338E+01  0.50787000611E+02  0.14741221717E+02  0.52972160731E+02  0.10566000000E+00 0. -1.
         22    1    1    0    0    0 -0.22391033229E+02 -0.19031624914E+02 -0.23413950176E+01  0.29479539457E+02  0.00000000000E+00 0. -1.
</event>
<event>
 5    1  0.1751027E-003  0.9118800E+02  0.7818608E-02  0.1130116E+00
         25   -1    0    0    0    0  0.00000000000E+00  0.00000000000E+00  0.99999998245E-14  0.12500000000E+03  0.12500000000E+03 0.  0.
        -13    1    3    3    0    0 -0.43901533785E+02 -0.37930183447E+02 -0.70378874850E+01  0.58443019338E+02  0.10566000000E+00 0. -1.
         23    2    1    0    0    0 -0.19880294996E+02 -0.17769705141E+02 -0.19266594116E+02  0.92103340614E+02  0.86028106764E+02 0.  0.
         13    1    3    3    0    0  0.24021238789E+02  0.20160478306E+02 -0.12228706631E+02  0.33660321276E+02  0.10566000000E+00 0.  1.
         22    1    1    0    0    0  0.19880294996E+02  0.17769705141E+02  0.19266594116E+02  0.32896659386E+02  0.00000000000E+00 0. -1.
</event>
<event>
 5    1  0.1751027E-003  0.9118800E+02  0.7818608E-02  0.1130116E+00
         25   -1    0    0    0    0  0.00000000000E+00  0.00000000000E+00  0.99999998245E-14  0.12500000000E+03  0.12500000000E+03 0.  0.
        -13    1    3    3    0    0  0.46631980555E+02  0.36081811109E+02  0.17804681930E+02  0.61591042904E+02  0.10566000000E+00 0.  1.
         23    2    1    0    0    0  0.20345622085E+02  0.92001033451E+01  0.12050334453E+02  0.99626848836E+02  0.96341643171E+02 0.  0.
         13    1    3    3    0    0 -0.26286358470E+02 -0.26881707764E+02 -0.57543474763E+01  0.38035805931E+02  0.10566000000E+00 0. -1.
         22    1    1    0    0    0 -0.20345622085E+02 -0.92001033451E+01 -0.12050334453E+02  0.25373151164E+02  0.00000000000E+00 0.  1.
</event>
<event>
 5    1  0.1751027E-003  0.9118800E+02  0.7818608E-02  0.1130116E+00
         25   -1    0    0    0    0  0.00000000000E+00  0.00000000000E+00  0.99999998245E-14  0.12500000000E+03  0.12500000000E+03 0.  0.
        -13    1    3    3    0    0 -0.17035026160E+02  0.30087439646E+02 -0.40364383072E+02  0.53148289958E+02  0.10566000000E+00 0.  1.
         23    2    1    0    0    0  0.85489616084E+00  0.30610371200E+02 -0.34357623686E+01  0.94185553136E+02  0.89002181345E+02 0.  0.
         13    1    3    3    0    0  0.17889922320E+02  0.52293155446E+00  0.36928620703E+02  0.41037263178E+02  0.10566000000E+00 0. -1.
         22    1    1    0    0    0 -0.85489616084E+00 -0.30610371200E+02  0.34357623686E+01  0.30814446864E+02  0.00000000000E+00 0.  1.
</event>
<event>
 5    1  0.1751027E-003  0.9118800E+02  0.7818608E-02  0.1130116E+00
         25   -1    0    0    0    0  0.00000000000E+00  0.00000000000E+00  0.99999998245E-14  0.12500000000E+03  0.12500000000E+03 0.  0.
        -13    1    3    3    0    0  0.23970103707E+02 -0.39114605672E+02 -0.36184313390E+02  0.58428023655E+02  0.10566000000E+00 0. -1.
         23    2    1    0    0    0  0.19620271953E+02 -0.24901287895E+02 -0.50910907188E+01  0.92891614568E+02  0.87165954604E+02 0.  0.
         13    1    3    3    0    0 -0.43498317538E+01  0.14213317778E+02  0.31093222671E+02  0.34463590913E+02  0.10566000000E+00 0.  1.
         22    1    1    0    0    0 -0.19620271953E+02  0.24901287895E+02  0.50910907188E+01  0.32108385432E+02  0.00000000000E+00 0. -1.
</event>
<event>
 5    1  0.1751027E-003  0.9118800E+02  0.7818608E-02  0.1130116E+00
         25   -1    0    0    0    0  0.00000000000E+00  0.00000000000E+00  0.99999998245E-14  0.12500000000E+03  0.12500000000E+03 0.  0.
        -13    1    3    3    0    0  0.19179257772E+02 -0.38224488548E+02 -0.44748607870E+02  0.61898340234E+02  0.10566000000E+00 0.  1.
         23    2    1    0    0    0  0.13580843821E+02 -0.14531103790E+02 -0.23500137939E+02  0.94212847170E+02  0.89040506470E+02 0.  0.
         13    1    3    3    0    0 -0.55984139510E+01  0.23693384758E+02  0.21248469931E+02  0.32314506936E+02  0.10566000000E+00 0. -1.
         22    1    1    0    0    0 -0.13580843821E+02  0.14531103790E+02  0.23500137939E+02  0.30787152830E+02  0.00000000000E+00 0.  1.
</event>
<event>
 5    1  0.1751027E-003  0.9118800E+02  0.7818608E-02  0.1130116E+00
         25   -1    0    0    0    0  0.00000000000E+00  0.00000000000E+00  0.99999998245E-14  0.12500000000E+03  0.12500000000E+03 0.  0.
        -13    1    3    3    0    0 -0.14966048893E+02  0.17388246793E+02 -0.49544841566E+02  0.54598866617E+02  0.10566000000E+00 0.  1.
         23    2    1    0    0    0  0.21847225678E+01  0.26184206331E+02 -0.13533469382E+02  0.95444281985E+02  0.90752798834E+02 0.  0.
         13    1    3    3    0    0  0.17150771461E+02  0.87959595387E+01  0.36011372184E+02  0.40845415368E+02  0.10566000000E+00 0. -1.
         22    1    1    0    0    0 -0.21847225678E+01 -0.26184206331E+02  0.13533469382E+02  0.29555718015E+02  0.00000000000E+00 0.  1.
</event>
<event>
 5    1  0.1751027E-003  0.9118800E+02  0.7818608E-02  0.1130116E+00
         25   -1    0    0    0    0  0.00000000000E+00  0.00000000000E+00  0.99999998245E-14  0.12500000000E+03  0.12500000000E+03 0.  0.
        -13    1    3    3    0    0  0.30493515451E+01  0.51264397106E+02  0.58646850138E+01  0.51688902580E+02  0.10566000000E+00 0. -1.
         23    2    1    0    0    0  0.23736338061E+02  0.15111977345E+02  0.13093078970E+02  0.93964305699E+02  0.88690903844E+02 0.  0.
         13    1    3    3    0    0  0.20686986516E+02 -0.36152419761E+02  0.72283939562E+01  0.42275403119E+02  0.10566000000E+00 0.  1.
         22    1    1    0    0    0 -0.23736338061E+02 -0.15111977345E+02 -0.13093078970E+02  0.31035694301E+02  0.00000000000E+00 0. -1.
</event>
<event>
 5    1  0.1751027E-003  0.9118800E+02  0.7818608E-02  0.1130116E+00
         25   -1    0    0    0    0  0.00000000000E+00  0.00000000000E+00  0.99999998245E-14  0.12500000000E+03  0.12500000000E+03 0.  0.
        -13    1    3    3    0    0  0.19241301947E+02 -0.44761029833E+02 -0.72846108105E+01  0.49263112072E+02  0.10566000000E+00 0. -1.
         23    2    1    0    0    0 -0.17495009450E+02 -0.14689410576E+02 -0.15431730337E+02  0.97432039613E+02  0.93450574654E+02 0.  0.
         13    1    3    3    0    0 -0.36736311396E+02  0.30071619257E+02 -0.81471195269E+01  0.48168927540E+02  0.10566000000E+00 0.  1.
         22    1    1    0    0    0  0.17495009450E+02  0.14689410576E+02  0.15431730337E+02  0.27567960387E+02  0.00000000000E+00 0.  1.
</event>
<event>
 5    1  0.1751027E-003  0.9118800E+02  0.7818608E-02  0.1130116E+00
         25   -1    0    0    0    0  0.00000000000E+00  0.00000000000E+00  0.99999998245E-14  0.12500000000E+03  0.12500000000E+03 0.  0.
        -13    1    3    3    0    0 -0.29336665979E+02  0.36824345589E+02 -0.34689445454E+02  0.58481118225E+02  0.10566000000E+00 0.  1.
         23    2    1    0    0    0 -0.26158286214E+02  0.83954155187E+01 -0.11875508830E+02  0.95070639009E+02  0.90236687396E+02 0.  0.
         13    1    3    3    0    0  0.31783797651E+01 -0.28428930071E+02  0.22813936624E+02  0.36589520784E+02  0.10566000000E+00 0. -1.
         22    1    1    0    0    0  0.26158286214E+02 -0.83954155187E+01  0.11875508830E+02  0.29929360991E+02  0.00000000000E+00 0.  1.
</event>
<event>
 5    1  0.1751027E-003  0.9118800E+02  0.7818608E-02  0.1130116E+00
         25   -1    0    0    0    0  0.00000000000E+00  0.00000000000E+00  0.99999998245E-14  0.12500000000E+03  0.12500000000E+03 0.  0.
        -13    1    3    3    0    0 -0.78855479871E+01  0.13203513181E+01  0.37824318867E+02  0.38660256808E+02  0.10566000000E+00 0.  1.
         23    2    1    0    0    0 -0.22483932706E+02  0.12073229785E+02 -0.15608027801E+02  0.95085110075E+02  0.90256731155E+02 0.  0.
         13    1    3    3    0    0 -0.14598384719E+02  0.10752878467E+02 -0.53432346668E+02  0.56424853267E+02  0.10566000000E+00 0. -1.
         22    1    1    0    0    0  0.22483932706E+02 -0.12073229785E+02  0.15608027801E+02  0.29914889925E+02  0.00000000000E+00 0. -1.
</event>
<event>
 5    1  0.1751027E-003  0.9118800E+02  0.7818608E-02  0.1130116E+00
         25   -1    0    0    0    0  0.00000000000E+00  0.00000000000E+00  0.99999998245E-14  0.12500000000E+03  0.12500000000E+03 0.  0.
        -13    1    3    3    0    0 -0.80226975008E+01 -0.37217736364E+02  0.45169437199E+02  0.59074637503E+02  0.10566000000E+00 0. -1.
         23    2    1    0    0    0 -0.17334364069E+02 -0.13833878674E+02  0.15713355688E+02  0.97819751219E+02  0.93967748747E+02 0.  0.
         13    1    3    3    0    0 -0.93116665685E+01  0.23383857690E+02 -0.29456081512E+02  0.38745113715E+02  0.10566000000E+00 0.  1.
         22    1    1    0    0    0  0.17334364069E+02  0.13833878674E+02 -0.15713355688E+02  0.27180248781E+02  0.00000000000E+00 0. -1.
</event>
<event>
 5    1  0.1751027E-003  0.9118800E+02  0.7818608E-02  0.1130116E+00
         25   -1    0    0    0    0  0.00000000000E+00  0.00000000000E+00  0.99999998245E-14  0.12500000000E+03  0.12500000000E+03 0.  0.
        -13    1    3    3    0    0 -0.25664707596E+02 -0.27283613941E+02  0.54580795535E+01  0.37853330132E+02  0.10566000000E+00 0.  1.
         23    2    1    0    0    0  0.54895907797E+01  0.97089922214E+01 -0.26789006116E+02  0.95981885217E+02  0.91490279834E+02 0.  0.
         13    1    3    3    0    0  0.31154298376E+02  0.36992606162E+02 -0.32247085670E+02  0.58128555084E+02  0.10566000000E+00 0. -1.
         22    1    1    0    0    0 -0.54895907797E+01 -0.97089922214E+01  0.26789006116E+02  0.29018114783E+02  0.00000000000E+00 0. -1.
</event>
<event>
 5    1  0.1751027E-003  0.9118800E+02  0.7818608E-02  0.1130116E+00
         25   -1    0    0    0    0  0.00000000000E+00  0.00000000000E+00  0.99999998245E-14  0.12500000000E+03  0.12500000000E+03 0.  0.
        -13    1    3    3    0    0  0.36637572983E+02 -0.15914538093E+02  0.31192942086E+02  0.50681308949E+02  0.10566000000E+00 0. -1.
         23    2    1    0    0    0  0.22784963574E+01 -0.27021460995E+02  0.81379107504E+00  0.97870437603E+02  0.94035149815E+02 0.  0.
         13    1    3    3    0    0 -0.34359076626E+02 -0.11106922902E+02 -0.30379151011E+02  0.47189128653E+02  0.10566000000E+00 0.  1.
         22    1    1    0    0    0 -0.22784963574E+01  0.27021460995E+02 -0.81379107504E+00  0.27129562397E+02  0.00000000000E+00 0.  1.
</event>
<event>
 5    1  0.1751027E-003  0.9118800E+02  0.7818608E-02  0.1130116E+00
         25   -1    0    0    0    0  0.00000000000E+00  0.00000000000E+00  0.99999998245E-14  0.12500000000E+03  0.12500000000E+03 0.  0.
        -13    1    3    3    0    0 -0.18591367784E+02  0.30282184733E+02 -0.12544409581E+02  0.37683193125E+02  0.10566000000E+00 0.  1.
         23    2    1    0    0    0  0.49205075102E+01 -0.25188424748E+02 -0.80682116019E+01  0.98097134467E+02  0.94336014420E+02 0.  0.
         13    1    3    3    0    0  0.23511875294E+02 -0.55470609482E+02  0.44761979792E+01  0.60413941342E+02  0.10566000000E+00 0. -1.
         22    1    1    0    0    0 -0.49205075102E+01  0.25188424748E+02  0.80682116019E+01  0.26902865533E+02  0.00000000000E+00 0. -1.
</event>
<event>
 5    1  0.1751027E-003  0.9118800E+02  0.7818608E-02  0.1130116E+00
         25   -1    0    0    0    0  0.00000000000E+00  0.00000000000E+00  0.99999998245E-14  0.12500000000E+03  0.12500000000E+03 0.  0.
        -13    1    3    3    0    0  0.15536874005E+02  0.61662244435E+01 -0.55403339349E+02  0.57870181897E+02  0.10566000000E+00 0. -1.
         23    2    1    0    0    0  0.22967510840E+02  0.44859166780E+01 -0.19601325451E+02  0.94473913417E+02  0.89406254559E+02 0.  0.
         13    1    3    3    0    0  0.74306368349E+01 -0.16803077655E+01  0.35802013898E+02  0.36603731520E+02  0.10566000000E+00 0.  1.
         22    1    1    0    0    0 -0.22967510840E+02 -0.44859166780E+01  0.19601325451E+02  0.30526086583E+02  0.00000000000E+00 0. -1.
</event>
<event>
 5    1  0.1751027E-003  0.9118800E+02  0.7818608E-02  0.1130116E+00
         25   -1    0    0    0    0  0.00000000000E+00  0.00000000000E+00  0.99999998245E-14  0.12500000000E+03  0.12500000000E+03 0.  0.
        -13    1    3    3    0    0  0.10983257489E+02  0.30550757187E+02 -0.29941227089E+02  0.44164113864E+02  0.10566000000E+00 0.  1.
         23    2    1    0    0    0  0.38401772469E+01  0.21307798567E+02  0.20043375373E+02  0.95495659007E+02  0.90823536332E+02 0.  0.
         13    1    3    3    0    0 -0.71430802418E+01 -0.92429586206E+01  0.49984602463E+02  0.51331545143E+02  0.10566000000E+00 0. -1.
         22    1    1    0    0    0 -0.38401772469E+01 -0.21307798567E+02 -0.20043375373E+02  0.29504340993E+02  0.00000000000E+00 0. -1.
</event>
<event>
 5    1  0.1751027E-003  0.9118800E+02  0.7818608E-02  0.1130116E+00
         25   -1    0    0    0    0  0.00000000000E+00  0.00000000000E+00  0.99999998245E-14  0.12500000000E+03  0.12500000000E+03 0.  0.
        -13    1    3    3    0    0  0.15164564971E+01 -0.48632673178E+02  0.31354125323E+02  0.57883753157E+02  0.10566000000E+00 0.  1.
         23    2    1    0    0    0 -0.12711531658E+02 -0.26341635059E+02  0.47989821505E+01  0.95360583603E+02  0.90637442047E+02 0.  0.
         13    1    3    3    0    0 -0.14227988155E+02  0.22291038119E+02 -0.26555143172E+02  0.37476830446E+02  0.10566000000E+00 0. -1.
         22    1    1    0    0    0  0.12711531658E+02  0.26341635059E+02 -0.47989821505E+01  0.29639416397E+02  0.00000000000E+00 0.  1.
</event>
<event>
 5    1  0.1751027E-003  0.9118800E+02  0.7818608E-02  0.1130116E+00
         25   -1    0    0    0    0  0.00000000000E+00  0.00000000000E+00  0.99999998245E-14  0.12500000000E+03  0.12500000000E+03 0.  0.
        -13    1    3    3    0    0 -0.27174709537E+02  0.15536518437E+02 -0.22999839443E+02  0.38843944470E+02  0.10566000000E+00 0. -1.
         23    2    1    0    0    0  0.18558894264E+02  0.19572429856E+02  0.10893559263E+02  0.95910788938E+02  0.91393091832E+02 0.  0.
         13    1    3    3    0    0  0.45733603802E+02  0.40359114193E+01  0.33893398706E+02  0.57066844468E+02  0.10566000000E+00 0.  1.
         22    1    1    0    0    0 -0.18558894264E+02 -0.19572429856E+02 -0.10893559263E+02  0.29089211062E+02  0.00000000000E+00 0.  1.
</event>
<event>
 5    1  0.1751027E-003  0.9118800E+02  0.7818608E-02  0.1130116E+00
         25   -1    0    0    0    0  0.00000000000E+00  0.00000000000E+00  0.99999998245E-14  0.12500000000E+03  0.12500000000E+03 0.  0.
        -13    1    3    3    0    0  0.41190405744E+02 -0.19665119986E+02 -0.25094332027E+02  0.52087456583E+02  0.10566000000E+00 0. -1.
         23    2    1    0    0    0  0.21813697500E+02  0.16345230962E+02 -0.13440719477E+02  0.94608275569E+02  0.89593911022E+02 0.  0.
         13    1    3    3    0    0 -0.19376708243E+02  0.36010350947E+02  0.11653612551E+02  0.42520818986E+02  0.10566000000E+00 0.  1.
         22    1    1    0    0    0 -0.21813697500E+02 -0.16345230962E+02  0.13440719477E+02  0.30391724431E+02  0.00000000000E+00 0.  1.
</event>
<event>
 5    1  0.1751027E-003  0.9118800E+02  0.7818608E-02  0.1130116E+00
         25   -1    0    0    0    0  0.00000000000E+00  0.00000000000E+00  0.99999998245E-14  0.12500000000E+03  0.12500000000E+03 0.  0.
        -13    1    3    3    0    0  0.26426183726E+02 -0.45406676732E+01  0.23652012447E+02  0.35754576016E+02  0.10566000000E+00 0.  1.
         23    2    1    0    0    0 -0.24356642624E+02  0.18176141199E+02  0.72178656328E+01  0.93763551209E+02  0.88407509874E+02 0.  0.
         13    1    3    3    0    0 -0.50782826350E+02  0.22716808872E+02 -0.16434146814E+02  0.58008975193E+02  0.10566000000E+00 0. -1.
         22    1    1    0    0    0  0.24356642624E+02 -0.18176141199E+02 -0.72178656328E+01  0.31236448791E+02  0.00000000000E+00 0. -1.
</event>
<event>
 5    1  0.1751027E-003  0.9118800E+02  0.7818608E-02  0.1130116E+00
         25   -1    0    0    0    0  0.00000000000E+00  0.00000000000E+00  0.99999998245E-14  0.12500000000E+03  0.12500000000E+03 0.  0.
        -13    1    3    3    0    0  0.65014849351E+01 -0.41370264706E+02  0.17720483590E+02  0.45473011896E+02  0.10566000000E+00 0. -1.
         23    2    1    0    0    0 -0.34855614589E+01  0.46939163461E+01  0.30206207962E+02  0.94233183642E+02  0.89069051362E+02 0.  0.
         13    1    3    3    0    0 -0.99870463940E+01  0.46064181052E+02  0.12485724372E+02  0.48760171747E+02  0.10566000000E+00 0.  1.
         22    1    1    0    0    0  0.34855614589E+01 -0.46939163461E+01 -0.30206207962E+02  0.30766816358E+02  0.00000000000E+00 0.  1.
</event>
<event>
 5    1  0.1751027E-003  0.9118800E+02  0.7818608E-02  0.1130116E+00
         25   -1    0    0    0    0  0.00000000000E+00  0.00000000000E+00  0.99999998245E-14  0.12500000000E+03  0.12500000000E+03 0.  0.
        -13    1    3    3    0    0  0.69389742869E+01  0.22507394030E+02 -0.34505729507E+02  0.41777849191E+02  0.10566000000E+00 0.  1.
         23    2    1    0    0    0  0.10380008410E+02  0.70712478292E+01  0.21569248122E+02  0.10004044101E+03  0.96876778706E+02 0.  0.
         13    1    3    3    0    0  0.34410341226E+01 -0.15436146201E+02  0.56074977629E+02  0.58262591819E+02  0.10566000000E+00 0. -1.
         22    1    1    0    0    0 -0.10380008410E+02 -0.70712478292E+01 -0.21569248122E+02  0.24959558990E+02  0.00000000000E+00 0. -1.
</event>
<event>
 5    1  0.1751027E-003  0.9118800E+02  0.7818608E-02  0.1130116E+00
         25   -1    0    0    0    0  0.00000000000E+00  0.00000000000E+00  0.99999998245E-14  0.12500000000E+03  0.12500000000E+03 0.  0.
        -13    1    3    3    0    0  0.37193586586E+02 -0.21414043735E+01 -0.49488172730E+02  0.61943836658E+02  0.10566000000E+00 0.  1.
         23    2    1    0    0    0  0.20167932611E+02 -0.68857680191E+01 -0.29184695004E+02  0.88862682315E+02  0.81182945123E+02 0.  0.
         13    1    3    3    0    0 -0.17025653975E+02 -0.47443636456E+01  0.20303477726E+02  0.26918845657E+02  0.10566000000E+00 0. -1.
         22    1    1    0    0    0 -0.20167932611E+02  0.68857680191E+01  0.29184695004E+02  0.36137317685E+02  0.00000000000E+00 0.  1.
</event>
<event>
 5    1  0.1751027E-003  0.9118800E+02  0.7818608E-02  0.1130116E+00
         25   -1    0    0    0    0  0.00000000000E+00  0.00000000000E+00  0.99999998245E-14  0.12500000000E+03  0.12500000000E+03 0.  0.
        -13    1    3    3    0    0  0.52425623438E+02 -0.25419670354E+02 -0.16435671077E+02  0.60537162814E+02  0.10566000000E+00 0. -1.
         23    2    1    0    0    0  0.38755742383E+02 -0.20454197954E+02 -0.18444172447E+01  0.81139041773E+02  0.68262438011E+02 0.  0.
         13    1    3    3    0    0 -0.13669881054E+02  0.49654724007E+01  0.14591253833E+02  0.20601878959E+02  0.10566000000E+00 0.  1.
         22    1    1    0    0    0 -0.38755742383E+02  0.20454197954E+02  0.18444172447E+01  0.43860958227E+02  0.00000000000E+00 0. -1.
</event>
<event>
 5    1  0.1751027E-003  0.9118800E+02  0.7818608E-02  0.1130116E+00
         25   -1    0    0    0    0  0.00000000000E+00  0.00000000000E+00  0.99999998245E-14  0.12500000000E+03  0.12500000000E+03 0.  0.
        -13    1    3    3    0    0  0.25349906974E+02 -0.19930952243E+02 -0.53193397078E+02  0.62204576179E+02  0.10566000000E+00 0. -1.
         23    2    1    0    0    0  0.14430848099E+02 -0.12590143054E+02 -0.23484196975E+02  0.94697053170E+02  0.89717686621E+02 0.  0.
         13    1    3    3    0    0 -0.10919058875E+02  0.73408091886E+01  0.29709200103E+02  0.32492476991E+02  0.10566000000E+00 0.  1.
         22    1    1    0    0    0 -0.14430848099E+02  0.12590143054E+02  0.23484196975E+02  0.30302946830E+02  0.00000000000E+00 0. -1.
</event>
<event>
 5    1  0.1751027E-003  0.9118800E+02  0.7818608E-02  0.1130116E+00
         25   -1    0    0    0    0  0.00000000000E+00  0.00000000000E+00  0.99999998245E-14  0.12500000000E+03  0.12500000000E+03 0.  0.
        -13    1    3    3    0    0 -0.54501367154E+02  0.64578534053E+01 -0.11474021111E+02  0.56069307261E+02  0.10566000000E+00 0.  1.
         23    2    1    0    0    0 -0.25437968700E+02 -0.51324291682E+01  0.13170377460E+02  0.95898609600E+02  0.91376432411E+02 0.  0.
         13    1    3    3    0    0  0.29063398454E+02 -0.11590282574E+02  0.24644398572E+02  0.39829302339E+02  0.10566000000E+00 0. -1.
         22    1    1    0    0    0  0.25437968700E+02  0.51324291682E+01 -0.13170377460E+02  0.29101390400E+02  0.00000000000E+00 0.  1.
</event>
<event>
 5    1  0.1751027E-003  0.9118800E+02  0.7818608E-02  0.1130116E+00
         25   -1    0    0    0    0  0.00000000000E+00  0.00000000000E+00  0.99999998245E-14  0.12500000000E+03  0.12500000000E+03 0.  0.
        -13    1    3    3    0    0  0.88152942450E+01  0.23733394212E+01 -0.34592744199E+02  0.35777245113E+02  0.10566000000E+00 0.  1.
         23    2    1    0    0    0 -0.22549946244E+02 -0.10756360595E+02  0.14963937126E+02  0.95877520999E+02  0.91347579331E+02 0.  0.
         13    1    3    3    0    0 -0.31365240489E+02 -0.13129700017E+02  0.49556681325E+02  0.60100275885E+02  0.10566000000E+00 0. -1.
         22    1    1    0    0    0  0.22549946244E+02  0.10756360595E+02 -0.14963937126E+02  0.29122479001E+02  0.00000000000E+00 0. -1.
</event>
<event>
 5    1  0.1751027E-003  0.9118800E+02  0.7818608E-02  0.1130116E+00
         25   -1    0    0    0    0  0.00000000000E+00  0.00000000000E+00  0.99999998245E-14  0.12500000000E+03  0.12500000000E+03 0.  0.
        -13    1    3    3    0    0 -0.15086851518E+02 -0.39327148649E+02 -0.22543985856E+02  0.47775309229E+02  0.10566000000E+00 0.  1.
         23    2    1    0    0    0  0.21666975905E+02 -0.17777102895E+02  0.19246570623E+01  0.96907518141E+02  0.92746318176E+02 0.  0.
         13    1    3    3    0    0  0.36753827423E+02  0.21550045754E+02  0.24468642919E+02  0.49132208912E+02  0.10566000000E+00 0. -1.
         22    1    1    0    0    0 -0.21666975905E+02  0.17777102895E+02 -0.19246570623E+01  0.28092481859E+02  0.00000000000E+00 0.  1.
</event>
<event>
 5    1  0.1751027E-003  0.9118800E+02  0.7818608E-02  0.1130116E+00
         25   -1    0    0    0    0  0.00000000000E+00  0.00000000000E+00  0.99999998245E-14  0.12500000000E+03  0.12500000000E+03 0.  0.
        -13    1    3    3    0    0  0.13569455837E+02  0.16877430151E+02 -0.49233598100E+02  0.53786021661E+02  0.10566000000E+00 0.  1.
         23    2    1    0    0    0  0.24543762871E+02 -0.43531509168E+01 -0.13852577599E+02  0.96482634678E+02  0.92171897396E+02 0.  0.
         13    1    3    3    0    0  0.10974307034E+02 -0.21230581068E+02  0.35381020501E+02  0.42696613017E+02  0.10566000000E+00 0. -1.
         22    1    1    0    0    0 -0.24543762871E+02  0.43531509168E+01  0.13852577599E+02  0.28517365322E+02  0.00000000000E+00 0. -1.
</event>
<event>
 5    1  0.1751027E-003  0.9118800E+02  0.7818608E-02  0.1130116E+00
         25   -1    0    0    0    0  0.00000000000E+00  0.00000000000E+00  0.99999998245E-14  0.12500000000E+03  0.12500000000E+03 0.  0.
        -13    1    3    3    0    0 -0.51715734500E+02  0.14854818698E+02  0.18578140879E+02  0.56923995959E+02  0.10566000000E+00 0. -1.
         23    2    1    0    0    0 -0.16201127812E+02  0.23858497576E+02  0.74753536164E+01  0.95207629154E+02  0.90426253314E+02 0.  0.
         13    1    3    3    0    0  0.35514606688E+02  0.90036788780E+01 -0.11102787263E+02  0.38283633195E+02  0.10566000000E+00 0.  1.
         22    1    1    0    0    0  0.16201127812E+02 -0.23858497576E+02 -0.74753536164E+01  0.29792370846E+02  0.00000000000E+00 0. -1.
</event>
<event>
 5    1  0.1751027E-003  0.9118800E+02  0.7818608E-02  0.1130116E+00
         25   -1    0    0    0    0  0.00000000000E+00  0.00000000000E+00  0.99999998245E-14  0.12500000000E+03  0.12500000000E+03 0.  0.
        -13    1    3    3    0    0  0.28049631700E+01 -0.29804858176E+02  0.15307025014E+02  0.33623110625E+02  0.10566000000E+00 0. -1.
         23    2    1    0    0    0 -0.57919179154E+00  0.22958038730E+02 -0.17746935331E+02  0.95976548808E+02  0.91482988593E+02 0.  0.
         13    1    3    3    0    0 -0.33841549615E+01  0.52762896906E+02 -0.33053960345E+02  0.62353438183E+02  0.10566000000E+00 0.  1.
         22    1    1    0    0    0  0.57919179154E+00 -0.22958038730E+02  0.17746935331E+02  0.29023451192E+02  0.00000000000E+00 0.  1.
</event>
<event>
 5    1  0.1751027E-003  0.9118800E+02  0.7818608E-02  0.1130116E+00
         25   -1    0    0    0    0  0.00000000000E+00  0.00000000000E+00  0.99999998245E-14  0.12500000000E+03  0.12500000000E+03 0.  0.
        -13    1    3    3    0    0 -0.53576302277E+01 -0.22742787164E+02  0.34855366122E+02  0.41962438933E+02  0.10566000000E+00 0.  1.
         23    2    1    0    0    0 -0.21616261543E+02 -0.35683369853E+01 -0.15444305993E+02  0.98194732243E+02  0.94465247900E+02 0.  0.
         13    1    3    3    0    0 -0.16258631315E+02  0.19174450179E+02 -0.50299672116E+02  0.56232293310E+02  0.10566000000E+00 0. -1.
         22    1    1    0    0    0  0.21616261543E+02  0.35683369853E+01  0.15444305993E+02  0.26805267757E+02  0.00000000000E+00 0. -1.
</event>
<event>
 5    1  0.1751027E-003  0.9118800E+02  0.7818608E-02  0.1130116E+00
         25   -1    0    0    0    0  0.00000000000E+00  0.00000000000E+00  0.99999998245E-14  0.12500000000E+03  0.12500000000E+03 0.  0.
        -13    1    3    3    0    0  0.13637549017E+02 -0.19469128235E+02 -0.22742946849E+02  0.32898062144E+02  0.10566000000E+00 0. -1.
         23    2    1    0    0    0 -0.26354477797E+02 -0.31514830025E+01  0.18521690426E+02  0.92634225464E+02  0.86796061927E+02 0.  0.
         13    1    3    3    0    0 -0.39992026814E+02  0.16317645232E+02  0.41264637275E+02  0.59736163320E+02  0.10566000000E+00 0.  1.
         22    1    1    0    0    0  0.26354477797E+02  0.31514830025E+01 -0.18521690426E+02  0.32365774536E+02  0.00000000000E+00 0.  1.
</event>
<event>
 5    1  0.1751027E-003  0.9118800E+02  0.7818608E-02  0.1130116E+00
         25   -1    0    0    0    0  0.00000000000E+00  0.00000000000E+00  0.99999998245E-14  0.12500000000E+03  0.12500000000E+03 0.  0.
        -13    1    3    3    0    0  0.52549396478E+01  0.33343000821E+02 -0.78802795428E+01  0.34662372454E+02  0.10566000000E+00 0.  1.
         23    2    1    0    0    0 -0.45702165090E+00 -0.27942132211E+02 -0.68726323316E+01  0.96221454233E+02  0.91817011269E+02 0.  0.
         13    1    3    3    0    0 -0.57119612987E+01 -0.61285133032E+02  0.10076472112E+01  0.61559081779E+02  0.10566000000E+00 0. -1.
         22    1    1    0    0    0  0.45702165090E+00  0.27942132211E+02  0.68726323316E+01  0.28778545767E+02  0.00000000000E+00 0. -1.
</event>
<event>
 5    1  0.1751027E-003  0.9118800E+02  0.7818608E-02  0.1130116E+00
         25   -1    0    0    0    0  0.00000000000E+00  0.00000000000E+00  0.99999998245E-14  0.12500000000E+03  0.12500000000E+03 0.  0.
        -13    1    3    3    0    0 -0.21874815158E+02 -0.14004051325E+02  0.27249046479E+02  0.37644955702E+02  0.10566000000E+00 0. -1.
         23    2    1    0    0    0 -0.13519344089E+02  0.17801534933E+02 -0.19861475853E+02  0.95097733637E+02  0.90274212316E+02 0.  0.
         13    1    3    3    0    0  0.83554710694E+01  0.31805586258E+02 -0.47110522332E+02  0.57452777935E+02  0.10566000000E+00 0.  1.
         22    1    1    0    0    0  0.13519344089E+02 -0.17801534933E+02  0.19861475853E+02  0.29902266363E+02  0.00000000000E+00 0.  1.
</event>
<event>
 5    1  0.1751027E-003  0.9118800E+02  0.7818608E-02  0.1130116E+00
         25   -1    0    0    0    0  0.00000000000E+00  0.00000000000E+00  0.99999998245E-14  0.12500000000E+03  0.12500000000E+03 0.  0.
        -13    1    3    3    0    0 -0.97109216861E+00  0.25155487791E+02 -0.22550982342E+02  0.33797922342E+02  0.10566000000E+00 0.  1.
         23    2    1    0    0    0 -0.14720779732E+02 -0.21173369013E+02  0.15150550032E+02  0.95090936531E+02  0.90264800076E+02 0.  0.
         13    1    3    3    0    0 -0.13749687564E+02 -0.46328856805E+02  0.37701532374E+02  0.61293014189E+02  0.10566000000E+00 0. -1.
         22    1    1    0    0    0  0.14720779732E+02  0.21173369013E+02 -0.15150550032E+02  0.29909063469E+02  0.00000000000E+00 0. -1.
</event>
<event>
 5    1  0.1751027E-003  0.9118800E+02  0.7818608E-02  0.1130116E+00
         25   -1    0    0    0    0  0.00000000000E+00  0.00000000000E+00  0.99999998245E-14  0.12500000000E+03  0.12500000000E+03 0.  0.
        -13    1    3    3    0    0 -0.50566546686E+02 -0.21186991099E+02  0.27145188545E+02  0.61177909909E+02  0.10566000000E+00 0. -1.
         23    2    1    0    0    0 -0.24182767780E+02 -0.16244246484E+02  0.62251258086E+01  0.95210169643E+02  0.90429765071E+02 0.  0.
         13    1    3    3    0    0  0.26383778906E+02  0.49427446150E+01 -0.20920062736E+02  0.34032259735E+02  0.10566000000E+00 0.  1.
         22    1    1    0    0    0  0.24182767780E+02  0.16244246484E+02 -0.62251258086E+01  0.29789830357E+02  0.00000000000E+00 0. -1.
</event>
<event>
 5    1  0.1751027E-003  0.9118800E+02  0.7818608E-02  0.1130116E+00
         25   -1    0    0    0    0  0.00000000000E+00  0.00000000000E+00  0.99999998245E-14  0.12500000000E+03  0.12500000000E+03 0.  0.
        -13    1    3    3    0    0  0.28587280659E+02 -0.24621209538E+02  0.19602828668E+01  0.37779497714E+02  0.10566000000E+00 0. -1.
         23    2    1    0    0    0  0.38205686994E+01  0.26414263684E+02 -0.11269096028E+02  0.96029280360E+02  0.91555011278E+02 0.  0.
         13    1    3    3    0    0 -0.24766711959E+02  0.51035473223E+02 -0.13229378894E+02  0.58249782646E+02  0.10566000000E+00 0.  1.
         22    1    1    0    0    0 -0.38205686994E+01 -0.26414263684E+02  0.11269096028E+02  0.28970719640E+02  0.00000000000E+00 0.  1.
</event>
<event>
 5    1  0.1751027E-003  0.9118800E+02  0.7818608E-02  0.1130116E+00
         25   -1    0    0    0    0  0.00000000000E+00  0.00000000000E+00  0.99999998245E-14  0.12500000000E+03  0.12500000000E+03 0.  0.
        -13    1    3    3    0    0  0.22085018076E+02 -0.16345480770E+02 -0.48924841579E+02  0.56112156015E+02  0.10566000000E+00 0.  1.
         23    2    1    0    0    0 -0.65374034065E+01 -0.17817527828E+02 -0.25981788851E+02  0.92824616660E+02  0.87069823503E+02 0.  0.
         13    1    3    3    0    0 -0.28622421483E+02 -0.14720470580E+01  0.22943052728E+02  0.36712460645E+02  0.10566000000E+00 0. -1.
         22    1    1    0    0    0  0.65374034065E+01  0.17817527828E+02  0.25981788851E+02  0.32175383340E+02  0.00000000000E+00 0.  1.
</event>
<event>
 5    1  0.1751027E-003  0.9118800E+02  0.7818608E-02  0.1130116E+00
         25   -1    0    0    0    0  0.00000000000E+00  0.00000000000E+00  0.99999998245E-14  0.12500000000E+03  0.12500000000E+03 0.  0.
        -13    1    3    3    0    0 -0.25201020336E+02 -0.94033810563E+01 -0.34803287214E+02  0.43986304302E+02  0.10566000000E+00 0.  1.
         23    2    1    0    0    0  0.20651843413E+02  0.10164418238E+02 -0.14369641725E+02  0.97865139805E+02  0.94028107241E+02 0.  0.
         13    1    3    3    0    0  0.45852863749E+02  0.19567799294E+02  0.20433645489E+02  0.53878835503E+02  0.10566000000E+00 0. -1.
         22    1    1    0    0    0 -0.20651843413E+02 -0.10164418238E+02  0.14369641725E+02  0.27134860195E+02  0.00000000000E+00 0. -1.
</event>
<event>
 5    1  0.1751027E-003  0.9118800E+02  0.7818608E-02  0.1130116E+00
         25   -1    0    0    0    0  0.00000000000E+00  0.00000000000E+00  0.99999998245E-14  0.12500000000E+03  0.12500000000E+03 0.  0.
        -13    1    3    3    0    0  0.17962411371E+02  0.44016553992E+00  0.28213717603E+02  0.33449469248E+02  0.10566000000E+00 0. -1.
         23    2    1    0    0    0 -0.21801789199E+02 -0.83170250801E+01 -0.18357329782E+02  0.95310229452E+02  0.90567970956E+02 0.  0.
         13    1    3    3    0    0 -0.39764200570E+02 -0.87571906200E+01 -0.46571047384E+02  0.61860760204E+02  0.10566000000E+00 0.  1.
         22    1    1    0    0    0  0.21801789199E+02  0.83170250801E+01  0.18357329782E+02  0.29689770548E+02  0.00000000000E+00 0.  1.
</event>
<event>
 5    1  0.1751027E-003  0.9118800E+02  0.7818608E-02  0.1130116E+00
         25   -1    0    0    0    0  0.00000000000E+00  0.00000000000E+00  0.99999998245E-14  0.12500000000E+03  0.12500000000E+03 0.  0.
        -13    1    3    3    0    0  0.62969128883E+01  0.24642461997E+02 -0.50190301614E+02  0.56267038178E+02  0.10566000000E+00 0.  1.
         23    2    1    0    0    0  0.18596566735E+02 -0.85801162683E+00 -0.21134035803E+02  0.96835910318E+02  0.92649757579E+02 0.  0.
         13    1    3    3    0    0  0.12299653847E+02 -0.25500473624E+02  0.29056265811E+02  0.40568872140E+02  0.10566000000E+00 0. -1.
         22    1    1    0    0    0 -0.18596566735E+02  0.85801162683E+00  0.21134035803E+02  0.28164089682E+02  0.00000000000E+00 0.  1.
</event>
<event>
 5    1  0.1751027E-003  0.9118800E+02  0.7818608E-02  0.1130116E+00
         25   -1    0    0    0    0  0.00000000000E+00  0.00000000000E+00  0.99999998245E-14  0.12500000000E+03  0.12500000000E+03 0.  0.
        -13    1    3    3    0    0  0.82699451937E+01 -0.32661345328E+02  0.17627797940E+02  0.38025069315E+02  0.10566000000E+00 0. -1.
         23    2    1    0    0    0 -0.29572899108E+01  0.23825898937E+02  0.16931442941E+02  0.95621559200E+02  0.90996647191E+02 0.  0.
         13    1    3    3    0    0 -0.11227235105E+02  0.56487244265E+02 -0.69635499903E+00  0.57596489885E+02  0.10566000000E+00 0.  1.
         22    1    1    0    0    0  0.29572899108E+01 -0.23825898937E+02 -0.16931442941E+02  0.29378440800E+02  0.00000000000E+00 0.  1.
</event>
<event>
 5    1  0.1751027E-003  0.9118800E+02  0.7818608E-02  0.1130116E+00
         25   -1    0    0    0    0  0.00000000000E+00  0.00000000000E+00  0.99999998245E-14  0.12500000000E+03  0.12500000000E+03 0.  0.
        -13    1    3    3    0    0  0.32161157471E+02  0.86033898033E+01 -0.11314134373E+02  0.35162183758E+02  0.10566000000E+00 0. -1.
         23    2    1    0    0    0 -0.92593404008E+01 -0.18146227903E+02  0.22267876699E+02  0.94819222932E+02  0.89887739614E+02 0.  0.
         13    1    3    3    0    0 -0.41420497872E+02 -0.26749617706E+02  0.33582011072E+02  0.59657039174E+02  0.10566000000E+00 0.  1.
         22    1    1    0    0    0  0.92593404008E+01  0.18146227903E+02 -0.22267876699E+02  0.30180777068E+02  0.00000000000E+00 0.  1.
</event>
<event>
 5    1  0.1751027E-003  0.9118800E+02  0.7818608E-02  0.1130116E+00
         25   -1    0    0    0    0  0.00000000000E+00  0.00000000000E+00  0.99999998245E-14  0.12500000000E+03  0.12500000000E+03 0.  0.
        -13    1    3    3    0    0  0.14170974302E+02  0.99011286480E+01 -0.30882648277E+02  0.35392061113E+02  0.10566000000E+00 0.  1.
         23    2    1    0    0    0 -0.25897456746E+02 -0.15237223222E+02  0.47056665437E+01  0.94586277192E+02  0.89563213977E+02 0.  0.
         13    1    3    3    0    0 -0.40068431048E+02 -0.25138351870E+02  0.35588314821E+02  0.59194216079E+02  0.10566000000E+00 0. -1.
         22    1    1    0    0    0  0.25897456746E+02  0.15237223222E+02 -0.47056665437E+01  0.30413722808E+02  0.00000000000E+00 0. -1.
</event>
<event>
 5    1  0.1751027E-003  0.9118800E+02  0.7818608E-02  0.1130116E+00
         25   -1    0    0    0    0  0.00000000000E+00  0.00000000000E+00  0.99999998245E-14  0.12500000000E+03  0.12500000000E+03 0.  0.
        -13    1    3    3    0    0  0.12517550335E+02  0.48086524367E+02 -0.37739998064E+02  0.62396486359E+02  0.10566000000E+00 0. -1.
         23    2    1    0    0    0  0.84881428512E+01  0.22653909873E+02 -0.17759794333E+02  0.94989027068E+02  0.90123563883E+02 0.  0.
         13    1    3    3    0    0 -0.40294074842E+01 -0.25432614493E+02  0.19980203732E+02  0.32592540708E+02  0.10566000000E+00 0.  1.
         22    1    1    0    0    0 -0.84881428512E+01 -0.22653909873E+02  0.17759794333E+02  0.30010972932E+02  0.00000000000E+00 0. -1.
</event>
<event>
 5    1  0.1751027E-003  0.9118800E+02  0.7818608E-02  0.1130116E+00
         25   -1    0    0    0    0  0.00000000000E+00  0.00000000000E+00  0.99999998245E-14  0.12500000000E+03  0.12500000000E+03 0.  0.
        -13    1    3    3    0    0  0.32075487657E+02  0.39924016795E+01  0.12039781893E+02  0.34492661418E+02  0.10566000000E+00 0. -1.
         23    2    1    0    0    0 -0.10118919836E+02 -0.80844557778E+01 -0.28156695251E+02  0.94007251633E+02  0.88751410740E+02 0.  0.
         13    1    3    3    0    0 -0.42194407493E+02 -0.12076857457E+02 -0.40196477143E+02  0.59514590216E+02  0.10566000000E+00 0.  1.
         22    1    1    0    0    0  0.10118919836E+02  0.80844557778E+01  0.28156695251E+02  0.30992748367E+02  0.00000000000E+00 0.  1.
</event>
<event>
 5    1  0.1751027E-003  0.9118800E+02  0.7818608E-02  0.1130116E+00
         25   -1    0    0    0    0  0.00000000000E+00  0.00000000000E+00  0.99999998245E-14  0.12500000000E+03  0.12500000000E+03 0.  0.
        -13    1    3    3    0    0  0.14353977667E+02  0.59096372813E+02 -0.95572205613E+01  0.61561104469E+02  0.10566000000E+00 0.  1.
         23    2    1    0    0    0  0.24177259571E+01  0.28079642522E+02 -0.10798299911E+02  0.94818631510E+02  0.89886917166E+02 0.  0.
         13    1    3    3    0    0 -0.11936251710E+02 -0.31016730292E+02 -0.12410793499E+01  0.33257527041E+02  0.10566000000E+00 0. -1.
         22    1    1    0    0    0 -0.24177259571E+01 -0.28079642522E+02  0.10798299911E+02  0.30181368490E+02  0.00000000000E+00 0.  1.
</event>
<event>
 5    1  0.1751027E-003  0.9118800E+02  0.7818608E-02  0.1130116E+00
         25   -1    0    0    0    0  0.00000000000E+00  0.00000000000E+00  0.99999998245E-14  0.12500000000E+03  0.12500000000E+03 0.  0.
        -13    1    3    3    0    0 -0.46744161736E+02 -0.33388818263E+01  0.11266318775E+02  0.48198608808E+02  0.10566000000E+00 0.  1.
         23    2    1    0    0    0  0.48823875586E+01  0.16301686037E+02  0.13191628901E+02  0.10346858693E+03  0.10120349170E+03 0.  0.
         13    1    3    3    0    0  0.51626549294E+02  0.19640567864E+02  0.19253101262E+01  0.55269978118E+02  0.10566000000E+00 0. -1.
         22    1    1    0    0    0 -0.48823875586E+01 -0.16301686037E+02 -0.13191628901E+02  0.21531413075E+02  0.00000000000E+00 0. -1.
</event>
<event>
 5    1  0.1751027E-003  0.9118800E+02  0.7818608E-02  0.1130116E+00
         25   -1    0    0    0    0  0.00000000000E+00  0.00000000000E+00  0.99999998245E-14  0.12500000000E+03  0.12500000000E+03 0.  0.
        -13    1    3    3    0    0 -0.22453031643E+02 -0.28788031322E+02 -0.44258816968E+02  0.57373717160E+02  0.10566000000E+00 0.  1.
         23    2    1    0    0    0  0.28278578740E+01 -0.69545499909E+01 -0.30650594844E+02  0.93443360286E+02  0.87953624550E+02 0.  0.
         13    1    3    3    0    0  0.25280889517E+02  0.21833481331E+02  0.13608222124E+02  0.36069643125E+02  0.10566000000E+00 0. -1.
         22    1    1    0    0    0 -0.28278578740E+01  0.69545499909E+01  0.30650594844E+02  0.31556639714E+02  0.00000000000E+00 0.  1.
</event>
<event>
 5    1  0.1751027E-003  0.9118800E+02  0.7818608E-02  0.1130116E+00
         25   -1    0    0    0    0  0.00000000000E+00  0.00000000000E+00  0.99999998245E-14  0.12500000000E+03  0.12500000000E+03 0.  0.
        -13    1    3    3    0    0  0.37171436598E+02 -0.48732773516E+02  0.54898443750E+00  0.61293649437E+02  0.10566000000E+00 0. -1.
         23    2    1    0    0    0  0.99629864155E+01 -0.27302552132E+02 -0.17341486797E+00  0.95935923824E+02  0.91427462811E+02 0.  0.
         13    1    3    3    0    0 -0.27208450183E+02  0.21430221384E+02 -0.72239930548E+00  0.34642274387E+02  0.10566000000E+00 0.  1.
         22    1    1    0    0    0 -0.99629864155E+01  0.27302552132E+02  0.17341486797E+00  0.29064076176E+02  0.00000000000E+00 0. -1.
</event>
<event>
 5    1  0.1751027E-003  0.9118800E+02  0.7818608E-02  0.1130116E+00
         25   -1    0    0    0    0  0.00000000000E+00  0.00000000000E+00  0.99999998245E-14  0.12500000000E+03  0.12500000000E+03 0.  0.
        -13    1    3    3    0    0 -0.14003479317E+02  0.25697455755E+02  0.39593361614E+02  0.49235171506E+02  0.10566000000E+00 0.  1.
         23    2    1    0    0    0 -0.26511235914E+02  0.15216807712E+02 -0.24496397739E+01  0.94334097084E+02  0.89210561432E+02 0.  0.
         13    1    3    3    0    0 -0.12507756597E+02 -0.10480648043E+02 -0.42043001388E+02  0.45098925578E+02  0.10566000000E+00 0. -1.
         22    1    1    0    0    0  0.26511235914E+02 -0.15216807712E+02  0.24496397739E+01  0.30665902916E+02  0.00000000000E+00 0. -1.
</event>
<event>
 5    1  0.1751027E-003  0.9118800E+02  0.7818608E-02  0.1130116E+00
         25   -1    0    0    0    0  0.00000000000E+00  0.00000000000E+00  0.99999998245E-14  0.12500000000E+03  0.12500000000E+03 0.  0.
        -13    1    3    3    0    0 -0.43667283464E+02 -0.29817778778E+02 -0.27683783986E+02  0.59685296650E+02  0.10566000000E+00 0.  1.
         23    2    1    0    0    0 -0.27047046470E+02 -0.24813395747E+01 -0.13107357017E+02  0.94842039578E+02  0.89919463379E+02 0.  0.
         13    1    3    3    0    0  0.16620236993E+02  0.27336439204E+02  0.14576426969E+02  0.35156742927E+02  0.10566000000E+00 0. -1.
         22    1    1    0    0    0  0.27047046470E+02  0.24813395747E+01  0.13107357017E+02  0.30157960422E+02  0.00000000000E+00 0.  1.
</event>
<event>
 5    1  0.1751027E-003  0.9118800E+02  0.7818608E-02  0.1130116E+00
         25   -1    0    0    0    0  0.00000000000E+00  0.00000000000E+00  0.99999998245E-14  0.12500000000E+03  0.12500000000E+03 0.  0.
        -13    1    3    3    0    0 -0.96043863354E+01  0.21718439110E+01 -0.35319614968E+02  0.36666708447E+02  0.10566000000E+00 0.  1.
         23    2    1    0    0    0  0.83622153378E+01  0.21754707387E+02  0.17539692653E+02  0.95830928071E+02  0.91283799318E+02 0.  0.
         13    1    3    3    0    0  0.17966601673E+02  0.19582863476E+02  0.52859307620E+02  0.59164219624E+02  0.10566000000E+00 0. -1.
         22    1    1    0    0    0 -0.83622153378E+01 -0.21754707387E+02 -0.17539692653E+02  0.29169071929E+02  0.00000000000E+00 0. -1.
</event>
<event>
 5    1  0.1751027E-003  0.9118800E+02  0.7818608E-02  0.1130116E+00
         25   -1    0    0    0    0  0.00000000000E+00  0.00000000000E+00  0.99999998245E-14  0.12500000000E+03  0.12500000000E+03 0.  0.
        -13    1    3    3    0    0  0.28029155267E+02 -0.46724454566E+02  0.25139180695E+02  0.60006647711E+02  0.10566000000E+00 0. -1.
         23    2    1    0    0    0  0.11738156937E+02 -0.28369387889E+02  0.12244506419E+01  0.94273695685E+02  0.89125888053E+02 0.  0.
         13    1    3    3    0    0 -0.16290998330E+02  0.18355066677E+02 -0.23914730053E+02  0.34267047974E+02  0.10566000000E+00 0.  1.
         22    1    1    0    0    0 -0.11738156937E+02  0.28369387889E+02 -0.12244506419E+01  0.30726304315E+02  0.00000000000E+00 0. -1.
</event>
<event>
 5    1  0.1751027E-003  0.9118800E+02  0.7818608E-02  0.1130116E+00
         25   -1    0    0    0    0  0.00000000000E+00  0.00000000000E+00  0.99999998245E-14  0.12500000000E+03  0.12500000000E+03 0.  0.
        -13    1    3    3    0    0 -0.47421417606E+02 -0.22722131728E+02 -0.30104457622E+02  0.60591877762E+02  0.10566000000E+00 0.  1.
         23    2    1    0    0    0 -0.22241467241E+02 -0.18265412273E+02 -0.62789270418E+01  0.95542690630E+02  0.90888242681E+02 0.  0.
         13    1    3    3    0    0  0.25179950365E+02  0.44567194551E+01  0.23825530580E+02  0.34950812868E+02  0.10566000000E+00 0. -1.
         22    1    1    0    0    0  0.22241467241E+02  0.18265412273E+02  0.62789270418E+01  0.29457309370E+02  0.00000000000E+00 0.  1.
</event>
<event>
 5    1  0.1751027E-003  0.9118800E+02  0.7818608E-02  0.1130116E+00
         25   -1    0    0    0    0  0.00000000000E+00  0.00000000000E+00  0.99999998245E-14  0.12500000000E+03  0.12500000000E+03 0.  0.
        -13    1    3    3    0    0  0.27593452379E+02  0.31211369351E+02 -0.19569339718E+02  0.46027365903E+02  0.10566000000E+00 0.  1.
         23    2    1    0    0    0 -0.17160699490E+02  0.21772074248E+02  0.31526963545E+01  0.97099241617E+02  0.93004356910E+02 0.  0.
         13    1    3    3    0    0 -0.44754151869E+02 -0.94392951032E+01  0.22722036073E+02  0.51071875714E+02  0.10566000000E+00 0. -1.
         22    1    1    0    0    0  0.17160699490E+02 -0.21772074248E+02 -0.31526963545E+01  0.27900758383E+02  0.00000000000E+00 0. -1.
</event>
<event>
 5    1  0.1751027E-003  0.9118800E+02  0.7818608E-02  0.1130116E+00
         25   -1    0    0    0    0  0.00000000000E+00  0.00000000000E+00  0.99999998245E-14  0.12500000000E+03  0.12500000000E+03 0.  0.
        -13    1    3    3    0    0  0.35037244065E+02  0.31324597365E+02 -0.15815058454E+02  0.49587963355E+02  0.10566000000E+00 0.  1.
         23    2    1    0    0    0  0.26980997961E+02 -0.11111034534E+02  0.65013940754E+00  0.95813495916E+02  0.91259925373E+02 0.  0.
         13    1    3    3    0    0 -0.80562461047E+01 -0.42435631899E+02  0.16465197862E+02  0.46225532561E+02  0.10566000000E+00 0. -1.
         22    1    1    0    0    0 -0.26980997961E+02  0.11111034534E+02 -0.65013940754E+00  0.29186504084E+02  0.00000000000E+00 0.  1.
</event>
<event>
 5    1  0.1751027E-003  0.9118800E+02  0.7818608E-02  0.1130116E+00
         25   -1    0    0    0    0  0.00000000000E+00  0.00000000000E+00  0.99999998245E-14  0.12500000000E+03  0.12500000000E+03 0.  0.
        -13    1    3    3    0    0  0.34080422779E+02 -0.24569957992E+02 -0.10434841544E+02  0.43290358449E+02  0.10566000000E+00 0.  1.
         23    2    1    0    0    0  0.11206651886E+02  0.24439206060E+02 -0.18674022406E+01  0.98049099635E+02  0.94272344348E+02 0.  0.
         13    1    3    3    0    0 -0.22873770893E+02  0.49009164053E+02  0.85674393035E+01  0.54758741186E+02  0.10566000000E+00 0. -1.
         22    1    1    0    0    0 -0.11206651886E+02 -0.24439206060E+02  0.18674022406E+01  0.26950900365E+02  0.00000000000E+00 0. -1.
</event>
<event>
 5    1  0.1751027E-003  0.9118800E+02  0.7818608E-02  0.1130116E+00
         25   -1    0    0    0    0  0.00000000000E+00  0.00000000000E+00  0.99999998245E-14  0.12500000000E+03  0.12500000000E+03 0.  0.
        -13    1    3    3    0    0 -0.49023427609E+02 -0.10122011928E+02  0.15081464458E+02  0.52280142638E+02  0.10566000000E+00 0.  1.
         23    2    1    0    0    0 -0.18337768543E+02 -0.11428169809E+02 -0.17602178068E+02  0.97130419934E+02  0.93046251851E+02 0.  0.
         13    1    3    3    0    0  0.30685659066E+02 -0.13061578804E+01 -0.32683642526E+02  0.44850277296E+02  0.10566000000E+00 0. -1.
         22    1    1    0    0    0  0.18337768543E+02  0.11428169809E+02  0.17602178068E+02  0.27869580066E+02  0.00000000000E+00 0.  1.
</event>
<event>
 5    1  0.1751027E-003  0.9118800E+02  0.7818608E-02  0.1130116E+00
         25   -1    0    0    0    0  0.00000000000E+00  0.00000000000E+00  0.99999998245E-14  0.12500000000E+03  0.12500000000E+03 0.  0.
        -13    1    3    3    0    0 -0.99401932767E+01  0.11076349016E+02 -0.36574405823E+02  0.39486596146E+02  0.10566000000E+00 0.  1.
         23    2    1    0    0    0  0.15116171038E+02  0.19720002260E+02  0.13923269750E+02  0.96517820369E+02  0.92219602538E+02 0.  0.
         13    1    3    3    0    0  0.25056364315E+02  0.86436532445E+01  0.50497675572E+02  0.57031224223E+02  0.10566000000E+00 0. -1.
         22    1    1    0    0    0 -0.15116171038E+02 -0.19720002260E+02 -0.13923269750E+02  0.28482179631E+02  0.00000000000E+00 0. -1.
</event>
<event>
 5    1  0.1751027E-003  0.9118800E+02  0.7818608E-02  0.1130116E+00
         25   -1    0    0    0    0  0.00000000000E+00  0.00000000000E+00  0.99999998245E-14  0.12500000000E+03  0.12500000000E+03 0.  0.
        -13    1    3    3    0    0  0.18465194193E+02 -0.56698780937E+01 -0.58787972667E+02  0.61880108343E+02  0.10566000000E+00 0.  1.
         23    2    1    0    0    0  0.17942956200E+02 -0.72416277806E+00 -0.47655310655E+02  0.74073555763E+02  0.53790230905E+02 0.  0.
         13    1    3    3    0    0 -0.52223799241E+00  0.49457153156E+01  0.11132662011E+02  0.12193447421E+02  0.10566000000E+00 0. -1.
         22    1    1    0    0    0 -0.17942956200E+02  0.72416277806E+00  0.47655310655E+02  0.50926444237E+02  0.00000000000E+00 0.  1.
</event>
<event>
 5    1  0.1751027E-003  0.9118800E+02  0.7818608E-02  0.1130116E+00
         25   -1    0    0    0    0  0.00000000000E+00  0.00000000000E+00  0.99999998245E-14  0.12500000000E+03  0.12500000000E+03 0.  0.
        -13    1    3    3    0    0 -0.28583337487E+02  0.13865102679E+02  0.18118933680E+02  0.36572601438E+02  0.10566000000E+00 0.  1.
         23    2    1    0    0    0  0.17677255363E+01 -0.24567813590E+02 -0.15430381408E+02  0.95934574000E+02  0.91425617307E+02 0.  0.
         13    1    3    3    0    0  0.30351063023E+02 -0.38432916269E+02 -0.33549315088E+02  0.59361972562E+02  0.10566000000E+00 0. -1.
         22    1    1    0    0    0 -0.17677255363E+01  0.24567813590E+02  0.15430381408E+02  0.29065426000E+02  0.00000000000E+00 0. -1.
</event>
<event>
 5    1  0.1751027E-003  0.9118800E+02  0.7818608E-02  0.1130116E+00
         25   -1    0    0    0    0  0.00000000000E+00  0.00000000000E+00  0.99999998245E-14  0.12500000000E+03  0.12500000000E+03 0.  0.
        -13    1    3    3    0    0 -0.12437457839E+02 -0.54662531011E+02  0.19553615543E+01  0.56093825479E+02  0.10566000000E+00 0. -1.
         23    2    1    0    0    0 -0.16307933541E+02 -0.12728683966E+02  0.14150154379E+02  0.99936182238E+02  0.96742160196E+02 0.  0.
         13    1    3    3    0    0 -0.38704757020E+01  0.41933847044E+02  0.12194792824E+02  0.43842356759E+02  0.10566000000E+00 0.  1.
         22    1    1    0    0    0  0.16307933541E+02  0.12728683966E+02 -0.14150154379E+02  0.25063817762E+02  0.00000000000E+00 0. -1.
</event>
<event>
 5    1  0.1751027E-003  0.9118800E+02  0.7818608E-02  0.1130116E+00
         25   -1    0    0    0    0  0.00000000000E+00  0.00000000000E+00  0.99999998245E-14  0.12500000000E+03  0.12500000000E+03 0.  0.
        -13    1    3    3    0    0  0.33754110740E+01  0.92652983101E+00 -0.12907615080E+02  0.13374212072E+02  0.10566000000E+00 0.  1.
         23    2    1    0    0    0 -0.40027272032E+02 -0.93358651070E-01  0.30431201472E+02  0.74718301091E+02  0.55268212135E+02 0.  0.
         13    1    3    3    0    0 -0.43402683106E+02 -0.10198884821E+01  0.43338816552E+02  0.61344089019E+02  0.10566000000E+00 0. -1.
         22    1    1    0    0    0  0.40027272032E+02  0.93358651070E-01 -0.30431201472E+02  0.50281698909E+02  0.00000000000E+00 0. -1.
</event>
<event>
 5    1  0.1751027E-003  0.9118800E+02  0.7818608E-02  0.1130116E+00
         25   -1    0    0    0    0  0.00000000000E+00  0.00000000000E+00  0.99999998245E-14  0.12500000000E+03  0.12500000000E+03 0.  0.
        -13    1    3    3    0    0 -0.25131126105E+02 -0.23145744480E+02 -0.13407198415E+02  0.36702358510E+02  0.10566000000E+00 0.  1.
         23    2    1    0    0    0  0.20323296516E+02 -0.30061698114E+01  0.19782691371E+02  0.96479335279E+02  0.92167422769E+02 0.  0.
         13    1    3    3    0    0  0.45454422621E+02  0.20139574669E+02  0.33189889786E+02  0.59776976769E+02  0.10566000000E+00 0. -1.
         22    1    1    0    0    0 -0.20323296516E+02  0.30061698114E+01 -0.19782691371E+02  0.28520664721E+02  0.00000000000E+00 0. -1.
</event>
<event>
 5    1  0.1751027E-003  0.9118800E+02  0.7818608E-02  0.1130116E+00
         25   -1    0    0    0    0  0.00000000000E+00  0.00000000000E+00  0.99999998245E-14  0.12500000000E+03  0.12500000000E+03 0.  0.
        -13    1    3    3    0    0 -0.33679741642E+02  0.26667323174E+01 -0.16614200672E+02  0.37649426109E+02  0.10566000000E+00 0.  1.
         23    2    1    0    0    0  0.15608358300E+02  0.23555873553E+02  0.65735800401E+01  0.95987727042E+02  0.91498260970E+02 0.  0.
         13    1    3    3    0    0  0.49288099942E+02  0.20889141235E+02  0.23187780712E+02  0.58338300933E+02  0.10566000000E+00 0. -1.
         22    1    1    0    0    0 -0.15608358300E+02 -0.23555873553E+02 -0.65735800401E+01  0.29012272958E+02  0.00000000000E+00 0. -1.
</event>
<event>
 5    1  0.1751027E-003  0.9118800E+02  0.7818608E-02  0.1130116E+00
         25   -1    0    0    0    0  0.00000000000E+00  0.00000000000E+00  0.99999998245E-14  0.12500000000E+03  0.12500000000E+03 0.  0.
        -13    1    3    3    0    0  0.19399397957E+02  0.53573610397E+02 -0.20822258619E+02  0.60663382613E+02  0.10566000000E+00 0. -1.
         23    2    1    0    0    0  0.96187455641E+01  0.27580120496E+02  0.67308406590E+00  0.95782944108E+02  0.91218068534E+02 0.  0.
         13    1    3    3    0    0 -0.97806523928E+01 -0.25993489901E+02  0.21495342685E+02  0.35119561495E+02  0.10566000000E+00 0.  1.
         22    1    1    0    0    0 -0.96187455641E+01 -0.27580120496E+02 -0.67308406590E+00  0.29217055892E+02  0.00000000000E+00 0. -1.
</event>
<event>
 5    1  0.1751027E-003  0.9118800E+02  0.7818608E-02  0.1130116E+00
         25   -1    0    0    0    0  0.00000000000E+00  0.00000000000E+00  0.99999998245E-14  0.12500000000E+03  0.12500000000E+03 0.  0.
        -13    1    3    3    0    0  0.31619875643E+02 -0.17586926627E+02 -0.11754585113E+02  0.38043369450E+02  0.10566000000E+00 0.  1.
         23    2    1    0    0    0 -0.93748354857E+01  0.23105405785E+02 -0.15008134908E+02  0.95896882808E+02  0.91374070184E+02 0.  0.
         13    1    3    3    0    0 -0.40994711129E+02  0.40692332412E+02 -0.32535497945E+01  0.57853513359E+02  0.10566000000E+00 0. -1.
         22    1    1    0    0    0  0.93748354857E+01 -0.23105405785E+02  0.15008134908E+02  0.29103117192E+02  0.00000000000E+00 0. -1.
</event>
<event>
 5    1  0.1751027E-003  0.9118800E+02  0.7818608E-02  0.1130116E+00
         25   -1    0    0    0    0  0.00000000000E+00  0.00000000000E+00  0.99999998245E-14  0.12500000000E+03  0.12500000000E+03 0.  0.
        -13    1    3    3    0    0 -0.22723804803E+02  0.38001087518E+02  0.42322961586E+02  0.61251107735E+02  0.10566000000E+00 0.  1.
         23    2    1    0    0    0 -0.21353419436E+02  0.32601189825E+02  0.26910514802E+02  0.77639870075E+02  0.61522089681E+02 0.  0.
         13    1    3    3    0    0  0.13703853670E+01 -0.53998976930E+01 -0.15412446784E+02  0.16388762340E+02  0.10566000000E+00 0. -1.
         22    1    1    0    0    0  0.21353419436E+02 -0.32601189825E+02 -0.26910514802E+02  0.47360129925E+02  0.00000000000E+00 0.  1.
</event>
<event>
 5    1  0.1751027E-003  0.9118800E+02  0.7818608E-02  0.1130116E+00
         25   -1    0    0    0    0  0.00000000000E+00  0.00000000000E+00  0.99999998245E-14  0.12500000000E+03  0.12500000000E+03 0.  0.
        -13    1    3    3    0    0  0.22246193602E+02 -0.37336954803E+02  0.38544451336E+02  0.58091541696E+02  0.10566000000E+00 0. -1.
         23    2    1    0    0    0  0.19014022173E+02 -0.34563233093E+01  0.21278928032E+02  0.96255052823E+02  0.91862741119E+02 0.  0.
         13    1    3    3    0    0 -0.32321714295E+01  0.33880631494E+02 -0.17265523304E+02  0.38163511127E+02  0.10566000000E+00 0.  1.
         22    1    1    0    0    0 -0.19014022173E+02  0.34563233093E+01 -0.21278928032E+02  0.28744947177E+02  0.00000000000E+00 0. -1.
</event>
<event>
 5    1  0.1751027E-003  0.9118800E+02  0.7818608E-02  0.1130116E+00
         25   -1    0    0    0    0  0.00000000000E+00  0.00000000000E+00  0.99999998245E-14  0.12500000000E+03  0.12500000000E+03 0.  0.
        -13    1    3    3    0    0  0.21456888749E+02  0.49017551508E+02  0.17843744135E+02  0.56405042323E+02  0.10566000000E+00 0. -1.
         23    2    1    0    0    0  0.46394809663E+01  0.12841311143E+02  0.24597579756E+02  0.96867012506E+02  0.92691710128E+02 0.  0.
         13    1    3    3    0    0 -0.16817407783E+02 -0.36176240365E+02  0.67538356202E+01  0.40461970183E+02  0.10566000000E+00 0.  1.
         22    1    1    0    0    0 -0.46394809663E+01 -0.12841311143E+02 -0.24597579756E+02  0.28132987494E+02  0.00000000000E+00 0. -1.
</event>
<event>
 5    1  0.1751027E-003  0.9118800E+02  0.7818608E-02  0.1130116E+00
         25   -1    0    0    0    0  0.00000000000E+00  0.00000000000E+00  0.99999998245E-14  0.12500000000E+03  0.12500000000E+03 0.  0.
        -13    1    3    3    0    0  0.55014254317E+02 -0.60835957531E+01  0.19695205734E+02  0.58749388153E+02  0.10566000000E+00 0.  1.
         23    2    1    0    0    0  0.30070141345E+02 -0.73228117894E+01 -0.47404095546E+01  0.93690122074E+02  0.88303626870E+02 0.  0.
         13    1    3    3    0    0 -0.24944112972E+02 -0.12392160363E+01 -0.24435615289E+02  0.34940733921E+02  0.10566000000E+00 0. -1.
         22    1    1    0    0    0 -0.30070141345E+02  0.73228117894E+01  0.47404095546E+01  0.31309877926E+02  0.00000000000E+00 0. -1.
</event>
<event>
 5    1  0.1751027E-003  0.9118800E+02  0.7818608E-02  0.1130116E+00
         25   -1    0    0    0    0  0.00000000000E+00  0.00000000000E+00  0.99999998245E-14  0.12500000000E+03  0.12500000000E+03 0.  0.
        -13    1    3    3    0    0  0.21052985198E+02  0.25100666589E+02 -0.51462577704E+02  0.61005571196E+02  0.10566000000E+00 0. -1.
         23    2    1    0    0    0  0.79708089971E+01  0.25457701841E+01 -0.26904934498E+02  0.96823942039E+02  0.92633608964E+02 0.  0.
         13    1    3    3    0    0 -0.13082176201E+02 -0.22554896405E+02  0.24557643206E+02  0.35818370843E+02  0.10566000000E+00 0.  1.
         22    1    1    0    0    0 -0.79708089971E+01 -0.25457701841E+01  0.26904934498E+02  0.28176057961E+02  0.00000000000E+00 0. -1.
</event>
<event>
 5    1  0.1751027E-003  0.9118800E+02  0.7818608E-02  0.1130116E+00
         25   -1    0    0    0    0  0.00000000000E+00  0.00000000000E+00  0.99999998245E-14  0.12500000000E+03  0.12500000000E+03 0.  0.
        -13    1    3    3    0    0  0.76256884295E+01  0.30241287482E+02  0.30368136752E+02  0.43530695910E+02  0.10566000000E+00 0.  1.
         23    2    1    0    0    0 -0.28512276943E+01 -0.19701710377E+02  0.22151001700E+02  0.95218230955E+02  0.90440907441E+02 0.  0.
         13    1    3    3    0    0 -0.10476916124E+02 -0.49942997858E+02 -0.82171350525E+01  0.51687535045E+02  0.10566000000E+00 0. -1.
         22    1    1    0    0    0  0.28512276943E+01  0.19701710377E+02 -0.22151001700E+02  0.29781769045E+02  0.00000000000E+00 0. -1.
</event>
<event>
 5    1  0.1751027E-003  0.9118800E+02  0.7818608E-02  0.1130116E+00
         25   -1    0    0    0    0  0.00000000000E+00  0.00000000000E+00  0.99999998245E-14  0.12500000000E+03  0.12500000000E+03 0.  0.
        -13    1    3    3    0    0  0.46424245770E+01  0.31131377773E+02  0.33978294750E+02  0.46316848621E+02  0.10566000000E+00 0. -1.
         23    2    1    0    0    0 -0.27674134002E+02  0.35288849532E+01  0.86520897798E+01  0.95790936692E+02  0.91229020454E+02 0.  0.
         13    1    3    3    0    0 -0.32316558579E+02 -0.27602492819E+02 -0.25326204971E+02  0.49474088071E+02  0.10566000000E+00 0.  1.
         22    1    1    0    0    0  0.27674134002E+02 -0.35288849532E+01 -0.86520897798E+01  0.29209063308E+02  0.00000000000E+00 0.  1.
</event>
<event>
 5    1  0.1751027E-003  0.9118800E+02  0.7818608E-02  0.1130116E+00
         25   -1    0    0    0    0  0.00000000000E+00  0.00000000000E+00  0.99999998245E-14  0.12500000000E+03  0.12500000000E+03 0.  0.
        -13    1    3    3    0    0  0.16434214889E+02  0.40321348214E+02  0.32339015656E+01  0.43661926483E+02  0.10566000000E+00 0. -1.
         23    2    1    0    0    0  0.14457247489E+02 -0.59429440405E+01  0.25536374528E+02  0.95059442008E+02  0.90221175463E+02 0.  0.
         13    1    3    3    0    0 -0.19769674004E+01 -0.46264292254E+02  0.22302472963E+02  0.51397515525E+02  0.10566000000E+00 0.  1.
         22    1    1    0    0    0 -0.14457247489E+02  0.59429440405E+01 -0.25536374528E+02  0.29940557992E+02  0.00000000000E+00 0. -1.
</event>
<event>
 5    1  0.1751027E-003  0.9118800E+02  0.7818608E-02  0.1130116E+00
         25   -1    0    0    0    0  0.00000000000E+00  0.00000000000E+00  0.99999998245E-14  0.12500000000E+03  0.12500000000E+03 0.  0.
        -13    1    3    3    0    0 -0.76400234497E+01 -0.45072835130E+02 -0.14457558472E+02  0.47947498224E+02  0.10566000000E+00 0.  1.
         23    2    1    0    0    0 -0.28843521894E+02 -0.39113186070E+01 -0.23996522725E+01  0.95793742117E+02  0.91232864305E+02 0.  0.
         13    1    3    3    0    0 -0.21203498444E+02  0.41161516523E+02  0.12057906200E+02  0.47846243893E+02  0.10566000000E+00 0. -1.
         22    1    1    0    0    0  0.28843521894E+02  0.39113186070E+01  0.23996522725E+01  0.29206257883E+02  0.00000000000E+00 0. -1.
</event>
<event>
 5    1  0.1751027E-003  0.9118800E+02  0.7818608E-02  0.1130116E+00
         25   -1    0    0    0    0  0.00000000000E+00  0.00000000000E+00  0.99999998245E-14  0.12500000000E+03  0.12500000000E+03 0.  0.
        -13    1    3    3    0    0  0.25506889997E+01 -0.55302156018E+02 -0.17741862735E+02  0.58134493478E+02  0.10566000000E+00 0.  1.
         23    2    1    0    0    0  0.17373923604E+02 -0.27455197563E+02 -0.51388470741E+01  0.92105489152E+02  0.86031228563E+02 0.  0.
         13    1    3    3    0    0  0.14823234605E+02  0.27846958455E+02  0.12603015661E+02  0.33970995674E+02  0.10566000000E+00 0. -1.
         22    1    1    0    0    0 -0.17373923604E+02  0.27455197563E+02  0.51388470741E+01  0.32894510848E+02  0.00000000000E+00 0.  1.
</event>
<event>
 5    1  0.1751027E-003  0.9118800E+02  0.7818608E-02  0.1130116E+00
         25   -1    0    0    0    0  0.00000000000E+00  0.00000000000E+00  0.99999998245E-14  0.12500000000E+03  0.12500000000E+03 0.  0.
        -13    1    3    3    0    0  0.23429625087E+02 -0.82741119827E+01  0.50277707885E+02  0.56082683023E+02  0.10566000000E+00 0.  1.
         23    2    1    0    0    0  0.24263640425E+02  0.83997947261E+01  0.14625446627E+02  0.95450304788E+02  0.90761094071E+02 0.  0.
         13    1    3    3    0    0  0.83401533752E+00  0.16673906709E+02 -0.35652261258E+02  0.39367621764E+02  0.10566000000E+00 0. -1.
         22    1    1    0    0    0 -0.24263640425E+02 -0.83997947261E+01 -0.14625446627E+02  0.29549695212E+02  0.00000000000E+00 0.  1.
</event>
<event>
 5    1  0.1751027E-003  0.9118800E+02  0.7818608E-02  0.1130116E+00
         25   -1    0    0    0    0  0.00000000000E+00  0.00000000000E+00  0.99999998245E-14  0.12500000000E+03  0.12500000000E+03 0.  0.
        -13    1    3    3    0    0 -0.19350323493E+02 -0.34268022301E+02 -0.77034272600E+01  0.40100951701E+02  0.10566000000E+00 0. -1.
         23    2    1    0    0    0  0.76500691181E+01  0.40428354009E+01  0.25848351819E+02  0.97741875205E+02  0.93864097509E+02 0.  0.
         13    1    3    3    0    0  0.27000392611E+02  0.38310857702E+02  0.33551779079E+02  0.57640923504E+02  0.10566000000E+00 0.  1.
         22    1    1    0    0    0 -0.76500691181E+01 -0.40428354009E+01 -0.25848351819E+02  0.27258124795E+02  0.00000000000E+00 0.  1.
</event>
<event>
 5    1  0.1751027E-003  0.9118800E+02  0.7818608E-02  0.1130116E+00
         25   -1    0    0    0    0  0.00000000000E+00  0.00000000000E+00  0.99999998245E-14  0.12500000000E+03  0.12500000000E+03 0.  0.
        -13    1    3    3    0    0 -0.18275318508E+02  0.44700357560E+02  0.15933977610E+02  0.50852846912E+02  0.10566000000E+00 0. -1.
         23    2    1    0    0    0 -0.22280730097E+02  0.14348793908E+00  0.19032419217E+02  0.95696681013E+02  0.91099781850E+02 0.  0.
         13    1    3    3    0    0 -0.40054115884E+01 -0.44556869621E+02  0.30984416071E+01  0.44843834100E+02  0.10566000000E+00 0.  1.
         22    1    1    0    0    0  0.22280730097E+02 -0.14348793908E+00 -0.19032419217E+02  0.29303318987E+02  0.00000000000E+00 0. -1.
</event>
<event>
 5    1  0.1751027E-003  0.9118800E+02  0.7818608E-02  0.1130116E+00
         25   -1    0    0    0    0  0.00000000000E+00  0.00000000000E+00  0.99999998245E-14  0.12500000000E+03  0.12500000000E+03 0.  0.
        -13    1    3    3    0    0 -0.65774964812E+01  0.39108560405E+01  0.31929049406E+02  0.32833422224E+02  0.10566000000E+00 0.  1.
         23    2    1    0    0    0 -0.11854706704E+02  0.33894292474E+01 -0.28736330297E+02  0.93730222568E+02  0.88360373710E+02 0.  0.
         13    1    3    3    0    0 -0.52772102227E+01 -0.52142679307E+00 -0.60665379703E+02  0.60896800345E+02  0.10566000000E+00 0. -1.
         22    1    1    0    0    0  0.11854706704E+02 -0.33894292474E+01  0.28736330297E+02  0.31269777432E+02  0.00000000000E+00 0. -1.
</event>
<event>
 5    1  0.1751027E-003  0.9118800E+02  0.7818608E-02  0.1130116E+00
         25   -1    0    0    0    0  0.00000000000E+00  0.00000000000E+00  0.99999998245E-14  0.12500000000E+03  0.12500000000E+03 0.  0.
        -13    1    3    3    0    0  0.25815578279E+02  0.18815210307E+01 -0.56582849174E+02  0.62222296550E+02  0.10566000000E+00 0.  1.
         23    2    1    0    0    0  0.83312777302E+01  0.39273057556E+00 -0.28207200909E+02  0.95585537417E+02  0.90947151436E+02 0.  0.
         13    1    3    3    0    0 -0.17484300549E+02 -0.14887904551E+01  0.28375648265E+02  0.33363240867E+02  0.10566000000E+00 0. -1.
         22    1    1    0    0    0 -0.83312777302E+01 -0.39273057556E+00  0.28207200909E+02  0.29414462583E+02  0.00000000000E+00 0.  1.
</event>
<event>
 5    1  0.1751027E-003  0.9118800E+02  0.7818608E-02  0.1130116E+00
         25   -1    0    0    0    0  0.00000000000E+00  0.00000000000E+00  0.99999998245E-14  0.12500000000E+03  0.12500000000E+03 0.  0.
        -13    1    3    3    0    0  0.13793773824E+02 -0.42538365105E+02  0.24798900571E+02  0.51134893524E+02  0.10566000000E+00 0.  1.
         23    2    1    0    0    0 -0.14781578645E+02 -0.25419923281E+02 -0.41956568775E+01  0.95296951276E+02  0.90549642843E+02 0.  0.
         13    1    3    3    0    0 -0.28575352469E+02  0.17118441824E+02 -0.28994557449E+02  0.44162057752E+02  0.10566000000E+00 0. -1.
         22    1    1    0    0    0  0.14781578645E+02  0.25419923281E+02  0.41956568775E+01  0.29703048724E+02  0.00000000000E+00 0.  1.
</event>
<event>
 5    1  0.1751027E-003  0.9118800E+02  0.7818608E-02  0.1130116E+00
         25   -1    0    0    0    0  0.00000000000E+00  0.00000000000E+00  0.99999998245E-14  0.12500000000E+03  0.12500000000E+03 0.  0.
        -13    1    3    3    0    0 -0.56053904321E+02  0.99169670088E+01  0.80812705239E+01  0.57495256513E+02  0.10566000000E+00 0. -1.
         23    2    1    0    0    0 -0.25344112337E+02 -0.11067153187E+02 -0.49476717690E+01  0.96905777004E+02  0.92743971508E+02 0.  0.
         13    1    3    3    0    0  0.30709791984E+02 -0.20984120195E+02 -0.13028942293E+02  0.39410520491E+02  0.10566000000E+00 0.  1.
         22    1    1    0    0    0  0.25344112337E+02  0.11067153187E+02  0.49476717690E+01  0.28094222996E+02  0.00000000000E+00 0. -1.
</event>
<event>
 5    1  0.1751027E-003  0.9118800E+02  0.7818608E-02  0.1130116E+00
         25   -1    0    0    0    0  0.00000000000E+00  0.00000000000E+00  0.99999998245E-14  0.12500000000E+03  0.12500000000E+03 0.  0.
        -13    1    3    3    0    0 -0.10630826960E+02 -0.40378018121E+02 -0.20292427501E+01  0.41803442674E+02  0.10566000000E+00 0.  1.
         23    2    1    0    0    0  0.29424070383E+02 -0.56140739046E+01  0.18927992385E+01  0.94985396343E+02  0.90118527983E+02 0.  0.
         13    1    3    3    0    0  0.40054897343E+02  0.34763944217E+02  0.39220419887E+01  0.53181953669E+02  0.10566000000E+00 0. -1.
         22    1    1    0    0    0 -0.29424070383E+02  0.56140739046E+01 -0.18927992385E+01  0.30014603657E+02  0.00000000000E+00 0. -1.
</event>
<event>
 5    1  0.1751027E-003  0.9118800E+02  0.7818608E-02  0.1130116E+00
         25   -1    0    0    0    0  0.00000000000E+00  0.00000000000E+00  0.99999998245E-14  0.12500000000E+03  0.12500000000E+03 0.  0.
        -13    1    3    3    0    0 -0.27451797272E+01 -0.26159456867E+02  0.44602052169E+02  0.51780376756E+02  0.10566000000E+00 0.  1.
         23    2    1    0    0    0 -0.77938869117E+01 -0.27403958670E+02  0.17711137217E+00  0.96508720765E+02  0.92207267562E+02 0.  0.
         13    1    3    3    0    0 -0.50487071845E+01 -0.12445018032E+01 -0.44424940796E+02  0.44728344009E+02  0.10566000000E+00 0. -1.
         22    1    1    0    0    0  0.77938869117E+01  0.27403958670E+02 -0.17711137217E+00  0.28491279235E+02  0.00000000000E+00 0.  1.
</event>
<event>
 5    1  0.1751027E-003  0.9118800E+02  0.7818608E-02  0.1130116E+00
         25   -1    0    0    0    0  0.00000000000E+00  0.00000000000E+00  0.99999998245E-14  0.12500000000E+03  0.12500000000E+03 0.  0.
        -13    1    3    3    0    0 -0.23146406558E+01  0.27330806560E+02  0.46610290374E+02  0.54081982965E+02  0.10566000000E+00 0. -1.
         23    2    1    0    0    0 -0.86503871778E+01 -0.87668978451E+01  0.26242687620E+02  0.96010927064E+02  0.91529950104E+02 0.  0.
         13    1    3    3    0    0 -0.63357465221E+01 -0.36097704405E+02 -0.20367602754E+02  0.41928944100E+02  0.10566000000E+00 0.  1.
         22    1    1    0    0    0  0.86503871778E+01  0.87668978451E+01 -0.26242687620E+02  0.28989072936E+02  0.00000000000E+00 0. -1.
</event>
<event>
 5    1  0.1751027E-003  0.9118800E+02  0.7818608E-02  0.1130116E+00
         25   -1    0    0    0    0  0.00000000000E+00  0.00000000000E+00  0.99999998245E-14  0.12500000000E+03  0.12500000000E+03 0.  0.
        -13    1    3    3    0    0 -0.38284469241E+02  0.20351404770E+02  0.15585076493E+02  0.46073702201E+02  0.10566000000E+00 0. -1.
         23    2    1    0    0    0  0.56685445313E+01  0.27621881909E+02 -0.68909018074E+01  0.95972680368E+02  0.91477702705E+02 0.  0.
         13    1    3    3    0    0  0.43953013773E+02  0.72704771387E+01 -0.22475978300E+02  0.49898978167E+02  0.10566000000E+00 0.  1.
         22    1    1    0    0    0 -0.56685445313E+01 -0.27621881909E+02  0.68909018074E+01  0.29027319632E+02  0.00000000000E+00 0.  1.
</event>
<event>
 5    1  0.1751027E-003  0.9118800E+02  0.7818608E-02  0.1130116E+00
         25   -1    0    0    0    0  0.00000000000E+00  0.00000000000E+00  0.99999998245E-14  0.12500000000E+03  0.12500000000E+03 0.  0.
        -13    1    3    3    0    0 -0.72026007808E+01  0.75764183161E+01 -0.39088457434E+02  0.40462306424E+02  0.10566000000E+00 0.  1.
         23    2    1    0    0    0 -0.14507707691E+02  0.18491738697E+02  0.15655380332E+02  0.96759799649E+02  0.92547014605E+02 0.  0.
         13    1    3    3    0    0 -0.73051069103E+01  0.10915320381E+02  0.54743837767E+02  0.56297493225E+02  0.10566000000E+00 0. -1.
         22    1    1    0    0    0  0.14507707691E+02 -0.18491738697E+02 -0.15655380332E+02  0.28240200351E+02  0.00000000000E+00 0. -1.
</event>
<event>
 5    1  0.1751027E-003  0.9118800E+02  0.7818608E-02  0.1130116E+00
         25   -1    0    0    0    0  0.00000000000E+00  0.00000000000E+00  0.99999998245E-14  0.12500000000E+03  0.12500000000E+03 0.  0.
        -13    1    3    3    0    0 -0.11233405611E+02 -0.22750387428E+02  0.48471167223E+02  0.54710462854E+02  0.10566000000E+00 0. -1.
         23    2    1    0    0    0 -0.17348745221E+01  0.11181125401E+02  0.26371901737E+02  0.96303230913E+02  0.91928274911E+02 0.  0.
         13    1    3    3    0    0  0.94985310891E+01  0.33931512828E+02 -0.22099265486E+02  0.41592768058E+02  0.10566000000E+00 0.  1.
         22    1    1    0    0    0  0.17348745221E+01 -0.11181125401E+02 -0.26371901737E+02  0.28696769087E+02  0.00000000000E+00 0. -1.
</event>
<event>
 5    1  0.1751027E-003  0.9118800E+02  0.7818608E-02  0.1130116E+00
         25   -1    0    0    0    0  0.00000000000E+00  0.00000000000E+00  0.99999998245E-14  0.12500000000E+03  0.12500000000E+03 0.  0.
        -13    1    3    3    0    0  0.53829041324E+02  0.77120712718E+01  0.12433730318E+02  0.55782170511E+02  0.10566000000E+00 0. -1.
         23    2    1    0    0    0  0.84103345908E+01  0.51261274777E+00 -0.13878733189E+02  0.10876375244E+03  0.10754505154E+03 0.  0.
         13    1    3    3    0    0 -0.45418706734E+02 -0.71994585240E+01 -0.26312463507E+02  0.52981581934E+02  0.10566000000E+00 0.  1.
         22    1    1    0    0    0 -0.84103345908E+01 -0.51261274777E+00  0.13878733189E+02  0.16236247555E+02  0.00000000000E+00 0. -1.
</event>
<event>
 5    1  0.1751027E-003  0.9118800E+02  0.7818608E-02  0.1130116E+00
         25   -1    0    0    0    0  0.00000000000E+00  0.00000000000E+00  0.99999998245E-14  0.12500000000E+03  0.12500000000E+03 0.  0.
        -13    1    3    3    0    0  0.11128722752E+02 -0.50717639527E+02 -0.17840099652E+02  0.54903622366E+02  0.10566000000E+00 0. -1.
         23    2    1    0    0    0  0.11390814685E+02 -0.11123015355E+02 -0.25214212640E+02  0.95180062897E+02  0.90388139290E+02 0.  0.
         13    1    3    3    0    0  0.26209193297E+00  0.39594624172E+02 -0.73741129876E+01  0.40276440531E+02  0.10566000000E+00 0.  1.
         22    1    1    0    0    0 -0.11390814685E+02  0.11123015355E+02  0.25214212640E+02  0.29819937103E+02  0.00000000000E+00 0. -1.
</event>
<event>
 5    1  0.1751027E-003  0.9118800E+02  0.7818608E-02  0.1130116E+00
         25   -1    0    0    0    0  0.00000000000E+00  0.00000000000E+00  0.99999998245E-14  0.12500000000E+03  0.12500000000E+03 0.  0.
        -13    1    3    3    0    0 -0.28181082694E+02  0.12242234471E+01 -0.21888279715E+02  0.35704062762E+02  0.10566000000E+00 0.  1.
         23    2    1    0    0    0  0.24200432722E+02 -0.13552649657E+02  0.56394788190E+01  0.96695601437E+02  0.92460263677E+02 0.  0.
         13    1    3    3    0    0  0.52381515416E+02 -0.14776873104E+02  0.27527758534E+02  0.60991538675E+02  0.10566000000E+00 0. -1.
         22    1    1    0    0    0 -0.24200432722E+02  0.13552649657E+02 -0.56394788190E+01  0.28304398563E+02  0.00000000000E+00 0. -1.
</event>
<event>
 5    1  0.1751027E-003  0.9118800E+02  0.7818608E-02  0.1130116E+00
         25   -1    0    0    0    0  0.00000000000E+00  0.00000000000E+00  0.99999998245E-14  0.12500000000E+03  0.12500000000E+03 0.  0.
        -13    1    3    3    0    0  0.99679664621E+01 -0.36225835699E+01  0.33614187847E+02  0.35247812070E+02  0.10566000000E+00 0. -1.
         23    2    1    0    0    0  0.73930734253E+01  0.23130301067E+02 -0.18892317899E+02  0.94233329109E+02  0.89069255510E+02 0.  0.
         13    1    3    3    0    0 -0.25748930367E+01  0.26752884637E+02 -0.52506505746E+02  0.58985517038E+02  0.10566000000E+00 0.  1.
         22    1    1    0    0    0 -0.73930734253E+01 -0.23130301067E+02  0.18892317899E+02  0.30766670891E+02  0.00000000000E+00 0.  1.
</event>
<event>
 5    1  0.1751027E-003  0.9118800E+02  0.7818608E-02  0.1130116E+00
         25   -1    0    0    0    0  0.00000000000E+00  0.00000000000E+00  0.99999998245E-14  0.12500000000E+03  0.12500000000E+03 0.  0.
        -13    1    3    3    0    0 -0.85405944086E+01  0.31318294078E+02 -0.85471092030E+01  0.33568460444E+02  0.10566000000E+00 0. -1.
         23    2    1    0    0    0  0.95719482216E+01 -0.27693401032E+02 -0.29806315644E+01  0.95547821506E+02  0.90895298980E+02 0.  0.
         13    1    3    3    0    0  0.18112542630E+02 -0.59011695111E+02  0.55664776386E+01  0.61979361062E+02  0.10566000000E+00 0.  1.
         22    1    1    0    0    0 -0.95719482216E+01  0.27693401032E+02  0.29806315644E+01  0.29452178494E+02  0.00000000000E+00 0.  1.
</event>
<event>
 5    1  0.1751027E-003  0.9118800E+02  0.7818608E-02  0.1130116E+00
         25   -1    0    0    0    0  0.00000000000E+00  0.00000000000E+00  0.99999998245E-14  0.12500000000E+03  0.12500000000E+03 0.  0.
        -13    1    3    3    0    0  0.18366880224E+02  0.43101151122E+02  0.10266687329E+02  0.47963189531E+02  0.10566000000E+00 0.  1.
         23    2    1    0    0    0  0.26534966946E+02 -0.42841445043E+01 -0.32870733992E+01  0.97921166634E+02  0.94102559255E+02 0.  0.
         13    1    3    3    0    0  0.81680867217E+01 -0.47385295626E+02 -0.13553760728E+02  0.49957977103E+02  0.10566000000E+00 0. -1.
         22    1    1    0    0    0 -0.26534966946E+02  0.42841445043E+01  0.32870733992E+01  0.27078833366E+02  0.00000000000E+00 0. -1.
</event>
<event>
 5    1  0.1751027E-003  0.9118800E+02  0.7818608E-02  0.1130116E+00
         25   -1    0    0    0    0  0.00000000000E+00  0.00000000000E+00  0.99999998245E-14  0.12500000000E+03  0.12500000000E+03 0.  0.
        -13    1    3    3    0    0 -0.46460580538E+02 -0.35481837551E+01 -0.41405782502E+02  0.62334782750E+02  0.10566000000E+00 0. -1.
         23    2    1    0    0    0 -0.22291409197E+02  0.14096460284E+01 -0.18585338575E+02  0.95943007109E+02  0.91437146594E+02 0.  0.
         13    1    3    3    0    0  0.24169171341E+02  0.49578297835E+01  0.22820443927E+02  0.33608224359E+02  0.10566000000E+00 0.  1.
         22    1    1    0    0    0  0.22291409197E+02 -0.14096460284E+01  0.18585338575E+02  0.29056992891E+02  0.00000000000E+00 0. -1.
</event>
<event>
 5    1  0.1751027E-003  0.9118800E+02  0.7818608E-02  0.1130116E+00
         25   -1    0    0    0    0  0.00000000000E+00  0.00000000000E+00  0.99999998245E-14  0.12500000000E+03  0.12500000000E+03 0.  0.
        -13    1    3    3    0    0  0.10778570100E+02 -0.28578820934E+02  0.20299805266E+02  0.36674512093E+02  0.10566000000E+00 0.  1.
         23    2    1    0    0    0  0.48364588115E+01  0.36418025135E+01 -0.28727204728E+02  0.95641758382E+02  0.91024390114E+02 0.  0.
         13    1    3    3    0    0 -0.59421112890E+01  0.32220623448E+02 -0.49027009994E+02  0.58967246289E+02  0.10566000000E+00 0. -1.
         22    1    1    0    0    0 -0.48364588115E+01 -0.36418025135E+01  0.28727204728E+02  0.29358241618E+02  0.00000000000E+00 0. -1.
</event>
<event>
 5    1  0.1751027E-003  0.9118800E+02  0.7818608E-02  0.1130116E+00
         25   -1    0    0    0    0  0.00000000000E+00  0.00000000000E+00  0.99999998245E-14  0.12500000000E+03  0.12500000000E+03 0.  0.
        -13    1    3    3    0    0 -0.13382054340E+02 -0.45819102460E+02 -0.23260145538E+02  0.53099106047E+02  0.10566000000E+00 0. -1.
         23    2    1    0    0    0 -0.25963972890E+02 -0.10461920272E+02 -0.47534532496E+00  0.97003471336E+02  0.92875550249E+02 0.  0.
         13    1    3    3    0    0 -0.12581918551E+02  0.35357182188E+02  0.22784800213E+02  0.43904365289E+02  0.10566000000E+00 0.  1.
         22    1    1    0    0    0  0.25963972890E+02  0.10461920272E+02  0.47534532496E+00  0.27996528664E+02  0.00000000000E+00 0. -1.
</event>
<event>
 5    1  0.1751027E-003  0.9118800E+02  0.7818608E-02  0.1130116E+00
         25   -1    0    0    0    0  0.00000000000E+00  0.00000000000E+00  0.99999998245E-14  0.12500000000E+03  0.12500000000E+03 0.  0.
        -13    1    3    3    0    0  0.10264368571E+02  0.39127538290E+02  0.13475333132E+02  0.42637041195E+02  0.10566000000E+00 0.  1.
         23    2    1    0    0    0  0.23816875870E+02 -0.18322717388E+01 -0.17191609020E+02  0.95569535909E+02  0.90925155909E+02 0.  0.
         13    1    3    3    0    0  0.13552507299E+02 -0.40959810028E+02 -0.30666942152E+02  0.52932494714E+02  0.10566000000E+00 0. -1.
         22    1    1    0    0    0 -0.23816875870E+02  0.18322717388E+01  0.17191609020E+02  0.29430464091E+02  0.00000000000E+00 0. -1.
</event>
<event>
 5    1  0.1751027E-003  0.9118800E+02  0.7818608E-02  0.1130116E+00
         25   -1    0    0    0    0  0.00000000000E+00  0.00000000000E+00  0.99999998245E-14  0.12500000000E+03  0.12500000000E+03 0.  0.
        -13    1    3    3    0    0  0.13796340731E+02 -0.41491732581E+02  0.43032127283E+02  0.61348822586E+02  0.10566000000E+00 0. -1.
         23    2    1    0    0    0  0.12805433729E+02 -0.12803101525E+02  0.14774185538E+02  0.10162961062E+03  0.98906029412E+02 0.  0.
         13    1    3    3    0    0 -0.99090700203E+00  0.28688631057E+02 -0.28257941746E+02  0.40280788030E+02  0.10566000000E+00 0.  1.
         22    1    1    0    0    0 -0.12805433729E+02  0.12803101525E+02 -0.14774185538E+02  0.23370389384E+02  0.00000000000E+00 0. -1.
</event>
<event>
 5    1  0.1751027E-003  0.9118800E+02  0.7818608E-02  0.1130116E+00
         25   -1    0    0    0    0  0.00000000000E+00  0.00000000000E+00  0.99999998245E-14  0.12500000000E+03  0.12500000000E+03 0.  0.
        -13    1    3    3    0    0 -0.20881239873E+02  0.42248783839E+02 -0.13118666873E+02  0.48919285553E+02  0.10566000000E+00 0.  1.
         23    2    1    0    0    0 -0.28358124978E+02 -0.34612036807E+01 -0.35912660365E+01  0.96206591468E+02  0.91796774818E+02 0.  0.
         13    1    3    3    0    0 -0.74768851044E+01 -0.45709987520E+02  0.95274008363E+01  0.47287305914E+02  0.10566000000E+00 0. -1.
         22    1    1    0    0    0  0.28358124978E+02  0.34612036807E+01  0.35912660365E+01  0.28793408532E+02  0.00000000000E+00 0. -1.
</event>
<event>
 5    1  0.1751027E-003  0.9118800E+02  0.7818608E-02  0.1130116E+00
         25   -1    0    0    0    0  0.00000000000E+00  0.00000000000E+00  0.99999998245E-14  0.12500000000E+03  0.12500000000E+03 0.  0.
        -13    1    3    3    0    0  0.18535500472E+02 -0.24048160628E+02 -0.11757797868E+02  0.32559726382E+02  0.10566000000E+00 0.  1.
         23    2    1    0    0    0 -0.12530613298E+02  0.21553258084E+02  0.17041409463E+02  0.94801178167E+02  0.89862642637E+02 0.  0.
         13    1    3    3    0    0 -0.31066113770E+02  0.45601418712E+02  0.28799207331E+02  0.62241451784E+02  0.10566000000E+00 0. -1.
         22    1    1    0    0    0  0.12530613298E+02 -0.21553258084E+02 -0.17041409463E+02  0.30198821833E+02  0.00000000000E+00 0. -1.
</event>
<event>
 5    1  0.1751027E-003  0.9118800E+02  0.7818608E-02  0.1130116E+00
         25   -1    0    0    0    0  0.00000000000E+00  0.00000000000E+00  0.99999998245E-14  0.12500000000E+03  0.12500000000E+03 0.  0.
        -13    1    3    3    0    0  0.48281515249E+02  0.10904390298E+02 -0.38038831477E+02  0.62425750350E+02  0.10566000000E+00 0.  1.
         23    2    1    0    0    0  0.24403840634E+02  0.37013524433E+01 -0.20473444985E+02  0.92931177179E+02  0.87222670761E+02 0.  0.
         13    1    3    3    0    0 -0.23877674616E+02 -0.72030378542E+01  0.17565386492E+02  0.30505426829E+02  0.10566000000E+00 0. -1.
         22    1    1    0    0    0 -0.24403840634E+02 -0.37013524433E+01  0.20473444985E+02  0.32068822821E+02  0.00000000000E+00 0.  1.
</event>
<event>
 5    1  0.1751027E-003  0.9118800E+02  0.7818608E-02  0.1130116E+00
         25   -1    0    0    0    0  0.00000000000E+00  0.00000000000E+00  0.99999998245E-14  0.12500000000E+03  0.12500000000E+03 0.  0.
        -13    1    3    3    0    0  0.23899044845E+02  0.25986852433E+02  0.22656639224E+02  0.41950152668E+02  0.10566000000E+00 0. -1.
         23    2    1    0    0    0  0.96986632643E+01 -0.24761323433E+02  0.12491869097E+02  0.95619155887E+02  0.90993345755E+02 0.  0.
         13    1    3    3    0    0 -0.14200381581E+02 -0.50748175866E+02 -0.10164770127E+02  0.53669003219E+02  0.10566000000E+00 0.  1.
         22    1    1    0    0    0 -0.96986632643E+01  0.24761323433E+02 -0.12491869097E+02  0.29380844113E+02  0.00000000000E+00 0. -1.
</event>
<event>
 5    1  0.1751027E-003  0.9118800E+02  0.7818608E-02  0.1130116E+00
         25   -1    0    0    0    0  0.00000000000E+00  0.00000000000E+00  0.99999998245E-14  0.12500000000E+03  0.12500000000E+03 0.  0.
        -13    1    3    3    0    0 -0.30988277087E+02  0.39057786912E+02  0.34611302999E+02  0.60693801121E+02  0.10566000000E+00 0.  1.
         23    2    1    0    0    0 -0.15784367986E+02  0.15866343189E+02  0.35385452308E+01  0.10234148237E+03  0.99801656259E+02 0.  0.
         13    1    3    3    0    0  0.15203909101E+02 -0.23191443723E+02 -0.31072757768E+02  0.41647681247E+02  0.10566000000E+00 0. -1.
         22    1    1    0    0    0  0.15784367986E+02 -0.15866343189E+02 -0.35385452308E+01  0.22658517632E+02  0.00000000000E+00 0.  1.
</event>
<event>
 5    1  0.1751027E-003  0.9118800E+02  0.7818608E-02  0.1130116E+00
         25   -1    0    0    0    0  0.00000000000E+00  0.00000000000E+00  0.99999998245E-14  0.12500000000E+03  0.12500000000E+03 0.  0.
        -13    1    3    3    0    0  0.37555692195E+02 -0.23262048919E+02  0.43105010232E+02  0.61722005859E+02  0.10566000000E+00 0.  1.
         23    2    1    0    0    0  0.16847230504E+02 -0.17606386907E+02  0.18306558990E+02  0.94521415098E+02  0.89472642604E+02 0.  0.
         13    1    3    3    0    0 -0.20708461691E+02  0.56556620118E+01 -0.24798451241E+02  0.32799409239E+02  0.10566000000E+00 0. -1.
         22    1    1    0    0    0 -0.16847230504E+02  0.17606386907E+02 -0.18306558990E+02  0.30478584902E+02  0.00000000000E+00 0.  1.
</event>
<event>
 5    1  0.1751027E-003  0.9118800E+02  0.7818608E-02  0.1130116E+00
         25   -1    0    0    0    0  0.00000000000E+00  0.00000000000E+00  0.99999998245E-14  0.12500000000E+03  0.12500000000E+03 0.  0.
        -13    1    3    3    0    0 -0.45485910833E+02 -0.22582698243E+02 -0.54054044875E+00  0.50786314025E+02  0.10566000000E+00 0.  1.
         23    2    1    0    0    0 -0.24102738860E+02  0.15917310005E+02  0.65212949123E+01  0.95388683486E+02  0.90676186904E+02 0.  0.
         13    1    3    3    0    0  0.21383171973E+02  0.38500008249E+02  0.70618353610E+01  0.44602369460E+02  0.10566000000E+00 0. -1.
         22    1    1    0    0    0  0.24102738860E+02 -0.15917310005E+02 -0.65212949123E+01  0.29611316514E+02  0.00000000000E+00 0. -1.
</event>
<event>
 5    1  0.1751027E-003  0.9118800E+02  0.7818608E-02  0.1130116E+00
         25   -1    0    0    0    0  0.00000000000E+00  0.00000000000E+00  0.99999998245E-14  0.12500000000E+03  0.12500000000E+03 0.  0.
        -13    1    3    3    0    0  0.26888914280E+02 -0.58458186220E+01  0.27311252170E+02  0.38769871881E+02  0.10566000000E+00 0.  1.
         23    2    1    0    0    0  0.69007881887E+00 -0.22086158774E+02 -0.19973118076E+02  0.95214096222E+02  0.90435192572E+02 0.  0.
         13    1    3    3    0    0 -0.26198835461E+02 -0.16240340152E+02 -0.47284370247E+02  0.56444224341E+02  0.10566000000E+00 0. -1.
         22    1    1    0    0    0 -0.69007881887E+00  0.22086158774E+02  0.19973118076E+02  0.29785903778E+02  0.00000000000E+00 0. -1.
</event>
<event>
 5    1  0.1751027E-003  0.9118800E+02  0.7818608E-02  0.1130116E+00
         25   -1    0    0    0    0  0.00000000000E+00  0.00000000000E+00  0.99999998245E-14  0.12500000000E+03  0.12500000000E+03 0.  0.
        -13    1    3    3    0    0 -0.52970967591E+02  0.19117908569E+02 -0.12696292125E+02  0.57728890803E+02  0.10566000000E+00 0. -1.
         23    2    1    0    0    0 -0.20510746183E+02  0.20658765757E+02  0.60803082028E+01  0.95260372238E+02  0.90499132921E+02 0.  0.
         13    1    3    3    0    0  0.32460221409E+02  0.15408571885E+01  0.18776600328E+02  0.37531481435E+02  0.10566000000E+00 0.  1.
         22    1    1    0    0    0  0.20510746183E+02 -0.20658765757E+02 -0.60803082028E+01  0.29739627762E+02  0.00000000000E+00 0. -1.
</event>
<event>
 5    1  0.1751027E-003  0.9118800E+02  0.7818608E-02  0.1130116E+00
         25   -1    0    0    0    0  0.00000000000E+00  0.00000000000E+00  0.99999998245E-14  0.12500000000E+03  0.12500000000E+03 0.  0.
        -13    1    3    3    0    0 -0.17421927898E+00 -0.53859479209E+02  0.62423692823E+01  0.54220403829E+02  0.10566000000E+00 0.  1.
         23    2    1    0    0    0 -0.17524643414E+02 -0.12489242357E+02  0.13400235182E+02  0.99649248445E+02  0.96370701519E+02 0.  0.
         13    1    3    3    0    0 -0.17350424135E+02  0.41370236853E+02  0.71578659001E+01  0.45428844617E+02  0.10566000000E+00 0. -1.
         22    1    1    0    0    0  0.17524643414E+02  0.12489242357E+02 -0.13400235182E+02  0.25350751555E+02  0.00000000000E+00 0. -1.
</event>
<event>
 5    1  0.1751027E-003  0.9118800E+02  0.7818608E-02  0.1130116E+00
         25   -1    0    0    0    0  0.00000000000E+00  0.00000000000E+00  0.99999998245E-14  0.12500000000E+03  0.12500000000E+03 0.  0.
        -13    1    3    3    0    0 -0.19747690590E+02 -0.38599657048E+02 -0.24474442886E+02  0.49788696774E+02  0.10566000000E+00 0.  1.
         23    2    1    0    0    0  0.33129908495E+01  0.60840677471E-01 -0.29707888813E+02  0.95107889541E+02  0.90288273797E+02 0.  0.
         13    1    3    3    0    0  0.23060681439E+02  0.38660497725E+02 -0.52334459271E+01  0.45319192767E+02  0.10566000000E+00 0. -1.
         22    1    1    0    0    0 -0.33129908495E+01 -0.60840677471E-01  0.29707888813E+02  0.29892110459E+02  0.00000000000E+00 0.  1.
</event>
<event>
 5    1  0.1751027E-003  0.9118800E+02  0.7818608E-02  0.1130116E+00
         25   -1    0    0    0    0  0.00000000000E+00  0.00000000000E+00  0.99999998245E-14  0.12500000000E+03  0.12500000000E+03 0.  0.
        -13    1    3    3    0    0 -0.39761940650E+02 -0.41610594083E+02  0.76269258302E+01  0.58057166877E+02  0.10566000000E+00 0.  1.
         23    2    1    0    0    0 -0.11095351913E+02 -0.24756471624E+02 -0.10474664913E+02  0.95918935260E+02  0.91404233026E+02 0.  0.
         13    1    3    3    0    0  0.28666588736E+02  0.16854122459E+02 -0.18101590743E+02  0.37861768383E+02  0.10566000000E+00 0. -1.
         22    1    1    0    0    0  0.11095351913E+02  0.24756471624E+02  0.10474664913E+02  0.29081064740E+02  0.00000000000E+00 0.  1.
</event>
<event>
 5    1  0.1751027E-003  0.9118800E+02  0.7818608E-02  0.1130116E+00
         25   -1    0    0    0    0  0.00000000000E+00  0.00000000000E+00  0.99999998245E-14  0.12500000000E+03  0.12500000000E+03 0.  0.
        -13    1    3    3    0    0 -0.13334529853E+02 -0.14242105131E+02 -0.27424531022E+02  0.33656549300E+02  0.10566000000E+00 0. -1.
         23    2    1    0    0    0  0.10053363506E+02  0.12549553489E+02  0.23957915579E+02  0.96146176520E+02  0.91714470668E+02 0.  0.
         13    1    3    3    0    0  0.23387893358E+02  0.26791658620E+02  0.51382446601E+02  0.62489627220E+02  0.10566000000E+00 0.  1.
         22    1    1    0    0    0 -0.10053363506E+02 -0.12549553489E+02 -0.23957915579E+02  0.28853823480E+02  0.00000000000E+00 0.  1.
</event>
<event>
 5    1  0.1751027E-003  0.9118800E+02  0.7818608E-02  0.1130116E+00
         25   -1    0    0    0    0  0.00000000000E+00  0.00000000000E+00  0.99999998245E-14  0.12500000000E+03  0.12500000000E+03 0.  0.
        -13    1    3    3    0    0  0.29966561753E+02 -0.20480915465E+02 -0.11565633615E+02  0.38095114733E+02  0.10566000000E+00 0.  1.
         23    2    1    0    0    0 -0.25369753786E+02 -0.10714394090E+02  0.56945857083E+01  0.96877927632E+02  0.92706428623E+02 0.  0.
         13    1    3    3    0    0 -0.55336315539E+02  0.97665213748E+01  0.17260219324E+02  0.58782812899E+02  0.10566000000E+00 0. -1.
         22    1    1    0    0    0  0.25369753786E+02  0.10714394090E+02 -0.56945857083E+01  0.28122072368E+02  0.00000000000E+00 0. -1.
</event>
<event>
 5    1  0.1751027E-003  0.9118800E+02  0.7818608E-02  0.1130116E+00
         25   -1    0    0    0    0  0.00000000000E+00  0.00000000000E+00  0.99999998245E-14  0.12500000000E+03  0.12500000000E+03 0.  0.
        -13    1    3    3    0    0  0.48227331786E+02 -0.18002803297E+02 -0.18064463515E+02  0.54555590583E+02  0.10566000000E+00 0.  1.
         23    2    1    0    0    0  0.26024604825E+02  0.13677684131E+02 -0.74949415633E+01  0.94659709156E+02  0.89665641630E+02 0.  0.
         13    1    3    3    0    0 -0.22202726961E+02  0.31680487428E+02  0.10569521952E+02  0.40104118573E+02  0.10566000000E+00 0. -1.
         22    1    1    0    0    0 -0.26024604825E+02 -0.13677684131E+02  0.74949415633E+01  0.30340290844E+02  0.00000000000E+00 0. -1.
</event>
<event>
 5    1  0.1751027E-003  0.9118800E+02  0.7818608E-02  0.1130116E+00
         25   -1    0    0    0    0  0.00000000000E+00  0.00000000000E+00  0.99999998245E-14  0.12500000000E+03  0.12500000000E+03 0.  0.
        -13    1    3    3    0    0  0.30677889738E+02  0.53176065028E+02 -0.80031059114E+01  0.61910319648E+02  0.10566000000E+00 0. -1.
         23    2    1    0    0    0  0.14895694339E+02  0.20414511246E+02  0.20687302545E+01  0.99644258557E+02  0.96364229044E+02 0.  0.
         13    1    3    3    0    0 -0.15782195399E+02 -0.32761553781E+02  0.10071836166E+02  0.37733938909E+02  0.10566000000E+00 0.  1.
         22    1    1    0    0    0 -0.14895694339E+02 -0.20414511246E+02 -0.20687302545E+01  0.25355741443E+02  0.00000000000E+00 0. -1.
</event>
<event>
 5    1  0.1751027E-003  0.9118800E+02  0.7818608E-02  0.1130116E+00
         25   -1    0    0    0    0  0.00000000000E+00  0.00000000000E+00  0.99999998245E-14  0.12500000000E+03  0.12500000000E+03 0.  0.
        -13    1    3    3    0    0 -0.35637310588E+02 -0.65631252255E+01  0.11742416520E+02  0.38091836769E+02  0.10566000000E+00 0.  1.
         23    2    1    0    0    0  0.20060115072E+01  0.23797514832E+02 -0.18201437990E+02  0.94972710091E+02  0.90100929645E+02 0.  0.
         13    1    3    3    0    0  0.37643322095E+02  0.30360640058E+02 -0.29943854509E+02  0.56880873323E+02  0.10566000000E+00 0. -1.
         22    1    1    0    0    0 -0.20060115072E+01 -0.23797514832E+02  0.18201437990E+02  0.30027289909E+02  0.00000000000E+00 0. -1.
</event>
<event>
 5    1  0.1751027E-003  0.9118800E+02  0.7818608E-02  0.1130116E+00
         25   -1    0    0    0    0  0.00000000000E+00  0.00000000000E+00  0.99999998245E-14  0.12500000000E+03  0.12500000000E+03 0.  0.
        -13    1    3    3    0    0 -0.28388232948E+01  0.60602114294E+02  0.53007761806E+01  0.60899791188E+02  0.10566000000E+00 0.  1.
         23    2    1    0    0    0 -0.80949547978E+01  0.25392410829E+02 -0.48325281917E+01  0.97913912249E+02  0.94092922488E+02 0.  0.
         13    1    3    3    0    0 -0.52561315029E+01 -0.35209703464E+02 -0.10133304372E+02  0.37014121062E+02  0.10566000000E+00 0. -1.
         22    1    1    0    0    0  0.80949547978E+01 -0.25392410829E+02  0.48325281917E+01  0.27086087751E+02  0.00000000000E+00 0.  1.
</event>
<event>
 5    1  0.1751027E-003  0.9118800E+02  0.7818608E-02  0.1130116E+00
         25   -1    0    0    0    0  0.00000000000E+00  0.00000000000E+00  0.99999998245E-14  0.12500000000E+03  0.12500000000E+03 0.  0.
        -13    1    3    3    0    0  0.18667508941E+02  0.22131969959E+02  0.23233036417E+02  0.37122569005E+02  0.10566000000E+00 0. -1.
         23    2    1    0    0    0 -0.93095080667E+01  0.99658615648E+01 -0.26344523700E+02  0.95334881322E+02  0.90601988558E+02 0.  0.
         13    1    3    3    0    0 -0.27977017008E+02 -0.12166108394E+02 -0.49577560117E+02  0.58212312317E+02  0.10566000000E+00 0.  1.
         22    1    1    0    0    0  0.93095080667E+01 -0.99658615648E+01  0.26344523700E+02  0.29665118678E+02  0.00000000000E+00 0.  1.
</event>
<event>
 5    1  0.1751027E-003  0.9118800E+02  0.7818608E-02  0.1130116E+00
         25   -1    0    0    0    0  0.00000000000E+00  0.00000000000E+00  0.99999998245E-14  0.12500000000E+03  0.12500000000E+03 0.  0.
        -13    1    3    3    0    0 -0.20117260923E+02  0.63568663155E+01  0.86560006626E+01  0.22804636544E+02  0.10566000000E+00 0.  1.
         23    2    1    0    0    0  0.22047085248E+02 -0.34847115964E+02  0.12575856161E+02  0.81889124143E+02  0.69622417624E+02 0.  0.
         13    1    3    3    0    0  0.42164346171E+02 -0.41203982280E+02  0.39198554980E+01  0.59084487599E+02  0.10566000000E+00 0. -1.
         22    1    1    0    0    0 -0.22047085248E+02  0.34847115964E+02 -0.12575856161E+02  0.43110875857E+02  0.00000000000E+00 0. -1.
</event>
<event>
 5    1  0.1751027E-003  0.9118800E+02  0.7818608E-02  0.1130116E+00
         25   -1    0    0    0    0  0.00000000000E+00  0.00000000000E+00  0.99999998245E-14  0.12500000000E+03  0.12500000000E+03 0.  0.
        -13    1    3    3    0    0 -0.51968929962E+01 -0.31944601498E+02 -0.62287394994E+01  0.32958665347E+02  0.10566000000E+00 0. -1.
         23    2    1    0    0    0 -0.13145150668E+02  0.24319226499E+02  0.14916253050E+02  0.93587990057E+02  0.88158933264E+02 0.  0.
         13    1    3    3    0    0 -0.79482576719E+01  0.56263827997E+02  0.21144992549E+02  0.60629324710E+02  0.10566000000E+00 0.  1.
         22    1    1    0    0    0  0.13145150668E+02 -0.24319226499E+02 -0.14916253050E+02  0.31412009943E+02  0.00000000000E+00 0.  1.
</event>
<event>
 5    1  0.1751027E-003  0.9118800E+02  0.7818608E-02  0.1130116E+00
         25   -1    0    0    0    0  0.00000000000E+00  0.00000000000E+00  0.99999998245E-14  0.12500000000E+03  0.12500000000E+03 0.  0.
        -13    1    3    3    0    0 -0.38630620517E+02  0.82766464663E+01 -0.29872440487E+02  0.49529804996E+02  0.10566000000E+00 0. -1.
         23    2    1    0    0    0 -0.12835941982E+02  0.24494827665E+02  0.61087667835E+01  0.96679070980E+02  0.92437912921E+02 0.  0.
         13    1    3    3    0    0  0.25794678535E+02  0.16218181199E+02  0.35981207271E+02  0.47149265984E+02  0.10566000000E+00 0.  1.
         22    1    1    0    0    0  0.12835941982E+02 -0.24494827665E+02 -0.61087667835E+01  0.28320929020E+02  0.00000000000E+00 0. -1.
</event>
<event>
 5    1  0.1751027E-003  0.9118800E+02  0.7818608E-02  0.1130116E+00
         25   -1    0    0    0    0  0.00000000000E+00  0.00000000000E+00  0.99999998245E-14  0.12500000000E+03  0.12500000000E+03 0.  0.
        -13    1    3    3    0    0  0.78528068693E+01 -0.66336081480E+01 -0.31437834239E+02  0.33075971920E+02  0.10566000000E+00 0.  1.
         23    2    1    0    0    0 -0.67913878290E+01  0.16600549252E+02  0.24055620822E+02  0.94993766027E+02  0.90130136507E+02 0.  0.
         13    1    3    3    0    0 -0.14644194698E+02  0.23234157400E+02  0.55493455061E+02  0.61917794107E+02  0.10566000000E+00 0. -1.
         22    1    1    0    0    0  0.67913878290E+01 -0.16600549252E+02 -0.24055620822E+02  0.30006233973E+02  0.00000000000E+00 0. -1.
</event>
<event>
 5    1  0.1751027E-003  0.9118800E+02  0.7818608E-02  0.1130116E+00
         25   -1    0    0    0    0  0.00000000000E+00  0.00000000000E+00  0.99999998245E-14  0.12500000000E+03  0.12500000000E+03 0.  0.
        -13    1    3    3    0    0 -0.27486835396E+02  0.10543067393E+02 -0.47735073425E+02  0.56083248739E+02  0.10566000000E+00 0.  1.
         23    2    1    0    0    0 -0.20016115421E+02  0.20433545544E+02 -0.11867818616E+02  0.94031955522E+02  0.88786197579E+02 0.  0.
         13    1    3    3    0    0  0.74707199747E+01  0.98904781513E+01  0.35867254809E+02  0.37948706784E+02  0.10566000000E+00 0. -1.
         22    1    1    0    0    0  0.20016115421E+02 -0.20433545544E+02  0.11867818616E+02  0.30968044478E+02  0.00000000000E+00 0.  1.
</event>
<event>
 5    1  0.1751027E-003  0.9118800E+02  0.7818608E-02  0.1130116E+00
         25   -1    0    0    0    0  0.00000000000E+00  0.00000000000E+00  0.99999998245E-14  0.12500000000E+03  0.12500000000E+03 0.  0.
        -13    1    3    3    0    0 -0.15488810174E+02 -0.29470720263E+01  0.36400068014E+02  0.39668181073E+02  0.10566000000E+00 0.  1.
         23    2    1    0    0    0  0.28858060693E+02  0.45529704181E+01  0.31198468825E+01  0.95618872534E+02  0.90992956505E+02 0.  0.
         13    1    3    3    0    0  0.44346870867E+02  0.75000424443E+01 -0.33280221132E+02  0.55950691461E+02  0.10566000000E+00 0. -1.
         22    1    1    0    0    0 -0.28858060693E+02 -0.45529704181E+01 -0.31198468825E+01  0.29381127466E+02  0.00000000000E+00 0. -1.
</event>
<event>
 5    1  0.1751027E-003  0.9118800E+02  0.7818608E-02  0.1130116E+00
         25   -1    0    0    0    0  0.00000000000E+00  0.00000000000E+00  0.99999998245E-14  0.12500000000E+03  0.12500000000E+03 0.  0.
        -13    1    3    3    0    0  0.20286181853E+02  0.25679595138E+02 -0.20123658161E+02  0.38418010912E+02  0.10566000000E+00 0.  1.
         23    2    1    0    0    0 -0.87521648125E+00  0.22603993599E+01  0.28504891879E+02  0.96392234093E+02  0.92049217939E+02 0.  0.
         13    1    3    3    0    0 -0.21161398334E+02 -0.23419195778E+02  0.48628550041E+02  0.57974223181E+02  0.10566000000E+00 0. -1.
         22    1    1    0    0    0  0.87521648125E+00 -0.22603993599E+01 -0.28504891879E+02  0.28607765907E+02  0.00000000000E+00 0. -1.
</event>
<event>
 5    1  0.1751027E-003  0.9118800E+02  0.7818608E-02  0.1130116E+00
         25   -1    0    0    0    0  0.00000000000E+00  0.00000000000E+00  0.99999998245E-14  0.12500000000E+03  0.12500000000E+03 0.  0.
        -13    1    3    3    0    0 -0.18809793602E+02  0.29213253097E+02  0.11545565465E+02  0.36613300012E+02  0.10566000000E+00 0. -1.
         23    2    1    0    0    0  0.18154215675E+02 -0.16302772579E+02  0.16635456590E+02  0.95468756266E+02  0.90786502667E+02 0.  0.
         13    1    3    3    0    0  0.36964009276E+02 -0.45516025676E+02  0.50898911255E+01  0.58855456254E+02  0.10566000000E+00 0.  1.
         22    1    1    0    0    0 -0.18154215675E+02  0.16302772579E+02 -0.16635456590E+02  0.29531243734E+02  0.00000000000E+00 0.  1.
</event>
<event>
 5    1  0.1751027E-003  0.9118800E+02  0.7818608E-02  0.1130116E+00
         25   -1    0    0    0    0  0.00000000000E+00  0.00000000000E+00  0.99999998245E-14  0.12500000000E+03  0.12500000000E+03 0.  0.
        -13    1    3    3    0    0 -0.12465556054E+02  0.35503204028E+02  0.41299544807E+02  0.55870664479E+02  0.10566000000E+00 0. -1.
         23    2    1    0    0    0 -0.23769864413E+02  0.71052735108E+01  0.20134869925E+02  0.93048406100E+02  0.87390511641E+02 0.  0.
         13    1    3    3    0    0 -0.11304308359E+02 -0.28397930518E+02 -0.21164674882E+02  0.37177741621E+02  0.10566000000E+00 0.  1.
         22    1    1    0    0    0  0.23769864413E+02 -0.71052735108E+01 -0.20134869925E+02  0.31951593900E+02  0.00000000000E+00 0. -1.
</event>
<event>
 5    1  0.1751027E-003  0.9118800E+02  0.7818608E-02  0.1130116E+00
         25   -1    0    0    0    0  0.00000000000E+00  0.00000000000E+00  0.99999998245E-14  0.12500000000E+03  0.12500000000E+03 0.  0.
        -13    1    3    3    0    0  0.17107072361E+02  0.21315630123E+02 -0.22118705911E+02  0.35160436964E+02  0.10566000000E+00 0.  1.
         23    2    1    0    0    0  0.10989076121E+02 -0.12536433785E+02  0.25881026516E+02  0.94214459570E+02  0.89042770018E+02 0.  0.
         13    1    3    3    0    0 -0.61179962403E+01 -0.33852063908E+02  0.47999732427E+02  0.59054022606E+02  0.10566000000E+00 0. -1.
         22    1    1    0    0    0 -0.10989076121E+02  0.12536433785E+02 -0.25881026516E+02  0.30785540430E+02  0.00000000000E+00 0. -1.
</event>
<event>
 5    1  0.1751027E-003  0.9118800E+02  0.7818608E-02  0.1130116E+00
         25   -1    0    0    0    0  0.00000000000E+00  0.00000000000E+00  0.99999998245E-14  0.12500000000E+03  0.12500000000E+03 0.  0.
        -13    1    3    3    0    0 -0.16432673929E+02 -0.15878487647E+01  0.36174511778E+02  0.39763808954E+02  0.10566000000E+00 0.  1.
         23    2    1    0    0    0 -0.42277921149E+01  0.24484074031E+02 -0.13160430973E+02  0.96883438142E+02  0.92713858379E+02 0.  0.
         13    1    3    3    0    0  0.12204881814E+02  0.26071922796E+02 -0.49334942750E+02  0.57119629188E+02  0.10566000000E+00 0. -1.
         22    1    1    0    0    0  0.42277921149E+01 -0.24484074031E+02  0.13160430973E+02  0.28116561858E+02  0.00000000000E+00 0. -1.
</event>
<event>
 5    1  0.1751027E-003  0.9118800E+02  0.7818608E-02  0.1130116E+00
         25   -1    0    0    0    0  0.00000000000E+00  0.00000000000E+00  0.99999998245E-14  0.12500000000E+03  0.12500000000E+03 0.  0.
        -13    1    3    3    0    0 -0.28488106271E+02  0.97730623644E+01 -0.21863485515E+02  0.37217040584E+02  0.10566000000E+00 0.  1.
         23    2    1    0    0    0  0.19903478584E+02 -0.19977420895E+02 -0.79257461352E+01  0.95707283206E+02  0.91114328190E+02 0.  0.
         13    1    3    3    0    0  0.48391584855E+02 -0.29750483259E+02  0.13937739380E+02  0.58490242622E+02  0.10566000000E+00 0. -1.
         22    1    1    0    0    0 -0.19903478584E+02  0.19977420895E+02  0.79257461352E+01  0.29292716794E+02  0.00000000000E+00 0. -1.
</event>
<event>
 5    1  0.1751027E-003  0.9118800E+02  0.7818608E-02  0.1130116E+00
         25   -1    0    0    0    0  0.00000000000E+00  0.00000000000E+00  0.99999998245E-14  0.12500000000E+03  0.12500000000E+03 0.  0.
        -13    1    3    3    0    0 -0.81797576126E+00 -0.25237923583E+02 -0.30204073404E+02  0.39369011740E+02  0.10566000000E+00 0. -1.
         23    2    1    0    0    0  0.90066627461E+01  0.25827488197E+02 -0.48581156608E+01  0.97219063944E+02  0.93165261691E+02 0.  0.
         13    1    3    3    0    0  0.98246385074E+01  0.51065411780E+02  0.25345957743E+02  0.57850052204E+02  0.10566000000E+00 0.  1.
         22    1    1    0    0    0 -0.90066627461E+01 -0.25827488197E+02  0.48581156608E+01  0.27780936056E+02  0.00000000000E+00 0.  1.
</event>
<event>
 5    1  0.1751027E-003  0.9118800E+02  0.7818608E-02  0.1130116E+00
         25   -1    0    0    0    0  0.00000000000E+00  0.00000000000E+00  0.99999998245E-14  0.12500000000E+03  0.12500000000E+03 0.  0.
        -13    1    3    3    0    0 -0.24642855763E+02 -0.25367109752E+01 -0.28728169703E+02  0.37934471675E+02  0.10566000000E+00 0.  1.
         23    2    1    0    0    0  0.28644884472E+02  0.15400857709E+01 -0.84600674599E+01  0.95092241608E+02  0.90266607347E+02 0.  0.
         13    1    3    3    0    0  0.53287740235E+02  0.40767967461E+01  0.20268102244E+02  0.57157769933E+02  0.10566000000E+00 0. -1.
         22    1    1    0    0    0 -0.28644884472E+02 -0.15400857709E+01  0.84600674599E+01  0.29907758392E+02  0.00000000000E+00 0. -1.
</event>
<event>
 5    1  0.1751027E-003  0.9118800E+02  0.7818608E-02  0.1130116E+00
         25   -1    0    0    0    0  0.00000000000E+00  0.00000000000E+00  0.99999998245E-14  0.12500000000E+03  0.12500000000E+03 0.  0.
        -13    1    3    3    0    0 -0.47620405300E+02  0.29319571219E+02  0.41861115525E+01  0.56079184653E+02  0.10566000000E+00 0. -1.
         23    2    1    0    0    0 -0.26600224257E+02 -0.30025189674E+00 -0.11967544823E+02  0.95830080376E+02  0.91282638514E+02 0.  0.
         13    1    3    3    0    0  0.21020181043E+02 -0.29619823115E+02 -0.16153656376E+02  0.39750895723E+02  0.10566000000E+00 0.  1.
         22    1    1    0    0    0  0.26600224257E+02  0.30025189674E+00  0.11967544823E+02  0.29169919624E+02  0.00000000000E+00 0.  1.
</event>
<event>
 5    1  0.1751027E-003  0.9118800E+02  0.7818608E-02  0.1130116E+00
         25   -1    0    0    0    0  0.00000000000E+00  0.00000000000E+00  0.99999998245E-14  0.12500000000E+03  0.12500000000E+03 0.  0.
        -13    1    3    3    0    0  0.53178977063E+02 -0.92840504441E+01  0.26192321368E+02  0.60002050438E+02  0.10566000000E+00 0. -1.
         23    2    1    0    0    0  0.19471584410E+02 -0.13702424558E+02  0.18475862679E+02  0.94862705166E+02  0.89948186704E+02 0.  0.
         13    1    3    3    0    0 -0.33707392653E+02 -0.44183741138E+01 -0.77164586889E+01  0.34860654727E+02  0.10566000000E+00 0.  1.
         22    1    1    0    0    0 -0.19471584410E+02  0.13702424558E+02 -0.18475862679E+02  0.30137294834E+02  0.00000000000E+00 0. -1.
</event>
<event>
 5    1  0.1751027E-003  0.9118800E+02  0.7818608E-02  0.1130116E+00
         25   -1    0    0    0    0  0.00000000000E+00  0.00000000000E+00  0.99999998245E-14  0.12500000000E+03  0.12500000000E+03 0.  0.
        -13    1    3    3    0    0  0.14468010734E+02 -0.27213502796E+02  0.40014642947E+02  0.50508225897E+02  0.10566000000E+00 0. -1.
         23    2    1    0    0    0  0.20885841341E+02  0.11261977847E+02  0.13152841716E+02  0.97869799876E+02  0.94034302087E+02 0.  0.
         13    1    3    3    0    0  0.64178306072E+01  0.38475480643E+02 -0.26861801231E+02  0.47361573979E+02  0.10566000000E+00 0.  1.
         22    1    1    0    0    0 -0.20885841341E+02 -0.11261977847E+02 -0.13152841716E+02  0.27130200124E+02  0.00000000000E+00 0. -1.
</event>
<event>
 5    1  0.1751027E-003  0.9118800E+02  0.7818608E-02  0.1130116E+00
         25   -1    0    0    0    0  0.00000000000E+00  0.00000000000E+00  0.99999998245E-14  0.12500000000E+03  0.12500000000E+03 0.  0.
        -13    1    3    3    0    0 -0.35347855543E+02  0.41656333214E+01  0.11423534608E+02  0.37380900195E+02  0.10566000000E+00 0. -1.
         23    2    1    0    0    0  0.20177505982E+02  0.19386685989E+02 -0.33456868857E+01  0.96818996433E+02  0.92626935112E+02 0.  0.
         13    1    3    3    0    0  0.55525361525E+02  0.15221052668E+02 -0.14769221494E+02  0.59438096238E+02  0.10566000000E+00 0.  1.
         22    1    1    0    0    0 -0.20177505982E+02 -0.19386685989E+02  0.33456868857E+01  0.28181003567E+02  0.00000000000E+00 0.  1.
</event>
<event>
 5    1  0.1751027E-003  0.9118800E+02  0.7818608E-02  0.1130116E+00
         25   -1    0    0    0    0  0.00000000000E+00  0.00000000000E+00  0.99999998245E-14  0.12500000000E+03  0.12500000000E+03 0.  0.
        -13    1    3    3    0    0  0.20425785315E+02 -0.26439548832E+02  0.15948006544E+02  0.37021784465E+02  0.10566000000E+00 0. -1.
         23    2    1    0    0    0 -0.89298472529E+01  0.23924256004E+02 -0.50236136488E+01  0.98974072708E+02  0.95490932434E+02 0.  0.
         13    1    3    3    0    0 -0.29355632568E+02  0.50363804836E+02 -0.20971620193E+02  0.61952288243E+02  0.10566000000E+00 0.  1.
         22    1    1    0    0    0  0.89298472529E+01 -0.23924256004E+02  0.50236136488E+01  0.26025927292E+02  0.00000000000E+00 0.  1.
</event>
<event>
 5    1  0.1751027E-003  0.9118800E+02  0.7818608E-02  0.1130116E+00
         25   -1    0    0    0    0  0.00000000000E+00  0.00000000000E+00  0.99999998245E-14  0.12500000000E+03  0.12500000000E+03 0.  0.
        -13    1    3    3    0    0  0.49085040803E+00 -0.15294154777E+02 -0.32046145944E+02  0.35512233643E+02  0.10566000000E+00 0. -1.
         23    2    1    0    0    0  0.20127890495E+02 -0.16679761482E+01  0.22318785654E+02  0.94899463239E+02  0.89999254496E+02 0.  0.
         13    1    3    3    0    0  0.19637040087E+02  0.13626178629E+02  0.54364931598E+02  0.59387229596E+02  0.10566000000E+00 0.  1.
         22    1    1    0    0    0 -0.20127890495E+02  0.16679761482E+01 -0.22318785654E+02  0.30100536761E+02  0.00000000000E+00 0.  1.
</event>
<event>
 5    1  0.1751027E-003  0.9118800E+02  0.7818608E-02  0.1130116E+00
         25   -1    0    0    0    0  0.00000000000E+00  0.00000000000E+00  0.99999998245E-14  0.12500000000E+03  0.12500000000E+03 0.  0.
        -13    1    3    3    0    0 -0.24463839485E+02  0.24801831777E+02 -0.77440448126E+01  0.35687416493E+02  0.10566000000E+00 0.  1.
         23    2    1    0    0    0  0.14090330221E+02  0.18902215870E+01  0.28369065391E+02  0.93268088388E+02  0.87704173772E+02 0.  0.
         13    1    3    3    0    0  0.38554169706E+02 -0.22911610190E+02  0.36113110204E+02  0.57580671895E+02  0.10566000000E+00 0. -1.
         22    1    1    0    0    0 -0.14090330221E+02 -0.18902215870E+01 -0.28369065391E+02  0.31731911612E+02  0.00000000000E+00 0. -1.
</event>
<event>
 5    1  0.1751027E-003  0.9118800E+02  0.7818608E-02  0.1130116E+00
         25   -1    0    0    0    0  0.00000000000E+00  0.00000000000E+00  0.99999998245E-14  0.12500000000E+03  0.12500000000E+03 0.  0.
        -13    1    3    3    0    0 -0.22822175951E+02  0.34188265440E+02 -0.34698778520E+02  0.53793174323E+02  0.10566000000E+00 0.  1.
         23    2    1    0    0    0 -0.10907566731E+02 -0.35401463521E+01 -0.29061277295E+02  0.93757953232E+02  0.88399594502E+02 0.  0.
         13    1    3    3    0    0  0.11914609219E+02 -0.37728411792E+02  0.56375012249E+01  0.39964778909E+02  0.10566000000E+00 0. -1.
         22    1    1    0    0    0  0.10907566731E+02  0.35401463521E+01  0.29061277295E+02  0.31242046768E+02  0.00000000000E+00 0.  1.
</event>
<event>
 5    1  0.1751027E-003  0.9118800E+02  0.7818608E-02  0.1130116E+00
         25   -1    0    0    0    0  0.00000000000E+00  0.00000000000E+00  0.99999998245E-14  0.12500000000E+03  0.12500000000E+03 0.  0.
        -13    1    3    3    0    0  0.28830620697E+02  0.53144153127E+02 -0.42101660204E+01  0.60607279788E+02  0.10566000000E+00 0. -1.
         23    2    1    0    0    0  0.81265758849E+01  0.26972586202E+02  0.72858005704E+01  0.95902843232E+02  0.91382223698E+02 0.  0.
         13    1    3    3    0    0 -0.20704044812E+02 -0.26171566926E+02  0.11495966591E+02  0.35295563444E+02  0.10566000000E+00 0.  1.
         22    1    1    0    0    0 -0.81265758849E+01 -0.26972586202E+02 -0.72858005704E+01  0.29097156768E+02  0.00000000000E+00 0. -1.
</event>
<event>
 5    1  0.1751027E-003  0.9118800E+02  0.7818608E-02  0.1130116E+00
         25   -1    0    0    0    0  0.00000000000E+00  0.00000000000E+00  0.99999998245E-14  0.12500000000E+03  0.12500000000E+03 0.  0.
        -13    1    3    3    0    0  0.46215984601E+02  0.13166092042E+02  0.24953180961E+02  0.54147350963E+02  0.10566000000E+00 0.  1.
         23    2    1    0    0    0  0.19783875011E+02  0.19390171093E+02 -0.73419583267E+01  0.96341933116E+02  0.91980885400E+02 0.  0.
         13    1    3    3    0    0 -0.26432109590E+02  0.62240790509E+01 -0.32295139287E+02  0.42194582152E+02  0.10566000000E+00 0. -1.
         22    1    1    0    0    0 -0.19783875011E+02 -0.19390171093E+02  0.73419583267E+01  0.28658066884E+02  0.00000000000E+00 0.  1.
</event>
<event>
 5    1  0.1751027E-003  0.9118800E+02  0.7818608E-02  0.1130116E+00
         25   -1    0    0    0    0  0.00000000000E+00  0.00000000000E+00  0.99999998245E-14  0.12500000000E+03  0.12500000000E+03 0.  0.
        -13    1    3    3    0    0  0.54447159534E+01  0.83893175043E+01  0.36425158289E+02  0.37773388787E+02  0.10566000000E+00 0.  1.
         23    2    1    0    0    0 -0.33678830148E+02  0.12049145009E+02  0.34611096194E+01  0.89063600968E+02  0.81491718856E+02 0.  0.
         13    1    3    3    0    0 -0.39123546101E+02  0.36598275047E+01 -0.32964048670E+02  0.51290212182E+02  0.10566000000E+00 0. -1.
         22    1    1    0    0    0  0.33678830148E+02 -0.12049145009E+02 -0.34611096194E+01  0.35936399032E+02  0.00000000000E+00 0. -1.
</event>
<event>
 5    1  0.1751027E-003  0.9118800E+02  0.7818608E-02  0.1130116E+00
         25   -1    0    0    0    0  0.00000000000E+00  0.00000000000E+00  0.99999998245E-14  0.12500000000E+03  0.12500000000E+03 0.  0.
        -13    1    3    3    0    0 -0.43692452304E+02 -0.11110298092E+02 -0.27491508111E+02  0.52804008316E+02  0.10566000000E+00 0.  1.
         23    2    1    0    0    0 -0.67976518905E+01  0.61563768328E+01 -0.30012655391E+02  0.93617384899E+02  0.88200602179E+02 0.  0.
         13    1    3    3    0    0  0.36894800413E+02  0.17266674924E+02 -0.25211472806E+01  0.40813376583E+02  0.10566000000E+00 0. -1.
         22    1    1    0    0    0  0.67976518905E+01 -0.61563768328E+01  0.30012655391E+02  0.31382615101E+02  0.00000000000E+00 0.  1.
</event>
<event>
 5    1  0.1751027E-003  0.9118800E+02  0.7818608E-02  0.1130116E+00
         25   -1    0    0    0    0  0.00000000000E+00  0.00000000000E+00  0.99999998245E-14  0.12500000000E+03  0.12500000000E+03 0.  0.
        -13    1    3    3    0    0  0.60151894522E+02 -0.97930006561E+01  0.29783106132E+01  0.61016676201E+02  0.10566000000E+00 0. -1.
         23    2    1    0    0    0  0.28515266927E+02  0.17851399800E+01 -0.58346975083E+01  0.95839223816E+02  0.91295158436E+02 0.  0.
         13    1    3    3    0    0 -0.31636627595E+02  0.11578140636E+02 -0.88130081214E+01  0.34822547615E+02  0.10566000000E+00 0.  1.
         22    1    1    0    0    0 -0.28515266927E+02 -0.17851399800E+01  0.58346975083E+01  0.29160776184E+02  0.00000000000E+00 0. -1.
</event>
<event>
 5    1  0.1751027E-003  0.9118800E+02  0.7818608E-02  0.1130116E+00
         25   -1    0    0    0    0  0.00000000000E+00  0.00000000000E+00  0.99999998245E-14  0.12500000000E+03  0.12500000000E+03 0.  0.
        -13    1    3    3    0    0  0.47502052485E+02 -0.24973402873E+02 -0.24657385399E+02  0.59060254488E+02  0.10566000000E+00 0.  1.
         23    2    1    0    0    0  0.13440534367E+02 -0.10959458064E+02 -0.23348580989E+02  0.95915400650E+02  0.91399399136E+02 0.  0.
         13    1    3    3    0    0 -0.34061518118E+02  0.14013944809E+02  0.13088044102E+01  0.36855146162E+02  0.10566000000E+00 0. -1.
         22    1    1    0    0    0 -0.13440534367E+02  0.10959458064E+02  0.23348580989E+02  0.29084599350E+02  0.00000000000E+00 0.  1.
</event>
<event>
 5    1  0.1751027E-003  0.9118800E+02  0.7818608E-02  0.1130116E+00
         25   -1    0    0    0    0  0.00000000000E+00  0.00000000000E+00  0.99999998245E-14  0.12500000000E+03  0.12500000000E+03 0.  0.
        -13    1    3    3    0    0 -0.32920045079E+02 -0.76990679043E+01  0.14323177893E+02  0.36717429153E+02  0.10566000000E+00 0.  1.
         23    2    1    0    0    0  0.21624606266E+02 -0.18236146915E+02 -0.63781691237E+01  0.96002384721E+02  0.91518283312E+02 0.  0.
         13    1    3    3    0    0  0.54544651345E+02 -0.10537079011E+02 -0.20701347017E+02  0.59284955569E+02  0.10566000000E+00 0. -1.
         22    1    1    0    0    0 -0.21624606266E+02  0.18236146915E+02  0.63781691237E+01  0.28997615279E+02  0.00000000000E+00 0. -1.
</event>
<event>
 5    1  0.1751027E-003  0.9118800E+02  0.7818608E-02  0.1130116E+00
         25   -1    0    0    0    0  0.00000000000E+00  0.00000000000E+00  0.99999998245E-14  0.12500000000E+03  0.12500000000E+03 0.  0.
        -13    1    3    3    0    0 -0.16962103848E+01 -0.18479955722E+02  0.29326745003E+02  0.34705259395E+02  0.10566000000E+00 0.  1.
         23    2    1    0    0    0  0.13262216772E+02  0.93480755896E+01 -0.23609338973E+02  0.96352595271E+02  0.91995373893E+02 0.  0.
         13    1    3    3    0    0  0.14958427157E+02  0.27828031312E+02 -0.52936083977E+02  0.61647335876E+02  0.10566000000E+00 0. -1.
         22    1    1    0    0    0 -0.13262216772E+02 -0.93480755896E+01  0.23609338973E+02  0.28647404729E+02  0.00000000000E+00 0. -1.
</event>
<event>
 5    1  0.1751027E-003  0.9118800E+02  0.7818608E-02  0.1130116E+00
         25   -1    0    0    0    0  0.00000000000E+00  0.00000000000E+00  0.99999998245E-14  0.12500000000E+03  0.12500000000E+03 0.  0.
        -13    1    3    3    0    0 -0.68498993044E+01  0.22413064072E+02 -0.26383903785E+02  0.35290056738E+02  0.10566000000E+00 0. -1.
         23    2    1    0    0    0 -0.14185164850E+02 -0.10785713598E+02  0.23406838117E+02  0.95581798317E+02  0.90942012179E+02 0.  0.
         13    1    3    3    0    0 -0.73352655459E+01 -0.33198777670E+02  0.49790741902E+02  0.60291741579E+02  0.10566000000E+00 0.  1.
         22    1    1    0    0    0  0.14185164850E+02  0.10785713598E+02 -0.23406838117E+02  0.29418201683E+02  0.00000000000E+00 0.  1.
</event>
<event>
 5    1  0.1751027E-003  0.9118800E+02  0.7818608E-02  0.1130116E+00
         25   -1    0    0    0    0  0.00000000000E+00  0.00000000000E+00  0.99999998245E-14  0.12500000000E+03  0.12500000000E+03 0.  0.
        -13    1    3    3    0    0 -0.51217001079E+01 -0.46887617899E+02  0.27221784659E+02  0.54458399244E+02  0.10566000000E+00 0.  1.
         23    2    1    0    0    0 -0.18372685359E+02 -0.22119421034E+02 -0.34379645971E+01  0.96040649959E+02  0.91570532868E+02 0.  0.
         13    1    3    3    0    0 -0.13250985252E+02  0.24768196864E+02 -0.30659749256E+02  0.41582250715E+02  0.10566000000E+00 0. -1.
         22    1    1    0    0    0  0.18372685359E+02  0.22119421034E+02  0.34379645971E+01  0.28959350041E+02  0.00000000000E+00 0.  1.
</event>
<event>
 5    1  0.1751027E-003  0.9118800E+02  0.7818608E-02  0.1130116E+00
         25   -1    0    0    0    0  0.00000000000E+00  0.00000000000E+00  0.99999998245E-14  0.12500000000E+03  0.12500000000E+03 0.  0.
        -13    1    3    3    0    0  0.30451157892E+02  0.23094897233E+02 -0.47643461287E+02  0.61078292892E+02  0.10566000000E+00 0.  1.
         23    2    1    0    0    0  0.21202624464E+02  0.45584546166E+01 -0.21174299401E+02  0.94690236758E+02  0.89708189089E+02 0.  0.
         13    1    3    3    0    0 -0.92485334281E+01 -0.18536442617E+02  0.26469161886E+02  0.33611943866E+02  0.10566000000E+00 0. -1.
         22    1    1    0    0    0 -0.21202624464E+02 -0.45584546166E+01  0.21174299401E+02  0.30309763242E+02  0.00000000000E+00 0.  1.
</event>
<event>
 5    1  0.1751027E-003  0.9118800E+02  0.7818608E-02  0.1130116E+00
         25   -1    0    0    0    0  0.00000000000E+00  0.00000000000E+00  0.99999998245E-14  0.12500000000E+03  0.12500000000E+03 0.  0.
        -13    1    3    3    0    0 -0.32572426805E+02 -0.64780489534E+00 -0.18449731148E+02  0.37440437799E+02  0.10566000000E+00 0.  1.
         23    2    1    0    0    0  0.22576059594E+02 -0.12601502715E+02  0.52038017690E+01  0.98626606393E+02  0.95035001964E+02 0.  0.
         13    1    3    3    0    0  0.55148486400E+02 -0.11953697820E+02  0.23653532917E+02  0.61186168594E+02  0.10566000000E+00 0. -1.
         22    1    1    0    0    0 -0.22576059594E+02  0.12601502715E+02 -0.52038017690E+01  0.26373393607E+02  0.00000000000E+00 0. -1.
</event>
<event>
 5    1  0.1751027E-003  0.9118800E+02  0.7818608E-02  0.1130116E+00
         25   -1    0    0    0    0  0.00000000000E+00  0.00000000000E+00  0.99999998245E-14  0.12500000000E+03  0.12500000000E+03 0.  0.
        -13    1    3    3    0    0 -0.98582348604E+01  0.57948564113E+02  0.99889548937E+00  0.58789708568E+02  0.10566000000E+00 0.  1.
         23    2    1    0    0    0 -0.20356301777E+01  0.26023240187E+02  0.15418763040E+02  0.94683485132E+02  0.89698780833E+02 0.  0.
         13    1    3    3    0    0  0.78226046827E+01 -0.31925323926E+02  0.14419867551E+02  0.35893776564E+02  0.10566000000E+00 0. -1.
         22    1    1    0    0    0  0.20356301777E+01 -0.26023240187E+02 -0.15418763040E+02  0.30316514868E+02  0.00000000000E+00 0.  1.
</event>
<event>
 5    1  0.1751027E-003  0.9118800E+02  0.7818608E-02  0.1130116E+00
         25   -1    0    0    0    0  0.00000000000E+00  0.00000000000E+00  0.99999998245E-14  0.12500000000E+03  0.12500000000E+03 0.  0.
        -13    1    3    3    0    0  0.21623122387E+02  0.44135648530E+01 -0.38358191821E+02  0.44253824923E+02  0.10566000000E+00 0. -1.
         23    2    1    0    0    0  0.43358133565E+01  0.27848933779E+02  0.48915856149E+01  0.96394231352E+02  0.92051930116E+02 0.  0.
         13    1    3    3    0    0 -0.17287309031E+02  0.23435368926E+02  0.43249777436E+02  0.52140406429E+02  0.10566000000E+00 0.  1.
         22    1    1    0    0    0 -0.43358133565E+01 -0.27848933779E+02 -0.48915856149E+01  0.28605768648E+02  0.00000000000E+00 0.  1.
</event>
<event>
 5    1  0.1751027E-003  0.9118800E+02  0.7818608E-02  0.1130116E+00
         25   -1    0    0    0    0  0.00000000000E+00  0.00000000000E+00  0.99999998245E-14  0.12500000000E+03  0.12500000000E+03 0.  0.
        -13    1    3    3    0    0  0.54335857624E+01 -0.16031213651E+02  0.31666831223E+02  0.35907144542E+02  0.10566000000E+00 0.  1.
         23    2    1    0    0    0 -0.28776965864E+02  0.62831410848E+01 -0.96494247608E+01  0.94004790298E+02  0.88747944058E+02 0.  0.
         13    1    3    3    0    0 -0.34210551627E+02  0.22314354736E+02 -0.41316255984E+02  0.58097645757E+02  0.10566000000E+00 0. -1.
         22    1    1    0    0    0  0.28776965864E+02 -0.62831410848E+01  0.96494247608E+01  0.30995209702E+02  0.00000000000E+00 0. -1.
</event>
<event>
 5    1  0.1751027E-003  0.9118800E+02  0.7818608E-02  0.1130116E+00
         25   -1    0    0    0    0  0.00000000000E+00  0.00000000000E+00  0.99999998245E-14  0.12500000000E+03  0.12500000000E+03 0.  0.
        -13    1    3    3    0    0  0.26204526330E+02 -0.25252133589E+02 -0.24601168463E+02  0.43926940535E+02  0.10566000000E+00 0.  1.
         23    2    1    0    0    0  0.25234173137E+02  0.16908995340E+02  0.32271296583E+01  0.94453445642E+02  0.89377633726E+02 0.  0.
         13    1    3    3    0    0 -0.97035319254E+00  0.42161128929E+02  0.27828298121E+02  0.50526505107E+02  0.10566000000E+00 0. -1.
         22    1    1    0    0    0 -0.25234173137E+02 -0.16908995340E+02 -0.32271296583E+01  0.30546554358E+02  0.00000000000E+00 0. -1.
</event>
<event>
 5    1  0.1751027E-003  0.9118800E+02  0.7818608E-02  0.1130116E+00
         25   -1    0    0    0    0  0.00000000000E+00  0.00000000000E+00  0.99999998245E-14  0.12500000000E+03  0.12500000000E+03 0.  0.
        -13    1    3    3    0    0  0.30190310895E+02 -0.14739503788E+02 -0.17952714206E+02  0.38092242718E+02  0.10566000000E+00 0.  1.
         23    2    1    0    0    0  0.50756815588E+01  0.24950866029E+02  0.14981823487E+02  0.95457432510E+02  0.90770910140E+02 0.  0.
         13    1    3    3    0    0 -0.25114629336E+02  0.39690369817E+02  0.32934537693E+02  0.57365189793E+02  0.10566000000E+00 0. -1.
         22    1    1    0    0    0 -0.50756815588E+01 -0.24950866029E+02 -0.14981823487E+02  0.29542567490E+02  0.00000000000E+00 0. -1.
</event>
<event>
 5    1  0.1751027E-003  0.9118800E+02  0.7818608E-02  0.1130116E+00
         25   -1    0    0    0    0  0.00000000000E+00  0.00000000000E+00  0.99999998245E-14  0.12500000000E+03  0.12500000000E+03 0.  0.
        -13    1    3    3    0    0  0.13208459017E+02 -0.59615932721E+02 -0.37801132931E+01  0.61178617541E+02  0.10566000000E+00 0.  1.
         23    2    1    0    0    0  0.48814566628E+01 -0.26555395400E+02 -0.10681934855E+02  0.95963447583E+02  0.91465085665E+02 0.  0.
         13    1    3    3    0    0 -0.83270023540E+01  0.33060537320E+02 -0.69018215621E+01  0.34784830041E+02  0.10566000000E+00 0. -1.
         22    1    1    0    0    0 -0.48814566628E+01  0.26555395400E+02  0.10681934855E+02  0.29036552417E+02  0.00000000000E+00 0.  1.
</event>
<event>
 5    1  0.1751027E-003  0.9118800E+02  0.7818608E-02  0.1130116E+00
         25   -1    0    0    0    0  0.00000000000E+00  0.00000000000E+00  0.99999998245E-14  0.12500000000E+03  0.12500000000E+03 0.  0.
        -13    1    3    3    0    0  0.33612816586E+02  0.22401620160E+01  0.17568039449E+02  0.37993248595E+02  0.10566000000E+00 0.  1.
         23    2    1    0    0    0 -0.56669607049E+01 -0.23745806322E+02 -0.15984182871E+02  0.95820009192E+02  0.91268846262E+02 0.  0.
         13    1    3    3    0    0 -0.39279777291E+02 -0.25985968338E+02 -0.33552222320E+02  0.57826760597E+02  0.10566000000E+00 0. -1.
         22    1    1    0    0    0  0.56669607049E+01  0.23745806322E+02  0.15984182871E+02  0.29179990808E+02  0.00000000000E+00 0.  1.
</event>
<event>
 5    1  0.1751027E-003  0.9118800E+02  0.7818608E-02  0.1130116E+00
         25   -1    0    0    0    0  0.00000000000E+00  0.00000000000E+00  0.99999998245E-14  0.12500000000E+03  0.12500000000E+03 0.  0.
        -13    1    3    3    0    0 -0.11710425494E+02 -0.28982323447E+01 -0.32965305303E+02  0.35103508852E+02  0.10566000000E+00 0. -1.
         23    2    1    0    0    0 -0.10295263743E+02  0.16033331874E+01  0.27416942202E+02  0.95669949666E+02  0.91063095799E+02 0.  0.
         13    1    3    3    0    0  0.14151617508E+01  0.45015655321E+01  0.60382247506E+02  0.60566440814E+02  0.10566000000E+00 0.  1.
         22    1    1    0    0    0  0.10295263743E+02 -0.16033331874E+01 -0.27416942202E+02  0.29330050334E+02  0.00000000000E+00 0.  1.
</event>
<event>
 5    1  0.1751027E-003  0.9118800E+02  0.7818608E-02  0.1130116E+00
         25   -1    0    0    0    0  0.00000000000E+00  0.00000000000E+00  0.99999998245E-14  0.12500000000E+03  0.12500000000E+03 0.  0.
        -13    1    3    3    0    0  0.41283418211E+02 -0.22692622646E+02 -0.11576085100E+00  0.47109450287E+02  0.10566000000E+00 0. -1.
         23    2    1    0    0    0  0.84513659461E+01  0.22462554573E+01 -0.27192865725E+02  0.96435630652E+02  0.92108130276E+02 0.  0.
         13    1    3    3    0    0 -0.32832052265E+02  0.24938878104E+02 -0.27077104874E+02  0.49326180365E+02  0.10566000000E+00 0.  1.
         22    1    1    0    0    0 -0.84513659461E+01 -0.22462554573E+01  0.27192865725E+02  0.28564369348E+02  0.00000000000E+00 0. -1.
</event>
<event>
 5    1  0.1751027E-003  0.9118800E+02  0.7818608E-02  0.1130116E+00
         25   -1    0    0    0    0  0.00000000000E+00  0.00000000000E+00  0.99999998245E-14  0.12500000000E+03  0.12500000000E+03 0.  0.
        -13    1    3    3    0    0 -0.40400700015E+02 -0.16097877153E+01  0.33049803602E+02  0.52221725942E+02  0.10566000000E+00 0.  1.
         23    2    1    0    0    0 -0.21959422004E+02  0.21835910469E+02  0.41494164420E+01  0.93755146702E+02  0.88395625885E+02 0.  0.
         13    1    3    3    0    0  0.18441278010E+02  0.23445698184E+02 -0.28900387160E+02  0.41533420760E+02  0.10566000000E+00 0. -1.
         22    1    1    0    0    0  0.21959422004E+02 -0.21835910469E+02 -0.41494164420E+01  0.31244853298E+02  0.00000000000E+00 0.  1.
</event>
<event>
 5    1  0.1751027E-003  0.9118800E+02  0.7818608E-02  0.1130116E+00
         25   -1    0    0    0    0  0.00000000000E+00  0.00000000000E+00  0.99999998245E-14  0.12500000000E+03  0.12500000000E+03 0.  0.
        -13    1    3    3    0    0 -0.30597888997E+02  0.11452780043E+02  0.25321993533E+02  0.41335354145E+02  0.10566000000E+00 0.  1.
         23    2    1    0    0    0  0.16877710671E+02 -0.15445350218E+02  0.16920585530E+02  0.96544382355E+02  0.92255599228E+02 0.  0.
         13    1    3    3    0    0  0.47475599669E+02 -0.26898130261E+02 -0.84014080032E+01  0.55209028210E+02  0.10566000000E+00 0. -1.
         22    1    1    0    0    0 -0.16877710671E+02  0.15445350218E+02 -0.16920585530E+02  0.28455617645E+02  0.00000000000E+00 0. -1.
</event>
<event>
 5    1  0.1751027E-003  0.9118800E+02  0.7818608E-02  0.1130116E+00
         25   -1    0    0    0    0  0.00000000000E+00  0.00000000000E+00  0.99999998245E-14  0.12500000000E+03  0.12500000000E+03 0.  0.
        -13    1    3    3    0    0  0.21287978972E+02  0.32664887982E+02 -0.48284659776E+01  0.39287379696E+02  0.10566000000E+00 0.  1.
         23    2    1    0    0    0  0.61065116635E+01 -0.19192057545E+02 -0.21211608882E+02  0.95750095575E+02  0.91173043680E+02 0.  0.
         13    1    3    3    0    0 -0.15181467309E+02 -0.51856945527E+02 -0.16383142904E+02  0.56462715880E+02  0.10566000000E+00 0. -1.
         22    1    1    0    0    0 -0.61065116635E+01  0.19192057545E+02  0.21211608882E+02  0.29249904425E+02  0.00000000000E+00 0.  1.
</event>
<event>
 5    1  0.1751027E-003  0.9118800E+02  0.7818608E-02  0.1130116E+00
         25   -1    0    0    0    0  0.00000000000E+00  0.00000000000E+00  0.99999998245E-14  0.12500000000E+03  0.12500000000E+03 0.  0.
        -13    1    3    3    0    0 -0.19146790872E+02 -0.74370373828E+01 -0.40365876387E+02  0.45291547404E+02  0.10566000000E+00 0.  1.
         23    2    1    0    0    0  0.11928666499E+02 -0.26174846208E+02 -0.53050718898E+01  0.95750052202E+02  0.91172984213E+02 0.  0.
         13    1    3    3    0    0  0.31075457371E+02 -0.18737808825E+02  0.35060804497E+02  0.50458504798E+02  0.10566000000E+00 0. -1.
         22    1    1    0    0    0 -0.11928666499E+02  0.26174846208E+02  0.53050718898E+01  0.29249947798E+02  0.00000000000E+00 0.  1.
</event>
<event>
 5    1  0.1751027E-003  0.9118800E+02  0.7818608E-02  0.1130116E+00
         25   -1    0    0    0    0  0.00000000000E+00  0.00000000000E+00  0.99999998245E-14  0.12500000000E+03  0.12500000000E+03 0.  0.
        -13    1    3    3    0    0 -0.28063673228E+02 -0.65278981342E+01  0.90536021748E+01  0.30202021215E+02  0.10566000000E+00 0.  1.
         23    2    1    0    0    0  0.14785379408E+02  0.12667761563E+02 -0.28609645890E+02  0.90393765515E+02  0.83507133699E+02 0.  0.
         13    1    3    3    0    0  0.42849052636E+02  0.19195659697E+02 -0.37663248065E+02  0.60191744300E+02  0.10566000000E+00 0. -1.
         22    1    1    0    0    0 -0.14785379408E+02 -0.12667761563E+02  0.28609645890E+02  0.34606234485E+02  0.00000000000E+00 0. -1.
</event>
<event>
 5    1  0.1751027E-003  0.9118800E+02  0.7818608E-02  0.1130116E+00
         25   -1    0    0    0    0  0.00000000000E+00  0.00000000000E+00  0.99999998245E-14  0.12500000000E+03  0.12500000000E+03 0.  0.
        -13    1    3    3    0    0 -0.37429868232E+01  0.43819888370E+02 -0.31220200112E+02  0.53934262081E+02  0.10566000000E+00 0. -1.
         23    2    1    0    0    0 -0.16663046694E+02  0.43408795512E+01 -0.22982130350E+02  0.96282780848E+02  0.91900463612E+02 0.  0.
         13    1    3    3    0    0 -0.12920059871E+02 -0.39479008819E+02  0.82380697629E+01  0.42348518768E+02  0.10566000000E+00 0.  1.
         22    1    1    0    0    0  0.16663046694E+02 -0.43408795512E+01  0.22982130350E+02  0.28717219152E+02  0.00000000000E+00 0. -1.
</event>
<event>
 5    1  0.1751027E-003  0.9118800E+02  0.7818608E-02  0.1130116E+00
         25   -1    0    0    0    0  0.00000000000E+00  0.00000000000E+00  0.99999998245E-14  0.12500000000E+03  0.12500000000E+03 0.  0.
        -13    1    3    3    0    0  0.25223134014E+01 -0.40176951583E+01  0.39553632291E+02  0.39837230460E+02  0.10566000000E+00 0.  1.
         23    2    1    0    0    0  0.12891310905E+02 -0.20788144907E+02 -0.13937785881E+02  0.96846940827E+02  0.92664638384E+02 0.  0.
         13    1    3    3    0    0  0.10368997503E+02 -0.16770449749E+02 -0.53491418172E+02  0.57009710367E+02  0.10566000000E+00 0. -1.
         22    1    1    0    0    0 -0.12891310905E+02  0.20788144907E+02  0.13937785881E+02  0.28153059173E+02  0.00000000000E+00 0. -1.
</event>
<event>
 5    1  0.1751027E-003  0.9118800E+02  0.7818608E-02  0.1130116E+00
         25   -1    0    0    0    0  0.00000000000E+00  0.00000000000E+00  0.99999998245E-14  0.12500000000E+03  0.12500000000E+03 0.  0.
        -13    1    3    3    0    0  0.25152491604E+02 -0.20809956201E+00 -0.18575504901E+02  0.31269021182E+02  0.10566000000E+00 0. -1.
         23    2    1    0    0    0 -0.20950543421E+02  0.29010888987E+02 -0.15686616949E+02  0.85927926843E+02  0.76530919966E+02 0.  0.
         13    1    3    3    0    0 -0.46103035026E+02  0.29218988549E+02  0.28888879526E+01  0.54658905661E+02  0.10566000000E+00 0.  1.
         22    1    1    0    0    0  0.20950543421E+02 -0.29010888987E+02  0.15686616949E+02  0.39072073157E+02  0.00000000000E+00 0.  1.
</event>
<event>
 5    1  0.1751027E-003  0.9118800E+02  0.7818608E-02  0.1130116E+00
         25   -1    0    0    0    0  0.00000000000E+00  0.00000000000E+00  0.99999998245E-14  0.12500000000E+03  0.12500000000E+03 0.  0.
        -13    1    3    3    0    0 -0.15270493770E+02 -0.53770201266E+02  0.22019590444E+02  0.60077417151E+02  0.10566000000E+00 0. -1.
         23    2    1    0    0    0 -0.18112883121E+02 -0.23651922988E+02  0.49879051554E+01  0.94794550263E+02  0.89853422671E+02 0.  0.
         13    1    3    3    0    0 -0.28423893513E+01  0.30118278278E+02 -0.17031685289E+02  0.34717133111E+02  0.10566000000E+00 0.  1.
         22    1    1    0    0    0  0.18112883121E+02  0.23651922988E+02 -0.49879051554E+01  0.30205449737E+02  0.00000000000E+00 0. -1.
</event>
<event>
 5    1  0.1751027E-003  0.9118800E+02  0.7818608E-02  0.1130116E+00
         25   -1    0    0    0    0  0.00000000000E+00  0.00000000000E+00  0.99999998245E-14  0.12500000000E+03  0.12500000000E+03 0.  0.
        -13    1    3    3    0    0  0.60333830121E+01 -0.45138854160E+02 -0.25348302764E+02  0.52119722587E+02  0.10566000000E+00 0.  1.
         23    2    1    0    0    0 -0.10678895629E+02 -0.28364170368E+02  0.85864851328E+01  0.93499322239E+02  0.88033121947E+02 0.  0.
         13    1    3    3    0    0 -0.16712278641E+02  0.16774683792E+02  0.33934787897E+02  0.41379599652E+02  0.10566000000E+00 0. -1.
         22    1    1    0    0    0  0.10678895629E+02  0.28364170368E+02 -0.85864851328E+01  0.31500677761E+02  0.00000000000E+00 0.  1.
</event>
<event>
 5    1  0.1751027E-003  0.9118800E+02  0.7818608E-02  0.1130116E+00
         25   -1    0    0    0    0  0.00000000000E+00  0.00000000000E+00  0.99999998245E-14  0.12500000000E+03  0.12500000000E+03 0.  0.
        -13    1    3    3    0    0  0.36647619416E+01  0.25976286584E+02 -0.56421492585E+02  0.62222133798E+02  0.10566000000E+00 0.  1.
         23    2    1    0    0    0  0.50861752474E+01  0.96952589380E+01 -0.26735492199E+02  0.96109625000E+02  0.91664640129E+02 0.  0.
         13    1    3    3    0    0  0.14214133058E+01 -0.16281027646E+02  0.29686000386E+02  0.33887491202E+02  0.10566000000E+00 0. -1.
         22    1    1    0    0    0 -0.50861752474E+01 -0.96952589380E+01  0.26735492199E+02  0.28890375000E+02  0.00000000000E+00 0.  1.
</event>
<event>
 5    1  0.1751027E-003  0.9118800E+02  0.7818608E-02  0.1130116E+00
         25   -1    0    0    0    0  0.00000000000E+00  0.00000000000E+00  0.99999998245E-14  0.12500000000E+03  0.12500000000E+03 0.  0.
        -13    1    3    3    0    0  0.56740122594E+01  0.26707979847E+02 -0.20891457221E+02  0.34379859678E+02  0.10566000000E+00 0.  1.
         23    2    1    0    0    0 -0.43358394376E+01 -0.19193746414E+02  0.20203441521E+02  0.96797545243E+02  0.92597982218E+02 0.  0.
         13    1    3    3    0    0 -0.10009851697E+02 -0.45901726261E+02  0.41094898741E+02  0.62417685565E+02  0.10566000000E+00 0. -1.
         22    1    1    0    0    0  0.43358394376E+01  0.19193746414E+02 -0.20203441521E+02  0.28202454757E+02  0.00000000000E+00 0. -1.
</event>
<event>
 5    1  0.1751027E-003  0.9118800E+02  0.7818608E-02  0.1130116E+00
         25   -1    0    0    0    0  0.00000000000E+00  0.00000000000E+00  0.99999998245E-14  0.12500000000E+03  0.12500000000E+03 0.  0.
        -13    1    3    3    0    0  0.42524535409E+02  0.11033133298E+02 -0.39537467822E+02  0.59104049506E+02  0.10566000000E+00 0. -1.
         23    2    1    0    0    0  0.13087360634E+02  0.18127289240E+02 -0.18582481483E+02  0.95927913016E+02  0.91416509745E+02 0.  0.
         13    1    3    3    0    0 -0.29437174776E+02  0.70941559420E+01  0.20954986339E+02  0.36823863510E+02  0.10566000000E+00 0.  1.
         22    1    1    0    0    0 -0.13087360634E+02 -0.18127289240E+02  0.18582481483E+02  0.29072086984E+02  0.00000000000E+00 0. -1.
</event>
<event>
 5    1  0.1751027E-003  0.9118800E+02  0.7818608E-02  0.1130116E+00
         25   -1    0    0    0    0  0.00000000000E+00  0.00000000000E+00  0.99999998245E-14  0.12500000000E+03  0.12500000000E+03 0.  0.
        -13    1    3    3    0    0  0.41992714886E+01  0.52078816618E+02 -0.16513391199E+02  0.54795440269E+02  0.10566000000E+00 0. -1.
         23    2    1    0    0    0 -0.16536490797E+02  0.24118975102E+02  0.44342237334E+01  0.95422257896E+02  0.90722458488E+02 0.  0.
         13    1    3    3    0    0 -0.20735762285E+02 -0.27959841516E+02  0.20947614932E+02  0.40626817627E+02  0.10566000000E+00 0.  1.
         22    1    1    0    0    0  0.16536490797E+02 -0.24118975102E+02 -0.44342237334E+01  0.29577742104E+02  0.00000000000E+00 0. -1.
</event>
<event>
 5    1  0.1751027E-003  0.9118800E+02  0.7818608E-02  0.1130116E+00
         25   -1    0    0    0    0  0.00000000000E+00  0.00000000000E+00  0.99999998245E-14  0.12500000000E+03  0.12500000000E+03 0.  0.
        -13    1    3    3    0    0  0.33667156995E+02  0.25367028038E+02  0.25678902232E+02  0.49359707814E+02  0.10566000000E+00 0.  1.
         23    2    1    0    0    0  0.28277355388E+02  0.49260310700E+01 -0.13039854078E+02  0.93473623675E+02  0.87996624473E+02 0.  0.
         13    1    3    3    0    0 -0.53898016073E+01 -0.20440996968E+02 -0.38718756309E+02  0.44113915861E+02  0.10566000000E+00 0. -1.
         22    1    1    0    0    0 -0.28277355388E+02 -0.49260310700E+01  0.13039854078E+02  0.31526376325E+02  0.00000000000E+00 0. -1.
</event>
<event>
 5    1  0.1751027E-003  0.9118800E+02  0.7818608E-02  0.1130116E+00
         25   -1    0    0    0    0  0.00000000000E+00  0.00000000000E+00  0.99999998245E-14  0.12500000000E+03  0.12500000000E+03 0.  0.
        -13    1    3    3    0    0 -0.14422266363E+02  0.35617633315E+02 -0.47441622240E+02  0.61051914424E+02  0.10566000000E+00 0.  1.
         23    2    1    0    0    0 -0.11094217905E+01  0.11145911428E+02 -0.27482626332E+02  0.95322451105E+02  0.90584837453E+02 0.  0.
         13    1    3    3    0    0  0.13312844573E+02 -0.24471721887E+02  0.19958995907E+02  0.34270536681E+02  0.10566000000E+00 0. -1.
         22    1    1    0    0    0  0.11094217905E+01 -0.11145911428E+02  0.27482626332E+02  0.29677548895E+02  0.00000000000E+00 0.  1.
</event>
<event>
 5    1  0.1751027E-003  0.9118800E+02  0.7818608E-02  0.1130116E+00
         25   -1    0    0    0    0  0.00000000000E+00  0.00000000000E+00  0.99999998245E-14  0.12500000000E+03  0.12500000000E+03 0.  0.
        -13    1    3    3    0    0 -0.18998198425E+01  0.11504012995E+02  0.50893383541E+02  0.52212060701E+02  0.10566000000E+00 0.  1.
         23    2    1    0    0    0 -0.11973182556E+02  0.25453311709E+02  0.12630787259E+02  0.94165523123E+02  0.88974045546E+02 0.  0.
         13    1    3    3    0    0 -0.10073362713E+02  0.13949298714E+02 -0.38262596282E+02  0.41953462422E+02  0.10566000000E+00 0. -1.
         22    1    1    0    0    0  0.11973182556E+02 -0.25453311709E+02 -0.12630787259E+02  0.30834476877E+02  0.00000000000E+00 0.  1.
</event>
<event>
 5    1  0.1751027E-003  0.9118800E+02  0.7818608E-02  0.1130116E+00
         25   -1    0    0    0    0  0.00000000000E+00  0.00000000000E+00  0.99999998245E-14  0.12500000000E+03  0.12500000000E+03 0.  0.
        -13    1    3    3    0    0 -0.32676351376E+02 -0.16765113124E+01  0.48203773710E+02  0.58259502172E+02  0.10566000000E+00 0.  1.
         23    2    1    0    0    0 -0.96038066167E+01  0.14574101666E+02  0.23227191641E+02  0.95945912982E+02  0.91441119009E+02 0.  0.
         13    1    3    3    0    0  0.23072544759E+02  0.16250612979E+02 -0.24976582069E+02  0.37686410810E+02  0.10566000000E+00 0. -1.
         22    1    1    0    0    0  0.96038066167E+01 -0.14574101666E+02 -0.23227191641E+02  0.29054087018E+02  0.00000000000E+00 0.  1.
</event>
<event>
 5    1  0.1751027E-003  0.9118800E+02  0.7818608E-02  0.1130116E+00
         25   -1    0    0    0    0  0.00000000000E+00  0.00000000000E+00  0.99999998245E-14  0.12500000000E+03  0.12500000000E+03 0.  0.
        -13    1    3    3    0    0 -0.16878805127E+02  0.20478031044E+02 -0.50987469078E+02  0.57480231253E+02  0.10566000000E+00 0.  1.
         23    2    1    0    0    0 -0.21462372266E+02  0.13917510970E+02 -0.12991368049E+02  0.96310172906E+02  0.91937713842E+02 0.  0.
         13    1    3    3    0    0 -0.45835671399E+01 -0.65605200738E+01  0.37996101029E+02  0.38829941653E+02  0.10566000000E+00 0. -1.
         22    1    1    0    0    0  0.21462372266E+02 -0.13917510970E+02  0.12991368049E+02  0.28689827094E+02  0.00000000000E+00 0.  1.
</event>
<event>
 5    1  0.1751027E-003  0.9118800E+02  0.7818608E-02  0.1130116E+00
         25   -1    0    0    0    0  0.00000000000E+00  0.00000000000E+00  0.99999998245E-14  0.12500000000E+03  0.12500000000E+03 0.  0.
        -13    1    3    3    0    0 -0.18805640287E+01  0.11280159459E+02 -0.36256607930E+02  0.38017513085E+02  0.10566000000E+00 0. -1.
         23    2    1    0    0    0 -0.24071779029E+02 -0.12198005093E+02  0.11492556216E+02  0.95668775644E+02  0.91061484234E+02 0.  0.
         13    1    3    3    0    0 -0.22191215000E+02 -0.23478164552E+02  0.47749164147E+02  0.57651262559E+02  0.10566000000E+00 0.  1.
         22    1    1    0    0    0  0.24071779029E+02  0.12198005093E+02 -0.11492556216E+02  0.29331224356E+02  0.00000000000E+00 0.  1.
</event>
<event>
 5    1  0.1751027E-003  0.9118800E+02  0.7818608E-02  0.1130116E+00
         25   -1    0    0    0    0  0.00000000000E+00  0.00000000000E+00  0.99999998245E-14  0.12500000000E+03  0.12500000000E+03 0.  0.
        -13    1    3    3    0    0  0.56696123471E+01  0.42543120570E+02  0.54244945140E+01  0.43260812715E+02  0.10566000000E+00 0.  1.
         23    2    1    0    0    0  0.25109755909E+02  0.24869563446E+01 -0.18411707957E+02  0.93764190686E+02  0.88408414031E+02 0.  0.
         13    1    3    3    0    0  0.19440143561E+02 -0.40056164226E+02 -0.23836202470E+02  0.50503377970E+02  0.10566000000E+00 0. -1.
         22    1    1    0    0    0 -0.25109755909E+02 -0.24869563446E+01  0.18411707957E+02  0.31235809314E+02  0.00000000000E+00 0. -1.
</event>
<event>
 5    1  0.1751027E-003  0.9118800E+02  0.7818608E-02  0.1130116E+00
         25   -1    0    0    0    0  0.00000000000E+00  0.00000000000E+00  0.99999998245E-14  0.12500000000E+03  0.12500000000E+03 0.  0.
        -13    1    3    3    0    0  0.40153389261E+01 -0.33485248608E+02  0.28574328271E+02  0.44202807843E+02  0.10566000000E+00 0. -1.
         23    2    1    0    0    0 -0.81031348175E+01 -0.19938505839E+02 -0.19723183021E+02  0.95807385224E+02  0.91251555088E+02 0.  0.
         13    1    3    3    0    0 -0.12118473744E+02  0.13546742769E+02 -0.48297511293E+02  0.51604577380E+02  0.10566000000E+00 0.  1.
         22    1    1    0    0    0  0.81031348175E+01  0.19938505839E+02  0.19723183021E+02  0.29192614776E+02  0.00000000000E+00 0.  1.
</event>
<event>
 5    1  0.1751027E-003  0.9118800E+02  0.7818608E-02  0.1130116E+00
         25   -1    0    0    0    0  0.00000000000E+00  0.00000000000E+00  0.99999998245E-14  0.12500000000E+03  0.12500000000E+03 0.  0.
        -13    1    3    3    0    0 -0.12973897344E+02 -0.37302516194E+02 -0.26308685772E+02  0.47454797837E+02  0.10566000000E+00 0. -1.
         23    2    1    0    0    0 -0.15875249502E+02  0.12697312222E+02 -0.17223419569E+02  0.98356211491E+02  0.94678682251E+02 0.  0.
         13    1    3    3    0    0 -0.29013521588E+01  0.49999828416E+02  0.90852662027E+01  0.50901413654E+02  0.10566000000E+00 0.  1.
         22    1    1    0    0    0  0.15875249502E+02 -0.12697312222E+02  0.17223419569E+02  0.26643788509E+02  0.00000000000E+00 0.  1.
</event>
<event>
 5    1  0.1751027E-003  0.9118800E+02  0.7818608E-02  0.1130116E+00
         25   -1    0    0    0    0  0.00000000000E+00  0.00000000000E+00  0.99999998245E-14  0.12500000000E+03  0.12500000000E+03 0.  0.
        -13    1    3    3    0    0  0.10024449422E+02 -0.45047212686E+02 -0.17970514374E+02  0.49524655556E+02  0.10566000000E+00 0.  1.
         23    2    1    0    0    0  0.30204246497E+02 -0.96593265645E+01 -0.21847590047E+01  0.93213646512E+02  0.87626546366E+02 0.  0.
         13    1    3    3    0    0  0.20179797076E+02  0.35387886122E+02  0.15785755370E+02  0.43688990957E+02  0.10566000000E+00 0. -1.
         22    1    1    0    0    0 -0.30204246497E+02  0.96593265645E+01  0.21847590047E+01  0.31786353488E+02  0.00000000000E+00 0. -1.
</event>
<event>
 5    1  0.1751027E-003  0.9118800E+02  0.7818608E-02  0.1130116E+00
         25   -1    0    0    0    0  0.00000000000E+00  0.00000000000E+00  0.99999998245E-14  0.12500000000E+03  0.12500000000E+03 0.  0.
        -13    1    3    3    0    0 -0.11391561873E+02 -0.55532642190E+02 -0.62788389137E+01  0.57035752056E+02  0.10566000000E+00 0.  1.
         23    2    1    0    0    0 -0.11285964239E+02 -0.21061303686E+02 -0.19703653647E+02  0.94029280461E+02  0.88782431343E+02 0.  0.
         13    1    3    3    0    0  0.10559763405E+00  0.34471338504E+02 -0.13424814733E+02  0.36993528404E+02  0.10566000000E+00 0. -1.
         22    1    1    0    0    0  0.11285964239E+02  0.21061303686E+02  0.19703653647E+02  0.30970719539E+02  0.00000000000E+00 0.  1.
</event>
<event>
 5    1  0.1751027E-003  0.9118800E+02  0.7818608E-02  0.1130116E+00
         25   -1    0    0    0    0  0.00000000000E+00  0.00000000000E+00  0.99999998245E-14  0.12500000000E+03  0.12500000000E+03 0.  0.
        -13    1    3    3    0    0 -0.21496843486E+02 -0.69630173174E+01 -0.28642752755E+02  0.36483096626E+02  0.10566000000E+00 0.  1.
         23    2    1    0    0    0  0.66000369850E+01 -0.16887997704E+02  0.22761176806E+02  0.95899551133E+02  0.91377720388E+02 0.  0.
         13    1    3    3    0    0  0.28096880471E+02 -0.99249803869E+01  0.51403929560E+02  0.59416454507E+02  0.10566000000E+00 0. -1.
         22    1    1    0    0    0 -0.66000369850E+01  0.16887997704E+02 -0.22761176806E+02  0.29100448867E+02  0.00000000000E+00 0. -1.
</event>
<event>
 5    1  0.1751027E-003  0.9118800E+02  0.7818608E-02  0.1130116E+00
         25   -1    0    0    0    0  0.00000000000E+00  0.00000000000E+00  0.99999998245E-14  0.12500000000E+03  0.12500000000E+03 0.  0.
        -13    1    3    3    0    0  0.20715633029E+02 -0.31370951949E+02 -0.18241808066E+00  0.37594128776E+02  0.10566000000E+00 0.  1.
         23    2    1    0    0    0 -0.22074901677E+02  0.47055657288E+01  0.17663014907E+02  0.96339474386E+02  0.91977543979E+02 0.  0.
         13    1    3    3    0    0 -0.42790534707E+02  0.36076517678E+02  0.17845432988E+02  0.58745345610E+02  0.10566000000E+00 0. -1.
         22    1    1    0    0    0  0.22074901677E+02 -0.47055657288E+01 -0.17663014907E+02  0.28660525614E+02  0.00000000000E+00 0. -1.
</event>
<event>
 5    1  0.1751027E-003  0.9118800E+02  0.7818608E-02  0.1130116E+00
         25   -1    0    0    0    0  0.00000000000E+00  0.00000000000E+00  0.99999998245E-14  0.12500000000E+03  0.12500000000E+03 0.  0.
        -13    1    3    3    0    0 -0.55736609725E+02  0.15351307943E+02 -0.18456982235E+02  0.60686931678E+02  0.10566000000E+00 0.  1.
         23    2    1    0    0    0 -0.33654837656E+02  0.36318021683E+01 -0.10795964158E+01  0.91132558215E+02  0.84605789127E+02 0.  0.
         13    1    3    3    0    0  0.22081772069E+02 -0.11719505775E+02  0.17377385820E+02  0.30445626537E+02  0.10566000000E+00 0. -1.
         22    1    1    0    0    0  0.33654837656E+02 -0.36318021683E+01  0.10795964158E+01  0.33867441785E+02  0.00000000000E+00 0.  1.
</event>
<event>
 5    1  0.1751027E-003  0.9118800E+02  0.7818608E-02  0.1130116E+00
         25   -1    0    0    0    0  0.00000000000E+00  0.00000000000E+00  0.99999998245E-14  0.12500000000E+03  0.12500000000E+03 0.  0.
        -13    1    3    3    0    0 -0.49774607011E+02  0.15844396180E+02  0.10467110441E+02  0.53274083366E+02  0.10566000000E+00 0. -1.
         23    2    1    0    0    0 -0.17052400281E+02  0.26484074076E+02 -0.82423595715E+01  0.92440408075E+02  0.86516484087E+02 0.  0.
         13    1    3    3    0    0  0.32722206731E+02  0.10639677897E+02 -0.18709470013E+02  0.39166324710E+02  0.10566000000E+00 0.  1.
         22    1    1    0    0    0  0.17052400281E+02 -0.26484074076E+02  0.82423595715E+01  0.32559591925E+02  0.00000000000E+00 0. -1.
</event>
<event>
 5    1  0.1751027E-003  0.9118800E+02  0.7818608E-02  0.1130116E+00
         25   -1    0    0    0    0  0.00000000000E+00  0.00000000000E+00  0.99999998245E-14  0.12500000000E+03  0.12500000000E+03 0.  0.
        -13    1    3    3    0    0  0.25247488510E+02  0.45152008727E+02 -0.32894062428E+02  0.61303915660E+02  0.10566000000E+00 0. -1.
         23    2    1    0    0    0  0.56736272534E+01  0.27488007491E+02 -0.14922494036E+02  0.93212244019E+02  0.87624545675E+02 0.  0.
         13    1    3    3    0    0 -0.19573861257E+02 -0.17664001236E+02  0.17971568392E+02  0.31908328359E+02  0.10566000000E+00 0.  1.
         22    1    1    0    0    0 -0.56736272534E+01 -0.27488007491E+02  0.14922494036E+02  0.31787755981E+02  0.00000000000E+00 0. -1.
</event>
<event>
 5    1  0.1751027E-003  0.9118800E+02  0.7818608E-02  0.1130116E+00
         25   -1    0    0    0    0  0.00000000000E+00  0.00000000000E+00  0.99999998245E-14  0.12500000000E+03  0.12500000000E+03 0.  0.
        -13    1    3    3    0    0  0.22523354671E+02  0.20285285344E+02 -0.23451220263E+02  0.38324472637E+02  0.10566000000E+00 0.  1.
         23    2    1    0    0    0 -0.26647531260E+02 -0.65263793818E+01 -0.74437296060E+01  0.96573011758E+02  0.92294381950E+02 0.  0.
         13    1    3    3    0    0 -0.49170885930E+02 -0.26811664725E+02  0.16007490656E+02  0.58248539121E+02  0.10566000000E+00 0. -1.
         22    1    1    0    0    0  0.26647531260E+02  0.65263793818E+01  0.74437296060E+01  0.28426988242E+02  0.00000000000E+00 0. -1.
</event>
<event>
 5    1  0.1751027E-003  0.9118800E+02  0.7818608E-02  0.1130116E+00
         25   -1    0    0    0    0  0.00000000000E+00  0.00000000000E+00  0.99999998245E-14  0.12500000000E+03  0.12500000000E+03 0.  0.
        -13    1    3    3    0    0 -0.35671529944E+00 -0.26631350525E+02 -0.36801473262E+02  0.45428137480E+02  0.10566000000E+00 0.  1.
         23    2    1    0    0    0  0.23401196164E+02 -0.11575185966E+02  0.74394069499E+01  0.97853256405E+02  0.94012308243E+02 0.  0.
         13    1    3    3    0    0  0.23757911464E+02  0.15056164558E+02  0.44240880212E+02  0.52425118925E+02  0.10566000000E+00 0. -1.
         22    1    1    0    0    0 -0.23401196164E+02  0.11575185966E+02 -0.74394069499E+01  0.27146743595E+02  0.00000000000E+00 0. -1.
</event>
<event>
 5    1  0.1751027E-003  0.9118800E+02  0.7818608E-02  0.1130116E+00
         25   -1    0    0    0    0  0.00000000000E+00  0.00000000000E+00  0.99999998245E-14  0.12500000000E+03  0.12500000000E+03 0.  0.
        -13    1    3    3    0    0 -0.36170509048E+02 -0.14187938189E+02  0.22900398486E+02  0.45100362855E+02  0.10566000000E+00 0. -1.
         23    2    1    0    0    0 -0.19076038029E+02  0.10247808741E+01 -0.22222974085E+02  0.95694608347E+02  0.91096937856E+02 0.  0.
         13    1    3    3    0    0  0.17094471018E+02  0.15212719063E+02 -0.45123372571E+02  0.50594245492E+02  0.10566000000E+00 0.  1.
         22    1    1    0    0    0  0.19076038029E+02 -0.10247808741E+01  0.22222974085E+02  0.29305391653E+02  0.00000000000E+00 0.  1.
</event>
<event>
 5    1  0.1751027E-003  0.9118800E+02  0.7818608E-02  0.1130116E+00
         25   -1    0    0    0    0  0.00000000000E+00  0.00000000000E+00  0.99999998245E-14  0.12500000000E+03  0.12500000000E+03 0.  0.
        -13    1    3    3    0    0  0.19257782539E+02 -0.19276017020E+02  0.20186087982E+02  0.33910416283E+02  0.10566000000E+00 0. -1.
         23    2    1    0    0    0 -0.51773944103E+01  0.31741443055E+02  0.93627143291E+01  0.91503954865E+02  0.85152737573E+02 0.  0.
         13    1    3    3    0    0 -0.24435176949E+02  0.51017460075E+02 -0.10823373653E+02  0.57593538581E+02  0.10566000000E+00 0.  1.
         22    1    1    0    0    0  0.51773944103E+01 -0.31741443055E+02 -0.93627143291E+01  0.33496045135E+02  0.00000000000E+00 0.  1.
</event>
<event>
 5    1  0.1751027E-003  0.9118800E+02  0.7818608E-02  0.1130116E+00
         25   -1    0    0    0    0  0.00000000000E+00  0.00000000000E+00  0.99999998245E-14  0.12500000000E+03  0.12500000000E+03 0.  0.
        -13    1    3    3    0    0 -0.42789457230E+02  0.82262019405E+01 -0.19529489014E+01  0.43616891474E+02  0.10566000000E+00 0. -1.
         23    2    1    0    0    0 -0.36610407426E+01 -0.25784793756E+02 -0.11833962990E+02  0.96394030546E+02  0.92051657435E+02 0.  0.
         13    1    3    3    0    0  0.39128416488E+02 -0.34010995697E+02 -0.98810140881E+01  0.52777139071E+02  0.10566000000E+00 0.  1.
         22    1    1    0    0    0  0.36610407426E+01  0.25784793756E+02  0.11833962990E+02  0.28605969454E+02  0.00000000000E+00 0.  1.
</event>
<event>
 5    1  0.1751027E-003  0.9118800E+02  0.7818608E-02  0.1130116E+00
         25   -1    0    0    0    0  0.00000000000E+00  0.00000000000E+00  0.99999998245E-14  0.12500000000E+03  0.12500000000E+03 0.  0.
        -13    1    3    3    0    0  0.27878026643E+01 -0.59027328455E+02  0.27378059994E+00  0.59093853048E+02  0.10566000000E+00 0.  1.
         23    2    1    0    0    0  0.96059187896E+01 -0.24213161353E+02  0.11810979944E+02  0.96398424768E+02  0.92057624301E+02 0.  0.
         13    1    3    3    0    0  0.68181161252E+01  0.34814167102E+02  0.11537199345E+02  0.37304571720E+02  0.10566000000E+00 0. -1.
         22    1    1    0    0    0 -0.96059187896E+01  0.24213161353E+02 -0.11810979944E+02  0.28601575232E+02  0.00000000000E+00 0.  1.
</event>
<event>
 5    1  0.1751027E-003  0.9118800E+02  0.7818608E-02  0.1130116E+00
         25   -1    0    0    0    0  0.00000000000E+00  0.00000000000E+00  0.99999998245E-14  0.12500000000E+03  0.12500000000E+03 0.  0.
        -13    1    3    3    0    0 -0.30999672867E+02  0.44824952790E+01 -0.23166049316E+02  0.38958304465E+02  0.10566000000E+00 0.  1.
         23    2    1    0    0    0  0.24990869407E+02 -0.19733360106E+01 -0.14663665746E+02  0.95957605095E+02  0.91457100728E+02 0.  0.
         13    1    3    3    0    0  0.55990542275E+02 -0.64558312896E+01  0.85023835705E+01  0.56999300630E+02  0.10566000000E+00 0. -1.
         22    1    1    0    0    0 -0.24990869407E+02  0.19733360106E+01  0.14663665746E+02  0.29042394905E+02  0.00000000000E+00 0. -1.
</event>
<event>
 5    1  0.1751027E-003  0.9118800E+02  0.7818608E-02  0.1130116E+00
         25   -1    0    0    0    0  0.00000000000E+00  0.00000000000E+00  0.99999998245E-14  0.12500000000E+03  0.12500000000E+03 0.  0.
        -13    1    3    3    0    0 -0.49157501158E+02  0.72837715376E+01  0.13505261138E+02  0.51496761941E+02  0.10566000000E+00 0. -1.
         23    2    1    0    0    0 -0.69665227577E+01  0.66530368770E+01  0.27427491220E+02  0.95930039325E+02  0.91419417146E+02 0.  0.
         13    1    3    3    0    0  0.42190978401E+02 -0.63073466063E+00  0.13922230082E+02  0.44433277384E+02  0.10566000000E+00 0.  1.
         22    1    1    0    0    0  0.69665227577E+01 -0.66530368770E+01 -0.27427491220E+02  0.29069960675E+02  0.00000000000E+00 0. -1.
</event>
<event>
 5    1  0.1751027E-003  0.9118800E+02  0.7818608E-02  0.1130116E+00
         25   -1    0    0    0    0  0.00000000000E+00  0.00000000000E+00  0.99999998245E-14  0.12500000000E+03  0.12500000000E+03 0.  0.
        -13    1    3    3    0    0  0.51886745834E+02  0.15557958419E+02  0.57675430383E+01  0.54475317164E+02  0.10566000000E+00 0.  1.
         23    2    1    0    0    0  0.25098788066E+02 -0.11408134774E+02 -0.10064033976E+02  0.95650732866E+02  0.91036713564E+02 0.  0.
         13    1    3    3    0    0 -0.26787957768E+02 -0.26966093193E+02 -0.15831577015E+02  0.41175415702E+02  0.10566000000E+00 0. -1.
         22    1    1    0    0    0 -0.25098788066E+02  0.11408134774E+02  0.10064033976E+02  0.29349267134E+02  0.00000000000E+00 0.  1.
</event>
<event>
 5    1  0.1751027E-003  0.9118800E+02  0.7818608E-02  0.1130116E+00
         25   -1    0    0    0    0  0.00000000000E+00  0.00000000000E+00  0.99999998245E-14  0.12500000000E+03  0.12500000000E+03 0.  0.
        -13    1    3    3    0    0 -0.34305663949E+01 -0.27456137139E+02 -0.30552506809E+02  0.41219838533E+02  0.10566000000E+00 0.  1.
         23    2    1    0    0    0 -0.27640327079E+02  0.94644569107E+01  0.14490051315E+01  0.95748277974E+02  0.91170551679E+02 0.  0.
         13    1    3    3    0    0 -0.24209760684E+02  0.36920594049E+02  0.32001511940E+02  0.54528439441E+02  0.10566000000E+00 0. -1.
         22    1    1    0    0    0  0.27640327079E+02 -0.94644569107E+01 -0.14490051315E+01  0.29251722026E+02  0.00000000000E+00 0. -1.
</event>
<event>
 5    1  0.1751027E-003  0.9118800E+02  0.7818608E-02  0.1130116E+00
         25   -1    0    0    0    0  0.00000000000E+00  0.00000000000E+00  0.99999998245E-14  0.12500000000E+03  0.12500000000E+03 0.  0.
        -13    1    3    3    0    0  0.96390294386E+01 -0.44680647966E+02  0.40217460005E+01  0.45885256849E+02  0.10566000000E+00 0.  1.
         23    2    1    0    0    0 -0.18668316799E+02 -0.68318441544E+01 -0.18141442641E+02  0.98087324776E+02  0.94323015187E+02 0.  0.
         13    1    3    3    0    0 -0.28307346237E+02  0.37848803812E+02 -0.22163188641E+02  0.52202067926E+02  0.10566000000E+00 0. -1.
         22    1    1    0    0    0  0.18668316799E+02  0.68318441544E+01  0.18141442641E+02  0.26912675224E+02  0.00000000000E+00 0.  1.
</event>
<event>
 5    1  0.1751027E-003  0.9118800E+02  0.7818608E-02  0.1130116E+00
         25   -1    0    0    0    0  0.00000000000E+00  0.00000000000E+00  0.99999998245E-14  0.12500000000E+03  0.12500000000E+03 0.  0.
        -13    1    3    3    0    0 -0.16124012673E+02 -0.41721319736E+01 -0.31467128198E+02  0.35603114906E+02  0.10566000000E+00 0.  1.
         23    2    1    0    0    0  0.27046833582E+02  0.74892847204E+01  0.86018076062E+01  0.95646777238E+02  0.91031282038E+02 0.  0.
         13    1    3    3    0    0  0.43170846255E+02  0.11661416694E+02  0.40068935805E+02  0.60043662332E+02  0.10566000000E+00 0. -1.
         22    1    1    0    0    0 -0.27046833582E+02 -0.74892847204E+01 -0.86018076062E+01  0.29353222762E+02  0.00000000000E+00 0. -1.
</event>
<event>
 5    1  0.1751027E-003  0.9118800E+02  0.7818608E-02  0.1130116E+00
         25   -1    0    0    0    0  0.00000000000E+00  0.00000000000E+00  0.99999998245E-14  0.12500000000E+03  0.12500000000E+03 0.  0.
        -13    1    3    3    0    0  0.21913910965E+02  0.11432364664E+02  0.46485787598E+02  0.52648438421E+02  0.10566000000E+00 0. -1.
         23    2    1    0    0    0  0.11008571856E+02  0.26043701772E+02  0.74072427543E+01  0.95771070812E+02  0.91201796599E+02 0.  0.
         13    1    3    3    0    0 -0.10905339109E+02  0.14611337107E+02 -0.39078544843E+02  0.43122632390E+02  0.10566000000E+00 0.  1.
         22    1    1    0    0    0 -0.11008571856E+02 -0.26043701772E+02 -0.74072427543E+01  0.29228929188E+02  0.00000000000E+00 0. -1.
</event>
<event>
 5    1  0.1751027E-003  0.9118800E+02  0.7818608E-02  0.1130116E+00
         25   -1    0    0    0    0  0.00000000000E+00  0.00000000000E+00  0.99999998245E-14  0.12500000000E+03  0.12500000000E+03 0.  0.
        -13    1    3    3    0    0 -0.23266151526E+02 -0.18942761246E+02 -0.20492140682E+02  0.36332919016E+02  0.10566000000E+00 0.  1.
         23    2    1    0    0    0 -0.27194415207E+01  0.74190797093E+01  0.28379649049E+02  0.95540831884E+02  0.90885686282E+02 0.  0.
         13    1    3    3    0    0  0.20546710005E+02  0.26361840955E+02  0.48871789732E+02  0.59207912868E+02  0.10566000000E+00 0. -1.
         22    1    1    0    0    0  0.27194415207E+01 -0.74190797093E+01 -0.28379649049E+02  0.29459168116E+02  0.00000000000E+00 0. -1.
</event>
<event>
 5    1  0.1751027E-003  0.9118800E+02  0.7818608E-02  0.1130116E+00
         25   -1    0    0    0    0  0.00000000000E+00  0.00000000000E+00  0.99999998245E-14  0.12500000000E+03  0.12500000000E+03 0.  0.
        -13    1    3    3    0    0  0.20178562594E+02 -0.25938270128E+02  0.36249698591E+02  0.48928724259E+02  0.10566000000E+00 0. -1.
         23    2    1    0    0    0  0.23929072586E+02  0.13230917889E+02  0.17677925985E+02  0.92439797756E+02  0.86515602286E+02 0.  0.
         13    1    3    3    0    0  0.37505099927E+01  0.39169188017E+02 -0.18571772606E+02  0.43511073497E+02  0.10566000000E+00 0.  1.
         22    1    1    0    0    0 -0.23929072586E+02 -0.13230917889E+02 -0.17677925985E+02  0.32560202244E+02  0.00000000000E+00 0. -1.
</event>
<event>
 5    1  0.1751027E-003  0.9118800E+02  0.7818608E-02  0.1130116E+00
         25   -1    0    0    0    0  0.00000000000E+00  0.00000000000E+00  0.99999998245E-14  0.12500000000E+03  0.12500000000E+03 0.  0.
        -13    1    3    3    0    0  0.11212055792E+00  0.32511959786E+02  0.14425825869E+02  0.35569027485E+02  0.10566000000E+00 0. -1.
         23    2    1    0    0    0  0.30570430236E+02 -0.11338974219E+02 -0.42200173194E+01  0.92122468351E+02  0.86055895137E+02 0.  0.
         13    1    3    3    0    0  0.30458309678E+02 -0.43850934006E+02 -0.18645843189E+02  0.56553440866E+02  0.10566000000E+00 0.  1.
         22    1    1    0    0    0 -0.30570430236E+02  0.11338974219E+02  0.42200173194E+01  0.32877531649E+02  0.00000000000E+00 0.  1.
</event>
<event>
 5    1  0.1751027E-003  0.9118800E+02  0.7818608E-02  0.1130116E+00
         25   -1    0    0    0    0  0.00000000000E+00  0.00000000000E+00  0.99999998245E-14  0.12500000000E+03  0.12500000000E+03 0.  0.
        -13    1    3    3    0    0  0.36837764731E+02  0.40735615485E+02 -0.18731547387E+02  0.58028383666E+02  0.10566000000E+00 0.  1.
         23    2    1    0    0    0  0.31130883152E+01  0.23443748181E+02 -0.16825691885E+02  0.95975793637E+02  0.91481956741E+02 0.  0.
         13    1    3    3    0    0 -0.33724676416E+02 -0.17291867304E+02  0.19058555024E+01  0.37947409971E+02  0.10566000000E+00 0. -1.
         22    1    1    0    0    0 -0.31130883152E+01 -0.23443748181E+02  0.16825691885E+02  0.29024206363E+02  0.00000000000E+00 0.  1.
</event>
<event>
 5    1  0.1751027E-003  0.9118800E+02  0.7818608E-02  0.1130116E+00
         25   -1    0    0    0    0  0.00000000000E+00  0.00000000000E+00  0.99999998245E-14  0.12500000000E+03  0.12500000000E+03 0.  0.
        -13    1    3    3    0    0  0.67110893534E+01  0.30873008338E+02 -0.22623383958E+02  0.38858847511E+02  0.10566000000E+00 0.  1.
         23    2    1    0    0    0 -0.14787027901E+02 -0.20979799901E+02 -0.14337118770E+02  0.95599980057E+02  0.90966999589E+02 0.  0.
         13    1    3    3    0    0 -0.21498117255E+02 -0.51852808239E+02  0.82862651886E+01  0.56741132546E+02  0.10566000000E+00 0. -1.
         22    1    1    0    0    0  0.14787027901E+02  0.20979799901E+02  0.14337118770E+02  0.29400019943E+02  0.00000000000E+00 0. -1.
</event>
<event>
 5    1  0.1751027E-003  0.9118800E+02  0.7818608E-02  0.1130116E+00
         25   -1    0    0    0    0  0.00000000000E+00  0.00000000000E+00  0.99999998245E-14  0.12500000000E+03  0.12500000000E+03 0.  0.
        -13    1    3    3    0    0  0.96906103876E+01 -0.48496476411E+02 -0.10480025249E+02  0.50553518643E+02  0.10566000000E+00 0.  1.
         23    2    1    0    0    0 -0.11240219708E+02 -0.20994426140E+02  0.17847347500E+02  0.95240358188E+02  0.90471484717E+02 0.  0.
         13    1    3    3    0    0 -0.20930830096E+02  0.27502050271E+02  0.28327372748E+02  0.44686839544E+02  0.10566000000E+00 0. -1.
         22    1    1    0    0    0  0.11240219708E+02  0.20994426140E+02 -0.17847347500E+02  0.29759641812E+02  0.00000000000E+00 0.  1.
</event>
<event>
 5    1  0.1751027E-003  0.9118800E+02  0.7818608E-02  0.1130116E+00
         25   -1    0    0    0    0  0.00000000000E+00  0.00000000000E+00  0.99999998245E-14  0.12500000000E+03  0.12500000000E+03 0.  0.
        -13    1    3    3    0    0 -0.49226199912E+02  0.25034755729E+01  0.35934018966E+02  0.60997959235E+02  0.10566000000E+00 0.  1.
         23    2    1    0    0    0 -0.26697879990E+02  0.73280310220E+01  0.10308492336E+02  0.95457795464E+02  0.90771409959E+02 0.  0.
         13    1    3    3    0    0  0.22528319922E+02  0.48245554491E+01 -0.25625526630E+02  0.34459836229E+02  0.10566000000E+00 0. -1.
         22    1    1    0    0    0  0.26697879990E+02 -0.73280310220E+01 -0.10308492336E+02  0.29542204536E+02  0.00000000000E+00 0.  1.
</event>
<event>
 5    1  0.1751027E-003  0.9118800E+02  0.7818608E-02  0.1130116E+00
         25   -1    0    0    0    0  0.00000000000E+00  0.00000000000E+00  0.99999998245E-14  0.12500000000E+03  0.12500000000E+03 0.  0.
        -13    1    3    3    0    0  0.31216279888E+02 -0.36975518314E+02 -0.19511013995E+02  0.52176009006E+02  0.10566000000E+00 0. -1.
         23    2    1    0    0    0  0.12836948296E+02 -0.24645444284E+02  0.15187582373E+02  0.93332227362E+02  0.87795539980E+02 0.  0.
         13    1    3    3    0    0 -0.18379331592E+02  0.12330074029E+02  0.34698596369E+02  0.41156218356E+02  0.10566000000E+00 0.  1.
         22    1    1    0    0    0 -0.12836948296E+02  0.24645444284E+02 -0.15187582373E+02  0.31667772638E+02  0.00000000000E+00 0.  1.
</event>
<event>
 5    1  0.1751027E-003  0.9118800E+02  0.7818608E-02  0.1130116E+00
         25   -1    0    0    0    0  0.00000000000E+00  0.00000000000E+00  0.99999998245E-14  0.12500000000E+03  0.12500000000E+03 0.  0.
        -13    1    3    3    0    0  0.11309328679E+02 -0.99780867891E+01  0.58953002607E+02  0.60851711657E+02  0.10566000000E+00 0. -1.
         23    2    1    0    0    0  0.50139668816E+01 -0.14307255483E+02  0.24133318009E+02  0.96499921729E+02  0.92195338452E+02 0.  0.
         13    1    3    3    0    0 -0.62953617975E+01 -0.43291686936E+01 -0.34819684598E+02  0.35648210072E+02  0.10566000000E+00 0.  1.
         22    1    1    0    0    0 -0.50139668816E+01  0.14307255483E+02 -0.24133318009E+02  0.28500078271E+02  0.00000000000E+00 0.  1.
</event>
<event>
 5    1  0.1751027E-003  0.9118800E+02  0.7818608E-02  0.1130116E+00
         25   -1    0    0    0    0  0.00000000000E+00  0.00000000000E+00  0.99999998245E-14  0.12500000000E+03  0.12500000000E+03 0.  0.
        -13    1    3    3    0    0  0.10849003070E+02 -0.35227187094E+02 -0.16124527935E+02  0.40232662642E+02  0.10566000000E+00 0.  1.
         23    2    1    0    0    0  0.70893454972E+01  0.37354691319E+00  0.27461523822E+02  0.96635697655E+02  0.92379242332E+02 0.  0.
         13    1    3    3    0    0 -0.37596575727E+01  0.35600734007E+02  0.43586051757E+02  0.56403035013E+02  0.10566000000E+00 0. -1.
         22    1    1    0    0    0 -0.70893454972E+01 -0.37354691319E+00 -0.27461523822E+02  0.28364302345E+02  0.00000000000E+00 0. -1.
</event>
<event>
 5    1  0.1751027E-003  0.9118800E+02  0.7818608E-02  0.1130116E+00
         25   -1    0    0    0    0  0.00000000000E+00  0.00000000000E+00  0.99999998245E-14  0.12500000000E+03  0.12500000000E+03 0.  0.
        -13    1    3    3    0    0 -0.18237359562E+02 -0.15023451765E+02 -0.39020483951E+02  0.45617044167E+02  0.10566000000E+00 0.  1.
         23    2    1    0    0    0  0.10772389684E+02 -0.26832909404E+02  0.54595303236E+00  0.96080327261E+02  0.91624679074E+02 0.  0.
         13    1    3    3    0    0  0.29009749246E+02 -0.11809457639E+02  0.39566436983E+02  0.50463283094E+02  0.10566000000E+00 0. -1.
         22    1    1    0    0    0 -0.10772389684E+02  0.26832909404E+02 -0.54595303236E+00  0.28919672739E+02  0.00000000000E+00 0. -1.
</event>
<event>
 5    1  0.1751027E-003  0.9118800E+02  0.7818608E-02  0.1130116E+00
         25   -1    0    0    0    0  0.00000000000E+00  0.00000000000E+00  0.99999998245E-14  0.12500000000E+03  0.12500000000E+03 0.  0.
        -13    1    3    3    0    0 -0.20522921531E+02 -0.53898673497E+02 -0.17550790449E+02  0.60285145122E+02  0.10566000000E+00 0.  1.
         23    2    1    0    0    0 -0.55569736718E+01 -0.21588253452E+02 -0.18686944951E+02  0.95911607898E+02  0.91394211931E+02 0.  0.
         13    1    3    3    0    0  0.14965947859E+02  0.32310420046E+02 -0.11361545014E+01  0.35626462776E+02  0.10566000000E+00 0. -1.
         22    1    1    0    0    0  0.55569736718E+01  0.21588253452E+02  0.18686944951E+02  0.29088392102E+02  0.00000000000E+00 0.  1.
</event>
<event>
 5    1  0.1751027E-003  0.9118800E+02  0.7818608E-02  0.1130116E+00
         25   -1    0    0    0    0  0.00000000000E+00  0.00000000000E+00  0.99999998245E-14  0.12500000000E+03  0.12500000000E+03 0.  0.
        -13    1    3    3    0    0  0.22674519864E+02 -0.30011985177E+02 -0.41236184169E+02  0.55814757494E+02  0.10566000000E+00 0.  1.
         23    2    1    0    0    0  0.31048845921E+02 -0.13499290087E+02 -0.14895536045E+02  0.88011641562E+02  0.79861820606E+02 0.  0.
         13    1    3    3    0    0  0.83743260574E+01  0.16512695090E+02  0.26340648124E+02  0.32196884068E+02  0.10566000000E+00 0. -1.
         22    1    1    0    0    0 -0.31048845921E+02  0.13499290087E+02  0.14895536045E+02  0.36988358438E+02  0.00000000000E+00 0.  1.
</event>
<event>
 5    1  0.1751027E-003  0.9118800E+02  0.7818608E-02  0.1130116E+00
         25   -1    0    0    0    0  0.00000000000E+00  0.00000000000E+00  0.99999998245E-14  0.12500000000E+03  0.12500000000E+03 0.  0.
        -13    1    3    3    0    0 -0.23774962759E+01 -0.42910273170E+02 -0.37730848441E+02  0.57188916061E+02  0.10566000000E+00 0.  1.
         23    2    1    0    0    0  0.49761314093E+01 -0.31504636998E+02 -0.48786693697E+01  0.92733834269E+02  0.86939395944E+02 0.  0.
         13    1    3    3    0    0  0.73536276853E+01  0.11405636172E+02  0.32852179072E+02  0.35544918208E+02  0.10566000000E+00 0. -1.
         22    1    1    0    0    0 -0.49761314093E+01  0.31504636998E+02  0.48786693697E+01  0.32266165731E+02  0.00000000000E+00 0.  1.
</event>
<event>
 5    1  0.1751027E-003  0.9118800E+02  0.7818608E-02  0.1130116E+00
         25   -1    0    0    0    0  0.00000000000E+00  0.00000000000E+00  0.99999998245E-14  0.12500000000E+03  0.12500000000E+03 0.  0.
        -13    1    3    3    0    0 -0.36469053522E+02 -0.46470343754E+02  0.65072908159E+01  0.59429291694E+02  0.10566000000E+00 0. -1.
         23    2    1    0    0    0 -0.76914445277E+01 -0.32176891913E+02  0.43217861907E+01  0.91635519965E+02  0.85345650102E+02 0.  0.
         13    1    3    3    0    0  0.28777608995E+02  0.14293451840E+02 -0.21855046252E+01  0.32206228271E+02  0.10566000000E+00 0.  1.
         22    1    1    0    0    0  0.76914445277E+01  0.32176891913E+02 -0.43217861907E+01  0.33364480035E+02  0.00000000000E+00 0. -1.
</event>
<event>
 5    1  0.1751027E-003  0.9118800E+02  0.7818608E-02  0.1130116E+00
         25   -1    0    0    0    0  0.00000000000E+00  0.00000000000E+00  0.99999998245E-14  0.12500000000E+03  0.12500000000E+03 0.  0.
        -13    1    3    3    0    0  0.13209087846E+02 -0.14494707328E+02  0.24767928701E+02  0.31591739402E+02  0.10566000000E+00 0. -1.
         23    2    1    0    0    0 -0.96426469161E+01  0.19405784615E+02 -0.22279203940E+02  0.93920617054E+02  0.88629308153E+02 0.  0.
         13    1    3    3    0    0 -0.22851734762E+02  0.33900491943E+02 -0.47047132642E+02  0.62328877653E+02  0.10566000000E+00 0.  1.
         22    1    1    0    0    0  0.96426469161E+01 -0.19405784615E+02  0.22279203940E+02  0.31079382946E+02  0.00000000000E+00 0.  1.
</event>
<event>
 5    1  0.1751027E-003  0.9118800E+02  0.7818608E-02  0.1130116E+00
         25   -1    0    0    0    0  0.00000000000E+00  0.00000000000E+00  0.99999998245E-14  0.12500000000E+03  0.12500000000E+03 0.  0.
        -13    1    3    3    0    0  0.30114467509E+01  0.60350702719E+01 -0.61589646482E+02  0.61957942207E+02  0.10566000000E+00 0.  1.
         23    2    1    0    0    0  0.70155224379E+01  0.45706451098E+01 -0.29331041483E+02  0.94497240350E+02  0.89438862288E+02 0.  0.
         13    1    3    3    0    0  0.40040756870E+01 -0.14644251621E+01  0.32258604999E+02  0.32539298143E+02  0.10566000000E+00 0. -1.
         22    1    1    0    0    0 -0.70155224379E+01 -0.45706451098E+01  0.29331041483E+02  0.30502759650E+02  0.00000000000E+00 0.  1.
</event>
<event>
 5    1  0.1751027E-003  0.9118800E+02  0.7818608E-02  0.1130116E+00
         25   -1    0    0    0    0  0.00000000000E+00  0.00000000000E+00  0.99999998245E-14  0.12500000000E+03  0.12500000000E+03 0.  0.
        -13    1    3    3    0    0 -0.96422297371E+01 -0.38788148144E+02  0.20379988175E+02  0.44864775858E+02  0.10566000000E+00 0.  1.
         23    2    1    0    0    0  0.85168810775E+01 -0.19894168942E+02 -0.21645943304E+02  0.94391797133E+02  0.89291372950E+02 0.  0.
         13    1    3    3    0    0  0.18159110815E+02  0.18893979202E+02 -0.42025931479E+02  0.49527021275E+02  0.10566000000E+00 0. -1.
         22    1    1    0    0    0 -0.85168810775E+01  0.19894168942E+02  0.21645943304E+02  0.30608202867E+02  0.00000000000E+00 0. -1.
</event>
<event>
 5    1  0.1751027E-003  0.9118800E+02  0.7818608E-02  0.1130116E+00
         25   -1    0    0    0    0  0.00000000000E+00  0.00000000000E+00  0.99999998245E-14  0.12500000000E+03  0.12500000000E+03 0.  0.
        -13    1    3    3    0    0  0.16777189177E+02  0.55127602112E+02 -0.11109771096E+02  0.58685302837E+02  0.10566000000E+00 0.  1.
         23    2    1    0    0    0  0.20427818920E+02  0.18968953794E+02 -0.11009086620E+02  0.95028063425E+02  0.90177690457E+02 0.  0.
         13    1    3    3    0    0  0.36506297430E+01 -0.36158648318E+02  0.10068447567E+00  0.36342760587E+02  0.10566000000E+00 0. -1.
         22    1    1    0    0    0 -0.20427818920E+02 -0.18968953794E+02  0.11009086620E+02  0.29971936575E+02  0.00000000000E+00 0.  1.
</event>
<event>
 5    1  0.1751027E-003  0.9118800E+02  0.7818608E-02  0.1130116E+00
         25   -1    0    0    0    0  0.00000000000E+00  0.00000000000E+00  0.99999998245E-14  0.12500000000E+03  0.12500000000E+03 0.  0.
        -13    1    3    3    0    0 -0.64803138746E+01 -0.48176975411E+01  0.39022010281E+02  0.39848878628E+02  0.10566000000E+00 0.  1.
         23    2    1    0    0    0  0.17182476038E+02 -0.29723447429E+02  0.16270661604E+01  0.90628963441E+02  0.83858457298E+02 0.  0.
         13    1    3    3    0    0  0.23662789912E+02 -0.24905749888E+02 -0.37394944120E+02  0.50780084814E+02  0.10566000000E+00 0. -1.
         22    1    1    0    0    0 -0.17182476038E+02  0.29723447429E+02 -0.16270661604E+01  0.34371036559E+02  0.00000000000E+00 0. -1.
</event>
<event>
 5    1  0.1751027E-003  0.9118800E+02  0.7818608E-02  0.1130116E+00
         25   -1    0    0    0    0  0.00000000000E+00  0.00000000000E+00  0.99999998245E-14  0.12500000000E+03  0.12500000000E+03 0.  0.
        -13    1    3    3    0    0  0.21010738934E+02 -0.52025624352E+02  0.16655589300E+02  0.58528083505E+02  0.10566000000E+00 0.  1.
         23    2    1    0    0    0 -0.54173492297E+01 -0.28208010689E+02  0.87541470070E+01  0.94972102479E+02  0.90100086680E+02 0.  0.
         13    1    3    3    0    0 -0.26428088164E+02  0.23817613663E+02 -0.79014422933E+01  0.36444018974E+02  0.10566000000E+00 0. -1.
         22    1    1    0    0    0  0.54173492297E+01  0.28208010689E+02 -0.87541470070E+01  0.30027897521E+02  0.00000000000E+00 0.  1.
</event>
<event>
 5    1  0.1751027E-003  0.9118800E+02  0.7818608E-02  0.1130116E+00
         25   -1    0    0    0    0  0.00000000000E+00  0.00000000000E+00  0.99999998245E-14  0.12500000000E+03  0.12500000000E+03 0.  0.
        -13    1    3    3    0    0 -0.26722161546E+02  0.22934152106E+02  0.15092237164E+02  0.38312348364E+02  0.10566000000E+00 0. -1.
         23    2    1    0    0    0  0.78907041643E+01 -0.69645449652E+01 -0.24199936612E+02  0.98610512874E+02  0.95013831722E+02 0.  0.
         13    1    3    3    0    0  0.34612865710E+02 -0.29898697071E+02 -0.39292173776E+02  0.60298164510E+02  0.10566000000E+00 0.  1.
         22    1    1    0    0    0 -0.78907041643E+01  0.69645449652E+01  0.24199936612E+02  0.26389487126E+02  0.00000000000E+00 0.  1.
</event>
<event>
 5    1  0.1751027E-003  0.9118800E+02  0.7818608E-02  0.1130116E+00
         25   -1    0    0    0    0  0.00000000000E+00  0.00000000000E+00  0.99999998245E-14  0.12500000000E+03  0.12500000000E+03 0.  0.
        -13    1    3    3    0    0  0.34338703482E+02  0.10947381288E+02 -0.15368366735E+02  0.39181495301E+02  0.10566000000E+00 0.  1.
         23    2    1    0    0    0  0.50016870350E+01 -0.22371203656E+02  0.18921563310E+02  0.95276050324E+02  0.90520785354E+02 0.  0.
         13    1    3    3    0    0 -0.29337016447E+02 -0.33318584944E+02  0.34289930045E+02  0.56094555023E+02  0.10566000000E+00 0. -1.
         22    1    1    0    0    0 -0.50016870350E+01  0.22371203656E+02 -0.18921563310E+02  0.29723949676E+02  0.00000000000E+00 0. -1.
</event>
<event>
 5    1  0.1751027E-003  0.9118800E+02  0.7818608E-02  0.1130116E+00
         25   -1    0    0    0    0  0.00000000000E+00  0.00000000000E+00  0.99999998245E-14  0.12500000000E+03  0.12500000000E+03 0.  0.
        -13    1    3    3    0    0  0.22682071495E+02  0.37170971333E+02  0.33797048398E+02  0.55121766314E+02  0.10566000000E+00 0.  1.
         23    2    1    0    0    0  0.10264748436E+01  0.51187246695E+01  0.30624194902E+02  0.93934000801E+02  0.88648182160E+02 0.  0.
         13    1    3    3    0    0 -0.21655596652E+02 -0.32052246664E+02 -0.31728534957E+01  0.38812234487E+02  0.10566000000E+00 0. -1.
         22    1    1    0    0    0 -0.10264748436E+01 -0.51187246695E+01 -0.30624194902E+02  0.31065999199E+02  0.00000000000E+00 0.  1.
</event>
<event>
 5    1  0.1751027E-003  0.9118800E+02  0.7818608E-02  0.1130116E+00
         25   -1    0    0    0    0  0.00000000000E+00  0.00000000000E+00  0.99999998245E-14  0.12500000000E+03  0.12500000000E+03 0.  0.
        -13    1    3    3    0    0 -0.91964654345E+01 -0.47135370842E+02  0.14349358173E+02  0.50122184758E+02  0.10566000000E+00 0. -1.
         23    2    1    0    0    0  0.21738473721E+02 -0.20650245149E+02 -0.39296659204E+01  0.94760354852E+02  0.89805838970E+02 0.  0.
         13    1    3    3    0    0  0.30934939155E+02  0.26485125693E+02 -0.18279024093E+02  0.44638170094E+02  0.10566000000E+00 0.  1.
         22    1    1    0    0    0 -0.21738473721E+02  0.20650245149E+02  0.39296659204E+01  0.30239645148E+02  0.00000000000E+00 0.  1.
</event>
<event>
 5    1  0.1751027E-003  0.9118800E+02  0.7818608E-02  0.1130116E+00
         25   -1    0    0    0    0  0.00000000000E+00  0.00000000000E+00  0.99999998245E-14  0.12500000000E+03  0.12500000000E+03 0.  0.
        -13    1    3    3    0    0  0.42439706933E+02 -0.42798690275E+01 -0.42860724740E+02  0.60468991167E+02  0.10566000000E+00 0.  1.
         23    2    1    0    0    0  0.13609177258E+02 -0.11565005759E+02 -0.21320509118E+02  0.97187715432E+02  0.93123191838E+02 0.  0.
         13    1    3    3    0    0 -0.28830529675E+02 -0.72851367318E+01  0.21540215623E+02  0.36718724265E+02  0.10566000000E+00 0. -1.
         22    1    1    0    0    0 -0.13609177258E+02  0.11565005759E+02  0.21320509118E+02  0.27812284568E+02  0.00000000000E+00 0.  1.
</event>
<event>
 5    1  0.1751027E-003  0.9118800E+02  0.7818608E-02  0.1130116E+00
         25   -1    0    0    0    0  0.00000000000E+00  0.00000000000E+00  0.99999998245E-14  0.12500000000E+03  0.12500000000E+03 0.  0.
        -13    1    3    3    0    0  0.16433468343E+02  0.28423731206E+02  0.17616461744E+02  0.37260143127E+02  0.10566000000E+00 0. -1.
         23    2    1    0    0    0  0.15889066475E+02 -0.26037165594E+02  0.14495375831E-01  0.94497596230E+02  0.89439359667E+02 0.  0.
         13    1    3    3    0    0 -0.54440186766E+00 -0.54460896800E+02 -0.17601966368E+02  0.57237453103E+02  0.10566000000E+00 0.  1.
         22    1    1    0    0    0 -0.15889066475E+02  0.26037165594E+02 -0.14495375831E-01  0.30502403770E+02  0.00000000000E+00 0.  1.
</event>
<event>
 5    1  0.1751027E-003  0.9118800E+02  0.7818608E-02  0.1130116E+00
         25   -1    0    0    0    0  0.00000000000E+00  0.00000000000E+00  0.99999998245E-14  0.12500000000E+03  0.12500000000E+03 0.  0.
        -13    1    3    3    0    0 -0.15457534941E+02  0.23006083787E+02  0.47810247080E+02  0.55263425225E+02  0.10566000000E+00 0. -1.
         23    2    1    0    0    0 -0.13001081136E+02  0.24141203829E+02  0.62945832836E+01  0.96867321284E+02  0.92692126533E+02 0.  0.
         13    1    3    3    0    0  0.24564538055E+01  0.11351200416E+01 -0.41515663797E+02  0.41603896060E+02  0.10566000000E+00 0.  1.
         22    1    1    0    0    0  0.13001081136E+02 -0.24141203829E+02 -0.62945832836E+01  0.28132678716E+02  0.00000000000E+00 0. -1.
</event>
<event>
 5    1  0.1751027E-003  0.9118800E+02  0.7818608E-02  0.1130116E+00
         25   -1    0    0    0    0  0.00000000000E+00  0.00000000000E+00  0.99999998245E-14  0.12500000000E+03  0.12500000000E+03 0.  0.
        -13    1    3    3    0    0 -0.17202843937E+02 -0.25083702907E+02 -0.14062323529E+02  0.33509552342E+02  0.10566000000E+00 0.  1.
         23    2    1    0    0    0  0.98952001368E+01  0.26767844815E+02 -0.16443217169E+02  0.92063517300E+02  0.85970223479E+02 0.  0.
         13    1    3    3    0    0  0.27098044074E+02  0.51851547722E+02 -0.23808936395E+01  0.58553964959E+02  0.10566000000E+00 0. -1.
         22    1    1    0    0    0 -0.98952001368E+01 -0.26767844815E+02  0.16443217169E+02  0.32936482700E+02  0.00000000000E+00 0. -1.
</event>
<event>
 5    1  0.1751027E-003  0.9118800E+02  0.7818608E-02  0.1130116E+00
         25   -1    0    0    0    0  0.00000000000E+00  0.00000000000E+00  0.99999998245E-14  0.12500000000E+03  0.12500000000E+03 0.  0.
        -13    1    3    3    0    0 -0.10311890053E+02  0.16905302568E+02  0.28856025135E+02  0.34997223919E+02  0.10566000000E+00 0. -1.
         23    2    1    0    0    0  0.13867166964E+02  0.27582320701E+02 -0.18340415494E+02  0.89091037673E+02  0.81533793107E+02 0.  0.
         13    1    3    3    0    0  0.24179057016E+02  0.10677018134E+02 -0.47196440629E+02  0.54093813755E+02  0.10566000000E+00 0.  1.
         22    1    1    0    0    0 -0.13867166964E+02 -0.27582320701E+02  0.18340415494E+02  0.35908962327E+02  0.00000000000E+00 0.  1.
</event>
<event>
 5    1  0.1751027E-003  0.9118800E+02  0.7818608E-02  0.1130116E+00
         25   -1    0    0    0    0  0.00000000000E+00  0.00000000000E+00  0.99999998245E-14  0.12500000000E+03  0.12500000000E+03 0.  0.
        -13    1    3    3    0    0  0.35688733324E+02  0.16592021468E+01 -0.93339303509E+01  0.36926576580E+02  0.10566000000E+00 0.  1.
         23    2    1    0    0    0 -0.22750306448E+02  0.67127209517E+01 -0.16623304100E+02  0.96034998615E+02  0.91562818074E+02 0.  0.
         13    1    3    3    0    0 -0.58439039772E+02  0.50535188049E+01 -0.72893737488E+01  0.59108422035E+02  0.10566000000E+00 0. -1.
         22    1    1    0    0    0  0.22750306448E+02 -0.67127209517E+01  0.16623304100E+02  0.28965001385E+02  0.00000000000E+00 0. -1.
</event>
<event>
 5    1  0.1751027E-003  0.9118800E+02  0.7818608E-02  0.1130116E+00
         25   -1    0    0    0    0  0.00000000000E+00  0.00000000000E+00  0.99999998245E-14  0.12500000000E+03  0.12500000000E+03 0.  0.
        -13    1    3    3    0    0 -0.35580424023E+02  0.10308129628E+02 -0.21833401143E+02  0.42999217197E+02  0.10566000000E+00 0. -1.
         23    2    1    0    0    0  0.19497976544E+02  0.43072198630E+01 -0.17284709548E+02  0.98590069739E+02  0.94986932968E+02 0.  0.
         13    1    3    3    0    0  0.55078400567E+02 -0.60009097650E+01  0.45486915943E+01  0.55590852541E+02  0.10566000000E+00 0.  1.
         22    1    1    0    0    0 -0.19497976544E+02 -0.43072198630E+01  0.17284709548E+02  0.26409930261E+02  0.00000000000E+00 0.  1.
</event>
<event>
 5    1  0.1751027E-003  0.9118800E+02  0.7818608E-02  0.1130116E+00
         25   -1    0    0    0    0  0.00000000000E+00  0.00000000000E+00  0.99999998245E-14  0.12500000000E+03  0.12500000000E+03 0.  0.
        -13    1    3    3    0    0  0.36084068953E+02  0.32181534512E+02  0.38829451632E+02  0.62011681753E+02  0.10566000000E+00 0. -1.
         23    2    1    0    0    0  0.18751292745E+02  0.19662299003E+02  0.15246660591E+02  0.93844300026E+02  0.88521607569E+02 0.  0.
         13    1    3    3    0    0 -0.17332776209E+02 -0.12519235509E+02 -0.23582791041E+02  0.31832618273E+02  0.10566000000E+00 0.  1.
         22    1    1    0    0    0 -0.18751292745E+02 -0.19662299003E+02 -0.15246660591E+02  0.31155699974E+02  0.00000000000E+00 0. -1.
</event>
<event>
 5    1  0.1751027E-003  0.9118800E+02  0.7818608E-02  0.1130116E+00
         25   -1    0    0    0    0  0.00000000000E+00  0.00000000000E+00  0.99999998245E-14  0.12500000000E+03  0.12500000000E+03 0.  0.
        -13    1    3    3    0    0 -0.46904466933E+02  0.24782379792E+02 -0.80646583169E+01  0.53658598978E+02  0.10566000000E+00 0.  1.
         23    2    1    0    0    0 -0.87537833003E+01  0.26983476145E+02  0.86126887710E+01  0.95353497428E+02  0.90627668826E+02 0.  0.
         13    1    3    3    0    0  0.38150683633E+02  0.22010963522E+01  0.16677347088E+02  0.41694898450E+02  0.10566000000E+00 0. -1.
         22    1    1    0    0    0  0.87537833003E+01 -0.26983476145E+02 -0.86126887710E+01  0.29646502572E+02  0.00000000000E+00 0.  1.
</event>
<event>
 5    1  0.1751027E-003  0.9118800E+02  0.7818608E-02  0.1130116E+00
         25   -1    0    0    0    0  0.00000000000E+00  0.00000000000E+00  0.99999998245E-14  0.12500000000E+03  0.12500000000E+03 0.  0.
        -13    1    3    3    0    0 -0.19400171413E+02 -0.46176122986E+02  0.30273586741E+01  0.50177455589E+02  0.10566000000E+00 0.  1.
         23    2    1    0    0    0 -0.29308750851E+02 -0.21904404206E+01 -0.19810954220E+01  0.95542816755E+02  0.90888416141E+02 0.  0.
         13    1    3    3    0    0 -0.99085794377E+01  0.43985682565E+02 -0.50084540961E+01  0.45365361165E+02  0.10566000000E+00 0. -1.
         22    1    1    0    0    0  0.29308750851E+02  0.21904404206E+01  0.19810954220E+01  0.29457183245E+02  0.00000000000E+00 0.  1.
</event>
<event>
 5    1  0.1751027E-003  0.9118800E+02  0.7818608E-02  0.1130116E+00
         25   -1    0    0    0    0  0.00000000000E+00  0.00000000000E+00  0.99999998245E-14  0.12500000000E+03  0.12500000000E+03 0.  0.
        -13    1    3    3    0    0 -0.19124556222E+02  0.75864774578E+01 -0.42411121596E+02  0.47138282637E+02  0.10566000000E+00 0.  1.
         23    2    1    0    0    0  0.99460829727E+01  0.26187706999E+02 -0.80175586636E+01  0.95862364350E+02  0.91326836623E+02 0.  0.
         13    1    3    3    0    0  0.29070639194E+02  0.18601229541E+02  0.34393562932E+02  0.48724081713E+02  0.10566000000E+00 0. -1.
         22    1    1    0    0    0 -0.99460829727E+01 -0.26187706999E+02  0.80175586636E+01  0.29137635650E+02  0.00000000000E+00 0.  1.
</event>
<event>
 5    1  0.1751027E-003  0.9118800E+02  0.7818608E-02  0.1130116E+00
         25   -1    0    0    0    0  0.00000000000E+00  0.00000000000E+00  0.99999998245E-14  0.12500000000E+03  0.12500000000E+03 0.  0.
        -13    1    3    3    0    0  0.28118927496E+02 -0.30319298582E+02  0.75482345084E+01  0.42034758929E+02  0.10566000000E+00 0. -1.
         23    2    1    0    0    0  0.21045408045E+02  0.13870531844E+02  0.24461291760E+02  0.89876565544E+02  0.82729326033E+02 0.  0.
         13    1    3    3    0    0 -0.70735194501E+01  0.44189830426E+02  0.16913057252E+02  0.47841806615E+02  0.10566000000E+00 0.  1.
         22    1    1    0    0    0 -0.21045408045E+02 -0.13870531844E+02 -0.24461291760E+02  0.35123434456E+02  0.00000000000E+00 0.  1.
</event>
<event>
 5    1  0.1751027E-003  0.9118800E+02  0.7818608E-02  0.1130116E+00
         25   -1    0    0    0    0  0.00000000000E+00  0.00000000000E+00  0.99999998245E-14  0.12500000000E+03  0.12500000000E+03 0.  0.
        -13    1    3    3    0    0 -0.10482122213E+02  0.39974645924E+02  0.38480065155E+02  0.56467457719E+02  0.10566000000E+00 0.  1.
         23    2    1    0    0    0  0.82106464179E+01  0.27747683495E+02  0.67245696916E+01  0.95291945680E+02  0.90542732563E+02 0.  0.
         13    1    3    3    0    0  0.18692768630E+02 -0.12226962429E+02 -0.31755495463E+02  0.38824487961E+02  0.10566000000E+00 0. -1.
         22    1    1    0    0    0 -0.82106464179E+01 -0.27747683495E+02 -0.67245696916E+01  0.29708054320E+02  0.00000000000E+00 0.  1.
</event>
<event>
 5    1  0.1751027E-003  0.9118800E+02  0.7818608E-02  0.1130116E+00
         25   -1    0    0    0    0  0.00000000000E+00  0.00000000000E+00  0.99999998245E-14  0.12500000000E+03  0.12500000000E+03 0.  0.
        -13    1    3    3    0    0 -0.11716308302E+02  0.56695507615E+02 -0.22506116632E+01  0.57937284031E+02  0.10566000000E+00 0. -1.
         23    2    1    0    0    0 -0.21856510152E+02  0.23506718818E+02 -0.38163625267E+01  0.92676053945E+02  0.86856280638E+02 0.  0.
         13    1    3    3    0    0 -0.10140201850E+02 -0.33188788797E+02 -0.15657508635E+01  0.34738769915E+02  0.10566000000E+00 0.  1.
         22    1    1    0    0    0  0.21856510152E+02 -0.23506718818E+02  0.38163625267E+01  0.32323946055E+02  0.00000000000E+00 0. -1.
</event>
<event>
 5    1  0.1751027E-003  0.9118800E+02  0.7818608E-02  0.1130116E+00
         25   -1    0    0    0    0  0.00000000000E+00  0.00000000000E+00  0.99999998245E-14  0.12500000000E+03  0.12500000000E+03 0.  0.
        -13    1    3    3    0    0 -0.29824417537E+02 -0.11940556069E+02  0.28200056597E+02  0.42747246891E+02  0.10566000000E+00 0. -1.
         23    2    1    0    0    0  0.17830647940E+02  0.11107626185E+02  0.19390638766E+02  0.96411396725E+02  0.92075236526E+02 0.  0.
         13    1    3    3    0    0  0.47655065477E+02  0.23048182254E+02 -0.88094178311E+01  0.53664149834E+02  0.10566000000E+00 0.  1.
         22    1    1    0    0    0 -0.17830647940E+02 -0.11107626185E+02 -0.19390638766E+02  0.28588603275E+02  0.00000000000E+00 0.  1.
</event>
<event>
 5    1  0.1751027E-003  0.9118800E+02  0.7818608E-02  0.1130116E+00
         25   -1    0    0    0    0  0.00000000000E+00  0.00000000000E+00  0.99999998245E-14  0.12500000000E+03  0.12500000000E+03 0.  0.
        -13    1    3    3    0    0  0.15966732746E+02  0.15638129811E+02  0.26653927576E+02  0.34784057812E+02  0.10566000000E+00 0.  1.
         23    2    1    0    0    0 -0.24283170836E+02 -0.15298536105E+02 -0.67019152854E+01  0.95527415090E+02  0.90867231566E+02 0.  0.
         13    1    3    3    0    0 -0.40249903582E+02 -0.30936665916E+02 -0.33355842861E+02  0.60743357278E+02  0.10566000000E+00 0. -1.
         22    1    1    0    0    0  0.24283170836E+02  0.15298536105E+02  0.67019152854E+01  0.29472584910E+02  0.00000000000E+00 0. -1.
</event>
<event>
 5    1  0.1751027E-003  0.9118800E+02  0.7818608E-02  0.1130116E+00
         25   -1    0    0    0    0  0.00000000000E+00  0.00000000000E+00  0.99999998245E-14  0.12500000000E+03  0.12500000000E+03 0.  0.
        -13    1    3    3    0    0 -0.10910768752E+02  0.34381824467E+02  0.19027798346E+02  0.40782631135E+02  0.10566000000E+00 0.  1.
         23    2    1    0    0    0  0.97488610222E+00 -0.20138191264E+02  0.20012967134E+02  0.96591972899E+02  0.92320058626E+02 0.  0.
         13    1    3    3    0    0  0.11885654854E+02 -0.54520015730E+02  0.98516878780E+00  0.55809341764E+02  0.10566000000E+00 0. -1.
         22    1    1    0    0    0 -0.97488610222E+00  0.20138191264E+02 -0.20012967134E+02  0.28408027101E+02  0.00000000000E+00 0.  1.
</event>
<event>
 5    1  0.1751027E-003  0.9118800E+02  0.7818608E-02  0.1130116E+00
         25   -1    0    0    0    0  0.00000000000E+00  0.00000000000E+00  0.99999998245E-14  0.12500000000E+03  0.12500000000E+03 0.  0.
        -13    1    3    3    0    0  0.46202368655E+01 -0.28593483212E+02  0.14992570775E+02  0.32614754535E+02  0.10566000000E+00 0.  1.
         23    2    1    0    0    0 -0.90943074489E+01  0.28583832159E+02 -0.47303263530E+01  0.94633606136E+02  0.89629244859E+02 0.  0.
         13    1    3    3    0    0 -0.13714544314E+02  0.57177315371E+02 -0.19722897128E+02  0.62018851601E+02  0.10566000000E+00 0. -1.
         22    1    1    0    0    0  0.90943074489E+01 -0.28583832159E+02  0.47303263530E+01  0.30366393864E+02  0.00000000000E+00 0. -1.
</event>
<event>
 5    1  0.1751027E-003  0.9118800E+02  0.7818608E-02  0.1130116E+00
         25   -1    0    0    0    0  0.00000000000E+00  0.00000000000E+00  0.99999998245E-14  0.12500000000E+03  0.12500000000E+03 0.  0.
        -13    1    3    3    0    0  0.24673047181E+02 -0.12170359565E+02 -0.43664720733E+02  0.51609068097E+02  0.10566000000E+00 0. -1.
         23    2    1    0    0    0  0.29740436801E+02 -0.65156459576E+01 -0.14304358169E+01  0.94520607454E+02  0.89471514257E+02 0.  0.
         13    1    3    3    0    0  0.50673896198E+01  0.56547136069E+01  0.42234284916E+02  0.42911539357E+02  0.10566000000E+00 0.  1.
         22    1    1    0    0    0 -0.29740436801E+02  0.65156459576E+01  0.14304358169E+01  0.30479392546E+02  0.00000000000E+00 0. -1.
</event>
<event>
 5    1  0.1751027E-003  0.9118800E+02  0.7818608E-02  0.1130116E+00
         25   -1    0    0    0    0  0.00000000000E+00  0.00000000000E+00  0.99999998245E-14  0.12500000000E+03  0.12500000000E+03 0.  0.
        -13    1    3    3    0    0  0.23438927872E+02 -0.51555625554E+02  0.22139679492E+01  0.56676967846E+02  0.10566000000E+00 0.  1.
         23    2    1    0    0    0  0.30580834949E+02 -0.24328608994E+02 -0.46400908620E+01  0.85647755782E+02  0.76071932705E+02 0.  0.
         13    1    3    3    0    0  0.71419070770E+01  0.27227016559E+02 -0.68540588113E+01  0.28970787936E+02  0.10566000000E+00 0. -1.
         22    1    1    0    0    0 -0.30580834949E+02  0.24328608994E+02  0.46400908620E+01  0.39352244218E+02  0.00000000000E+00 0.  1.
</event>
<event>
 5    1  0.1751027E-003  0.9118800E+02  0.7818608E-02  0.1130116E+00
         25   -1    0    0    0    0  0.00000000000E+00  0.00000000000E+00  0.99999998245E-14  0.12500000000E+03  0.12500000000E+03 0.  0.
        -13    1    3    3    0    0 -0.42861710910E+02  0.76659354911E+01  0.62444846587E+01  0.43987470736E+02  0.10566000000E+00 0.  1.
         23    2    1    0    0    0 -0.54148124509E+01 -0.15641410823E+02 -0.22819077281E+02  0.96809856077E+02  0.92614599385E+02 0.  0.
         13    1    3    3    0    0  0.37446898459E+02 -0.23307346314E+02 -0.29063561940E+02  0.52822385341E+02  0.10566000000E+00 0. -1.
         22    1    1    0    0    0  0.54148124509E+01  0.15641410823E+02  0.22819077281E+02  0.28190143923E+02  0.00000000000E+00 0. -1.
</event>
<event>
 5    1  0.1751027E-003  0.9118800E+02  0.7818608E-02  0.1130116E+00
         25   -1    0    0    0    0  0.00000000000E+00  0.00000000000E+00  0.99999998245E-14  0.12500000000E+03  0.12500000000E+03 0.  0.
        -13    1    3    3    0    0 -0.28411757702E+02  0.18586150539E+02 -0.20635181720E+02  0.39730276317E+02  0.10566000000E+00 0.  1.
         23    2    1    0    0    0  0.23455097482E+02  0.18137812556E+02 -0.14603695576E+02  0.91948679804E+02  0.85803088237E+02 0.  0.
         13    1    3    3    0    0  0.51866855184E+02 -0.44833798216E+00  0.60314861435E+01  0.52218403487E+02  0.10566000000E+00 0. -1.
         22    1    1    0    0    0 -0.23455097482E+02 -0.18137812556E+02  0.14603695576E+02  0.33051320196E+02  0.00000000000E+00 0.  1.
</event>
<event>
 5    1  0.1751027E-003  0.9118800E+02  0.7818608E-02  0.1130116E+00
         25   -1    0    0    0    0  0.00000000000E+00  0.00000000000E+00  0.99999998245E-14  0.12500000000E+03  0.12500000000E+03 0.  0.
        -13    1    3    3    0    0 -0.25427764992E+02 -0.26152380292E+02  0.48356360530E+01  0.36795553638E+02  0.10566000000E+00 0. -1.
         23    2    1    0    0    0  0.27663409729E+02  0.17341943703E+01  0.53670868234E+01  0.96767442749E+02  0.92557337296E+02 0.  0.
         13    1    3    3    0    0  0.53091174721E+02  0.27886574663E+02  0.53145077043E+00  0.59971889112E+02  0.10566000000E+00 0.  1.
         22    1    1    0    0    0 -0.27663409729E+02 -0.17341943703E+01 -0.53670868234E+01  0.28232557251E+02  0.00000000000E+00 0.  1.
</event>
<event>
 5    1  0.1751027E-003  0.9118800E+02  0.7818608E-02  0.1130116E+00
         25   -1    0    0    0    0  0.00000000000E+00  0.00000000000E+00  0.99999998245E-14  0.12500000000E+03  0.12500000000E+03 0.  0.
        -13    1    3    3    0    0  0.13806987512E+02  0.52727991252E+02 -0.20145423884E+02  0.58109579529E+02  0.10566000000E+00 0.  1.
         23    2    1    0    0    0  0.16618667114E+02  0.22451820897E+02  0.37954938251E+01  0.96810105861E+02  0.92614936512E+02 0.  0.
         13    1    3    3    0    0  0.28116796018E+01 -0.30276170355E+02  0.23940917709E+02  0.38700526331E+02  0.10566000000E+00 0. -1.
         22    1    1    0    0    0 -0.16618667114E+02 -0.22451820897E+02 -0.37954938251E+01  0.28189894139E+02  0.00000000000E+00 0.  1.
</event>
<event>
 5    1  0.1751027E-003  0.9118800E+02  0.7818608E-02  0.1130116E+00
         25   -1    0    0    0    0  0.00000000000E+00  0.00000000000E+00  0.99999998245E-14  0.12500000000E+03  0.12500000000E+03 0.  0.
        -13    1    3    3    0    0 -0.36881584112E+01  0.40569553664E+02  0.43487211049E+02  0.59587246000E+02  0.10566000000E+00 0. -1.
         23    2    1    0    0    0  0.99962860213E+01  0.12263065213E+02  0.22891025870E+02  0.97173617410E+02  0.93104266027E+02 0.  0.
         13    1    3    3    0    0  0.13684444433E+02 -0.28306488451E+02 -0.20596185179E+02  0.37586371410E+02  0.10566000000E+00 0.  1.
         22    1    1    0    0    0 -0.99962860213E+01 -0.12263065213E+02 -0.22891025870E+02  0.27826382590E+02  0.00000000000E+00 0. -1.
</event>
<event>
 5    1  0.1751027E-003  0.9118800E+02  0.7818608E-02  0.1130116E+00
         25   -1    0    0    0    0  0.00000000000E+00  0.00000000000E+00  0.99999998245E-14  0.12500000000E+03  0.12500000000E+03 0.  0.
        -13    1    3    3    0    0  0.23887415346E+02  0.18250374811E+02  0.32918894456E+02  0.44579699067E+02  0.10566000000E+00 0. -1.
         23    2    1    0    0    0 -0.68952838532E+01  0.26689280752E+02 -0.78323696787E+01  0.96343261503E+02  0.91982690632E+02 0.  0.
         13    1    3    3    0    0 -0.30782699199E+02  0.84389059414E+01 -0.40751264135E+02  0.51763562436E+02  0.10566000000E+00 0.  1.
         22    1    1    0    0    0  0.68952838532E+01 -0.26689280752E+02  0.78323696787E+01  0.28656738497E+02  0.00000000000E+00 0. -1.
</event>
<event>
 5    1  0.1751027E-003  0.9118800E+02  0.7818608E-02  0.1130116E+00
         25   -1    0    0    0    0  0.00000000000E+00  0.00000000000E+00  0.99999998245E-14  0.12500000000E+03  0.12500000000E+03 0.  0.
        -13    1    3    3    0    0  0.30439357937E+02 -0.97781890898E+01 -0.42406979807E+02  0.53108667785E+02  0.10566000000E+00 0.  1.
         23    2    1    0    0    0  0.29759322456E+02  0.15517323244E+00 -0.15082014525E+01  0.95202080217E+02  0.90418582461E+02 0.  0.
         13    1    3    3    0    0 -0.68003548074E+00  0.99333623223E+01  0.40898778354E+02  0.42093412432E+02  0.10566000000E+00 0. -1.
         22    1    1    0    0    0 -0.29759322456E+02 -0.15517323244E+00  0.15082014525E+01  0.29797919783E+02  0.00000000000E+00 0.  1.
</event>
<event>
 5    1  0.1751027E-003  0.9118800E+02  0.7818608E-02  0.1130116E+00
         25   -1    0    0    0    0  0.00000000000E+00  0.00000000000E+00  0.99999998245E-14  0.12500000000E+03  0.12500000000E+03 0.  0.
        -13    1    3    3    0    0 -0.28086734294E+02 -0.20213066275E+01 -0.22677258684E+02  0.36155491274E+02  0.10566000000E+00 0. -1.
         23    2    1    0    0    0  0.24572549473E+01 -0.85878760951E+01  0.27955979844E+02  0.95651635024E+02  0.91037952284E+02 0.  0.
         13    1    3    3    0    0  0.30543989242E+02 -0.65665694676E+01  0.50633238528E+02  0.59496143751E+02  0.10566000000E+00 0.  1.
         22    1    1    0    0    0 -0.24572549473E+01  0.85878760951E+01 -0.27955979844E+02  0.29348364976E+02  0.00000000000E+00 0.  1.
</event>
<event>
 5    1  0.1751027E-003  0.9118800E+02  0.7818608E-02  0.1130116E+00
         25   -1    0    0    0    0  0.00000000000E+00  0.00000000000E+00  0.99999998245E-14  0.12500000000E+03  0.12500000000E+03 0.  0.
        -13    1    3    3    0    0 -0.26524157620E+02 -0.26830399973E+02 -0.20401136311E+01  0.37783257242E+02  0.10566000000E+00 0.  1.
         23    2    1    0    0    0  0.12942614066E+02  0.16328126249E+02  0.15715188376E+02  0.98902373453E+02  0.95397030160E+02 0.  0.
         13    1    3    3    0    0  0.39466771687E+02  0.43158526222E+02  0.17755302007E+02  0.61119116211E+02  0.10566000000E+00 0. -1.
         22    1    1    0    0    0 -0.12942614066E+02 -0.16328126249E+02 -0.15715188376E+02  0.26097626547E+02  0.00000000000E+00 0. -1.
</event>
<event>
 5    1  0.1751027E-003  0.9118800E+02  0.7818608E-02  0.1130116E+00
         25   -1    0    0    0    0  0.00000000000E+00  0.00000000000E+00  0.99999998245E-14  0.12500000000E+03  0.12500000000E+03 0.  0.
        -13    1    3    3    0    0 -0.59873724722E+02 -0.12597068606E+02  0.49812171268E+01  0.61387073050E+02  0.10566000000E+00 0.  1.
         23    2    1    0    0    0 -0.34543169615E+02 -0.40487789585E+01  0.10469224229E+02  0.88678823890E+02  0.80899357058E+02 0.  0.
         13    1    3    3    0    0  0.25330555107E+02  0.85482896479E+01  0.54880071019E+01  0.27291750840E+02  0.10566000000E+00 0. -1.
         22    1    1    0    0    0  0.34543169615E+02  0.40487789585E+01 -0.10469224229E+02  0.36321176110E+02  0.00000000000E+00 0.  1.
</event>
<event>
 5    1  0.1751027E-003  0.9118800E+02  0.7818608E-02  0.1130116E+00
         25   -1    0    0    0    0  0.00000000000E+00  0.00000000000E+00  0.99999998245E-14  0.12500000000E+03  0.12500000000E+03 0.  0.
        -13    1    3    3    0    0  0.35106778527E+02 -0.17321083339E+01  0.13105799276E+02  0.37513454074E+02  0.10566000000E+00 0. -1.
         23    2    1    0    0    0 -0.86388727837E+01 -0.16752403607E+02 -0.22328782659E+02  0.95779327787E+02  0.91213112800E+02 0.  0.
         13    1    3    3    0    0 -0.43745651311E+02 -0.15020295273E+02 -0.35434581934E+02  0.58265873713E+02  0.10566000000E+00 0.  1.
         22    1    1    0    0    0  0.86388727837E+01  0.16752403607E+02  0.22328782659E+02  0.29220672213E+02  0.00000000000E+00 0.  1.
</event>
<event>
 5    1  0.1751027E-003  0.9118800E+02  0.7818608E-02  0.1130116E+00
         25   -1    0    0    0    0  0.00000000000E+00  0.00000000000E+00  0.99999998245E-14  0.12500000000E+03  0.12500000000E+03 0.  0.
        -13    1    3    3    0    0  0.41940116277E+02 -0.39365386872E+02  0.17734277371E+02  0.60192381534E+02  0.10566000000E+00 0.  1.
         23    2    1    0    0    0  0.29588120106E+02 -0.14584925948E+02  0.22040211823E+01  0.91938925824E+02  0.85788877228E+02 0.  0.
         13    1    3    3    0    0 -0.12351996171E+02  0.24780460923E+02 -0.15530256189E+02  0.31746544289E+02  0.10566000000E+00 0. -1.
         22    1    1    0    0    0 -0.29588120106E+02  0.14584925948E+02 -0.22040211823E+01  0.33061074176E+02  0.00000000000E+00 0.  1.
</event>
<event>
 5    1  0.1751027E-003  0.9118800E+02  0.7818608E-02  0.1130116E+00
         25   -1    0    0    0    0  0.00000000000E+00  0.00000000000E+00  0.99999998245E-14  0.12500000000E+03  0.12500000000E+03 0.  0.
        -13    1    3    3    0    0 -0.97218795210E+01  0.42292069438E+02  0.35056678534E+02  0.55786341990E+02  0.10566000000E+00 0.  1.
         23    2    1    0    0    0  0.23370387127E+01  0.41046942319E+01  0.28189954298E+02  0.96417071739E+02  0.92082940519E+02 0.  0.
         13    1    3    3    0    0  0.12058918234E+02 -0.38187375206E+02 -0.68667242365E+01  0.40630729748E+02  0.10566000000E+00 0. -1.
         22    1    1    0    0    0 -0.23370387127E+01 -0.41046942319E+01 -0.28189954298E+02  0.28582928261E+02  0.00000000000E+00 0.  1.
</event>
<event>
 5    1  0.1751027E-003  0.9118800E+02  0.7818608E-02  0.1130116E+00
         25   -1    0    0    0    0  0.00000000000E+00  0.00000000000E+00  0.99999998245E-14  0.12500000000E+03  0.12500000000E+03 0.  0.
        -13    1    3    3    0    0 -0.20973716180E+02  0.44363567371E+02 -0.17346501731E+02  0.52047431892E+02  0.10566000000E+00 0.  1.
         23    2    1    0    0    0  0.99308795370E+01  0.27149949454E+02  0.73261688923E+01  0.95176940560E+02  0.90383821230E+02 0.  0.
         13    1    3    3    0    0  0.30904595717E+02 -0.17213617917E+02  0.24672670623E+02  0.43129508668E+02  0.10566000000E+00 0. -1.
         22    1    1    0    0    0 -0.99308795370E+01 -0.27149949454E+02 -0.73261688923E+01  0.29823059440E+02  0.00000000000E+00 0.  1.
</event>
<event>
 5    1  0.1751027E-003  0.9118800E+02  0.7818608E-02  0.1130116E+00
         25   -1    0    0    0    0  0.00000000000E+00  0.00000000000E+00  0.99999998245E-14  0.12500000000E+03  0.12500000000E+03 0.  0.
        -13    1    3    3    0    0  0.11866476280E+02 -0.49379409538E+02  0.29202707613E+02  0.58582835726E+02  0.10566000000E+00 0.  1.
         23    2    1    0    0    0  0.15851518206E+02 -0.25578184251E+02  0.21555444089E+01  0.94831133421E+02  0.89904301094E+02 0.  0.
         13    1    3    3    0    0  0.39850419260E+01  0.23801225288E+02 -0.27047163204E+02  0.36248297695E+02  0.10566000000E+00 0. -1.
         22    1    1    0    0    0 -0.15851518206E+02  0.25578184251E+02 -0.21555444089E+01  0.30168866579E+02  0.00000000000E+00 0.  1.
</event>
<event>
 5    1  0.1751027E-003  0.9118800E+02  0.7818608E-02  0.1130116E+00
         25   -1    0    0    0    0  0.00000000000E+00  0.00000000000E+00  0.99999998245E-14  0.12500000000E+03  0.12500000000E+03 0.  0.
        -13    1    3    3    0    0  0.48545836104E+01  0.14451653949E+02 -0.33075780105E+02  0.36420264654E+02  0.10566000000E+00 0. -1.
         23    2    1    0    0    0  0.14977653055E+01  0.12618028986E+02  0.26232612761E+02  0.95851965269E+02  0.91312602182E+02 0.  0.
         13    1    3    3    0    0 -0.33568183049E+01 -0.18336249623E+01  0.59308392866E+02  0.59431700615E+02  0.10566000000E+00 0.  1.
         22    1    1    0    0    0 -0.14977653055E+01 -0.12618028986E+02 -0.26232612761E+02  0.29148034731E+02  0.00000000000E+00 0.  1.
</event>
<event>
 5    1  0.1751027E-003  0.9118800E+02  0.7818608E-02  0.1130116E+00
         25   -1    0    0    0    0  0.00000000000E+00  0.00000000000E+00  0.99999998245E-14  0.12500000000E+03  0.12500000000E+03 0.  0.
        -13    1    3    3    0    0 -0.52749489269E+02 -0.29148036985E+02  0.11836738370E+02  0.61418533175E+02  0.10566000000E+00 0. -1.
         23    2    1    0    0    0 -0.27566284515E+02 -0.92183547074E+01 -0.77858372984E+00  0.95922787305E+02  0.91409500744E+02 0.  0.
         13    1    3    3    0    0  0.25183204754E+02  0.19929682277E+02 -0.12615322100E+02  0.34504254130E+02  0.10566000000E+00 0.  1.
         22    1    1    0    0    0  0.27566284515E+02  0.92183547074E+01  0.77858372984E+00  0.29077212695E+02  0.00000000000E+00 0. -1.
</event>
<event>
 5    1  0.1751027E-003  0.9118800E+02  0.7818608E-02  0.1130116E+00
         25   -1    0    0    0    0  0.00000000000E+00  0.00000000000E+00  0.99999998245E-14  0.12500000000E+03  0.12500000000E+03 0.  0.
        -13    1    3    3    0    0  0.57653202822E+02  0.12428759218E+02  0.13310798619E+02  0.60461180730E+02  0.10566000000E+00 0.  1.
         23    2    1    0    0    0  0.28970539084E+02  0.27666119920E+01 -0.44581421934E+01  0.95558170768E+02  0.90909530259E+02 0.  0.
         13    1    3    3    0    0 -0.28682663738E+02 -0.96621472256E+01 -0.17768940813E+02  0.35096990038E+02  0.10566000000E+00 0. -1.
         22    1    1    0    0    0 -0.28970539084E+02 -0.27666119920E+01  0.44581421934E+01  0.29441829232E+02  0.00000000000E+00 0.  1.
</event>
<event>
 5    1  0.1751027E-003  0.9118800E+02  0.7818608E-02  0.1130116E+00
         25   -1    0    0    0    0  0.00000000000E+00  0.00000000000E+00  0.99999998245E-14  0.12500000000E+03  0.12500000000E+03 0.  0.
        -13    1    3    3    0    0  0.45324860996E+02  0.15936517123E+01 -0.11871191177E+02  0.46880903299E+02  0.10566000000E+00 0. -1.
         23    2    1    0    0    0  0.24900680332E+01  0.20950452593E+02 -0.21516310523E+02  0.94865741735E+02  0.89952406493E+02 0.  0.
         13    1    3    3    0    0 -0.42834792963E+02  0.19356800881E+02 -0.96451193454E+01  0.47984838436E+02  0.10566000000E+00 0.  1.
         22    1    1    0    0    0 -0.24900680332E+01 -0.20950452593E+02  0.21516310523E+02  0.30134258265E+02  0.00000000000E+00 0.  1.
</event>
<event>
 5    1  0.1751027E-003  0.9118800E+02  0.7818608E-02  0.1130116E+00
         25   -1    0    0    0    0  0.00000000000E+00  0.00000000000E+00  0.99999998245E-14  0.12500000000E+03  0.12500000000E+03 0.  0.
        -13    1    3    3    0    0  0.33128921370E+02  0.43617931889E+01  0.22737476920E+02  0.40417257350E+02  0.10566000000E+00 0.  1.
         23    2    1    0    0    0 -0.64024634923E+00  0.23407322711E+02 -0.17098955323E+02  0.96005398002E+02  0.91522398900E+02 0.  0.
         13    1    3    3    0    0 -0.33769167719E+02  0.19045529522E+02 -0.39836432243E+02  0.55588140652E+02  0.10566000000E+00 0. -1.
         22    1    1    0    0    0  0.64024634923E+00 -0.23407322711E+02  0.17098955323E+02  0.28994601998E+02  0.00000000000E+00 0. -1.
</event>
<event>
 5    1  0.1751027E-003  0.9118800E+02  0.7818608E-02  0.1130116E+00
         25   -1    0    0    0    0  0.00000000000E+00  0.00000000000E+00  0.99999998245E-14  0.12500000000E+03  0.12500000000E+03 0.  0.
        -13    1    3    3    0    0 -0.10621832537E+02 -0.30512898087E+02 -0.42065467468E+02  0.53041257465E+02  0.10566000000E+00 0. -1.
         23    2    1    0    0    0  0.11197575219E+02  0.25962449830E+01 -0.27343986163E+02  0.95338244184E+02  0.90606628046E+02 0.  0.
         13    1    3    3    0    0  0.21819407756E+02  0.33109143070E+02  0.14721481304E+02  0.42296986719E+02  0.10566000000E+00 0.  1.
         22    1    1    0    0    0 -0.11197575219E+02 -0.25962449830E+01  0.27343986163E+02  0.29661755816E+02  0.00000000000E+00 0. -1.
</event>
<event>
 5    1  0.1751027E-003  0.9118800E+02  0.7818608E-02  0.1130116E+00
         25   -1    0    0    0    0  0.00000000000E+00  0.00000000000E+00  0.99999998245E-14  0.12500000000E+03  0.12500000000E+03 0.  0.
        -13    1    3    3    0    0 -0.83550875410E+01 -0.37017332887E+02  0.15021413671E+02  0.40813532739E+02  0.10566000000E+00 0. -1.
         23    2    1    0    0    0  0.27987245728E+02  0.35832040703E+01  0.73644218267E+01  0.95839067510E+02  0.91294944425E+02 0.  0.
         13    1    3    3    0    0  0.36342333269E+02  0.40600536958E+02 -0.76569918448E+01  0.55025534771E+02  0.10566000000E+00 0.  1.
         22    1    1    0    0    0 -0.27987245728E+02 -0.35832040703E+01 -0.73644218267E+01  0.29160932490E+02  0.00000000000E+00 0.  1.
</event>
<event>
 5    1  0.1751027E-003  0.9118800E+02  0.7818608E-02  0.1130116E+00
         25   -1    0    0    0    0  0.00000000000E+00  0.00000000000E+00  0.99999998245E-14  0.12500000000E+03  0.12500000000E+03 0.  0.
        -13    1    3    3    0    0  0.13568968474E+02  0.30616220951E+02 -0.17388943428E+02  0.37734021894E+02  0.10566000000E+00 0.  1.
         23    2    1    0    0    0 -0.14709331997E+02 -0.15623866714E+02  0.13037033265E+02  0.99891557291E+02  0.96684483361E+02 0.  0.
         13    1    3    3    0    0 -0.28278300471E+02 -0.46240087665E+02  0.30425976693E+02  0.62157535397E+02  0.10566000000E+00 0. -1.
         22    1    1    0    0    0  0.14709331997E+02  0.15623866714E+02 -0.13037033265E+02  0.25108442709E+02  0.00000000000E+00 0. -1.
</event>
<event>
 5    1  0.1751027E-003  0.9118800E+02  0.7818608E-02  0.1130116E+00
         25   -1    0    0    0    0  0.00000000000E+00  0.00000000000E+00  0.99999998245E-14  0.12500000000E+03  0.12500000000E+03 0.  0.
        -13    1    3    3    0    0  0.12954235453E+02  0.31667655287E+02  0.34015452852E+01  0.34383633925E+02  0.10566000000E+00 0.  1.
         23    2    1    0    0    0 -0.11951558737E+02 -0.24270856123E+02 -0.82526150580E+01  0.96715377526E+02  0.92486995743E+02 0.  0.
         13    1    3    3    0    0 -0.24905794190E+02 -0.55938511410E+02 -0.11654160343E+02  0.62331743601E+02  0.10566000000E+00 0. -1.
         22    1    1    0    0    0  0.11951558737E+02  0.24270856123E+02  0.82526150580E+01  0.28284622474E+02  0.00000000000E+00 0. -1.
</event>
<event>
 5    1  0.1751027E-003  0.9118800E+02  0.7818608E-02  0.1130116E+00
         25   -1    0    0    0    0  0.00000000000E+00  0.00000000000E+00  0.99999998245E-14  0.12500000000E+03  0.12500000000E+03 0.  0.
        -13    1    3    3    0    0 -0.12085773293E+02 -0.20415221559E+02 -0.34490966627E+02  0.41862693778E+02  0.10566000000E+00 0.  1.
         23    2    1    0    0    0 -0.13365866089E+02 -0.16356429582E+02  0.19637832890E+02  0.96158646952E+02  0.91731465366E+02 0.  0.
         13    1    3    3    0    0 -0.12800927962E+01  0.40587919770E+01  0.54128799518E+02  0.54295953175E+02  0.10566000000E+00 0. -1.
         22    1    1    0    0    0  0.13365866089E+02  0.16356429582E+02 -0.19637832890E+02  0.28841353048E+02  0.00000000000E+00 0. -1.
</event>
<event>
 5    1  0.1751027E-003  0.9118800E+02  0.7818608E-02  0.1130116E+00
         25   -1    0    0    0    0  0.00000000000E+00  0.00000000000E+00  0.99999998245E-14  0.12500000000E+03  0.12500000000E+03 0.  0.
        -13    1    3    3    0    0 -0.48196084043E+02  0.31330606080E+02 -0.13830402208E+02  0.59124957367E+02  0.10566000000E+00 0. -1.
         23    2    1    0    0    0 -0.27407929417E+02  0.80616276591E+00 -0.45362531952E+01  0.97207517448E+02  0.93149768449E+02 0.  0.
         13    1    3    3    0    0  0.20788154626E+02 -0.30524443314E+02  0.92941490124E+01  0.38082560081E+02  0.10566000000E+00 0.  1.
         22    1    1    0    0    0  0.27407929417E+02 -0.80616276591E+00  0.45362531952E+01  0.27792482552E+02  0.00000000000E+00 0. -1.
</event>
<event>
 5    1  0.1751027E-003  0.9118800E+02  0.7818608E-02  0.1130116E+00
         25   -1    0    0    0    0  0.00000000000E+00  0.00000000000E+00  0.99999998245E-14  0.12500000000E+03  0.12500000000E+03 0.  0.
        -13    1    3    3    0    0  0.55548770453E+02  0.21400524243E+02 -0.63804815698E+01  0.59869608700E+02  0.10566000000E+00 0.  1.
         23    2    1    0    0    0  0.26674811430E+02  0.46391772829E+01  0.87796314243E+01  0.96536875459E+02  0.92245427339E+02 0.  0.
         13    1    3    3    0    0 -0.28873959024E+02 -0.16761346960E+02  0.15160112994E+02  0.36667266760E+02  0.10566000000E+00 0. -1.
         22    1    1    0    0    0 -0.26674811430E+02 -0.46391772829E+01 -0.87796314243E+01  0.28463124541E+02  0.00000000000E+00 0.  1.
</event>
<event>
 5    1  0.1751027E-003  0.9118800E+02  0.7818608E-02  0.1130116E+00
         25   -1    0    0    0    0  0.00000000000E+00  0.00000000000E+00  0.99999998245E-14  0.12500000000E+03  0.12500000000E+03 0.  0.
        -13    1    3    3    0    0 -0.40058443137E+02  0.31615099954E+02 -0.18928875348E+02  0.54428916007E+02  0.10566000000E+00 0. -1.
         23    2    1    0    0    0 -0.13585235340E+02  0.25646063842E+02  0.10197359485E+02  0.94238573663E+02  0.89076615426E+02 0.  0.
         13    1    3    3    0    0  0.26473207797E+02 -0.59690361124E+01  0.29126234833E+02  0.39809657656E+02  0.10566000000E+00 0.  1.
         22    1    1    0    0    0  0.13585235340E+02 -0.25646063842E+02 -0.10197359485E+02  0.30761426337E+02  0.00000000000E+00 0. -1.
</event>
<event>
 5    1  0.1751027E-003  0.9118800E+02  0.7818608E-02  0.1130116E+00
         25   -1    0    0    0    0  0.00000000000E+00  0.00000000000E+00  0.99999998245E-14  0.12500000000E+03  0.12500000000E+03 0.  0.
        -13    1    3    3    0    0  0.70816508904E+01 -0.37497621867E+02  0.10890422748E+02  0.39684176905E+02  0.10566000000E+00 0. -1.
         23    2    1    0    0    0 -0.26931710016E+02  0.75714320199E+01  0.62236490743E+01  0.96340317605E+02  0.91978689930E+02 0.  0.
         13    1    3    3    0    0 -0.34013360906E+02  0.45069053887E+02 -0.46667736732E+01  0.56656140699E+02  0.10566000000E+00 0.  1.
         22    1    1    0    0    0  0.26931710016E+02 -0.75714320199E+01 -0.62236490743E+01  0.28659682395E+02  0.00000000000E+00 0. -1.
</event>
<event>
 5    1  0.1751027E-003  0.9118800E+02  0.7818608E-02  0.1130116E+00
         25   -1    0    0    0    0  0.00000000000E+00  0.00000000000E+00  0.99999998245E-14  0.12500000000E+03  0.12500000000E+03 0.  0.
        -13    1    3    3    0    0 -0.21165468672E+02  0.13610288280E+02 -0.31745243913E+02  0.40509118558E+02  0.10566000000E+00 0.  1.
         23    2    1    0    0    0  0.10504195733E+02  0.12405253637E+02  0.18786575313E+02  0.10015721719E+03  0.97027337886E+02 0.  0.
         13    1    3    3    0    0  0.31669664406E+02 -0.12050346433E+01  0.50531819226E+02  0.59648098632E+02  0.10566000000E+00 0. -1.
         22    1    1    0    0    0 -0.10504195733E+02 -0.12405253637E+02 -0.18786575313E+02  0.24842782811E+02  0.00000000000E+00 0. -1.
</event>
<event>
 5    1  0.1751027E-003  0.9118800E+02  0.7818608E-02  0.1130116E+00
         25   -1    0    0    0    0  0.00000000000E+00  0.00000000000E+00  0.99999998245E-14  0.12500000000E+03  0.12500000000E+03 0.  0.
        -13    1    3    3    0    0 -0.28492424600E+02  0.37947002782E+02 -0.36392897527E+02  0.59801734374E+02  0.10566000000E+00 0. -1.
         23    2    1    0    0    0 -0.12111400990E+01  0.20066014224E+02 -0.21196247092E+02  0.95787114521E+02  0.91223783249E+02 0.  0.
         13    1    3    3    0    0  0.27281284501E+02 -0.17880988557E+02  0.15196650435E+02  0.35985380147E+02  0.10566000000E+00 0.  1.
         22    1    1    0    0    0  0.12111400990E+01 -0.20066014224E+02  0.21196247092E+02  0.29212885479E+02  0.00000000000E+00 0. -1.
</event>
<event>
 5    1  0.1751027E-003  0.9118800E+02  0.7818608E-02  0.1130116E+00
         25   -1    0    0    0    0  0.00000000000E+00  0.00000000000E+00  0.99999998245E-14  0.12500000000E+03  0.12500000000E+03 0.  0.
        -13    1    3    3    0    0 -0.26631887469E+02  0.44827031101E+02  0.20546083990E+02  0.56043490959E+02  0.10566000000E+00 0.  1.
         23    2    1    0    0    0 -0.77130520200E+01  0.89866477871E+01  0.25511329166E+02  0.96873874676E+02  0.92700963690E+02 0.  0.
         13    1    3    3    0    0  0.18918835449E+02 -0.35840383314E+02  0.49652451758E+01  0.40830383717E+02  0.10566000000E+00 0. -1.
         22    1    1    0    0    0  0.77130520200E+01 -0.89866477871E+01 -0.25511329166E+02  0.28126125324E+02  0.00000000000E+00 0.  1.
</event>
<event>
 5    1  0.1751027E-003  0.9118800E+02  0.7818608E-02  0.1130116E+00
         25   -1    0    0    0    0  0.00000000000E+00  0.00000000000E+00  0.99999998245E-14  0.12500000000E+03  0.12500000000E+03 0.  0.
        -13    1    3    3    0    0 -0.31806005022E+02  0.32251187279E+02  0.29162805101E+02  0.53872454945E+02  0.10566000000E+00 0. -1.
         23    2    1    0    0    0 -0.18272020433E+01  0.28838761451E+02 -0.38134377487E+00  0.96100895301E+02  0.91652734957E+02 0.  0.
         13    1    3    3    0    0  0.29978802979E+02 -0.34124258280E+01 -0.29544148876E+02  0.42228440356E+02  0.10566000000E+00 0.  1.
         22    1    1    0    0    0  0.18272020433E+01 -0.28838761451E+02  0.38134377487E+00  0.28899104699E+02  0.00000000000E+00 0. -1.
</event>
<event>
 5    1  0.1751027E-003  0.9118800E+02  0.7818608E-02  0.1130116E+00
         25   -1    0    0    0    0  0.00000000000E+00  0.00000000000E+00  0.99999998245E-14  0.12500000000E+03  0.12500000000E+03 0.  0.
        -13    1    3    3    0    0 -0.56284276791E+02 -0.51476958561E+01 -0.13136415979E+02  0.58025814732E+02  0.10566000000E+00 0.  1.
         23    2    1    0    0    0 -0.26315788287E+02 -0.14262830113E+02  0.56319363280E+01  0.94542361503E+02  0.89501901520E+02 0.  0.
         13    1    3    3    0    0  0.29968488504E+02 -0.91151342573E+01  0.18768352307E+02  0.36516546771E+02  0.10566000000E+00 0. -1.
         22    1    1    0    0    0  0.26315788287E+02  0.14262830113E+02 -0.56319363280E+01  0.30457638497E+02  0.00000000000E+00 0.  1.
</event>
<event>
 5    1  0.1751027E-003  0.9118800E+02  0.7818608E-02  0.1130116E+00
         25   -1    0    0    0    0  0.00000000000E+00  0.00000000000E+00  0.99999998245E-14  0.12500000000E+03  0.12500000000E+03 0.  0.
        -13    1    3    3    0    0 -0.23481080314E+02  0.20409684104E+02  0.47149377164E+02  0.56488859689E+02  0.10566000000E+00 0.  1.
         23    2    1    0    0    0  0.79019677086E+01  0.73990824953E+01  0.26814183007E+02  0.96083085819E+02  0.91628442389E+02 0.  0.
         13    1    3    3    0    0  0.31383048022E+02 -0.13010601609E+02 -0.20335194157E+02  0.39594226130E+02  0.10566000000E+00 0. -1.
         22    1    1    0    0    0 -0.79019677086E+01 -0.73990824953E+01 -0.26814183007E+02  0.28916914181E+02  0.00000000000E+00 0.  1.
</event>
<event>
 5    1  0.1751027E-003  0.9118800E+02  0.7818608E-02  0.1130116E+00
         25   -1    0    0    0    0  0.00000000000E+00  0.00000000000E+00  0.99999998245E-14  0.12500000000E+03  0.12500000000E+03 0.  0.
        -13    1    3    3    0    0 -0.18777291676E+02 -0.61200371592E+01 -0.49533619657E+02  0.53325717791E+02  0.10566000000E+00 0. -1.
         23    2    1    0    0    0 -0.23311995894E+02  0.10639142793E+02 -0.83020606114E+01  0.98063691375E+02  0.94291690216E+02 0.  0.
         13    1    3    3    0    0 -0.45347042181E+01  0.16759179952E+02  0.41231559046E+02  0.44737973584E+02  0.10566000000E+00 0.  1.
         22    1    1    0    0    0  0.23311995894E+02 -0.10639142793E+02  0.83020606114E+01  0.26936308625E+02  0.00000000000E+00 0. -1.
</event>
<event>
 5    1  0.1751027E-003  0.9118800E+02  0.7818608E-02  0.1130116E+00
         25   -1    0    0    0    0  0.00000000000E+00  0.00000000000E+00  0.99999998245E-14  0.12500000000E+03  0.12500000000E+03 0.  0.
        -13    1    3    3    0    0  0.24072952014E+02 -0.25628111388E+02  0.43842624035E+02  0.56200480054E+02  0.10566000000E+00 0.  1.
         23    2    1    0    0    0 -0.20671063849E+01 -0.58097112440E-01  0.29417648515E+02  0.95509758423E+02  0.90842939218E+02 0.  0.
         13    1    3    3    0    0 -0.26140058399E+02  0.25570014276E+02 -0.14424975520E+02  0.39309278369E+02  0.10566000000E+00 0. -1.
         22    1    1    0    0    0  0.20671063849E+01  0.58097112440E-01 -0.29417648515E+02  0.29490241577E+02  0.00000000000E+00 0.  1.
</event>
<event>
 5    1  0.1751027E-003  0.9118800E+02  0.7818608E-02  0.1130116E+00
         25   -1    0    0    0    0  0.00000000000E+00  0.00000000000E+00  0.99999998245E-14  0.12500000000E+03  0.12500000000E+03 0.  0.
        -13    1    3    3    0    0 -0.26845906667E+02 -0.11108182448E+02  0.21549879625E+02  0.36173234552E+02  0.10566000000E+00 0. -1.
         23    2    1    0    0    0  0.23580500999E+02 -0.24251702191E+02  0.52850394464E+01  0.90763809667E+02  0.84059219702E+02 0.  0.
         13    1    3    3    0    0  0.50426407666E+02 -0.13143519742E+02 -0.16264840179E+02  0.54590575115E+02  0.10566000000E+00 0.  1.
         22    1    1    0    0    0 -0.23580500999E+02  0.24251702191E+02 -0.52850394464E+01  0.34236190333E+02  0.00000000000E+00 0.  1.
</event>
<event>
 5    1  0.1751027E-003  0.9118800E+02  0.7818608E-02  0.1130116E+00
         25   -1    0    0    0    0  0.00000000000E+00  0.00000000000E+00  0.99999998245E-14  0.12500000000E+03  0.12500000000E+03 0.  0.
        -13    1    3    3    0    0 -0.36632551786E+02 -0.46271505756E+02  0.43215886697E+01  0.59175023346E+02  0.10566000000E+00 0.  1.
         23    2    1    0    0    0 -0.27386198236E+02 -0.12310378261E+02  0.58666517370E+01  0.94406424377E+02  0.89311847447E+02 0.  0.
         13    1    3    3    0    0  0.92463535500E+01  0.33961127495E+02  0.15450630673E+01  0.35231401031E+02  0.10566000000E+00 0. -1.
         22    1    1    0    0    0  0.27386198236E+02  0.12310378261E+02 -0.58666517370E+01  0.30593575623E+02  0.00000000000E+00 0.  1.
</event>
<event>
 5    1  0.1751027E-003  0.9118800E+02  0.7818608E-02  0.1130116E+00
         25   -1    0    0    0    0  0.00000000000E+00  0.00000000000E+00  0.99999998245E-14  0.12500000000E+03  0.12500000000E+03 0.  0.
        -13    1    3    3    0    0  0.52898274027E+02 -0.20312840979E+02  0.15813061388E+02  0.58829439724E+02  0.10566000000E+00 0. -1.
         23    2    1    0    0    0  0.29381936477E+02 -0.16038138881E+01 -0.46823130608E+01  0.95204119987E+02  0.90421402316E+02 0.  0.
         13    1    3    3    0    0 -0.23516337550E+02  0.18709027091E+02 -0.20495374449E+02  0.36374680264E+02  0.10566000000E+00 0.  1.
         22    1    1    0    0    0 -0.29381936477E+02  0.16038138881E+01  0.46823130608E+01  0.29795880013E+02  0.00000000000E+00 0.  1.
</event>
<event>
 5    1  0.1751027E-003  0.9118800E+02  0.7818608E-02  0.1130116E+00
         25   -1    0    0    0    0  0.00000000000E+00  0.00000000000E+00  0.99999998245E-14  0.12500000000E+03  0.12500000000E+03 0.  0.
        -13    1    3    3    0    0  0.10769285772E+02 -0.36072685831E+02 -0.40138466023E+02  0.55030208048E+02  0.10566000000E+00 0.  1.
         23    2    1    0    0    0 -0.12948925165E+02 -0.64649201210E+01 -0.25472392347E+02  0.95703027000E+02  0.91108488902E+02 0.  0.
         13    1    3    3    0    0 -0.23718210937E+02  0.29607765710E+02  0.14666073676E+02  0.40672818952E+02  0.10566000000E+00 0. -1.
         22    1    1    0    0    0  0.12948925165E+02  0.64649201210E+01  0.25472392347E+02  0.29296973000E+02  0.00000000000E+00 0.  1.
</event>
<event>
 5    1  0.1751027E-003  0.9118800E+02  0.7818608E-02  0.1130116E+00
         25   -1    0    0    0    0  0.00000000000E+00  0.00000000000E+00  0.99999998245E-14  0.12500000000E+03  0.12500000000E+03 0.  0.
        -13    1    3    3    0    0 -0.11295966148E+02  0.32160083145E+02  0.45974174506E+02  0.57232033728E+02  0.10566000000E+00 0. -1.
         23    2    1    0    0    0 -0.18055480942E+02  0.13447276543E+02  0.62895583844E+01  0.10162505223E+03  0.98900268241E+02 0.  0.
         13    1    3    3    0    0 -0.67595147937E+01 -0.18712806601E+02 -0.39684616122E+02  0.44393018504E+02  0.10566000000E+00 0.  1.
         22    1    1    0    0    0  0.18055480942E+02 -0.13447276543E+02 -0.62895583844E+01  0.23374947768E+02  0.00000000000E+00 0. -1.
</event>
<event>
 5    1  0.1751027E-003  0.9118800E+02  0.7818608E-02  0.1130116E+00
         25   -1    0    0    0    0  0.00000000000E+00  0.00000000000E+00  0.99999998245E-14  0.12500000000E+03  0.12500000000E+03 0.  0.
        -13    1    3    3    0    0 -0.30740395847E+01  0.37102382568E+02 -0.15418095656E+02  0.40295971874E+02  0.10566000000E+00 0. -1.
         23    2    1    0    0    0  0.24891609778E+02 -0.95302213617E+01 -0.14452903370E+02  0.94679977369E+02  0.89693892446E+02 0.  0.
         13    1    3    3    0    0  0.27965649362E+02 -0.46632603929E+02  0.96519228523E+00  0.54384005495E+02  0.10566000000E+00 0.  1.
         22    1    1    0    0    0 -0.24891609778E+02  0.95302213617E+01  0.14452903370E+02  0.30320022631E+02  0.00000000000E+00 0.  1.
</event>
<event>
 5    1  0.1751027E-003  0.9118800E+02  0.7818608E-02  0.1130116E+00
         25   -1    0    0    0    0  0.00000000000E+00  0.00000000000E+00  0.99999998245E-14  0.12500000000E+03  0.12500000000E+03 0.  0.
        -13    1    3    3    0    0 -0.32436094369E+02 -0.21522953163E+02  0.18803900129E+02  0.43231187294E+02  0.10566000000E+00 0.  1.
         23    2    1    0    0    0  0.19224755778E+02 -0.20217312416E+02  0.68152322097E+01  0.96281045525E+02  0.91898103252E+02 0.  0.
         13    1    3    3    0    0  0.51660850148E+02  0.13056407469E+01 -0.11988667919E+02  0.53049858230E+02  0.10566000000E+00 0. -1.
         22    1    1    0    0    0 -0.19224755778E+02  0.20217312416E+02 -0.68152322097E+01  0.28718954475E+02  0.00000000000E+00 0.  1.
</event>
<event>
 5    1  0.1751027E-003  0.9118800E+02  0.7818608E-02  0.1130116E+00
         25   -1    0    0    0    0  0.00000000000E+00  0.00000000000E+00  0.99999998245E-14  0.12500000000E+03  0.12500000000E+03 0.  0.
        -13    1    3    3    0    0  0.27854973266E+02  0.11945838528E+02  0.18859169502E+02  0.35697087166E+02  0.10566000000E+00 0. -1.
         23    2    1    0    0    0 -0.99871727696E+01 -0.28178677151E+02 -0.28458063723E+01  0.94968681684E+02  0.90095340729E+02 0.  0.
         13    1    3    3    0    0 -0.37842146035E+02 -0.40124515679E+02 -0.21704975875E+02  0.59271594518E+02  0.10566000000E+00 0.  1.
         22    1    1    0    0    0  0.99871727696E+01  0.28178677151E+02  0.28458063723E+01  0.30031318316E+02  0.00000000000E+00 0.  1.
</event>
<event>
 5    1  0.1751027E-003  0.9118800E+02  0.7818608E-02  0.1130116E+00
         25   -1    0    0    0    0  0.00000000000E+00  0.00000000000E+00  0.99999998245E-14  0.12500000000E+03  0.12500000000E+03 0.  0.
        -13    1    3    3    0    0  0.38882801369E+02 -0.23646984071E+02 -0.86744360236E+01  0.46328275408E+02  0.10566000000E+00 0.  1.
         23    2    1    0    0    0  0.20134502434E+02  0.16248182884E+02  0.13657920985E+02  0.95743540185E+02  0.91164055670E+02 0.  0.
         13    1    3    3    0    0 -0.18748298935E+02  0.39895166954E+02  0.22332357009E+02  0.49415264776E+02  0.10566000000E+00 0. -1.
         22    1    1    0    0    0 -0.20134502434E+02 -0.16248182884E+02 -0.13657920985E+02  0.29256459815E+02  0.00000000000E+00 0. -1.
</event>
<event>
 5    1  0.1751027E-003  0.9118800E+02  0.7818608E-02  0.1130116E+00
         25   -1    0    0    0    0  0.00000000000E+00  0.00000000000E+00  0.99999998245E-14  0.12500000000E+03  0.12500000000E+03 0.  0.
        -13    1    3    3    0    0 -0.51322292804E+01 -0.23882517245E+02  0.30097867159E+02  0.38763477384E+02  0.10566000000E+00 0.  1.
         23    2    1    0    0    0 -0.18828283451E+02  0.22420612834E+02 -0.11307589834E+00  0.95722006153E+02  0.91134524403E+02 0.  0.
         13    1    3    3    0    0 -0.13696054170E+02  0.46303130079E+02 -0.30210943058E+02  0.56958528768E+02  0.10566000000E+00 0. -1.
         22    1    1    0    0    0  0.18828283451E+02 -0.22420612834E+02  0.11307589834E+00  0.29277993847E+02  0.00000000000E+00 0. -1.
</event>
<event>
 5    1  0.1751027E-003  0.9118800E+02  0.7818608E-02  0.1130116E+00
         25   -1    0    0    0    0  0.00000000000E+00  0.00000000000E+00  0.99999998245E-14  0.12500000000E+03  0.12500000000E+03 0.  0.
        -13    1    3    3    0    0 -0.33539306694E+02  0.22753766388E+02 -0.36410735358E+02  0.54482766007E+02  0.10566000000E+00 0. -1.
         23    2    1    0    0    0 -0.19085955265E+02  0.33956929187E+02 -0.13551072641E+02  0.83757081845E+02  0.72899042938E+02 0.  0.
         13    1    3    3    0    0  0.14453351429E+02  0.11203162799E+02  0.22859662717E+02  0.29274315838E+02  0.10566000000E+00 0.  1.
         22    1    1    0    0    0  0.19085955265E+02 -0.33956929187E+02  0.13551072641E+02  0.41242918155E+02  0.00000000000E+00 0. -1.
</event>
<event>
 5    1  0.1751027E-003  0.9118800E+02  0.7818608E-02  0.1130116E+00
         25   -1    0    0    0    0  0.00000000000E+00  0.00000000000E+00  0.99999998245E-14  0.12500000000E+03  0.12500000000E+03 0.  0.
        -13    1    3    3    0    0  0.27309584691E+02  0.62509820740E+01  0.19417293022E+02  0.34087103503E+02  0.10566000000E+00 0.  1.
         23    2    1    0    0    0 -0.17244413478E+02 -0.20855944552E+02 -0.12457285738E+02  0.95208655832E+02  0.90427672524E+02 0.  0.
         13    1    3    3    0    0 -0.44553998170E+02 -0.27106926626E+02 -0.31874578760E+02  0.61121552329E+02  0.10566000000E+00 0. -1.
         22    1    1    0    0    0  0.17244413478E+02  0.20855944552E+02  0.12457285738E+02  0.29791344168E+02  0.00000000000E+00 0. -1.
</event>
<event>
 5    1  0.1751027E-003  0.9118800E+02  0.7818608E-02  0.1130116E+00
         25   -1    0    0    0    0  0.00000000000E+00  0.00000000000E+00  0.99999998245E-14  0.12500000000E+03  0.12500000000E+03 0.  0.
        -13    1    3    3    0    0  0.32627199002E+02  0.10053314837E+02  0.47672441323E+02  0.58636815054E+02  0.10566000000E+00 0. -1.
         23    2    1    0    0    0  0.43801019431E+01 -0.91745486467E+01  0.19835844859E+02  0.10271057701E+03  0.10026287575E+03 0.  0.
         13    1    3    3    0    0 -0.28247097059E+02 -0.19227863483E+02 -0.27836596464E+02  0.44073761958E+02  0.10566000000E+00 0.  1.
         22    1    1    0    0    0 -0.43801019431E+01  0.91745486467E+01 -0.19835844859E+02  0.22289422989E+02  0.00000000000E+00 0. -1.
</event>
<event>
 5    1  0.1751027E-003  0.9118800E+02  0.7818608E-02  0.1130116E+00
         25   -1    0    0    0    0  0.00000000000E+00  0.00000000000E+00  0.99999998245E-14  0.12500000000E+03  0.12500000000E+03 0.  0.
        -13    1    3    3    0    0 -0.22137854691E+02  0.78868300087E+01 -0.35528111952E+02  0.42597471765E+02  0.10566000000E+00 0. -1.
         23    2    1    0    0    0  0.59101315125E+01  0.28807060374E+02  0.39254339690E+01  0.95332081068E+02  0.90598125075E+02 0.  0.
         13    1    3    3    0    0  0.28047986203E+02  0.20920230365E+02  0.39453545921E+02  0.52734609303E+02  0.10566000000E+00 0.  1.
         22    1    1    0    0    0 -0.59101315125E+01 -0.28807060374E+02 -0.39254339690E+01  0.29667918932E+02  0.00000000000E+00 0. -1.
</event>
<event>
 5    1  0.1751027E-003  0.9118800E+02  0.7818608E-02  0.1130116E+00
         25   -1    0    0    0    0  0.00000000000E+00  0.00000000000E+00  0.99999998245E-14  0.12500000000E+03  0.12500000000E+03 0.  0.
        -13    1    3    3    0    0 -0.76356732267E+01 -0.18026587620E+02  0.52690424686E+02  0.56209904683E+02  0.10566000000E+00 0.  1.
         23    2    1    0    0    0  0.90721844262E+01 -0.21962681824E+02  0.17098292414E+02  0.95725172475E+02  0.91138867223E+02 0.  0.
         13    1    3    3    0    0  0.16707857653E+02 -0.39360942043E+01 -0.35592132272E+02  0.39515267792E+02  0.10566000000E+00 0. -1.
         22    1    1    0    0    0 -0.90721844262E+01  0.21962681824E+02 -0.17098292414E+02  0.29274827525E+02  0.00000000000E+00 0.  1.
</event>
<event>
 5    1  0.1751027E-003  0.9118800E+02  0.7818608E-02  0.1130116E+00
         25   -1    0    0    0    0  0.00000000000E+00  0.00000000000E+00  0.99999998245E-14  0.12500000000E+03  0.12500000000E+03 0.  0.
        -13    1    3    3    0    0  0.28307032469E+02  0.20239966065E+01  0.31870574273E+02  0.42674691774E+02  0.10566000000E+00 0.  1.
         23    2    1    0    0    0  0.75730115392E+01  0.25702902754E+02 -0.11148471187E+02  0.95977971753E+02  0.91484932849E+02 0.  0.
         13    1    3    3    0    0 -0.20734020930E+02  0.23678906147E+02 -0.43019045460E+02  0.53303279979E+02  0.10566000000E+00 0. -1.
         22    1    1    0    0    0 -0.75730115392E+01 -0.25702902754E+02  0.11148471187E+02  0.29022028247E+02  0.00000000000E+00 0. -1.
</event>
<event>
 5    1  0.1751027E-003  0.9118800E+02  0.7818608E-02  0.1130116E+00
         25   -1    0    0    0    0  0.00000000000E+00  0.00000000000E+00  0.99999998245E-14  0.12500000000E+03  0.12500000000E+03 0.  0.
        -13    1    3    3    0    0  0.33053644343E+02  0.36579016918E+02  0.24922657576E+02  0.55242356102E+02  0.10566000000E+00 0.  1.
         23    2    1    0    0    0  0.28221007391E+02  0.74477281535E+00  0.56768097509E+01  0.96204060813E+02  0.91793328752E+02 0.  0.
         13    1    3    3    0    0 -0.48326369524E+01 -0.35834244102E+02 -0.19245847825E+02  0.40961704711E+02  0.10566000000E+00 0. -1.
         22    1    1    0    0    0 -0.28221007391E+02 -0.74477281535E+00 -0.56768097509E+01  0.28795939187E+02  0.00000000000E+00 0.  1.
</event>
<event>
 5    1  0.1751027E-003  0.9118800E+02  0.7818608E-02  0.1130116E+00
         25   -1    0    0    0    0  0.00000000000E+00  0.00000000000E+00  0.99999998245E-14  0.12500000000E+03  0.12500000000E+03 0.  0.
        -13    1    3    3    0    0  0.93227909699E+00 -0.49406716079E+02 -0.12865119872E+02  0.51062855495E+02  0.10566000000E+00 0. -1.
         23    2    1    0    0    0 -0.22447013862E+02 -0.18504432541E+02  0.76662122817E+01  0.94915896794E+02  0.90022076172E+02 0.  0.
         13    1    3    3    0    0 -0.23379292959E+02  0.30902283537E+02  0.20531332154E+02  0.43853041298E+02  0.10566000000E+00 0.  1.
         22    1    1    0    0    0  0.22447013862E+02  0.18504432541E+02 -0.76662122817E+01  0.30084103206E+02  0.00000000000E+00 0.  1.
</event>
<event>
 4    1  0.1751027E-003  0.9118800E+02  0.7818608E-02  0.1130116E+00
         25   -1    0    0    0    0  0.00000000000E+00  0.00000000000E+00  0.99999998245E-14  0.12500000000E+03  0.12500000000E+03 0.  0.
        -13    1    1    0    0    0  0.15031172860E+02 -0.12721281063E+02 -0.11029180137E+01  0.19722949617E+02  0.10566000000E+00 0.  1.
         13    1    1    0    0    0 -0.17834748265E+01  0.20488383219E+02  0.49979094681E+02  0.54045126501E+02  0.10566000000E+00 0. -1.
         22    1    1    0    0    0 -0.13247698033E+02 -0.77671021564E+01 -0.48876176667E+02  0.51231923882E+02  0.00000000000E+00 0. -1.
</event>
<event>
 5    1  0.1751027E-003  0.9118800E+02  0.7818608E-02  0.1130116E+00
         25   -1    0    0    0    0  0.00000000000E+00  0.00000000000E+00  0.99999998245E-14  0.12500000000E+03  0.12500000000E+03 0.  0.
        -13    1    3    3    0    0 -0.12045326653E+02 -0.23114384257E+02  0.30086515773E+02  0.39806711107E+02  0.10566000000E+00 0.  1.
         23    2    1    0    0    0  0.57717507139E+01 -0.17041473885E+02 -0.22807209433E+02  0.95950150765E+02  0.91446911873E+02 0.  0.
         13    1    3    3    0    0  0.17817077367E+02  0.60729103724E+01 -0.52893725206E+02  0.56143439657E+02  0.10566000000E+00 0. -1.
         22    1    1    0    0    0 -0.57717507139E+01  0.17041473885E+02  0.22807209433E+02  0.29049849235E+02  0.00000000000E+00 0. -1.
</event>
<event>
 5    1  0.1751027E-003  0.9118800E+02  0.7818608E-02  0.1130116E+00
         25   -1    0    0    0    0  0.00000000000E+00  0.00000000000E+00  0.99999998245E-14  0.12500000000E+03  0.12500000000E+03 0.  0.
        -13    1    3    3    0    0  0.14562521600E+02 -0.27655273563E+02 -0.45590365044E+02  0.55275435232E+02  0.10566000000E+00 0. -1.
         23    2    1    0    0    0 -0.12983380217E+02 -0.20398008085E+02 -0.18920802476E+02  0.94297497463E+02  0.89159264049E+02 0.  0.
         13    1    3    3    0    0 -0.27545901817E+02  0.72572654781E+01  0.26669562568E+02  0.39022062231E+02  0.10566000000E+00 0.  1.
         22    1    1    0    0    0  0.12983380217E+02  0.20398008085E+02  0.18920802476E+02  0.30702502537E+02  0.00000000000E+00 0. -1.
</event>
<event>
 5    1  0.1751027E-003  0.9118800E+02  0.7818608E-02  0.1130116E+00
         25   -1    0    0    0    0  0.00000000000E+00  0.00000000000E+00  0.99999998245E-14  0.12500000000E+03  0.12500000000E+03 0.  0.
        -13    1    3    3    0    0  0.24225206385E+02 -0.41859744995E+01  0.43663030172E+02  0.50108426185E+02  0.10566000000E+00 0. -1.
         23    2    1    0    0    0  0.52224652776E+01 -0.27805162191E+02  0.11070282360E+02  0.94619869329E+02  0.89610084992E+02 0.  0.
         13    1    3    3    0    0 -0.19002741107E+02 -0.23619187692E+02 -0.32592747812E+02  0.44511443144E+02  0.10566000000E+00 0.  1.
         22    1    1    0    0    0 -0.52224652776E+01  0.27805162191E+02 -0.11070282360E+02  0.30380130671E+02  0.00000000000E+00 0. -1.
</event>
<event>
 5    1  0.1751027E-003  0.9118800E+02  0.7818608E-02  0.1130116E+00
         25   -1    0    0    0    0  0.00000000000E+00  0.00000000000E+00  0.99999998245E-14  0.12500000000E+03  0.12500000000E+03 0.  0.
        -13    1    3    3    0    0  0.45079150198E+01  0.46254840105E+02  0.23282454130E+02  0.51979951571E+02  0.10566000000E+00 0. -1.
         23    2    1    0    0    0 -0.19280005436E+02  0.20820760127E+02 -0.41630213918E+01  0.96319808073E+02  0.91950813037E+02 0.  0.
         13    1    3    3    0    0 -0.23787920456E+02 -0.25434079978E+02 -0.27445475522E+02  0.44339856502E+02  0.10566000000E+00 0.  1.
         22    1    1    0    0    0  0.19280005436E+02 -0.20820760127E+02  0.41630213918E+01  0.28680191927E+02  0.00000000000E+00 0. -1.
</event>
<event>
 5    1  0.1751027E-003  0.9118800E+02  0.7818608E-02  0.1130116E+00
         25   -1    0    0    0    0  0.00000000000E+00  0.00000000000E+00  0.99999998245E-14  0.12500000000E+03  0.12500000000E+03 0.  0.
        -13    1    3    3    0    0  0.20619493455E+02 -0.31680413668E+02  0.39767906096E+02  0.54866288737E+02  0.10566000000E+00 0.  1.
         23    2    1    0    0    0  0.13690502990E+02 -0.26016409247E+02  0.28288483473E-01  0.95601288762E+02  0.90968797895E+02 0.  0.
         13    1    3    3    0    0 -0.69289904658E+01  0.56640044206E+01 -0.39739617613E+02  0.40735000024E+02  0.10566000000E+00 0. -1.
         22    1    1    0    0    0 -0.13690502990E+02  0.26016409247E+02 -0.28288483473E-01  0.29398711238E+02  0.00000000000E+00 0.  1.
</event>
<event>
 5    1  0.1751027E-003  0.9118800E+02  0.7818608E-02  0.1130116E+00
         25   -1    0    0    0    0  0.00000000000E+00  0.00000000000E+00  0.99999998245E-14  0.12500000000E+03  0.12500000000E+03 0.  0.
        -13    1    3    3    0    0  0.56794108121E+01  0.43408319042E+01 -0.21677878089E+02  0.22826302619E+02  0.10566000000E+00 0. -1.
         23    2    1    0    0    0  0.12403315733E+02 -0.12553209921E+02  0.36865435121E+02  0.84128425194E+02  0.73533028623E+02 0.  0.
         13    1    3    3    0    0  0.67239049213E+01 -0.16894041825E+02  0.58543313209E+02  0.61302122575E+02  0.10566000000E+00 0.  1.
         22    1    1    0    0    0 -0.12403315733E+02  0.12553209921E+02 -0.36865435121E+02  0.40871574806E+02  0.00000000000E+00 0.  1.
</event>
<event>
 5    1  0.1751027E-003  0.9118800E+02  0.7818608E-02  0.1130116E+00
         25   -1    0    0    0    0  0.00000000000E+00  0.00000000000E+00  0.99999998245E-14  0.12500000000E+03  0.12500000000E+03 0.  0.
        -13    1    3    3    0    0  0.42083315823E+01  0.35343678321E+02  0.19967730041E+02  0.40811849492E+02  0.10566000000E+00 0. -1.
         23    2    1    0    0    0 -0.23774600317E+02 -0.11121728398E+02  0.13637999746E+02  0.95420961816E+02  0.90720672694E+02 0.  0.
         13    1    3    3    0    0 -0.27982931899E+02 -0.46465406719E+02 -0.63297302942E+01  0.54609112324E+02  0.10566000000E+00 0.  1.
         22    1    1    0    0    0  0.23774600317E+02  0.11121728398E+02 -0.13637999746E+02  0.29579038184E+02  0.00000000000E+00 0.  1.
</event>
<event>
 5    1  0.1751027E-003  0.9118800E+02  0.7818608E-02  0.1130116E+00
         25   -1    0    0    0    0  0.00000000000E+00  0.00000000000E+00  0.99999998245E-14  0.12500000000E+03  0.12500000000E+03 0.  0.
        -13    1    3    3    0    0 -0.20669132042E+02  0.38362969487E+02  0.24611122264E+02  0.50046467911E+02  0.10566000000E+00 0. -1.
         23    2    1    0    0    0 -0.27237761945E+02  0.12953191231E+02 -0.97664263743E+01  0.93297256854E+02  0.87745736156E+02 0.  0.
         13    1    3    3    0    0 -0.65686299027E+01 -0.25409778256E+02 -0.34377548638E+02  0.43250788944E+02  0.10566000000E+00 0.  1.
         22    1    1    0    0    0  0.27237761945E+02 -0.12953191231E+02  0.97664263743E+01  0.31702743146E+02  0.00000000000E+00 0. -1.
</event>
<event>
 5    1  0.1751027E-003  0.9118800E+02  0.7818608E-02  0.1130116E+00
         25   -1    0    0    0    0  0.00000000000E+00  0.00000000000E+00  0.99999998245E-14  0.12500000000E+03  0.12500000000E+03 0.  0.
        -13    1    3    3    0    0 -0.11594254780E+02  0.24347537922E+02 -0.59537007703E+01  0.27616789525E+02  0.10566000000E+00 0.  1.
         23    2    1    0    0    0 -0.18627479968E+02 -0.31081826714E+02  0.12823811283E+02  0.86561567440E+02  0.77558957317E+02 0.  0.
         13    1    3    3    0    0 -0.70332251882E+01 -0.55429364636E+02  0.18777512053E+02  0.58944777915E+02  0.10566000000E+00 0. -1.
         22    1    1    0    0    0  0.18627479968E+02  0.31081826714E+02 -0.12823811283E+02  0.38438432560E+02  0.00000000000E+00 0. -1.
</event>
<event>
 5    1  0.1751027E-003  0.9118800E+02  0.7818608E-02  0.1130116E+00
         25   -1    0    0    0    0  0.00000000000E+00  0.00000000000E+00  0.99999998245E-14  0.12500000000E+03  0.12500000000E+03 0.  0.
        -13    1    3    3    0    0 -0.32583617057E+02 -0.11679012932E+02 -0.48320219103E+01  0.34949263845E+02  0.10566000000E+00 0.  1.
         23    2    1    0    0    0  0.27344532592E+02 -0.65316881838E+01 -0.96136135789E+01  0.95287915266E+02  0.90537168149E+02 0.  0.
         13    1    3    3    0    0  0.59928149648E+02  0.51473247483E+01 -0.47815916685E+01  0.60338651421E+02  0.10566000000E+00 0. -1.
         22    1    1    0    0    0 -0.27344532592E+02  0.65316881838E+01  0.96136135789E+01  0.29712084734E+02  0.00000000000E+00 0. -1.
</event>
<event>
 5    1  0.1751027E-003  0.9118800E+02  0.7818608E-02  0.1130116E+00
         25   -1    0    0    0    0  0.00000000000E+00  0.00000000000E+00  0.99999998245E-14  0.12500000000E+03  0.12500000000E+03 0.  0.
        -13    1    3    3    0    0  0.38054966307E+02  0.10258543140E+02  0.43107361944E+02  0.58409536771E+02  0.10566000000E+00 0.  1.
         23    2    1    0    0    0  0.18449902764E+02 -0.11248797634E+02  0.19744134150E+02  0.95729448356E+02  0.91144731548E+02 0.  0.
         13    1    3    3    0    0 -0.19605063542E+02 -0.21507340774E+02 -0.23363227795E+02  0.37319911585E+02  0.10566000000E+00 0. -1.
         22    1    1    0    0    0 -0.18449902764E+02  0.11248797634E+02 -0.19744134150E+02  0.29270551644E+02  0.00000000000E+00 0.  1.
</event>
<event>
 5    1  0.1751027E-003  0.9118800E+02  0.7818608E-02  0.1130116E+00
         25   -1    0    0    0    0  0.00000000000E+00  0.00000000000E+00  0.99999998245E-14  0.12500000000E+03  0.12500000000E+03 0.  0.
        -13    1    3    3    0    0  0.18929651036E+02 -0.39691964554E+02 -0.41890700998E+02  0.60734057436E+02  0.10566000000E+00 0. -1.
         23    2    1    0    0    0  0.18282924085E+02 -0.15095862287E+02 -0.16343760971E+02  0.96202970744E+02  0.91791844332E+02 0.  0.
         13    1    3    3    0    0 -0.64672695088E+00  0.24596102267E+02  0.25546940026E+02  0.35468913308E+02  0.10566000000E+00 0.  1.
         22    1    1    0    0    0 -0.18282924085E+02  0.15095862287E+02  0.16343760971E+02  0.28797029256E+02  0.00000000000E+00 0. -1.
</event>
<event>
 5    1  0.1751027E-003  0.9118800E+02  0.7818608E-02  0.1130116E+00
         25   -1    0    0    0    0  0.00000000000E+00  0.00000000000E+00  0.99999998245E-14  0.12500000000E+03  0.12500000000E+03 0.  0.
        -13    1    3    3    0    0 -0.23790407041E+02  0.18060909213E+02 -0.13689392932E+02  0.32857123302E+02  0.10566000000E+00 0.  1.
         23    2    1    0    0    0  0.19355747773E+02 -0.18019380046E+02  0.13477551987E+02  0.95318567477E+02  0.90579478190E+02 0.  0.
         13    1    3    3    0    0  0.43146154814E+02 -0.36080289259E+02  0.27166944918E+02  0.62461444175E+02  0.10566000000E+00 0. -1.
         22    1    1    0    0    0 -0.19355747773E+02  0.18019380046E+02 -0.13477551987E+02  0.29681432523E+02  0.00000000000E+00 0. -1.
</event>
<event>
 5    1  0.1751027E-003  0.9118800E+02  0.7818608E-02  0.1130116E+00
         25   -1    0    0    0    0  0.00000000000E+00  0.00000000000E+00  0.99999998245E-14  0.12500000000E+03  0.12500000000E+03 0.  0.
        -13    1    3    3    0    0  0.38808545596E+02  0.28516711639E+01  0.40127941081E+02  0.55897209762E+02  0.10566000000E+00 0. -1.
         23    2    1    0    0    0  0.29090443415E+01 -0.97104547686E+01  0.27043612372E+02  0.96118995154E+02  0.91677417004E+02 0.  0.
         13    1    3    3    0    0 -0.35899501255E+02 -0.12562125932E+02 -0.13084328710E+02  0.40221785392E+02  0.10566000000E+00 0.  1.
         22    1    1    0    0    0 -0.29090443415E+01  0.97104547686E+01 -0.27043612372E+02  0.28881004846E+02  0.00000000000E+00 0. -1.
</event>
<event>
 5    1  0.1751027E-003  0.9118800E+02  0.7818608E-02  0.1130116E+00
         25   -1    0    0    0    0  0.00000000000E+00  0.00000000000E+00  0.99999998245E-14  0.12500000000E+03  0.12500000000E+03 0.  0.
        -13    1    3    3    0    0 -0.14321026855E+02  0.22322254882E+02  0.24573481497E+02  0.36155802164E+02  0.10566000000E+00 0. -1.
         23    2    1    0    0    0  0.62533540716E+01 -0.28598283895E+02  0.16150223273E+01  0.95681497719E+02  0.91078946139E+02 0.  0.
         13    1    3    3    0    0  0.20574380926E+02 -0.50920538777E+02 -0.22958459169E+02  0.59525695555E+02  0.10566000000E+00 0.  1.
         22    1    1    0    0    0 -0.62533540716E+01  0.28598283895E+02 -0.16150223273E+01  0.29318502281E+02  0.00000000000E+00 0.  1.
</event>
<event>
 5    1  0.1751027E-003  0.9118800E+02  0.7818608E-02  0.1130116E+00
         25   -1    0    0    0    0  0.00000000000E+00  0.00000000000E+00  0.99999998245E-14  0.12500000000E+03  0.12500000000E+03 0.  0.
        -13    1    3    3    0    0  0.27306266619E+02  0.35438330402E+02  0.36765923169E+02  0.57907268360E+02  0.10566000000E+00 0.  1.
         23    2    1    0    0    0  0.21982036566E+02  0.19259457655E+02  0.31333924779E+01  0.95606892149E+02  0.90976497169E+02 0.  0.
         13    1    3    3    0    0 -0.53242300539E+01 -0.16178872747E+02 -0.33632530691E+02  0.37699623788E+02  0.10566000000E+00 0. -1.
         22    1    1    0    0    0 -0.21982036566E+02 -0.19259457655E+02 -0.31333924779E+01  0.29393107851E+02  0.00000000000E+00 0.  1.
</event>
<event>
 5    1  0.1751027E-003  0.9118800E+02  0.7818608E-02  0.1130116E+00
         25   -1    0    0    0    0  0.00000000000E+00  0.00000000000E+00  0.99999998245E-14  0.12500000000E+03  0.12500000000E+03 0.  0.
        -13    1    3    3    0    0 -0.14626959140E+02  0.30807854237E+02  0.33351255328E+02  0.47701039951E+02  0.10566000000E+00 0. -1.
         23    2    1    0    0    0  0.11393801059E+02  0.21699859291E+02 -0.95492873995E+01  0.98696169754E+02  0.95126454987E+02 0.  0.
         13    1    3    3    0    0  0.26020760199E+02 -0.91079949463E+01 -0.42900542728E+02  0.50995129803E+02  0.10566000000E+00 0.  1.
         22    1    1    0    0    0 -0.11393801059E+02 -0.21699859291E+02  0.95492873995E+01  0.26303830246E+02  0.00000000000E+00 0. -1.
</event>
<event>
 5    1  0.1751027E-003  0.9118800E+02  0.7818608E-02  0.1130116E+00
         25   -1    0    0    0    0  0.00000000000E+00  0.00000000000E+00  0.99999998245E-14  0.12500000000E+03  0.12500000000E+03 0.  0.
        -13    1    3    3    0    0  0.47626854992E+02 -0.26095245153E+02  0.58163635000E+01  0.54617949288E+02  0.10566000000E+00 0.  1.
         23    2    1    0    0    0  0.54936181306E+01 -0.26385392689E+02  0.82265554157E+01  0.96821195882E+02  0.92629903219E+02 0.  0.
         13    1    3    3    0    0 -0.42133236861E+02 -0.29014753646E+00  0.24101919157E+01  0.42203246594E+02  0.10566000000E+00 0. -1.
         22    1    1    0    0    0 -0.54936181306E+01  0.26385392689E+02 -0.82265554157E+01  0.28178804118E+02  0.00000000000E+00 0.  1.
</event>
<event>
 5    1  0.1751027E-003  0.9118800E+02  0.7818608E-02  0.1130116E+00
         25   -1    0    0    0    0  0.00000000000E+00  0.00000000000E+00  0.99999998245E-14  0.12500000000E+03  0.12500000000E+03 0.  0.
        -13    1    3    3    0    0  0.16189941668E+02  0.99331642188E+01 -0.26961462698E+02  0.32980503293E+02  0.10566000000E+00 0.  1.
         23    2    1    0    0    0 -0.12888318060E+02 -0.15698155227E+00  0.26987691797E+02  0.95092327169E+02  0.90266725831E+02 0.  0.
         13    1    3    3    0    0 -0.29078259728E+02 -0.10090145771E+02  0.53949154495E+02  0.62111823876E+02  0.10566000000E+00 0. -1.
         22    1    1    0    0    0  0.12888318060E+02  0.15698155227E+00 -0.26987691797E+02  0.29907672831E+02  0.00000000000E+00 0. -1.
</event>
<event>
 5    1  0.1751027E-003  0.9118800E+02  0.7818608E-02  0.1130116E+00
         25   -1    0    0    0    0  0.00000000000E+00  0.00000000000E+00  0.99999998245E-14  0.12500000000E+03  0.12500000000E+03 0.  0.
        -13    1    3    3    0    0 -0.42365834136E+02 -0.10197902704E+02 -0.28881354968E+02  0.52278149837E+02  0.10566000000E+00 0. -1.
         23    2    1    0    0    0 -0.27734183363E+02 -0.69290311201E+01  0.10600792270E+02  0.94511097169E+02  0.89458226521E+02 0.  0.
         13    1    3    3    0    0  0.14631650773E+02  0.32688715837E+01  0.39482147238E+02  0.42232947332E+02  0.10566000000E+00 0.  1.
         22    1    1    0    0    0  0.27734183363E+02  0.69290311201E+01 -0.10600792270E+02  0.30488902831E+02  0.00000000000E+00 0. -1.
</event>
<event>
 5    1  0.1751027E-003  0.9118800E+02  0.7818608E-02  0.1130116E+00
         25   -1    0    0    0    0  0.00000000000E+00  0.00000000000E+00  0.99999998245E-14  0.12500000000E+03  0.12500000000E+03 0.  0.
        -13    1    3    3    0    0 -0.26022357467E+02 -0.28547685097E+02  0.18447318135E+00  0.38628727741E+02  0.10566000000E+00 0. -1.
         23    2    1    0    0    0 -0.57380405732E+01  0.26234752383E+02  0.64508413485E+01  0.97381153240E+02  0.93382483958E+02 0.  0.
         13    1    3    3    0    0  0.20284316893E+02  0.54782437480E+02  0.62663681672E+01  0.58752425500E+02  0.10566000000E+00 0.  1.
         22    1    1    0    0    0  0.57380405732E+01 -0.26234752383E+02 -0.64508413485E+01  0.27618846760E+02  0.00000000000E+00 0.  1.
</event>
<event>
 5    1  0.1751027E-003  0.9118800E+02  0.7818608E-02  0.1130116E+00
         25   -1    0    0    0    0  0.00000000000E+00  0.00000000000E+00  0.99999998245E-14  0.12500000000E+03  0.12500000000E+03 0.  0.
        -13    1    3    3    0    0  0.13288430744E+02 -0.96024789703E+01  0.53383198937E+02  0.55844132072E+02  0.10566000000E+00 0. -1.
         23    2    1    0    0    0 -0.13683948310E+02 -0.94173347722E+01  0.24855894504E+02  0.95104312566E+02  0.90283321502E+02 0.  0.
         13    1    3    3    0    0 -0.26972379054E+02  0.18514419810E+00 -0.28527304433E+02  0.39260180494E+02  0.10566000000E+00 0.  1.
         22    1    1    0    0    0  0.13683948310E+02  0.94173347722E+01 -0.24855894504E+02  0.29895687434E+02  0.00000000000E+00 0. -1.
</event>
<event>
 5    1  0.1751027E-003  0.9118800E+02  0.7818608E-02  0.1130116E+00
         25   -1    0    0    0    0  0.00000000000E+00  0.00000000000E+00  0.99999998245E-14  0.12500000000E+03  0.12500000000E+03 0.  0.
        -13    1    3    3    0    0 -0.32029460917E+02 -0.32256831839E+02  0.86218736640E+01  0.46268103878E+02  0.10566000000E+00 0. -1.
         23    2    1    0    0    0  0.16465625589E+02 -0.15773758705E+02  0.14734794542E+02  0.97851474075E+02  0.94009938404E+02 0.  0.
         13    1    3    3    0    0  0.48495086506E+02  0.16483073133E+02  0.61129208777E+01  0.51583370197E+02  0.10566000000E+00 0.  1.
         22    1    1    0    0    0 -0.16465625589E+02  0.15773758705E+02 -0.14734794542E+02  0.27148525925E+02  0.00000000000E+00 0.  1.
</event>
<event>
 5    1  0.1751027E-003  0.9118800E+02  0.7818608E-02  0.1130116E+00
         25   -1    0    0    0    0  0.00000000000E+00  0.00000000000E+00  0.99999998245E-14  0.12500000000E+03  0.12500000000E+03 0.  0.
        -13    1    3    3    0    0 -0.21403471881E+02  0.16555495744E+02  0.18475396507E+02  0.32764988754E+02  0.10566000000E+00 0. -1.
         23    2    1    0    0    0  0.11424046799E+02 -0.97054981831E+00 -0.29424002664E+02  0.93421166187E+02  0.87922076560E+02 0.  0.
         13    1    3    3    0    0  0.32827518680E+02 -0.17526045562E+02 -0.47899399171E+02  0.60656177433E+02  0.10566000000E+00 0.  1.
         22    1    1    0    0    0 -0.11424046799E+02  0.97054981831E+00  0.29424002664E+02  0.31578833813E+02  0.00000000000E+00 0.  1.
</event>
<event>
 5    1  0.1751027E-003  0.9118800E+02  0.7818608E-02  0.1130116E+00
         25   -1    0    0    0    0  0.00000000000E+00  0.00000000000E+00  0.99999998245E-14  0.12500000000E+03  0.12500000000E+03 0.  0.
        -13    1    3    3    0    0  0.34057123339E+02 -0.13064115197E+01  0.13509603766E+02  0.36662172864E+02  0.10566000000E+00 0.  1.
         23    2    1    0    0    0 -0.26145331169E+02  0.41242108424E+01  0.79446697474E+01  0.97364782715E+02  0.93360568115E+02 0.  0.
         13    1    3    3    0    0 -0.60202454508E+02  0.54306223621E+01 -0.55649340187E+01  0.60702609851E+02  0.10566000000E+00 0. -1.
         22    1    1    0    0    0  0.26145331169E+02 -0.41242108424E+01 -0.79446697474E+01  0.27635217285E+02  0.00000000000E+00 0. -1.
</event>
